FOO
138240
    1MOL0     O    1   0.106   7.873  10.050 -0.2998  1.0174 -0.1864
    1MOL0     C    2   0.152   7.988  10.043  0.5798 -0.3332 -0.5019
    1MOL0     O    3   0.131   8.090  10.135 -0.2906  0.7096 -0.0155
    1MOL0     C    4   0.105   8.077  10.268  0.3104 -0.2148 -0.1984
    1MOL0     C    5   0.083   8.189  10.350  0.1513 -0.5731 -0.1466
    1MOL0     C    6   0.091   8.182  10.485  0.5799 -0.2436 -0.4695
    1MOL0     C    7   0.106   8.066  10.551  0.1332  0.1087  0.6495
    1MOL0     O    8   0.094   8.064  10.684  0.2102 -0.2837  0.2737
    1MOL0     C    9   0.003   7.974  10.745 -0.2975 -0.0247 -0.7483
    1MOL0     C   10   0.000   8.000  10.895  0.7051  0.3244 -0.2726
    1MOL0     C   11   0.114   7.923  10.962  0.0302  0.1272 -0.8845
    1MOL0     C   12   0.086   7.894  11.112  0.2058  0.8000  0.4172
    1MOL0     C   13   0.066   8.019  11.193 -0.4419 -0.2267 -0.6560
    1MOL0     C   14   0.022   7.999  11.343 -0.0409 -0.5091  0.2093
    1MOL0     C   15   0.076   8.092  11.447  0.2024  0.0022 -0.2060
    1MOL0     C   16  -0.016   8.213  11.494 -0.1970 -0.0994  0.1475
    1MOL0     N   17  -0.024   8.323  11.398  0.2395 -0.4648  0.1163
    1MOL0     C   18   0.078   8.408  11.356  0.0462  0.7585  0.2735
    1MOL0     C   19   0.028   8.474  11.254 -0.8892 -0.2440 -0.7441
    1MOL0     C   20   0.098   8.594  11.211  0.4850  0.0904 -0.2152
    1MOL0     C   21   0.137   8.565  11.060  0.0472 -0.8366 -0.0590
    1MOL0     C   22   0.034   8.563  10.954  0.1684 -0.6644  0.4742
    1MOL0     C   23  -0.041   8.702  10.930  0.4191  0.4958 -1.2688
    1MOL0     O   24  -0.149   8.723  11.024 -0.3385 -0.7463  1.0849
    1MOL0     C   25  -0.261   8.644  11.017  1.1720  0.7453 -0.1789
    1MOL0     C   26  -0.352   8.655  11.122 -0.4926  0.2161  0.0904
    1MOL0     C   27  -0.465   8.581  11.125  0.4724  0.0144  0.1361
    1MOL0     C   28  -0.501   8.501  11.017 -0.1373 -0.0632 -0.0192
    1MOL0     C   29  -0.602   8.402  11.037 -0.2983 -0.6254 -0.5681
    1MOL0     O   30  -0.650   8.348  10.921  0.3737 -0.2141  0.5741
    1MOL0     C   31  -0.747   8.249  10.922  0.6508  0.4020 -0.1408
    1MOL0     C   32  -0.808   8.216  10.796  0.7747 -0.3912 -0.2918
    1MOL0     C   33  -0.904   8.110  10.783 -0.3447 -0.3297 -0.9167
    1MOL0     C   34  -0.925   8.022  10.894  1.1975 -0.4333  0.0429
    1MOL0     O   35  -1.006   7.912  10.857 -0.2954  0.1734  0.6224
    1MOL0     C   36  -0.993   7.801  10.937  0.1233 -0.3056 -0.0971
    1MOL0     C   37  -1.102   7.794  11.038  0.0270 -0.9340 -0.4948
    1MOL0     C   38  -1.073   7.675  11.122 -0.8307 -0.5057 -0.8411
    1MOL0     C   39  -1.174   7.663  11.230 -1.1507 -0.1864  0.0865
    1MOL0     C   40  -1.311   7.613  11.193 -0.0491  0.8138  0.5448
    1MOL0     C   41  -1.375   7.578  11.328  1.3609 -0.5199  0.7640
    1MOL0     C   42  -1.525   7.545  11.325  0.3281 -0.4521 -0.4152
    1MOL0     C   43  -1.555   7.427  11.239 -0.5549  0.3044 -0.8910
    1MOL0    Cl   44  -1.446   7.291  11.269  0.0164  0.1552 -0.1554
    1MOL0     C   45  -0.895   8.072  11.020  0.6625  0.8096  0.2772
    1MOL0     C   46  -0.800   8.168  11.028  0.1134 -0.1770  0.6166
    1MOL0     O   47  -0.645   8.385  11.148  0.0655  1.1121 -0.1484
    1MOL0     C   48  -0.419   8.507  10.899  1.0586  0.5327  0.5123
    1MOL0     C   49  -0.299   8.575  10.897 -0.4802 -0.2813 -0.8223
    1MOL0     N   50  -0.099   8.434  11.230 -0.1757 -0.5933  0.2039
    1MOL0     N   51  -0.130   8.348  11.318  0.6812  1.0127 -0.0045
    1MOL0     C   52   0.123   7.945  10.473  0.4351  0.3842 -0.9207
    1MOL0     C   53   0.119   7.954  10.337  0.4267  0.4003  0.1592
    1MOL0     C   54   0.183   8.043   9.904  0.1489  0.5596  1.3405
    1MOL0     C   55   0.156   8.170   9.873  0.3842 -0.1621  0.6807
    1MOL0     C   56   0.171   8.227   9.749  0.2547 -0.7182  0.8051
    1MOL0     C   57   0.211   8.149   9.634 -0.9044 -0.4610 -0.6621
    1MOL0     O   58   0.231   8.204   9.510  0.2904  0.0581  0.3063
    1MOL0     C   59   0.131   8.297   9.455  0.5731 -0.5689  1.0588
    1MOL0     C   60   0.085   8.250   9.313  0.6625 -0.4990 -0.9882
    1MOL0     C   61   0.010   8.118   9.332 -0.4877  0.2464  0.9760
    1MOL0     C   62   0.086   7.993   9.300 -0.1076  0.5303 -0.3262
    1MOL0     C   63   0.007   7.870   9.333  0.2822 -0.5298  0.4331
    1MOL0     C   64  -0.058   7.772   9.372  0.8472  0.2208  0.3536
    1MOL0     C   65   0.247   8.017   9.666  0.7274  0.1730 -0.4404
    1MOL0     C   66   0.227   7.965   9.791 -0.1502  0.4521 -0.2693
    1MOL0     C   67   0.276   7.823   9.804  0.6125 -0.6245 -0.2031
    1MOL0     H   68   0.096   8.287  10.306  3.3194  0.7118  3.1142
    1MOL0     H   69   0.075   8.276  10.538 -1.2348  0.1614 -1.6265
    1MOL0     H   70  -0.090   7.996  10.691 -0.9350  2.5434  1.2025
    1MOL0     H   71   0.040   7.873  10.727  2.7029  1.2488 -2.5161
    1MOL0     H   72  -0.092   7.957  10.935 -0.9214  2.3936 -1.6348
    1MOL0     H   73  -0.018   8.103  10.925 -5.5063 -0.9311  1.7323
    1MOL0     H   74   0.210   7.976  10.960 -0.3086  0.9993  1.7578
    1MOL0     H   75   0.126   7.819  10.929 -1.9256 -0.3995 -0.0729
    1MOL0     H   76   0.000   7.826  11.104 -0.7361  1.9353  0.5584
    1MOL0     H   77   0.166   7.834  11.156 -1.6486 -3.8373 -1.8413
    1MOL0     H   78   0.166   8.062  11.195 -0.5244  0.1045 -2.2408
    1MOL0     H   79  -0.008   8.084  11.145 -0.8000 -0.0660  0.1119
    1MOL0     H   80  -0.088   8.005  11.347 -0.0877 -0.7166 -0.6460
    1MOL0     H   81   0.052   7.896  11.367  0.3441 -0.4992 -0.2380
    1MOL0     H   82   0.174   8.137  11.431 -0.9274  2.8657  0.2505
    1MOL0     H   83   0.092   8.036  11.540  1.2420 -1.9782 -1.5176
    1MOL0     H   84  -0.121   8.185  11.510 -0.2191  0.3027  0.7505
    1MOL0     H   85   0.022   8.254  11.588  0.8632 -1.1917  0.2241
    1MOL0     H   86   0.173   8.400  11.408 -0.2200  0.1239  0.6837
    1MOL0     H   87   0.030   8.679  11.223  0.4090  0.1034 -0.7488
    1MOL0     H   88   0.189   8.617  11.267 -0.4566  3.4053  0.1634
    1MOL0     H   89   0.202   8.650  11.038 -2.7173  1.9757  1.7691
    1MOL0     H   90   0.196   8.473  11.054 -2.0134 -2.2274 -0.0112
    1MOL0     H   91  -0.040   8.485  10.976  0.9233 -1.7575 -0.6553
    1MOL0     H   92   0.084   8.543  10.859 -2.3847  0.0947 -1.1332
    1MOL0     H   93  -0.082   8.678  10.831 -2.3033 -1.7821  0.2612
    1MOL0     H   94   0.030   8.784  10.919  2.9025 -1.7909 -3.5196
    1MOL0     H   95  -0.320   8.703  11.214  0.4562  1.6784 -0.9560
    1MOL0     H   96  -0.524   8.575  11.216  0.0746 -2.9680 -0.2155
    1MOL0     H   97  -0.792   8.273  10.704  1.0434 -0.4021 -0.2533
    1MOL0     H   98  -0.947   8.071  10.692 -1.9513 -0.0593 -0.3144
    1MOL0     H   99  -0.993   7.721  10.862 -2.0800  0.8296 -1.3947
    1MOL0     H  100  -0.895   7.801  10.986  0.3631 -0.6935 -0.5678
    1MOL0     H  101  -1.100   7.890  11.090 -1.4215 -1.2515  0.2028
    1MOL0     H  102  -1.199   7.787  10.988  0.5465 -0.0092 -1.6944
    1MOL0     H  103  -1.080   7.585  11.060  1.0799  0.3775 -2.4891
    1MOL0     H  104  -0.971   7.672  11.162 -0.1696  0.1809 -2.3733
    1MOL0     H  105  -1.177   7.762  11.277  0.9823 -0.7701  1.6113
    1MOL0     H  106  -1.124   7.608  11.310  0.9216  0.5346 -0.6595
    1MOL0     H  107  -1.305   7.515  11.146 -1.2293  0.4269  1.1500
    1MOL0     H  108  -1.370   7.687  11.137 -1.9010  0.0480  1.3952
    1MOL0     H  109  -1.329   7.503  11.393  1.4972 -2.5186 -1.4975
    1MOL0     H  110  -1.366   7.670  11.386  4.7742 -0.9992  1.1701
    1MOL0     H  111  -1.597   7.624  11.300  0.0082 -1.2347 -2.0406
    1MOL0     H  112  -1.548   7.537  11.432 -3.4191  3.1750 -0.6999
    1MOL0     H  113  -1.659   7.392  11.246 -0.3160 -0.0949  1.9418
    1MOL0     H  114  -1.547   7.455  11.134 -1.0857 -0.5003 -1.1572
    1MOL0     H  115  -0.930   8.005  11.099  1.5681 -0.8055 -0.6321
    1MOL0     H  116  -0.777   8.190  11.131  0.9000  0.0073  0.4049
    1MOL0     H  117  -0.454   8.447  10.816 -1.1901 -1.5764  2.7831
    1MOL0     H  118  -0.233   8.565  10.811  2.8749  3.0437  1.0647
    1MOL0     H  119   0.122   7.847  10.521 -0.3420 -0.3829 -2.4357
    1MOL0     H  120   0.139   7.862  10.283 -0.4273 -0.4576  1.2550
    1MOL0     H  121   0.136   8.248   9.946 -0.1008  0.7102 -0.3396
    1MOL0     H  122   0.166   8.335   9.743  2.3322 -0.5951  0.4439
    1MOL0     H  123   0.146   8.405   9.459 -4.5067  0.3620  3.0800
    1MOL0     H  124   0.042   8.292   9.519  0.2568 -2.5725  0.5587
    1MOL0     H  125   0.172   8.240   9.248  1.3281  1.6637 -0.5012
    1MOL0     H  126   0.012   8.323   9.276 -1.0300 -0.0670  2.7771
    1MOL0     H  127  -0.076   8.120   9.264 -0.8096 -2.0773  1.2199
    1MOL0     H  128  -0.023   8.114   9.436 -1.4752  1.5015  0.7324
    1MOL0     H  129   0.113   7.987   9.194 -2.7961 -1.1386 -1.0407
    1MOL0     H  130   0.172   8.002   9.367 -0.1008  1.1938 -0.4186
    1MOL0     H  131  -0.127   7.695   9.400  1.0679 -1.1650 -2.5754
    1MOL0     H  132   0.284   7.956   9.585  2.3005 -2.8483  2.2916
    1MOL0     H  133   0.299   7.795   9.908  3.8357  2.9696  0.2803
    1MOL0     H  134   0.217   7.750   9.748  0.5088  0.6740 -1.8615
    1MOL0     H  135   0.373   7.820   9.754  1.0982  2.4950  0.3138
    2MOL0     O  136   6.684   9.187   3.091 -0.1268 -0.4836 -0.2297
    2MOL0     C  137   6.679   9.280   3.173  0.2403 -0.0014  0.1077
    2MOL0     O  138   6.656   9.409   3.137 -0.2617 -0.2671  0.8663
    2MOL0     C  139   6.671   9.427   2.999  0.4571  0.1478  0.2855
    2MOL0     C  140   6.786   9.417   2.925 -0.6397  0.3481 -0.0082
    2MOL0     C  141   6.796   9.440   2.788  0.0349  0.1329 -0.7111
    2MOL0     C  142   6.678   9.484   2.725  0.9759  0.8101  0.5772
    2MOL0     O  143   6.670   9.512   2.592  0.5389  0.0663  0.2734
    2MOL0     C  144   6.729   9.408   2.512  0.7789  1.0049  0.0230
    2MOL0     C  145   6.719   9.436   2.363  0.9080 -0.0685 -0.3961
    2MOL0     C  146   6.794   9.566   2.325 -0.1637 -0.6446  0.3726
    2MOL0     C  147   6.785   9.601   2.174 -0.3113  0.4117 -0.2149
    2MOL0     C  148   6.836   9.744   2.151  0.6090  0.3694  0.1556
    2MOL0     C  149   6.797   9.794   2.002 -0.5415  0.0159  0.3377
    2MOL0     C  150   6.861   9.928   1.960  0.2464 -0.2574  0.2417
    2MOL0     C  151   6.916   9.907   1.819 -0.2861  0.7153  0.1564
    2MOL0     N  152   6.976  10.014   1.740  0.5407 -0.3690 -0.4888
    2MOL0     C  153   7.062  10.115   1.764 -0.1102  0.0588 -0.3419
    2MOL0     C  154   7.042  10.195   1.660 -1.1364 -0.3230 -0.2920
    2MOL0     C  155   7.111  10.330   1.641  0.0872  0.2871  0.2914
    2MOL0     C  156   7.179  10.382   1.766 -0.3734  0.2353 -0.7090
    2MOL0     C  157   7.268  10.504   1.754 -0.1691  0.3013 -0.3197
    2MOL0     C  158   7.386  10.472   1.666  0.5394 -0.1632 -0.4149
    2MOL0     O  159   7.454  10.361   1.717  1.2804  0.5948  0.4271
    2MOL0     C  160   7.558  10.312   1.656  0.1608 -0.0151 -0.0142
    2MOL0     C  161   7.658  10.392   1.578 -0.0239 -0.2519  0.1289
    2MOL0     C  162   7.751  10.334   1.492 -0.4248 -0.2830  0.1877
    2MOL0     C  163   7.762  10.195   1.505 -0.3561  0.2321 -0.1495
    2MOL0     C  164   7.875  10.135   1.434 -0.1268  1.2396 -0.2433
    2MOL0     O  165   7.955  10.202   1.348  0.2684  0.0525  0.1576
    2MOL0     C  166   8.073  10.137   1.292  1.1662 -0.7001  0.2037
    2MOL0     C  167   8.057  10.070   1.169 -1.5886 -0.0617  0.9030
    2MOL0     C  168   8.180  10.017   1.113 -0.1108  0.4869 -0.3783
    2MOL0     C  169   8.309  10.029   1.177  0.2675 -0.1394  0.3282
    2MOL0     O  170   8.429  10.010   1.133 -0.7138 -0.4810  0.6160
    2MOL0     C  171   8.441   9.879   1.089  0.1870  0.1819  0.0929
    2MOL0     C  172   8.534   9.808   1.188 -0.3752  0.8745  0.0100
    2MOL0     C  173   8.550   9.664   1.131 -0.6278 -0.2202  0.5351
    2MOL0     C  174   8.638   9.582   1.225  0.0737  0.1890 -0.2319
    2MOL0     C  175   8.700   9.461   1.158  0.3132 -1.4160 -1.3779
    2MOL0     C  176   8.715   9.332   1.241 -1.0089 -0.6205 -0.2365
    2MOL0     C  177   8.840   9.357   1.333 -0.1963  0.1659 -0.9438
    2MOL0     C  178   8.878   9.224   1.390 -0.3709 -1.7126 -0.0016
    2MOL0    Cl  179   8.940   9.107   1.261 -0.0967 -0.0941  0.4994
    2MOL0     C  180   8.315  10.093   1.305  0.0057  0.2729 -0.6313
    2MOL0     C  181   8.200  10.141   1.357  1.0798 -0.0904  0.2755
    2MOL0     O  182   7.892  10.015   1.468 -0.0131  0.2128 -0.4588
    2MOL0     C  183   7.671  10.116   1.578 -0.1842 -0.3497 -0.0743
    2MOL0     C  184   7.564  10.168   1.655  0.0964  0.1215 -0.4864
    2MOL0     N  185   6.960  10.140   1.573 -0.1944 -0.3207  0.8024
    2MOL0     N  186   6.932  10.023   1.620 -0.2097  0.1215 -0.9232
    2MOL0     C  187   6.561   9.502   2.800  0.1745  0.7125  0.4799
    2MOL0     C  188   6.551   9.467   2.932 -0.0269  0.0112 -0.6892
    2MOL0     C  189   6.693   9.245   3.319 -1.0056  0.7558  0.7381
    2MOL0     C  190   6.685   9.351   3.404  0.0203 -0.4768  0.7932
    2MOL0     C  191   6.687   9.338   3.546  0.3222 -0.3321  0.7627
    2MOL0     C  192   6.709   9.209   3.602  0.0652  1.3368  0.1901
    2MOL0     O  193   6.708   9.188   3.739 -0.1819  0.1125 -0.0629
    2MOL0     C  194   6.668   9.294   3.821 -0.5745 -0.8892  0.6262
    2MOL0     C  195   6.714   9.249   3.964  0.2371 -0.0417  0.0262
    2MOL0     C  196   6.630   9.128   3.993 -0.7072  0.5094  0.5732
    2MOL0     C  197   6.482   9.154   4.004  0.0482 -0.0286  0.8495
    2MOL0     C  198   6.413   9.059   4.075 -0.0602  1.4187  0.6603
    2MOL0     C  199   6.351   8.978   4.137 -0.3625 -0.4658 -0.8451
    2MOL0     C  200   6.724   9.104   3.519 -1.0516  0.1938 -0.0567
    2MOL0     C  201   6.716   9.119   3.379 -0.0213  0.5703  0.3519
    2MOL0     C  202   6.718   8.982   3.310  0.4335 -0.3513  0.6344
    2MOL0     H  203   6.881   9.390   2.969  1.1386  2.5546 -2.2309
    2MOL0     H  204   6.883   9.420   2.726 -1.4376 -1.0879 -2.5141
    2MOL0     H  205   6.834   9.381   2.527  0.3192 -1.2764 -0.3796
    2MOL0     H  206   6.674   9.317   2.540  1.3171  0.3987 -0.8122
    2MOL0     H  207   6.614   9.440   2.334  0.5574  2.7369  0.8951
    2MOL0     H  208   6.760   9.353   2.305  1.6681 -0.2288  0.3480
    2MOL0     H  209   6.901   9.548   2.342 -0.5979 -1.7401  2.2185
    2MOL0     H  210   6.764   9.659   2.375  2.4618  1.0343 -0.9344
    2MOL0     H  211   6.845   9.529   2.118 -1.4163 -0.4595 -0.3165
    2MOL0     H  212   6.679   9.598   2.149 -0.5876 -1.9339  1.0336
    2MOL0     H  213   6.798   9.814   2.226  0.2349  2.4353 -1.8547
    2MOL0     H  214   6.945   9.752   2.154  0.5407  1.2304  0.6462
    2MOL0     H  215   6.828   9.708   1.943 -2.6071  0.1602 -1.0838
    2MOL0     H  216   6.689   9.807   1.986 -0.8445 -0.6559  1.6898
    2MOL0     H  217   6.946   9.939   2.028  1.4039 -1.2040 -1.0094
    2MOL0     H  218   6.787  10.008   1.965  0.1076 -0.1968 -1.9028
    2MOL0     H  219   6.989   9.828   1.839 -0.5337  0.7193  1.1235
    2MOL0     H  220   6.839   9.856   1.761 -0.6336 -0.3188  1.4763
    2MOL0     H  221   7.128  10.129   1.849  0.9671 -2.0345 -0.7454
    2MOL0     H  222   7.184  10.317   1.561 -0.9278 -1.5962 -0.3799
    2MOL0     H  223   7.025  10.395   1.622 -2.8268 -3.5957 -1.1223
    2MOL0     H  224   7.100  10.409   1.837  1.5547  0.7621  1.3218
    2MOL0     H  225   7.234  10.298   1.808 -0.6632 -0.9212 -2.5136
    2MOL0     H  226   7.316  10.524   1.851 -0.5377 -0.8378  0.1098
    2MOL0     H  227   7.221  10.594   1.713  4.1258  3.4997  0.9818
    2MOL0     H  228   7.441  10.563   1.641  0.5820 -0.6998 -2.4406
    2MOL0     H  229   7.342  10.457   1.567 -2.4979 -0.7395  0.8981
    2MOL0     H  230   7.662  10.499   1.592  0.1711 -0.1223 -0.9035
    2MOL0     H  231   7.829  10.384   1.435  0.1500  0.3366  1.4536
    2MOL0     H  232   7.963  10.063   1.115 -1.6837 -1.2341  1.1952
    2MOL0     H  233   8.166   9.973   1.014  0.2553  1.8556 -1.0600
    2MOL0     H  234   8.349   9.821   1.094  0.1222  0.3497  0.8779
    2MOL0     H  235   8.474   9.883   0.984  1.2305  1.2067  0.4276
    2MOL0     H  236   8.629   9.861   1.190 -0.3959  1.0021 -1.4534
    2MOL0     H  237   8.496   9.808   1.291  0.5252 -2.2048  0.4562
    2MOL0     H  238   8.456   9.610   1.112  0.5567 -2.3513  0.3844
    2MOL0     H  239   8.594   9.682   1.033 -2.4961  3.2526  0.1816
    2MOL0     H  240   8.581   9.546   1.311  4.4095 -2.5127  1.8511
    2MOL0     H  241   8.715   9.651   1.260  0.6421 -1.2265  1.4863
    2MOL0     H  242   8.798   9.493   1.121 -1.2295  1.3073 -3.4440
    2MOL0     H  243   8.642   9.437   1.068 -0.7699  2.7397 -1.9654
    2MOL0     H  244   8.635   9.318   1.313 -0.0483 -1.9760  0.6191
    2MOL0     H  245   8.730   9.239   1.185  0.7715 -1.0421  0.8487
    2MOL0     H  246   8.814   9.423   1.416 -0.3174 -0.6909 -0.2814
    2MOL0     H  247   8.926   9.395   1.278  1.2071 -2.3684 -0.6547
    2MOL0     H  248   8.960   9.227   1.462  1.5842  1.6414 -2.1008
    2MOL0     H  249   8.791   9.187   1.444  1.8724 -3.8215  2.5082
    2MOL0     H  250   8.413  10.116   1.345 -0.6067  5.3633 -1.3744
    2MOL0     H  251   8.210  10.195   1.451  1.6917 -0.6373  0.5282
    2MOL0     H  252   7.668  10.009   1.565 -0.4630 -0.1400 -1.9241
    2MOL0     H  253   7.492  10.112   1.713 -0.8979  0.4170 -1.4016
    2MOL0     H  254   6.483   9.544   2.738  0.9477 -0.4691 -1.4027
    2MOL0     H  255   6.455   9.466   2.982 -0.1375  0.4969 -0.8840
    2MOL0     H  256   6.671   9.451   3.365 -0.8955 -1.1626 -0.7330
    2MOL0     H  257   6.668   9.426   3.607  0.8233 -0.9488  1.8563
    2MOL0     H  258   6.560   9.314   3.813 -0.5622 -1.0439 -0.0083
    2MOL0     H  259   6.727   9.383   3.800  1.5424 -1.7671  2.4581
    2MOL0     H  260   6.698   9.329   4.037 -0.2053  0.8789 -1.0376
    2MOL0     H  261   6.822   9.229   3.967  0.6931  2.2434  0.7991
    2MOL0     H  262   6.666   9.097   4.091  1.4961  1.2998  0.0893
    2MOL0     H  263   6.649   9.050   3.918 -1.0923  1.6064 -0.7208
    2MOL0     H  264   6.457   9.252   4.046  0.0507  0.2185  0.2868
    2MOL0     H  265   6.448   9.146   3.900 -3.1778 -0.1225  1.8105
    2MOL0     H  266   6.291   8.902   4.184 -1.7131  1.1731  0.2456
    2MOL0     H  267   6.735   9.003   3.558  1.2822  0.7974  1.0793
    2MOL0     H  268   6.814   8.941   3.344  0.3229 -0.7269  0.5073
    2MOL0     H  269   6.632   8.918   3.333  0.7967 -1.8930 -1.8278
    2MOL0     H  270   6.724   8.971   3.201  1.9221  0.3650  0.6188
    3MOL0     O  271   5.473   4.360   4.177  0.5271  0.3286  0.6576
    3MOL0     C  272   5.587   4.411   4.172 -0.4216 -0.2380 -0.5649
    3MOL0     O  273   5.637   4.487   4.069 -0.1859  0.1365 -0.0531
    3MOL0     C  274   5.533   4.515   3.986 -0.6353 -0.4069  0.1573
    3MOL0     C  275   5.495   4.434   3.882  0.1323 -0.5550  0.1633
    3MOL0     C  276   5.404   4.478   3.790  0.3046  0.2912 -0.2320
    3MOL0     C  277   5.357   4.612   3.798 -0.3557  0.3387  0.1029
    3MOL0     O  278   5.266   4.672   3.712 -0.2886 -0.5689 -0.0425
    3MOL0     C  279   5.225   4.594   3.601  0.0256  0.6248  0.6528
    3MOL0     C  280   5.132   4.678   3.509  0.0862 -0.1439  0.4264
    3MOL0     C  281   5.078   4.599   3.386 -0.1666  0.0057 -0.6508
    3MOL0     C  282   4.942   4.647   3.334 -0.0981  0.2027  0.6635
    3MOL0     C  283   4.891   4.602   3.197  0.0956  1.0625 -0.2147
    3MOL0     C  284   5.002   4.629   3.089  0.1791  0.2138 -0.7788
    3MOL0     C  285   4.954   4.588   2.947  0.3020 -0.3638  0.4960
    3MOL0     C  286   5.065   4.585   2.849 -0.0929 -0.4460 -0.2234
    3MOL0     N  287   5.147   4.706   2.823 -0.2105  0.1296  0.3625
    3MOL0     C  288   5.107   4.840   2.803  1.0582  0.5752 -0.1874
    3MOL0     C  289   5.210   4.921   2.800 -0.3052  0.4123  0.8679
    3MOL0     C  290   5.195   5.068   2.769 -0.1438 -0.7190  0.4544
    3MOL0     C  291   5.281   5.169   2.849  0.1955 -0.4087 -0.6726
    3MOL0     C  292   5.233   5.313   2.820 -0.2871 -0.0441 -0.5211
    3MOL0     C  293   5.307   5.413   2.906 -0.3184  0.2225  0.0729
    3MOL0     O  294   5.234   5.533   2.923 -0.7337 -0.0520 -0.4551
    3MOL0     C  295   5.239   5.598   3.044 -0.4687  0.4108  1.0584
    3MOL0     C  296   5.123   5.635   3.099  0.2444 -0.0766 -0.4681
    3MOL0     C  297   5.111   5.697   3.230 -0.1018  0.5727  0.3334
    3MOL0     C  298   5.235   5.731   3.294  0.7247 -0.7972 -0.3849
    3MOL0     C  299   5.234   5.788   3.427  0.4343  0.9426  0.0951
    3MOL0     O  300   5.116   5.825   3.465  0.2855  0.5846  0.2659
    3MOL0     C  301   5.082   5.925   3.557 -0.4637  0.5194 -0.4147
    3MOL0     C  302   5.122   5.922   3.694  0.0223  0.5422  0.3718
    3MOL0     C  303   5.093   6.022   3.777  0.2683 -0.4186  0.0188
    3MOL0     C  304   5.021   6.135   3.740 -0.2244 -0.0734  0.5746
    3MOL0     O  305   4.996   6.230   3.837 -0.6565 -0.2332  0.1956
    3MOL0     C  306   4.866   6.264   3.856  0.6268  0.6454  0.8444
    3MOL0     C  307   4.842   6.333   3.987 -0.4609  0.1215 -0.9066
    3MOL0     C  308   4.818   6.223   4.093 -0.9347  1.1476 -0.8734
    3MOL0     C  309   4.833   6.281   4.236  0.3321  0.0306 -0.7417
    3MOL0     C  310   4.860   6.170   4.337  0.6463  0.1237 -0.3103
    3MOL0     C  311   4.919   6.208   4.476 -0.5457 -0.1430  0.1725
    3MOL0     C  312   4.819   6.291   4.557 -0.1940 -0.1716 -0.3503
    3MOL0     C  313   4.860   6.317   4.701  0.1176  0.4922 -0.0973
    3MOL0    Cl  314   4.857   6.172   4.812  0.3342  0.4554 -0.0526
    3MOL0     C  315   4.971   6.139   3.605 -0.2481  0.0376 -0.0922
    3MOL0     C  316   5.000   6.030   3.521  0.3124 -0.6514  0.2880
    3MOL0     O  317   5.334   5.791   3.508  0.5739  0.8784  0.4641
    3MOL0     C  318   5.355   5.706   3.224 -0.4555 -0.2989 -0.7883
    3MOL0     C  319   5.351   5.631   3.114  0.1159 -0.5379  0.4240
    3MOL0     N  320   5.322   4.841   2.813  0.2684  0.0383 -0.0066
    3MOL0     N  321   5.285   4.714   2.845 -0.3844  0.4186  0.0871
    3MOL0     C  322   5.390   4.695   3.900  0.3348 -0.1192  1.0883
    3MOL0     C  323   5.480   4.650   3.994  0.6782  0.2269  0.0948
    3MOL0     C  324   5.673   4.406   4.292  0.7922 -0.2174 -0.9537
    3MOL0     C  325   5.798   4.472   4.287  0.2322 -0.4273  0.6322
    3MOL0     C  326   5.874   4.478   4.406  0.1268  0.2992  0.2403
    3MOL0     C  327   5.841   4.421   4.523  0.7294 -0.3010  0.4550
    3MOL0     O  328   5.897   4.434   4.643  0.0687 -0.3222 -0.3324
    3MOL0     C  329   5.871   4.563   4.718  0.7117  0.3949  0.4985
    3MOL0     C  330   5.996   4.629   4.784 -0.2628  0.0056 -0.0534
    3MOL0     C  331   6.063   4.740   4.698 -0.2231  0.2689  1.7020
    3MOL0     C  332   6.214   4.764   4.751  0.6133 -0.6952  0.4877
    3MOL0     C  333   6.205   4.785   4.900 -0.8168 -1.0054 -0.0476
    3MOL0     C  334   6.170   4.798   5.016 -0.5574  0.8075 -0.7780
    3MOL0     C  335   5.722   4.354   4.531  0.0628  0.0539 -0.1404
    3MOL0     C  336   5.637   4.352   4.418  0.3849 -0.5417  0.0003
    3MOL0     C  337   5.513   4.262   4.425  0.4663  0.1445  0.9054
    3MOL0     H  338   5.554   4.344   3.886  1.0646  0.0353 -0.0139
    3MOL0     H  339   5.367   4.418   3.708  1.1005  0.4719 -0.7359
    3MOL0     H  340   5.315   4.572   3.542  2.3324  3.1883  2.8932
    3MOL0     H  341   5.163   4.514   3.641 -2.4035  2.4071  0.6459
    3MOL0     H  342   5.169   4.778   3.484 -1.8580  0.4745 -0.2254
    3MOL0     H  343   5.047   4.711   3.569  0.9209  0.5750  1.2289
    3MOL0     H  344   5.077   4.494   3.417  0.7598 -0.1642 -1.1729
    3MOL0     H  345   5.153   4.607   3.306 -0.7484  1.3759 -1.0842
    3MOL0     H  346   4.859   4.635   3.404 -0.3001  0.3699  0.4548
    3MOL0     H  347   4.947   4.756   3.323  0.1343  0.0094 -1.6387
    3MOL0     H  348   4.858   4.499   3.181 -1.5246  1.5793 -0.3350
    3MOL0     H  349   4.797   4.656   3.187 -0.4960  0.6434  2.3080
    3MOL0     H  350   5.038   4.732   3.089 -0.8515  0.6771  2.0860
    3MOL0     H  351   5.081   4.557   3.110 -0.7630 -0.7746 -0.5331
    3MOL0     H  352   4.886   4.666   2.911  0.2537 -0.7913 -0.3428
    3MOL0     H  353   4.916   4.486   2.957  0.1260 -0.0959  4.1837
    3MOL0     H  354   5.133   4.511   2.892 -0.0225  0.6189  1.6142
    3MOL0     H  355   5.010   4.549   2.761 -0.9725  1.0399 -0.3160
    3MOL0     H  356   5.009   4.887   2.804  0.7063 -0.1204  1.8009
    3MOL0     H  357   5.228   5.071   2.665 -2.6173 -2.7448 -0.4822
    3MOL0     H  358   5.091   5.098   2.781 -0.1563 -0.3731 -0.4132
    3MOL0     H  359   5.283   5.156   2.957  1.3543  2.4531 -0.2793
    3MOL0     H  360   5.384   5.177   2.814  1.7131 -0.4147  3.3469
    3MOL0     H  361   5.130   5.329   2.854  0.6833  0.1434  2.6048
    3MOL0     H  362   5.244   5.338   2.714 -1.9551 -2.5006 -1.3601
    3MOL0     H  363   5.409   5.433   2.874 -0.4405 -2.0989 -2.0702
    3MOL0     H  364   5.309   5.362   3.003  2.5324  1.5409  0.8108
    3MOL0     H  365   5.031   5.616   3.044  0.1933  1.7204 -1.0869
    3MOL0     H  366   5.009   5.690   3.266 -0.4274 -2.0857 -0.8414
    3MOL0     H  367   5.183   5.839   3.728  1.1427 -0.1710 -2.9585
    3MOL0     H  368   5.128   6.010   3.879 -0.2227  1.9577  0.5332
    3MOL0     H  369   4.833   6.335   3.779  0.8295  0.3348  0.4682
    3MOL0     H  370   4.798   6.179   3.844  1.8578 -0.4747  1.6275
    3MOL0     H  371   4.922   6.404   4.013 -0.9792  1.0143 -1.7085
    3MOL0     H  372   4.756   6.400   3.983  0.1559  0.9540 -5.4025
    3MOL0     H  373   4.724   6.169   4.081 -0.6913  0.8205 -1.3635
    3MOL0     H  374   4.900   6.151   4.080 -2.4754 -0.8046 -0.1973
    3MOL0     H  375   4.743   6.335   4.268 -0.9639 -2.8531  0.8808
    3MOL0     H  376   4.911   6.357   4.249  0.4032 -0.2688  0.7838
    3MOL0     H  377   4.927   6.104   4.280 -0.8745  1.3532 -3.8685
    3MOL0     H  378   4.766   6.118   4.351 -0.3102  2.0024  0.6382
    3MOL0     H  379   4.949   6.122   4.536  0.1249 -2.3075 -3.0345
    3MOL0     H  380   5.013   6.264   4.460 -0.8029 -0.3278 -2.4777
    3MOL0     H  381   4.722   6.242   4.566 -0.0144 -0.1805  2.1475
    3MOL0     H  382   4.784   6.380   4.504 -0.4863  0.0778  0.2626
    3MOL0     H  383   4.960   6.363   4.703  1.0397 -1.4257  0.2972
    3MOL0     H  384   4.797   6.390   4.753  4.0479  2.8188  1.8859
    3MOL0     H  385   4.913   6.225   3.575 -1.8965 -0.3065  1.8757
    3MOL0     H  386   4.982   6.045   3.415  0.4387  3.5895  0.6891
    3MOL0     H  387   5.452   5.730   3.268  0.6900 -1.1007 -2.7207
    3MOL0     H  388   5.445   5.607   3.064 -0.9832 -0.6906 -1.6746
    3MOL0     H  389   5.350   4.795   3.915 -1.0750 -0.4952 -0.0226
    3MOL0     H  390   5.523   4.705   4.077  3.8675  0.9331 -1.8487
    3MOL0     H  391   5.853   4.506   4.200  0.5405  0.0594  1.0121
    3MOL0     H  392   5.966   4.536   4.408  1.3016 -1.4600  3.0714
    3MOL0     H  393   5.792   4.536   4.789  0.6269  0.7283  0.5305
    3MOL0     H  394   5.818   4.635   4.656  1.0749 -1.5623 -2.2523
    3MOL0     H  395   6.068   4.551   4.809 -1.2586 -1.5777 -1.8619
    3MOL0     H  396   5.957   4.678   4.874 -0.2689 -0.0266 -0.0386
    3MOL0     H  397   6.018   4.840   4.701  0.3623  0.6241 -0.1966
    3MOL0     H  398   6.053   4.708   4.594  0.3189  0.0652  1.7114
    3MOL0     H  399   6.283   4.681   4.733 -4.5776 -5.2627 -1.0588
    3MOL0     H  400   6.254   4.850   4.697 -0.3813 -1.9061 -2.3446
    3MOL0     H  401   6.139   4.819   5.116  1.2826  0.1218 -0.0190
    3MOL0     H  402   5.697   4.304   4.624  2.3212 -1.2807 -0.1899
    3MOL0     H  403   5.420   4.319   4.416 -0.2092 -1.0039  0.4310
    3MOL0     H  404   5.511   4.194   4.340 -0.2251 -1.9614  2.5035
    3MOL0     H  405   5.505   4.195   4.511 -1.2283 -1.4413 -0.4189
    4MOL0     O  406   0.182   9.939   9.005 -0.1662 -0.0972  0.0958
    4MOL0     C  407   0.225  10.050   9.016  0.2225 -0.2179 -0.3312
    4MOL0     O  408   0.207  10.129   9.119  0.1749 -0.6075  1.0480
    4MOL0     C  409   0.120  10.086   9.214  0.4073 -0.2031  0.2576
    4MOL0     C  410   0.157  10.013   9.324 -1.1923 -0.5430 -0.3849
    4MOL0     C  411   0.069   9.953   9.419  1.4132 -0.8222 -0.2628
    4MOL0     C  412  -0.072   9.961   9.392  0.4498 -0.6270 -0.2939
    4MOL0     O  413  -0.154   9.892   9.484 -0.5344  0.3639  0.0053
    4MOL0     C  414  -0.291   9.935   9.499 -0.7543 -0.6389  0.0259
    4MOL0     C  415  -0.309  10.064   9.591  0.4070 -0.5372 -0.8084
    4MOL0     C  416  -0.251  10.040   9.733 -0.4687  0.2673 -0.0979
    4MOL0     C  417  -0.237  10.172   9.798  0.3488 -0.6204 -0.0358
    4MOL0     C  418  -0.184  10.169   9.946 -0.0163 -0.2936 -0.1303
    4MOL0     C  419  -0.040  10.107   9.966 -0.6444 -0.6626 -0.6373
    4MOL0     C  420   0.056  10.216   9.919 -0.5792 -0.5062  0.2910
    4MOL0     C  421   0.209  10.191   9.944 -0.4026  0.2571  0.7604
    4MOL0     N  422   0.241  10.200  10.092 -0.0776  0.0298  0.3473
    4MOL0     C  423   0.241  10.096  10.181  0.4987 -0.2090 -0.1766
    4MOL0     C  424   0.310  10.155  10.290 -0.0427 -0.1598  0.3686
    4MOL0     C  425   0.354  10.080  10.419  0.3724  0.2032 -0.3450
    4MOL0     C  426   0.327  10.164  10.539  0.1343 -0.8845 -0.6974
    4MOL0     C  427   0.182  10.135  10.583 -0.4336 -0.2063  0.8143
    4MOL0     C  428   0.118  10.224  10.689 -0.2493  0.1472 -0.2149
    4MOL0     O  429   0.172  10.166  10.808 -0.1654 -0.5310  0.6511
    4MOL0     C  430   0.103  10.220  10.916 -1.0386 -0.5726  0.8538
    4MOL0     C  431   0.119  10.357  10.945 -0.4246 -0.5565 -1.0228
    4MOL0     C  432   0.071  10.406  11.069  0.3802  0.2622 -0.2441
    4MOL0     C  433  -0.003  10.321  11.157 -0.1202 -0.3691 -0.3390
    4MOL0     C  434  -0.059  10.371  11.288 -0.4394  0.9885  0.7056
    4MOL0     O  435  -0.104  10.270  11.375  0.3299 -0.1299  0.2904
    4MOL0     C  436  -0.172  10.314  11.488 -0.4783 -0.2421 -0.6504
    4MOL0     C  437  -0.102  10.395  11.575 -0.0447 -0.7488 -0.1417
    4MOL0     C  438  -0.172  10.433  11.694 -0.1329  0.1106 -0.3743
    4MOL0     C  439  -0.310  10.407  11.723  0.1821 -0.2993  0.1633
    4MOL0     O  440  -0.377  10.448  11.834 -0.3059 -0.1701 -0.1319
    4MOL0     C  441  -0.300  10.486  11.945 -0.2527 -0.3911 -0.2843
    4MOL0     C  442  -0.379  10.484  12.070 -0.3041  0.1395 -0.2693
    4MOL0     C  443  -0.282  10.473  12.192  0.4627  0.3912  0.8588
    4MOL0     C  444  -0.372  10.453  12.319 -0.1195  0.1230  0.3596
    4MOL0     C  445  -0.429  10.577  12.373  0.4517  0.8029 -0.3471
    4MOL0     C  446  -0.321  10.660  12.458 -0.4003  0.1711 -0.9201
    4MOL0     C  447  -0.396  10.755  12.561 -0.9977 -1.0988 -0.2345
    4MOL0     C  448  -0.310  10.768  12.690 -0.6852 -0.3762  0.0710
    4MOL0    Cl  449  -0.377  10.892  12.803  0.2945  0.5516 -0.3036
    4MOL0     C  450  -0.369  10.313  11.628  0.0713 -0.0130 -0.5628
    4MOL0     C  451  -0.304  10.268  11.520  0.0753  1.3843 -0.2877
    4MOL0     O  452  -0.072  10.491  11.307  0.2145 -0.5621  0.4765
    4MOL0     C  453  -0.005  10.179  11.126  0.4911 -0.1873 -0.3214
    4MOL0     C  454   0.026  10.136  10.997 -0.2626  0.0886  1.4901
    4MOL0     N  455   0.365  10.275  10.253 -0.9114  0.2488  0.6152
    4MOL0     N  456   0.319  10.298  10.138 -0.0982 -0.4334 -0.8442
    4MOL0     C  457  -0.113  10.036   9.279  1.1072 -0.2375 -1.3119
    4MOL0     C  458  -0.020  10.105   9.194 -0.4197  0.5292  0.6480
    4MOL0     C  459   0.265  10.122   8.894 -0.3689 -0.1801  0.1234
    4MOL0     C  460   0.210  10.077   8.770  0.2431 -0.5631  0.3139
    4MOL0     C  461   0.235  10.130   8.647  0.1932 -0.8587 -0.6754
    4MOL0     C  462   0.324  10.246   8.648 -0.1824 -0.2473  0.3515
    4MOL0     O  463   0.375  10.325   8.541  0.3515  0.0652 -0.1828
    4MOL0     C  464   0.372  10.269   8.411  0.1987 -1.7378  0.1590
    4MOL0     C  465   0.418  10.380   8.322 -0.6205 -0.1111  0.6404
    4MOL0     C  466   0.559  10.434   8.365 -0.2965 -0.2386 -0.1163
    4MOL0     C  467   0.647  10.450   8.246  0.3395  0.1486 -0.1052
    4MOL0     C  468   0.616  10.575   8.176 -0.3812 -1.0287 -0.0897
    4MOL0     C  469   0.592  10.678   8.118  0.2017 -0.0575 -0.5008
    4MOL0     C  470   0.378  10.280   8.772 -0.0202 -0.5000  0.9785
    4MOL0     C  471   0.349  10.226   8.894  0.5345 -1.1866  0.0662
    4MOL0     C  472   0.421  10.276   9.021 -0.1079  0.4712 -0.1719
    4MOL0     H  473   0.265  10.006   9.326 -0.4553  3.1265 -5.5749
    4MOL0     H  474   0.104   9.887   9.498  1.1035 -1.6172 -0.7754
    4MOL0     H  475  -0.335   9.951   9.400  1.3548  3.0558 -0.4873
    4MOL0     H  476  -0.343   9.856   9.555  1.5656 -0.6335  2.3740
    4MOL0     H  477  -0.415  10.089   9.595  0.7580  1.3862  4.1948
    4MOL0     H  478  -0.258  10.145   9.539 -1.1971  1.3744  0.4443
    4MOL0     H  479  -0.151   9.998   9.720 -0.3879  0.5031 -0.2364
    4MOL0     H  480  -0.308   9.964   9.788  0.7205 -0.6645 -0.0984
    4MOL0     H  481  -0.178  10.241   9.737  2.0246 -0.9672  1.1323
    4MOL0     H  482  -0.334  10.221   9.808 -0.1627 -1.8692  1.4642
    4MOL0     H  483  -0.181  10.271   9.986  5.0170 -0.8773  1.8059
    4MOL0     H  484  -0.252  10.106  10.004  0.4360  0.7345  1.5904
    4MOL0     H  485  -0.013  10.090  10.071 -2.2877 -0.0119 -0.0878
    4MOL0     H  486  -0.021  10.010   9.921  1.7045 -1.0075  0.9251
    4MOL0     H  487   0.030  10.301   9.983 -0.1870  0.7953 -1.2246
    4MOL0     H  488   0.044  10.233   9.812 -1.0792  1.0708  0.5652
    4MOL0     H  489   0.232  10.090   9.909  1.3674  1.0155 -0.4626
    4MOL0     H  490   0.268  10.260   9.881  3.1656 -2.2267  1.0963
    4MOL0     H  491   0.202   9.997  10.164 -0.9971  0.2302  0.5110
    4MOL0     H  492   0.297   9.988  10.429 -3.0339  2.0817 -0.7438
    4MOL0     H  493   0.462  10.063  10.419  0.4440 -0.1638  3.1467
    4MOL0     H  494   0.402  10.147  10.617 -0.7540  1.8314  0.9116
    4MOL0     H  495   0.335  10.272  10.520  1.8943 -1.0678 -1.1881
    4MOL0     H  496   0.192  10.031  10.616 -1.5248 -0.9170 -0.9706
    4MOL0     H  497   0.127  10.133  10.489 -0.4204 -2.4370  0.8085
    4MOL0     H  498   0.009  10.214  10.685 -0.1675 -1.1875  0.3641
    4MOL0     H  499   0.154  10.322  10.656 -0.0542  0.1978  0.1438
    4MOL0     H  500   0.161  10.417  10.864  1.6405 -0.1884  0.2364
    4MOL0     H  501   0.073  10.513  11.087  0.8107  0.0932  0.7575
    4MOL0     H  502   0.006  10.403  11.561  0.0189 -2.1866 -0.6724
    4MOL0     H  503  -0.117  10.499  11.761 -1.1840  0.2436  0.3812
    4MOL0     H  504  -0.221  10.413  11.964 -1.9270 -2.1677  0.1663
    4MOL0     H  505  -0.277  10.592  11.929 -5.4820  1.2449  1.2182
    4MOL0     H  506  -0.420  10.585  12.082  0.0739  0.4554 -1.5386
    4MOL0     H  507  -0.472  10.426  12.071 -1.0777  1.3355  0.5468
    4MOL0     H  508  -0.229  10.378  12.179  3.6065  2.2393 -0.8907
    4MOL0     H  509  -0.211  10.554  12.209  0.7599  0.2850  0.1733
    4MOL0     H  510  -0.297  10.417  12.389 -0.6601  0.3461  1.0616
    4MOL0     H  511  -0.445  10.374  12.297  0.2960 -0.2620  0.3339
    4MOL0     H  512  -0.510  10.534  12.433  2.2069 -0.0429  1.5271
    4MOL0     H  513  -0.469  10.644  12.296 -1.9027 -0.3220 -0.1941
    4MOL0     H  514  -0.265  10.583  12.511  0.1193 -0.2510 -2.0534
    4MOL0     H  515  -0.255  10.728  12.403  0.8008  1.3068  1.7487
    4MOL0     H  516  -0.498  10.730  12.592 -1.4651  0.7102 -0.1770
    4MOL0     H  517  -0.399  10.854  12.514 -1.3005 -0.7122  0.5795
    4MOL0     H  518  -0.297  10.667  12.729  3.0802 -0.1733 -0.2899
    4MOL0     H  519  -0.212  10.790  12.648 -1.1106 -0.1902 -0.8560
    4MOL0     H  520  -0.471  10.278  11.641 -0.0283  0.8056  1.0198
    4MOL0     H  521  -0.351  10.196  11.453  0.3984  0.1492  0.7868
    4MOL0     H  522  -0.048  10.114  11.201  0.6325  3.2408  3.0174
    4MOL0     H  523  -0.007  10.036  10.971 -1.6808  0.1811  2.8150
    4MOL0     H  524  -0.219  10.053   9.263  1.5068  2.4539 -1.5769
    4MOL0     H  525  -0.043  10.167   9.108  0.5533  0.8421  0.5979
    4MOL0     H  526   0.145   9.989   8.769 -2.4107  1.2783  0.3716
    4MOL0     H  527   0.190  10.098   8.554 -1.7501 -0.8545  0.2075
    4MOL0     H  528   0.272  10.233   8.385 -0.4314  0.4121 -0.5562
    4MOL0     H  529   0.434  10.179   8.402  0.5106 -1.6369  1.1474
    4MOL0     H  530   0.345  10.462   8.317  0.0728  0.4327 -3.0269
    4MOL0     H  531   0.424  10.342   8.220  1.0592 -0.0276  0.6934
    4MOL0     H  532   0.610  10.367   8.435  0.4567  0.1943 -0.2344
    4MOL0     H  533   0.552  10.532   8.412 -0.0744 -0.5393  0.5619
    4MOL0     H  534   0.745  10.457   8.293 -0.0916  2.3677  0.6167
    4MOL0     H  535   0.649  10.366   8.176  3.1423 -0.2251  0.3240
    4MOL0     H  536   0.564  10.752   8.046 -3.0897  0.9795  1.6324
    4MOL0     H  537   0.456  10.356   8.766  2.4620 -2.9955 -0.8091
    4MOL0     H  538   0.366  10.356   9.072  2.2226  2.5572 -0.7409
    4MOL0     H  539   0.449  10.200   9.094  2.9674  2.0503  0.4743
    4MOL0     H  540   0.515  10.321   8.989 -0.5290  0.7568 -1.0371
    5MOL0     O  541   0.022   5.283   1.467  0.1257  0.2144  0.2937
    5MOL0     C  542   0.058   5.199   1.391  0.6042  0.6950  0.2377
    5MOL0     O  543   0.166   5.207   1.300  0.0014 -0.1948 -0.7018
    5MOL0     C  544   0.245   5.318   1.288 -0.0585 -0.3734  1.3596
    5MOL0     C  545   0.322   5.327   1.167  0.6079 -1.1987  1.7728
    5MOL0     C  546   0.416   5.430   1.155  0.1155 -0.0227 -0.4698
    5MOL0     C  547   0.435   5.535   1.251 -0.6109  0.6012  0.5360
    5MOL0     O  548   0.536   5.624   1.220 -0.6900  0.0878 -0.5463
    5MOL0     C  549   0.494   5.760   1.218  0.6501  1.0844 -0.1865
    5MOL0     C  550   0.601   5.852   1.162  0.3997  0.5006  0.7115
    5MOL0     C  551   0.574   6.005   1.193 -0.5076 -0.5610  0.1087
    5MOL0     C  552   0.622   6.107   1.079  0.1398  0.5492 -0.1366
    5MOL0     C  553   0.582   6.251   1.108 -0.4432  0.5762 -1.3017
    5MOL0     C  554   0.421   6.260   1.092  0.4868  0.2428 -0.0649
    5MOL0     C  555   0.381   6.408   1.121 -0.2641  0.5629  0.8569
    5MOL0     C  556   0.235   6.430   1.075  0.1704 -0.1109  0.1152
    5MOL0     N  557   0.197   6.570   1.073 -0.3792  0.5704  0.1319
    5MOL0     C  558   0.243   6.667   0.998  0.0924 -0.0084  0.3325
    5MOL0     C  559   0.178   6.775   1.042 -1.0753  1.0440  0.3684
    5MOL0     C  560   0.207   6.912   0.994  0.5065 -0.0438 -1.4912
    5MOL0     C  561   0.123   6.969   0.878 -0.3970 -0.8671  0.6305
    5MOL0     C  562   0.185   6.924   0.739  0.4979  0.1125  0.9977
    5MOL0     C  563   0.107   6.980   0.618 -0.5617  0.1604  0.4760
    5MOL0     O  564   0.166   7.100   0.576 -0.0127  0.1170  0.5658
    5MOL0     C  565   0.112   7.162   0.462  0.0107 -0.0135  0.0564
    5MOL0     C  566   0.012   7.103   0.382 -0.1230 -0.4468  0.5013
    5MOL0     C  567  -0.054   7.189   0.290  0.3956 -0.2203  0.0518
    5MOL0     C  568  -0.024   7.328   0.281 -0.0148 -0.3980  0.1828
    5MOL0     C  569  -0.093   7.417   0.184  0.2758  0.1601 -0.6570
    5MOL0     O  570  -0.181   7.365   0.097  0.4210 -0.5656 -0.8481
    5MOL0     C  571  -0.237   7.447   0.001 -0.5648  0.6302  0.4577
    5MOL0     C  572  -0.176   7.556  -0.066  0.0785  1.4780 -0.2980
    5MOL0     C  573  -0.245   7.631  -0.148 -0.4976  0.2747  0.0043
    5MOL0     C  574  -0.372   7.611  -0.184  1.3734  0.4833  0.4167
    5MOL0     O  575  -0.428   7.705  -0.268 -0.3471 -0.5262  0.3298
    5MOL0     C  576  -0.554   7.693  -0.332  0.4599  0.0497  0.4113
    5MOL0     C  577  -0.575   7.571  -0.421 -0.4244 -1.2473  0.1890
    5MOL0     C  578  -0.675   7.600  -0.530 -0.0063 -0.3407 -0.4784
    5MOL0     C  579  -0.691   7.484  -0.639  0.5988  0.3987 -0.5661
    5MOL0     C  580  -0.803   7.522  -0.739  0.0882 -0.1627  0.9122
    5MOL0     C  581  -0.817   7.420  -0.861  0.2654  0.1752 -0.3115
    5MOL0     C  582  -0.888   7.463  -0.981  1.2702 -0.2498  0.1101
    5MOL0     C  583  -0.878   7.363  -1.091  0.6614  0.5499  0.3477
    5MOL0    Cl  584  -1.031   7.361  -1.195 -0.0167  0.4986  0.0544
    5MOL0     C  585  -0.432   7.497  -0.128  0.5842  1.1608  0.0320
    5MOL0     C  586  -0.363   7.411  -0.043 -0.3275 -0.3272 -0.5965
    5MOL0     O  587  -0.077   7.537   0.202 -0.1860 -0.5789  0.3843
    5MOL0     C  588   0.082   7.379   0.364 -0.2973 -0.0518  0.7578
    5MOL0     C  589   0.145   7.298   0.451 -0.3002  0.8543 -0.4664
    5MOL0     N  590   0.082   6.737   1.132 -0.1718  0.5154 -0.5502
    5MOL0     N  591   0.095   6.609   1.151  0.0126  0.1504 -0.0520
    5MOL0     C  592   0.352   5.522   1.363  0.4751  0.2046 -0.3358
    5MOL0     C  593   0.265   5.414   1.379 -0.5967  0.4438 -1.4117
    5MOL0     C  594  -0.009   5.066   1.381  0.4498 -0.1452 -0.6807
    5MOL0     C  595   0.064   4.946   1.362  0.3127 -0.0088 -0.2416
    5MOL0     C  596   0.004   4.822   1.352  0.1305  1.1039 -0.7594
    5MOL0     C  597  -0.136   4.805   1.373 -0.7925 -0.7874 -1.1026
    5MOL0     O  598  -0.203   4.684   1.372 -0.0982 -0.3084 -0.4172
    5MOL0     C  599  -0.121   4.562   1.384 -0.0865 -0.3144  0.7789
    5MOL0     C  600  -0.203   4.432   1.372 -0.0270 -0.7153 -0.7287
    5MOL0     C  601  -0.123   4.305   1.400 -0.4563  0.8327  0.2765
    5MOL0     C  602  -0.058   4.247   1.278  0.1544  1.3490  0.4221
    5MOL0     C  603  -0.142   4.189   1.178  0.1613 -1.5204 -0.1432
    5MOL0     C  604  -0.216   4.126   1.101 -1.3440 -0.1352  0.0836
    5MOL0     C  605  -0.209   4.929   1.396  0.5309  0.0208  1.2293
    5MOL0     C  606  -0.151   5.057   1.388 -0.6206  0.0274 -0.3022
    5MOL0     C  607  -0.228   5.180   1.399  0.2828 -0.1658 -0.6478
    5MOL0     H  608   0.301   5.264   1.081 -0.2979  0.1523  0.9690
    5MOL0     H  609   0.464   5.448   1.060 -0.9402 -1.4923 -1.3184
    5MOL0     H  610   0.399   5.759   1.164  0.0241 -1.2282  0.8441
    5MOL0     H  611   0.484   5.795   1.321 -1.7523 -0.6265  0.2248
    5MOL0     H  612   0.591   5.839   1.054  0.9987  0.7758  0.6227
    5MOL0     H  613   0.702   5.834   1.199  0.7118  0.9143  0.0786
    5MOL0     H  614   0.640   6.022   1.278  2.7433  1.6462 -2.5350
    5MOL0     H  615   0.469   6.030   1.208 -0.0373  0.6592  1.5712
    5MOL0     H  616   0.731   6.099   1.078  0.0300 -1.5875  0.4545
    5MOL0     H  617   0.568   6.082   0.987 -1.7662  3.2203  0.1388
    5MOL0     H  618   0.617   6.283   1.206 -2.0584 -0.0011 -0.5051
    5MOL0     H  619   0.627   6.310   1.028 -0.7582  1.1031 -1.0986
    5MOL0     H  620   0.387   6.229   0.993 -1.2806  2.8769 -0.3708
    5MOL0     H  621   0.368   6.201   1.168  0.8810  1.3944  1.1568
    5MOL0     H  622   0.442   6.477   1.061  0.5131  0.4736  1.5232
    5MOL0     H  623   0.385   6.429   1.228 -4.2784  1.3530  1.0039
    5MOL0     H  624   0.218   6.387   0.976  1.7261  1.0935 -0.7258
    5MOL0     H  625   0.169   6.373   1.141 -1.6630  2.1570  0.3774
    5MOL0     H  626   0.322   6.648   0.925 -1.3191 -0.9317 -1.0184
    5MOL0     H  627   0.173   6.970   1.081 -1.4694 -3.5541  0.3171
    5MOL0     H  628   0.313   6.923   0.971  0.2051 -0.1074 -2.9847
    5MOL0     H  629   0.019   6.935   0.878  0.0192 -2.2525  1.7360
    5MOL0     H  630   0.134   7.078   0.880  1.5747 -1.0281  0.4759
    5MOL0     H  631   0.175   6.815   0.737 -0.3844  0.1902 -1.2367
    5MOL0     H  632   0.292   6.948   0.730  0.1705  1.0894 -0.4106
    5MOL0     H  633   0.003   6.990   0.648 -0.2963  1.2183  1.0904
    5MOL0     H  634   0.104   6.907   0.536 -1.1565  1.8973 -1.1186
    5MOL0     H  635  -0.013   6.999   0.401  0.5063 -0.4434  1.4151
    5MOL0     H  636  -0.130   7.138   0.231  2.2609 -2.7193 -0.3146
    5MOL0     H  637  -0.079   7.579  -0.022 -0.1503  1.4629  0.2113
    5MOL0     H  638  -0.192   7.719  -0.182  1.2967  0.0920  2.1256
    5MOL0     H  639  -0.637   7.696  -0.261 -1.2457 -0.1300 -1.4511
    5MOL0     H  640  -0.564   7.787  -0.388  0.8795  0.6080  1.2602
    5MOL0     H  641  -0.476   7.558  -0.465 -0.7371  3.3067 -2.4594
    5MOL0     H  642  -0.611   7.480  -0.372 -1.0814 -0.3712  1.3823
    5MOL0     H  643  -0.774   7.621  -0.487 -0.6297 -1.4123 -1.3121
    5MOL0     H  644  -0.639   7.693  -0.575  0.1894  1.8119  3.6840
    5MOL0     H  645  -0.725   7.394  -0.587  2.3403 -0.3356 -0.6467
    5MOL0     H  646  -0.594   7.465  -0.686  1.6437  2.5233  0.5811
    5MOL0     H  647  -0.771   7.617  -0.783 -0.8596 -0.2427  0.0199
    5MOL0     H  648  -0.889   7.534  -0.673 -0.6074 -1.5613  0.2932
    5MOL0     H  649  -0.717   7.388  -0.891 -0.3618  1.2128 -3.9757
    5MOL0     H  650  -0.870   7.334  -0.820 -0.9553  1.5550  1.1175
    5MOL0     H  651  -0.848   7.555  -1.023 -0.3139  0.4073 -0.0134
    5MOL0     H  652  -0.986   7.501  -0.950  2.9617  1.9743  3.2948
    5MOL0     H  653  -0.786   7.387  -1.146  0.3187 -0.1315 -0.5448
    5MOL0     H  654  -0.860   7.263  -1.050  0.0288  1.1961  2.3335
    5MOL0     H  655  -0.537   7.473  -0.142  1.2155 -1.9759  0.0867
    5MOL0     H  656  -0.405   7.317  -0.007  1.6071 -0.7301  0.8087
    5MOL0     H  657   0.115   7.482   0.360  0.8942 -0.3694  1.9536
    5MOL0     H  658   0.211   7.349   0.520  1.9792 -0.5953 -1.4725
    5MOL0     H  659   0.355   5.594   1.444  1.0329 -1.8760  1.5929
    5MOL0     H  660   0.203   5.415   1.468  2.9051 -1.0114  1.2864
    5MOL0     H  661   0.171   4.965   1.359  0.4257 -0.6998 -1.8429
    5MOL0     H  662   0.068   4.736   1.341  0.3880 -0.0614  5.6854
    5MOL0     H  663  -0.070   4.554   1.480 -1.3473  1.4400  1.6404
    5MOL0     H  664  -0.050   4.562   1.300  1.0628  1.3827  1.7084
    5MOL0     H  665  -0.241   4.430   1.270 -1.9873  0.6157 -0.0805
    5MOL0     H  666  -0.283   4.441   1.446  2.7245 -0.1365  2.4282
    5MOL0     H  667  -0.180   4.221   1.442 -0.6799 -2.6180 -5.7681
    5MOL0     H  668  -0.043   4.333   1.469  1.6785 -2.1157 -0.7649
    5MOL0     H  669   0.012   4.317   1.231 -0.9985  2.1007 -0.2233
    5MOL0     H  670   0.004   4.163   1.311 -0.0950  0.0102 -2.2552
    5MOL0     H  671  -0.270   4.055   1.042 -1.0626  0.1271 -0.5087
    5MOL0     H  672  -0.317   4.914   1.400  0.7368 -2.1207  0.1330
    5MOL0     H  673  -0.233   5.213   1.503 -2.2444 -2.5881  0.1278
    5MOL0     H  674  -0.196   5.257   1.328  0.1747 -1.4113 -2.1106
    5MOL0     H  675  -0.331   5.152   1.373  1.2890 -1.7077 -3.3993
    6MOL0     O  676   1.765  10.236   8.814  0.3941 -0.1603  0.8014
    6MOL0     C  677   1.760  10.333   8.882  0.4273  0.5784 -0.7557
    6MOL0     O  678   1.846  10.355   8.989 -0.7466  0.0869  0.9358
    6MOL0     C  679   1.944  10.264   9.007 -0.7316 -0.9984 -0.5192
    6MOL0     C  680   1.925  10.147   9.075 -0.7115 -0.9617 -1.2278
    6MOL0     C  681   2.023  10.050   9.084 -0.2506 -0.1894 -0.5700
    6MOL0     C  682   2.152  10.082   9.060  0.6434 -0.5929 -0.7156
    6MOL0     O  683   2.240   9.984   9.087 -0.5364  0.0734  0.1400
    6MOL0     C  684   2.370  10.026   9.077 -1.4628  0.2758  0.5866
    6MOL0     C  685   2.473   9.910   9.106 -0.7224  1.2073  0.4134
    6MOL0     C  686   2.615   9.952   9.077 -1.3479  0.9046  0.0708
    6MOL0     C  687   2.725   9.874   9.153 -0.8665 -0.3445 -0.8610
    6MOL0     C  688   2.865   9.934   9.128 -0.3717 -0.0834  0.5826
    6MOL0     C  689   2.935   9.871   9.001  0.8078 -0.2351  0.7767
    6MOL0     C  690   3.058   9.956   8.958  0.5234 -0.0993  0.6749
    6MOL0     C  691   3.172   9.929   9.057  0.4911 -0.4770  0.4843
    6MOL0     N  692   3.183  10.028   9.170 -1.3389  0.6804 -0.4808
    6MOL0     C  693   3.202  10.164   9.161  0.2560  0.2326 -0.3889
    6MOL0     C  694   3.216  10.204   9.292  0.5248 -0.7459 -0.0480
    6MOL0     C  695   3.231  10.351   9.315 -0.2726 -0.2237  0.5694
    6MOL0     C  696   3.277  10.380   9.456 -0.5651  0.1272  0.4459
    6MOL0     C  697   3.283  10.524   9.481 -1.2517 -0.3420 -0.2848
    6MOL0     C  698   3.386  10.600   9.392 -0.3965 -0.0960  0.9418
    6MOL0     O  699   3.439  10.715   9.455  0.0840 -0.2938  0.0288
    6MOL0     C  700   3.559  10.698   9.517 -0.1910 -0.4556 -0.0301
    6MOL0     C  701   3.596  10.606   9.615 -0.0366  0.6023 -0.4063
    6MOL0     C  702   3.721  10.608   9.688 -0.8051 -0.3093 -0.6298
    6MOL0     C  703   3.813  10.717   9.667 -0.0502  0.7265 -0.3186
    6MOL0     C  704   3.942  10.725   9.742  0.1518 -0.4474  0.9758
    6MOL0     O  705   3.976  10.619   9.816 -0.0291  0.0259  0.0723
    6MOL0     C  706   4.083  10.622   9.902  0.2829 -0.2633 -1.0799
    6MOL0     C  707   4.167  10.508   9.904  0.0155  0.3660 -0.8115
    6MOL0     C  708   4.281  10.499   9.985  0.2613 -0.5287  0.5189
    6MOL0     C  709   4.317  10.603  10.074  1.0341 -0.6335  0.1668
    6MOL0     O  710   4.415  10.591  10.160 -0.2490 -0.6957 -0.6103
    6MOL0     C  711   4.393  10.625  10.302  0.1921 -0.0781  0.4036
    6MOL0     C  712   4.307  10.522  10.367  0.1932  0.4085  0.4197
    6MOL0     C  713   4.389  10.387  10.423 -0.0343 -1.2889 -0.9701
    6MOL0     C  714   4.457  10.316  10.308  0.4269 -0.5208  0.5934
    6MOL0     C  715   4.558  10.210  10.357  0.5356 -0.2259 -0.2756
    6MOL0     C  716   4.540  10.124  10.482  0.0243 -1.2295  0.2913
    6MOL0     C  717   4.582  10.191  10.611  0.5080  0.7498 -0.0867
    6MOL0     C  718   4.597  10.076  10.715  0.8310 -0.0882  0.7315
    6MOL0    Cl  719   4.669  10.135  10.879 -0.3731  0.2594 -0.5554
    6MOL0     C  720   4.227  10.713  10.074  0.7420  0.0036  0.1396
    6MOL0     C  721   4.113  10.721   9.993  0.1553  0.3620 -0.7609
    6MOL0     O  722   4.008  10.825   9.729  0.3073 -0.6078 -0.4996
    6MOL0     C  723   3.770  10.809   9.572 -0.7671  0.6700  0.8755
    6MOL0     C  724   3.648  10.803   9.506  0.6400 -0.1893  0.4144
    6MOL0     N  725   3.204  10.099   9.369  0.0109  0.5789  0.1963
    6MOL0     N  726   3.179   9.998   9.303 -0.1262 -0.5165  0.0172
    6MOL0     C  727   2.177  10.201   8.991  0.0853  0.2428  0.0029
    6MOL0     C  728   2.080  10.292   8.954 -0.1636 -0.3287 -1.2465
    6MOL0     C  729   1.651  10.433   8.891  0.5664  0.4572  0.9252
    6MOL0     C  730   1.665  10.529   8.987  0.2550  0.1628 -0.6717
    6MOL0     C  731   1.571  10.622   9.009  0.2796  0.8769 -0.2068
    6MOL0     C  732   1.451  10.629   8.938  0.6643 -0.4181  0.8527
    6MOL0     O  733   1.353  10.726   8.981  0.2349  0.5879  0.2041
    6MOL0     C  734   1.236  10.757   8.901 -0.3219 -0.6138  1.0848
    6MOL0     C  735   1.267  10.827   8.760 -0.0368 -0.2099 -0.7432
    6MOL0     C  736   1.137  10.833   8.672 -0.1581 -0.3674  1.0083
    6MOL0     C  737   1.092  10.706   8.605 -0.6587 -0.4549  0.4389
    6MOL0     C  738   1.200  10.655   8.515  0.6612 -0.0204 -0.7337
    6MOL0     C  739   1.279  10.610   8.443  0.6897 -0.2818 -0.3800
    6MOL0     C  740   1.432  10.540   8.831  0.4061  0.1387  0.4580
    6MOL0     C  741   1.536  10.448   8.801  0.3831 -0.4506 -0.0114
    6MOL0     C  742   1.507  10.366   8.680  0.7549  0.0942 -0.0823
    6MOL0     H  743   1.823  10.131   9.107 -0.0386  1.6771  3.0272
    6MOL0     H  744   1.997   9.955   9.130 -0.6085 -0.6368 -1.6658
    6MOL0     H  745   2.382  10.062   8.974 -1.7666  2.0599  1.1347
    6MOL0     H  746   2.397  10.115   9.135  1.2580 -1.0432  1.5187
    6MOL0     H  747   2.444   9.820   9.051  1.2127  0.2087  0.9289
    6MOL0     H  748   2.473   9.886   9.212 -1.5757 -0.8619 -0.0039
    6MOL0     H  749   2.622  10.055   9.112 -0.1704  0.6058  0.7682
    6MOL0     H  750   2.626   9.953   8.968 -0.0080  0.4290  0.1797
    6MOL0     H  751   2.696   9.876   9.258 -0.5287 -2.6449 -0.6774
    6MOL0     H  752   2.720   9.770   9.120 -1.8267 -1.1423  1.5564
    6MOL0     H  753   2.874  10.043   9.123  1.5392 -0.1037  2.1792
    6MOL0     H  754   2.920   9.898   9.216 -0.0554  0.4928  0.6228
    6MOL0     H  755   2.957   9.766   9.021 -1.7820 -0.9131  0.3191
    6MOL0     H  756   2.864   9.871   8.918  1.4648 -1.9948  0.1790
    6MOL0     H  757   3.035  10.063   8.954  0.0164 -0.2255  0.1810
    6MOL0     H  758   3.084   9.926   8.856  1.9959 -0.0266  1.0102
    6MOL0     H  759   3.166   9.827   9.096 -1.5271 -0.6639 -0.1911
    6MOL0     H  760   3.254   9.935   8.986 -1.7248 -1.0274 -2.3126
    6MOL0     H  761   3.214  10.220   9.068  1.1571 -0.3971 -0.6697
    6MOL0     H  762   3.296  10.404   9.245 -2.8990 -0.5966 -2.3292
    6MOL0     H  763   3.130  10.392   9.304 -1.2508 -2.0161  2.1992
    6MOL0     H  764   3.210  10.331   9.527  0.5975 -3.4110 -0.6793
    6MOL0     H  765   3.377  10.341   9.480 -2.6881 -4.8459  2.7585
    6MOL0     H  766   3.303  10.546   9.587 -0.3876 -2.1238 -0.0441
    6MOL0     H  767   3.181  10.556   9.460 -0.9959  1.1132  0.5669
    6MOL0     H  768   3.345  10.632   9.296 -5.2097 -1.0723  2.4166
    6MOL0     H  769   3.472  10.536   9.367 -1.0372 -0.6442  0.0903
    6MOL0     H  770   3.533  10.524   9.647 -0.2033  1.6083  2.0169
    6MOL0     H  771   3.735  10.542   9.773 -0.1480 -0.9434 -1.2162
    6MOL0     H  772   4.139  10.418   9.850  1.9974 -2.9313  3.0530
    6MOL0     H  773   4.325  10.400   9.991  1.1644 -0.1290  0.6594
    6MOL0     H  774   4.480  10.615  10.368 -0.0214  1.0730  0.8904
    6MOL0     H  775   4.346  10.723  10.319  1.6391  1.1374 -2.0495
    6MOL0     H  776   4.248  10.570  10.445 -1.4157  1.5813 -1.4233
    6MOL0     H  777   4.232  10.484  10.297 -1.4103 -0.2786  2.4014
    6MOL0     H  778   4.469  10.421  10.489 -0.6795  2.4485 -1.8985
    6MOL0     H  779   4.328  10.319  10.484  1.2338 -1.1546  0.5177
    6MOL0     H  780   4.504  10.387  10.239 -0.2489  0.8814  1.5293
    6MOL0     H  781   4.379  10.259  10.256  1.4617 -2.3723  0.9639
    6MOL0     H  782   4.658  10.254  10.358  0.9301 -0.9617  2.8534
    6MOL0     H  783   4.573  10.136  10.278 -0.1819 -0.6550 -0.0158
    6MOL0     H  784   4.437  10.089  10.493 -0.9549  1.2481 -0.4190
    6MOL0     H  785   4.599  10.033  10.465 -1.6466 -2.1181 -1.0489
    6MOL0     H  786   4.509  10.267  10.638 -1.0446 -0.7280  0.0257
    6MOL0     H  787   4.683  10.233  10.602  0.8846 -0.1106  0.0262
    6MOL0     H  788   4.504  10.018  10.729  1.5844 -1.0869  1.8215
    6MOL0     H  789   4.656  10.003  10.659 -1.5270  0.0709 -2.2615
    6MOL0     H  790   4.254  10.795  10.140  0.1827  0.7008 -0.4650
    6MOL0     H  791   4.051  10.810   9.989 -1.8519 -0.8883  0.6008
    6MOL0     H  792   3.839  10.889   9.547  0.3519 -0.6836 -0.6189
    6MOL0     H  793   3.633  10.890   9.443  1.4491  0.5449  1.2041
    6MOL0     H  794   2.277  10.233   8.963 -0.2508  0.5157 -0.9313
    6MOL0     H  795   2.104  10.384   8.902 -1.7867  0.5379 -0.5340
    6MOL0     H  796   1.751  10.551   9.048  2.2200  0.3549 -3.3145
    6MOL0     H  797   1.593  10.695   9.087  0.7373 -1.4488  1.9741
    6MOL0     H  798   1.170  10.823   8.958 -0.1355 -0.5034  1.1734
    6MOL0     H  799   1.169  10.672   8.883 -0.7270  0.0975 -0.9859
    6MOL0     H  800   1.345  10.773   8.706 -0.1973  0.5687 -1.7898
    6MOL0     H  801   1.307  10.926   8.784 -0.5407 -0.2659  0.3907
    6MOL0     H  802   1.166  10.900   8.591 -0.0184 -2.1143 -0.4406
    6MOL0     H  803   1.052  10.877   8.724 -1.6463 -1.1035 -0.6972
    6MOL0     H  804   1.066  10.628   8.677 -0.4688 -0.1190  0.8767
    6MOL0     H  805   0.997  10.724   8.553 -0.7542 -0.9997  0.4176
    6MOL0     H  806   1.362  10.594   8.377  1.9084  6.0215 -0.9358
    6MOL0     H  807   1.336  10.544   8.781  0.9638  2.0953 -0.5324
    6MOL0     H  808   1.467  10.430   8.601  0.6997  0.7415  0.4602
    6MOL0     H  809   1.604  10.333   8.640  0.1990 -0.4304 -1.0359
    6MOL0     H  810   1.422  10.297   8.682  0.8323 -0.1642 -2.5261
    7MOL0     O  811  10.813   5.862   4.703 -0.0849  1.0933  1.0011
    7MOL0     C  812  10.788   5.808   4.592 -0.3584 -0.7989  0.0854
    7MOL0     O  813  10.842   5.685   4.547 -0.3361  0.5619 -0.3895
    7MOL0     C  814  10.938   5.630   4.622 -0.4542  0.3133  0.2289
    7MOL0     C  815  10.891   5.555   4.724  0.4181 -0.8008  0.0171
    7MOL0     C  816  10.983   5.506   4.812 -0.1794 -0.6565 -0.4431
    7MOL0     C  817  11.127   5.525   4.802 -0.0000 -0.0631  0.4308
    7MOL0     O  818  11.202   5.470   4.901 -0.0382  0.0423 -0.2772
    7MOL0     C  819  11.339   5.423   4.868  0.8479 -0.4570 -0.6351
    7MOL0     C  820  11.418   5.416   4.996 -0.3527 -0.3982  0.5941
    7MOL0     C  821  11.481   5.279   5.037  0.0144  0.1267  0.5982
    7MOL0     C  822  11.585   5.223   4.928  1.1789  0.1163  0.0489
    7MOL0     C  823  11.646   5.087   4.966 -0.2244  0.5677  0.4871
    7MOL0     C  824  11.773   5.045   4.884 -0.1717  0.1554 -0.6152
    7MOL0     C  825  11.833   4.904   4.935 -0.9380  0.0759 -0.4679
    7MOL0     C  826  11.978   4.888   4.887 -0.1699 -0.4102 -0.1955
    7MOL0     N  827  12.059   4.777   4.959 -0.8310 -0.6822  0.2996
    7MOL0     C  828  12.195   4.744   4.940  0.5649  0.5885  0.3122
    7MOL0     C  829  12.208   4.618   4.992  0.3589  0.9250  0.2978
    7MOL0     C  830  12.348   4.562   4.997 -0.0022  0.7007  0.1911
    7MOL0     C  831  12.387   4.500   5.141  0.3290  0.3096 -0.0291
    7MOL0     C  832  12.283   4.405   5.201  0.2657  0.2885  0.4781
    7MOL0     C  833  12.328   4.314   5.323 -0.4929  0.7493  0.5319
    7MOL0     O  834  12.413   4.209   5.271 -0.4014 -0.5542  0.7060
    7MOL0     C  835  12.453   4.100   5.347 -0.0591 -0.5591  0.4982
    7MOL0     C  836  12.389   4.057   5.463 -0.0132  0.5185  0.4429
    7MOL0     C  837  12.456   3.961   5.535  0.7217 -0.9222  0.5124
    7MOL0     C  838  12.582   3.899   5.495  0.3367  0.2715 -0.0302
    7MOL0     C  839  12.641   3.796   5.580  0.3526 -0.2861 -0.4999
    7MOL0     O  840  12.582   3.767   5.706  0.1814 -0.4643  0.4231
    7MOL0     C  841  12.648   3.680   5.786  0.4793  0.2948 -0.8431
    7MOL0     C  842  12.583   3.668   5.907 -0.4709  0.5675  0.4070
    7MOL0     C  843  12.632   3.596   6.012 -0.8741  1.3786 -0.4824
    7MOL0     C  844  12.751   3.512   5.987 -0.2965  0.1411 -0.8889
    7MOL0     O  845  12.829   3.468   6.098  0.1900  0.3443  0.6195
    7MOL0     C  846  12.765   3.456   6.226 -0.4276  0.4119  0.2340
    7MOL0     C  847  12.867   3.399   6.326  1.1163 -0.2505 -0.1410
    7MOL0     C  848  12.803   3.364   6.463  0.4786 -1.2082  0.0239
    7MOL0     C  849  12.685   3.257   6.454 -0.0746  0.0553 -0.4246
    7MOL0     C  850  12.623   3.245   6.595  0.1515 -0.2922  0.6843
    7MOL0     C  851  12.707   3.174   6.706 -0.4076  0.4223 -0.7587
    7MOL0     C  852  12.634   3.189   6.839  0.3228 -0.3046 -0.9666
    7MOL0     C  853  12.650   3.326   6.905 -0.2462  0.2213  0.3332
    7MOL0    Cl  854  12.628   3.310   7.079  0.2272 -0.0766 -0.0750
    7MOL0     C  855  12.804   3.504   5.865 -0.3025  0.5825  0.0451
    7MOL0     C  856  12.763   3.595   5.772  0.0297 -0.2387 -0.5076
    7MOL0     O  857  12.731   3.738   5.523  0.1664 -0.0697  0.9076
    7MOL0     C  858  12.628   3.930   5.367  0.2600 -0.6228 -0.1669
    7MOL0     C  859  12.574   4.036   5.301 -0.2295 -0.6098  0.0957
    7MOL0     N  860  12.087   4.566   5.039  1.0224 -0.9829 -0.3272
    7MOL0     N  861  11.999   4.659   4.996 -0.3845 -0.3829 -0.2168
    7MOL0     C  862  11.172   5.597   4.687  0.1761  0.7330 -0.0682
    7MOL0     C  863  11.074   5.647   4.596 -0.2292 -0.5591 -0.5892
    7MOL0     C  864  10.682   5.867   4.509 -0.9796  0.2650 -0.0893
    7MOL0     C  865  10.696   6.002   4.477 -0.2514  0.5746  0.2027
    7MOL0     C  866  10.602   6.066   4.405 -0.0626  1.1864 -0.1424
    7MOL0     C  867  10.493   6.003   4.358  0.0675  0.3315 -1.1051
    7MOL0     O  868  10.401   6.073   4.287 -0.7791  0.2809  0.1651
    7MOL0     C  869  10.268   6.018   4.242 -0.9253  0.3828 -0.3178
    7MOL0     C  870  10.237   6.027   4.099  0.4242 -0.2099 -0.3888
    7MOL0     C  871  10.264   6.161   4.038 -0.0487  0.3963  0.8612
    7MOL0     C  872  10.270   6.144   3.887  0.2694  0.1047  0.7548
    7MOL0     C  873  10.301   6.278   3.823 -0.5234  0.4004  0.2260
    7MOL0     C  874  10.341   6.382   3.773  0.2396  0.3213  0.4587
    7MOL0     C  875  10.477   5.865   4.394  1.0004 -0.6647 -0.4524
    7MOL0     C  876  10.565   5.798   4.473 -0.4111  0.4292 -0.4226
    7MOL0     C  877  10.534   5.653   4.503 -1.0056 -0.3038  0.0144
    7MOL0     H  878  10.786   5.545   4.749  0.0846  2.3307  0.2430
    7MOL0     H  879  10.958   5.449   4.901  1.4412 -0.9278 -0.1363
    7MOL0     H  880  11.337   5.326   4.818  1.3147 -2.2707  2.5477
    7MOL0     H  881  11.391   5.493   4.802  1.7929 -1.5420 -1.0798
    7MOL0     H  882  11.348   5.438   5.078 -1.7560 -0.6218 -0.4989
    7MOL0     H  883  11.498   5.489   4.979  1.8704 -2.5500  1.3391
    7MOL0     H  884  11.395   5.216   5.063 -0.3694  0.0182 -0.8241
    7MOL0     H  885  11.534   5.292   5.132 -0.2253 -0.9413  0.8964
    7MOL0     H  886  11.526   5.211   4.836 -3.4452  2.2532  2.3774
    7MOL0     H  887  11.657   5.302   4.908 -0.6895  2.2102  1.2266
    7MOL0     H  888  11.676   5.095   5.071  1.6114  0.5639 -0.0028
    7MOL0     H  889  11.572   5.010   4.948 -1.8707  2.7047 -2.8210
    7MOL0     H  890  11.743   5.038   4.779 -4.9572  1.1844  0.4290
    7MOL0     H  891  11.842   5.127   4.904 -0.9182  0.3163  1.6247
    7MOL0     H  892  11.773   4.825   4.892 -0.6484 -1.4062  1.6773
    7MOL0     H  893  11.816   4.904   5.043  0.7600  2.7521 -0.0922
    7MOL0     H  894  11.969   4.862   4.781 -0.5972 -0.2478 -0.2036
    7MOL0     H  895  12.039   4.977   4.908 -0.9567  0.3173 -0.9044
    7MOL0     H  896  12.274   4.806   4.899  3.6326 -2.4379  1.1328
    7MOL0     H  897  12.343   4.477   4.929 -1.3035  1.9517 -1.3480
    7MOL0     H  898  12.423   4.630   4.956 -0.9621  2.3102  1.0203
    7MOL0     H  899  12.480   4.442   5.138 -1.1010 -2.0852 -1.8037
    7MOL0     H  900  12.398   4.588   5.206  2.3997 -0.0778  0.2296
    7MOL0     H  901  12.252   4.346   5.115  2.9148 -1.7191  0.7984
    7MOL0     H  902  12.202   4.466   5.243 -0.6188 -1.1821  0.9739
    7MOL0     H  903  12.236   4.272   5.364 -0.8483  1.5136  0.5433
    7MOL0     H  904  12.386   4.369   5.398  1.1859  1.2000 -1.0514
    7MOL0     H  905  12.300   4.093   5.512  0.2835 -0.4993  1.7853
    7MOL0     H  906  12.414   3.934   5.631  1.4257  1.4344  1.5791
    7MOL0     H  907  12.501   3.739   5.917  0.3823  1.4124  1.9271
    7MOL0     H  908  12.581   3.609   6.107 -0.0033 -1.1879  0.4360
    7MOL0     H  909  12.710   3.548   6.252  0.3438  1.5620 -1.9864
    7MOL0     H  910  12.684   3.384   6.210 -0.0246 -0.2978  1.2602
    7MOL0     H  911  12.925   3.311   6.297  2.3008 -0.1560  1.7667
    7MOL0     H  912  12.927   3.486   6.354 -2.0776  1.4806  1.9452
    7MOL0     H  913  12.888   3.341   6.528  2.6081  1.3453 -1.6431
    7MOL0     H  914  12.749   3.451   6.501 -0.8808 -0.7766 -2.6590
    7MOL0     H  915  12.709   3.166   6.399  0.5231  0.8639 -1.5482
    7MOL0     H  916  12.610   3.308   6.393  2.6767  4.0105 -0.9431
    7MOL0     H  917  12.523   3.202   6.579 -1.2394  2.6561  0.8668
    7MOL0     H  918  12.601   3.347   6.626 -0.1223  0.9998 -3.2596
    7MOL0     H  919  12.709   3.066   6.686 -1.1167  0.4401 -0.9444
    7MOL0     H  920  12.812   3.202   6.723 -0.5384  1.0303 -0.9118
    7MOL0     H  921  12.679   3.112   6.901 -2.0772 -1.2322 -0.2663
    7MOL0     H  922  12.526   3.173   6.832 -0.1808 -1.7266  4.9686
    7MOL0     H  923  12.753   3.354   6.880 -0.6662  0.8907 -0.7077
    7MOL0     H  924  12.586   3.409   6.874  0.2798  1.6925  2.9250
    7MOL0     H  925  12.877   3.426   5.842 -1.9411 -1.6216  1.8242
    7MOL0     H  926  12.800   3.574   5.672 -2.0657 -3.4974 -0.7628
    7MOL0     H  927  12.715   3.887   5.319  2.3541  4.1878 -1.2341
    7MOL0     H  928  12.624   4.072   5.211 -1.5729  1.9287  0.2784
    7MOL0     H  929  11.279   5.610   4.684  0.0927  3.3581  2.6434
    7MOL0     H  930  11.103   5.687   4.500 -0.9849 -1.5452 -1.2446
    7MOL0     H  931  10.786   6.052   4.510  0.0369  0.0349  0.2405
    7MOL0     H  932  10.621   6.168   4.375 -0.0052  1.3147  0.3238
    7MOL0     H  933  10.186   6.072   4.291 -1.4557 -1.3949  0.8307
    7MOL0     H  934  10.252   5.912   4.262 -0.2586 -0.4594 -3.6609
    7MOL0     H  935  10.134   6.000   4.071  1.1475 -3.1029 -0.5762
    7MOL0     H  936  10.293   5.947   4.049  0.9531  1.3876 -2.4866
    7MOL0     H  937  10.361   6.195   4.074  1.0907  2.2267 -3.3517
    7MOL0     H  938  10.191   6.235   4.072 -1.9660 -1.1593  0.2873
    7MOL0     H  939  10.340   6.067   3.855 -1.3174 -1.5524  1.1369
    7MOL0     H  940  10.174   6.117   3.842 -0.1197 -0.5773  1.9561
    7MOL0     H  941  10.369   6.475   3.727 -0.2388  0.2125 -0.0541
    7MOL0     H  942  10.388   5.818   4.356 -0.0075  0.2042  0.7351
    7MOL0     H  943  10.431   5.628   4.476 -1.2648 -1.5373  1.9828
    7MOL0     H  944  10.601   5.598   4.435 -1.9724  0.0472 -1.2673
    7MOL0     H  945  10.547   5.632   4.609 -2.6119  1.6160  0.6324
    8MOL0     O  946   7.176   7.782   2.682 -0.6121  0.2055 -0.0582
    8MOL0     C  947   7.062   7.727   2.684 -0.1707 -0.3175  0.5129
    8MOL0     O  948   6.992   7.683   2.574 -0.5592  0.4659 -0.7864
    8MOL0     C  949   7.040   7.679   2.451  0.7886  0.4795  1.6795
    8MOL0     C  950   7.075   7.552   2.400  0.7615 -0.4805 -0.1501
    8MOL0     C  951   7.093   7.534   2.259  0.0864  0.5162 -0.9681
    8MOL0     C  952   7.097   7.641   2.173  0.2665 -0.5341 -1.0607
    8MOL0     O  953   7.116   7.628   2.041  0.7537  0.1567 -0.1631
    8MOL0     C  954   7.244   7.661   1.993  0.4605 -0.1856  0.8930
    8MOL0     C  955   7.327   7.535   1.977 -0.1522 -0.3802  0.7453
    8MOL0     C  956   7.471   7.564   1.925 -0.2483 -0.2595 -0.6387
    8MOL0     C  957   7.551   7.432   1.917 -0.2638 -0.2149 -0.1277
    8MOL0     C  958   7.698   7.464   1.896 -0.3165  0.1122  0.2559
    8MOL0     C  959   7.790   7.349   1.919 -0.1248  0.4226 -0.9833
    8MOL0     C  960   7.929   7.420   1.945  0.2354 -0.0383  0.7610
    8MOL0     C  961   8.028   7.304   1.977 -0.4877 -0.9532 -0.4754
    8MOL0     N  962   8.156   7.351   1.950 -1.1416  0.5822  0.3908
    8MOL0     C  963   8.268   7.307   2.028 -0.0440 -0.7369 -0.8477
    8MOL0     C  964   8.376   7.356   1.966 -0.3812  0.8397 -0.0264
    8MOL0     C  965   8.518   7.325   2.002  0.1773  0.2674 -0.0634
    8MOL0     C  966   8.619   7.401   1.923  0.2567 -0.3134 -0.2857
    8MOL0     C  967   8.759   7.393   1.990 -0.7964  0.6059 -0.0876
    8MOL0     C  968   8.857   7.506   1.934 -0.2467  0.0985 -0.0462
    8MOL0     O  969   8.794   7.629   1.903  0.6692 -0.8257 -0.4305
    8MOL0     C  970   8.886   7.725   1.867 -0.5447  0.3748  0.1389
    8MOL0     C  971   8.846   7.855   1.893 -0.2139 -0.1161  0.4231
    8MOL0     C  972   8.937   7.959   1.878 -0.1182 -0.5637 -0.8623
    8MOL0     C  973   9.073   7.933   1.849  0.4948  0.3576 -0.1084
    8MOL0     C  974   9.185   8.034   1.850  0.0148 -0.4573 -0.1782
    8MOL0     O  975   9.153   8.171   1.858 -0.8373  0.6416  0.5586
    8MOL0     C  976   9.265   8.248   1.873  0.3374 -0.7578 -1.2513
    8MOL0     C  977   9.274   8.336   1.988 -0.8699 -0.3209  0.3696
    8MOL0     C  978   9.384   8.423   1.996  0.1776 -0.2324  0.7370
    8MOL0     C  979   9.466   8.449   1.886  0.3042 -1.3899 -0.8612
    8MOL0     O  980   9.560   8.538   1.881 -1.7360 -0.5613  0.0855
    8MOL0     C  981   9.531   8.665   1.949 -0.3030 -0.5635 -0.1965
    8MOL0     C  982   9.625   8.774   1.895 -0.3116  1.2342  0.2631
    8MOL0     C  983   9.597   8.911   1.953 -0.2963 -0.4169 -0.3101
    8MOL0     C  984   9.726   9.008   1.956  0.3257  0.3650 -0.1121
    8MOL0     C  985   9.808   9.012   1.823  0.4050 -0.0727  0.4136
    8MOL0     C  986   9.720   9.056   1.704 -1.1723  0.1637  0.6511
    8MOL0     C  987   9.813   9.057   1.580  0.7952 -0.6046  0.2190
    8MOL0     C  988   9.746   9.113   1.449  0.8651 -0.3112 -0.5057
    8MOL0    Cl  989   9.648   8.973   1.375 -0.1384 -0.6498 -0.4435
    8MOL0     C  990   9.452   8.372   1.774 -0.5559  0.2463 -0.0618
    8MOL0     C  991   9.353   8.271   1.768  0.1584 -0.1238 -0.2670
    8MOL0     O  992   9.300   7.994   1.848  0.1825  0.3706  0.3552
    8MOL0     C  993   9.109   7.806   1.806 -0.2128  0.5133  0.1711
    8MOL0     C  994   9.011   7.704   1.808 -0.1460  0.9688  0.5988
    8MOL0     N  995   8.334   7.431   1.859 -0.7492  1.3046  0.5996
    8MOL0     N  996   8.201   7.419   1.845 -1.2047  0.0057 -0.3471
    8MOL0     C  997   7.086   7.771   2.219  0.7637  0.2826  0.1803
    8MOL0     C  998   7.050   7.789   2.353  0.6878 -0.2673  0.2807
    8MOL0     C  999   6.993   7.712   2.817 -0.1315 -0.2122 -0.5520
    8MOL0     C 1000   6.853   7.717   2.805 -0.5680 -0.3791  0.0658
    8MOL0     C 1001   6.771   7.705   2.912 -0.0510 -0.8418  0.1466
    8MOL0     C 1002   6.815   7.702   3.041 -0.6246 -0.5350 -0.7138
    8MOL0     O 1003   6.721   7.714   3.147 -0.4386 -0.2014 -0.2754
    8MOL0     C 1004   6.753   7.718   3.287  0.0499  0.1025  0.2180
    8MOL0     C 1005   6.794   7.583   3.341  0.0378  0.3593  1.1257
    8MOL0     C 1006   6.838   7.598   3.490 -0.0314  0.4038  0.5245
    8MOL0     C 1007   6.946   7.697   3.519 -0.0345 -0.4763  1.0061
    8MOL0     C 1008   7.013   7.685   3.651 -0.4673 -0.5190  0.5449
    8MOL0     C 1009   7.072   7.666   3.760 -1.1345 -0.4617 -1.2739
    8MOL0     C 1010   6.954   7.717   3.062 -0.0350  0.2750  0.4852
    8MOL0     C 1011   7.041   7.708   2.947  0.4271 -1.1234 -1.3208
    8MOL0     C 1012   7.183   7.709   2.974  0.1126  0.0546  0.0436
    8MOL0     H 1013   7.062   7.464   2.463  0.7407 -0.3294  0.0562
    8MOL0     H 1014   7.089   7.439   2.208 -2.0924 -0.9096  1.5951
    8MOL0     H 1015   7.235   7.708   1.894  0.5048 -0.1858  0.8879
    8MOL0     H 1016   7.295   7.745   2.042 -2.7243  3.1902 -1.0801
    8MOL0     H 1017   7.270   7.475   1.906 -0.8566  1.0401  0.0812
    8MOL0     H 1018   7.347   7.486   2.073 -0.8193 -2.8625 -0.3078
    8MOL0     H 1019   7.517   7.631   1.999 -2.8270  0.8566  0.0886
    8MOL0     H 1020   7.469   7.615   1.828 -0.1271  0.9232 -0.0432
    8MOL0     H 1021   7.544   7.382   2.013 -0.9673 -0.8511 -0.5017
    8MOL0     H 1022   7.521   7.360   1.839  0.1569  0.0235 -0.5181
    8MOL0     H 1023   7.706   7.482   1.788  0.5904  1.8166  0.5831
    8MOL0     H 1024   7.729   7.559   1.939 -1.1136  1.0023 -1.0513
    8MOL0     H 1025   7.743   7.298   2.003 -1.1955  1.9700 -0.5988
    8MOL0     H 1026   7.792   7.288   1.828  3.4892  1.6878 -1.9475
    8MOL0     H 1027   7.934   7.479   2.037 -1.7080 -0.2945  1.0750
    8MOL0     H 1028   7.951   7.482   1.858 -3.9282 -1.1314 -1.3430
    8MOL0     H 1029   8.006   7.264   2.076  0.1729 -1.0131 -0.3506
    8MOL0     H 1030   8.023   7.223   1.903  1.1052 -2.1540  0.6589
    8MOL0     H 1031   8.274   7.238   2.111 -0.0515 -4.3723 -3.6320
    8MOL0     H 1032   8.534   7.332   2.110  1.7313  0.0827 -0.2526
    8MOL0     H 1033   8.525   7.219   1.979 -0.3065 -0.3760  2.3869
    8MOL0     H 1034   8.617   7.373   1.818  3.2394  2.1830 -1.1829
    8MOL0     H 1035   8.590   7.507   1.918 -0.6371 -0.3969  2.0135
    8MOL0     H 1036   8.810   7.303   1.955  1.6234  3.4042 -4.6175
    8MOL0     H 1037   8.761   7.384   2.099  1.7425 -2.3059 -0.2324
    8MOL0     H 1038   8.897   7.457   1.845 -2.0558 -2.7900  0.6081
    8MOL0     H 1039   8.932   7.526   2.012  0.4264  3.7568 -1.3996
    8MOL0     H 1040   8.742   7.872   1.921  0.0134 -0.2737  1.4180
    8MOL0     H 1041   8.915   8.061   1.906 -0.7661 -1.0023  0.3279
    8MOL0     H 1042   9.197   8.332   2.065 -0.5183 -0.1972  0.7329
    8MOL0     H 1043   9.397   8.482   2.087  1.5265 -1.6444  1.4978
    8MOL0     H 1044   9.427   8.694   1.928 -1.3763 -3.1072  1.1080
    8MOL0     H 1045   9.532   8.657   2.058 -1.1457 -1.1688 -0.2226
    8MOL0     H 1046   9.728   8.745   1.913  0.2487  2.9536  0.0265
    8MOL0     H 1047   9.603   8.763   1.788 -2.4338 -2.7642  0.9410
    8MOL0     H 1048   9.512   8.962   1.906  0.6609  1.9612  0.3995
    8MOL0     H 1049   9.562   8.900   2.057 -0.7336 -0.2802 -0.4385
    8MOL0     H 1050   9.784   8.968   2.039 -1.5046  0.7721  1.4152
    8MOL0     H 1051   9.699   9.107   1.994  3.2421  0.0304  3.4194
    8MOL0     H 1052   9.851   8.914   1.798  0.9068  0.1606  0.3431
    8MOL0     H 1053   9.893   9.080   1.832  0.5250 -0.2426  0.5909
    8MOL0     H 1054   9.649   8.974   1.694  2.1322 -3.0101  0.7366
    8MOL0     H 1055   9.679   9.154   1.725  1.6180  1.2410  1.5131
    8MOL0     H 1056   9.847   8.955   1.560 -0.1857 -0.6256 -1.5292
    8MOL0     H 1057   9.900   9.120   1.602  0.3281  1.2299 -2.6619
    8MOL0     H 1058   9.678   9.196   1.471  2.3709  1.0012 -0.6094
    8MOL0     H 1059   9.815   9.154   1.375  2.1777  0.9552  1.3406
    8MOL0     H 1060   9.517   8.387   1.688  1.7696  0.6479  1.6550
    8MOL0     H 1061   9.355   8.210   1.678  2.7255 -0.0139 -0.3758
    8MOL0     H 1062   9.210   7.798   1.767  0.0976  2.1660  0.5490
    8MOL0     H 1063   9.047   7.608   1.772 -0.3366  0.4939  1.6317
    8MOL0     H 1064   7.087   7.846   2.141  0.9757 -1.1029 -1.1844
    8MOL0     H 1065   7.009   7.882   2.392 -0.6908 -1.1786  1.0806
    8MOL0     H 1066   6.800   7.735   2.712 -2.5838 -1.2688  0.9696
    8MOL0     H 1067   6.666   7.711   2.885  0.0942 -1.6229 -0.6570
    8MOL0     H 1068   6.667   7.752   3.344 -1.0196 -1.6305 -0.2870
    8MOL0     H 1069   6.828   7.794   3.311  0.4388 -0.4097  0.6715
    8MOL0     H 1070   6.872   7.549   3.272 -3.2083 -1.0267 -2.2128
    8MOL0     H 1071   6.698   7.530   3.342 -0.1792  0.4591 -2.1944
    8MOL0     H 1072   6.869   7.499   3.525  5.3540  2.4817  2.7105
    8MOL0     H 1073   6.744   7.625   3.540  0.1346 -0.7512  1.5154
    8MOL0     H 1074   7.022   7.688   3.441 -0.6975  0.4822  0.2285
    8MOL0     H 1075   6.898   7.795   3.517 -1.7602 -1.2770 -1.0756
    8MOL0     H 1076   7.132   7.657   3.848 -1.9749  2.1327 -0.3249
    8MOL0     H 1077   6.990   7.730   3.164 -1.2790  0.9448  0.8567
    8MOL0     H 1078   7.250   7.627   2.947  2.6086  2.4022 -1.5691
    8MOL0     H 1079   7.224   7.801   2.930 -2.3606  2.1254  1.7744
    8MOL0     H 1080   7.187   7.711   3.084  1.1217 -0.7667  0.0338
    9MOL0     O 1081   1.678   9.429  11.203  0.4231 -0.5879  0.7296
    9MOL0     C 1082   1.690   9.418  11.081  0.6276 -0.2810  0.5460
    9MOL0     O 1083   1.809   9.402  11.023  0.5258  0.2897  0.5370
    9MOL0     C 1084   1.906   9.360  11.102  1.3011 -0.1032 -0.2454
    9MOL0     C 1085   1.990   9.459  11.149  1.7770  0.0586  0.6050
    9MOL0     C 1086   2.100   9.415  11.233  0.2602 -0.1453  0.6905
    9MOL0     C 1087   2.113   9.276  11.274  0.0646  0.8654  0.3440
    9MOL0     O 1088   2.207   9.255  11.368 -0.1823  1.2783  0.5938
    9MOL0     C 1089   2.229   9.116  11.403  0.0903  0.0681  0.6105
    9MOL0     C 1090   2.348   9.120  11.491  1.0495  0.4730 -0.9534
    9MOL0     C 1091   2.470   9.186  11.421 -0.3722 -0.5321  0.0770
    9MOL0     C 1092   2.585   9.193  11.519  0.4851 -1.2064 -0.3883
    9MOL0     C 1093   2.697   9.281  11.458  0.0540 -0.4225 -0.0701
    9MOL0     C 1094   2.833   9.272  11.519 -0.9203 -0.4033 -0.4642
    9MOL0     C 1095   2.923   9.383  11.459 -0.5476  0.0028  0.2409
    9MOL0     C 1096   2.979   9.358  11.326 -0.2929  0.1560  1.4355
    9MOL0     N 1097   3.032   9.489  11.259  0.0431  0.6581  0.1505
    9MOL0     C 1098   2.959   9.602  11.233  0.7311  0.1493  0.2643
    9MOL0     C 1099   3.046   9.699  11.207 -1.4543 -0.1091  0.1180
    9MOL0     C 1100   3.030   9.846  11.176 -0.3779  0.0679 -1.0393
    9MOL0     C 1101   3.088   9.859  11.034 -0.9709 -0.2874  0.7520
    9MOL0     C 1102   3.133   9.996  11.001 -0.9966  0.7632 -0.8231
    9MOL0     C 1103   3.034  10.110  11.018  0.6894 -0.1183 -1.2216
    9MOL0     O 1104   2.911  10.080  10.946 -1.2072  0.3162  0.3093
    9MOL0     C 1105   2.787  10.130  10.988  0.2548  1.0901 -0.6318
    9MOL0     C 1106   2.754  10.268  10.996  0.1104 -0.9569 -0.1687
    9MOL0     C 1107   2.614  10.308  11.019 -0.5482 -0.1574 -0.6355
    9MOL0     C 1108   2.515  10.206  11.021  0.1162 -0.5890  0.8981
    9MOL0     C 1109   2.384  10.248  11.038 -0.1807 -0.1739 -0.0335
    9MOL0     O 1110   2.358  10.359  11.115 -0.1610  0.4448 -0.3925
    9MOL0     C 1111   2.222  10.393  11.113 -0.5531 -0.8775 -0.1173
    9MOL0     C 1112   2.173  10.487  11.024 -0.4060 -0.1507  0.3900
    9MOL0     C 1113   2.041  10.521  11.035  0.5224  0.5946  0.2901
    9MOL0     C 1114   1.955  10.467  11.139 -0.3329 -0.0272  0.6525
    9MOL0     O 1115   1.831  10.517  11.169 -0.1022 -0.2662 -0.2356
    9MOL0     C 1116   1.744  10.562  11.069 -0.5273  0.6983 -0.0581
    9MOL0     C 1117   1.603  10.533  11.108 -1.1691  0.1529  0.4341
    9MOL0     C 1118   1.565  10.384  11.109  0.3783 -0.0598 -0.3208
    9MOL0     C 1119   1.544  10.345  10.955  0.1590  0.1512  0.2969
    9MOL0     C 1120   1.585  10.194  10.940  0.6634 -0.0511  0.9537
    9MOL0     C 1121   1.493  10.101  11.030 -0.0578 -0.1678 -0.5205
    9MOL0     C 1122   1.535   9.954  11.020 -0.0145  0.0840 -0.1334
    9MOL0     C 1123   1.425   9.862  11.070 -0.4404 -0.6517 -0.5922
    9MOL0    Cl 1124   1.290   9.858  10.957 -0.2668  0.3014  0.2708
    9MOL0     C 1125   1.999  10.359  11.208  0.0918  0.2492 -0.0793
    9MOL0     C 1126   2.135  10.324  11.209 -0.8201 -0.1262 -0.3308
    9MOL0     O 1127   2.299  10.174  10.992  0.9258 -0.0071 -0.0399
    9MOL0     C 1128   2.554  10.066  10.994 -0.1313 -1.8800  0.3788
    9MOL0     C 1129   2.686  10.035  10.983 -0.0540 -0.0876  0.5074
    9MOL0     N 1130   3.173   9.643  11.204  0.4372 -0.0058 -0.4242
    9MOL0     N 1131   3.164   9.517  11.228  1.3758 -0.0893  0.3248
    9MOL0     C 1132   2.017   9.187  11.230  0.2796  0.5885 -0.0262
    9MOL0     C 1133   1.923   9.226  11.143 -0.4279  0.0161 -0.1625
    9MOL0     C 1134   1.580   9.430  10.984  0.8941  0.2112 -0.4844
    9MOL0     C 1135   1.612   9.393  10.850 -0.4263  0.8744  0.3398
    9MOL0     C 1136   1.512   9.409  10.751 -0.6216 -0.4918  0.4502
    9MOL0     C 1137   1.384   9.446  10.783  0.2316  0.5056  0.6152
    9MOL0     O 1138   1.278   9.453  10.694  0.5905  0.3517 -1.0017
    9MOL0     C 1139   1.286   9.393  10.572  0.1006 -0.5157 -0.6663
    9MOL0     C 1140   1.147   9.372  10.508  0.9865  0.1908 -0.5239
    9MOL0     C 1141   1.065   9.505  10.485  0.3410  0.7762 -0.5619
    9MOL0     C 1142   0.955   9.535  10.574 -0.1122 -0.1732 -0.9151
    9MOL0     C 1143   0.986   9.582  10.710  0.4490  0.3415  0.2608
    9MOL0     C 1144   1.010   9.624  10.824 -0.4564 -0.4837 -0.3201
    9MOL0     C 1145   1.350   9.464  10.918 -0.6392 -0.0822 -1.2042
    9MOL0     C 1146   1.445   9.462  11.025 -0.8680  0.1399 -0.0715
    9MOL0     C 1147   1.391   9.486  11.165 -0.8698 -0.2177 -0.6409
    9MOL0     H 1148   1.959   9.559  11.123 -1.0102  0.1955  3.7367
    9MOL0     H 1149   2.178   9.479  11.271  1.8273 -0.5879 -1.5180
    9MOL0     H 1150   2.141   9.067  11.445 -0.2213  1.2604  1.3885
    9MOL0     H 1151   2.266   9.061  11.316  1.8773  1.3536  0.5039
    9MOL0     H 1152   2.372   9.019  11.522  2.1842  1.2631  0.8877
    9MOL0     H 1153   2.321   9.170  11.585  0.1756 -0.1465 -0.8684
    9MOL0     H 1154   2.444   9.286  11.385 -1.0020  0.0025  1.8753
    9MOL0     H 1155   2.492   9.122  11.335  0.7337 -0.3405  0.2049
    9MOL0     H 1156   2.538   9.251  11.599 -2.5889 -1.7682 -1.6316
    9MOL0     H 1157   2.618   9.095  11.555 -2.3044 -1.5949  1.4296
    9MOL0     H 1158   2.702   9.260  11.351  1.1937 -3.0397  0.4137
    9MOL0     H 1159   2.662   9.385  11.451  2.4582  0.5573  1.1529
    9MOL0     H 1160   2.834   9.292  11.627  1.5504 -1.4116 -0.2164
    9MOL0     H 1161   2.879   9.173  11.505 -1.9602 -0.9701 -0.0260
    9MOL0     H 1162   3.013   9.397  11.519 -0.6156 -0.1281  0.3722
    9MOL0     H 1163   2.859   9.471  11.449 -1.7802 -1.0984 -3.6318
    9MOL0     H 1164   3.063   9.289  11.329  1.7144  2.3414 -0.7289
    9MOL0     H 1165   2.908   9.303  11.264  0.8852 -0.0472  0.2376
    9MOL0     H 1166   2.852   9.618  11.224  0.9797  1.9959  0.1355
    9MOL0     H 1167   2.923   9.871  11.184 -0.5901 -0.9856 -0.2559
    9MOL0     H 1168   3.087   9.913  11.240  0.8038 -0.8101 -1.1411
    9MOL0     H 1169   3.181   9.803  11.020  0.1215  2.1471 -3.3519
    9MOL0     H 1170   3.018   9.813  10.964 -0.8310 -1.8003  1.5533
    9MOL0     H 1171   3.155   9.983  10.894 -2.8584  1.6682 -1.3499
    9MOL0     H 1172   3.223  10.024  11.056  0.6460 -1.3134 -2.2345
    9MOL0     H 1173   3.072  10.206  10.983 -2.6674  2.0625  0.5920
    9MOL0     H 1174   3.026  10.122  11.126  0.5093 -1.8742 -1.0068
    9MOL0     H 1175   2.831  10.344  10.983  0.2776 -1.0132  0.4215
    9MOL0     H 1176   2.577  10.410  11.019  4.1946  1.9087 -3.3882
    9MOL0     H 1177   2.234  10.546  10.957 -0.5488  1.6309  1.7614
    9MOL0     H 1178   2.000  10.605  10.979  0.6492 -0.4568 -1.4419
    9MOL0     H 1179   1.748  10.670  11.053  0.8502  0.1412 -5.0018
    9MOL0     H 1180   1.769  10.510  10.976  0.7949 -0.2167  0.7695
    9MOL0     H 1181   1.596  10.575  11.208  2.1023  1.8036  0.0986
    9MOL0     H 1182   1.532  10.587  11.044 -0.5829  1.5882  0.9561
    9MOL0     H 1183   1.641  10.320  11.154 -1.0986 -1.9822 -0.4563
    9MOL0     H 1184   1.476  10.359  11.166 -0.1244 -0.2773 -1.1863
    9MOL0     H 1185   1.604  10.399  10.882 -0.7370  0.2892 -0.3594
    9MOL0     H 1186   1.440  10.363  10.927 -0.6302 -2.9640  0.7921
    9MOL0     H 1187   1.689  10.175  10.967  1.0876 -0.9066 -1.0739
    9MOL0     H 1188   1.580  10.158  10.837  1.5850 -0.2528  0.9679
    9MOL0     H 1189   1.500  10.126  11.136 -2.9761  3.0083 -0.8646
    9MOL0     H 1190   1.387  10.120  11.010  0.7424  2.6401 -2.9271
    9MOL0     H 1191   1.622   9.942  11.085  1.0272 -1.8112 -1.7508
    9MOL0     H 1192   1.567   9.926  10.919 -1.8150 -2.8300 -0.0236
    9MOL0     H 1193   1.467   9.762  11.088 -3.8381 -1.4979  5.3230
    9MOL0     H 1194   1.393   9.885  11.172  2.1989  0.7562  0.0028
    9MOL0     H 1195   1.941  10.302  11.281 -2.3764  2.6988  0.0416
    9MOL0     H 1196   2.174  10.245  11.271 -0.3798  0.4821  0.1839
    9MOL0     H 1197   2.469   9.998  10.992 -2.6875  1.0480 -1.2119
    9MOL0     H 1198   2.722   9.937  10.950  1.0755  0.9842 -1.6465
    9MOL0     H 1199   2.026   9.086  11.269  1.0834  1.2808  1.7001
    9MOL0     H 1200   1.850   9.150  11.118  1.8716 -2.1809 -0.5156
    9MOL0     H 1201   1.712   9.367  10.817  0.1991  0.0145  2.6932
    9MOL0     H 1202   1.527   9.392  10.645  3.8821 -4.1174  1.4029
    9MOL0     H 1203   1.343   9.300  10.587 -0.7184 -0.5865  3.2029
    9MOL0     H 1204   1.337   9.466  10.510  1.9323 -1.0690  0.1072
    9MOL0     H 1205   1.093   9.298  10.568  0.4327  2.2512  1.6517
    9MOL0     H 1206   1.160   9.318  10.413 -1.3387 -1.6467  0.0996
    9MOL0     H 1207   1.012   9.489  10.391  1.1580  0.9076 -1.0552
    9MOL0     H 1208   1.125   9.595  10.472 -0.3206  1.1753 -0.8862
    9MOL0     H 1209   0.890   9.604  10.519 -1.0294  0.8356  1.2994
    9MOL0     H 1210   0.890   9.447  10.582 -0.9077  0.3553 -1.4407
    9MOL0     H 1211   1.034   9.664  10.921 -2.4300  0.9289 -0.3510
    9MOL0     H 1212   1.243   9.474  10.939 -0.7243 -1.4005 -0.9420
    9MOL0     H 1213   1.290   9.527  11.155 -0.5165  0.5495 -1.1017
    9MOL0     H 1214   1.369   9.394  11.220  0.8572 -1.2015 -1.5106
    9MOL0     H 1215   1.461   9.552  11.217  0.0599 -0.8257 -1.1056
   10MOL0     O 1216   4.550   9.528   8.079 -0.8810  0.4745  0.2425
   10MOL0     C 1217   4.618   9.436   8.037  0.4488 -0.5481 -1.5862
   10MOL0     O 1218   4.676   9.424   7.917 -0.5277 -0.6200  0.2303
   10MOL0     C 1219   4.662   9.525   7.827 -0.0555 -0.4024  0.5837
   10MOL0     C 1220   4.765   9.625   7.806  0.9990  0.0604  0.1288
   10MOL0     C 1221   4.738   9.723   7.708 -0.5141 -0.2546 -0.8925
   10MOL0     C 1222   4.613   9.732   7.647  0.7780 -0.3186 -0.0608
   10MOL0     O 1223   4.591   9.842   7.561 -0.2199  0.2604  0.7097
   10MOL0     C 1224   4.480   9.837   7.474 -0.0094  0.2693  0.0958
   10MOL0     C 1225   4.512   9.938   7.367 -0.5883 -0.0426 -0.2536
   10MOL0     C 1226   4.449  10.078   7.400  0.7741  0.6450 -0.1216
   10MOL0     C 1227   4.324  10.102   7.315 -0.3905 -0.5685 -0.3540
   10MOL0     C 1228   4.285  10.253   7.328 -0.0866  0.7093 -0.2179
   10MOL0     C 1229   4.175  10.297   7.229  0.6079  0.0530  0.6642
   10MOL0     C 1230   4.179  10.237   7.083  0.1316 -0.3725  0.1218
   10MOL0     C 1231   4.311  10.266   7.008 -0.5283 -0.7058 -1.5266
   10MOL0     N 1232   4.327  10.181   6.892  0.8222 -0.6918  0.4428
   10MOL0     C 1233   4.362  10.058   6.902 -0.3655  0.5275 -0.0233
   10MOL0     C 1234   4.329   9.997   6.789  0.2182  0.2433 -0.0076
   10MOL0     C 1235   4.366   9.853   6.756 -0.5287  0.0178 -0.0491
   10MOL0     C 1236   4.256   9.754   6.802  0.1740  0.2351  0.1956
   10MOL0     C 1237   4.140   9.745   6.694  0.7436 -0.5242  0.6953
   10MOL0     C 1238   4.189   9.678   6.568 -0.8904  0.2591  0.5933
   10MOL0     O 1239   4.071   9.667   6.489 -0.2674 -0.5414 -0.5197
   10MOL0     C 1240   3.990   9.563   6.507  0.5083 -0.0179 -0.3576
   10MOL0     C 1241   3.877   9.557   6.420 -0.2605 -1.1975  0.3212
   10MOL0     C 1242   3.790   9.441   6.414 -0.4959 -0.1266  0.2571
   10MOL0     C 1243   3.811   9.338   6.504 -0.4120 -0.1373 -0.0335
   10MOL0     C 1244   3.717   9.220   6.514 -0.6391 -0.1301 -0.2181
   10MOL0     O 1245   3.615   9.229   6.425  0.1092  0.4786  0.2184
   10MOL0     C 1246   3.548   9.115   6.396  0.2233 -0.6325 -0.9875
   10MOL0     C 1247   3.598   9.031   6.301 -0.2466  0.0999  0.4889
   10MOL0     C 1248   3.516   8.917   6.276 -0.4164  0.4262 -0.4060
   10MOL0     C 1249   3.393   8.881   6.345 -0.6026 -0.4095  0.5299
   10MOL0     O 1250   3.321   8.764   6.304 -0.0478 -0.5794  0.5951
   10MOL0     C 1251   3.195   8.725   6.369 -0.0218  0.1199  0.0295
   10MOL0     C 1252   3.182   8.576   6.354 -0.9075 -0.6731 -0.2940
   10MOL0     C 1253   3.211   8.529   6.206 -0.4075 -0.1521 -0.1974
   10MOL0     C 1254   3.187   8.380   6.183  0.3980  0.2745  0.0643
   10MOL0     C 1255   3.041   8.333   6.192 -0.0982  0.2773  0.6688
   10MOL0     C 1256   2.958   8.390   6.074  0.3583  0.1104 -1.0580
   10MOL0     C 1257   2.812   8.346   6.067 -0.1584 -0.3759 -0.6005
   10MOL0     C 1258   2.807   8.194   6.029 -0.2460  1.0501 -0.7981
   10MOL0    Cl 1259   2.668   8.141   5.927  0.4854 -0.4750  0.4231
   10MOL0     C 1260   3.351   8.978   6.435  0.2123 -0.0325  0.5400
   10MOL0     C 1261   3.425   9.087   6.461  0.3253  0.3132  0.5646
   10MOL0     O 1262   3.737   9.133   6.596 -0.4831  0.0326  0.6058
   10MOL0     C 1263   3.934   9.337   6.576 -0.1106 -0.4037  0.0465
   10MOL0     C 1264   4.015   9.447   6.578 -0.5069  0.0483 -0.3027
   10MOL0     N 1265   4.261  10.074   6.708  0.1286 -0.3275  0.0545
   10MOL0     N 1266   4.257  10.192   6.769 -1.5087 -0.2659 -0.5277
   10MOL0     C 1267   4.521   9.627   7.655 -0.6559 -0.1730  0.5669
   10MOL0     C 1268   4.551   9.522   7.747  0.6403 -0.2676 -0.5436
   10MOL0     C 1269   4.662   9.345   8.140  0.9596  1.2343 -0.1709
   10MOL0     C 1270   4.794   9.325   8.159 -0.5387 -0.8549  0.3486
   10MOL0     C 1271   4.841   9.229   8.249 -0.7018  0.4453  0.4982
   10MOL0     C 1272   4.744   9.154   8.321 -0.6929  0.0363 -0.1073
   10MOL0     O 1273   4.796   9.074   8.420  0.1228 -0.4511 -0.0716
   10MOL0     C 1274   4.714   8.986   8.493 -0.6764 -0.2573  0.2242
   10MOL0     C 1275   4.807   8.900   8.579 -0.4983 -0.3481  0.2716
   10MOL0     C 1276   4.935   8.858   8.508  0.3999  0.0432  0.5074
   10MOL0     C 1277   5.012   8.766   8.605 -0.0733  0.1138  1.0268
   10MOL0     C 1278   5.062   8.636   8.551 -0.7677 -0.0195  0.2122
   10MOL0     C 1279   5.101   8.526   8.510 -0.0998  0.1835  0.3511
   10MOL0     C 1280   4.612   9.186   8.314 -0.6774  0.2340  0.6328
   10MOL0     C 1281   4.564   9.279   8.220 -0.2040  0.5046  0.1630
   10MOL0     C 1282   4.406   9.303   8.220  0.1425  1.7505  0.1560
   10MOL0     H 1283   4.846   9.633   7.877  2.1795  2.9321 -1.3698
   10MOL0     H 1284   4.823   9.788   7.686  2.5629 -3.2041  1.2042
   10MOL0     H 1285   4.480   9.741   7.422  3.0546 -0.6435  1.5571
   10MOL0     H 1286   4.384   9.856   7.524  0.0520 -1.3043  0.8660
   10MOL0     H 1287   4.466   9.904   7.273 -2.6713 -2.8879  1.6105
   10MOL0     H 1288   4.619   9.944   7.350 -0.8069 -0.8242 -2.1946
   10MOL0     H 1289   4.518  10.162   7.385  0.6063  0.7010 -0.5836
   10MOL0     H 1290   4.417  10.086   7.505 -0.0582  0.0757 -0.3274
   10MOL0     H 1291   4.351  10.070   7.214  0.1363 -2.5453  0.3686
   10MOL0     H 1292   4.243  10.039   7.353  0.6780  0.2228  3.7899
   10MOL0     H 1293   4.262  10.274   7.433 -0.0671 -1.2099  0.2124
   10MOL0     H 1294   4.371  10.311   7.295 -1.5311  2.3050 -1.3956
   10MOL0     H 1295   4.081  10.268   7.278 -1.9644  3.7057 -1.6202
   10MOL0     H 1296   4.192  10.405   7.227  2.3328 -0.1784 -2.4024
   10MOL0     H 1297   4.096  10.283   7.028 -0.6320 -0.1357  1.4354
   10MOL0     H 1298   4.152  10.131   7.082 -4.2752  0.5458 -1.3184
   10MOL0     H 1299   4.310  10.370   6.973  1.4963  0.6370  1.8600
   10MOL0     H 1300   4.396  10.256   7.076  0.1620 -1.8886 -2.5162
   10MOL0     H 1301   4.415  10.008   6.983  0.6626 -0.7432 -1.4300
   10MOL0     H 1302   4.401   9.826   6.656  1.0532  1.0577  0.1865
   10MOL0     H 1303   4.452   9.826   6.817  0.0461  3.0694  0.6468
   10MOL0     H 1304   4.303   9.657   6.825 -2.1365 -0.7685  0.9952
   10MOL0     H 1305   4.214   9.784   6.899  1.9101  1.2390  0.6758
   10MOL0     H 1306   4.105   9.845   6.666 -0.4610 -1.3259 -0.7455
   10MOL0     H 1307   4.060   9.681   6.731 -0.0170 -1.8788 -2.9301
   10MOL0     H 1308   4.238   9.587   6.605  0.3592  0.6917  0.0626
   10MOL0     H 1309   4.273   9.724   6.515 -0.0484 -2.8724 -1.0826
   10MOL0     H 1310   3.852   9.641   6.356  0.4684 -1.0803  0.1815
   10MOL0     H 1311   3.705   9.445   6.345 -0.5559  4.8649  0.2968
   10MOL0     H 1312   3.697   9.034   6.258  0.2250 -1.3157  1.3926
   10MOL0     H 1313   3.552   8.842   6.206 -0.0653 -0.7444  0.9762
   10MOL0     H 1314   3.189   8.756   6.473 -2.6164 -1.5041  0.4411
   10MOL0     H 1315   3.115   8.774   6.313 -0.5916  0.0674  0.7844
   10MOL0     H 1316   3.258   8.529   6.416 -0.6653  0.0428 -0.0358
   10MOL0     H 1317   3.080   8.562   6.390 -0.5702  0.1190  1.0207
   10MOL0     H 1318   3.163   8.587   6.126  0.9508  1.5941  0.2039
   10MOL0     H 1319   3.318   8.541   6.187 -0.4701 -1.0843 -1.2833
   10MOL0     H 1320   3.250   8.325   6.254  2.8762  0.1918 -2.0829
   10MOL0     H 1321   3.217   8.357   6.081 -3.3541 -2.6648 -0.6197
   10MOL0     H 1322   2.994   8.370   6.283 -0.0600  3.1396 -0.3743
   10MOL0     H 1323   3.043   8.225   6.172 -1.7639  0.4601 -0.7871
   10MOL0     H 1324   2.955   8.499   6.084 -2.6120  0.0314  0.1429
   10MOL0     H 1325   2.989   8.357   5.975 -1.1080 -3.6825 -0.4276
   10MOL0     H 1326   2.755   8.404   5.994 -3.3041  0.1252  2.0409
   10MOL0     H 1327   2.758   8.360   6.161  0.6885  1.5042 -0.3608
   10MOL0     H 1328   2.900   8.162   5.980 -1.3231 -5.6058  0.5225
   10MOL0     H 1329   2.815   8.136   6.122  2.1079  2.7184  0.1726
   10MOL0     H 1330   3.253   8.955   6.476  0.0110 -0.6989 -0.3029
   10MOL0     H 1331   3.382   9.164   6.525  1.4381  1.0364  0.4817
   10MOL0     H 1332   3.951   9.256   6.647 -1.9639  0.3915  1.4900
   10MOL0     H 1333   4.100   9.454   6.645 -2.2989  0.1877  2.1016
   10MOL0     H 1334   4.428   9.626   7.599 -0.5271 -2.6420  0.2827
   10MOL0     H 1335   4.488   9.434   7.742  1.4079 -0.8200 -0.7124
   10MOL0     H 1336   4.865   9.382   8.100  0.7570 -0.7385  1.9490
   10MOL0     H 1337   4.948   9.210   8.254 -1.0112 -2.2876 -1.2866
   10MOL0     H 1338   4.655   8.916   8.432 -0.9589  1.5476 -1.7092
   10MOL0     H 1339   4.634   9.041   8.544 -2.2126 -1.0545 -1.2124
   10MOL0     H 1340   4.761   8.805   8.610  2.7374 -2.0128  0.4318
   10MOL0     H 1341   4.828   8.966   8.664 -0.9720 -1.1802  1.0536
   10MOL0     H 1342   5.001   8.939   8.476  0.3750 -0.1617 -0.0818
   10MOL0     H 1343   4.912   8.792   8.423  0.6542  0.6420 -0.0307
   10MOL0     H 1344   5.102   8.819   8.636  0.7644  0.3634 -1.5645
   10MOL0     H 1345   4.961   8.746   8.700 -2.0097 -0.4090 -0.0591
   10MOL0     H 1346   5.138   8.431   8.478 -1.2041 -0.2819  0.3921
   10MOL0     H 1347   4.544   9.140   8.386 -0.6331 -2.6329 -1.0028
   10MOL0     H 1348   4.341   9.229   8.267  1.4650  1.5436  1.7048
   10MOL0     H 1349   4.376   9.393   8.274 -3.2178  0.4762  0.6598
   10MOL0     H 1350   4.368   9.304   8.117 -1.6119  0.6783  0.7391
   11MOL0     O 1351   7.184   2.940   1.144 -0.7301  0.8569  0.0456
   11MOL0     C 1352   7.126   3.045   1.116  0.4437 -0.0017  0.0899
   11MOL0     O 1353   7.105   3.085   0.989 -0.2771  0.6218  0.3682
   11MOL0     C 1354   7.102   2.986   0.888 -0.2782 -0.5038  0.0394
   11MOL0     C 1355   7.206   2.968   0.797 -0.3919  0.2783 -0.4550
   11MOL0     C 1356   7.207   2.861   0.703  0.0222  0.2978  0.0791
   11MOL0     C 1357   7.089   2.789   0.681  0.4961  0.1411  1.2490
   11MOL0     O 1358   7.072   2.678   0.601 -0.6702  0.5450 -0.5353
   11MOL0     C 1359   7.174   2.638   0.507  0.0824 -0.1494 -0.1418
   11MOL0     C 1360   7.123   2.526   0.422  0.4335 -0.3794 -0.0822
   11MOL0     C 1361   7.225   2.498   0.319  0.5105 -0.5119 -0.7479
   11MOL0     C 1362   7.170   2.398   0.216  0.3209  0.8991  0.1471
   11MOL0     C 1363   7.277   2.340   0.116 -0.3005  0.9815  0.2446
   11MOL0     C 1364   7.219   2.211   0.046 -0.1651 -0.4948  0.2526
   11MOL0     C 1365   7.329   2.156  -0.027 -0.6325  0.2461  0.0166
   11MOL0     C 1366   7.319   2.007  -0.050 -0.0971 -1.1284  0.6658
   11MOL0     N 1367   7.348   1.999  -0.195  0.2505  0.3068 -0.2616
   11MOL0     C 1368   7.262   2.034  -0.294 -0.0191  1.5225  0.6229
   11MOL0     C 1369   7.315   2.001  -0.415  0.5662 -0.0151  0.4784
   11MOL0     C 1370   7.277   2.026  -0.558 -0.9671 -1.7291  0.6819
   11MOL0     C 1371   7.126   2.013  -0.586 -0.7577  0.4262 -1.2613
   11MOL0     C 1372   7.086   2.106  -0.696  0.7744  0.0686  0.3971
   11MOL0     C 1373   7.133   2.064  -0.837 -0.6520 -0.4289  0.0591
   11MOL0     O 1374   7.039   1.969  -0.891 -0.4566  0.4083  0.3692
   11MOL0     C 1375   7.066   1.909  -1.005 -0.0967  0.4642  0.1025
   11MOL0     C 1376   7.011   1.966  -1.120  0.8797  0.1023 -0.8065
   11MOL0     C 1377   7.038   1.901  -1.241  1.1048 -0.3257 -0.1568
   11MOL0     C 1378   7.115   1.777  -1.244 -0.2801  0.4885  0.1129
   11MOL0     C 1379   7.170   1.725  -1.368  0.9231 -0.7002  0.4590
   11MOL0     O 1380   7.285   1.650  -1.362  0.2079  0.0756 -0.2059
   11MOL0     C 1381   7.349   1.609  -1.477  0.6825 -0.3124  0.3755
   11MOL0     C 1382   7.488   1.626  -1.478  0.8562 -0.8434 -0.8139
   11MOL0     C 1383   7.562   1.593  -1.593 -0.3851 -0.4817 -0.0556
   11MOL0     C 1384   7.497   1.538  -1.709  0.1790 -0.1373 -0.6672
   11MOL0     O 1385   7.559   1.508  -1.828 -0.3329 -0.4171 -0.0991
   11MOL0     C 1386   7.668   1.594  -1.861  0.3575 -0.0009 -0.6217
   11MOL0     C 1387   7.619   1.738  -1.902  0.1364 -0.1244  0.6710
   11MOL0     C 1388   7.534   1.737  -2.029  0.0447 -0.4650  0.0109
   11MOL0     C 1389   7.505   1.876  -2.088 -0.8457 -0.3728 -0.4314
   11MOL0     C 1390   7.431   1.885  -2.218 -0.2813  0.6769 -0.1309
   11MOL0     C 1391   7.399   2.025  -2.266  0.7441 -0.1627 -0.1267
   11MOL0     C 1392   7.302   2.017  -2.384 -0.5707  0.7108 -0.2994
   11MOL0     C 1393   7.362   1.987  -2.516  0.7796 -0.1165 -0.2843
   11MOL0    Cl 1394   7.443   2.130  -2.591 -0.2379  0.1778 -0.4122
   11MOL0     C 1395   7.359   1.525  -1.708  0.3347  0.0719  0.4562
   11MOL0     C 1396   7.282   1.551  -1.591 -0.6725 -0.8159  0.0042
   11MOL0     O 1397   7.108   1.751  -1.472  0.1538  0.0018  0.6055
   11MOL0     C 1398   7.168   1.723  -1.121  0.0825  0.2345  0.1456
   11MOL0     C 1399   7.145   1.792  -1.002 -1.2014  0.3080 -0.1585
   11MOL0     N 1400   7.442   1.951  -0.389 -0.0754 -0.0824  0.6950
   11MOL0     N 1401   7.452   1.950  -0.262  0.0939 -0.6387 -0.2131
   11MOL0     C 1402   6.979   2.813   0.766 -0.3996  0.1606 -0.1037
   11MOL0     C 1403   6.987   2.914   0.871  0.3154  0.7686  1.0149
   11MOL0     C 1404   7.083   3.140   1.213 -0.0180  0.9866  0.5803
   11MOL0     C 1405   7.081   3.281   1.175  0.1713  0.8902 -0.1825
   11MOL0     C 1406   7.037   3.373   1.273  0.0720 -0.3951  0.0356
   11MOL0     C 1407   6.998   3.341   1.404  0.4137  0.2920 -0.1363
   11MOL0     O 1408   6.969   3.445   1.491 -0.0147  0.1062 -0.1550
   11MOL0     C 1409   7.040   3.572   1.474 -0.3186  0.5164 -0.1191
   11MOL0     C 1410   7.010   3.624   1.610 -0.0622  0.6707 -0.6365
   11MOL0     C 1411   7.066   3.770   1.622  0.1004  0.1453  0.2700
   11MOL0     C 1412   7.074   3.794   1.780 -0.2571 -0.3011  0.3893
   11MOL0     C 1413   7.117   3.932   1.788  0.3743  0.5066 -0.1046
   11MOL0     C 1414   7.160   4.041   1.801 -0.3731  0.5339  0.2582
   11MOL0     C 1415   6.987   3.203   1.427 -0.3352  0.4911 -0.8870
   11MOL0     C 1416   7.030   3.109   1.338 -0.5174 -0.1691  0.1519
   11MOL0     C 1417   7.001   2.966   1.381 -0.0281 -1.0478 -1.0070
   11MOL0     H 1418   7.300   3.023   0.803 -0.8859  1.1009 -0.0484
   11MOL0     H 1419   7.298   2.829   0.653  1.2917 -1.3933  3.1383
   11MOL0     H 1420   7.170   2.730   0.448 -0.2443  0.2894  0.5571
   11MOL0     H 1421   7.268   2.608   0.553  0.2249 -2.3280 -1.6738
   11MOL0     H 1422   7.024   2.559   0.388  1.8608  0.6801 -3.6520
   11MOL0     H 1423   7.114   2.437   0.485  4.9928 -0.7003  0.4493
   11MOL0     H 1424   7.312   2.467   0.379  1.2466  1.3867 -0.7636
   11MOL0     H 1425   7.252   2.593   0.272 -2.0273 -0.3911 -2.1382
   11MOL0     H 1426   7.119   2.320   0.273 -0.8667  1.3997 -0.2003
   11MOL0     H 1427   7.092   2.450   0.159  2.4057  2.8481 -1.1071
   11MOL0     H 1428   7.309   2.426   0.056  1.7745 -0.5319 -0.9347
   11MOL0     H 1429   7.362   2.301   0.173 -0.8712 -1.6309 -0.5507
   11MOL0     H 1430   7.191   2.142   0.126  1.8410 -2.4531 -0.6357
   11MOL0     H 1431   7.139   2.227  -0.027 -0.1707  4.7195  1.0417
   11MOL0     H 1432   7.427   2.180   0.014 -0.1257  0.0501 -1.0439
   11MOL0     H 1433   7.325   2.209  -0.122 -1.5743 -1.2877 -0.8415
   11MOL0     H 1434   7.393   1.953   0.010 -0.5843 -1.6388  0.8107
   11MOL0     H 1435   7.219   1.974  -0.020 -1.2854  0.1549 -1.5584
   11MOL0     H 1436   7.162   2.074  -0.286 -0.4284  0.2350  2.6863
   11MOL0     H 1437   7.299   2.133  -0.565  1.4724 -2.2249 -0.2563
   11MOL0     H 1438   7.339   1.974  -0.632 -0.3650  1.6868 -1.4480
   11MOL0     H 1439   7.093   1.916  -0.622  1.2646  0.6188 -3.9570
   11MOL0     H 1440   7.073   2.034  -0.492 -0.3569 -0.8684 -0.7255
   11MOL0     H 1441   7.118   2.209  -0.677 -1.7830  0.8647  0.7707
   11MOL0     H 1442   6.977   2.113  -0.697  0.6317  0.5222  4.3008
   11MOL0     H 1443   7.236   2.028  -0.844  0.2183  1.8583  0.1338
   11MOL0     H 1444   7.120   2.156  -0.896 -0.4759  0.6486  1.6356
   11MOL0     H 1445   6.951   2.055  -1.110 -0.3036 -0.2239 -3.8134
   11MOL0     H 1446   7.008   1.950  -1.332  1.2467  0.8022  0.3834
   11MOL0     H 1447   7.530   1.669  -1.388 -1.3281  0.5296 -0.3844
   11MOL0     H 1448   7.670   1.600  -1.585 -0.5563  2.0826  1.1183
   11MOL0     H 1449   7.747   1.580  -1.786 -1.9585 -2.4855  1.5582
   11MOL0     H 1450   7.710   1.547  -1.950  0.1431 -0.3565 -0.5388
   11MOL0     H 1451   7.562   1.780  -1.819 -0.8347  0.0446 -0.0602
   11MOL0     H 1452   7.706   1.800  -1.927 -0.8732 -0.0729 -3.4246
   11MOL0     H 1453   7.588   1.682  -2.107 -0.0691  2.9392 -2.7261
   11MOL0     H 1454   7.432   1.705  -2.007 -0.7152  2.0804  0.4949
   11MOL0     H 1455   7.598   1.931  -2.107 -1.4661  1.7596  2.0901
   11MOL0     H 1456   7.444   1.928  -2.013 -2.4773 -1.2250 -1.1156
   11MOL0     H 1457   7.339   1.830  -2.195 -0.4490  0.0688 -2.0750
   11MOL0     H 1458   7.478   1.827  -2.298 -1.8948 -1.8992  0.6691
   11MOL0     H 1459   7.349   2.088  -2.192  0.6590 -2.3043  1.7649
   11MOL0     H 1460   7.492   2.074  -2.297  2.4021 -1.7995  1.9097
   11MOL0     H 1461   7.264   2.119  -2.389 -0.7652  0.6535  0.0090
   11MOL0     H 1462   7.221   1.950  -2.355  1.5835 -1.1111  2.0179
   11MOL0     H 1463   7.434   1.904  -2.505  0.0544 -0.4937  2.3531
   11MOL0     H 1464   7.280   1.947  -2.576 -0.7346 -1.0923  2.2655
   11MOL0     H 1465   7.311   1.482  -1.795 -0.7251 -1.9881  1.9883
   11MOL0     H 1466   7.174   1.540  -1.597 -1.2616  3.8709 -2.4899
   11MOL0     H 1467   7.217   1.627  -1.114 -0.7952 -0.3841 -1.5603
   11MOL0     H 1468   7.182   1.744  -0.912  1.5706  2.3437 -0.1022
   11MOL0     H 1469   6.899   2.744   0.743  1.7647 -2.3280 -0.6920
   11MOL0     H 1470   6.900   2.915   0.936  0.1713 -1.5376  0.9256
   11MOL0     H 1471   7.114   3.313   1.077 -0.9313 -2.6239 -1.8805
   11MOL0     H 1472   7.040   3.476   1.240 -0.8392  0.8217  3.3539
   11MOL0     H 1473   6.996   3.634   1.395  2.5214  1.9357 -0.7047
   11MOL0     H 1474   7.148   3.565   1.457  0.1394  2.7641  1.3983
   11MOL0     H 1475   7.060   3.569   1.690 -1.1400  1.8231  0.8888
   11MOL0     H 1476   6.902   3.621   1.628 -0.2225 -1.3359 -1.6906
   11MOL0     H 1477   6.997   3.846   1.584  0.5244  0.3403 -0.1290
   11MOL0     H 1478   7.166   3.787   1.581 -0.5033  1.7664 -0.6253
   11MOL0     H 1479   6.973   3.773   1.815 -2.1188  2.3138 -2.8717
   11MOL0     H 1480   7.160   3.735   1.814  0.7195 -1.1166 -3.0763
   11MOL0     H 1481   7.161   4.148   1.812 -0.1989  0.6888 -1.1277
   11MOL0     H 1482   6.954   3.164   1.523  0.1745 -0.6958 -1.1736
   11MOL0     H 1483   7.028   2.883   1.314 -0.4087 -1.7488 -0.3157
   11MOL0     H 1484   7.056   2.962   1.475 -1.7139  0.6558  0.1173
   11MOL0     H 1485   6.894   2.953   1.399  0.1790 -0.1452  1.2320
   12MOL0     O 1486   3.619   6.733   6.589  0.2144 -0.3046 -0.4313
   12MOL0     C 1487   3.655   6.669   6.691  0.1208 -0.2300 -0.5520
   12MOL0     O 1488   3.596   6.551   6.732 -0.4013  0.1031 -0.0325
   12MOL0     C 1489   3.519   6.474   6.647 -0.2389  0.1081  0.4461
   12MOL0     C 1490   3.380   6.469   6.678  0.2350  0.3334 -0.1831
   12MOL0     C 1491   3.297   6.383   6.602 -0.6599 -1.1711  0.0547
   12MOL0     C 1492   3.351   6.312   6.489  0.4425  0.5803 -0.7592
   12MOL0     O 1493   3.274   6.238   6.409 -0.3287  0.1618 -0.5413
   12MOL0     C 1494   3.261   6.276   6.271 -1.5278 -0.4126 -0.8113
   12MOL0     C 1495   3.115   6.229   6.233  0.2250 -0.0801  0.1458
   12MOL0     C 1496   3.003   6.284   6.309 -0.4515  0.1438  0.5554
   12MOL0     C 1497   2.875   6.256   6.231 -0.1161  0.7347 -0.3706
   12MOL0     C 1498   2.746   6.318   6.283  0.2550  0.3129 -0.7045
   12MOL0     C 1499   2.710   6.440   6.196  0.1397 -0.3820  0.4609
   12MOL0     C 1500   2.566   6.479   6.214 -0.6609  0.2834  0.2403
   12MOL0     C 1501   2.530   6.615   6.144 -0.4708  0.4245  0.2573
   12MOL0     N 1502   2.434   6.678   6.240 -0.6127 -1.0239  0.6208
   12MOL0     C 1503   2.306   6.652   6.275 -0.0998 -0.4649  0.5060
   12MOL0     C 1504   2.273   6.731   6.378 -0.2172 -0.9705  0.3221
   12MOL0     C 1505   2.139   6.733   6.446 -0.1638  0.4636 -0.6465
   12MOL0     C 1506   2.144   6.755   6.599 -0.3212  0.3121 -1.1130
   12MOL0     C 1507   2.211   6.639   6.676 -0.3647 -0.9273  0.1329
   12MOL0     C 1508   2.185   6.664   6.823 -0.1645 -0.7423 -0.2075
   12MOL0     O 1509   2.238   6.793   6.858 -0.0949 -0.3117 -0.5937
   12MOL0     C 1510   2.239   6.830   6.993  0.1353 -0.1711 -0.3950
   12MOL0     C 1511   2.254   6.968   7.019 -0.1269  0.1056 -0.1507
   12MOL0     C 1512   2.234   7.018   7.146 -0.3798 -0.7272  0.3435
   12MOL0     C 1513   2.211   6.931   7.260 -0.5614  0.0316 -0.0872
   12MOL0     C 1514   2.215   6.983   7.400  0.4250  0.1550 -0.2551
   12MOL0     O 1515   2.191   7.121   7.412 -0.7682 -0.0472 -0.4545
   12MOL0     C 1516   2.247   7.198   7.514  0.3102  0.8828  0.1516
   12MOL0     C 1517   2.269   7.152   7.650  0.3425  0.6832  0.2634
   12MOL0     C 1518   2.319   7.249   7.746 -0.4546 -0.5565  0.0423
   12MOL0     C 1519   2.329   7.387   7.703 -0.7584 -0.4455  0.1277
   12MOL0     O 1520   2.386   7.482   7.782 -0.0422  0.7089  0.4007
   12MOL0     C 1521   2.289   7.579   7.834  0.2660  1.2520  0.6596
   12MOL0     C 1522   2.329   7.615   7.971 -0.0403 -0.4532 -2.0167
   12MOL0     C 1523   2.245   7.719   8.057  0.4401 -0.1043 -0.1789
   12MOL0     C 1524   2.104   7.685   8.085 -0.2843 -0.5980  0.5097
   12MOL0     C 1525   2.067   7.642   8.227 -0.3812 -0.2440 -0.3224
   12MOL0     C 1526   2.132   7.501   8.248  1.1329 -0.5614 -0.4920
   12MOL0     C 1527   2.067   7.431   8.364 -0.2439  0.2321 -0.7250
   12MOL0     C 1528   2.121   7.284   8.363  0.3264  0.0230  0.0767
   12MOL0    Cl 1529   2.036   7.186   8.483  0.0402  0.0790  0.2682
   12MOL0     C 1530   2.310   7.419   7.568 -0.3608 -0.6669 -0.6277
   12MOL0     C 1531   2.258   7.333   7.479 -0.7406  0.6445 -0.2096
   12MOL0     O 1532   2.239   6.907   7.489  0.1820 -0.0197  0.6071
   12MOL0     C 1533   2.196   6.796   7.227  0.4187  0.3903 -0.5561
   12MOL0     C 1534   2.209   6.747   7.094  0.6055 -0.2239 -1.1911
   12MOL0     N 1535   2.381   6.814   6.410  0.7728 -0.2982  0.3363
   12MOL0     N 1536   2.474   6.781   6.327  0.2342 -0.1790 -0.6665
   12MOL0     C 1537   3.488   6.302   6.473  0.2034 -0.1892  0.6017
   12MOL0     C 1538   3.571   6.386   6.546  0.8557  0.0441  0.1306
   12MOL0     C 1539   3.752   6.733   6.779  0.3539  1.0890 -0.3915
   12MOL0     C 1540   3.748   6.686   6.916 -0.6245  0.0993  0.1135
   12MOL0     C 1541   3.830   6.752   7.011  0.5923  0.6556  0.8001
   12MOL0     C 1542   3.912   6.854   6.974 -0.6021 -1.1647 -0.7465
   12MOL0     O 1543   4.000   6.922   7.056  0.0365 -0.6127 -0.1100
   12MOL0     C 1544   4.093   6.852   7.142 -0.1232 -0.7361 -0.2819
   12MOL0     C 1545   4.240   6.879   7.104  0.5738 -0.3948  0.0519
   12MOL0     C 1546   4.259   7.028   7.088 -0.0451 -0.6330  0.5918
   12MOL0     C 1547   4.361   7.079   7.199  0.5383 -0.5967 -0.3855
   12MOL0     C 1548   4.323   7.056   7.336 -0.2475 -0.3798 -0.4914
   12MOL0     C 1549   4.280   7.060   7.450  0.1472  0.5988  0.3769
   12MOL0     C 1550   3.922   6.892   6.840 -0.0853  0.2614 -0.0494
   12MOL0     C 1551   3.845   6.830   6.738  0.6803  0.8770 -0.1045
   12MOL0     C 1552   3.860   6.881   6.597 -0.3624 -0.0896 -0.0097
   12MOL0     H 1553   3.347   6.509   6.773 -0.9035  1.1204 -0.8768
   12MOL0     H 1554   3.192   6.377   6.628 -1.0785  0.9357 -0.8901
   12MOL0     H 1555   3.275   6.385   6.267  0.6863 -0.5135  1.7643
   12MOL0     H 1556   3.335   6.242   6.198 -1.1580  1.0545 -1.1593
   12MOL0     H 1557   3.100   6.122   6.248 -4.0143  0.3048 -0.4017
   12MOL0     H 1558   3.104   6.258   6.129 -1.8367  0.3297  0.4517
   12MOL0     H 1559   3.020   6.392   6.316 -4.6965  1.1145 -1.0799
   12MOL0     H 1560   2.997   6.244   6.410 -3.1543 -4.2478 -1.0433
   12MOL0     H 1561   2.883   6.276   6.124 -1.2136 -0.2677 -0.6594
   12MOL0     H 1562   2.874   6.147   6.239  0.0487  0.8734  2.9491
   12MOL0     H 1563   2.665   6.246   6.294 -0.5969  1.2222 -0.9228
   12MOL0     H 1564   2.753   6.354   6.386 -1.9965 -0.6077 -0.1794
   12MOL0     H 1565   2.771   6.522   6.234 -1.3927  0.5641  1.0076
   12MOL0     H 1566   2.716   6.419   6.089 -1.8107 -0.0069  0.2362
   12MOL0     H 1567   2.556   6.489   6.322  3.2349 -1.0539  0.8883
   12MOL0     H 1568   2.497   6.403   6.176  1.0901 -1.0957 -0.2994
   12MOL0     H 1569   2.620   6.674   6.124 -1.3758  1.4791 -0.8788
   12MOL0     H 1570   2.483   6.611   6.045  1.3567 -2.8231 -0.6289
   12MOL0     H 1571   2.233   6.577   6.246 -0.0308 -1.5046  2.8244
   12MOL0     H 1572   2.073   6.808   6.402 -1.1160 -1.4013 -2.6058
   12MOL0     H 1573   2.086   6.643   6.412 -0.6038  0.2336  0.5807
   12MOL0     H 1574   2.189   6.853   6.622 -1.6735  0.2375  2.4366
   12MOL0     H 1575   2.045   6.768   6.642  0.5999  2.5577  0.5800
   12MOL0     H 1576   2.319   6.637   6.659 -0.4507 -0.4183 -0.5107
   12MOL0     H 1577   2.154   6.552   6.642 -4.3525  1.1449  0.8976
   12MOL0     H 1578   2.246   6.584   6.867  1.3766  1.6137  2.2513
   12MOL0     H 1579   2.080   6.654   6.851 -0.1184  0.9225  0.6555
   12MOL0     H 1580   2.280   7.039   6.941 -0.9809 -3.6556 -4.2879
   12MOL0     H 1581   2.251   7.124   7.160  2.2187 -1.2338  1.8935
   12MOL0     H 1582   2.248   7.047   7.665 -1.4596  1.1173  1.0095
   12MOL0     H 1583   2.356   7.227   7.845 -2.2283  0.4961  0.9930
   12MOL0     H 1584   2.288   7.672   7.776 -3.2514  1.0979  0.2607
   12MOL0     H 1585   2.191   7.531   7.828  1.6644 -1.6485 -1.4370
   12MOL0     H 1586   2.338   7.520   8.025  1.6427  0.1902 -1.0895
   12MOL0     H 1587   2.432   7.650   7.963 -0.0882 -0.2471 -1.7568
   12MOL0     H 1588   2.297   7.708   8.152 -1.0282 -3.1914  0.3827
   12MOL0     H 1589   2.245   7.819   8.011  0.8647  0.1704  0.4078
   12MOL0     H 1590   2.074   7.603   8.019  2.1542 -1.3057  0.1738
   12MOL0     H 1591   2.042   7.773   8.068 -2.7944 -2.4143 -0.3842
   12MOL0     H 1592   1.958   7.643   8.237 -0.6641 -1.2125 -2.6158
   12MOL0     H 1593   2.100   7.714   8.302  1.9421  2.2985 -3.4770
   12MOL0     H 1594   2.095   7.444   8.162 -1.4783  1.3920 -0.7624
   12MOL0     H 1595   2.241   7.494   8.255  0.9868 -1.8694  1.0166
   12MOL0     H 1596   1.958   7.427   8.361 -0.2683  0.7661 -0.6349
   12MOL0     H 1597   2.086   7.478   8.461 -0.4177 -0.1220 -0.5161
   12MOL0     H 1598   2.109   7.244   8.262  0.8908  0.0158  0.0099
   12MOL0     H 1599   2.224   7.272   8.396  0.1220  1.3024  1.2655
   12MOL0     H 1600   2.324   7.522   7.540 -0.4339 -0.4314  0.1709
   12MOL0     H 1601   2.224   7.370   7.382 -0.2715  2.1477  0.1704
   12MOL0     H 1602   2.171   6.735   7.314  1.5729 -0.1250 -0.5661
   12MOL0     H 1603   2.203   6.639   7.085 -2.3908 -0.2670  0.2347
   12MOL0     H 1604   3.521   6.238   6.392 -3.4651 -1.1766 -0.2760
   12MOL0     H 1605   3.676   6.404   6.524  1.7595  0.4803  4.0106
   12MOL0     H 1606   3.681   6.611   6.958  1.8498 -0.1940  4.1525
   12MOL0     H 1607   3.818   6.716   7.113  0.8823 -0.3693  0.4899
   12MOL0     H 1608   4.063   6.746   7.136 -4.3396  0.2176  0.5096
   12MOL0     H 1609   4.072   6.895   7.240 -1.3331  4.5197 -2.5249
   12MOL0     H 1610   4.258   6.828   7.009 -2.2802  0.7646 -1.2128
   12MOL0     H 1611   4.304   6.844   7.186 -0.7017 -1.1568  0.7642
   12MOL0     H 1612   4.170   7.091   7.099 -2.1060 -2.7977 -2.0403
   12MOL0     H 1613   4.287   7.059   6.987 -4.6283  1.6979 -0.2443
   12MOL0     H 1614   4.459   7.031   7.187 -0.2086 -2.0631 -0.8072
   12MOL0     H 1615   4.370   7.186   7.178  3.8609 -0.8718 -1.0017
   12MOL0     H 1616   4.238   7.059   7.548 -0.5727  0.4108  0.0692
   12MOL0     H 1617   4.000   6.960   6.808  2.0529 -0.7461  2.6304
   12MOL0     H 1618   3.781   6.954   6.581  1.0120  1.1981 -1.2726
   12MOL0     H 1619   3.959   6.916   6.564  0.7761 -3.3399 -0.4724
   12MOL0     H 1620   3.844   6.795   6.531 -0.4201 -1.0040  1.1480
   13MOL0     O 1621  10.849   1.600   1.618  0.1241 -0.1693 -0.1334
   13MOL0     C 1622  10.912   1.504   1.567 -0.0168 -0.4441  0.2576
   13MOL0     O 1623  10.861   1.385   1.549  0.6855  0.2524 -0.3827
   13MOL0     C 1624  10.737   1.339   1.601  0.0266 -0.7170 -0.3414
   13MOL0     C 1625  10.689   1.215   1.554 -0.6069  0.5275 -0.4579
   13MOL0     C 1626  10.577   1.156   1.614 -0.5398  0.0049 -0.0724
   13MOL0     C 1627  10.499   1.225   1.712  0.2308  0.4150  0.1279
   13MOL0     O 1628  10.391   1.176   1.778 -0.1636  0.5581 -0.8884
   13MOL0     C 1629  10.399   1.036   1.824 -0.2802  0.3239  0.6342
   13MOL0     C 1630  10.290   0.992   1.922  0.6920  0.6707 -0.9803
   13MOL0     C 1631  10.245   1.083   2.042 -0.3468 -0.1322 -0.0557
   13MOL0     C 1632  10.105   1.153   2.018  0.2647 -0.4482 -0.7857
   13MOL0     C 1633  10.075   1.283   2.090  0.8550 -0.3102  0.4381
   13MOL0     C 1634  10.064   1.255   2.246  0.0721  0.2962  0.5737
   13MOL0     C 1635  10.057   1.382   2.320 -0.5994 -0.7630  0.3887
   13MOL0     C 1636  10.021   1.334   2.460  0.3663  0.6081 -0.3221
   13MOL0     N 1637   9.988   1.438   2.549 -0.2153 -0.5013 -0.3736
   13MOL0     C 1638  10.073   1.464   2.653  0.2611  0.2662  0.5799
   13MOL0     C 1639   9.997   1.553   2.713 -0.1886 -0.6137 -1.1631
   13MOL0     C 1640  10.033   1.613   2.848  0.8132 -0.6594 -0.2891
   13MOL0     C 1641   9.966   1.751   2.870 -0.2115  0.3275 -0.0002
   13MOL0     C 1642  10.039   1.854   2.789  0.1148 -0.4029 -0.4833
   13MOL0     C 1643   9.965   1.987   2.802  0.0796 -0.6067 -0.4964
   13MOL0     O 1644   9.849   1.957   2.716 -0.7441  0.0447  0.2242
   13MOL0     C 1645   9.731   2.022   2.743  0.4096  0.2857  0.4605
   13MOL0     C 1646   9.730   2.149   2.803  0.0993 -0.3532  0.6463
   13MOL0     C 1647   9.609   2.213   2.828 -0.8326  0.2739 -0.9069
   13MOL0     C 1648   9.487   2.151   2.782 -0.2252  0.6055 -0.5119
   13MOL0     C 1649   9.358   2.220   2.807  0.3693  0.9672  0.1548
   13MOL0     O 1650   9.254   2.135   2.846  0.2898 -1.1285  0.6438
   13MOL0     C 1651   9.131   2.206   2.857  0.6726  0.0681  0.7260
   13MOL0     C 1652   9.093   2.272   2.970  0.4268  0.1493 -0.2977
   13MOL0     C 1653   8.965   2.332   2.979 -0.1352 -0.0375  0.2975
   13MOL0     C 1654   8.869   2.328   2.873 -0.0299 -0.2438 -0.9901
   13MOL0     O 1655   8.756   2.404   2.853 -0.2600  0.2870 -0.3463
   13MOL0     C 1656   8.696   2.493   2.953  0.1516  0.1276  0.1484
   13MOL0     C 1657   8.607   2.414   3.048  0.8294 -0.6226 -0.8247
   13MOL0     C 1658   8.550   2.485   3.164  1.7729 -0.6541 -0.0764
   13MOL0     C 1659   8.490   2.391   3.271  0.0449  0.7812 -0.0039
   13MOL0     C 1660   8.354   2.331   3.238 -0.1276  0.2557 -0.2625
   13MOL0     C 1661   8.289   2.304   3.365 -0.4580 -0.0069 -0.6891
   13MOL0     C 1662   8.166   2.218   3.343  0.2985 -0.2503 -0.8184
   13MOL0     C 1663   8.063   2.205   3.457  0.1578 -0.0962  0.2005
   13MOL0    Cl 1664   8.127   2.130   3.604  0.1029  0.2315 -0.4687
   13MOL0     C 1665   8.915   2.258   2.757 -0.5202  0.5457 -0.8444
   13MOL0     C 1666   9.038   2.194   2.752 -0.9333 -0.5566  0.1354
   13MOL0     O 1667   9.355   2.342   2.791 -0.3013 -0.5647  0.9881
   13MOL0     C 1668   9.492   2.025   2.731 -0.9302 -0.4123 -1.2112
   13MOL0     C 1669   9.612   1.962   2.707 -0.1299  0.0489 -0.9684
   13MOL0     N 1670   9.883   1.577   2.647 -0.4234  0.8259  0.7405
   13MOL0     N 1671   9.879   1.513   2.542 -0.2347 -0.3398 -0.3608
   13MOL0     C 1672  10.538   1.349   1.753  0.3967 -0.5299  0.3948
   13MOL0     C 1673  10.652   1.407   1.695  0.1673  0.2239 -0.2387
   13MOL0     C 1674  11.059   1.531   1.540 -0.6247 -0.0066 -1.6064
   13MOL0     C 1675  11.125   1.629   1.607  0.3947  0.8866  0.1911
   13MOL0     C 1676  11.261   1.651   1.592  0.7108 -0.0281  0.8039
   13MOL0     C 1677  11.338   1.562   1.515  0.2233 -0.9168 -0.0669
   13MOL0     O 1678  11.475   1.590   1.493  0.4764  0.7712  0.0889
   13MOL0     C 1679  11.550   1.688   1.561 -0.0431  0.2074 -0.2371
   13MOL0     C 1680  11.542   1.833   1.501  0.1054 -0.8804 -0.8864
   13MOL0     C 1681  11.614   1.942   1.582 -0.2440  0.0340  0.4969
   13MOL0     C 1682  11.764   1.953   1.584 -0.7232 -1.0995  0.2670
   13MOL0     C 1683  11.822   2.040   1.473  0.3784  0.8124  0.2420
   13MOL0     C 1684  11.894   2.080   1.381  0.1066 -0.0008  0.3251
   13MOL0     C 1685  11.275   1.467   1.437  0.3719  0.9423  0.3004
   13MOL0     C 1686  11.137   1.441   1.457  0.8501 -0.3401  0.4101
   13MOL0     C 1687  11.076   1.324   1.380 -0.2534 -0.3103 -0.8796
   13MOL0     H 1688  10.747   1.152   1.487 -0.0029 -0.2312  0.7348
   13MOL0     H 1689  10.548   1.052   1.601 -1.2871  0.3083 -0.8932
   13MOL0     H 1690  10.398   0.965   1.740  1.1636 -0.0118  0.8779
   13MOL0     H 1691  10.496   1.034   1.874  0.7769 -0.7621 -1.3295
   13MOL0     H 1692  10.341   0.902   1.958  1.3678  2.5499  3.3692
   13MOL0     H 1693  10.196   0.958   1.878 -0.8166  0.6017  2.0800
   13MOL0     H 1694  10.339   1.138   2.051  0.1410 -1.1694  2.0102
   13MOL0     H 1695  10.246   1.018   2.130 -0.2764  0.7370  0.6028
   13MOL0     H 1696  10.099   1.193   1.916 -0.0819  0.6095 -0.3691
   13MOL0     H 1697  10.018   1.090   2.037 -0.3116  0.3826 -0.5962
   13MOL0     H 1698  10.154   1.353   2.064 -0.4545  1.0654  0.0643
   13MOL0     H 1699   9.983   1.328   2.053  1.7340 -0.7604 -2.5660
   13MOL0     H 1700   9.976   1.195   2.270  1.7735 -2.1225  1.2677
   13MOL0     H 1701  10.151   1.199   2.281 -1.3937 -1.5691  1.4112
   13MOL0     H 1702   9.974   1.436   2.273  0.2710  0.7968  0.5891
   13MOL0     H 1703  10.149   1.440   2.312 -1.0035 -0.4056 -3.6194
   13MOL0     H 1704   9.929   1.278   2.445  0.8041  0.0982 -1.1505
   13MOL0     H 1705  10.086   1.257   2.501 -0.2834  0.8576  1.2550
   13MOL0     H 1706  10.165   1.412   2.679 -2.0707 -3.2116  2.6356
   13MOL0     H 1707   9.993   1.558   2.934 -1.7999 -0.0039 -1.0025
   13MOL0     H 1708  10.140   1.625   2.868  0.3536  0.8488  1.6446
   13MOL0     H 1709   9.859   1.742   2.851 -0.5198  3.3566 -0.2952
   13MOL0     H 1710   9.980   1.762   2.978 -0.1172 -5.2457  0.8408
   13MOL0     H 1711  10.067   1.823   2.688  4.6431 -2.2385  1.0764
   13MOL0     H 1712  10.137   1.869   2.835 -1.5321  1.6457  2.7457
   13MOL0     H 1713  10.019   2.076   2.769  2.7790 -1.0872  2.1672
   13MOL0     H 1714   9.941   1.995   2.909 -0.5199 -0.4715 -0.6340
   13MOL0     H 1715   9.819   2.195   2.844 -0.1234  0.8877 -0.1869
   13MOL0     H 1716   9.600   2.312   2.872  0.5144 -0.7248  1.8824
   13MOL0     H 1717   9.175   2.292   3.039 -0.4784  0.4247  0.7281
   13MOL0     H 1718   8.931   2.363   3.078 -0.1532  1.2758 -0.0936
   13MOL0     H 1719   8.772   2.552   3.006  0.5075  1.8893 -2.1373
   13MOL0     H 1720   8.630   2.574   2.920 -2.4095 -1.7612  0.3945
   13MOL0     H 1721   8.521   2.372   2.996  1.5101 -1.6999 -1.1177
   13MOL0     H 1722   8.663   2.329   3.087 -2.4326 -1.8759  1.5092
   13MOL0     H 1723   8.635   2.527   3.218  1.7791 -0.5380 -0.1778
   13MOL0     H 1724   8.489   2.566   3.123  1.3062 -0.3015  1.2597
   13MOL0     H 1725   8.477   2.448   3.363 -0.4018 -1.8710  1.7087
   13MOL0     H 1726   8.562   2.310   3.289 -0.0999  0.0801 -2.1878
   13MOL0     H 1727   8.372   2.234   3.190 -1.2854 -1.5979  2.7690
   13MOL0     H 1728   8.297   2.397   3.172 -1.2721 -2.3541 -2.0435
   13MOL0     H 1729   8.362   2.261   3.434 -2.1967  1.0301  1.9473
   13MOL0     H 1730   8.279   2.396   3.423  0.6085 -0.1844 -0.1903
   13MOL0     H 1731   8.195   2.116   3.317  1.9116 -0.3466  1.1107
   13MOL0     H 1732   8.112   2.260   3.258 -0.2156 -1.7460 -1.2517
   13MOL0     H 1733   8.019   2.299   3.492 -1.1995 -0.8090  0.5211
   13MOL0     H 1734   7.977   2.138   3.441 -1.5653  1.1347  3.3358
   13MOL0     H 1735   8.849   2.255   2.670  0.0430 -3.2847 -1.2948
   13MOL0     H 1736   9.071   2.124   2.676  3.2423  0.8889  0.3977
   13MOL0     H 1737   9.398   1.971   2.722 -0.0584 -1.9156 -1.6475
   13MOL0     H 1738   9.600   1.864   2.664 -0.8549 -0.4386  0.2812
   13MOL0     H 1739  10.477   1.402   1.825 -2.7809 -0.6052 -2.0380
   13MOL0     H 1740  10.682   1.504   1.733  0.6701  1.1273 -2.7943
   13MOL0     H 1741  11.074   1.701   1.671  1.4950  3.1266 -1.3354
   13MOL0     H 1742  11.295   1.739   1.645 -0.8104  1.2108 -0.1951
   13MOL0     H 1743  11.657   1.669   1.547  0.0166  0.0188  0.4272
   13MOL0     H 1744  11.528   1.682   1.668  0.5493  1.7021 -0.0138
   13MOL0     H 1745  11.436   1.851   1.481 -0.7422 -2.4239  1.7681
   13MOL0     H 1746  11.586   1.833   1.401 -0.4961 -0.9488 -1.1563
   13MOL0     H 1747  11.567   1.929   1.679 -1.6617 -4.1655 -0.5260
   13MOL0     H 1748  11.578   2.033   1.534  2.7431  0.4024 -1.3113
   13MOL0     H 1749  11.807   2.000   1.673 -0.0359  1.4922 -1.2999
   13MOL0     H 1750  11.808   1.854   1.578 -0.5569 -0.9901 -0.3936
   13MOL0     H 1751  11.959   2.121   1.307 -1.2087 -0.2220 -0.9943
   13MOL0     H 1752  11.330   1.413   1.361 -0.9648 -1.4587  0.9210
   13MOL0     H 1753  11.138   1.320   1.289 -0.8101  0.1467 -1.2876
   13MOL0     H 1754  11.080   1.238   1.447 -2.0175  2.5967  3.3334
   13MOL0     H 1755  10.974   1.342   1.343 -0.5433  0.1564  0.1251
   14MOL0     O 1756   3.204   0.477   1.222 -0.7264  1.1848 -0.5031
   14MOL0     C 1757   3.302   0.404   1.240 -0.5876 -0.3171  0.4168
   14MOL0     O 1758   3.432   0.426   1.197  0.5711  0.1934 -0.1384
   14MOL0     C 1759   3.463   0.540   1.132 -0.6828 -0.1816 -0.0514
   14MOL0     C 1760   3.531   0.522   1.014 -0.0859 -1.0029 -0.6613
   14MOL0     C 1761   3.567   0.631   0.934  0.0626  0.7220 -0.2541
   14MOL0     C 1762   3.535   0.763   0.973 -0.2420  0.7776  0.4344
   14MOL0     O 1763   3.548   0.875   0.906  0.1966 -0.5490 -0.2338
   14MOL0     C 1764   3.647   0.884   0.799  0.2752 -0.0574 -0.6742
   14MOL0     C 1765   3.635   1.034   0.751  0.1669  0.6365  0.6184
   14MOL0     C 1766   3.682   1.144   0.849  0.5812 -0.2487 -0.0289
   14MOL0     C 1767   3.593   1.182   0.970  0.6317  0.3751  0.5401
   14MOL0     C 1768   3.494   1.284   0.918 -0.0118  0.0969 -0.0909
   14MOL0     C 1769   3.376   1.302   1.013 -0.6854 -0.4220  0.4357
   14MOL0     C 1770   3.265   1.407   0.970 -0.1331 -0.4382 -1.3176
   14MOL0     C 1771   3.325   1.553   0.981  0.0845  0.1456 -0.0151
   14MOL0     N 1772   3.230   1.658   0.944  0.3110  0.0318  0.0857
   14MOL0     C 1773   3.166   1.664   0.824 -0.4740  0.7553 -1.0270
   14MOL0     C 1774   3.079   1.766   0.829  1.0323 -1.2804 -0.2599
   14MOL0     C 1775   2.969   1.810   0.738  0.2907 -0.4090  1.0568
   14MOL0     C 1776   2.945   1.733   0.610 -0.9009  0.8997 -0.0619
   14MOL0     C 1777   3.034   1.783   0.498 -0.3151 -0.3672 -0.1443
   14MOL0     C 1778   3.018   1.702   0.370  0.2953  0.8198 -0.0938
   14MOL0     O 1779   2.923   1.751   0.277 -0.2447 -0.5277 -0.4478
   14MOL0     C 1780   2.930   1.710   0.152  0.0494  0.0448 -0.1704
   14MOL0     C 1781   2.995   1.593   0.111 -0.4419 -1.1637  0.2200
   14MOL0     C 1782   2.996   1.561  -0.024  0.2219  1.2582 -0.0766
   14MOL0     C 1783   2.924   1.632  -0.125  0.5818 -0.3363  0.7471
   14MOL0     C 1784   2.908   1.592  -0.265 -0.4593 -0.4105  0.1535
   14MOL0     O 1785   2.828   1.653  -0.349  0.1294  0.1923  0.0331
   14MOL0     C 1786   2.813   1.595  -0.475 -0.0283  0.5599 -0.3257
   14MOL0     C 1787   2.915   1.614  -0.578 -0.0452 -0.0901 -0.3834
   14MOL0     C 1788   2.909   1.542  -0.700 -0.4970  0.8124 -0.9273
   14MOL0     C 1789   2.800   1.464  -0.729 -0.7575  0.7461  1.0659
   14MOL0     O 1790   2.795   1.404  -0.855  0.2211 -0.7529  0.4693
   14MOL0     C 1791   2.681   1.320  -0.891 -0.3854  0.0967 -0.1319
   14MOL0     C 1792   2.651   1.306  -1.041  0.3611 -0.0363 -0.1011
   14MOL0     C 1793   2.546   1.198  -1.056  0.2357  0.1810 -0.2993
   14MOL0     C 1794   2.532   1.160  -1.202 -0.0564 -0.3336  0.3959
   14MOL0     C 1795   2.451   1.031  -1.229 -0.4667 -0.3496  0.2084
   14MOL0     C 1796   2.323   1.012  -1.147 -0.6020  0.4387  0.4438
   14MOL0     C 1797   2.258   0.870  -1.171  0.4277 -0.3336  0.0714
   14MOL0     C 1798   2.153   0.851  -1.070  0.3542 -0.4849  1.2998
   14MOL0    Cl 1799   2.198   0.862  -0.899  0.3978 -0.1272  0.6668
   14MOL0     C 1800   2.695   1.454  -0.630  0.2613  0.7001  0.7587
   14MOL0     C 1801   2.709   1.504  -0.503 -0.4827  0.6582  0.6836
   14MOL0     O 1802   2.972   1.487  -0.289  0.4854  0.5206  0.4403
   14MOL0     C 1803   2.849   1.746  -0.083  0.6378 -0.3421  0.2877
   14MOL0     C 1804   2.849   1.785   0.059  1.3281 -0.6139  0.3837
   14MOL0     N 1805   3.090   1.832   0.950 -1.1808  0.4712  0.2391
   14MOL0     N 1806   3.181   1.763   1.022  0.2871  0.4166 -0.5075
   14MOL0     C 1807   3.464   0.775   1.095 -0.3107 -0.4817  0.2441
   14MOL0     C 1808   3.433   0.667   1.176 -1.2152  0.0848  0.0319
   14MOL0     C 1809   3.268   0.263   1.280  0.8130  1.0567 -1.4173
   14MOL0     C 1810   3.131   0.214   1.262  0.5358 -0.0143 -0.2703
   14MOL0     C 1811   3.090   0.087   1.310 -0.5642 -0.5090  0.0318
   14MOL0     C 1812   3.166   0.011   1.393 -0.1091  0.8507  0.1817
   14MOL0     O 1813   3.110  -0.106   1.451 -0.0557 -0.4802  0.2925
   14MOL0     C 1814   3.160  -0.182   1.566  0.6906  0.0821  1.1214
   14MOL0     C 1815   3.117  -0.106   1.686  0.0435 -0.1820 -0.3509
   14MOL0     C 1816   3.140  -0.190   1.812  0.2879  0.3301 -0.2385
   14MOL0     C 1817   3.072  -0.130   1.936 -0.1955 -0.4782 -0.4260
   14MOL0     C 1818   3.032  -0.224   2.036 -0.9158 -0.4987 -0.1159
   14MOL0     C 1819   3.007  -0.297   2.126 -1.1190  0.2340  0.7736
   14MOL0     C 1820   3.289   0.065   1.430 -0.0973  0.5974 -0.5130
   14MOL0     C 1821   3.340   0.189   1.382  1.2155 -0.6590  0.4392
   14MOL0     C 1822   3.476   0.237   1.445 -0.3740  0.5739  0.1608
   14MOL0     H 1823   3.559   0.424   0.979  4.6769 -0.1598  0.2115
   14MOL0     H 1824   3.618   0.615   0.839  1.3307 -2.8358  0.8853
   14MOL0     H 1825   3.748   0.851   0.824  0.1443  0.5573  0.7389
   14MOL0     H 1826   3.628   0.820   0.713  0.9749 -1.1030 -0.0674
   14MOL0     H 1827   3.532   1.059   0.722 -0.6845  2.3452  4.4573
   14MOL0     H 1828   3.698   1.041   0.663 -1.7335  1.6508 -0.7403
   14MOL0     H 1829   3.707   1.237   0.798  1.5147 -0.7109 -0.4421
   14MOL0     H 1830   3.777   1.109   0.891  0.0218 -0.0120  1.4915
   14MOL0     H 1831   3.542   1.104   1.026  2.2039 -0.0677  1.4295
   14MOL0     H 1832   3.648   1.230   1.052  0.1381  0.6867  0.6943
   14MOL0     H 1833   3.552   1.375   0.901 -0.7242  0.7675  0.9387
   14MOL0     H 1834   3.456   1.244   0.824  2.3793 -0.0714 -1.0608
   14MOL0     H 1835   3.333   1.202   1.014 -0.4080 -0.5496  1.8062
   14MOL0     H 1836   3.420   1.318   1.112 -1.6350  2.9080  0.4142
   14MOL0     H 1837   3.164   1.388   1.006 -0.2401  0.0946 -1.3230
   14MOL0     H 1838   3.261   1.401   0.860  0.9177  0.8787 -1.4708
   14MOL0     H 1839   3.345   1.582   1.084 -0.8164  2.1896 -0.3696
   14MOL0     H 1840   3.413   1.561   0.917  0.0137  0.9393 -0.0154
   14MOL0     H 1841   3.193   1.599   0.742  0.2544  2.2292 -2.0139
   14MOL0     H 1842   2.882   1.791   0.802 -0.3743  0.5779  0.4612
   14MOL0     H 1843   2.967   1.918   0.725  0.5282 -0.2589  2.2321
   14MOL0     H 1844   2.959   1.626   0.629  1.5562  0.7118 -2.3446
   14MOL0     H 1845   2.843   1.734   0.569 -1.2852 -2.2609  0.5404
   14MOL0     H 1846   3.137   1.809   0.526 -1.6925  3.0855  2.4954
   14MOL0     H 1847   2.983   1.875   0.469 -0.9977 -0.6378  0.1768
   14MOL0     H 1848   2.999   1.601   0.409  0.8253  0.9538  0.5355
   14MOL0     H 1849   3.109   1.692   0.310 -0.8203 -2.0523 -1.5283
   14MOL0     H 1850   3.056   1.539   0.183  0.3561 -3.0223 -1.7217
   14MOL0     H 1851   3.063   1.482  -0.056  0.8642 -0.1650  4.2352
   14MOL0     H 1852   3.008   1.668  -0.569 -0.1861  0.2038 -0.6685
   14MOL0     H 1853   2.988   1.524  -0.772 -1.8573  3.0297 -3.1865
   14MOL0     H 1854   2.675   1.221  -0.846 -1.5437 -0.0351 -0.5538
   14MOL0     H 1855   2.587   1.363  -0.856 -0.5010  0.7830 -1.2081
   14MOL0     H 1856   2.601   1.396  -1.079 -1.2696 -0.2603  1.3896
   14MOL0     H 1857   2.735   1.273  -1.103 -0.6593 -0.4626 -1.3070
   14MOL0     H 1858   2.572   1.103  -1.008  0.7672  0.6647  0.3982
   14MOL0     H 1859   2.451   1.227  -1.010  0.8346 -2.0688  2.6894
   14MOL0     H 1860   2.633   1.143  -1.240  0.2241  1.1543  0.4198
   14MOL0     H 1861   2.480   1.241  -1.255 -0.8247  0.0778  1.7091
   14MOL0     H 1862   2.523   0.954  -1.200  3.5536  2.3084 -1.9343
   14MOL0     H 1863   2.434   1.027  -1.337 -0.0119  1.4346  0.0402
   14MOL0     H 1864   2.356   1.016  -1.043  1.4031  0.8473 -0.1651
   14MOL0     H 1865   2.252   1.091  -1.173  0.2112  0.8729 -0.5486
   14MOL0     H 1866   2.330   0.792  -1.146  0.1573 -0.7043 -0.2855
   14MOL0     H 1867   2.223   0.850  -1.273 -1.3376 -0.2401  0.6241
   14MOL0     H 1868   2.069   0.916  -1.098 -2.6622 -4.4809  0.0782
   14MOL0     H 1869   2.113   0.750  -1.084  1.0969 -0.8650  1.8151
   14MOL0     H 1870   2.601   1.408  -0.657  0.1473  0.6217  1.2754
   14MOL0     H 1871   2.631   1.493  -0.428 -0.3288 -0.6654  0.6727
   14MOL0     H 1872   2.795   1.809  -0.154 -0.1258 -0.7505  0.4878
   14MOL0     H 1873   2.795   1.874   0.089  0.2086 -0.5317 -1.7036
   14MOL0     H 1874   3.419   0.868   1.126 -0.6455 -1.1319  1.7739
   14MOL0     H 1875   3.373   0.663   1.266 -1.0892  0.6926  0.1527
   14MOL0     H 1876   3.074   0.274   1.193  0.9440  1.8101  0.9007
   14MOL0     H 1877   2.989   0.052   1.289 -0.6535 -0.0240 -0.3669
   14MOL0     H 1878   3.267  -0.207   1.569  0.5953 -0.4887  0.0167
   14MOL0     H 1879   3.105  -0.275   1.561  0.7792  0.0833 -0.1395
   14MOL0     H 1880   3.017  -0.063   1.679  0.4489  0.9141  0.4226
   14MOL0     H 1881   3.184  -0.020   1.687 -1.0091  0.8035  3.4061
   14MOL0     H 1882   3.247  -0.197   1.829  0.3194  0.6177 -0.3283
   14MOL0     H 1883   3.089  -0.287   1.809 -0.9884  0.8700  1.7801
   14MOL0     H 1884   3.146  -0.073   1.992 -0.5354  0.3757 -0.8257
   14MOL0     H 1885   2.991  -0.060   1.914 -1.3352 -0.4684  3.1724
   14MOL0     H 1886   2.989  -0.383   2.186  1.8790 -3.2308 -2.7625
   14MOL0     H 1887   3.344   0.007   1.503 -0.4150  0.8224 -0.0888
   14MOL0     H 1888   3.475   0.346   1.440 -0.6352  0.5665  0.0182
   14MOL0     H 1889   3.493   0.204   1.548 -0.2667 -2.4932 -0.7506
   14MOL0     H 1890   3.548   0.190   1.378 -0.3458 -1.4236  1.4867
   15MOL0     O 1891   9.582   4.377   3.445 -0.5938 -0.6846  0.0370
   15MOL0     C 1892   9.470   4.353   3.419 -0.2108  0.9222  0.3272
   15MOL0     O 1893   9.412   4.226   3.432 -0.1967 -0.2599  0.0574
   15MOL0     C 1894   9.492   4.115   3.432 -1.0467 -0.1287  0.0104
   15MOL0     C 1895   9.439   3.998   3.487 -0.3010  0.5031  0.6728
   15MOL0     C 1896   9.514   3.880   3.502  0.8406 -0.1387  1.0823
   15MOL0     C 1897   9.637   3.873   3.439 -0.7143  0.1399 -0.2923
   15MOL0     O 1898   9.707   3.759   3.438 -0.6099 -0.1652  0.2975
   15MOL0     C 1899   9.666   3.631   3.491  0.7207  0.3228 -0.1199
   15MOL0     C 1900   9.769   3.522   3.460 -1.3296  0.3128  0.0207
   15MOL0     C 1901   9.790   3.494   3.307  0.0211  0.5375 -0.2799
   15MOL0     C 1902   9.911   3.404   3.281  0.6381  0.4285 -0.7710
   15MOL0     C 1903   9.850   3.267   3.302  0.3842 -0.2790  0.0355
   15MOL0     C 1904   9.965   3.157   3.297  0.0358 -0.0387  0.6231
   15MOL0     C 1905   9.910   3.031   3.364 -1.0514  0.1886 -0.3685
   15MOL0     C 1906  10.043   2.952   3.411  1.4930  0.4636 -0.8462
   15MOL0     N 1907  10.011   2.818   3.463 -0.9792 -0.5993  0.5812
   15MOL0     C 1908  10.009   2.703   3.391  0.1752  0.4440 -0.8297
   15MOL0     C 1909   9.957   2.604   3.478  0.7696 -0.0252 -0.1508
   15MOL0     C 1910   9.927   2.462   3.438  0.1547 -1.0859  0.7357
   15MOL0     C 1911   9.780   2.425   3.438 -0.2171 -0.0669  0.1985
   15MOL0     C 1912   9.735   2.365   3.573  1.1282  1.1063 -0.2188
   15MOL0     C 1913   9.584   2.332   3.560  0.5204  0.9623 -0.7890
   15MOL0     O 1914   9.570   2.225   3.657  0.6689  0.3574 -0.8520
   15MOL0     C 1915   9.488   2.127   3.618  0.2019 -0.0766 -0.0995
   15MOL0     C 1916   9.352   2.120   3.673 -0.7373 -0.4871  0.8887
   15MOL0     C 1917   9.271   2.028   3.623  0.1209  1.0434 -0.8853
   15MOL0     C 1918   9.319   1.942   3.524 -0.1117  0.6498  0.2873
   15MOL0     C 1919   9.221   1.843   3.466 -0.4515 -0.5866 -0.5592
   15MOL0     O 1920   9.086   1.847   3.511 -0.5037  0.0635 -0.0472
   15MOL0     C 1921   8.995   1.765   3.449  0.0200  0.3387 -0.2695
   15MOL0     C 1922   8.910   1.685   3.530  0.2370  0.5932 -0.2537
   15MOL0     C 1923   8.813   1.592   3.478  0.5589 -0.0085  0.5708
   15MOL0     C 1924   8.808   1.579   3.337  0.1632 -0.0717  0.9785
   15MOL0     O 1925   8.724   1.489   3.274 -0.2614  0.3261 -1.3942
   15MOL0     C 1926   8.763   1.346   3.286 -1.4538  0.4573 -0.8164
   15MOL0     C 1927   8.839   1.310   3.159  0.3893  0.6485  0.1712
   15MOL0     C 1928   8.993   1.327   3.163 -0.2669  0.0033 -0.1209
   15MOL0     C 1929   9.057   1.289   3.032  0.3732 -0.0377  0.6024
   15MOL0     C 1930   9.039   1.143   2.982 -0.5342  0.1380 -0.0401
   15MOL0     C 1931   9.097   1.120   2.842 -0.1170 -0.3320  0.1987
   15MOL0     C 1932   9.073   0.979   2.784  0.6602 -1.0207 -0.6197
   15MOL0     C 1933   9.130   0.945   2.647 -0.4996 -0.4123 -0.3187
   15MOL0    Cl 1934   9.001   0.958   2.520  0.4809  0.3365  0.1323
   15MOL0     C 1935   8.881   1.668   3.255 -0.0781 -1.1717  0.7919
   15MOL0     C 1936   8.967   1.762   3.310  0.1497 -0.4868  0.4413
   15MOL0     O 1937   9.265   1.759   3.385 -0.0131 -0.1712  0.7098
   15MOL0     C 1938   9.451   1.940   3.473  0.0029 -0.6751 -0.4967
   15MOL0     C 1939   9.531   2.037   3.521  0.0751 -0.4529  0.8783
   15MOL0     N 1940   9.964   2.663   3.601  0.4480  0.1819 -0.4943
   15MOL0     N 1941   9.999   2.793   3.593  0.5686 -0.7703 -0.1692
   15MOL0     C 1942   9.694   3.988   3.385  0.1109 -0.3467  0.2704
   15MOL0     C 1943   9.625   4.111   3.391  0.0153  0.9285  0.1279
   15MOL0     C 1944   9.381   4.462   3.381 -0.2681  0.0015 -0.5443
   15MOL0     C 1945   9.246   4.464   3.419 -0.5817  0.1051 -0.7998
   15MOL0     C 1946   9.165   4.579   3.401 -0.0462  0.2550  0.0037
   15MOL0     C 1947   9.207   4.691   3.329 -0.0945 -0.1877 -0.7309
   15MOL0     O 1948   9.127   4.791   3.282 -0.3323 -0.2060  0.1668
   15MOL0     C 1949   9.018   4.836   3.365  0.4501 -0.5353 -0.1320
   15MOL0     C 1950   8.929   4.932   3.288  0.5203 -0.4752  0.2938
   15MOL0     C 1951   8.808   4.976   3.375  0.6368  0.0213 -0.1068
   15MOL0     C 1952   8.840   5.091   3.464 -0.8223 -0.6248  0.1690
   15MOL0     C 1953   8.853   5.206   3.380  0.2985  0.3170  0.4430
   15MOL0     C 1954   8.856   5.320   3.341 -0.4387  0.5931 -0.3482
   15MOL0     C 1955   9.338   4.685   3.281 -0.1683 -0.1407  1.0844
   15MOL0     C 1956   9.427   4.576   3.307  0.7279 -0.7150 -0.6440
   15MOL0     C 1957   9.571   4.576   3.250  0.0830 -0.1272 -0.4828
   15MOL0     H 1958   9.340   4.012   3.532 -0.2112  3.9332  0.1312
   15MOL0     H 1959   9.464   3.797   3.551  0.8642  0.2080  1.7006
   15MOL0     H 1960   9.653   3.638   3.600 -7.8953 -2.8533 -0.1540
   15MOL0     H 1961   9.568   3.601   3.454 -0.9783  3.4572  1.3750
   15MOL0     H 1962   9.733   3.436   3.517 -1.8205  1.3202  1.2654
   15MOL0     H 1963   9.865   3.561   3.496  0.6038 -2.5346 -1.6580
   15MOL0     H 1964   9.809   3.590   3.257  0.6259  2.1923  2.8602
   15MOL0     H 1965   9.695   3.459   3.266 -0.8483  2.2763  0.1248
   15MOL0     H 1966   9.940   3.401   3.176 -1.1997  1.8372 -1.3704
   15MOL0     H 1967   9.986   3.428   3.357 -0.7587  0.9041  0.5121
   15MOL0     H 1968   9.803   3.253   3.400  0.5585 -0.8060  0.0488
   15MOL0     H 1969   9.773   3.247   3.227  0.1935 -0.0531  0.1681
   15MOL0     H 1970   9.993   3.131   3.195  2.2156  0.5229  1.0261
   15MOL0     H 1971  10.054   3.201   3.342  2.0675  0.6212 -3.5462
   15MOL0     H 1972   9.851   2.961   3.304 -1.0764 -0.4125  0.3313
   15MOL0     H 1973   9.843   3.055   3.447  0.7026 -0.5668  1.3732
   15MOL0     H 1974  10.108   2.942   3.323  1.8389  3.0542 -0.9745
   15MOL0     H 1975  10.082   3.026   3.483 -1.1163  0.4744  0.6911
   15MOL0     H 1976  10.033   2.699   3.285 -0.3111  0.1037 -0.9331
   15MOL0     H 1977   9.972   2.459   3.339  0.1616  2.8176  0.4848
   15MOL0     H 1978   9.991   2.396   3.498  0.4590 -1.3075  0.1727
   15MOL0     H 1979   9.718   2.516   3.433  1.5450  1.4748  3.4552
   15MOL0     H 1980   9.767   2.349   3.361  0.2768 -0.1440  0.1922
   15MOL0     H 1981   9.741   2.431   3.660 -0.4955 -1.1760  1.7416
   15MOL0     H 1982   9.787   2.273   3.601 -3.0688 -1.1928  0.9732
   15MOL0     H 1983   9.568   2.293   3.459  2.6805  2.3278 -1.7383
   15MOL0     H 1984   9.521   2.418   3.582  1.1030  1.6022 -1.5700
   15MOL0     H 1985   9.313   2.185   3.751 -3.1333  2.6865 -2.6196
   15MOL0     H 1986   9.173   2.018   3.669  1.5816  1.6090  2.7177
   15MOL0     H 1987   8.919   1.708   3.635 -0.9449  2.9879 -0.6020
   15MOL0     H 1988   8.731   1.554   3.537  0.4109 -1.5478 -0.5652
   15MOL0     H 1989   8.821   1.324   3.376 -1.9964 -2.1100 -1.0142
   15MOL0     H 1990   8.668   1.292   3.294 -0.6485 -0.9788 -0.6097
   15MOL0     H 1991   8.808   1.206   3.142  0.1672  0.5855  0.9509
   15MOL0     H 1992   8.798   1.379   3.084 -0.9817 -0.3627 -0.0426
   15MOL0     H 1993   9.025   1.427   3.193  0.7409  0.9444 -3.8140
   15MOL0     H 1994   9.025   1.250   3.235 -1.4765  1.4301  2.0474
   15MOL0     H 1995   9.165   1.298   3.043  0.5816 -0.4142 -0.9039
   15MOL0     H 1996   9.030   1.359   2.953  4.6819 -0.7649 -1.8321
   15MOL0     H 1997   8.935   1.109   2.979  0.3269 -2.9315  1.3353
   15MOL0     H 1998   9.096   1.073   3.042 -0.1878  1.2335  0.9526
   15MOL0     H 1999   9.056   1.186   2.766  0.7173 -1.7590 -1.5510
   15MOL0     H 2000   9.204   1.141   2.849 -0.3219  1.8507 -2.0692
   15MOL0     H 2001   8.966   0.962   2.775  0.5929 -0.4749 -0.9336
   15MOL0     H 2002   9.114   0.912   2.860 -0.4576  1.3410  2.2605
   15MOL0     H 2003   9.221   1.004   2.632 -0.6190  0.1180  0.8617
   15MOL0     H 2004   9.151   0.838   2.654 -2.3771 -0.7973  0.0561
   15MOL0     H 2005   8.876   1.661   3.147 -3.7996 -4.2303  0.9385
   15MOL0     H 2006   9.017   1.834   3.247 -3.1939  0.9982 -0.7488
   15MOL0     H 2007   9.484   1.870   3.397 -0.5361  0.9734 -2.3641
   15MOL0     H 2008   9.630   2.045   3.477 -1.0809 -0.8528 -1.9688
   15MOL0     H 2009   9.782   3.981   3.323  0.1978  3.9905 -0.3740
   15MOL0     H 2010   9.667   4.195   3.336 -0.7055  1.7707  0.8421
   15MOL0     H 2011   9.206   4.385   3.481  0.3431  0.2646  0.0171
   15MOL0     H 2012   9.076   4.592   3.461  1.3869 -0.2834  2.3486
   15MOL0     H 2013   9.053   4.894   3.452 -1.0017  2.1799 -1.2168
   15MOL0     H 2014   8.959   4.756   3.409 -0.7042  1.6313  2.6169
   15MOL0     H 2015   8.883   4.876   3.206 -0.8137  1.5255 -0.4206
   15MOL0     H 2016   8.982   5.016   3.241  1.3041 -1.3484 -0.4056
   15MOL0     H 2017   8.781   4.893   3.441  3.0732 -2.3111 -1.8344
   15MOL0     H 2018   8.725   4.985   3.304  0.0456 -0.2493  0.5361
   15MOL0     H 2019   8.751   5.094   3.527 -1.6958  1.6226 -1.0646
   15MOL0     H 2020   8.928   5.079   3.529  0.0525  1.3737 -0.5585
   15MOL0     H 2021   8.866   5.416   3.295  3.6188  0.0819 -0.9214
   15MOL0     H 2022   9.357   4.773   3.221  0.8752 -0.5229  0.8470
   15MOL0     H 2023   9.608   4.476   3.226 -0.0351 -0.3447  0.2150
   15MOL0     H 2024   9.580   4.636   3.159  0.3692 -1.0078 -1.0402
   15MOL0     H 2025   9.629   4.620   3.331 -0.6549  1.1102 -0.5992
   16MOL0     O 2026   1.818   0.561   1.255  0.7368  0.1267  0.4491
   16MOL0     C 2027   1.814   0.615   1.363  0.1853 -1.0074  0.3503
   16MOL0     O 2028   1.734   0.731   1.398 -0.1429 -0.3199  0.0001
   16MOL0     C 2029   1.662   0.804   1.309  0.3165 -0.8290 -0.4779
   16MOL0     C 2030   1.562   0.882   1.363 -0.3366  0.3456  1.0247
   16MOL0     C 2031   1.472   0.946   1.286  2.0880 -0.3701 -0.7003
   16MOL0     C 2032   1.480   0.935   1.148 -0.6057  0.0151 -0.0768
   16MOL0     O 2033   1.409   1.015   1.062 -1.1097  0.7816 -0.1540
   16MOL0     C 2034   1.316   1.105   1.117 -0.1297 -0.3528  1.3899
   16MOL0     C 2035   1.232   1.169   0.990 -0.8674  0.5140 -0.7240
   16MOL0     C 2036   1.329   1.268   0.914 -0.5206  0.4466 -0.2703
   16MOL0     C 2037   1.267   1.312   0.786  0.7678 -1.3489 -0.6179
   16MOL0     C 2038   1.164   1.432   0.786 -0.3729  0.6181  0.2885
   16MOL0     C 2039   1.221   1.574   0.830  0.7585  0.3994 -0.1932
   16MOL0     C 2040   1.340   1.627   0.751  0.5515  0.0890 -1.1182
   16MOL0     C 2041   1.338   1.641   0.598 -0.1114  0.1179  0.0875
   16MOL0     N 2042   1.243   1.736   0.551 -1.2041  0.2250  0.8917
   16MOL0     C 2043   1.276   1.850   0.479 -0.2678 -0.3864  0.0138
   16MOL0     C 2044   1.153   1.897   0.443 -0.3711  0.4672 -0.3800
   16MOL0     C 2045   1.125   2.020   0.371 -0.0754 -0.5253  0.1752
   16MOL0     C 2046   1.144   2.132   0.469  0.2746  0.1059  0.2079
   16MOL0     C 2047   1.099   2.266   0.419  0.4468 -1.1913  0.9708
   16MOL0     C 2048   1.165   2.320   0.289  0.2187  0.2785 -0.2027
   16MOL0     O 2049   1.304   2.291   0.284  0.1267  0.5652  0.6304
   16MOL0     C 2050   1.374   2.313   0.165  0.6554  0.6507  0.4161
   16MOL0     C 2051   1.457   2.214   0.118 -0.1390 -0.2706 -0.8112
   16MOL0     C 2052   1.537   2.240   0.006  0.4174  0.8163  0.9137
   16MOL0     C 2053   1.516   2.354  -0.073 -0.3353  0.7762 -0.1418
   16MOL0     C 2054   1.615   2.390  -0.185 -0.6171  0.3310 -0.4709
   16MOL0     O 2055   1.722   2.311  -0.195 -1.4504  0.2421  0.6180
   16MOL0     C 2056   1.823   2.317  -0.293 -1.0287  0.0495 -0.1498
   16MOL0     C 2057   1.921   2.217  -0.279  0.1728 -0.9476  0.6366
   16MOL0     C 2058   2.043   2.219  -0.358 -0.3105 -0.1502 -0.6311
   16MOL0     C 2059   2.071   2.317  -0.452  0.6230  0.0562  0.5850
   16MOL0     O 2060   2.187   2.332  -0.517  0.6829  0.2948  0.0366
   16MOL0     C 2061   2.279   2.219  -0.529 -0.2264 -0.6300  1.1312
   16MOL0     C 2062   2.412   2.277  -0.592  0.6192  0.4251  0.0993
   16MOL0     C 2063   2.494   2.396  -0.519  0.1442 -0.7649 -0.6083
   16MOL0     C 2064   2.608   2.454  -0.608  0.5377  0.6967  1.2193
   16MOL0     C 2065   2.671   2.581  -0.548 -0.0571 -0.0537  0.4028
   16MOL0     C 2066   2.788   2.636  -0.630  0.5470  0.8649  0.0977
   16MOL0     C 2067   2.867   2.728  -0.532 -0.2983  0.6089 -0.6160
   16MOL0     C 2068   3.014   2.725  -0.552  0.4198  0.1127 -0.7492
   16MOL0    Cl 2069   3.085   2.576  -0.482  0.2776 -0.6601  0.0778
   16MOL0     C 2070   1.969   2.412  -0.464 -0.2409  0.8601 -0.1660
   16MOL0     C 2071   1.842   2.408  -0.397  0.1279 -0.3227  0.0525
   16MOL0     O 2072   1.589   2.483  -0.257 -0.6551  1.3480  0.3575
   16MOL0     C 2073   1.419   2.449  -0.028  0.1349  0.0535 -0.2046
   16MOL0     C 2074   1.340   2.419   0.083  0.1563 -0.5551  0.8107
   16MOL0     N 2075   1.056   1.832   0.509  0.0990 -0.0511  0.1036
   16MOL0     N 2076   1.108   1.721   0.560 -0.0654 -1.0941 -0.1466
   16MOL0     C 2077   1.584   0.869   1.087 -0.5244  0.5878 -0.1773
   16MOL0     C 2078   1.674   0.803   1.175 -0.2491  0.3656  0.5312
   16MOL0     C 2079   1.901   0.572   1.469  0.0647  0.0041  0.8562
   16MOL0     C 2080   1.904   0.657   1.581 -0.0751  0.6955 -0.4085
   16MOL0     C 2081   1.974   0.624   1.693 -0.6761  0.0357  0.2270
   16MOL0     C 2082   2.056   0.514   1.697  0.7480 -0.3649  0.4281
   16MOL0     O 2083   2.124   0.478   1.807  0.0996  0.0152  0.3041
   16MOL0     C 2084   2.038   0.434   1.921 -0.2683 -0.3608  0.9555
   16MOL0     C 2085   2.120   0.369   2.031  0.0137 -0.9243  0.8590
   16MOL0     C 2086   2.226   0.473   2.082  0.3981  0.3367  0.0564
   16MOL0     C 2087   2.330   0.425   2.181 -1.4792 -0.5825 -1.1642
   16MOL0     C 2088   2.273   0.352   2.291 -0.4794 -0.5543 -0.5555
   16MOL0     C 2089   2.223   0.312   2.397 -0.0112 -0.3974  0.0748
   16MOL0     C 2090   2.057   0.425   1.588 -0.0492  0.0278 -0.0837
   16MOL0     C 2091   1.975   0.449   1.466  0.8706  0.3860  0.3034
   16MOL0     C 2092   1.972   0.336   1.366 -0.0404  0.2942  0.0402
   16MOL0     H 2093   1.555   0.898   1.470  0.3372  2.9198  0.7593
   16MOL0     H 2094   1.384   0.989   1.333  2.3645 -2.0973  1.5719
   16MOL0     H 2095   1.245   1.043   1.173 -1.4883 -1.3008 -1.1960
   16MOL0     H 2096   1.374   1.177   1.176 -0.1689 -0.7555  1.9244
   16MOL0     H 2097   1.134   1.216   1.001 -0.6800  1.0263 -1.2395
   16MOL0     H 2098   1.210   1.077   0.934  0.5078 -0.3197  0.0438
   16MOL0     H 2099   1.424   1.217   0.900 -0.8964 -0.1531 -0.6735
   16MOL0     H 2100   1.341   1.366   0.962  0.1769  1.2758 -2.0705
   16MOL0     H 2101   1.353   1.336   0.722  0.7299  2.7138  0.5782
   16MOL0     H 2102   1.205   1.232   0.743  1.3954 -2.4570  0.4811
   16MOL0     H 2103   1.120   1.441   0.686 -0.2458  2.5650  0.3749
   16MOL0     H 2104   1.082   1.413   0.856  0.6536  0.5301  1.5135
   16MOL0     H 2105   1.141   1.647   0.816  1.7991  1.5375 -0.3774
   16MOL0     H 2106   1.236   1.563   0.938  1.1356  0.3113 -0.2523
   16MOL0     H 2107   1.427   1.566   0.778  0.0464 -0.9854 -1.8079
   16MOL0     H 2108   1.361   1.721   0.802 -0.4018 -1.1434  1.7891
   16MOL0     H 2109   1.438   1.665   0.559 -1.9911  0.6106 -5.2095
   16MOL0     H 2110   1.295   1.545   0.567 -0.1694  0.3506 -0.5769
   16MOL0     H 2111   1.374   1.891   0.456  0.0960 -0.7372  0.9367
   16MOL0     H 2112   1.186   2.041   0.282 -2.7639  3.4133 -0.9788
   16MOL0     H 2113   1.026   2.008   0.327  0.3712  0.1737 -1.0694
   16MOL0     H 2114   1.099   2.104   0.565 -1.6461  0.5522 -0.5230
   16MOL0     H 2115   1.251   2.125   0.491 -0.1383  1.4475  3.0336
   16MOL0     H 2116   1.125   2.333   0.502  0.7248  0.4711 -0.3935
   16MOL0     H 2117   0.990   2.272   0.413  0.5560  0.9719  0.0066
   16MOL0     H 2118   1.149   2.427   0.276  0.2060  0.0708 -2.1655
   16MOL0     H 2119   1.113   2.272   0.205  2.1094  0.1585 -1.3570
   16MOL0     H 2120   1.472   2.129   0.184 -2.0285 -0.8416 -1.0614
   16MOL0     H 2121   1.600   2.156  -0.022  0.4165  0.3923  2.1100
   16MOL0     H 2122   1.910   2.147  -0.196 -1.4909 -2.2069 -0.5660
   16MOL0     H 2123   2.121   2.153  -0.322 -1.4780 -1.4531 -0.4020
   16MOL0     H 2124   2.305   2.176  -0.431 -1.0912 -0.6997  1.3386
   16MOL0     H 2125   2.246   2.135  -0.591  1.6582  0.3264 -1.3262
   16MOL0     H 2126   2.469   2.185  -0.598 -1.7014 -1.0317 -1.2343
   16MOL0     H 2127   2.382   2.311  -0.692 -0.6301  0.0537  0.3271
   16MOL0     H 2128   2.428   2.483  -0.504 -0.8729 -1.8642  1.8188
   16MOL0     H 2129   2.534   2.357  -0.425 -0.4421  3.1182  1.4635
   16MOL0     H 2130   2.565   2.485  -0.703  1.7637 -0.5449  0.2087
   16MOL0     H 2131   2.685   2.380  -0.634 -0.2893 -0.1308  1.1028
   16MOL0     H 2132   2.720   2.540  -0.459 -2.0973 -2.4911  0.5278
   16MOL0     H 2133   2.591   2.652  -0.526  1.4420  1.2913  1.7850
   16MOL0     H 2134   2.844   2.550  -0.669 -1.6819 -1.2268  1.2208
   16MOL0     H 2135   2.744   2.684  -0.717  1.4514  0.8459 -0.3818
   16MOL0     H 2136   2.863   2.678  -0.435 -1.8559  1.9451  0.0524
   16MOL0     H 2137   2.830   2.828  -0.507  0.1002  0.4690  0.6057
   16MOL0     H 2138   3.046   2.742  -0.655 -3.4954 -0.7916 -2.2817
   16MOL0     H 2139   3.065   2.801  -0.491 -0.4012  2.3397 -2.7307
   16MOL0     H 2140   1.994   2.486  -0.538  2.7370 -1.2212 -1.4331
   16MOL0     H 2141   1.772   2.490  -0.405 -0.5996 -0.9269  0.0921
   16MOL0     H 2142   1.415   2.543  -0.083  1.1840 -1.0092 -2.1900
   16MOL0     H 2143   1.269   2.496   0.113  0.2534  0.0740 -0.4757
   16MOL0     H 2144   1.597   0.862   0.979 -1.2126  0.7399 -0.2788
   16MOL0     H 2145   1.750   0.748   1.121 -0.7699 -0.4232  0.5808
   16MOL0     H 2146   1.854   0.753   1.583 -3.0772 -0.5877 -3.2809
   16MOL0     H 2147   1.979   0.682   1.785 -0.0758 -0.0772  0.2690
   16MOL0     H 2148   1.962   0.360   1.892 -1.5211  0.2542  2.5228
   16MOL0     H 2149   1.996   0.521   1.973 -0.0785 -0.0965  0.6662
   16MOL0     H 2150   2.163   0.271   2.008  1.8853 -0.3277  1.5975
   16MOL0     H 2151   2.042   0.344   2.104  1.7410 -8.8830  0.8777
   16MOL0     H 2152   2.164   0.547   2.134  2.6819  2.7145 -0.3810
   16MOL0     H 2153   2.278   0.526   2.002 -1.3139  2.9748  0.5589
   16MOL0     H 2154   2.389   0.353   2.123 -0.9462  0.2067 -1.6184
   16MOL0     H 2155   2.393   0.508   2.213  0.7203 -0.4527 -5.1620
   16MOL0     H 2156   2.188   0.293   2.496  1.1637  3.7394  1.4726
   16MOL0     H 2157   2.117   0.336   1.600 -2.6849 -1.5568  2.7606
   16MOL0     H 2158   2.008   0.369   1.268  0.4147 -0.9347 -0.2307
   16MOL0     H 2159   2.025   0.245   1.395  0.5156  0.6482  0.1545
   16MOL0     H 2160   1.868   0.303   1.358 -1.1650  3.5925 -0.5116
   17MOL0     O 2161   1.866   1.992   5.687  0.2304  0.4108 -0.7909
   17MOL0     C 2162   1.951   2.058   5.741  0.3717 -0.0828 -0.3894
   17MOL0     O 2163   2.007   2.182   5.695  1.0707 -0.1648  0.3776
   17MOL0     C 2164   1.957   2.247   5.580 -0.9761  0.1516 -0.3419
   17MOL0     C 2165   1.837   2.315   5.576 -0.2955 -0.0776 -0.0106
   17MOL0     C 2166   1.805   2.388   5.457 -0.6434  0.6463 -0.1720
   17MOL0     C 2167   1.879   2.381   5.340  0.3325  0.3237 -0.4154
   17MOL0     O 2168   1.844   2.446   5.222 -0.5208 -0.1162  0.4144
   17MOL0     C 2169   1.825   2.592   5.236 -0.1615  0.2763 -0.2612
   17MOL0     C 2170   1.733   2.645   5.126 -0.8931 -0.5241  0.1658
   17MOL0     C 2171   1.734   2.800   5.125 -0.4409 -0.0826  0.7788
   17MOL0     C 2172   1.596   2.858   5.076 -0.2486 -0.0352 -0.0194
   17MOL0     C 2173   1.591   3.004   5.039 -0.1891 -0.4803  0.2510
   17MOL0     C 2174   1.664   3.103   5.138 -0.5817 -0.2653 -0.1342
   17MOL0     C 2175   1.679   3.246   5.088 -0.3960  0.0848  0.6688
   17MOL0     C 2176   1.774   3.328   5.175  0.0842  0.1830 -0.0847
   17MOL0     N 2177   1.728   3.331   5.316 -0.7813  0.7492 -0.3031
   17MOL0     C 2178   1.778   3.262   5.423 -0.9741  1.4173 -0.3136
   17MOL0     C 2179   1.685   3.260   5.524  0.0954 -0.7936 -0.6414
   17MOL0     C 2180   1.713   3.201   5.654 -0.0381  0.8398 -0.0138
   17MOL0     C 2181   1.615   3.251   5.760  0.6845  0.1045 -0.3173
   17MOL0     C 2182   1.619   3.181   5.896 -0.3549 -0.2021  0.4943
   17MOL0     C 2183   1.493   3.218   5.981 -0.1024 -0.2198  0.3459
   17MOL0     O 2184   1.512   3.170   6.119 -0.6204 -0.2466  0.4565
   17MOL0     C 2185   1.478   3.037   6.153 -0.1989 -0.5426 -0.0268
   17MOL0     C 2186   1.504   2.995   6.287 -0.1143 -1.0167 -0.0858
   17MOL0     C 2187   1.450   2.873   6.332  0.0868 -0.6781 -0.5372
   17MOL0     C 2188   1.385   2.785   6.248 -0.0674  0.0404 -0.1269
   17MOL0     C 2189   1.340   2.659   6.296 -0.0176 -0.2634 -0.2351
   17MOL0     O 2190   1.306   2.658   6.427  0.2156 -0.0273 -0.2974
   17MOL0     C 2191   1.271   2.539   6.491 -0.4275  0.1082  0.2133
   17MOL0     C 2192   1.299   2.552   6.628 -1.0004  0.5946  0.0209
   17MOL0     C 2193   1.259   2.453   6.713 -0.1474  0.1149  0.5274
   17MOL0     C 2194   1.180   2.351   6.663  0.0306  0.7508  0.0653
   17MOL0     O 2195   1.119   2.269   6.759 -0.1012  0.1830  0.5913
   17MOL0     C 2196   1.047   2.147   6.715 -0.3613 -0.0948  0.0366
   17MOL0     C 2197   1.036   2.040   6.819  0.5713  0.7270 -0.8094
   17MOL0     C 2198   1.165   1.950   6.849  0.2886  0.2686 -0.9727
   17MOL0     C 2199   1.160   1.848   6.962  1.1342  0.2873 -0.4116
   17MOL0     C 2200   1.174   1.909   7.093  0.7292  0.0835  0.1122
   17MOL0     C 2201   1.172   1.811   7.206 -0.2198  0.0476 -0.8375
   17MOL0     C 2202   1.238   1.854   7.337 -0.0839 -0.3568  0.9729
   17MOL0     C 2203   1.254   1.742   7.425  0.8314 -0.4071 -0.4499
   17MOL0    Cl 2204   1.371   1.770   7.559  0.2699 -0.1635 -0.2735
   17MOL0     C 2205   1.167   2.337   6.529  0.2688  0.6248 -0.0957
   17MOL0     C 2206   1.213   2.423   6.436  0.5473  0.2131  0.7260
   17MOL0     O 2207   1.343   2.561   6.223 -0.3575 -0.5085  0.0714
   17MOL0     C 2208   1.367   2.823   6.123  0.7061 -0.6880  0.5239
   17MOL0     C 2209   1.403   2.950   6.074  0.6752  0.7375  0.0219
   17MOL0     N 2210   1.588   3.338   5.473  0.6358  0.3418 -0.4015
   17MOL0     N 2211   1.604   3.377   5.353  0.7772 -0.2686 -0.0709
   17MOL0     C 2212   1.985   2.288   5.340  0.3997 -0.4564  0.2316
   17MOL0     C 2213   2.034   2.241   5.463 -0.7196 -0.0756  0.5973
   17MOL0     C 2214   1.989   2.022   5.875  0.1251 -0.5734 -1.3810
   17MOL0     C 2215   1.991   2.122   5.980 -0.2242  0.4126 -0.0321
   17MOL0     C 2216   2.035   2.087   6.102 -0.2363 -0.4400 -0.7973
   17MOL0     C 2217   2.056   1.954   6.148 -0.3780  1.0782  0.6139
   17MOL0     O 2218   2.099   1.904   6.267 -0.1184 -0.0002 -0.5630
   17MOL0     C 2219   2.172   2.002   6.344  0.8254 -1.1326 -0.5845
   17MOL0     C 2220   2.094   2.071   6.448 -0.3662  0.1465 -0.0305
   17MOL0     C 2221   2.164   2.171   6.536  0.5721 -0.6693 -0.1289
   17MOL0     C 2222   2.194   2.303   6.457  0.3994  0.1352  0.4063
   17MOL0     C 2223   2.301   2.361   6.521 -0.0572  0.7893 -0.1807
   17MOL0     C 2224   2.400   2.425   6.556  0.1283 -0.3534  0.1317
   17MOL0     C 2225   2.030   1.851   6.045  0.2117 -0.4390 -0.4829
   17MOL0     C 2226   2.005   1.890   5.909 -0.2977  0.6120 -0.2713
   17MOL0     C 2227   2.014   1.788   5.804 -0.0321  0.2491  0.0820
   17MOL0     H 2228   1.778   2.320   5.667 -0.9351  0.2055 -0.4357
   17MOL0     H 2229   1.718   2.452   5.449  0.3125  2.1303  0.8800
   17MOL0     H 2230   1.775   2.612   5.331  0.3501 -1.3465  0.3858
   17MOL0     H 2231   1.923   2.640   5.232 -0.3180  0.4982 -2.2892
   17MOL0     H 2232   1.633   2.604   5.142 -2.6386  3.1548 -0.1265
   17MOL0     H 2233   1.769   2.601   5.032 -0.9958  0.8613 -0.5484
   17MOL0     H 2234   1.822   2.823   5.063 -0.1980  0.5664  1.3523
   17MOL0     H 2235   1.755   2.846   5.222 -4.4928 -1.8337  2.7032
   17MOL0     H 2236   1.580   2.804   4.982  1.1805  3.2247 -2.3091
   17MOL0     H 2237   1.523   2.822   5.150  1.4304  2.7489  3.3048
   17MOL0     H 2238   1.635   3.016   4.940  0.3789 -1.1305  0.4187
   17MOL0     H 2239   1.485   3.028   5.027  0.3885  2.2534  0.0829
   17MOL0     H 2240   1.607   3.105   5.231  1.1482 -2.3571  1.0780
   17MOL0     H 2241   1.756   3.053   5.171 -2.0080 -2.1686  1.1708
   17MOL0     H 2242   1.581   3.292   5.098 -0.9711 -1.1481  0.9182
   17MOL0     H 2243   1.710   3.237   4.984 -0.1761 -0.0949  0.7478
   17MOL0     H 2244   1.875   3.285   5.174 -0.2409 -0.6079 -0.0619
   17MOL0     H 2245   1.779   3.428   5.132 -1.6357  0.0960 -0.5672
   17MOL0     H 2246   1.871   3.205   5.426 -0.8958  1.5660  1.4584
   17MOL0     H 2247   1.714   3.092   5.645  2.9066  0.6574  1.2257
   17MOL0     H 2248   1.810   3.238   5.690 -0.9982  0.8211  2.8532
   17MOL0     H 2249   1.623   3.358   5.777  0.0050 -0.2355  2.7349
   17MOL0     H 2250   1.515   3.221   5.729  0.9317  0.0970 -1.1269
   17MOL0     H 2251   1.717   3.200   5.941 -0.0580 -0.4485 -0.0362
   17MOL0     H 2252   1.633   3.073   5.887  3.5922  0.1516  0.6042
   17MOL0     H 2253   1.396   3.185   5.943  0.6288  1.4274 -3.3112
   17MOL0     H 2254   1.496   3.327   5.986 -1.2441 -0.0790 -1.3019
   17MOL0     H 2255   1.558   3.065   6.350  2.4033 -0.6195 -2.4838
   17MOL0     H 2256   1.478   2.849   6.434 -0.1849 -0.3489 -0.3856
   17MOL0     H 2257   1.359   2.637   6.661 -0.6884  0.7714 -0.9630
   17MOL0     H 2258   1.287   2.457   6.818 -0.5000 -1.0382  0.6813
   17MOL0     H 2259   0.946   2.181   6.689  0.0677 -0.2067 -1.9415
   17MOL0     H 2260   1.104   2.096   6.636  2.4261  0.0605  1.8060
   17MOL0     H 2261   0.998   2.083   6.912 -3.3507  3.0827 -3.2300
   17MOL0     H 2262   0.957   1.975   6.780  0.1649  1.7758 -1.8026
   17MOL0     H 2263   1.180   1.895   6.755 -0.9569 -1.7403 -0.0728
   17MOL0     H 2264   1.256   2.009   6.861 -0.6452  1.3340  1.5586
   17MOL0     H 2265   1.237   1.772   6.945  0.7816  0.5615 -4.2937
   17MOL0     H 2266   1.065   1.793   6.962  1.2392  0.0460  1.3390
   17MOL0     H 2267   1.097   1.986   7.101  1.7899  1.4654 -2.0097
   17MOL0     H 2268   1.270   1.961   7.101  0.5669  0.3380  0.4262
   17MOL0     H 2269   1.065   1.801   7.227  0.2319 -1.1240  1.1854
   17MOL0     H 2270   1.213   1.714   7.177  1.0669  0.1195  0.6275
   17MOL0     H 2271   1.183   1.941   7.375 -1.3132  0.5680 -2.5500
   17MOL0     H 2272   1.339   1.887   7.311 -0.5658 -1.3810 -2.6350
   17MOL0     H 2273   1.150   1.719   7.450  0.8638 -1.2534 -1.0543
   17MOL0     H 2274   1.289   1.657   7.366  0.3506 -0.3021 -0.8822
   17MOL0     H 2275   1.097   2.260   6.497  2.1859 -1.6726  0.8715
   17MOL0     H 2276   1.220   2.389   6.333 -2.8216 -0.6322  0.6642
   17MOL0     H 2277   1.297   2.764   6.066 -3.6561  2.5209  1.9955
   17MOL0     H 2278   1.369   2.972   5.974  2.1084 -1.4054 -1.0278
   17MOL0     H 2279   2.022   2.262   5.241  0.6346  0.0244  0.1922
   17MOL0     H 2280   2.123   2.179   5.463  1.1181  2.2928 -2.1870
   17MOL0     H 2281   1.981   2.226   5.952  1.6950 -0.0231 -2.8218
   17MOL0     H 2282   2.058   2.168   6.171  2.1640  0.1277 -2.1331
   17MOL0     H 2283   2.218   2.078   6.281 -2.7340  2.8735  1.1404
   17MOL0     H 2284   2.253   1.944   6.389  0.5492 -0.9923  0.1178
   17MOL0     H 2285   2.050   1.993   6.511 -5.5422  0.4263 -2.7635
   17MOL0     H 2286   2.005   2.123   6.411  1.0555  1.8632 -1.2059
   17MOL0     H 2287   2.255   2.135   6.586 -0.4889  1.2781  3.5724
   17MOL0     H 2288   2.095   2.196   6.617  1.8960  2.3783  0.2116
   17MOL0     H 2289   2.229   2.274   6.358  1.5401  0.5961  0.6604
   17MOL0     H 2290   2.107   2.368   6.462  0.5442  0.2687  1.3585
   17MOL0     H 2291   2.498   2.458   6.582  0.6042 -2.5704  1.4206
   17MOL0     H 2292   2.039   1.746   6.068 -2.4161 -0.8441 -1.0067
   17MOL0     H 2293   2.085   1.817   5.726 -0.8388  1.8776 -0.1059
   17MOL0     H 2294   2.062   1.699   5.845 -0.7473  1.4741  4.0043
   17MOL0     H 2295   1.917   1.748   5.774 -0.3488  1.2437 -0.2496
   18MOL0     O 2296   2.781   2.996   0.197  0.6371  0.1158  0.3970
   18MOL0     C 2297   2.776   3.103   0.129 -0.9174  0.0720 -0.7322
   18MOL0     O 2298   2.846   3.128   0.010  0.2445 -0.2487  0.3212
   18MOL0     C 2299   2.924   3.017  -0.035 -0.3975  0.7638  0.1142
   18MOL0     C 2300   3.060   3.003   0.011  0.8278  0.4677 -1.0787
   18MOL0     C 2301   3.133   2.893  -0.028 -0.0706  0.0485 -1.0385
   18MOL0     C 2302   3.079   2.790  -0.109  0.6542  0.2447 -0.9163
   18MOL0     O 2303   3.151   2.684  -0.148 -0.1185 -0.4716  0.9565
   18MOL0     C 2304   3.221   2.621  -0.044  0.3423  0.9463  0.3723
   18MOL0     C 2305   3.354   2.578  -0.118  0.1319 -0.5743 -0.2325
   18MOL0     C 2306   3.452   2.501  -0.036 -0.5666 -0.0254 -1.1261
   18MOL0     C 2307   3.403   2.359  -0.021  0.8004  0.3682 -0.9592
   18MOL0     C 2308   3.493   2.288   0.086  0.1540 -0.1080 -0.0721
   18MOL0     C 2309   3.630   2.253   0.030 -0.4255  0.3002 -0.6252
   18MOL0     C 2310   3.709   2.164   0.126 -0.7106  0.1979  0.1023
   18MOL0     C 2311   3.767   2.243   0.237 -0.4386  0.3667 -0.3498
   18MOL0     N 2312   3.852   2.151   0.322 -0.7603 -0.9659 -0.7570
   18MOL0     C 2313   3.810   2.086   0.438  0.3702  1.0664  0.9960
   18MOL0     C 2314   3.913   1.990   0.447 -0.8994 -1.0429 -0.6110
   18MOL0     C 2315   3.916   1.906   0.568 -0.6094  0.0462 -0.5749
   18MOL0     C 2316   4.028   1.950   0.660 -0.2742 -0.3871 -0.4370
   18MOL0     C 2317   4.075   1.824   0.735 -0.0046  0.7806  0.2209
   18MOL0     C 2318   4.166   1.848   0.860 -0.2945 -0.7511 -0.2365
   18MOL0     O 2319   4.093   1.924   0.966  0.6696 -0.9457  0.5388
   18MOL0     C 2320   4.176   1.980   1.065  0.7002  0.5510 -0.6990
   18MOL0     C 2321   4.317   1.975   1.072 -0.3669  0.0078 -0.2013
   18MOL0     C 2322   4.382   2.030   1.185 -0.2708  0.0035  0.3544
   18MOL0     C 2323   4.312   2.102   1.290 -0.1618  0.3872  0.1198
   18MOL0     C 2324   4.382   2.151   1.407  0.1329  1.1499 -0.4647
   18MOL0     O 2325   4.517   2.170   1.378  0.5656 -0.5235 -0.5516
   18MOL0     C 2326   4.612   2.172   1.482  0.0895 -0.7762  0.5773
   18MOL0     C 2327   4.608   2.125   1.603 -0.5420 -0.1650 -0.5986
   18MOL0     C 2328   4.705   2.160   1.693 -0.9999  0.1125  0.8728
   18MOL0     C 2329   4.808   2.247   1.672 -0.3380  0.3879 -0.0040
   18MOL0     O 2330   4.907   2.267   1.765 -0.2256  0.7323  0.0937
   18MOL0     C 2331   5.036   2.321   1.729  0.2574 -0.4698 -0.0665
   18MOL0     C 2332   5.125   2.249   1.630 -0.1000  0.7484 -0.3241
   18MOL0     C 2333   5.136   2.099   1.644  0.6771 -0.3288  0.3825
   18MOL0     C 2334   5.215   2.041   1.530 -0.5203 -0.0162 -0.5874
   18MOL0     C 2335   5.188   1.893   1.495 -0.1692  0.5760  0.1394
   18MOL0     C 2336   5.273   1.846   1.382  0.1116  0.6762  0.8463
   18MOL0     C 2337   5.244   1.702   1.331 -0.6725 -0.4478 -0.3273
   18MOL0     C 2338   5.251   1.595   1.444 -0.0525  0.6470  0.6591
   18MOL0    Cl 2339   5.264   1.420   1.368 -0.2536  0.3366 -0.3601
   18MOL0     C 2340   4.811   2.297   1.540  0.5042  0.3135  0.5258
   18MOL0     C 2341   4.724   2.250   1.445  0.0772 -1.2455 -1.0227
   18MOL0     O 2342   4.318   2.167   1.512 -0.1597  0.5009  0.0099
   18MOL0     C 2343   4.172   2.104   1.277 -1.0557 -0.0567  0.2405
   18MOL0     C 2344   4.107   2.038   1.176 -0.2595 -1.5320  0.6489
   18MOL0     N 2345   4.006   2.004   0.348 -0.4145  0.6694  0.5080
   18MOL0     N 2346   3.968   2.096   0.271 -0.3681  0.1984  0.0901
   18MOL0     C 2347   2.941   2.798  -0.138  0.5596 -0.1123  0.3544
   18MOL0     C 2348   2.869   2.912  -0.108 -0.1691  0.1407  0.4840
   18MOL0     C 2349   2.669   3.202   0.169 -0.2504  1.5750  0.0864
   18MOL0     C 2350   2.572   3.164   0.263 -0.2291 -0.3964  0.5435
   18MOL0     C 2351   2.471   3.251   0.313 -0.4836 -0.9244  0.7750
   18MOL0     C 2352   2.465   3.387   0.272 -0.4499  0.2404  1.0002
   18MOL0     O 2353   2.378   3.480   0.309 -0.4777  0.1016 -0.7276
   18MOL0     C 2354   2.276   3.455   0.398  0.3326 -0.3512 -0.1784
   18MOL0     C 2355   2.167   3.568   0.383  0.5801  0.1578 -0.3885
   18MOL0     C 2356   2.227   3.706   0.417 -0.9804  0.2651 -0.5749
   18MOL0     C 2357   2.219   3.724   0.573 -0.1803 -0.6075 -0.1375
   18MOL0     C 2358   2.276   3.851   0.618 -0.2537  0.0989  0.0631
   18MOL0     C 2359   2.334   3.954   0.641 -0.8225  0.8707  0.2378
   18MOL0     C 2360   2.563   3.435   0.177 -1.2333 -0.2820 -0.3553
   18MOL0     C 2361   2.661   3.341   0.128 -0.3015  0.2729 -1.0439
   18MOL0     C 2362   2.749   3.393   0.017 -0.2836 -0.4055 -0.4695
   18MOL0     H 2363   3.096   3.081   0.077 -1.4461  2.6851 -2.2937
   18MOL0     H 2364   3.235   2.887   0.008 -1.7439 -1.7384  4.3422
   18MOL0     H 2365   3.250   2.675   0.047  0.0155 -1.3173  1.9337
   18MOL0     H 2366   3.163   2.542   0.004 -1.2604  2.6647  1.3880
   18MOL0     H 2367   3.400   2.663  -0.168 -2.1590 -0.5338 -2.5246
   18MOL0     H 2368   3.332   2.526  -0.212 -0.1663  3.4162 -2.5668
   18MOL0     H 2369   3.473   2.558   0.055 -0.4504  1.1132 -1.8331
   18MOL0     H 2370   3.547   2.503  -0.091 -0.2218 -2.4634 -0.7143
   18MOL0     H 2371   3.303   2.373   0.020  1.5798  2.3608  0.4403
   18MOL0     H 2372   3.400   2.296  -0.111 -0.0972 -1.1680  0.1052
   18MOL0     H 2373   3.501   2.358   0.170  1.4519  1.2221 -1.2228
   18MOL0     H 2374   3.445   2.197   0.121 -5.4167  2.8803  1.2279
   18MOL0     H 2375   3.610   2.201  -0.064 -2.9740  1.1638 -0.6108
   18MOL0     H 2376   3.688   2.345   0.018  0.1465  0.1191  0.6143
   18MOL0     H 2377   3.790   2.117   0.070 -2.1487 -0.9622 -1.1050
   18MOL0     H 2378   3.655   2.079   0.170  0.2025  0.6674  2.2150
   18MOL0     H 2379   3.823   2.331   0.205  2.0535  0.0019  2.5733
   18MOL0     H 2380   3.688   2.286   0.299 -1.0396 -0.9619 -0.1579
   18MOL0     H 2381   3.734   2.118   0.508 -1.2292 -0.6567  0.1154
   18MOL0     H 2382   3.824   1.899   0.627 -0.3077 -5.7952 -0.1874
   18MOL0     H 2383   3.935   1.804   0.533 -3.1916 -1.0974  1.0189
   18MOL0     H 2384   4.116   1.985   0.605 -0.8995 -0.0628 -1.2424
   18MOL0     H 2385   4.007   2.039   0.720  0.6225  0.1889 -0.9603
   18MOL0     H 2386   4.117   1.754   0.662 -4.9827 -0.1225 -2.2084
   18MOL0     H 2387   3.990   1.768   0.775  0.7426 -2.2855 -2.1198
   18MOL0     H 2388   4.256   1.905   0.833 -0.5776 -2.5361 -6.3597
   18MOL0     H 2389   4.199   1.761   0.917  4.3349  1.8943  1.7697
   18MOL0     H 2390   4.376   1.916   1.003 -0.5388  0.3387 -0.6427
   18MOL0     H 2391   4.488   2.018   1.210 -0.2929  2.1967  1.8081
   18MOL0     H 2392   4.520   2.069   1.633  0.4014 -0.2223  2.3410
   18MOL0     H 2393   4.707   2.094   1.778 -0.3869  0.4566  1.1340
   18MOL0     H 2394   5.010   2.422   1.695  0.0214 -1.0093 -1.5568
   18MOL0     H 2395   5.093   2.342   1.819 -1.2867 -1.0483  1.0885
   18MOL0     H 2396   5.091   2.259   1.526  1.3255  1.6314 -0.7384
   18MOL0     H 2397   5.220   2.302   1.642 -0.5140  1.3679  0.2797
   18MOL0     H 2398   5.181   2.070   1.740  0.9552 -0.7441  0.1323
   18MOL0     H 2399   5.037   2.052   1.640  0.7527 -0.5343  0.7908
   18MOL0     H 2400   5.316   2.051   1.572 -0.8208 -0.0806  0.1811
   18MOL0     H 2401   5.212   2.100   1.438  2.1205  1.7425  0.2960
   18MOL0     H 2402   5.084   1.861   1.482 -0.1187  0.3552  0.2601
   18MOL0     H 2403   5.205   1.828   1.581 -1.1469 -2.2018 -1.6310
   18MOL0     H 2404   5.262   1.905   1.291 -0.3898 -1.2647 -0.4062
   18MOL0     H 2405   5.376   1.866   1.411  0.7144  2.1978 -2.0330
   18MOL0     H 2406   5.325   1.680   1.260 -1.4478  0.6437 -1.5898
   18MOL0     H 2407   5.150   1.710   1.275 -1.3311  3.0977  1.0470
   18MOL0     H 2408   5.340   1.620   1.503 -0.5646  2.3637  0.7682
   18MOL0     H 2409   5.167   1.593   1.514  0.2117  1.1759  0.9984
   18MOL0     H 2410   4.884   2.370   1.507  1.8075 -1.5829 -1.0063
   18MOL0     H 2411   4.731   2.291   1.345  1.0525  2.1388  0.2672
   18MOL0     H 2412   4.118   2.149   1.359 -0.1062  1.1842  0.2058
   18MOL0     H 2413   3.999   2.037   1.169 -0.3176  1.8014 -0.5200
   18MOL0     H 2414   2.885   2.718  -0.186  0.1319 -0.3421  1.2245
   18MOL0     H 2415   2.771   2.926  -0.153 -1.1302  0.5117  2.5853
   18MOL0     H 2416   2.585   3.066   0.307  0.9126 -0.5271 -0.0436
   18MOL0     H 2417   2.400   3.227   0.391 -1.1982 -0.5062  0.2630
   18MOL0     H 2418   2.317   3.443   0.498 -1.9332 -2.4712  0.5943
   18MOL0     H 2419   2.243   3.352   0.378  3.4216 -2.1470  2.9131
   18MOL0     H 2420   2.080   3.559   0.448  0.1178  1.9921 -0.6828
   18MOL0     H 2421   2.135   3.568   0.279  1.9803  0.2239 -0.8405
   18MOL0     H 2422   2.185   3.793   0.367  3.2505  2.1468 -1.2445
   18MOL0     H 2423   2.330   3.709   0.380 -0.0573 -1.3148  1.5733
   18MOL0     H 2424   2.121   3.733   0.621  1.2883 -0.0730  3.0356
   18MOL0     H 2425   2.272   3.645   0.628  0.7175  1.7587  2.6440
   18MOL0     H 2426   2.392   4.042   0.660 -3.1535  1.9284  3.3960
   18MOL0     H 2427   2.570   3.538   0.143  4.4038 -0.4018 -0.5782
   18MOL0     H 2428   2.709   3.486  -0.025  1.9447  0.0419 -1.7442
   18MOL0     H 2429   2.847   3.415   0.060 -0.2374  0.0038 -0.7877
   18MOL0     H 2430   2.757   3.334  -0.075  3.5468  2.0268 -1.9283
   19MOL0     O 2431   8.159   5.249   5.654  0.2938 -0.2341 -0.2284
   19MOL0     C 2432   8.175   5.182   5.753 -0.4837 -0.3467  0.0630
   19MOL0     O 2433   8.119   5.211   5.881  0.4434  0.1535  0.3299
   19MOL0     C 2434   8.043   5.324   5.904 -0.6038 -0.0181 -0.4904
   19MOL0     C 2435   7.944   5.366   5.821  1.0562 -0.3235 -0.1549
   19MOL0     C 2436   7.884   5.500   5.842  0.6969 -0.4843 -0.1005
   19MOL0     C 2437   7.911   5.570   5.963 -0.1471  0.3107 -0.1617
   19MOL0     O 2438   7.866   5.700   5.986  0.5549  0.2907 -0.4319
   19MOL0     C 2439   7.732   5.734   5.950 -0.2650  0.4760  0.4479
   19MOL0     C 2440   7.630   5.676   6.054  0.2338 -0.7391  0.0837
   19MOL0     C 2441   7.487   5.718   6.023  0.2117  0.1868 -0.8130
   19MOL0     C 2442   7.418   5.616   5.931 -0.7150  0.8987  0.9213
   19MOL0     C 2443   7.279   5.570   5.968  1.2110  1.1040 -0.4489
   19MOL0     C 2444   7.177   5.681   5.948  0.3673  0.0773 -0.6372
   19MOL0     C 2445   7.031   5.630   5.936  0.5326  0.0840  0.4295
   19MOL0     C 2446   6.987   5.553   6.060 -0.4755 -1.1269  0.5828
   19MOL0     N 2447   6.990   5.625   6.191  0.1265  0.0194 -0.1270
   19MOL0     C 2448   7.000   5.755   6.226 -0.3763 -0.4531  0.4961
   19MOL0     C 2449   6.977   5.768   6.354  1.7395  1.1214 -0.2606
   19MOL0     C 2450   6.958   5.897   6.438  0.4100  0.8523  1.2126
   19MOL0     C 2451   7.038   5.904   6.567 -0.5386 -0.3909 -0.2343
   19MOL0     C 2452   7.018   5.784   6.671 -0.7560  0.1755  0.8573
   19MOL0     C 2453   7.066   5.816   6.810  0.4392  1.0014 -0.0054
   19MOL0     O 2454   7.188   5.891   6.811  0.5356  0.5431  0.0479
   19MOL0     C 2455   7.202   5.996   6.897 -0.4848 -0.6648 -0.7864
   19MOL0     C 2456   7.118   6.046   7.000  1.5861 -0.3821  0.8650
   19MOL0     C 2457   7.135   6.169   7.069 -0.2350 -0.3901  0.4192
   19MOL0     C 2458   7.251   6.240   7.045  0.2162 -0.3899  0.1268
   19MOL0     C 2459   7.283   6.358   7.120 -0.3541 -0.6914 -0.8442
   19MOL0     O 2460   7.180   6.424   7.186  0.4176  0.2478 -0.2156
   19MOL0     C 2461   7.213   6.530   7.275  0.9135 -0.1046  0.3033
   19MOL0     C 2462   7.154   6.655   7.258  0.1238  0.1980 -0.2489
   19MOL0     C 2463   7.180   6.763   7.338  0.0263 -0.3945 -0.1457
   19MOL0     C 2464   7.267   6.752   7.444 -0.6613 -0.1794  1.2934
   19MOL0     O 2465   7.324   6.851   7.511 -0.1011 -0.2632 -0.1401
   19MOL0     C 2466   7.260   6.978   7.526 -0.1972  0.0374 -0.0377
   19MOL0     C 2467   7.365   7.057   7.599  0.4572 -0.0632  0.7913
   19MOL0     C 2468   7.298   7.197   7.635 -0.2251 -0.0431  0.4450
   19MOL0     C 2469   7.368   7.269   7.755 -0.0674  0.0795 -0.3083
   19MOL0     C 2470   7.271   7.373   7.813 -0.0080 -0.2865  0.5556
   19MOL0     C 2471   7.340   7.477   7.900 -0.3003  0.6378 -0.0179
   19MOL0     C 2472   7.242   7.585   7.938  0.8687 -0.2173  0.1970
   19MOL0     C 2473   7.290   7.685   8.049 -0.2828 -0.7998  1.0614
   19MOL0    Cl 2474   7.392   7.805   7.969  0.1980 -0.6310 -0.1273
   19MOL0     C 2475   7.320   6.627   7.471 -0.4490 -0.3039 -0.0560
   19MOL0     C 2476   7.295   6.515   7.391  0.5534  0.7269  0.5138
   19MOL0     O 2477   7.401   6.397   7.124  0.6935 -0.1075  0.2755
   19MOL0     C 2478   7.347   6.184   6.955 -0.3766 -0.1942  0.3523
   19MOL0     C 2479   7.311   6.081   6.871  0.0954  0.2393  0.1011
   19MOL0     N 2480   6.960   5.642   6.397  0.3928 -0.7273 -0.1054
   19MOL0     N 2481   6.966   5.558   6.305  0.7760  0.0163  0.3506
   19MOL0     C 2482   8.009   5.524   6.047  1.0854  0.1385 -0.3502
   19MOL0     C 2483   8.072   5.401   6.013  0.6648 -0.0206 -0.5546
   19MOL0     C 2484   8.277   5.070   5.754  0.4571  0.0228 -0.3392
   19MOL0     C 2485   8.276   4.984   5.865 -0.0967  0.0243 -0.1828
   19MOL0     C 2486   8.368   4.879   5.874  0.1558 -0.5566  0.0064
   19MOL0     C 2487   8.488   4.881   5.791 -0.0235  0.3120  0.3382
   19MOL0     O 2488   8.591   4.792   5.787  0.2932 -0.1865  0.0838
   19MOL0     C 2489   8.562   4.667   5.860  0.1127 -0.2315 -1.0788
   19MOL0     C 2490   8.688   4.579   5.877 -0.4734 -0.0542  0.0491
   19MOL0     C 2491   8.784   4.602   5.758  0.3761 -0.2767 -0.5651
   19MOL0     C 2492   8.877   4.491   5.744 -0.2222  0.2266  0.9618
   19MOL0     C 2493   8.955   4.524   5.616 -0.5628  0.6771 -0.1465
   19MOL0     C 2494   9.021   4.540   5.520  0.0004  0.4039  0.0729
   19MOL0     C 2495   8.499   4.974   5.691 -0.1787 -0.5923 -0.0139
   19MOL0     C 2496   8.391   5.066   5.668 -0.2971 -0.0075  0.1222
   19MOL0     C 2497   8.407   5.156   5.546 -0.1386 -0.3191 -0.4924
   19MOL0     H 2498   7.920   5.312   5.730 -1.0359 -1.1807  0.8380
   19MOL0     H 2499   7.820   5.551   5.771  2.4890  2.8630  0.4719
   19MOL0     H 2500   7.740   5.842   5.940 -0.0129  0.2457 -2.8005
   19MOL0     H 2501   7.704   5.692   5.853  0.4698 -0.1190  0.4850
   19MOL0     H 2502   7.660   5.720   6.150 -1.5889 -0.3384  0.5036
   19MOL0     H 2503   7.646   5.569   6.068  0.4807 -0.4952  2.0535
   19MOL0     H 2504   7.487   5.821   5.986 -1.9821  1.0939  1.3967
   19MOL0     H 2505   7.430   5.722   6.116  1.3300 -1.1001 -0.0449
   19MOL0     H 2506   7.419   5.659   5.831 -3.1199 -2.0844 -0.5888
   19MOL0     H 2507   7.478   5.525   5.925 -2.5700 -0.2863 -1.0253
   19MOL0     H 2508   7.256   5.485   5.902  2.2094 -0.9223  1.6522
   19MOL0     H 2509   7.278   5.527   6.069 -0.1828  2.6295  0.2362
   19MOL0     H 2510   7.180   5.753   6.031 -2.1886  0.5070 -0.8086
   19MOL0     H 2511   7.201   5.738   5.858 -1.3982 -0.4768 -1.4990
   19MOL0     H 2512   7.026   5.559   5.852  0.3801 -2.1790  2.2630
   19MOL0     H 2513   6.971   5.718   5.913  1.4840  0.3227 -1.3811
   19MOL0     H 2514   6.886   5.515   6.049 -1.3257  0.9194  0.7649
   19MOL0     H 2515   7.048   5.463   6.070  1.8064  0.5191  2.9310
   19MOL0     H 2516   7.010   5.834   6.151 -0.0462 -1.7913 -0.9240
   19MOL0     H 2517   6.978   5.989   6.382 -1.6587  2.4782  2.9767
   19MOL0     H 2518   6.852   5.913   6.463  0.3424 -0.2358  1.6977
   19MOL0     H 2519   7.142   5.918   6.536 -0.5834  4.2499  1.0244
   19MOL0     H 2520   7.011   5.993   6.623 -2.3530  0.4743 -2.3817
   19MOL0     H 2521   7.075   5.700   6.629  0.8747  0.7729  1.8440
   19MOL0     H 2522   6.914   5.749   6.668 -0.4811 -0.9806  2.8290
   19MOL0     H 2523   7.075   5.731   6.877 -1.1880  1.6276  1.0498
   19MOL0     H 2524   6.984   5.862   6.865 -3.1088 -2.4342 -1.9616
   19MOL0     H 2525   7.039   5.988   7.045 -0.1131  0.3574 -0.9624
   19MOL0     H 2526   7.072   6.188   7.156 -0.1517 -1.9371  0.8502
   19MOL0     H 2527   7.084   6.668   7.176 -0.7154 -0.8567  0.2729
   19MOL0     H 2528   7.144   6.861   7.309  0.2894  0.5449  2.4364
   19MOL0     H 2529   7.246   7.022   7.427 -1.0840  1.7734  0.8062
   19MOL0     H 2530   7.166   6.967   7.582 -0.9646 -0.7969 -1.4387
   19MOL0     H 2531   7.401   7.003   7.687  1.9758  0.2782  0.4072
   19MOL0     H 2532   7.443   7.073   7.524 -1.4969  3.1823 -0.7763
   19MOL0     H 2533   7.291   7.252   7.540  0.8567 -2.0683 -0.8908
   19MOL0     H 2534   7.194   7.193   7.670 -0.7964  0.1092 -1.1373
   19MOL0     H 2535   7.463   7.312   7.721 -0.1326  1.3042  0.9684
   19MOL0     H 2536   7.393   7.205   7.840  3.0065  2.9933  1.2059
   19MOL0     H 2537   7.200   7.310   7.866 -0.0071 -0.6291  0.1595
   19MOL0     H 2538   7.215   7.427   7.736 -0.1784 -0.0434  0.8472
   19MOL0     H 2539   7.373   7.417   7.985 -2.3012 -0.9155 -0.2380
   19MOL0     H 2540   7.422   7.515   7.839  0.7705 -1.2950  0.1215
   19MOL0     H 2541   7.148   7.539   7.969 -0.8778 -0.1399 -4.2415
   19MOL0     H 2542   7.203   7.644   7.855 -2.6679 -1.3518  0.8850
   19MOL0     H 2543   7.193   7.721   8.082 -0.0096  0.7492  0.2580
   19MOL0     H 2544   7.352   7.626   8.117  1.3686 -0.2809  0.0668
   19MOL0     H 2545   7.381   6.613   7.559  0.3077 -1.4155 -0.7278
   19MOL0     H 2546   7.342   6.420   7.413 -2.2438 -1.2208 -1.3073
   19MOL0     H 2547   7.438   6.239   6.929  0.1047 -1.3623 -0.5206
   19MOL0     H 2548   7.373   6.050   6.788  1.5753  1.2211  0.7892
   19MOL0     H 2549   8.029   5.586   6.134 -0.1950 -0.8040  0.6647
   19MOL0     H 2550   8.158   5.378   6.075 -0.2041 -0.3602  0.5588
   19MOL0     H 2551   8.189   4.979   5.930 -2.3491 -2.1154 -3.1423
   19MOL0     H 2552   8.358   4.805   5.952  2.9333  1.0030  2.0138
   19MOL0     H 2553   8.476   4.617   5.814 -0.6713  0.9499 -0.9562
   19MOL0     H 2554   8.544   4.691   5.965  2.1660 -1.9099 -0.2785
   19MOL0     H 2555   8.667   4.471   5.873  2.3050 -0.6370 -2.3155
   19MOL0     H 2556   8.732   4.600   5.974  0.3837 -2.2345  0.2001
   19MOL0     H 2557   8.847   4.686   5.789  1.2787 -1.8919  2.3556
   19MOL0     H 2558   8.733   4.608   5.662 -0.1932 -2.2964 -0.4414
   19MOL0     H 2559   8.956   4.487   5.819  3.4201  0.0964 -2.5416
   19MOL0     H 2560   8.826   4.396   5.729 -0.8059  0.9648 -2.6329
   19MOL0     H 2561   9.072   4.555   5.426  0.3767 -0.0924  0.1953
   19MOL0     H 2562   8.589   4.983   5.631 -1.2101  2.3670 -1.3290
   19MOL0     H 2563   8.345   5.130   5.459  0.2911 -0.3246 -0.7998
   19MOL0     H 2564   8.379   5.258   5.575  2.5191 -0.0296  1.4405
   19MOL0     H 2565   8.513   5.175   5.529  0.5196 -0.3456  2.8857
   20MOL0     O 2566  10.616   7.037   1.666 -0.0529 -0.1265 -0.1589
   20MOL0     C 2567  10.521   6.969   1.629 -0.2074 -0.8990 -0.7577
   20MOL0     O 2568  10.530   6.840   1.607 -0.5184  0.4697  0.8975
   20MOL0     C 2569  10.609   6.767   1.684  0.6599  0.6312 -0.6582
   20MOL0     C 2570  10.744   6.772   1.675 -0.1999  1.1311 -0.0479
   20MOL0     C 2571  10.831   6.689   1.748 -0.2845 -1.0773 -0.2210
   20MOL0     C 2572  10.772   6.594   1.829  0.3054  0.2064 -0.2927
   20MOL0     O 2573  10.857   6.516   1.897 -0.2495  0.1166 -0.1699
   20MOL0     C 2574  10.806   6.468   2.015 -0.8477  0.6185 -0.4316
   20MOL0     C 2575  10.925   6.413   2.097  0.5145  0.3750  0.6402
   20MOL0     C 2576  10.888   6.350   2.232  0.1782  0.2669  0.1761
   20MOL0     C 2577  10.800   6.221   2.215 -0.1268  0.0389  0.5532
   20MOL0     C 2578  10.794   6.130   2.334 -0.3710 -0.3675 -1.1981
   20MOL0     C 2579  10.740   5.984   2.300  1.0392  0.2024  0.3282
   20MOL0     C 2580  10.738   5.885   2.427 -0.1072 -0.4661 -0.3980
   20MOL0     C 2581  10.681   5.748   2.402  0.2542  0.3820  0.3444
   20MOL0     N 2582  10.714   5.652   2.505  0.7361 -0.1344 -0.5143
   20MOL0     C 2583  10.657   5.659   2.637 -0.1024  0.2008  0.0424
   20MOL0     C 2584  10.657   5.530   2.683  0.4917 -0.5215  0.2726
   20MOL0     C 2585  10.591   5.497   2.813  0.4257  0.4285  0.9579
   20MOL0     C 2586  10.691   5.402   2.883  0.3167 -0.4107 -0.2774
   20MOL0     C 2587  10.823   5.467   2.928 -0.8236 -0.3119  0.1877
   20MOL0     C 2588  10.810   5.605   2.995 -1.0272 -0.5815 -0.0770
   20MOL0     O 2589  10.946   5.625   3.030 -0.6773 -0.7006 -0.6082
   20MOL0     C 2590  10.962   5.751   3.088  0.0216 -0.2225 -0.1027
   20MOL0     C 2591  11.066   5.824   3.036  0.5915 -0.3587 -0.3155
   20MOL0     C 2592  11.099   5.950   3.089 -0.2253 -0.3753  0.2175
   20MOL0     C 2593  11.021   6.013   3.192 -0.1913  0.4023  0.0077
   20MOL0     C 2594  11.060   6.138   3.260 -0.5702 -0.7428 -0.3387
   20MOL0     O 2595  10.986   6.195   3.358  0.8599  0.0168  0.4446
   20MOL0     C 2596  11.043   6.303   3.426 -0.6102  0.1841 -0.0501
   20MOL0     C 2597  11.084   6.265   3.558  0.1907 -0.2511  0.6363
   20MOL0     C 2598  11.160   6.354   3.638 -0.0831  0.1095 -0.0115
   20MOL0     C 2599  11.202   6.486   3.591  0.3630  0.1721  0.0297
   20MOL0     O 2600  11.285   6.572   3.654  0.0435 -0.3266  0.4303
   20MOL0     C 2601  11.395   6.618   3.584 -0.3761  0.0236 -0.1722
   20MOL0     C 2602  11.498   6.675   3.672 -0.5347  0.0264 -0.2586
   20MOL0     C 2603  11.527   6.585   3.797  0.4402 -0.8547  0.5027
   20MOL0     C 2604  11.601   6.669   3.898  0.0796 -0.6920 -0.1560
   20MOL0     C 2605  11.658   6.585   4.012 -0.2168  0.2510  1.1086
   20MOL0     C 2606  11.775   6.647   4.101 -0.3887  0.2600 -0.4741
   20MOL0     C 2607  11.809   6.544   4.213 -0.6314 -0.7187 -0.3100
   20MOL0     C 2608  11.942   6.584   4.282 -0.3002 -0.0413 -0.1594
   20MOL0    Cl 2609  12.053   6.444   4.262 -0.0301 -0.4090 -0.6720
   20MOL0     C 2610  11.151   6.515   3.460  0.5422 -0.2429  0.5000
   20MOL0     C 2611  11.078   6.429   3.377 -0.5085  0.0186 -0.6026
   20MOL0     O 2612  11.169   6.183   3.222  0.6178 -0.0051 -0.3922
   20MOL0     C 2613  10.911   5.945   3.237  0.6432 -1.3052  0.2956
   20MOL0     C 2614  10.882   5.814   3.189 -0.7075  0.8244  0.1415
   20MOL0     N 2615  10.719   5.452   2.587 -0.6080 -0.2775 -0.3625
   20MOL0     N 2616  10.754   5.523   2.479 -0.3598 -0.1971 -0.5347
   20MOL0     C 2617  10.629   6.575   1.823  0.3049  0.0703  0.6489
   20MOL0     C 2618  10.547   6.671   1.762  0.4683 -0.0327 -0.4626
   20MOL0     C 2619  10.397   7.047   1.612 -0.3574  0.2308  0.7022
   20MOL0     C 2620  10.407   7.181   1.560  0.6316 -0.0360 -0.1111
   20MOL0     C 2621  10.288   7.257   1.550 -0.0615 -0.0417  0.4935
   20MOL0     C 2622  10.162   7.202   1.573 -0.1049  0.2108  0.2552
   20MOL0     O 2623  10.041   7.267   1.544 -0.7638  0.4763 -0.3148
   20MOL0     C 2624  10.053   7.401   1.481 -0.4171  0.2113  0.4812
   20MOL0     C 2625   9.911   7.454   1.462 -0.3231 -0.4293 -0.1742
   20MOL0     C 2626   9.922   7.608   1.454  0.4742 -0.1673  0.0467
   20MOL0     C 2627   9.959   7.658   1.592 -1.0598 -0.0954  0.0320
   20MOL0     C 2628   9.979   7.801   1.587  0.0548  0.0476  0.6071
   20MOL0     C 2629   9.988   7.920   1.591 -0.5729 -0.3116 -0.1701
   20MOL0     C 2630  10.155   7.079   1.629  1.6350  0.7150 -0.4799
   20MOL0     C 2631  10.269   7.003   1.647 -0.3160  0.3205 -0.5279
   20MOL0     C 2632  10.245   6.867   1.717  0.8168  1.1369 -0.0309
   20MOL0     H 2633  10.793   6.832   1.599  0.0957 -1.8173 -2.3753
   20MOL0     H 2634  10.939   6.696   1.752 -0.4292  1.9190  0.0206
   20MOL0     H 2635  10.767   6.551   2.075 -4.3382 -2.1483  1.5015
   20MOL0     H 2636  10.728   6.392   2.006 -0.4707  0.3053 -1.0616
   20MOL0     H 2637  10.998   6.495   2.100  0.4189  0.4335  2.9876
   20MOL0     H 2638  10.974   6.332   2.042 -0.3776 -0.1816  0.6543
   20MOL0     H 2639  10.831   6.420   2.294  1.0293  0.3195  0.9183
   20MOL0     H 2640  10.976   6.329   2.293 -0.0567 -0.6740  0.2052
   20MOL0     H 2641  10.703   6.249   2.174  1.4792  0.8987 -3.0895
   20MOL0     H 2642  10.844   6.170   2.128  2.2133  0.1202  1.6188
   20MOL0     H 2643  10.894   6.129   2.378 -1.5153  1.2641  1.6937
   20MOL0     H 2644  10.727   6.182   2.402 -2.1799 -0.5458 -2.7642
   20MOL0     H 2645  10.637   5.993   2.263  1.5234  1.0507 -0.9050
   20MOL0     H 2646  10.809   5.944   2.225 -0.7901 -1.1070 -0.7456
   20MOL0     H 2647  10.664   5.922   2.498 -0.1638 -2.6797  0.7924
   20MOL0     H 2648  10.843   5.891   2.459 -0.4442 -1.8749  1.0776
   20MOL0     H 2649  10.571   5.748   2.404  0.2040 -2.0975  2.5520
   20MOL0     H 2650  10.710   5.714   2.302 -4.9197 -0.2357 -1.2764
   20MOL0     H 2651  10.602   5.744   2.675  0.2539  0.3943  0.1218
   20MOL0     H 2652  10.567   5.580   2.880 -1.2642 -1.2382  2.5410
   20MOL0     H 2653  10.496   5.444   2.805  0.6001  0.0836  1.1462
   20MOL0     H 2654  10.638   5.351   2.964 -1.1949 -0.8538 -1.4897
   20MOL0     H 2655  10.723   5.325   2.812  2.1481  0.6368 -0.6609
   20MOL0     H 2656  10.895   5.480   2.847  2.1207 -2.1059  2.3297
   20MOL0     H 2657  10.880   5.399   2.992  2.1882  2.6785  0.9527
   20MOL0     H 2658  10.730   5.598   3.069 -1.2078 -0.0430 -0.2168
   20MOL0     H 2659  10.785   5.676   2.915 -3.5905 -0.7197  0.5246
   20MOL0     H 2660  11.136   5.784   2.963  4.1478  2.3088  1.3027
   20MOL0     H 2661  11.180   6.005   3.042  0.3006 -1.1448  0.2103
   20MOL0     H 2662  11.048   6.173   3.603 -1.7031  0.4564  0.6487
   20MOL0     H 2663  11.185   6.313   3.735  0.6150  2.0501  0.6869
   20MOL0     H 2664  11.445   6.534   3.535 -4.2255 -0.3250 -4.1057
   20MOL0     H 2665  11.359   6.687   3.507 -0.4127 -0.4764 -0.6054
   20MOL0     H 2666  11.594   6.682   3.620  0.0250 -2.5817  0.3217
   20MOL0     H 2667  11.475   6.776   3.707 -1.1746  0.7170 -2.4645
   20MOL0     H 2668  11.431   6.551   3.835  0.5375 -0.0346  1.5676
   20MOL0     H 2669  11.586   6.498   3.767 -0.8634 -0.9022 -2.1761
   20MOL0     H 2670  11.541   6.749   3.942  1.4106  0.1900  0.1389
   20MOL0     H 2671  11.683   6.723   3.848 -0.5130 -0.6173 -1.0683
   20MOL0     H 2672  11.705   6.500   3.961 -2.5544 -0.9320  0.8113
   20MOL0     H 2673  11.577   6.560   4.081 -2.7533  3.1448 -0.5534
   20MOL0     H 2674  11.858   6.637   4.031 -1.0813 -4.4533 -0.9250
   20MOL0     H 2675  11.745   6.745   4.140 -0.5536  0.4169 -0.9994
   20MOL0     H 2676  11.817   6.444   4.169 -1.6733 -1.2917  0.7508
   20MOL0     H 2677  11.735   6.536   4.293 -0.5342 -1.1705 -0.2600
   20MOL0     H 2678  11.989   6.676   4.245 -0.7542  0.5758  0.7707
   20MOL0     H 2679  11.923   6.604   4.387  0.4661  4.2003 -0.6501
   20MOL0     H 2680  11.179   6.610   3.415  0.4781 -0.2197  0.5084
   20MOL0     H 2681  11.066   6.453   3.272 -4.4967  2.0239  0.1033
   20MOL0     H 2682  10.847   5.994   3.310  1.6687 -0.1781  0.4778
   20MOL0     H 2683  10.808   5.758   3.245 -0.0294 -2.5397 -2.0524
   20MOL0     H 2684  10.588   6.489   1.876 -0.6538 -1.1822 -1.9516
   20MOL0     H 2685  10.438   6.667   1.765  0.3674  1.8095  1.8545
   20MOL0     H 2686  10.489   7.241   1.523 -1.1812  2.5965 -0.0644
   20MOL0     H 2687  10.306   7.360   1.522  2.1816 -0.9224 -1.7148
   20MOL0     H 2688  10.088   7.394   1.378 -0.5133  0.8706  0.3989
   20MOL0     H 2689  10.129   7.460   1.532 -0.2652 -0.4485  1.0261
   20MOL0     H 2690   9.848   7.421   1.545  1.0234 -3.7790 -0.3303
   20MOL0     H 2691   9.870   7.412   1.369  1.8927  2.3126 -2.5863
   20MOL0     H 2692   9.823   7.646   1.426  0.2395  0.8812  2.0892
   20MOL0     H 2693   9.995   7.639   1.379  0.3869 -1.3295 -0.5483
   20MOL0     H 2694   9.893   7.635   1.676  0.9731  0.6826  1.9268
   20MOL0     H 2695  10.062   7.629   1.613 -0.0689  1.8278 -1.8210
   20MOL0     H 2696  10.002   8.026   1.580  1.6508 -0.2573  2.0719
   20MOL0     H 2697  10.055   7.046   1.655  1.6765 -1.4495 -2.6907
   20MOL0     H 2698  10.141   6.843   1.740  0.7320  0.3766 -1.1386
   20MOL0     H 2699  10.277   6.785   1.652 -0.1890  0.4823  0.2740
   20MOL0     H 2700  10.302   6.862   1.810 -1.5722  3.2735  1.7168
   21MOL0     O 2701   3.769  11.166   7.712  0.3233  0.2320  0.0558
   21MOL0     C 2702   3.698  11.197   7.624 -0.2374  0.7003 -0.2973
   21MOL0     O 2703   3.608  11.300   7.632  0.4158  0.4771  0.1641
   21MOL0     C 2704   3.563  11.342   7.760 -0.0405  0.6992 -0.4952
   21MOL0     C 2705   3.644  11.409   7.854  0.3240 -0.0881  0.1005
   21MOL0     C 2706   3.588  11.455   7.979  0.0786 -0.0065 -0.3374
   21MOL0     C 2707   3.452  11.459   8.003 -0.1968 -0.4356 -0.6228
   21MOL0     O 2708   3.403  11.533   8.113  0.2721 -0.6892  0.0535
   21MOL0     C 2709   3.262  11.530   8.133  0.4833 -1.0610  0.2614
   21MOL0     C 2710   3.220  11.613   8.257 -0.2092 -0.8105  0.1707
   21MOL0     C 2711   3.246  11.760   8.240 -0.2278 -0.4996  0.8080
   21MOL0     C 2712   3.236  11.845   8.366  0.1194 -0.9842  0.3460
   21MOL0     C 2713   3.319  11.974   8.361  0.1788  0.0778  0.4562
   21MOL0     C 2714   3.313  12.051   8.499 -0.2457 -0.2143  0.2294
   21MOL0     C 2715   3.392  12.190   8.490  0.0590  0.1530 -0.1976
   21MOL0     C 2716   3.314  12.309   8.453  0.3310 -0.5295 -1.1188
   21MOL0     N 2717   3.209  12.347   8.542  0.0429 -0.0893  0.6719
   21MOL0     C 2718   3.221  12.343   8.677 -0.3491 -0.4412 -0.4683
   21MOL0     C 2719   3.093  12.346   8.721  0.1178 -0.5152  0.8249
   21MOL0     C 2720   3.048  12.334   8.862 -0.1084 -0.0206  0.5691
   21MOL0     C 2721   2.986  12.451   8.934 -0.1046  0.4806  0.5283
   21MOL0     C 2722   3.088  12.567   8.938  0.3283  0.4785 -0.4100
   21MOL0     C 2723   3.005  12.699   8.937 -0.6827  0.0246 -0.1489
   21MOL0     O 2724   2.904  12.691   9.038 -0.3865  0.1636 -0.6134
   21MOL0     C 2725   2.935  12.688   9.171  0.4750 -0.2038 -0.8352
   21MOL0     C 2726   3.051  12.734   9.235  0.2422 -0.3914  1.7676
   21MOL0     C 2727   3.060  12.751   9.371 -0.3512  1.1144  0.0159
   21MOL0     C 2728   2.959  12.692   9.455 -0.1658 -0.2864  0.2741
   21MOL0     C 2729   2.974  12.699   9.603  0.0404  1.0319  0.4669
   21MOL0     O 2730   2.861  12.651   9.676  0.8215  0.4443  0.2956
   21MOL0     C 2731   2.879  12.634   9.808  0.9003  1.0771 -0.8809
   21MOL0     C 2732   2.818  12.720   9.896 -0.4909 -0.3552  0.1034
   21MOL0     C 2733   2.828  12.713  10.033 -0.2513 -0.0991 -0.1600
   21MOL0     C 2734   2.907  12.617  10.098  0.4787 -0.4960 -0.1911
   21MOL0     O 2735   2.919  12.613  10.236  0.3932  0.0356 -0.1104
   21MOL0     C 2736   2.971  12.501  10.302  0.1742  0.3754 -0.6082
   21MOL0     C 2737   2.970  12.509  10.450  0.4654  0.5207 -0.4118
   21MOL0     C 2738   3.049  12.632  10.512  0.2373 -0.7611 -0.4041
   21MOL0     C 2739   3.193  12.603  10.531  1.1241 -0.4070  0.5096
   21MOL0     C 2740   3.279  12.726  10.575 -0.0796  0.4673 -0.2717
   21MOL0     C 2741   3.267  12.845  10.482 -0.6301 -0.6905 -0.7914
   21MOL0     C 2742   3.371  12.951  10.518 -0.3647 -0.7117  0.3463
   21MOL0     C 2743   3.514  12.902  10.489  0.3044  0.4897 -0.4856
   21MOL0    Cl 2744   3.527  12.924  10.306  0.4475 -0.2045  0.1492
   21MOL0     C 2745   2.964  12.526  10.009  0.8837 -0.5952  1.0390
   21MOL0     C 2746   2.954  12.536   9.873  0.0954 -0.2468 -0.1129
   21MOL0     O 2747   3.073  12.743   9.657  0.4203 -0.1461 -0.0140
   21MOL0     C 2748   2.839  12.644   9.392 -0.9018  0.2816 -0.2468
   21MOL0     C 2749   2.830  12.650   9.257  0.0677  1.3828  0.8441
   21MOL0     N 2750   3.014  12.385   8.608  0.5540 -0.2943  0.0236
   21MOL0     N 2751   3.083  12.371   8.501 -0.8185 -0.6187  1.1801
   21MOL0     C 2752   3.371  11.384   7.909  0.3222  0.3841  0.2273
   21MOL0     C 2753   3.430  11.330   7.797  0.3647 -0.1126  0.8410
   21MOL0     C 2754   3.705  11.125   7.493 -0.5003 -0.5063  0.7926
   21MOL0     C 2755   3.624  11.184   7.390  0.7909  0.1318  0.1192
   21MOL0     C 2756   3.623  11.132   7.264 -0.0228  0.1404 -0.1735
   21MOL0     C 2757   3.703  11.031   7.222 -0.1997  0.9880 -0.5062
   21MOL0     O 2758   3.700  10.995   7.086  0.6329  0.2260 -0.3439
   21MOL0     C 2759   3.791  10.900   7.037  0.1094 -0.8980 -0.0693
   21MOL0     C 2760   3.734  10.839   6.904 -0.6126 -0.0025 -0.2437
   21MOL0     C 2761   3.607  10.752   6.924 -0.5992  0.3151  0.3936
   21MOL0     C 2762   3.574  10.705   6.785  0.0917  0.3219  0.1395
   21MOL0     C 2763   3.476  10.598   6.799  0.5804  0.8831  0.8341
   21MOL0     C 2764   3.400  10.506   6.821  0.2201 -0.1074  0.0345
   21MOL0     C 2765   3.782  10.970   7.323  0.6103  0.0214 -0.6351
   21MOL0     C 2766   3.783  11.017   7.456  0.1202  0.2231 -0.9623
   21MOL0     C 2767   3.871  10.938   7.544  1.0064 -0.1718 -0.5923
   21MOL0     H 2768   3.752  11.410   7.844  0.3924 -0.2379  0.7260
   21MOL0     H 2769   3.652  11.504   8.051  1.6714 -1.7526 -0.4705
   21MOL0     H 2770   3.219  11.582   8.046  0.3275 -0.3193  0.7687
   21MOL0     H 2771   3.214  11.432   8.138  2.9351 -2.4514 -1.3574
   21MOL0     H 2772   3.278  11.574   8.342 -1.5082 -2.4022  0.3652
   21MOL0     H 2773   3.113  11.601   8.272 -1.4723  3.7505 -3.1744
   21MOL0     H 2774   3.183  11.803   8.162  1.4678  0.7864  0.0917
   21MOL0     H 2775   3.350  11.782   8.213 -0.1475 -1.6649  0.0983
   21MOL0     H 2776   3.131  11.862   8.390  0.3953 -1.1375  1.7342
   21MOL0     H 2777   3.260  11.793   8.460 -0.6537 -1.3219  0.3716
   21MOL0     H 2778   3.427  11.965   8.345  0.8974  1.0064  4.0118
   21MOL0     H 2779   3.269  12.036   8.286  0.0175  1.4085  1.6258
   21MOL0     H 2780   3.209  12.078   8.522  0.0946  0.3562  1.1233
   21MOL0     H 2781   3.347  11.983   8.578  1.1134  1.8292  1.4753
   21MOL0     H 2782   3.468  12.184   8.412 -0.7009  1.2251 -1.0486
   21MOL0     H 2783   3.430  12.198   8.593 -0.4969 -0.2793  0.0464
   21MOL0     H 2784   3.383  12.391   8.434 -0.4144 -0.0018 -1.5897
   21MOL0     H 2785   3.267  12.285   8.357 -1.9981  2.1609 -0.7843
   21MOL0     H 2786   3.308  12.328   8.741 -0.2136  1.2646 -0.1858
   21MOL0     H 2787   2.966  12.263   8.847  1.0177 -1.1139 -0.6585
   21MOL0     H 2788   3.130  12.292   8.923 -1.1923  0.0692  2.1549
   21MOL0     H 2789   2.898  12.484   8.877  1.4026  1.1148 -1.5089
   21MOL0     H 2790   2.968  12.414   9.036  0.1417  0.4595  0.5633
   21MOL0     H 2791   3.140  12.568   8.842 -0.1322 -2.5420 -0.7824
   21MOL0     H 2792   3.161  12.562   9.019 -0.5148  1.3584  0.4356
   21MOL0     H 2793   2.957  12.710   8.839 -2.1895 -4.4538 -0.1699
   21MOL0     H 2794   3.062  12.792   8.945 -1.7223  0.9633 -2.7540
   21MOL0     H 2795   3.125  12.783   9.172 -2.8839  1.7324 -0.5160
   21MOL0     H 2796   3.140  12.815   9.404  2.5652 -1.3746 -1.6525
   21MOL0     H 2797   2.775  12.808   9.849 -1.2139 -0.8226 -0.1405
   21MOL0     H 2798   2.783  12.797  10.084 -2.9105 -0.5273 -1.6651
   21MOL0     H 2799   2.911  12.411  10.283 -1.8651  0.9258  2.4169
   21MOL0     H 2800   3.077  12.500  10.276  0.0069  0.0788 -1.2827
   21MOL0     H 2801   2.866  12.530  10.478  0.8860 -0.6433  2.3156
   21MOL0     H 2802   3.010  12.423  10.503  0.1091 -0.9940 -2.4730
   21MOL0     H 2803   3.037  12.723  10.452 -1.4995 -0.5064  0.2459
   21MOL0     H 2804   3.019  12.659  10.614 -0.1391 -4.1486  0.5036
   21MOL0     H 2805   3.227  12.567  10.433  1.0706  1.0421 -0.0684
   21MOL0     H 2806   3.198  12.522  10.605 -0.8003 -1.5963 -0.5667
   21MOL0     H 2807   3.383  12.696  10.592  0.4536  2.0838 -0.5638
   21MOL0     H 2808   3.236  12.754  10.672 -3.6848  0.5243 -1.7445
   21MOL0     H 2809   3.280  12.808  10.380  2.6847  0.2945 -0.8535
   21MOL0     H 2810   3.169  12.891  10.494  0.2512  0.6682  2.3551
   21MOL0     H 2811   3.357  12.979  10.623 -0.5644 -1.4404  0.5245
   21MOL0     H 2812   3.345  13.041  10.462 -2.0688  0.6356  3.1226
   21MOL0     H 2813   3.583  12.964  10.546  2.2721 -0.1050 -2.1102
   21MOL0     H 2814   3.521  12.798  10.519 -1.6244  0.8353  1.4441
   21MOL0     H 2815   3.044  12.461  10.043 -0.6053 -2.4048  1.2479
   21MOL0     H 2816   3.014  12.475   9.807  3.7489  0.8275  1.9314
   21MOL0     H 2817   2.754  12.619   9.455 -2.2653  0.0158 -2.1180
   21MOL0     H 2818   2.742  12.620   9.202  0.9955  0.8285 -0.4158
   21MOL0     H 2819   3.266  11.355   7.917  0.4005  0.0159 -0.0708
   21MOL0     H 2820   3.363  11.286   7.725  0.2198 -2.2823  2.2350
   21MOL0     H 2821   3.552  11.264   7.405  1.4161  1.0048 -1.3246
   21MOL0     H 2822   3.551  11.165   7.190 -1.1868 -0.8906  0.4506
   21MOL0     H 2823   3.805  10.823   7.113 -3.5128  0.0606  1.7919
   21MOL0     H 2824   3.893  10.939   7.025  0.2167 -0.8655  0.8899
   21MOL0     H 2825   3.811  10.774   6.862 -1.8149 -2.1752  0.7397
   21MOL0     H 2826   3.715  10.919   6.833 -0.2450  1.4223  1.1984
   21MOL0     H 2827   3.534  10.819   6.971  2.0864  2.5588  1.6995
   21MOL0     H 2828   3.627  10.662   6.982  2.6367  1.6033  1.4678
   21MOL0     H 2829   3.548  10.792   6.724 -1.0989  0.3088  0.6050
   21MOL0     H 2830   3.664  10.661   6.739  2.3603  2.0518  2.6257
   21MOL0     H 2831   3.319  10.439   6.844  0.5328 -1.0948 -1.5499
   21MOL0     H 2832   3.841  10.883   7.298  1.2326  0.0825  0.5642
   21MOL0     H 2833   3.927  10.866   7.484  0.4333 -3.0261  2.0672
   21MOL0     H 2834   3.946  11.004   7.587 -1.7061  1.6866  1.6658
   21MOL0     H 2835   3.811  10.884   7.618 -0.0744 -2.0407 -2.7302
   22MOL0     O 2836   9.578   7.221   4.248  0.9324 -0.0365  0.0009
   22MOL0     C 2837   9.621   7.180   4.354  0.1126  0.1222  0.0138
   22MOL0     O 2838   9.583   7.234   4.476  0.8711  0.2311  0.3050
   22MOL0     C 2839   9.510   7.352   4.474  0.3180  0.3833  1.1682
   22MOL0     C 2840   9.372   7.362   4.491 -0.1002  0.3747  0.7202
   22MOL0     C 2841   9.313   7.484   4.473 -0.2820  0.6892  0.6867
   22MOL0     C 2842   9.387   7.602   4.438  0.4487 -0.5206  0.8466
   22MOL0     O 2843   9.320   7.719   4.401  1.0332  0.8316 -0.4391
   22MOL0     C 2844   9.321   7.746   4.263  0.2817 -0.2593  0.4037
   22MOL0     C 2845   9.185   7.792   4.208  0.1237  0.0554 -0.2856
   22MOL0     C 2846   9.070   7.683   4.243 -0.6819  0.0664 -0.5638
   22MOL0     C 2847   8.935   7.749   4.201  0.4347  0.2238  0.3154
   22MOL0     C 2848   8.823   7.634   4.183 -0.7819  1.0062  0.6543
   22MOL0     C 2849   8.792   7.553   4.305  0.4420 -1.2059  0.0979
   22MOL0     C 2850   8.686   7.440   4.276 -0.7075 -1.1700 -0.6230
   22MOL0     C 2851   8.643   7.360   4.403  0.6361  0.3704 -0.3102
   22MOL0     N 2852   8.542   7.253   4.376 -0.3065 -0.5317 -0.6350
   22MOL0     C 2853   8.421   7.298   4.327  0.1735 -0.2913 -0.0824
   22MOL0     C 2854   8.349   7.181   4.324  0.0825 -0.5012 -0.2777
   22MOL0     C 2855   8.200   7.167   4.303  0.1736 -0.7360 -0.2483
   22MOL0     C 2856   8.129   7.232   4.427 -0.2660 -0.0533 -0.1590
   22MOL0     C 2857   7.987   7.194   4.467  0.2850 -1.1653 -0.0399
   22MOL0     C 2858   7.942   7.290   4.578  0.5641 -0.4659 -0.0355
   22MOL0     O 2859   7.802   7.269   4.611  0.4656  0.3500 -0.7742
   22MOL0     C 2860   7.779   7.217   4.740 -0.2783  0.2989  1.2859
   22MOL0     C 2861   7.653   7.255   4.801 -0.4814  0.4940 -0.3864
   22MOL0     C 2862   7.636   7.201   4.928 -1.0976 -0.8510  0.4159
   22MOL0     C 2863   7.734   7.115   4.996 -0.0736  1.2007  0.5272
   22MOL0     C 2864   7.691   7.063   5.133 -0.1835  0.1048 -0.2942
   22MOL0     O 2865   7.556   7.058   5.168  0.1015  0.6228 -0.5997
   22MOL0     C 2866   7.531   7.004   5.297  0.5396 -0.0694 -0.6095
   22MOL0     C 2867   7.563   6.871   5.338 -0.0047 -0.3948  1.0890
   22MOL0     C 2868   7.517   6.827   5.462  0.4919 -0.3290 -0.1532
   22MOL0     C 2869   7.466   6.923   5.566 -0.4255  0.3156 -0.3569
   22MOL0     O 2870   7.426   6.886   5.694 -0.1321 -0.9973  0.2205
   22MOL0     C 2871   7.519   6.784   5.736 -0.1412  0.2698  0.2123
   22MOL0     C 2872   7.526   6.777   5.885 -0.5243  0.5867 -0.0404
   22MOL0     C 2873   7.389   6.763   5.952 -0.2091 -0.9037  0.2638
   22MOL0     C 2874   7.399   6.726   6.099  0.1473  0.5278 -1.1320
   22MOL0     C 2875   7.261   6.678   6.150 -0.6638  0.7322 -0.2189
   22MOL0     C 2876   7.247   6.524   6.112 -0.0553  0.6548  1.0141
   22MOL0     C 2877   7.110   6.467   6.134 -0.0760 -0.4726 -0.8216
   22MOL0     C 2878   7.106   6.449   6.287  0.1072 -0.1862  0.0346
   22MOL0    Cl 2879   6.971   6.329   6.342 -0.6026 -0.2772  0.0849
   22MOL0     C 2880   7.435   7.047   5.519 -0.1745 -0.2601 -0.8461
   22MOL0     C 2881   7.456   7.085   5.382 -0.1526  0.3663  1.1240
   22MOL0     O 2882   7.779   7.025   5.208  0.2800 -0.2789 -0.0101
   22MOL0     C 2883   7.848   7.077   4.930 -0.3250  0.1801  0.3786
   22MOL0     C 2884   7.874   7.126   4.798  0.1623  0.3256 -0.9181
   22MOL0     N 2885   8.429   7.080   4.370 -0.2817 -0.1592 -0.6956
   22MOL0     N 2886   8.550   7.116   4.390 -0.8631  0.6175 -0.4021
   22MOL0     C 2887   9.522   7.594   4.423  0.5029  0.7894 -0.0876
   22MOL0     C 2888   9.583   7.473   4.446  0.2300  0.5900 -0.5159
   22MOL0     C 2889   9.734   7.084   4.353  0.9794  0.0318  0.1676
   22MOL0     C 2890   9.813   7.084   4.467 -0.1627 -0.2448  1.0280
   22MOL0     C 2891   9.930   7.009   4.463 -0.4455  0.3054  0.3615
   22MOL0     C 2892   9.966   6.924   4.359 -0.4035  0.5788 -0.2239
   22MOL0     O 2893  10.077   6.845   4.352 -0.5002 -0.1128 -0.8162
   22MOL0     C 2894  10.171   6.822   4.464 -0.0918  0.2080  0.8594
   22MOL0     C 2895  10.122   6.710   4.559 -1.0927 -0.5766  0.3455
   22MOL0     C 2896  10.052   6.769   4.681 -0.0082  0.3473  0.3115
   22MOL0     C 2897  10.039   6.664   4.790 -0.3114  0.2789 -0.2696
   22MOL0     C 2898   9.954   6.546   4.750 -0.0179  0.0613 -0.4980
   22MOL0     C 2899   9.888   6.443   4.726 -0.8402 -0.6922 -0.9753
   22MOL0     C 2900   9.890   6.923   4.248  0.3592 -0.3434  0.5144
   22MOL0     C 2901   9.776   7.012   4.235  0.2633  1.1351 -0.2907
   22MOL0     C 2902   9.686   6.994   4.115 -0.7778 -0.4025 -0.5354
   22MOL0     H 2903   9.321   7.271   4.520  1.0854 -0.6206 -0.1969
   22MOL0     H 2904   9.209   7.487   4.502  0.1693 -2.9743  3.3462
   22MOL0     H 2905   9.392   7.827   4.245  0.1517 -0.3217 -0.4136
   22MOL0     H 2906   9.359   7.661   4.206 -0.1076  0.3088 -0.7307
   22MOL0     H 2907   9.200   7.797   4.100  2.9398  2.9164  0.0823
   22MOL0     H 2908   9.158   7.885   4.259  0.8820  0.1638 -0.0723
   22MOL0     H 2909   9.080   7.647   4.346  0.2788 -1.6726 -1.2348
   22MOL0     H 2910   9.083   7.599   4.174 -1.4781  0.6772 -1.4803
   22MOL0     H 2911   8.906   7.824   4.275  0.6121 -0.0782  0.6936
   22MOL0     H 2912   8.946   7.796   4.103 -0.3367  0.6062  0.4027
   22MOL0     H 2913   8.741   7.673   4.122 -0.3430  0.9447  0.0106
   22MOL0     H 2914   8.866   7.565   4.110 -1.0602  2.3403 -0.8369
   22MOL0     H 2915   8.885   7.507   4.340  1.5852 -0.3302 -1.6647
   22MOL0     H 2916   8.759   7.621   4.384  1.2186 -0.1947 -0.4295
   22MOL0     H 2917   8.716   7.369   4.198 -0.4705  0.6952 -2.2960
   22MOL0     H 2918   8.600   7.492   4.231 -0.7385 -1.8879 -1.4373
   22MOL0     H 2919   8.730   7.308   4.444 -0.8623 -0.1351  2.4717
   22MOL0     H 2920   8.601   7.434   4.472 -0.8043  0.3506 -1.1098
   22MOL0     H 2921   8.375   7.396   4.325 -0.5370 -0.6376 -1.1868
   22MOL0     H 2922   8.167   7.207   4.207  2.7271  1.6207 -0.2764
   22MOL0     H 2923   8.185   7.059   4.293  5.9602 -1.8670 -0.3728
   22MOL0     H 2924   8.192   7.213   4.515 -1.0391 -4.5676 -0.3302
   22MOL0     H 2925   8.134   7.341   4.416 -1.8809  0.0535 -0.0316
   22MOL0     H 2926   7.990   7.092   4.506 -2.8990 -2.2330 -2.2175
   22MOL0     H 2927   7.914   7.187   4.386  1.4435 -4.0172 -0.9300
   22MOL0     H 2928   7.949   7.396   4.552 -0.1050 -0.8186 -1.7832
   22MOL0     H 2929   7.999   7.285   4.671 -0.3244  0.6467  0.5833
   22MOL0     H 2930   7.587   7.329   4.756  1.9525  3.2390  0.2369
   22MOL0     H 2931   7.553   7.232   4.992  0.1153 -0.3734  1.8159
   22MOL0     H 2932   7.599   6.812   5.254 -0.4854 -0.3925  0.8788
   22MOL0     H 2933   7.526   6.721   5.487 -1.4008 -0.6710 -0.7456
   22MOL0     H 2934   7.489   6.686   5.697 -0.2699 -0.1902  1.4308
   22MOL0     H 2935   7.620   6.810   5.702 -0.8547 -0.1573 -2.4305
   22MOL0     H 2936   7.578   6.687   5.918 -2.4125 -1.5979 -2.5382
   22MOL0     H 2937   7.569   6.871   5.920 -1.4086  0.8672  0.3185
   22MOL0     H 2938   7.342   6.860   5.935  1.0079  0.1943  2.6212
   22MOL0     H 2939   7.330   6.690   5.897 -1.9070  0.5142  0.1277
   22MOL0     H 2940   7.436   6.807   6.162  0.1161 -0.0396 -0.3770
   22MOL0     H 2941   7.473   6.647   6.113  0.5772  0.7452 -2.0757
   22MOL0     H 2942   7.172   6.731   6.114 -3.0057 -1.7048  1.5893
   22MOL0     H 2943   7.262   6.687   6.259 -1.2788  0.3042 -0.1717
   22MOL0     H 2944   7.268   6.509   6.006 -0.0059 -2.6167  1.3965
   22MOL0     H 2945   7.325   6.472   6.170  0.0514 -0.8099 -0.3970
   22MOL0     H 2946   7.109   6.371   6.081 -0.6814  0.3788 -2.4294
   22MOL0     H 2947   7.021   6.522   6.101 -0.7263 -0.5424  0.7332
   22MOL0     H 2948   7.203   6.401   6.305 -0.1480 -1.7268 -2.2845
   22MOL0     H 2949   7.090   6.531   6.357 -2.2941 -2.1933  2.0444
   22MOL0     H 2950   7.395   7.121   5.588 -2.4859 -3.2679  1.2798
   22MOL0     H 2951   7.429   7.183   5.344  1.6302  0.3457 -0.3347
   22MOL0     H 2952   7.919   7.006   4.971  1.1034  1.0225 -0.5450
   22MOL0     H 2953   7.954   7.086   4.735  1.3233 -0.6430  1.0814
   22MOL0     H 2954   9.579   7.681   4.391  2.3253 -0.1103  0.5861
   22MOL0     H 2955   9.691   7.469   4.438  0.4285  1.6861  1.0568
   22MOL0     H 2956   9.798   7.136   4.561  1.2198  1.4270  0.3818
   22MOL0     H 2957   9.994   7.004   4.550 -0.6657 -1.7204  0.4446
   22MOL0     H 2958  10.208   6.916   4.507  1.7702 -0.4540  0.7866
   22MOL0     H 2959  10.260   6.778   4.419 -0.6886  0.0595 -0.1872
   22MOL0     H 2960  10.219   6.677   4.596 -0.1894 -1.5889 -2.6076
   22MOL0     H 2961  10.063   6.634   4.506  1.2676 -1.9390 -0.4570
   22MOL0     H 2962   9.953   6.808   4.653 -0.8001 -2.0229 -0.4646
   22MOL0     H 2963  10.103   6.862   4.708  0.2972  1.1404 -2.6047
   22MOL0     H 2964  10.137   6.622   4.811  0.2386  1.0366 -1.2557
   22MOL0     H 2965   9.999   6.712   4.880 -0.3439 -1.0197  0.4317
   22MOL0     H 2966   9.822   6.359   4.729 -2.1955  0.2268  3.5065
   22MOL0     H 2967   9.919   6.858   4.166 -0.9906  0.7929 -0.9448
   22MOL0     H 2968   9.710   7.088   4.064 -0.3136  0.1239  0.6156
   22MOL0     H 2969   9.720   6.904   4.063 -0.7397 -1.8573  1.8514
   22MOL0     H 2970   9.579   6.988   4.134 -0.4653  0.1611  1.6504
   23MOL0     O 2971   8.402   1.383   4.399 -0.3178  0.0873  0.1682
   23MOL0     C 2972   8.484   1.301   4.363  0.8133  0.1984  0.0121
   23MOL0     O 2973   8.483   1.244   4.237  0.2728  0.5120 -0.1201
   23MOL0     C 2974   8.363   1.200   4.191  0.5873 -0.5006  0.2469
   23MOL0     C 2975   8.249   1.152   4.263  0.1107  0.3103  0.2345
   23MOL0     C 2976   8.129   1.101   4.202  0.1251 -0.8545  0.4824
   23MOL0     C 2977   8.121   1.095   4.059 -0.9640 -0.5313  1.1570
   23MOL0     O 2978   8.023   1.047   3.981 -0.6599  0.6963 -0.7338
   23MOL0     C 2979   7.905   0.994   4.043 -0.1136 -1.2046  0.2615
   23MOL0     C 2980   7.793   0.972   3.936 -0.2655  0.7413 -0.3227
   23MOL0     C 2981   7.650   0.998   3.989 -0.4559  0.3642  0.0814
   23MOL0     C 2982   7.546   0.962   3.886  0.1048 -0.4347  0.1472
   23MOL0     C 2983   7.406   1.024   3.920 -0.8165 -0.1258 -0.2512
   23MOL0     C 2984   7.284   0.974   3.831 -0.2592 -0.2841  0.2664
   23MOL0     C 2985   7.272   0.829   3.790  0.0995 -0.6809 -0.5846
   23MOL0     C 2986   7.276   0.741   3.916 -0.4357 -0.1018  0.2564
   23MOL0     N 2987   7.180   0.787   4.017 -0.1925 -0.5419 -0.6769
   23MOL0     C 2988   7.052   0.828   4.001 -1.3855 -0.4911 -0.3631
   23MOL0     C 2989   7.012   0.879   4.118 -0.0152  0.4422 -0.0003
   23MOL0     C 2990   6.861   0.906   4.123 -0.8543  0.2400 -0.1963
   23MOL0     C 2991   6.803   0.926   4.257 -0.0343 -0.4928  0.4977
   23MOL0     C 2992   6.833   1.069   4.311  0.0614  0.5891 -0.2637
   23MOL0     C 2993   6.812   1.098   4.454  0.5032  1.0832 -0.3882
   23MOL0     O 2994   6.866   0.985   4.531 -0.7659  0.0422  0.1156
   23MOL0     C 2995   6.852   0.999   4.670  0.0372  0.7149 -1.2390
   23MOL0     C 2996   6.898   0.894   4.754  0.0843  0.2802 -0.3659
   23MOL0     C 2997   6.891   0.898   4.891 -0.4543 -0.6103  0.0309
   23MOL0     C 2998   6.832   1.010   4.949  1.1783  0.0093 -0.6920
   23MOL0     C 2999   6.825   1.018   5.096 -0.1326 -0.7767  0.1060
   23MOL0     O 3000   6.902   0.923   5.164  0.1974 -0.7053  0.6578
   23MOL0     C 3001   6.896   0.929   5.296  0.7403 -0.1074 -0.1216
   23MOL0     C 3002   6.998   0.990   5.366 -0.1485 -0.9383  0.2862
   23MOL0     C 3003   6.990   1.002   5.505  0.3721 -0.4296 -0.2602
   23MOL0     C 3004   6.884   0.948   5.576  0.7270  0.3633 -0.2289
   23MOL0     O 3005   6.874   0.965   5.709  0.5329 -0.4093 -0.4876
   23MOL0     C 3006   6.912   0.865   5.803  0.5739 -0.6103  0.9928
   23MOL0     C 3007   7.048   0.891   5.851 -1.1940 -0.1154  0.4232
   23MOL0     C 3008   7.099   0.780   5.929  0.1020  0.4760  0.4085
   23MOL0     C 3009   7.235   0.806   5.984 -0.2857  0.1222 -0.7753
   23MOL0     C 3010   7.278   0.682   6.056 -0.9284  0.1281  0.0245
   23MOL0     C 3011   7.419   0.716   6.130  0.9045 -0.3687  0.4443
   23MOL0     C 3012   7.478   0.589   6.192 -0.4484  0.7575  0.0954
   23MOL0     C 3013   7.607   0.627   6.258  0.1600  0.2582 -0.3627
   23MOL0    Cl 3014   7.676   0.478   6.339 -0.0694 -0.0680 -0.5001
   23MOL0     C 3015   6.792   0.869   5.507 -0.1580 -0.2449 -0.0372
   23MOL0     C 3016   6.787   0.871   5.369 -0.4854 -0.5726 -0.3459
   23MOL0     O 3017   6.756   1.104   5.156  0.0305 -0.2088 -0.4370
   23MOL0     C 3018   6.765   1.100   4.869 -0.8965  0.2661 -0.2884
   23MOL0     C 3019   6.783   1.097   4.735  0.1103 -0.5297 -0.2812
   23MOL0     N 3020   7.112   0.858   4.213  0.2596 -0.4301 -0.3920
   23MOL0     N 3021   7.212   0.813   4.147 -0.3168  0.0853 -0.7086
   23MOL0     C 3022   8.244   1.130   3.985 -0.0031  0.0750  0.1273
   23MOL0     C 3023   8.353   1.176   4.053  0.3242  0.4544 -0.5380
   23MOL0     C 3024   8.602   1.283   4.436  0.0438 -0.1020  0.7747
   23MOL0     C 3025   8.688   1.393   4.455 -0.2416  0.0282 -0.2194
   23MOL0     C 3026   8.808   1.376   4.527  0.5517 -0.3490 -0.9597
   23MOL0     C 3027   8.824   1.262   4.613 -0.3150 -0.0387  0.7673
   23MOL0     O 3028   8.948   1.260   4.683  0.4910 -0.4464  0.0279
   23MOL0     C 3029   8.991   1.129   4.714  0.2749 -0.4801  0.4373
   23MOL0     C 3030   9.138   1.116   4.731 -0.4911 -0.4513 -0.3864
   23MOL0     C 3031   9.199   0.982   4.730 -0.8671 -0.1915 -0.2820
   23MOL0     C 3032   9.183   0.909   4.599 -0.3085  0.4761 -0.0418
   23MOL0     C 3033   9.249   0.787   4.612  0.1072  0.1198 -0.3778
   23MOL0     C 3034   9.289   0.677   4.630 -0.0818 -0.6876 -1.5081
   23MOL0     C 3035   8.728   1.151   4.599 -0.5083  0.6322 -0.3913
   23MOL0     C 3036   8.622   1.161   4.508 -0.3604 -0.6833  0.0774
   23MOL0     C 3037   8.543   1.038   4.481  0.0202 -0.3201 -0.3705
   23MOL0     H 3038   8.261   1.146   4.371  0.5530 -1.7118  0.1234
   23MOL0     H 3039   8.049   1.070   4.269 -0.0924 -1.6668 -0.1483
   23MOL0     H 3040   7.919   0.899   4.095  2.1896 -1.6867 -1.1031
   23MOL0     H 3041   7.866   1.071   4.110  0.5123 -2.4929  2.2012
   23MOL0     H 3042   7.800   0.864   3.916  1.8582  1.1094 -1.9968
   23MOL0     H 3043   7.820   1.023   3.843  0.5194 -1.4401 -1.3819
   23MOL0     H 3044   7.634   1.103   4.016  5.0070  1.4688  0.3707
   23MOL0     H 3045   7.630   0.935   4.076  1.2283  2.3378  2.0113
   23MOL0     H 3046   7.575   1.002   3.788 -0.4943  1.1686  0.5858
   23MOL0     H 3047   7.535   0.853   3.891 -3.6678 -0.1584  4.5107
   23MOL0     H 3048   7.376   1.012   4.025 -1.3567 -1.8719 -0.5681
   23MOL0     H 3049   7.428   1.131   3.912 -0.3134 -0.0234  1.9159
   23MOL0     H 3050   7.189   1.009   3.871  0.5865  2.2354  0.1897
   23MOL0     H 3051   7.295   1.027   3.736 -0.4516  0.1284  0.4771
   23MOL0     H 3052   7.350   0.800   3.719  0.4353 -1.2832  0.0138
   23MOL0     H 3053   7.177   0.825   3.736 -0.2721  1.1581 -0.1275
   23MOL0     H 3054   7.259   0.636   3.890 -3.5381  0.6542 -1.1346
   23MOL0     H 3055   7.375   0.741   3.965 -0.7754  0.9091  0.9731
   23MOL0     H 3056   6.988   0.804   3.916 -0.9686  0.3068 -0.9162
   23MOL0     H 3057   6.857   0.996   4.062 -0.6822 -1.1948 -2.4224
   23MOL0     H 3058   6.808   0.825   4.072  2.9346  0.0240 -4.4434
   23MOL0     H 3059   6.695   0.915   4.264 -0.1356  0.6990  0.9329
   23MOL0     H 3060   6.838   0.836   4.309 -0.0743 -1.4715 -1.1086
   23MOL0     H 3061   6.768   1.140   4.259  0.0998  0.5019 -0.4292
   23MOL0     H 3062   6.935   1.098   4.284 -0.8001  1.5641 -2.7013
   23MOL0     H 3063   6.705   1.115   4.470  0.5282 -0.0170  1.1920
   23MOL0     H 3064   6.860   1.194   4.472 -1.8175  2.2038  0.2079
   23MOL0     H 3065   6.946   0.815   4.696  1.7230  0.6468  0.4504
   23MOL0     H 3066   6.936   0.810   4.936  2.5168  0.1906 -1.0760
   23MOL0     H 3067   7.078   1.027   5.303  0.3999 -0.0727  1.4557
   23MOL0     H 3068   7.056   1.064   5.563 -2.1671  1.2084  1.0753
   23MOL0     H 3069   6.850   0.860   5.893  2.2221 -1.7284  2.1219
   23MOL0     H 3070   6.904   0.763   5.763 -4.5805 -0.5165  1.1951
   23MOL0     H 3071   7.110   0.908   5.763  0.3015 -0.9491  1.2640
   23MOL0     H 3072   7.055   0.977   5.918  0.0387  0.6373 -0.6365
   23MOL0     H 3073   7.023   0.748   6.001  1.2591  1.5386  2.2010
   23MOL0     H 3074   7.109   0.702   5.853  0.7326 -0.6759  1.6436
   23MOL0     H 3075   7.218   0.879   6.063 -2.8801  2.2923 -3.1262
   23MOL0     H 3076   7.306   0.840   5.908 -0.3381  0.9532 -0.4690
   23MOL0     H 3077   7.300   0.598   5.989  3.6157  0.1938  1.1079
   23MOL0     H 3078   7.198   0.649   6.122 -1.0537  0.8494  0.2425
   23MOL0     H 3079   7.494   0.741   6.055 -1.1403 -2.4665 -2.5565
   23MOL0     H 3080   7.399   0.788   6.209 -2.4887 -1.5221  0.8269
   23MOL0     H 3081   7.502   0.504   6.128  1.3016  0.1712  1.4707
   23MOL0     H 3082   7.406   0.556   6.267  1.0433 -1.4568  0.6335
   23MOL0     H 3083   7.678   0.676   6.190  1.0237  2.7111  2.1598
   23MOL0     H 3084   7.590   0.697   6.340 -0.2633 -0.2224 -0.0342
   23MOL0     H 3085   6.709   0.837   5.569 -0.5499  3.3422  1.5376
   23MOL0     H 3086   6.703   0.835   5.310  1.1044 -2.2938 -1.6416
   23MOL0     H 3087   6.720   1.188   4.911  1.7327  0.9378  1.3802
   23MOL0     H 3088   6.750   1.189   4.688  0.2134 -1.0351 -1.3754
   23MOL0     H 3089   8.246   1.107   3.879 -2.1458 -0.8595  0.2324
   23MOL0     H 3090   8.440   1.208   3.996 -0.7804  0.2926 -2.4028
   23MOL0     H 3091   8.681   1.490   4.408 -2.3916 -1.2265 -2.7842
   23MOL0     H 3092   8.875   1.461   4.534 -1.7128  1.4114  1.0017
   23MOL0     H 3093   8.947   1.047   4.656 -2.5821  0.7370  0.7353
   23MOL0     H 3094   8.954   1.112   4.816  1.6182 -2.3626  0.6743
   23MOL0     H 3095   9.158   1.152   4.832 -1.1012  0.5674 -0.6059
   23MOL0     H 3096   9.182   1.195   4.669  1.2448 -1.2012 -0.1660
   23MOL0     H 3097   9.167   0.917   4.812 -0.2086  0.6248  0.6467
   23MOL0     H 3098   9.303   0.995   4.761 -1.2804  0.6534  0.8323
   23MOL0     H 3099   9.076   0.894   4.582 -0.2681 -1.8708  1.3170
   23MOL0     H 3100   9.228   0.959   4.513 -0.0657 -0.1906 -0.3140
   23MOL0     H 3101   9.322   0.581   4.663  1.0032  0.1005 -0.1714
   23MOL0     H 3102   8.743   1.055   4.646 -2.6375  0.7395  0.6431
   23MOL0     H 3103   8.504   1.041   4.378  1.2956 -0.1632 -0.8635
   23MOL0     H 3104   8.594   0.944   4.503 -1.7082 -0.9017  1.5358
   23MOL0     H 3105   8.463   1.051   4.554  0.7480 -1.4869  0.6656
   24MOL0     O 3106   6.307  11.029   8.206 -0.3512  0.7330  0.1464
   24MOL0     C 3107   6.209  10.991   8.140  0.1367 -0.0987 -0.0943
   24MOL0     O 3108   6.097  11.054   8.136  0.7803  0.0411  0.0001
   24MOL0     C 3109   6.070  11.142   8.235 -0.3198  0.2749 -0.2490
   24MOL0     C 3110   5.987  11.111   8.339  0.4745 -0.5267 -0.3493
   24MOL0     C 3111   5.963  11.207   8.440  0.4872  0.0700 -0.1324
   24MOL0     C 3112   6.027  11.331   8.443 -0.0154 -0.2254  0.4834
   24MOL0     O 3113   5.987  11.416   8.538  0.0551 -0.2047 -0.1797
   24MOL0     C 3114   5.844  11.458   8.542  0.3542  0.2306  0.3279
   24MOL0     C 3115   5.846  11.578   8.627  0.8391 -0.2238 -0.3546
   24MOL0     C 3116   5.721  11.654   8.629  0.7378  0.1687 -0.0272
   24MOL0     C 3117   5.637  11.630   8.757 -0.1292  0.7043 -0.4280
   24MOL0     C 3118   5.502  11.709   8.746  0.1917  0.2306  1.4426
   24MOL0     C 3119   5.433  11.711   8.864 -0.5096 -0.5392 -0.1927
   24MOL0     C 3120   5.293  11.776   8.859 -0.0718 -0.6524  0.1845
   24MOL0     C 3121   5.201  11.713   8.958 -0.0321 -0.2840  0.5851
   24MOL0     N 3122   5.248  11.708   9.094 -0.1492 -0.0819 -0.0885
   24MOL0     C 3123   5.346  11.634   9.155  0.1370 -0.1941  0.3164
   24MOL0     C 3124   5.391  11.715   9.260 -0.4800  0.1677  0.1407
   24MOL0     C 3125   5.512  11.689   9.343  0.2381  0.6896 -0.5963
   24MOL0     C 3126   5.568  11.819   9.422  0.6684 -0.8704  0.9459
   24MOL0     C 3127   5.486  11.867   9.539 -0.6213  0.1603  0.4166
   24MOL0     C 3128   5.495  11.767   9.658  0.7948 -0.1845 -0.1584
   24MOL0     O 3129   5.479  11.834   9.779  0.0329  0.3465  0.7542
   24MOL0     C 3130   5.487  11.768   9.900 -0.1839  0.1457  0.8277
   24MOL0     C 3131   5.500  11.858  10.006 -0.4673 -0.2168 -0.1074
   24MOL0     C 3132   5.498  11.801  10.136 -0.6089 -0.3261 -0.1840
   24MOL0     C 3133   5.505  11.661  10.153 -0.2805 -0.0640 -0.0600
   24MOL0     C 3134   5.515  11.604  10.292 -0.4416  0.6838  0.5568
   24MOL0     O 3135   5.507  11.692  10.393  0.1610 -0.0508 -0.0310
   24MOL0     C 3136   5.487  11.649  10.521  0.0828 -0.1145  0.2053
   24MOL0     C 3137   5.574  11.564  10.595 -0.3396 -0.3964 -0.1722
   24MOL0     C 3138   5.548  11.536  10.734 -0.4346 -0.5372 -0.8284
   24MOL0     C 3139   5.444  11.586  10.802  0.3688  0.1742  0.8835
   24MOL0     O 3140   5.421  11.555  10.936  0.1346  0.0279  0.2846
   24MOL0     C 3141   5.345  11.633  11.034 -0.6538  0.4648  0.5893
   24MOL0     C 3142   5.365  11.572  11.172  0.3349  0.0980  0.2984
   24MOL0     C 3143   5.297  11.665  11.271  0.5833  0.1572 -0.1365
   24MOL0     C 3144   5.322  11.634  11.420  0.1234 -0.2496 -0.0033
   24MOL0     C 3145   5.223  11.721  11.509 -0.2434  0.6404 -0.1998
   24MOL0     C 3146   5.202  11.655  11.647 -0.5109 -0.2645 -0.2190
   24MOL0     C 3147   5.113  11.753  11.734  0.0222  0.0572  0.4503
   24MOL0     C 3148   5.105  11.746  11.889 -0.4954  0.3610  1.2140
   24MOL0    Cl 3149   5.264  11.744  11.961 -0.1065  0.5358 -0.0499
   24MOL0     C 3150   5.358  11.673  10.736 -0.1938  0.1251 -1.2966
   24MOL0     C 3151   5.384  11.709  10.599  0.4822 -0.0113 -0.5113
   24MOL0     O 3152   5.510  11.480  10.300 -0.5917 -0.1649 -1.1460
   24MOL0     C 3153   5.497  11.573  10.042 -0.5940  0.1734  0.0805
   24MOL0     C 3154   5.478  11.632   9.915 -0.2621  0.9372 -0.1866
   24MOL0     N 3155   5.295  11.817   9.278 -0.1027 -0.7092 -0.4560
   24MOL0     N 3156   5.211  11.807   9.178 -0.2287  0.2939 -0.1431
   24MOL0     C 3157   6.109  11.366   8.333 -0.9112 -0.6998 -0.3872
   24MOL0     C 3158   6.125  11.271   8.229  0.6491 -0.7821  0.8846
   24MOL0     C 3159   6.224  10.881   8.036  0.9466 -1.2989 -0.3722
   24MOL0     C 3160   6.321  10.779   8.062  0.1569  0.7526 -0.4684
   24MOL0     C 3161   6.342  10.663   7.987  0.0240  0.1627  0.5516
   24MOL0     C 3162   6.262  10.647   7.863  1.0539  0.0520 -0.6697
   24MOL0     O 3163   6.263  10.532   7.787  0.0122 -0.9299  0.0396
   24MOL0     C 3164   6.385  10.512   7.727  0.3273  0.1633  0.0427
   24MOL0     C 3165   6.353  10.443   7.593 -0.2513 -0.4452  1.0104
   24MOL0     C 3166   6.282  10.548   7.505 -0.2211  0.2903  0.8238
   24MOL0     C 3167   6.244  10.495   7.364 -1.3716 -0.5628 -0.0411
   24MOL0     C 3168   6.184  10.599   7.276 -0.1494 -0.2658 -0.0234
   24MOL0     C 3169   6.133  10.677   7.193  0.2226  0.0946 -0.4389
   24MOL0     C 3170   6.166  10.750   7.835  0.6381 -0.2281 -0.0869
   24MOL0     C 3171   6.146  10.863   7.917 -0.0686 -1.0096  0.4866
   24MOL0     C 3172   6.059  10.975   7.863 -0.3449  1.0778  0.2848
   24MOL0     H 3173   5.946  11.011   8.339  0.3764 -0.5230 -2.2048
   24MOL0     H 3174   5.895  11.188   8.521  0.2300  2.2449  0.2246
   24MOL0     H 3175   5.801  11.484   8.445  0.2853  2.8401  0.9600
   24MOL0     H 3176   5.780  11.381   8.586 -0.2726  0.2494 -0.5292
   24MOL0     H 3177   5.922  11.651   8.597  0.4204 -0.3658 -1.8361
   24MOL0     H 3178   5.859  11.539   8.729  1.1578 -0.2269 -0.3953
   24MOL0     H 3179   5.652  11.630   8.548 -1.1792  1.9775  0.9680
   24MOL0     H 3180   5.743  11.761   8.620  0.6492  0.0442 -2.4031
   24MOL0     H 3181   5.618  11.525   8.780  1.0879  0.8129  1.2646
   24MOL0     H 3182   5.694  11.660   8.845 -0.6433 -1.4680  0.7064
   24MOL0     H 3183   5.519  11.812   8.713 -1.3945  0.0620 -0.0888
   24MOL0     H 3184   5.436  11.658   8.675 -0.8395  2.8444  0.4027
   24MOL0     H 3185   5.427  11.609   8.903  1.1293 -0.5081  0.2100
   24MOL0     H 3186   5.491  11.757   8.945  0.1844  0.4651 -1.2409
   24MOL0     H 3187   5.253  11.758   8.759  2.8361 -4.2672 -0.5311
   24MOL0     H 3188   5.292  11.885   8.876 -2.4255 -0.7240  0.8597
   24MOL0     H 3189   5.105  11.764   8.959 -0.3772 -0.9157  1.9185
   24MOL0     H 3190   5.179  11.609   8.932 -1.3488 -0.3416  1.8564
   24MOL0     H 3191   5.402  11.547   9.120 -1.4588 -2.0987  2.2194
   24MOL0     H 3192   5.498  11.603   9.410  4.1938 -0.4586 -1.0147
   24MOL0     H 3193   5.589  11.645   9.279  1.7094 -0.0643  1.5758
   24MOL0     H 3194   5.669  11.807   9.462  1.6354  2.1852 -0.2222
   24MOL0     H 3195   5.570  11.899   9.347  0.3411  0.1057  1.9492
   24MOL0     H 3196   5.383  11.866   9.501 -1.4740 -3.0188  2.4307
   24MOL0     H 3197   5.529  11.962   9.573  0.7863 -0.2128 -0.2449
   24MOL0     H 3198   5.593  11.718   9.659  1.9585  1.9765 -1.2310
   24MOL0     H 3199   5.413  11.695   9.656 -2.5409  3.2016  1.9499
   24MOL0     H 3200   5.485  11.966  10.006  1.6914  0.1401 -0.5942
   24MOL0     H 3201   5.497  11.877  10.214  2.9622 -0.1420 -0.1625
   24MOL0     H 3202   5.662  11.519  10.549 -0.5097 -1.2628  0.3350
   24MOL0     H 3203   5.620  11.467  10.777  0.2695 -0.7618 -2.3065
   24MOL0     H 3204   5.375  11.738  11.026  1.0103 -0.1042 -3.5460
   24MOL0     H 3205   5.238  11.626  11.012 -0.1892  0.3578 -2.0412
   24MOL0     H 3206   5.332  11.468  11.173  2.7637 -0.7604 -0.9681
   24MOL0     H 3207   5.471  11.576  11.197 -0.0526  2.1606  1.9339
   24MOL0     H 3208   5.319  11.770  11.246 -2.5395  1.5712  2.3509
   24MOL0     H 3209   5.189  11.653  11.258  0.4709 -1.6065  1.9698
   24MOL0     H 3210   5.425  11.653  11.451 -0.0392  3.3819 -1.2626
   24MOL0     H 3211   5.310  11.527  11.438 -1.7366 -0.0862  0.0041
   24MOL0     H 3212   5.124  11.717  11.462 -0.6472  0.3773  0.6627
   24MOL0     H 3213   5.263  11.822  11.521  0.2575  0.2737  1.5310
   24MOL0     H 3214   5.138  11.569  11.629 -2.8422  1.8088 -2.6651
   24MOL0     H 3215   5.297  11.624  11.693  0.5855  0.9059 -1.6036
   24MOL0     H 3216   5.012  11.739  11.693 -0.2055  1.8143  0.3509
   24MOL0     H 3217   5.160  11.849  11.712  2.9426 -1.2811  0.3370
   24MOL0     H 3218   5.057  11.841  11.917 -1.3386  1.8382 -4.0096
   24MOL0     H 3219   5.042  11.661  11.915 -0.4811 -0.1344 -0.2886
   24MOL0     H 3220   5.270  11.703  10.793  0.7878 -1.5663  1.3140
   24MOL0     H 3221   5.307  11.755  10.539 -3.4554  0.6260  4.4144
   24MOL0     H 3222   5.493  11.464  10.045  2.4403 -0.0310 -0.3693
   24MOL0     H 3223   5.463  11.575   9.824 -0.3891  0.6409  0.0189
   24MOL0     H 3224   6.156  11.463   8.323  0.9776 -1.1885  2.4465
   24MOL0     H 3225   6.196  11.301   8.152 -0.9608  1.6069  0.2045
   24MOL0     H 3226   6.384  10.778   8.151 -0.8742 -1.5798  0.3136
   24MOL0     H 3227   6.413  10.586   8.011 -0.9435 -1.0372 -0.3045
   24MOL0     H 3228   6.455  10.457   7.789 -1.2217  1.2995  3.0126
   24MOL0     H 3229   6.428  10.611   7.707 -0.6090  1.2491  2.8458
   24MOL0     H 3230   6.282  10.361   7.613 -0.6551  0.0985  1.9129
   24MOL0     H 3231   6.438  10.411   7.532  0.2587 -0.3427  1.6579
   24MOL0     H 3232   6.345  10.636   7.487  0.4927 -0.4109 -0.1671
   24MOL0     H 3233   6.196  10.581   7.565 -1.2817 -1.3582  0.2777
   24MOL0     H 3234   6.337  10.451   7.325  2.0941  2.2837  4.0197
   24MOL0     H 3235   6.178  10.409   7.376  1.3809 -2.7873  0.3235
   24MOL0     H 3236   6.082  10.748   7.131 -3.1281 -2.9960 -1.5512
   24MOL0     H 3237   6.110  10.733   7.744 -2.1705  0.2070  1.4229
   24MOL0     H 3238   6.107  11.072   7.882  1.7813  0.4449 -1.3536
   24MOL0     H 3239   6.025  10.967   7.759 -2.7727 -2.2275  1.1803
   24MOL0     H 3240   5.972  10.981   7.928  1.2204  0.3917  2.5667
   25MOL0     O 3241   2.640   4.809  11.204  0.4827  0.2805  0.0579
   25MOL0     C 3242   2.559   4.849  11.125  0.0598 -0.3706 -0.0221
   25MOL0     O 3243   2.421   4.854  11.143  0.0498  0.5841 -0.0138
   25MOL0     C 3244   2.365   4.783  11.246 -0.1424  0.2653 -0.2320
   25MOL0     C 3245   2.288   4.864  11.330 -0.0019  0.0445 -0.1178
   25MOL0     C 3246   2.239   4.819  11.452 -0.1260  0.7993 -0.2843
   25MOL0     C 3247   2.276   4.685  11.493 -1.7351 -0.4803  0.5355
   25MOL0     O 3248   2.215   4.633  11.605  0.2364 -0.2723  0.6286
   25MOL0     C 3249   2.267   4.513  11.666 -0.1536 -1.0648  0.8853
   25MOL0     C 3250   2.199   4.393  11.624 -0.3164  0.1709 -0.9847
   25MOL0     C 3251   2.175   4.301  11.740  0.0441 -0.1372  0.8009
   25MOL0     C 3252   2.089   4.189  11.684 -0.7664 -0.0945 -0.7652
   25MOL0     C 3253   2.077   4.066  11.771  0.1724  0.2151  0.3433
   25MOL0     C 3254   2.010   4.105  11.896  0.1697 -0.3162  0.8707
   25MOL0     C 3255   1.936   3.977  11.945 -0.4266  0.9411  0.4077
   25MOL0     C 3256   1.845   3.986  12.073 -0.0375 -0.1102  0.3609
   25MOL0     N 3257   1.719   4.062  12.038  0.0863 -0.6635 -0.7736
   25MOL0     C 3258   1.585   4.017  12.020  0.6836 -0.9961  0.1868
   25MOL0     C 3259   1.525   4.124  11.955  0.1011  0.4487  0.0829
   25MOL0     C 3260   1.389   4.136  11.893 -0.3104 -0.2482 -0.0959
   25MOL0     C 3261   1.347   4.282  11.913  0.0778 -0.4122 -0.7763
   25MOL0     C 3262   1.202   4.317  11.851  0.0606  0.7165  0.3655
   25MOL0     C 3263   1.199   4.368  11.709 -0.6200 -0.2093  0.3341
   25MOL0     O 3264   1.308   4.305  11.634  0.6399 -0.5459  0.1449
   25MOL0     C 3265   1.311   4.322  11.496  0.0856 -0.8667 -0.9844
   25MOL0     C 3266   1.418   4.257  11.428 -0.7626  0.5956  0.5229
   25MOL0     C 3267   1.438   4.273  11.288  0.1029  0.9521  0.0763
   25MOL0     C 3268   1.353   4.351  11.215  1.5616  0.7600  0.2798
   25MOL0     C 3269   1.354   4.365  11.069  0.1979  0.4587 -0.5857
   25MOL0     O 3270   1.241   4.416  11.006  0.5070 -0.3357  0.3240
   25MOL0     C 3271   1.268   4.451  10.869 -0.3591 -0.5267 -0.6891
   25MOL0     C 3272   1.351   4.561  10.841  0.2008 -0.0167 -0.0677
   25MOL0     C 3273   1.357   4.604  10.707 -0.1719 -0.6429 -0.2321
   25MOL0     C 3274   1.281   4.535  10.608  0.1670 -0.4184 -0.9113
   25MOL0     O 3275   1.282   4.569  10.471 -1.0378 -1.2733 -0.5056
   25MOL0     C 3276   1.384   4.661  10.431  0.1426  0.0179  1.0242
   25MOL0     C 3277   1.413   4.643  10.281  0.3379  0.1675 -0.1946
   25MOL0     C 3278   1.447   4.498  10.247 -0.3905 -0.1220 -0.2702
   25MOL0     C 3279   1.458   4.473  10.100  0.0638  0.7486 -0.0807
   25MOL0     C 3280   1.520   4.331  10.071  0.2101 -0.0236 -0.1735
   25MOL0     C 3281   1.430   4.247   9.983  0.1897 -0.4111  0.1663
   25MOL0     C 3282   1.491   4.257   9.844  0.8375  0.0318  1.0409
   25MOL0     C 3283   1.411   4.200   9.731  0.4091  0.5205 -0.0463
   25MOL0    Cl 3284   1.493   4.248   9.578 -0.2241 -0.2561 -0.0731
   25MOL0     C 3285   1.206   4.421  10.639  0.0324  0.4082  0.0143
   25MOL0     C 3286   1.194   4.384  10.771 -0.2270 -0.0815  0.0655
   25MOL0     O 3287   1.450   4.317  11.012 -0.0444  0.7709  0.0087
   25MOL0     C 3288   1.243   4.406  11.285  0.5986  0.8502 -0.0620
   25MOL0     C 3289   1.220   4.396  11.417  0.1052 -0.3129  0.2090
   25MOL0     N 3290   1.619   4.233  11.963 -0.0960  0.1788  0.3441
   25MOL0     N 3291   1.730   4.194  12.011 -0.1449  0.2589 -0.0943
   25MOL0     C 3292   2.364   4.607  11.412 -0.1323  0.5385 -0.4506
   25MOL0     C 3293   2.407   4.648  11.282  0.2236  0.0734 -0.3308
   25MOL0     C 3294   2.604   4.898  10.996 -0.0100 -0.7375 -0.4159
   25MOL0     C 3295   2.521   4.863  10.891 -0.5283 -0.4217  0.1065
   25MOL0     C 3296   2.551   4.910  10.762 -1.3551  0.2970  0.7878
   25MOL0     C 3297   2.665   4.988  10.730  0.7041  0.6098  0.0433
   25MOL0     O 3298   2.703   5.030  10.607  0.7085 -0.0994  0.4494
   25MOL0     C 3299   2.592   5.083  10.534 -0.1046  0.0153 -0.6732
   25MOL0     C 3300   2.628   5.197  10.446 -0.3036  0.3395 -0.5620
   25MOL0     C 3301   2.669   5.328  10.515 -0.8484  0.2787  0.2870
   25MOL0     C 3302   2.714   5.444  10.420 -0.6030 -0.5000 -0.0386
   25MOL0     C 3303   2.603   5.538  10.398  0.7337 -0.5400  1.3076
   25MOL0     C 3304   2.516   5.626  10.392  0.4839  0.4481 -0.6722
   25MOL0     C 3305   2.757   5.013  10.837 -0.4566  0.0325  0.4352
   25MOL0     C 3306   2.722   4.978  10.968  0.0825  0.1471 -0.3363
   25MOL0     C 3307   2.807   5.020  11.077  0.7250 -0.3638  0.3607
   25MOL0     H 3308   2.256   4.967  11.322 -1.0936  0.2222  4.0762
   25MOL0     H 3309   2.187   4.895  11.510 -0.4108  0.6257 -0.3127
   25MOL0     H 3310   2.374   4.511  11.643 -0.1525  2.5282 -0.0026
   25MOL0     H 3311   2.254   4.525  11.774 -2.6071 -0.6099  0.6110
   25MOL0     H 3312   2.263   4.340  11.553  4.8724  0.4231  2.9581
   25MOL0     H 3313   2.103   4.418  11.576  0.1346 -2.7154 -3.7915
   25MOL0     H 3314   2.128   4.342  11.830 -0.6434  2.2940 -0.5799
   25MOL0     H 3315   2.274   4.275  11.779  0.5171 -0.5017 -0.6056
   25MOL0     H 3316   1.996   4.238  11.655 -1.0476 -1.3298 -2.0520
   25MOL0     H 3317   2.125   4.147  11.590  2.3583 -0.7415  0.5874
   25MOL0     H 3318   2.008   3.998  11.719 -1.4857  0.3895  2.2029
   25MOL0     H 3319   2.178   4.026  11.781 -0.6263 -2.3269 -0.6647
   25MOL0     H 3320   2.080   4.152  11.966  2.4224 -1.4566 -0.5210
   25MOL0     H 3321   1.934   4.182  11.876  1.5012  0.9598  0.5215
   25MOL0     H 3322   2.017   3.906  11.966  0.2350  1.2644 -0.9026
   25MOL0     H 3323   1.868   3.942  11.867 -0.4154  1.3638  0.2031
   25MOL0     H 3324   1.820   3.882  12.097 -0.3476  0.0863  0.8866
   25MOL0     H 3325   1.899   4.023  12.160  1.8829 -3.0458  0.5710
   25MOL0     H 3326   1.553   3.914  12.034  2.3352 -1.5149  0.3797
   25MOL0     H 3327   1.385   4.115  11.786 -1.4609  0.9022 -0.3135
   25MOL0     H 3328   1.312   4.075  11.941 -1.4940 -0.0585 -1.6599
   25MOL0     H 3329   1.353   4.310  12.019  0.5072 -0.5566 -0.7620
   25MOL0     H 3330   1.414   4.353  11.864 -1.4980 -0.2511 -2.8563
   25MOL0     H 3331   1.141   4.378  11.919 -3.1376 -1.1133 -0.6534
   25MOL0     H 3332   1.140   4.228  11.842  1.2640 -0.1949  0.7742
   25MOL0     H 3333   1.201   4.478  11.711 -1.4429 -0.1899  0.4783
   25MOL0     H 3334   1.100   4.340  11.673 -0.7748  0.8796 -0.1514
   25MOL0     H 3335   1.492   4.193  11.475 -1.7310 -0.7826  0.2347
   25MOL0     H 3336   1.513   4.216  11.235 -1.9519 -1.1572 -0.7216
   25MOL0     H 3337   1.400   4.614  10.922  0.6638  1.5087 -1.3000
   25MOL0     H 3338   1.407   4.700  10.695  1.3632 -1.3028  0.5915
   25MOL0     H 3339   1.350   4.764  10.447  2.1204  0.6494  1.5426
   25MOL0     H 3340   1.481   4.640  10.477  0.2112 -1.8896  0.0700
   25MOL0     H 3341   1.324   4.683  10.231  0.7692  2.9982  1.1031
   25MOL0     H 3342   1.497   4.703  10.246  0.4390 -1.0043 -2.1106
   25MOL0     H 3343   1.541   4.486  10.302 -1.4490  1.8255  2.1980
   25MOL0     H 3344   1.376   4.421  10.278  1.0011 -1.0800  0.6486
   25MOL0     H 3345   1.519   4.549  10.052 -0.0898 -1.1407 -3.6303
   25MOL0     H 3346   1.355   4.493  10.069 -0.5917  0.6124  1.8755
   25MOL0     H 3347   1.516   4.282  10.169 -0.1716 -0.2294 -0.2910
   25MOL0     H 3348   1.624   4.332  10.036 -0.5325  0.8295 -2.5437
   25MOL0     H 3349   1.438   4.143  10.015  1.3419 -0.2463  0.4443
   25MOL0     H 3350   1.326   4.281   9.977  0.3360  0.3913  1.6634
   25MOL0     H 3351   1.591   4.211   9.849  0.2879 -2.5292 -4.1395
   25MOL0     H 3352   1.499   4.364   9.825  2.1693  0.1847  2.2808
   25MOL0     H 3353   1.399   4.091   9.731 -0.1451  0.3986 -4.3678
   25MOL0     H 3354   1.310   4.240   9.717 -0.7681 -2.3697 -0.4851
   25MOL0     H 3355   1.164   4.363  10.558 -1.6394  0.6595  0.6687
   25MOL0     H 3356   1.141   4.298  10.811  1.5108 -3.2265 -3.7143
   25MOL0     H 3357   1.172   4.470  11.233 -1.9295 -0.4673  1.5317
   25MOL0     H 3358   1.147   4.462  11.464  1.2832 -0.0950  1.8459
   25MOL0     H 3359   2.405   4.509  11.436 -1.3661  0.2855  0.7977
   25MOL0     H 3360   2.477   4.591  11.222 -2.4745 -1.3755 -2.3174
   25MOL0     H 3361   2.428   4.811  10.909 -0.7836 -0.5464 -1.4605
   25MOL0     H 3362   2.486   4.879  10.681  0.5825 -0.5358 -0.5114
   25MOL0     H 3363   2.518   5.118  10.606  0.0361 -3.4915  1.3845
   25MOL0     H 3364   2.547   5.012  10.464  1.4386 -0.8351 -0.8372
   25MOL0     H 3365   2.550   5.212  10.371 -1.9851  0.7840  1.1865
   25MOL0     H 3366   2.724   5.167  10.403  0.2641 -1.4727  1.7848
   25MOL0     H 3367   2.756   5.301  10.576 -1.0684 -3.2228 -0.7010
   25MOL0     H 3368   2.592   5.347  10.589  0.1381  2.1222  0.8918
   25MOL0     H 3369   2.793   5.501  10.470 -2.0417  2.0810 -0.5458
   25MOL0     H 3370   2.754   5.406  10.326  2.8077 -1.2525  1.5692
   25MOL0     H 3371   2.433   5.691  10.414  1.2323  1.8459 -1.7842
   25MOL0     H 3372   2.852   5.062  10.822 -0.2822 -0.1310  0.9944
   25MOL0     H 3373   2.733   5.050  11.153  0.8416 -1.2247  0.8234
   25MOL0     H 3374   2.878   4.948  11.118  1.9712  1.0664  0.8163
   25MOL0     H 3375   2.861   5.110  11.047  1.6066 -2.1206 -3.9656
   26MOL0     O 3376   6.349   0.201   5.288  0.0870 -0.9055 -0.8516
   26MOL0     C 3377   6.325   0.085   5.286 -0.5094 -0.0392 -0.4223
   26MOL0     O 3378   6.336   0.010   5.173 -0.4541 -0.9712  0.0956
   26MOL0     C 3379   6.388   0.053   5.049  0.1702  0.6144 -0.4199
   26MOL0     C 3380   6.370  -0.029   4.943 -0.4538  0.1748  0.4279
   26MOL0     C 3381   6.435   0.002   4.822 -0.2472 -0.6450  1.2043
   26MOL0     C 3382   6.488   0.125   4.790  0.3027  0.6952  0.1806
   26MOL0     O 3383   6.548   0.164   4.677  0.0907 -1.1279  0.0408
   26MOL0     C 3384   6.482   0.131   4.552 -0.2138  0.2191 -0.3676
   26MOL0     C 3385   6.576   0.178   4.435  0.1823  0.5643 -0.2921
   26MOL0     C 3386   6.713   0.112   4.450 -0.1004  0.6759  0.0943
   26MOL0     C 3387   6.773   0.099   4.311 -0.5844  0.0985  0.4695
   26MOL0     C 3388   6.924   0.082   4.330 -0.0189 -0.3224 -0.2995
   26MOL0     C 3389   6.983  -0.038   4.394  0.2173  0.2878 -0.6356
   26MOL0     C 3390   7.141  -0.031   4.424  0.1971 -0.4022  0.1575
   26MOL0     C 3391   7.189  -0.157   4.499  0.2179 -0.3117 -0.0843
   26MOL0     N 3392   7.336  -0.156   4.496 -0.7737 -0.2449  0.1683
   26MOL0     C 3393   7.418  -0.091   4.594  0.8498 -0.7128  0.3440
   26MOL0     C 3394   7.548  -0.123   4.571 -0.5750 -0.2509 -0.3311
   26MOL0     C 3395   7.679  -0.057   4.626  0.2257  0.2307  0.5640
   26MOL0     C 3396   7.734   0.071   4.561 -0.3378  0.4575  0.7687
   26MOL0     C 3397   7.782   0.051   4.412  0.8570 -0.0522 -0.0781
   26MOL0     C 3398   7.928  -0.012   4.412  0.5555  0.1501  0.1396
   26MOL0     O 3399   7.987   0.012   4.278 -0.8532  0.2437  0.7725
   26MOL0     C 3400   8.122  -0.025   4.264  0.7673  0.2781 -0.0706
   26MOL0     C 3401   8.194   0.022   4.150 -0.6357  0.4704  0.2995
   26MOL0     C 3402   8.320  -0.019   4.116  0.1337 -0.0552 -0.4322
   26MOL0     C 3403   8.389  -0.108   4.192 -0.4434  0.2118 -1.0853
   26MOL0     C 3404   8.520  -0.149   4.174  0.2854  0.6055  0.1944
   26MOL0     O 3405   8.585  -0.052   4.102 -0.5730 -0.3082  0.2458
   26MOL0     C 3406   8.712  -0.083   4.057 -0.2622 -0.1987  0.6030
   26MOL0     C 3407   8.747  -0.035   3.925 -0.0741  0.7259  0.0873
   26MOL0     C 3408   8.876  -0.038   3.876 -0.1531 -0.0551 -0.7881
   26MOL0     C 3409   8.981  -0.079   3.960  0.4201  0.1978 -0.1495
   26MOL0     O 3410   9.095  -0.079   3.891 -0.3362  0.5415  0.0132
   26MOL0     C 3411   9.206  -0.134   3.958  0.4233  0.3976 -0.1072
   26MOL0     C 3412   9.289  -0.032   4.038 -0.6101  0.0074  0.5846
   26MOL0     C 3413   9.399  -0.105   4.115  0.2727 -0.6275 -0.0499
   26MOL0     C 3414   9.375  -0.132   4.272 -0.4113 -0.3292  0.1997
   26MOL0     C 3415   9.473  -0.237   4.319 -1.0209  0.0921 -0.0182
   26MOL0     C 3416   9.482  -0.261   4.469 -0.0406  1.1373 -0.1078
   26MOL0     C 3417   9.602  -0.354   4.492  0.3085  0.1816 -0.8658
   26MOL0     C 3418   9.626  -0.387   4.644  0.1357  0.2272  1.2586
   26MOL0    Cl 3419   9.472  -0.448   4.709 -0.1090 -0.0774 -0.0608
   26MOL0     C 3420   8.953  -0.123   4.088 -0.0638  0.9470 -0.2797
   26MOL0     C 3421   8.815  -0.132   4.131 -0.4383 -0.3355 -0.3609
   26MOL0     O 3422   8.564  -0.255   4.215 -0.4835  0.1142  0.0071
   26MOL0     C 3423   8.319  -0.158   4.316 -0.7094 -0.2515 -0.0953
   26MOL0     C 3424   8.193  -0.112   4.350 -0.0205  0.8913  0.4987
   26MOL0     N 3425   7.547  -0.207   4.463  0.7611  1.0813 -1.2888
   26MOL0     N 3426   7.421  -0.233   4.431 -0.7013  0.6014 -0.5100
   26MOL0     C 3427   6.493   0.216   4.893  1.1711 -0.0632 -0.3063
   26MOL0     C 3428   6.448   0.183   5.021  0.1759  0.4721  0.2429
   26MOL0     C 3429   6.269   0.020   5.402  0.2439 -0.3828  0.8357
   26MOL0     C 3430   6.198  -0.104   5.384 -0.4235 -1.1302 -0.3264
   26MOL0     C 3431   6.140  -0.174   5.486  0.5160  0.5368  0.3318
   26MOL0     C 3432   6.137  -0.124   5.613  0.1106  0.8954  0.8880
   26MOL0     O 3433   6.077  -0.200   5.707  0.4352 -0.3650 -0.6244
   26MOL0     C 3434   6.124  -0.198   5.843 -0.0752 -0.0837 -0.4288
   26MOL0     C 3435   6.030  -0.294   5.910 -0.8471 -0.1387  0.5554
   26MOL0     C 3436   6.049  -0.314   6.059 -0.2306  0.0024 -0.4434
   26MOL0     C 3437   5.923  -0.377   6.116  0.6613 -0.3089  0.8344
   26MOL0     C 3438   5.907  -0.520   6.075 -0.8675  0.5645  0.1446
   26MOL0     C 3439   5.892  -0.638   6.056 -0.4286  0.4844 -0.0595
   26MOL0     C 3440   6.202  -0.001   5.635 -0.6398  0.0371  0.3856
   26MOL0     C 3441   6.270   0.073   5.534  0.0397 -0.6067 -0.4166
   26MOL0     C 3442   6.364   0.191   5.577  0.8930  0.3785  0.2795
   26MOL0     H 3443   6.325  -0.127   4.958 -1.5008  0.4058 -0.9685
   26MOL0     H 3444   6.439  -0.074   4.744  0.8328 -0.3170  0.9215
   26MOL0     H 3445   6.476   0.023   4.539 -1.3425  0.2889 -0.5520
   26MOL0     H 3446   6.380   0.171   4.548 -2.0038 -3.9870 -2.2027
   26MOL0     H 3447   6.586   0.287   4.439 -1.3619  0.7034  0.8869
   26MOL0     H 3448   6.543   0.147   4.336  2.0082 -1.2711 -0.3846
   26MOL0     H 3449   6.703   0.012   4.492 -0.1137 -1.0641 -3.5942
   26MOL0     H 3450   6.777   0.167   4.519  2.1843 -1.5104 -0.1410
   26MOL0     H 3451   6.733   0.027   4.240  3.6215  1.1485 -3.4333
   26MOL0     H 3452   6.769   0.196   4.259  4.1381  0.3647  0.1977
   26MOL0     H 3453   6.964   0.082   4.229 -1.0829  1.4082 -0.7550
   26MOL0     H 3454   6.968   0.163   4.390 -0.8632 -0.5578  0.6727
   26MOL0     H 3455   6.932  -0.049   4.490  1.7306 -3.6461 -0.1148
   26MOL0     H 3456   6.966  -0.126   4.332  3.6750 -0.6311 -0.4893
   26MOL0     H 3457   7.167   0.053   4.490 -2.2661  1.5429 -1.1418
   26MOL0     H 3458   7.197  -0.025   4.331 -0.7269 -0.1048 -0.3952
   26MOL0     H 3459   7.161  -0.148   4.604 -0.1237  2.3707 -0.3256
   26MOL0     H 3460   7.134  -0.240   4.453  1.5044 -0.5201 -1.3148
   26MOL0     H 3461   7.393  -0.014   4.666 -0.1335  0.1226 -0.8507
   26MOL0     H 3462   7.660  -0.037   4.732 -1.6117  0.9095  0.1512
   26MOL0     H 3463   7.760  -0.130   4.616 -0.3238 -0.3356  0.1659
   26MOL0     H 3464   7.662   0.154   4.562  2.1679  2.7797  0.0060
   26MOL0     H 3465   7.817   0.098   4.627 -0.7420  2.1217  0.6461
   26MOL0     H 3466   7.777   0.147   4.361 -0.2712  1.8723  3.3289
   26MOL0     H 3467   7.707  -0.012   4.363  1.1601 -0.0429 -0.5537
   26MOL0     H 3468   7.907  -0.117   4.434 -1.8744  0.5610  0.0551
   26MOL0     H 3469   7.986   0.029   4.496 -0.6885 -0.2323  1.2140
   26MOL0     H 3470   8.136   0.085   4.084  1.0068  2.4899  0.6878
   26MOL0     H 3471   8.375   0.015   4.028 -1.6804  2.8213 -0.5741
   26MOL0     H 3472   8.676  -0.004   3.850 -0.1638 -0.1499 -0.2036
   26MOL0     H 3473   8.888  -0.006   3.773 -0.7778  3.2540  0.0638
   26MOL0     H 3474   9.171  -0.212   4.027  1.7513  0.1659  0.3258
   26MOL0     H 3475   9.272  -0.190   3.892  1.2790  0.7094  0.4673
   26MOL0     H 3476   9.342   0.023   3.959 -2.5204  3.0127  1.2318
   26MOL0     H 3477   9.233   0.040   4.098 -1.1977 -1.2514  1.5902
   26MOL0     H 3478   9.422  -0.202   4.070 -1.4769 -0.8469 -0.5467
   26MOL0     H 3479   9.492  -0.049   4.106 -0.5136  0.3476 -3.5670
   26MOL0     H 3480   9.272  -0.168   4.280  0.0520 -2.3395 -1.7312
   26MOL0     H 3481   9.385  -0.039   4.329  2.4061 -0.1004 -0.5137
   26MOL0     H 3482   9.569  -0.226   4.268 -2.0783 -1.1184 -2.4180
   26MOL0     H 3483   9.438  -0.331   4.275 -0.6299 -0.3444  0.5784
   26MOL0     H 3484   9.499  -0.176   4.536  0.0072 -0.3712  1.8937
   26MOL0     H 3485   9.388  -0.306   4.505  0.2406  0.3058 -0.3792
   26MOL0     H 3486   9.692  -0.302   4.456 -0.4234  1.8188 -0.4374
   26MOL0     H 3487   9.577  -0.442   4.432 -0.3089 -2.1021  2.4147
   26MOL0     H 3488   9.710  -0.453   4.668  1.3403  0.8517 -0.9387
   26MOL0     H 3489   9.657  -0.300   4.704 -1.1286 -1.6690  4.9925
   26MOL0     H 3490   9.034  -0.143   4.157  0.1159  3.0249  0.1806
   26MOL0     H 3491   8.790  -0.153   4.234 -0.8034  0.0139 -0.3793
   26MOL0     H 3492   8.376  -0.214   4.389  1.0110  2.1017  0.4986
   26MOL0     H 3493   8.149  -0.135   4.446 -0.3213  1.9055  0.6173
   26MOL0     H 3494   6.546   0.309   4.877  0.7799  0.3567  0.8004
   26MOL0     H 3495   6.476   0.253   5.099  0.9403  2.0792 -1.4032
   26MOL0     H 3496   6.196  -0.140   5.282  1.8253  2.6454 -1.8825
   26MOL0     H 3497   6.085  -0.263   5.459  0.2432  0.7560  0.1568
   26MOL0     H 3498   6.118  -0.094   5.877 -2.7489  0.6100 -2.6714
   26MOL0     H 3499   6.227  -0.236   5.847 -0.6141 -1.6394  3.2470
   26MOL0     H 3500   6.038  -0.392   5.861 -0.4260  0.5274 -0.7393
   26MOL0     H 3501   5.930  -0.268   5.875 -0.7640 -1.7336 -1.0192
   26MOL0     H 3502   6.060  -0.213   6.098 -0.0207  1.3200 -3.5554
   26MOL0     H 3503   6.139  -0.372   6.078 -1.0500 -0.9514  0.6281
   26MOL0     H 3504   5.941  -0.374   6.223  1.4753 -2.9491  0.8493
   26MOL0     H 3505   5.832  -0.322   6.089  1.2545  0.2151 -0.1338
   26MOL0     H 3506   5.894  -0.744   6.038  2.4514  0.7674 -2.1295
   26MOL0     H 3507   6.208   0.037   5.736 -0.8163  1.9467 -0.2932
   26MOL0     H 3508   6.307   0.283   5.587 -0.6900 -0.6731  1.4000
   26MOL0     H 3509   6.417   0.161   5.668  1.3534  1.1591  0.2733
   26MOL0     H 3510   6.448   0.212   5.509  0.8799 -0.1599  0.0929
   27MOL0     O 3511   7.265  11.155   3.686  0.7497 -0.0701  0.0833
   27MOL0     C 3512   7.193  11.112   3.772  0.4379  0.1782 -0.3261
   27MOL0     O 3513   7.208  11.002   3.846 -1.0113 -0.0647 -0.2915
   27MOL0     C 3514   7.293  10.902   3.794 -0.5386 -0.6598 -0.4318
   27MOL0     C 3515   7.431  10.926   3.795 -0.3873  0.1935 -0.4365
   27MOL0     C 3516   7.525  10.841   3.738  0.7012  0.2048 -0.1517
   27MOL0     C 3517   7.475  10.730   3.682 -0.6321  0.3888 -0.0561
   27MOL0     O 3518   7.555  10.633   3.617 -1.0521  0.6681 -0.5273
   27MOL0     C 3519   7.697  10.628   3.654  1.2139  0.6613 -0.1848
   27MOL0     C 3520   7.785  10.666   3.527 -0.5701  0.5739  0.6038
   27MOL0     C 3521   7.934  10.676   3.568 -0.7631  0.1809 -0.0612
   27MOL0     C 3522   8.040  10.709   3.459  0.1569 -0.2043 -0.1330
   27MOL0     C 3523   8.174  10.714   3.531  0.1530  0.6399 -0.4275
   27MOL0     C 3524   8.242  10.577   3.576  0.4142  1.0187  0.4066
   27MOL0     C 3525   8.371  10.605   3.648 -0.7457 -0.3741  0.2812
   27MOL0     C 3526   8.470  10.487   3.636  0.3996 -0.0602 -0.2996
   27MOL0     N 3527   8.532  10.468   3.770 -0.0733  0.0750 -0.4300
   27MOL0     C 3528   8.646  10.522   3.818  0.7157 -0.3545 -0.5450
   27MOL0     C 3529   8.641  10.478   3.949  0.0329 -0.9337  0.6671
   27MOL0     C 3530   8.742  10.521   4.055 -0.2424 -0.5413 -0.2583
   27MOL0     C 3531   8.673  10.555   4.197 -0.1433  0.9922  0.8859
   27MOL0     C 3532   8.786  10.599   4.295  0.0474 -0.3860 -0.5618
   27MOL0     C 3533   8.729  10.673   4.419  0.7373 -0.0137 -0.7453
   27MOL0     O 3534   8.704  10.814   4.387  1.1176  0.5591  0.3788
   27MOL0     C 3535   8.612  10.879   4.460 -0.0210 -0.3832  0.0445
   27MOL0     C 3536   8.500  10.942   4.404  0.0421 -1.1609 -0.2294
   27MOL0     C 3537   8.407  11.005   4.494 -0.2054  0.2925  0.9218
   27MOL0     C 3538   8.427  11.021   4.627 -0.5753  0.4012  0.2867
   27MOL0     C 3539   8.341  11.095   4.716 -0.2855  0.4441  0.8330
   27MOL0     O 3540   8.233  11.157   4.652 -0.4988 -0.7433 -1.1058
   27MOL0     C 3541   8.157  11.235   4.736  0.3847 -0.4322 -0.2398
   27MOL0     C 3542   8.080  11.185   4.835  0.2645  0.3213 -0.9067
   27MOL0     C 3543   7.988  11.268   4.903  0.2070 -0.1870  0.5667
   27MOL0     C 3544   7.982  11.402   4.879 -0.5543 -0.0235 -0.4550
   27MOL0     O 3545   7.886  11.477   4.942 -0.5624 -0.0977 -0.3360
   27MOL0     C 3546   7.899  11.618   4.946  0.3326  0.5043 -0.6089
   27MOL0     C 3547   7.780  11.678   5.034  0.2985  0.3960 -0.0384
   27MOL0     C 3548   7.798  11.824   5.087 -0.4453  0.1319  0.0360
   27MOL0     C 3549   7.933  11.856   5.147  0.3862 -0.6337  0.4503
   27MOL0     C 3550   7.924  11.984   5.246  0.2252  0.2572 -0.2987
   27MOL0     C 3551   7.855  11.966   5.378 -0.0313 -0.1960 -0.0392
   27MOL0     C 3552   7.955  11.901   5.485  1.1565 -0.0159 -1.1404
   27MOL0     C 3553   7.882  11.824   5.596 -0.1630 -0.4850  0.4621
   27MOL0    Cl 3554   7.981  11.827   5.750  0.7409  0.3271  0.1669
   27MOL0     C 3555   8.070  11.462   4.785  0.0487 -0.5570  0.0914
   27MOL0     C 3556   8.156  11.373   4.715 -0.4517  0.3308 -0.0296
   27MOL0     O 3557   8.367  11.107   4.836 -0.0843 -0.0786 -0.1729
   27MOL0     C 3558   8.552  10.965   4.677  0.4466  0.5864 -0.7489
   27MOL0     C 3559   8.637  10.899   4.596 -0.5763 -0.2480 -0.1729
   27MOL0     N 3560   8.541  10.383   3.964 -0.7086 -0.2639 -0.4144
   27MOL0     N 3561   8.468  10.386   3.863 -0.1472 -0.4030  0.2761
   27MOL0     C 3562   7.337  10.693   3.694  0.0970 -0.9187  0.1648
   27MOL0     C 3563   7.246  10.785   3.739  0.9825  0.3631 -0.4020
   27MOL0     C 3564   7.067  11.184   3.788 -0.2529  0.4350  0.7238
   27MOL0     C 3565   6.954  11.106   3.828 -0.9506 -0.1758 -0.0321
   27MOL0     C 3566   6.834  11.168   3.856 -0.3347  1.2380 -0.1035
   27MOL0     C 3567   6.817  11.309   3.854 -0.0206  0.0376 -0.3079
   27MOL0     O 3568   6.709  11.373   3.899 -0.0542 -0.3183  0.3252
   27MOL0     C 3569   6.642  11.457   3.801 -0.7118 -0.0903  0.0351
   27MOL0     C 3570   6.487  11.426   3.814 -0.4924 -1.1437  0.3247
   27MOL0     C 3571   6.436  11.414   3.962 -0.5920 -0.2766  0.8472
   27MOL0     C 3572   6.469  11.533   4.055  0.7475 -0.0610 -0.2145
   27MOL0     C 3573   6.396  11.651   4.007  0.9734  0.0140  0.8390
   27MOL0     C 3574   6.343  11.748   3.951  0.0948  0.1583  0.5821
   27MOL0     C 3575   6.921  11.386   3.796 -0.1189 -0.0316 -0.1749
   27MOL0     C 3576   7.047  11.326   3.767 -1.1429  0.3090  0.1734
   27MOL0     C 3577   7.149  11.434   3.729 -0.1337 -0.4506 -0.3163
   27MOL0     H 3578   7.465  11.013   3.850 -1.7186  1.9606 -2.2463
   27MOL0     H 3579   7.627  10.879   3.735  2.0296 -2.6769  2.3873
   27MOL0     H 3580   7.720  10.693   3.739  0.9962  0.0178  0.3790
   27MOL0     H 3581   7.713  10.524   3.685 -5.3179 -0.7805 -0.0969
   27MOL0     H 3582   7.762  10.765   3.488  2.5386  0.2680 -2.4520
   27MOL0     H 3583   7.773  10.602   3.439  1.8344  2.1150 -0.9462
   27MOL0     H 3584   7.968  10.586   3.619  6.2135  2.4905  0.4231
   27MOL0     H 3585   7.940  10.759   3.640 -1.3126  0.2227 -0.0636
   27MOL0     H 3586   8.032  10.621   3.396  2.6579 -1.3595  1.0160
   27MOL0     H 3587   8.006  10.798   3.406 -0.2546 -0.3540 -0.1234
   27MOL0     H 3588   8.252  10.766   3.475 -1.0527  2.4708 -0.4765
   27MOL0     H 3589   8.165  10.778   3.620  0.7450 -1.9421  1.6238
   27MOL0     H 3590   8.175  10.522   3.643  1.4519  1.8420  2.1931
   27MOL0     H 3591   8.254  10.514   3.487 -2.3530  1.4221 -0.3369
   27MOL0     H 3592   8.341  10.639   3.747  1.8045  2.2578  0.2702
   27MOL0     H 3593   8.425  10.690   3.604  0.3955 -0.9101  0.6237
   27MOL0     H 3594   8.418  10.397   3.603  2.1764 -1.3074  0.1232
   27MOL0     H 3595   8.549  10.515   3.565 -0.4963  3.4517 -0.0961
   27MOL0     H 3596   8.711  10.589   3.762  2.9180 -1.5498  0.4432
   27MOL0     H 3597   8.800  10.429   4.067 -0.6112 -0.8967 -1.1118
   27MOL0     H 3598   8.813  10.595   4.017  0.1737  0.5560  2.4276
   27MOL0     H 3599   8.597  10.633   4.188 -1.7053 -0.4718  0.8609
   27MOL0     H 3600   8.628  10.467   4.244 -0.4841  0.2463 -0.7915
   27MOL0     H 3601   8.852  10.671   4.246 -0.2295 -0.4360 -1.0125
   27MOL0     H 3602   8.847  10.513   4.324 -0.3821  0.0569  1.8465
   27MOL0     H 3603   8.789  10.670   4.510 -1.5627  3.4346  1.1167
   27MOL0     H 3604   8.634  10.633   4.454 -1.2795  2.8095 -2.5286
   27MOL0     H 3605   8.489  10.947   4.297 -2.4040  0.3302  0.0258
   27MOL0     H 3606   8.319  11.048   4.449  0.2653 -0.8194 -1.1908
   27MOL0     H 3607   8.088  11.078   4.853  0.5410  0.4860 -0.0000
   27MOL0     H 3608   7.918  11.218   4.969 -1.7722 -1.4245 -2.2630
   27MOL0     H 3609   7.995  11.655   4.983 -0.3986 -0.0487  2.1325
   27MOL0     H 3610   7.887  11.653   4.843  1.7234 -3.5859 -2.3691
   27MOL0     H 3611   7.679  11.680   4.994 -0.7037 -3.3568  1.8973
   27MOL0     H 3612   7.779  11.624   5.129 -0.8387 -1.1685 -0.9149
   27MOL0     H 3613   7.787  11.895   5.004  0.7151  1.0715  0.6491
   27MOL0     H 3614   7.724  11.841   5.166  0.7364 -0.7130  1.3788
   27MOL0     H 3615   8.011  11.884   5.075  1.0746 -1.3202  0.9089
   27MOL0     H 3616   7.970  11.779   5.215  3.8419  0.9747  0.6011
   27MOL0     H 3617   7.871  12.067   5.197  0.5977  0.1301 -0.9319
   27MOL0     H 3618   8.023  12.026   5.266  0.5404 -0.3118 -0.6462
   27MOL0     H 3619   7.833  12.064   5.422  1.4262 -0.9162  2.5218
   27MOL0     H 3620   7.766  11.907   5.354  0.3598 -1.4949  1.5683
   27MOL0     H 3621   8.018  11.980   5.527 -2.3658  0.7044  3.5250
   27MOL0     H 3622   8.016  11.830   5.428  1.2019  1.8911 -3.6358
   27MOL0     H 3623   7.792  11.885   5.611 -1.3827 -2.2236  0.6000
   27MOL0     H 3624   7.841  11.728   5.563 -3.0963  0.7221  0.2842
   27MOL0     H 3625   8.061  11.567   4.760  0.9544 -0.4162  0.3138
   27MOL0     H 3626   8.219  11.407   4.633 -0.7001 -3.0442 -1.8247
   27MOL0     H 3627   8.581  10.968   4.781  0.2677  1.5064 -0.7141
   27MOL0     H 3628   8.724  10.854   4.643  0.2490  0.3447 -1.1077
   27MOL0     H 3629   7.296  10.603   3.650 -3.1999 -0.3904  1.9082
   27MOL0     H 3630   7.141  10.759   3.737  0.5810  1.9102 -1.7375
   27MOL0     H 3631   6.964  10.998   3.834 -0.7554 -0.2087 -0.8015
   27MOL0     H 3632   6.748  11.107   3.881 -0.3297  0.6476 -1.4481
   27MOL0     H 3633   6.661  11.437   3.695 -0.3821  0.0494  0.0672
   27MOL0     H 3634   6.660  11.559   3.834  0.0244 -0.1576 -0.1376
   27MOL0     H 3635   6.447  11.341   3.758 -0.2987 -1.9375  1.3494
   27MOL0     H 3636   6.444  11.515   3.768 -0.2059 -1.7283 -1.1440
   27MOL0     H 3637   6.483  11.329   4.012  1.7517 -0.3884 -1.3635
   27MOL0     H 3638   6.331  11.384   3.953 -0.2858 -2.5042  3.4581
   27MOL0     H 3639   6.429  11.496   4.150 -0.2258 -1.2042 -1.0405
   27MOL0     H 3640   6.576  11.553   4.066  1.1584 -1.9766 -0.3205
   27MOL0     H 3641   6.289  11.828   3.904 -0.5558 -1.6743 -1.9749
   27MOL0     H 3642   6.923  11.495   3.788 -0.0190 -0.0382 -0.2589
   27MOL0     H 3643   7.197  11.423   3.631  1.8555 -0.7111  0.6506
   27MOL0     H 3644   7.123  11.539   3.740 -0.2540 -0.4802 -0.3083
   27MOL0     H 3645   7.229  11.427   3.803 -0.7348 -3.2301  0.2107
   28MOL0     O 3646   7.104   0.092   6.956 -0.1826  0.1273  0.3706
   28MOL0     C 3647   7.026   0.169   6.905 -1.0549 -0.0701  0.5250
   28MOL0     O 3648   6.890   0.167   6.929 -0.0529 -0.3441  0.1771
   28MOL0     C 3649   6.846   0.051   6.983 -0.4849  0.3629 -0.0886
   28MOL0     C 3650   6.780   0.050   7.111  0.5519 -0.1683  0.1518
   28MOL0     C 3651   6.741  -0.071   7.175 -0.5285 -0.0224 -0.0626
   28MOL0     C 3652   6.751  -0.187   7.104  0.4181 -0.3608 -0.3737
   28MOL0     O 3653   6.688  -0.301   7.140  0.0390 -0.9965 -0.3873
   28MOL0     C 3654   6.745  -0.351   7.262  0.2893 -0.4101  0.2731
   28MOL0     C 3655   6.691  -0.487   7.316  1.0020  0.4152 -0.5996
   28MOL0     C 3656   6.562  -0.477   7.403 -0.3619 -0.1162  0.2591
   28MOL0     C 3657   6.582  -0.537   7.544 -0.2413 -0.3633 -0.1331
   28MOL0     C 3658   6.690  -0.460   7.635 -0.2580 -0.0835 -0.2224
   28MOL0     C 3659   6.671  -0.484   7.780  0.7700  0.1819 -0.5377
   28MOL0     C 3660   6.541  -0.412   7.830  0.3281  0.7603 -0.4556
   28MOL0     C 3661   6.557  -0.254   7.842  0.6627  0.4099 -0.5425
   28MOL0     N 3662   6.630  -0.233   7.971 -0.2517 -0.3377  0.3338
   28MOL0     C 3663   6.586  -0.280   8.086  0.9141  0.1576  0.6433
   28MOL0     C 3664   6.660  -0.231   8.181 -1.4873  0.2949  0.1326
   28MOL0     C 3665   6.651  -0.266   8.328  0.1093  0.1271 -0.8900
   28MOL0     C 3666   6.522  -0.212   8.393  0.1738 -0.3924  0.2127
   28MOL0     C 3667   6.549  -0.090   8.477 -0.2719 -0.4970 -1.4190
   28MOL0     C 3668   6.425  -0.035   8.563 -0.0906 -0.5188 -0.3082
   28MOL0     O 3669   6.440   0.106   8.596 -0.5462  0.7707  0.1594
   28MOL0     C 3670   6.357   0.158   8.686  0.8215 -0.5840 -1.0630
   28MOL0     C 3671   6.236   0.105   8.754  0.5579 -0.5932  0.2794
   28MOL0     C 3672   6.148   0.187   8.825  0.0216  0.1207 -0.1379
   28MOL0     C 3673   6.186   0.324   8.846  0.7346  1.1638 -0.3702
   28MOL0     C 3674   6.102   0.414   8.928  0.2580 -0.2527  0.8189
   28MOL0     O 3675   5.978   0.359   8.957 -0.1750  0.0481 -0.4285
   28MOL0     C 3676   5.879   0.437   9.005 -0.8933  0.3000  0.5163
   28MOL0     C 3677   5.762   0.443   8.929 -0.0647  0.1672  0.1628
   28MOL0     C 3678   5.665   0.543   8.963  0.0121 -0.7049  0.1312
   28MOL0     C 3679   5.677   0.619   9.077  0.4415  0.0771  0.4511
   28MOL0     O 3680   5.587   0.712   9.106  0.6139  0.2719 -0.3707
   28MOL0     C 3681   5.497   0.658   9.212 -0.9518  0.1751  0.1465
   28MOL0     C 3682   5.387   0.755   9.244 -0.1330  0.2445 -0.5618
   28MOL0     C 3683   5.284   0.773   9.120  0.1068  0.0687 -0.0850
   28MOL0     C 3684   5.219   0.643   9.074 -0.1779 -0.1922 -0.2095
   28MOL0     C 3685   5.086   0.671   8.978  0.6558  0.4994  0.6860
   28MOL0     C 3686   5.114   0.691   8.831 -0.2678  0.1237 -0.0605
   28MOL0     C 3687   4.985   0.717   8.757  0.0585 -0.6546  0.8123
   28MOL0     C 3688   5.002   0.797   8.625 -0.4313 -1.2837  0.3906
   28MOL0    Cl 3689   5.096   0.693   8.520 -0.0369  0.2702 -0.3375
   28MOL0     C 3690   5.793   0.604   9.149 -1.0475  0.4212  0.1133
   28MOL0     C 3691   5.884   0.515   9.117 -1.4042  0.2519  0.1145
   28MOL0     O 3692   6.139   0.529   8.945  0.3990  0.1296  0.3723
   28MOL0     C 3693   6.305   0.371   8.798 -0.4490  0.3900  0.6372
   28MOL0     C 3694   6.383   0.288   8.719 -0.0852 -0.6409 -0.1837
   28MOL0     N 3695   6.767  -0.165   8.121  0.4257 -0.1717  1.1635
   28MOL0     N 3696   6.746  -0.163   7.994 -0.6076  0.6151 -0.0831
   28MOL0     C 3697   6.793  -0.190   6.968 -0.3132  0.7600  0.3030
   28MOL0     C 3698   6.849  -0.072   6.912  1.5221  0.1016  0.4114
   28MOL0     C 3699   7.072   0.284   6.811 -0.3874  0.3567  0.0168
   28MOL0     C 3700   6.979   0.386   6.788 -0.5151  0.6893  0.2087
   28MOL0     C 3701   7.013   0.490   6.703 -0.4974 -0.3363 -0.8243
   28MOL0     C 3702   7.136   0.503   6.648 -1.0040  0.4089 -0.0655
   28MOL0     O 3703   7.159   0.626   6.586 -0.5659  0.5732 -0.2080
   28MOL0     C 3704   7.302   0.641   6.540 -0.2130  0.9139 -0.2964
   28MOL0     C 3705   7.304   0.789   6.505 -0.2484  0.2412  1.3463
   28MOL0     C 3706   7.283   0.882   6.633  0.6379 -0.1243  1.6705
   28MOL0     C 3707   7.319   1.030   6.605  0.0616 -0.5308  0.3797
   28MOL0     C 3708   7.238   1.091   6.496 -0.6265  0.6118  1.4482
   28MOL0     C 3709   7.161   1.109   6.408  0.4594  0.0862  0.1509
   28MOL0     C 3710   7.229   0.392   6.661 -0.9117 -0.3555  0.9523
   28MOL0     C 3711   7.199   0.291   6.745 -1.0237 -0.1472 -0.2078
   28MOL0     C 3712   7.306   0.187   6.773  0.0762  0.5332 -0.6966
   28MOL0     H 3713   6.779   0.151   7.151  0.9905  0.8709 -2.3049
   28MOL0     H 3714   6.719  -0.069   7.281 -2.2919  2.9437 -0.3788
   28MOL0     H 3715   6.852  -0.365   7.241  0.8994  2.1045  1.3217
   28MOL0     H 3716   6.726  -0.279   7.342  1.7385 -0.3029  0.5578
   28MOL0     H 3717   6.771  -0.529   7.379  1.6800  1.8858 -0.4439
   28MOL0     H 3718   6.676  -0.555   7.232 -0.6688  0.4319 -0.3431
   28MOL0     H 3719   6.489  -0.536   7.348 -2.7561  2.3836  0.5380
   28MOL0     H 3720   6.523  -0.376   7.413  2.5423  1.1392 -0.0072
   28MOL0     H 3721   6.483  -0.536   7.592 -0.0476  0.0089  0.2640
   28MOL0     H 3722   6.615  -0.640   7.530  0.6820  0.0698 -1.2140
   28MOL0     H 3723   6.793  -0.491   7.613  0.5751  1.1944  1.6297
   28MOL0     H 3724   6.690  -0.354   7.610 -4.6738  0.1878  0.1942
   28MOL0     H 3725   6.668  -0.591   7.800  2.6430 -0.3937 -2.9876
   28MOL0     H 3726   6.767  -0.443   7.814  0.8351  0.9034 -1.5600
   28MOL0     H 3727   6.528  -0.451   7.931 -0.2820  2.7615  0.2913
   28MOL0     H 3728   6.457  -0.443   7.767  0.1400 -0.2584  0.2748
   28MOL0     H 3729   6.608  -0.205   7.759  3.1386  2.3648  1.9881
   28MOL0     H 3730   6.457  -0.208   7.842  0.4979  0.0582 -0.6971
   28MOL0     H 3731   6.504  -0.349   8.101  0.0434  1.4933  2.3968
   28MOL0     H 3732   6.659  -0.375   8.335  0.9949  0.2120 -0.3756
   28MOL0     H 3733   6.754  -0.241   8.357  0.6801 -2.5188 -0.3276
   28MOL0     H 3734   6.439  -0.193   8.324 -1.3912 -1.8384  1.5854
   28MOL0     H 3735   6.491  -0.294   8.459  0.7761  0.4443  1.5779
   28MOL0     H 3736   6.570  -0.009   8.407 -0.5358  1.2617  0.4327
   28MOL0     H 3737   6.642  -0.102   8.533  0.0162  1.1128 -1.5275
   28MOL0     H 3738   6.415  -0.104   8.647  0.1326  0.1698  0.2982
   28MOL0     H 3739   6.335  -0.043   8.502  0.2081 -0.4762 -0.7633
   28MOL0     H 3740   6.214  -0.000   8.739  2.8397 -0.9277 -1.3939
   28MOL0     H 3741   6.063   0.124   8.849  1.3319 -0.9799  1.9213
   28MOL0     H 3742   5.772   0.402   8.829 -0.0112  3.6635 -1.3906
   28MOL0     H 3743   5.578   0.560   8.900 -0.6021 -1.9003  0.6303
   28MOL0     H 3744   5.452   0.563   9.183 -0.9114  0.1116  0.2941
   28MOL0     H 3745   5.550   0.627   9.302 -3.4069 -2.9100  0.7087
   28MOL0     H 3746   5.321   0.705   9.315  2.2046 -0.7996  1.0229
   28MOL0     H 3747   5.432   0.850   9.275 -0.4669  0.4460 -0.6937
   28MOL0     H 3748   5.209   0.844   9.157  0.9999 -0.8322  3.9833
   28MOL0     H 3749   5.330   0.814   9.030 -0.7248 -0.5463 -0.8112
   28MOL0     H 3750   5.181   0.583   9.157  0.4423 -0.4252 -0.0826
   28MOL0     H 3751   5.291   0.581   9.021  0.2653  1.7314 -1.9850
   28MOL0     H 3752   5.013   0.746   9.010 -0.1749  0.2053 -0.4582
   28MOL0     H 3753   5.027   0.578   8.976  0.2155  0.7819  0.3000
   28MOL0     H 3754   5.165   0.788   8.824  0.6978 -0.3518  0.3177
   28MOL0     H 3755   5.159   0.607   8.779 -1.8474 -0.5722 -0.3545
   28MOL0     H 3756   4.911   0.772   8.816 -1.8644 -2.3794  0.1216
   28MOL0     H 3757   4.938   0.626   8.721  4.8090 -4.0446  2.2559
   28MOL0     H 3758   4.900   0.804   8.585 -0.6960  0.3963  1.2885
   28MOL0     H 3759   5.053   0.894   8.629 -1.2086 -0.8852  0.9126
   28MOL0     H 3760   5.807   0.682   9.224  1.9021 -1.8092  2.1479
   28MOL0     H 3761   5.966   0.539   9.183 -2.3122  3.2883  0.2907
   28MOL0     H 3762   6.333   0.475   8.809  0.6160  0.2252 -0.2970
   28MOL0     H 3763   6.463   0.346   8.672 -0.3052  1.8317  2.2410
   28MOL0     H 3764   6.791  -0.280   6.907  1.5061  0.5058  0.5473
   28MOL0     H 3765   6.883  -0.057   6.810 -1.7129 -1.2667 -0.9920
   28MOL0     H 3766   6.879   0.373   6.828 -0.9556  0.3530 -0.9450
   28MOL0     H 3767   6.940   0.568   6.684  0.3720  0.0659 -2.7604
   28MOL0     H 3768   7.325   0.575   6.455  2.9848 -2.4143  2.8236
   28MOL0     H 3769   7.379   0.620   6.614 -2.1108 -3.0115  0.8444
   28MOL0     H 3770   7.228   0.804   6.427  0.7039  0.3223  0.4112
   28MOL0     H 3771   7.403   0.805   6.461  0.4555 -0.4126  2.6471
   28MOL0     H 3772   7.349   0.856   6.717  0.0790 -2.6547  1.3967
   28MOL0     H 3773   7.179   0.879   6.666  0.0500 -0.3159 -0.0971
   28MOL0     H 3774   7.308   1.090   6.696 -1.4932 -3.0323  1.9554
   28MOL0     H 3775   7.425   1.033   6.577 -0.3846 -5.8306 -3.0868
   28MOL0     H 3776   7.083   1.128   6.337 -0.7138  1.8555  1.7872
   28MOL0     H 3777   7.316   0.386   6.597  0.9439  2.3863  2.9904
   28MOL0     H 3778   7.266   0.090   6.745 -2.2274  1.5289 -1.0704
   28MOL0     H 3779   7.398   0.212   6.719  1.6986  1.2620  2.1513
   28MOL0     H 3780   7.330   0.193   6.880  2.4628  4.8291 -1.2205
   29MOL0     O 3781   4.798  10.881   1.813 -0.1980  0.2932  0.5135
   29MOL0     C 3782   4.674  10.894   1.825  0.3278  0.6111  0.3033
   29MOL0     O 3783   4.581  10.838   1.748 -0.1269 -0.4145  1.1593
   29MOL0     C 3784   4.601  10.781   1.628 -0.0824  0.4879  0.1787
   29MOL0     C 3785   4.497  10.705   1.590  0.0108 -0.1487 -0.1341
   29MOL0     C 3786   4.493  10.634   1.469 -0.2176  0.1237 -0.2942
   29MOL0     C 3787   4.607  10.659   1.378  0.4381  1.0569 -0.0425
   29MOL0     O 3788   4.603  10.592   1.260 -0.6480  0.5167 -0.6379
   29MOL0     C 3789   4.581  10.680   1.150  0.0730 -0.6118  0.2940
   29MOL0     C 3790   4.568  10.622   1.008 -0.2704  0.5893 -0.0426
   29MOL0     C 3791   4.671  10.524   0.960 -0.4573  0.2344 -0.0790
   29MOL0     C 3792   4.630  10.447   0.830 -0.3668 -0.2521  0.6596
   29MOL0     C 3793   4.690  10.311   0.818 -0.6684  0.7049 -0.9820
   29MOL0     C 3794   4.647  10.201   0.909  0.4087 -0.2666 -0.4295
   29MOL0     C 3795   4.746  10.083   0.903  0.2787 -0.2159  0.2986
   29MOL0     C 3796   4.687   9.954   0.964  0.0439  0.3897  0.2473
   29MOL0     N 3797   4.588   9.899   0.878 -0.0392  0.3783 -0.2947
   29MOL0     C 3798   4.459   9.922   0.901  0.2116  0.2160  0.2995
   29MOL0     C 3799   4.383   9.857   0.806 -0.2148 -0.4222 -0.0252
   29MOL0     C 3800   4.222   9.829   0.795 -0.4544  0.1483  0.1920
   29MOL0     C 3801   4.183   9.742   0.912 -0.0250 -0.9471  0.3014
   29MOL0     C 3802   4.032   9.700   0.910 -0.0904  0.2789  0.9241
   29MOL0     C 3803   3.983   9.591   1.006  0.2294 -0.5957 -0.3319
   29MOL0     O 3804   4.035   9.606   1.138  0.2748  0.3886  0.6531
   29MOL0     C 3805   3.997   9.705   1.221  0.8147  0.5703  0.7754
   29MOL0     C 3806   4.082   9.734   1.320 -0.5727  0.4119  0.2437
   29MOL0     C 3807   4.058   9.834   1.414  0.6639  0.1200 -0.0507
   29MOL0     C 3808   3.940   9.911   1.420  0.2892  1.1024  0.2845
   29MOL0     C 3809   3.912  10.003   1.524  0.6520 -0.0542 -1.2226
   29MOL0     O 3810   4.009  10.015   1.620 -0.2675 -0.3319 -0.2944
   29MOL0     C 3811   3.999  10.135   1.699  0.1841  0.6286 -0.2362
   29MOL0     C 3812   3.982  10.257   1.645  0.4501  0.3613  0.7747
   29MOL0     C 3813   3.996  10.371   1.726  0.2769  0.0198  0.6230
   29MOL0     C 3814   4.016  10.370   1.865 -0.5343  1.0849 -0.3012
   29MOL0     O 3815   4.005  10.487   1.929 -0.2998  0.0442  0.0831
   29MOL0     C 3816   4.053  10.490   2.064 -0.4126 -0.3226  0.2230
   29MOL0     C 3817   4.198  10.490   2.077 -0.6144 -0.6411 -0.1585
   29MOL0     C 3818   4.281  10.566   1.971 -0.5678  0.4834  0.2102
   29MOL0     C 3819   4.438  10.573   2.009 -0.5298 -0.4597 -0.5983
   29MOL0     C 3820   4.455  10.651   2.142 -0.3379  0.4018 -0.8878
   29MOL0     C 3821   4.608  10.683   2.172 -0.0571 -0.2702 -0.1819
   29MOL0     C 3822   4.635  10.752   2.310 -0.1656 -0.5949  0.0400
   29MOL0     C 3823   4.773  10.751   2.360 -0.6080 -0.4753  0.1377
   29MOL0    Cl 3824   4.782  10.816   2.538 -0.2403 -0.1615 -0.0904
   29MOL0     C 3825   4.022  10.239   1.917 -0.0460  0.0232 -0.1899
   29MOL0     C 3826   4.019  10.125   1.836  0.0786 -0.8510 -1.0437
   29MOL0     O 3827   3.806  10.065   1.523  0.4152  0.1279  0.8790
   29MOL0     C 3828   3.854   9.884   1.317 -0.3662  0.0189  0.5854
   29MOL0     C 3829   3.878   9.786   1.221  0.0785 -0.4043 -0.5923
   29MOL0     N 3830   4.477   9.790   0.725  0.1308  0.2024  0.9873
   29MOL0     N 3831   4.600   9.816   0.768  0.0253 -0.1291 -0.5669
   29MOL0     C 3832   4.717  10.730   1.414 -0.7058  0.5749  0.1192
   29MOL0     C 3833   4.716  10.791   1.540 -0.0848  0.3882 -0.1683
   29MOL0     C 3834   4.627  10.957   1.944 -0.7433  0.3110  0.1086
   29MOL0     C 3835   4.486  10.969   1.967 -1.8121 -0.1233  0.1072
   29MOL0     C 3836   4.431  11.033   2.076  0.0953  0.3835  0.3169
   29MOL0     C 3837   4.513  11.083   2.176 -0.1970  0.3091 -0.9392
   29MOL0     O 3838   4.469  11.141   2.291  0.2600 -0.0256 -0.2772
   29MOL0     C 3839   4.327  11.164   2.317 -0.1044  0.6876 -0.4121
   29MOL0     C 3840   4.267  11.057   2.419  0.3100 -0.3900 -0.1271
   29MOL0     C 3841   4.175  10.947   2.363  0.3911 -1.1785 -0.5555
   29MOL0     C 3842   4.186  10.818   2.437 -0.5166  0.6174 -0.5149
   29MOL0     C 3843   4.098  10.720   2.372 -0.5955 -0.8660 -0.2286
   29MOL0     C 3844   4.029  10.626   2.349 -0.1487 -1.1941 -0.2473
   29MOL0     C 3845   4.652  11.073   2.158 -0.4237 -0.5318 -0.4850
   29MOL0     C 3846   4.716  11.005   2.047  0.3200 -0.1320 -0.7073
   29MOL0     C 3847   4.867  10.992   2.052  0.3952 -0.2214 -1.1177
   29MOL0     H 3848   4.431  10.674   1.671  2.3517  0.3488  2.1167
   29MOL0     H 3849   4.406  10.577   1.441  1.6284 -2.9777 -0.1517
   29MOL0     H 3850   4.477  10.713   1.164 -0.4429 -1.9722 -0.1645
   29MOL0     H 3851   4.655  10.760   1.152  1.0900 -1.5364  0.3665
   29MOL0     H 3852   4.575  10.698   0.929  2.4402  1.9462  1.3704
   29MOL0     H 3853   4.477  10.563   1.013  0.3269 -0.2405  1.3659
   29MOL0     H 3854   4.697  10.460   1.046  1.6437 -1.9047 -2.1369
   29MOL0     H 3855   4.764  10.568   0.923 -0.8690 -0.3233 -1.8626
   29MOL0     H 3856   4.523  10.426   0.837 -0.6389  1.3042  1.9734
   29MOL0     H 3857   4.645  10.507   0.740 -1.5687 -0.0594  0.5687
   29MOL0     H 3858   4.673  10.283   0.714 -1.7099  2.1605 -1.2398
   29MOL0     H 3859   4.799  10.322   0.827 -0.2679  0.2128 -4.0726
   29MOL0     H 3860   4.653  10.236   1.013  2.5785 -0.5836 -0.4040
   29MOL0     H 3861   4.543  10.184   0.879  0.2591 -2.5820  1.1048
   29MOL0     H 3862   4.835  10.101   0.965 -0.4504 -1.5197  1.8057
   29MOL0     H 3863   4.778  10.074   0.799  4.3342 -0.7082  1.4100
   29MOL0     H 3864   4.774   9.889   0.965 -0.1875 -0.0436 -2.2431
   29MOL0     H 3865   4.652   9.950   1.068  0.5861 -4.4917  0.4699
   29MOL0     H 3866   4.409   9.967   0.986  0.8436 -1.8747  1.8532
   29MOL0     H 3867   4.161   9.919   0.798  2.4209  2.1986  0.6759
   29MOL0     H 3868   4.205   9.794   0.693 -2.0417 -0.6308  0.6836
   29MOL0     H 3869   4.254   9.659   0.912  1.1807 -0.0428 -2.6249
   29MOL0     H 3870   4.204   9.798   1.004  0.4165  0.9394 -0.8861
   29MOL0     H 3871   4.000   9.677   0.808 -3.8654  0.3312  1.9241
   29MOL0     H 3872   3.971   9.791   0.919 -3.4446 -1.7170  0.3208
   29MOL0     H 3873   4.006   9.492   0.966 -3.1915 -2.0405  0.8632
   29MOL0     H 3874   3.874   9.594   1.014  0.3004 -0.8955  0.9036
   29MOL0     H 3875   4.173   9.675   1.324 -1.3286 -0.7373  3.4834
   29MOL0     H 3876   4.141   9.851   1.482 -1.0036  0.1269  2.0862
   29MOL0     H 3877   3.949  10.255   1.541 -4.2727 -3.3348  1.9320
   29MOL0     H 3878   3.989  10.473   1.691 -1.9538 -0.4050 -0.3514
   29MOL0     H 3879   4.011  10.582   2.105 -0.4788 -1.1132  2.0486
   29MOL0     H 3880   4.017  10.407   2.126 -1.1883 -1.3254 -1.4647
   29MOL0     H 3881   4.211  10.544   2.172 -0.0618  4.9820 -3.0041
   29MOL0     H 3882   4.230  10.386   2.082 -0.5885 -0.5673  2.3117
   29MOL0     H 3883   4.273  10.500   1.884 -1.9438  0.9362 -0.0218
   29MOL0     H 3884   4.236  10.659   1.938  0.5338  0.3689 -1.7379
   29MOL0     H 3885   4.492  10.630   1.933 -1.0631  0.7539 -0.0979
   29MOL0     H 3886   4.467  10.468   2.003  1.3775 -0.0684  0.8615
   29MOL0     H 3887   4.407  10.598   2.225 -0.8740 -1.5488 -2.3889
   29MOL0     H 3888   4.397  10.742   2.124  1.7554  1.4202 -3.1341
   29MOL0     H 3889   4.665  10.591   2.186  2.0201  0.8564 -0.7861
   29MOL0     H 3890   4.664  10.723   2.087 -1.5155 -0.1739 -1.1357
   29MOL0     H 3891   4.567  10.711   2.385 -0.4800  1.2606  0.8431
   29MOL0     H 3892   4.607  10.858   2.306 -1.3770 -0.7577  2.6116
   29MOL0     H 3893   4.810  10.648   2.365  0.0450 -0.1889  1.5103
   29MOL0     H 3894   4.846  10.803   2.296  0.9152 -0.2716  1.9715
   29MOL0     H 3895   4.031  10.216   2.022  3.5224  1.3097 -0.0916
   29MOL0     H 3896   4.038  10.027   1.879 -1.8227 -2.7212 -4.0077
   29MOL0     H 3897   3.774   9.957   1.313  0.0044  0.5731 -5.3350
   29MOL0     H 3898   3.815   9.759   1.137  0.0353 -0.6265 -0.4894
   29MOL0     H 3899   4.785  10.735   1.330 -0.1830 -0.2966  0.4780
   29MOL0     H 3900   4.806  10.850   1.556  0.7912 -1.7668  4.5009
   29MOL0     H 3901   4.425  10.915   1.895 -0.4083 -0.6603 -0.7289
   29MOL0     H 3902   4.325  11.018   2.091  0.7244 -1.7611  3.9420
   29MOL0     H 3903   4.265  11.171   2.227  1.1422  0.6066 -1.2999
   29MOL0     H 3904   4.320  11.264   2.362  0.0298  1.4570 -2.0209
   29MOL0     H 3905   4.208  11.109   2.495  1.6744  3.1394 -1.2768
   29MOL0     H 3906   4.353  11.008   2.465  1.0293 -0.0052 -1.0257
   29MOL0     H 3907   4.212  10.930   2.261 -1.4834  0.5411 -1.5964
   29MOL0     H 3908   4.073  10.987   2.363  1.4989  2.1445 -3.0127
   29MOL0     H 3909   4.291  10.791   2.422 -0.6376  0.6521 -1.4514
   29MOL0     H 3910   4.181  10.824   2.546 -1.9703  1.5760 -0.6135
   29MOL0     H 3911   3.976  10.537   2.320 -3.4412  1.8469 -5.0162
   29MOL0     H 3912   4.729  11.101   2.229  0.6920 -2.5257 -0.8430
   29MOL0     H 3913   4.914  11.039   2.138 -1.4776  2.0319 -1.2340
   29MOL0     H 3914   4.893  10.888   2.074 -1.7483 -0.8647 -1.4325
   29MOL0     H 3915   4.922  11.028   1.964  1.9459 -1.4260 -0.6884
   30MOL0     O 3916  10.910   9.911   5.721  0.4586  0.3541 -0.7523
   30MOL0     C 3917  10.929   9.894   5.599 -0.5488 -0.1557  0.0203
   30MOL0     O 3918  11.043   9.835   5.551 -0.2442  0.3428  0.2774
   30MOL0     C 3919  11.145   9.783   5.631 -0.2681 -0.4297 -0.3901
   30MOL0     C 3920  11.202   9.671   5.578  0.4022  0.1066 -0.9573
   30MOL0     C 3921  11.299   9.613   5.650  0.3749 -0.2787  0.2966
   30MOL0     C 3922  11.353   9.668   5.769  1.0992  0.2830  0.3730
   30MOL0     O 3923  11.444   9.589   5.837 -0.3540 -0.6663 -0.3069
   30MOL0     C 3924  11.454   9.628   5.981  0.2682 -0.0350  0.5774
   30MOL0     C 3925  11.535   9.523   6.058  0.0991 -1.0043 -0.1197
   30MOL0     C 3926  11.685   9.520   6.014 -0.2633  0.0944 -0.6279
   30MOL0     C 3927  11.778   9.575   6.126  0.6476 -0.3828  0.0649
   30MOL0     C 3928  11.932   9.575   6.082  0.1979  0.4616  0.2919
   30MOL0     C 3929  12.026   9.584   6.198  0.0858 -1.3519 -0.1565
   30MOL0     C 3930  12.165   9.642   6.168 -0.4771  0.3950  1.6133
   30MOL0     C 3931  12.173   9.794   6.194 -0.3995  0.8663  0.5247
   30MOL0     N 3932  12.318   9.833   6.203  0.7691  0.5800 -0.2367
   30MOL0     C 3933  12.406   9.771   6.291 -0.1397  0.1067  0.1949
   30MOL0     C 3934  12.518   9.844   6.285 -0.2183 -0.1247 -0.3851
   30MOL0     C 3935  12.636   9.812   6.366  0.0824 -0.2425 -0.9803
   30MOL0     C 3936  12.712   9.708   6.301  0.6914  0.6044 -0.4950
   30MOL0     C 3937  12.761   9.732   6.159  0.1645  0.8235  0.0797
   30MOL0     C 3938  12.884   9.820   6.164 -0.8308  0.7949  0.6113
   30MOL0     O 3939  12.975   9.767   6.264 -0.6066 -0.1490 -0.4714
   30MOL0     C 3940  13.047   9.868   6.334  0.4772  0.2064 -0.4090
   30MOL0     C 3941  13.021   9.894   6.462  0.2256 -0.6090 -0.5285
   30MOL0     C 3942  13.085  10.001   6.529 -0.4729 -0.0224 -0.0857
   30MOL0     C 3943  13.187  10.068   6.471  0.4503  0.0468  0.0895
   30MOL0     C 3944  13.267  10.173   6.537 -0.1676 -0.1782  0.2060
   30MOL0     O 3945  13.355  10.252   6.461 -0.0371  0.2882  0.1016
   30MOL0     C 3946  13.424  10.362   6.502  1.1364  1.0339 -0.3524
   30MOL0     C 3947  13.482  10.425   6.391  0.3643 -1.0707  0.2644
   30MOL0     C 3948  13.541  10.549   6.409 -0.7120  0.3667  0.5434
   30MOL0     C 3949  13.556  10.608   6.533 -0.3324  0.2042  0.4798
   30MOL0     O 3950  13.610  10.733   6.554  0.3578 -0.0534  0.2564
   30MOL0     C 3951  13.602  10.833   6.453 -0.2410  0.6791 -0.1620
   30MOL0     C 3952  13.701  10.942   6.486 -0.1250 -0.4961 -0.1598
   30MOL0     C 3953  13.650  11.006   6.611 -0.8669 -0.2957  0.5123
   30MOL0     C 3954  13.772  11.040   6.706  0.4288 -0.4534  0.1405
   30MOL0     C 3955  13.726  11.045   6.860  0.2451  0.1430  0.5094
   30MOL0     C 3956  13.598  11.138   6.861  1.0359  0.0081  0.0046
   30MOL0     C 3957  13.566  11.186   6.994  0.9354 -0.3662 -0.9142
   30MOL0     C 3958  13.496  11.318   6.988 -0.0951  0.8361 -0.0082
   30MOL0    Cl 3959  13.345  11.326   6.887 -0.1470 -0.2476  1.1391
   30MOL0     C 3960  13.499  10.543   6.644  0.0531  0.4400  0.4139
   30MOL0     C 3961  13.429  10.414   6.629 -1.0687  0.6727  0.3053
   30MOL0     O 3962  13.237  10.191   6.654 -0.4097 -0.2896 -0.4575
   30MOL0     C 3963  13.207  10.050   6.340 -0.0182 -0.4427  0.2148
   30MOL0     C 3964  13.141   9.953   6.272  0.6704  0.0572  0.5395
   30MOL0     N 3965  12.489   9.953   6.200  0.7512  0.2424 -0.2136
   30MOL0     N 3966  12.362   9.945   6.162 -0.0406 -0.1670  0.0345
   30MOL0     C 3967  11.302   9.789   5.814  0.0806 -0.6002  0.0686
   30MOL0     C 3968  11.203   9.850   5.744  0.3451  0.6231 -0.2497
   30MOL0     C 3969  10.826   9.932   5.497  0.1117  0.3044  0.3266
   30MOL0     C 3970  10.783  10.069   5.478 -1.5378  0.6391 -0.7187
   30MOL0     C 3971  10.679  10.098   5.393 -0.1988  0.5715  0.0892
   30MOL0     C 3972  10.620   9.998   5.314  0.0599  0.2986 -0.1016
   30MOL0     O 3973  10.512  10.019   5.231  0.0966  0.0875 -0.2360
   30MOL0     C 3974  10.473  10.152   5.191  0.7120 -0.4234 -0.0494
   30MOL0     C 3975  10.330  10.158   5.125  0.2182 -0.0681  0.8116
   30MOL0     C 3976  10.223  10.214   5.223 -0.4323 -0.1303 -0.9440
   30MOL0     C 3977  10.093  10.242   5.145 -0.6486 -0.0929  0.2945
   30MOL0     C 3978  10.029  10.112   5.149  0.7216  0.0395  0.0920
   30MOL0     C 3979   9.967  10.010   5.142  0.1951  0.1324  0.9139
   30MOL0     C 3980  10.669   9.867   5.322 -0.7130  0.1350  0.2871
   30MOL0     C 3981  10.772   9.836   5.411  0.7808  0.2293  0.3347
   30MOL0     C 3982  10.807   9.688   5.419  0.1213  0.2060  0.0975
   30MOL0     H 3983  11.146   9.629   5.494 -4.3351 -0.5469  2.1625
   30MOL0     H 3984  11.334   9.515   5.618  1.7388  0.8660 -1.9109
   30MOL0     H 3985  11.516   9.714   6.008  1.2371  0.0561 -1.7064
   30MOL0     H 3986  11.354   9.641   6.024 -2.3427 -1.8036 -4.2766
   30MOL0     H 3987  11.496   9.422   6.041  0.6029 -0.9174 -1.9830
   30MOL0     H 3988  11.527   9.547   6.164  0.6576 -3.6005  0.6009
   30MOL0     H 3989  11.697   9.573   5.919 -0.8949  1.6703  0.1289
   30MOL0     H 3990  11.719   9.416   6.012  2.9068  0.9122  2.0770
   30MOL0     H 3991  11.753   9.682   6.131 -0.2069 -0.4451 -1.8137
   30MOL0     H 3992  11.767   9.525   6.222 -0.7880  0.3352  0.2939
   30MOL0     H 3993  11.956   9.491   6.017  1.1858  1.4378 -0.6506
   30MOL0     H 3994  11.947   9.661   6.016 -0.4326 -1.7572 -2.9369
   30MOL0     H 3995  11.976   9.652   6.267 -0.1202 -0.4349 -1.1809
   30MOL0     H 3996  12.038   9.486   6.245 -0.9844 -0.8560  1.2139
   30MOL0     H 3997  12.192   9.614   6.066  0.8502 -2.5079  2.6596
   30MOL0     H 3998  12.233   9.586   6.232 -0.0588  0.4394  1.2178
   30MOL0     H 3999  12.122   9.859   6.122  3.1083  0.9927 -2.1465
   30MOL0     H 4000  12.122   9.821   6.287  0.3076  2.6783  0.4295
   30MOL0     H 4001  12.387   9.680   6.346 -0.7696 -0.1169 -0.3707
   30MOL0     H 4002  12.700   9.897   6.392 -2.2913  0.2953  4.6608
   30MOL0     H 4003  12.596   9.782   6.463  2.8682  0.9590  0.6541
   30MOL0     H 4004  12.789   9.683   6.375  1.6636  0.4556 -1.5306
   30MOL0     H 4005  12.641   9.626   6.285  0.1729  0.7104  1.1200
   30MOL0     H 4006  12.689   9.766   6.084  2.9019  2.0629 -2.1955
   30MOL0     H 4007  12.794   9.635   6.120 -2.8177  0.5586 -2.0810
   30MOL0     H 4008  12.863   9.926   6.180 -1.4234  0.7271  0.3079
   30MOL0     H 4009  12.929   9.804   6.066  0.1172 -0.7546  1.2658
   30MOL0     H 4010  12.949   9.848   6.530 -0.7951  1.0855 -0.4152
   30MOL0     H 4011  13.051  10.044   6.623  2.4401  1.4496  0.4126
   30MOL0     H 4012  13.472  10.387   6.290  0.3879  0.9202 -0.5241
   30MOL0     H 4013  13.588  10.603   6.327 -0.3535  1.1303  1.2323
   30MOL0     H 4014  13.621  10.794   6.352 -0.0006 -0.2768  0.2431
   30MOL0     H 4015  13.503  10.879   6.461  1.2056  3.6403  2.7325
   30MOL0     H 4016  13.801  10.899   6.479 -0.4906 -1.6974  1.4552
   30MOL0     H 4017  13.697  11.017   6.407 -0.5122  1.5352  1.7025
   30MOL0     H 4018  13.583  11.089   6.588 -0.4135  0.0585  0.4313
   30MOL0     H 4019  13.587  10.946   6.677  1.4386  0.0402  3.2425
   30MOL0     H 4020  13.825  11.134   6.689  2.5063 -1.3828  1.1692
   30MOL0     H 4021  13.847  10.962   6.697  1.4904  0.6005 -0.3274
   30MOL0     H 4022  13.798  11.095   6.925  0.0576  2.0596 -0.6892
   30MOL0     H 4023  13.705  10.943   6.895  2.1394 -1.0435 -1.6006
   30MOL0     H 4024  13.611  11.220   6.790 -2.2024  1.9926  1.4647
   30MOL0     H 4025  13.515  11.081   6.819 -0.6826  1.7263  0.8895
   30MOL0     H 4026  13.645  11.192   7.070 -1.6920  0.9980  1.9754
   30MOL0     H 4027  13.489  11.125   7.043 -0.7891  3.0513  1.0154
   30MOL0     H 4028  13.471  11.352   7.089  0.8424  1.6379 -0.0240
   30MOL0     H 4029  13.570  11.391   6.954  3.1656 -1.3700  1.8522
   30MOL0     H 4030  13.506  10.582   6.746  2.3496  0.3402  0.3631
   30MOL0     H 4031  13.397  10.358   6.716  2.4079  0.4764  1.6120
   30MOL0     H 4032  13.275  10.113   6.284  0.3118 -2.3880 -1.7335
   30MOL0     H 4033  13.193   9.933   6.179  1.3531  1.1969  0.6527
   30MOL0     H 4034  11.343   9.830   5.906 -0.8480 -2.8435  1.5551
   30MOL0     H 4035  11.180   9.951   5.775 -0.1356  0.1469  0.9836
   30MOL0     H 4036  10.853  10.141   5.519  1.7855 -2.9137  0.4873
   30MOL0     H 4037  10.640  10.200   5.399 -2.7752 -0.2058 -1.6599
   30MOL0     H 4038  10.556  10.174   5.123  3.7803 -0.7127  3.3481
   30MOL0     H 4039  10.477  10.227   5.270 -0.8503 -2.3257  1.9507
   30MOL0     H 4040  10.287  10.063   5.091 -1.3017 -0.1157  2.6811
   30MOL0     H 4041  10.339  10.224   5.038  1.6703  3.0260  3.1096
   30MOL0     H 4042  10.267  10.304   5.265  0.2592 -0.2373 -1.4229
   30MOL0     H 4043  10.217  10.138   5.301  0.1591 -1.8073 -2.4613
   30MOL0     H 4044  10.023  10.313   5.190 -0.8419 -1.0077  1.4698
   30MOL0     H 4045  10.116  10.287   5.048  1.6182 -1.1389  0.2799
   30MOL0     H 4046   9.916   9.917   5.129 -0.1869  0.3895  0.5490
   30MOL0     H 4047  10.618   9.788   5.268 -0.0309  0.4801 -0.8954
   30MOL0     H 4048  10.856   9.659   5.513  0.6510  1.1894  0.1403
   30MOL0     H 4049  10.714   9.633   5.435  0.4467 -0.9506 -1.7698
   30MOL0     H 4050  10.880   9.648   5.349  0.4812 -1.2644  1.2587
   31MOL0     O 4051  10.962   5.436   3.591  0.2725  0.6520  0.3656
   31MOL0     C 4052  11.000   5.330   3.554 -0.1764  0.7132  0.5410
   31MOL0     O 4053  11.124   5.272   3.584  0.1404  0.2566  0.6134
   31MOL0     C 4054  11.202   5.328   3.678  1.2323 -0.4556 -0.2859
   31MOL0     C 4055  11.153   5.384   3.792  0.6910 -0.6061 -0.5546
   31MOL0     C 4056  11.224   5.443   3.890  0.3401 -0.2709  0.2954
   31MOL0     C 4057  11.358   5.475   3.860 -0.9276  0.3655 -0.1155
   31MOL0     O 4058  11.429   5.551   3.953 -0.4231  0.2600 -0.4848
   31MOL0     C 4059  11.442   5.691   3.910 -0.6729  0.2710 -0.5879
   31MOL0     C 4060  11.337   5.782   3.968 -0.5179 -0.5601  0.1971
   31MOL0     C 4061  11.347   5.803   4.123 -0.6727 -0.2620  0.0055
   31MOL0     C 4062  11.231   5.885   4.175 -0.3857  0.1478 -0.4038
   31MOL0     C 4063  11.267   5.941   4.311 -0.2982 -0.1565 -0.7126
   31MOL0     C 4064  11.152   6.035   4.373  0.2483  0.9812  0.1807
   31MOL0     C 4065  11.160   6.066   4.517  0.8010 -0.6143  0.0676
   31MOL0     C 4066  11.288   6.139   4.565  0.4885  0.2613  0.5156
   31MOL0     N 4067  11.299   6.145   4.710  0.0509 -0.0223  0.0626
   31MOL0     C 4068  11.360   6.253   4.770 -0.6096 -1.2114 -0.2085
   31MOL0     C 4069  11.398   6.205   4.893  0.3186  0.0659  0.5837
   31MOL0     C 4070  11.503   6.271   4.987 -0.1347 -0.8805  0.3899
   31MOL0     C 4071  11.493   6.276   5.140  0.9072  0.1268 -0.6530
   31MOL0     C 4072  11.451   6.145   5.204 -0.1153 -0.3385 -0.5979
   31MOL0     C 4073  11.454   6.159   5.358 -0.3361  0.5711 -0.3001
   31MOL0     O 4074  11.452   6.034   5.436 -0.1822 -0.5741  0.2014
   31MOL0     C 4075  11.342   5.976   5.496  0.1198  0.4755  1.1180
   31MOL0     C 4076  11.361   5.850   5.549  0.2170  1.1052 -0.2919
   31MOL0     C 4077  11.270   5.772   5.624 -0.0663 -0.3565  0.9628
   31MOL0     C 4078  11.144   5.832   5.661  0.5932  0.2149  0.0226
   31MOL0     C 4079  11.052   5.768   5.753  0.6633  0.1756 -0.0961
   31MOL0     O 4080  11.102   5.681   5.839 -0.4850  0.1917 -0.9596
   31MOL0     C 4081  11.024   5.618   5.932  0.7115  0.7724 -0.8207
   31MOL0     C 4082  11.035   5.650   6.067  0.5410 -0.0860  0.4670
   31MOL0     C 4083  10.950   5.570   6.152 -0.3881 -0.4677 -0.2133
   31MOL0     C 4084  10.857   5.474   6.110  0.0888  0.0328  0.0710
   31MOL0     O 4085  10.776   5.407   6.193  0.0603  0.1806  0.3815
   31MOL0     C 4086  10.831   5.373   6.329 -0.2465 -0.3613 -0.0899
   31MOL0     C 4087  10.743   5.425   6.442  0.0732 -0.0813 -0.8146
   31MOL0     C 4088  10.663   5.322   6.521  0.5259  0.0906  0.8375
   31MOL0     C 4089  10.753   5.267   6.626 -0.3503  0.9378  0.6215
   31MOL0     C 4090  10.673   5.153   6.701 -0.8475  0.6518  0.2246
   31MOL0     C 4091  10.640   5.020   6.632 -0.3248  0.0477  0.9330
   31MOL0     C 4092  10.566   4.933   6.719  0.5262  0.2378 -1.9130
   31MOL0     C 4093  10.644   4.852   6.826 -0.9604  0.3982 -1.1924
   31MOL0    Cl 4094  10.528   4.735   6.888  0.1029 -0.2139  0.2766
   31MOL0     C 4095  10.851   5.451   5.977  0.2593  0.6336 -0.0221
   31MOL0     C 4096  10.933   5.518   5.896 -0.3771  0.4006  0.2683
   31MOL0     O 4097  10.937   5.807   5.749  0.1203 -0.3115 -0.1491
   31MOL0     C 4098  11.118   5.958   5.596 -0.1734  0.1592  0.0056
   31MOL0     C 4099  11.209   6.023   5.512 -0.2767  0.4298 -0.0193
   31MOL0     N 4100  11.361   6.067   4.895  0.3930 -0.6242 -0.0375
   31MOL0     N 4101  11.288   6.033   4.792 -0.0796 -0.1751 -0.5637
   31MOL0     C 4102  11.415   5.404   3.753 -0.2907 -0.2966  0.4815
   31MOL0     C 4103  11.337   5.332   3.657  0.8055 -0.3596 -0.3252
   31MOL0     C 4104  10.927   5.242   3.445 -0.8471 -0.7261 -0.1773
   31MOL0     C 4105  10.945   5.104   3.432  0.3752 -0.4209 -0.8889
   31MOL0     C 4106  10.889   5.021   3.343  0.7162 -0.2809 -0.2357
   31MOL0     C 4107  10.780   5.074   3.262 -0.1265  1.1414 -0.1164
   31MOL0     O 4108  10.707   4.990   3.187  0.1700  0.4008  0.5268
   31MOL0     C 4109  10.654   5.034   3.063  0.2392  0.2371  0.8372
   31MOL0     C 4110  10.647   4.917   2.955  1.6353  0.6729  0.1761
   31MOL0     C 4111  10.725   4.928   2.823 -0.2813  0.3877 -0.2917
   31MOL0     C 4112  10.874   4.975   2.830  0.8065 -0.6363  0.3064
   31MOL0     C 4113  10.947   4.953   2.706 -0.7769  0.4248 -0.0551
   31MOL0     C 4114  11.007   4.940   2.601  0.6881 -0.2364  0.9203
   31MOL0     C 4115  10.758   5.210   3.274  0.1075 -0.1041  0.8354
   31MOL0     C 4116  10.836   5.297   3.356  0.8562 -0.8466 -0.4293
   31MOL0     C 4117  10.800   5.447   3.360  0.4512 -0.1905  0.1190
   31MOL0     H 4118  11.045   5.376   3.801  0.1112  4.3150 -0.4149
   31MOL0     H 4119  11.180   5.485   3.980 -1.0222  2.7471 -1.5918
   31MOL0     H 4120  11.538   5.730   3.945 -3.0676  4.3782  2.2910
   31MOL0     H 4121  11.442   5.698   3.801  3.3951  1.7052 -0.6566
   31MOL0     H 4122  11.241   5.739   3.939 -0.7082  0.9621 -1.6254
   31MOL0     H 4123  11.345   5.878   3.916 -0.5410 -0.0044  1.1987
   31MOL0     H 4124  11.444   5.847   4.148  0.6068 -2.5552 -0.5488
   31MOL0     H 4125  11.347   5.699   4.159 -0.8703 -0.1622  0.2938
   31MOL0     H 4126  11.207   5.961   4.100 -2.9849 -0.2044 -0.0278
   31MOL0     H 4127  11.145   5.817   4.175 -1.9655  2.0518 -0.1039
   31MOL0     H 4128  11.289   5.851   4.369  4.3149 -0.3209 -2.3760
   31MOL0     H 4129  11.359   6.000   4.310 -0.3282  0.0504  1.7949
   31MOL0     H 4130  11.132   6.130   4.322  0.3202  1.0544  0.2876
   31MOL0     H 4131  11.057   5.983   4.358 -0.5481  2.4237  0.0646
   31MOL0     H 4132  11.135   5.970   4.564 -2.6627  1.2354  2.5379
   31MOL0     H 4133  11.080   6.134   4.548  2.1291  0.4742  1.2627
   31MOL0     H 4134  11.368   6.085   4.515 -0.2898  2.8019 -3.9679
   31MOL0     H 4135  11.283   6.237   4.519 -1.3048  1.2480  2.5959
   31MOL0     H 4136  11.387   6.350   4.730  0.9187 -0.8306  1.6099
   31MOL0     H 4137  11.597   6.223   4.958  0.2134 -0.3890  0.6986
   31MOL0     H 4138  11.509   6.371   4.945  1.9349 -1.7006 -1.4739
   31MOL0     H 4139  11.597   6.295   5.167  1.0853  1.8530 -2.3085
   31MOL0     H 4140  11.433   6.363   5.169  2.3082  0.3039  2.0008
   31MOL0     H 4141  11.524   6.069   5.176 -1.7951 -2.7813  1.2650
   31MOL0     H 4142  11.358   6.118   5.154  0.3265 -2.6742 -0.2531
   31MOL0     H 4143  11.379   6.233   5.385  0.4452  0.5983  1.9846
   31MOL0     H 4144  11.548   6.209   5.381  0.3286 -0.7085 -0.1108
   31MOL0     H 4145  11.461   5.808   5.543  0.1911  1.2069 -1.9388
   31MOL0     H 4146  11.304   5.674   5.657  1.8333  0.9783  3.2918
   31MOL0     H 4147  11.102   5.733   6.086  1.1013  0.4288 -3.0967
   31MOL0     H 4148  10.948   5.599   6.257 -0.9908 -2.3206  0.3235
   31MOL0     H 4149  10.835   5.264   6.340  1.0189 -0.0178  5.3846
   31MOL0     H 4150  10.936   5.399   6.346 -0.3910 -0.0044  0.2592
   31MOL0     H 4151  10.799   5.477   6.520  1.1170  1.2471 -2.3927
   31MOL0     H 4152  10.674   5.493   6.392  2.0143  2.7792  0.1723
   31MOL0     H 4153  10.577   5.371   6.568  0.0248 -0.3398  0.3880
   31MOL0     H 4154  10.625   5.246   6.452  0.6006 -0.3696  1.2980
   31MOL0     H 4155  10.794   5.341   6.694 -0.6115  0.6368  1.1090
   31MOL0     H 4156  10.840   5.227   6.572  0.4249  3.5278 -0.1971
   31MOL0     H 4157  10.583   5.204   6.737 -2.5206 -0.2778 -2.3452
   31MOL0     H 4158  10.730   5.119   6.788  0.2212  0.8763 -0.3840
   31MOL0     H 4159  10.587   5.027   6.537  0.9039 -0.7581  0.1695
   31MOL0     H 4160  10.734   4.970   6.608  0.2382  1.3364  0.3858
   31MOL0     H 4161  10.510   4.868   6.651 -1.1544  0.1651 -0.5323
   31MOL0     H 4162  10.492   4.987   6.779  0.3477 -1.0764 -0.9215
   31MOL0     H 4163  10.734   4.817   6.774 -0.9864  1.9608 -2.3538
   31MOL0     H 4164  10.676   4.920   6.905 -2.0907 -0.6916  0.2577
   31MOL0     H 4165  10.771   5.399   5.926  0.5540 -3.3627  3.0259
   31MOL0     H 4166  10.915   5.511   5.789 -0.7073 -0.3298  0.3685
   31MOL0     H 4167  11.027   6.014   5.611 -0.2185  0.6451 -1.8436
   31MOL0     H 4168  11.181   6.113   5.459  1.2608 -0.9673 -3.5228
   31MOL0     H 4169  11.523   5.399   3.756 -0.3277 -1.3576  0.7061
   31MOL0     H 4170  11.387   5.277   3.578  1.4838  2.5415 -2.0602
   31MOL0     H 4171  11.013   5.062   3.506  1.6964  2.5192 -0.2904
   31MOL0     H 4172  10.892   4.913   3.337  1.5861 -0.2472 -0.5794
   31MOL0     H 4173  10.727   5.103   3.020  1.4813 -1.9622 -0.8026
   31MOL0     H 4174  10.554   5.077   3.075 -0.9721 -1.7435 -1.2872
   31MOL0     H 4175  10.542   4.899   2.932  1.8838  0.8260 -1.1468
   31MOL0     H 4176  10.683   4.826   3.004  0.1210  1.5339  3.1126
   31MOL0     H 4177  10.675   4.996   2.753 -0.7059  0.0701 -0.3029
   31MOL0     H 4178  10.713   4.828   2.781  0.9055 -0.1643  0.6286
   31MOL0     H 4179  10.871   5.082   2.854 -0.2241 -0.7543  0.7751
   31MOL0     H 4180  10.930   4.924   2.909  0.4666 -0.0677  0.9251
   31MOL0     H 4181  11.050   4.932   2.503 -3.7513 -3.5323 -1.0917
   31MOL0     H 4182  10.682   5.269   3.224  3.1937  1.4117 -2.4891
   31MOL0     H 4183  10.741   5.468   3.270 -0.0509 -2.4161 -0.1328
   31MOL0     H 4184  10.735   5.466   3.446 -0.9056 -0.4106 -0.8103
   31MOL0     H 4185  10.888   5.511   3.352 -1.2759  2.6074  1.9883
   32MOL0     O 4186   7.479   5.475   2.537  0.0065 -0.8065  0.4249
   32MOL0     C 4187   7.513   5.397   2.448  0.1913 -0.3383 -0.8229
   32MOL0     O 4188   7.633   5.337   2.440  0.3242 -0.7559 -0.3945
   32MOL0     C 4189   7.728   5.378   2.523  0.2617  0.3032 -0.3017
   32MOL0     C 4190   7.731   5.358   2.661  0.1738  0.7076 -0.1403
   32MOL0     C 4191   7.842   5.407   2.732  0.1913 -0.6113  0.2394
   32MOL0     C 4192   7.943   5.480   2.674 -1.0044  0.2294 -0.0670
   32MOL0     O 4193   8.052   5.513   2.759  0.2270  0.4779 -0.4701
   32MOL0     C 4194   8.142   5.613   2.715 -0.7578  0.4301  0.1626
   32MOL0     C 4195   8.263   5.555   2.630 -0.5316 -1.2769 -0.0706
   32MOL0     C 4196   8.356   5.678   2.598 -1.0567 -0.3618 -0.3492
   32MOL0     C 4197   8.499   5.652   2.545 -0.5470  1.5355 -0.0802
   32MOL0     C 4198   8.600   5.597   2.640 -0.1350 -0.4686  0.0395
   32MOL0     C 4199   8.724   5.544   2.563  0.8416 -0.2623  0.3141
   32MOL0     C 4200   8.820   5.454   2.648 -0.1627 -0.0724 -0.6165
   32MOL0     C 4201   8.915   5.370   2.565  0.1434  0.5023  0.1488
   32MOL0     N 4202   8.853   5.260   2.493  0.5055 -0.4450 -1.0499
   32MOL0     C 4203   8.779   5.156   2.547  0.0276  0.2700 -0.4924
   32MOL0     C 4204   8.744   5.086   2.443 -0.0629  0.5424  0.0934
   32MOL0     C 4205   8.669   4.963   2.445 -0.5382  0.3746  0.5166
   32MOL0     C 4206   8.715   4.863   2.555  0.4601 -0.6152  0.4069
   32MOL0     C 4207   8.844   4.800   2.527  0.0110  0.3293  0.7664
   32MOL0     C 4208   8.828   4.688   2.418 -0.3597  0.3078 -0.3688
   32MOL0     O 4209   8.943   4.598   2.398  0.4662  0.4182  0.2904
   32MOL0     C 4210   9.041   4.643   2.313  0.0294 -0.4355 -0.3118
   32MOL0     C 4211   9.142   4.551   2.294  0.1454 -0.7925 -0.5579
   32MOL0     C 4212   9.258   4.578   2.220  0.6169 -1.0614  0.6884
   32MOL0     C 4213   9.263   4.699   2.142  0.0446  0.4014 -0.4476
   32MOL0     C 4214   9.377   4.727   2.062  0.0180  0.3761 -0.6110
   32MOL0     O 4215   9.368   4.845   2.005 -0.5030 -0.4024  0.0181
   32MOL0     C 4216   9.459   4.886   1.907 -0.1111 -0.2932 -0.6803
   32MOL0     C 4217   9.506   4.794   1.817 -0.1553 -0.1170  0.3975
   32MOL0     C 4218   9.615   4.821   1.726  0.3793 -0.7644  0.2454
   32MOL0     C 4219   9.658   4.961   1.720  0.1182  0.3939 -0.1342
   32MOL0     O 4220   9.754   5.012   1.640 -0.5408  0.3380  0.6203
   32MOL0     C 4221   9.802   4.933   1.534 -0.1539  0.1072  0.1936
   32MOL0     C 4222   9.915   4.835   1.559 -0.1731 -0.5230 -0.3418
   32MOL0     C 4223  10.048   4.892   1.588  0.6015 -0.4198  0.1248
   32MOL0     C 4224  10.161   4.782   1.615 -0.1525  0.3678  0.0882
   32MOL0     C 4225  10.284   4.842   1.677 -0.3977 -0.5724 -0.1832
   32MOL0     C 4226  10.394   4.743   1.710  0.1058 -0.1514  0.4350
   32MOL0     C 4227  10.511   4.808   1.806  0.1726  0.1872  0.8108
   32MOL0     C 4228  10.597   4.711   1.873 -0.2427 -0.1640  0.0620
   32MOL0    Cl 4229  10.726   4.782   1.973 -0.0338 -0.2072 -0.1853
   32MOL0     C 4230   9.605   5.060   1.804  0.4873 -0.6121  0.2837
   32MOL0     C 4231   9.501   5.023   1.899 -0.4017  0.8906  0.2474
   32MOL0     O 4232   9.478   4.657   2.076 -0.1512 -0.7577  0.7967
   32MOL0     C 4233   9.162   4.793   2.159  0.5545 -1.1427 -0.2256
   32MOL0     C 4234   9.049   4.766   2.239 -0.0517  0.4579 -1.2675
   32MOL0     N 4235   8.799   5.138   2.327  0.3139 -0.3411  0.5120
   32MOL0     N 4236   8.865   5.246   2.359 -0.6005  0.3628 -0.4425
   32MOL0     C 4237   7.946   5.489   2.536 -0.8841  1.0433 -0.8441
   32MOL0     C 4238   7.839   5.443   2.459  0.4801 -0.1024  0.1026
   32MOL0     C 4239   7.427   5.388   2.327  0.2312  0.4719 -0.5446
   32MOL0     C 4240   7.361   5.271   2.292  0.0873  0.3770  0.7321
   32MOL0     C 4241   7.278   5.257   2.187  0.7821 -0.0337  0.8697
   32MOL0     C 4242   7.233   5.375   2.116 -0.7042 -0.7457 -0.3983
   32MOL0     O 4243   7.123   5.377   2.034 -0.0720  0.5298 -0.6002
   32MOL0     C 4244   7.140   5.293   1.920  1.0603  0.0318 -0.5651
   32MOL0     C 4245   7.130   5.384   1.790 -0.4818 -0.1633  0.6636
   32MOL0     C 4246   7.239   5.486   1.782 -0.3893 -0.0137 -0.0780
   32MOL0     C 4247   7.228   5.581   1.658  0.0613  0.3015  0.1197
   32MOL0     C 4248   7.267   5.502   1.543  0.2919 -1.0997 -0.0406
   32MOL0     C 4249   7.281   5.445   1.430 -0.1323 -0.0564  0.4030
   32MOL0     C 4250   7.297   5.500   2.157  0.7445 -0.5796  0.4536
   32MOL0     C 4251   7.394   5.508   2.258  0.0453  0.5071  0.4017
   32MOL0     C 4252   7.442   5.653   2.299  0.5208  0.4951 -0.2246
   32MOL0     H 4253   7.661   5.299   2.718 -1.8918  6.4897  4.3305
   32MOL0     H 4254   7.866   5.381   2.835 -1.9870  0.5499  1.0884
   32MOL0     H 4255   8.088   5.691   2.660 -0.1447 -0.5064 -1.8998
   32MOL0     H 4256   8.173   5.668   2.804 -3.1697  0.2870  1.1456
   32MOL0     H 4257   8.224   5.512   2.538  0.9515  0.4724 -1.5928
   32MOL0     H 4258   8.316   5.478   2.688  1.0629 -0.2358 -0.0800
   32MOL0     H 4259   8.371   5.728   2.694 -0.5000  1.4981 -1.3547
   32MOL0     H 4260   8.309   5.749   2.529 -2.3657  3.3440  3.9067
   32MOL0     H 4261   8.494   5.580   2.463  1.9573  1.9859 -0.7087
   32MOL0     H 4262   8.540   5.744   2.505 -0.8746  1.9646  0.5549
   32MOL0     H 4263   8.636   5.663   2.719  0.3646  0.2868 -0.7979
   32MOL0     H 4264   8.554   5.508   2.684  3.4522 -2.4188  0.1707
   32MOL0     H 4265   8.696   5.479   2.479 -0.0019  2.8639 -1.9759
   32MOL0     H 4266   8.776   5.632   2.523 -3.4425  1.1077 -2.9720
   32MOL0     H 4267   8.764   5.388   2.714  0.5793 -1.0828 -0.9758
   32MOL0     H 4268   8.879   5.523   2.709  1.6167 -0.5614 -1.7078
   32MOL0     H 4269   8.969   5.430   2.492  0.1288 -0.2869 -0.5201
   32MOL0     H 4270   8.987   5.329   2.637 -0.7394 -2.1610 -0.3571
   32MOL0     H 4271   8.776   5.129   2.652  0.6400 -2.5251 -1.1221
   32MOL0     H 4272   8.570   4.982   2.487 -0.4071 -0.9977  1.5430
   32MOL0     H 4273   8.648   4.918   2.348 -4.5320  2.5015  0.1911
   32MOL0     H 4274   8.725   4.922   2.646  2.8686  1.7503 -1.2014
   32MOL0     H 4275   8.636   4.788   2.552 -0.3002  0.1151  1.4608
   32MOL0     H 4276   8.888   4.757   2.617 -0.7518 -1.0272  0.5292
   32MOL0     H 4277   8.900   4.887   2.493  1.0499  0.4763  2.7796
   32MOL0     H 4278   8.792   4.742   2.330 -0.8467  0.4201 -0.1050
   32MOL0     H 4279   8.750   4.619   2.450 -2.0427  1.3226 -2.0682
   32MOL0     H 4280   9.121   4.454   2.337  0.0940 -1.1267 -1.3417
   32MOL0     H 4281   9.330   4.498   2.203  2.1357  0.8477 -2.9989
   32MOL0     H 4282   9.477   4.690   1.813 -0.0438 -0.1827  1.1094
   32MOL0     H 4283   9.658   4.740   1.668  0.4777 -0.4056 -0.1868
   32MOL0     H 4284   9.714   4.884   1.492 -0.8852  1.9002 -0.5044
   32MOL0     H 4285   9.831   5.006   1.457 -2.3229 -2.6625 -3.5511
   32MOL0     H 4286   9.889   4.755   1.630 -2.3687  0.7253  0.3756
   32MOL0     H 4287   9.929   4.786   1.463 -0.0182 -1.0660 -0.0472
   32MOL0     H 4288  10.078   4.946   1.497  2.6645 -1.1934  0.2762
   32MOL0     H 4289  10.036   4.964   1.668 -1.5565 -1.8490  1.1794
   32MOL0     H 4290  10.187   4.745   1.515 -2.1892 -1.9707  0.3326
   32MOL0     H 4291  10.118   4.702   1.675 -1.4578  0.4456 -0.6935
   32MOL0     H 4292  10.255   4.893   1.770 -2.5067 -1.9007 -0.0505
   32MOL0     H 4293  10.315   4.917   1.603 -3.7090 -0.6686 -1.8714
   32MOL0     H 4294  10.357   4.651   1.756 -1.4120 -0.4394 -1.2380
   32MOL0     H 4295  10.450   4.720   1.619 -1.5256  1.1203 -0.9395
   32MOL0     H 4296  10.464   4.870   1.882 -1.4778 -0.0513  0.0499
   32MOL0     H 4297  10.575   4.877   1.751 -1.3861  2.5860  1.8566
   32MOL0     H 4298  10.537   4.639   1.929  0.4813 -1.0637 -0.2835
   32MOL0     H 4299  10.655   4.648   1.804  1.7448 -2.1191  3.2605
   32MOL0     H 4300   9.628   5.163   1.776 -2.4919 -0.2098 -1.0882
   32MOL0     H 4301   9.452   5.094   1.965  1.1827  1.1076  1.2425
   32MOL0     H 4302   9.150   4.881   2.096  3.0588 -0.7620 -0.2996
   32MOL0     H 4303   8.965   4.835   2.250 -0.2179 -0.1708  2.6029
   32MOL0     H 4304   8.035   5.535   2.495 -0.5370  1.4612  0.3441
   32MOL0     H 4305   7.832   5.445   2.351  0.9246  2.9137  0.0572
   32MOL0     H 4306   7.376   5.183   2.354  1.0178  0.4643  0.6347
   32MOL0     H 4307   7.222   5.164   2.175 -1.7713  1.2672  1.9762
   32MOL0     H 4308   7.061   5.217   1.921 -0.5766  1.6159 -2.0016
   32MOL0     H 4309   7.231   5.233   1.919  0.9319 -0.1869 -1.8253
   32MOL0     H 4310   7.035   5.438   1.780  0.6856  1.8860 -0.0348
   32MOL0     H 4311   7.133   5.319   1.702 -4.8812 -2.8775  2.1550
   32MOL0     H 4312   7.320   5.413   1.783 -0.3679  0.0182  0.4337
   32MOL0     H 4313   7.235   5.548   1.872  0.8579 -0.8238  0.5571
   32MOL0     H 4314   7.127   5.625   1.656 -0.5827 -0.9512 -4.2766
   32MOL0     H 4315   7.295   5.668   1.662 -0.6474  1.0009 -2.0060
   32MOL0     H 4316   7.290   5.384   1.343 -0.9290 -0.2179  0.4336
   32MOL0     H 4317   7.264   5.595   2.116 -0.8648 -1.7047 -1.0275
   32MOL0     H 4318   7.437   5.661   2.408 -1.6250  0.5834 -0.2890
   32MOL0     H 4319   7.549   5.659   2.274  0.1282  1.0883 -1.9213
   32MOL0     H 4320   7.381   5.730   2.251  0.3156  0.1641 -0.5002
   33MOL0     O 4321   5.440   0.475  11.175  0.1368  0.2663 -0.4348
   33MOL0     C 4322   5.383   0.554  11.098  0.2814  0.7536  0.7955
   33MOL0     O 4323   5.273   0.622  11.136  0.3419  0.0612  0.4178
   33MOL0     C 4324   5.257   0.655  11.271  0.0454 -0.3895  0.2954
   33MOL0     C 4325   5.281   0.782  11.315  0.4266  0.0476  1.5775
   33MOL0     C 4326   5.225   0.819  11.439  0.5921  0.2830  0.9081
   33MOL0     C 4327   5.167   0.730  11.529 -0.1425 -0.1520  0.5850
   33MOL0     O 4328   5.125   0.767  11.655  0.1208 -0.1217  0.1744
   33MOL0     C 4329   5.115   0.666  11.755 -0.1313  0.0040 -0.4871
   33MOL0     C 4330   5.089   0.752  11.882  0.7322 -0.4811 -0.0944
   33MOL0     C 4331   5.135   0.672  12.001  0.0161  0.2501 -0.4376
   33MOL0     C 4332   5.101   0.741  12.139 -0.6024 -0.3076 -0.5989
   33MOL0     C 4333   5.088   0.641  12.248  0.5086  0.2036  0.0085
   33MOL0     C 4334   5.229   0.602  12.300  0.5949  0.2916 -0.1814
   33MOL0     C 4335   5.214   0.488  12.406  0.0112  0.1184 -0.8999
   33MOL0     C 4336   5.368   0.467  12.456  1.0146 -0.4680  0.7113
   33MOL0     N 4337   5.396   0.334  12.512 -0.0889 -0.3923 -0.7175
   33MOL0     C 4338   5.363   0.219  12.444  0.5755  0.5236 -0.3204
   33MOL0     C 4339   5.427   0.122  12.520  1.4538 -0.3470 -1.1162
   33MOL0     C 4340   5.420  -0.028  12.495  0.1100 -1.2935 -0.6157
   33MOL0     C 4341   5.520  -0.052  12.383 -0.1560 -0.4072  0.0983
   33MOL0     C 4342   5.517  -0.205  12.351  0.3205  0.5352  0.8915
   33MOL0     C 4343   5.394  -0.247  12.261 -0.5191 -0.1706  0.2744
   33MOL0     O 4344   5.386  -0.159  12.145 -0.8299 -0.4126 -0.3611
   33MOL0     C 4345   5.337  -0.225  12.033  0.1085 -0.2252 -0.4244
   33MOL0     C 4346   5.270  -0.352  12.033  0.4922 -0.1582  0.0313
   33MOL0     C 4347   5.201  -0.390  11.918  0.4333 -0.6358 -0.3272
   33MOL0     C 4348   5.203  -0.328  11.792  0.5500  0.6634 -1.1974
   33MOL0     C 4349   5.126  -0.372  11.678 -0.1446  0.3060 -0.1309
   33MOL0     O 4350   5.160  -0.327  11.552 -0.4849  0.1906 -0.3337
   33MOL0     C 4351   5.085  -0.347  11.442  0.6698 -0.2926  0.3370
   33MOL0     C 4352   4.964  -0.408  11.418 -0.5772  0.2097  0.2326
   33MOL0     C 4353   4.904  -0.413  11.291 -0.0029 -0.1209  0.3074
   33MOL0     C 4354   4.972  -0.362  11.179  0.0222 -0.7271  0.2826
   33MOL0     O 4355   4.903  -0.384  11.059  0.0205 -0.0938 -0.1011
   33MOL0     C 4356   4.925  -0.295  10.950 -0.3882  0.2034  0.0816
   33MOL0     C 4357   4.812  -0.306  10.856 -0.4009 -0.1050  0.2640
   33MOL0     C 4358   4.682  -0.237  10.895  0.3288 -0.3535  0.0749
   33MOL0     C 4359   4.570  -0.304  10.810 -0.5776 -0.6387 -1.3118
   33MOL0     C 4360   4.427  -0.259  10.846 -0.6189 -1.1992 -0.8695
   33MOL0     C 4361   4.327  -0.329  10.751 -0.6588  0.1478 -0.0715
   33MOL0     C 4362   4.233  -0.421  10.829 -0.0655 -0.4003  0.2644
   33MOL0     C 4363   4.111  -0.443  10.740 -0.0162  0.0334 -0.1310
   33MOL0    Cl 4364   4.003  -0.318  10.726 -0.0184 -0.0431 -0.1068
   33MOL0     C 4365   5.092  -0.304  11.203  0.2140 -0.5250 -0.4931
   33MOL0     C 4366   5.142  -0.301  11.331 -0.3993 -0.6949  0.4418
   33MOL0     O 4367   5.037  -0.448  11.711  0.3476  0.4723  0.7680
   33MOL0     C 4368   5.272  -0.205  11.791  0.0904  0.3770  1.1126
   33MOL0     C 4369   5.342  -0.158  11.913 -0.7603  0.0468  0.9518
   33MOL0     N 4370   5.503   0.187  12.619  0.5840  0.5802  0.0399
   33MOL0     N 4371   5.458   0.308  12.621 -0.4279  1.1265 -0.8442
   33MOL0     C 4372   5.149   0.603  11.478 -0.1713  0.1356 -0.6011
   33MOL0     C 4373   5.198   0.556  11.351  0.1188 -0.7528 -0.3820
   33MOL0     C 4374   5.414   0.532  10.952  0.3157 -0.7560  0.3317
   33MOL0     C 4375   5.311   0.561  10.860 -0.4349 -0.4941  0.0441
   33MOL0     C 4376   5.338   0.552  10.720  0.0576  0.5584  0.0511
   33MOL0     C 4377   5.465   0.517  10.670 -1.0604  0.9794 -0.3234
   33MOL0     O 4378   5.479   0.502  10.531 -0.1987 -0.2968  0.1371
   33MOL0     C 4379   5.595   0.560  10.471  0.3393  0.3976  0.0008
   33MOL0     C 4380   5.584   0.711  10.463 -0.1170  1.2499 -0.9122
   33MOL0     C 4381   5.715   0.763  10.393  0.7531  0.4845 -0.2805
   33MOL0     C 4382   5.730   0.912  10.417 -0.0730 -0.1613 -0.7967
   33MOL0     C 4383   5.808   0.970  10.311 -0.4976 -0.1561 -0.7164
   33MOL0     C 4384   5.889   1.021  10.230  0.1867  0.2470  0.1681
   33MOL0     C 4385   5.559   0.475  10.762  0.0121 -0.2512  0.8036
   33MOL0     C 4386   5.544   0.484  10.905  0.4930 -0.0153 -0.3995
   33MOL0     C 4387   5.664   0.437  10.991  0.7025  0.3424  1.4012
   33MOL0     H 4388   5.326   0.864  11.260 -0.4773 -0.2893  0.2892
   33MOL0     H 4389   5.234   0.922  11.472 -1.0626  0.7862 -0.1194
   33MOL0     H 4390   5.025   0.607  11.739  0.1737 -0.2867 -1.1734
   33MOL0     H 4391   5.205   0.605  11.774 -0.2433  0.5874  2.3957
   33MOL0     H 4392   4.983   0.778  11.896  0.3970 -0.7471 -1.8352
   33MOL0     H 4393   5.154   0.840  11.883  0.1950 -0.0657 -0.6502
   33MOL0     H 4394   5.239   0.641  11.993 -0.3446 -1.3137  0.5006
   33MOL0     H 4395   5.084   0.576  11.992  0.1177  0.3729 -3.2001
   33MOL0     H 4396   5.177   0.816  12.164  0.0449 -1.5187  1.2997
   33MOL0     H 4397   5.005   0.793  12.136 -0.2955  0.3302 -4.4852
   33MOL0     H 4398   5.027   0.687  12.327 -0.9591 -1.4180 -0.1094
   33MOL0     H 4399   5.032   0.558  12.202 -0.1541  0.5604  0.1521
   33MOL0     H 4400   5.296   0.564  12.222  2.6730 -0.1944  1.7534
   33MOL0     H 4401   5.265   0.692  12.350 -0.2051  2.0071 -2.4983
   33MOL0     H 4402   5.191   0.389  12.367 -1.5035  0.0128  0.1848
   33MOL0     H 4403   5.154   0.517  12.493  2.4140 -0.5982  1.1270
   33MOL0     H 4404   5.431   0.476  12.367 -0.7380  2.3665 -0.3838
   33MOL0     H 4405   5.409   0.545  12.521  3.6928 -2.6914  1.9027
   33MOL0     H 4406   5.303   0.213  12.354  1.8520 -1.7442 -1.0918
   33MOL0     H 4407   5.462  -0.075  12.584  0.3078  1.5965  0.9279
   33MOL0     H 4408   5.316  -0.057  12.479 -0.9993  0.6039  2.2969
   33MOL0     H 4409   5.496   0.020  12.304  1.7900  0.4266  0.2303
   33MOL0     H 4410   5.623  -0.024  12.407  1.8101 -1.6703 -5.2627
   33MOL0     H 4411   5.514  -0.271  12.439  0.8665 -2.1317 -0.9755
   33MOL0     H 4412   5.608  -0.234  12.298 -0.6386 -1.8349  0.4111
   33MOL0     H 4413   5.301  -0.238  12.319 -1.0181 -0.3868 -0.4742
   33MOL0     H 4414   5.417  -0.349  12.229 -1.7448 -1.1705  2.3770
   33MOL0     H 4415   5.243  -0.400  12.126  0.6588  2.1127  1.3229
   33MOL0     H 4416   5.141  -0.480  11.924  2.3568 -2.0590 -1.1331
   33MOL0     H 4417   4.905  -0.460  11.493 -0.0045  1.5627  1.6807
   33MOL0     H 4418   4.804  -0.453  11.284  0.1033 -0.3866  0.3043
   33MOL0     H 4419   4.942  -0.194  10.989  0.3570  1.5755 -3.4559
   33MOL0     H 4420   5.019  -0.322  10.902 -1.3260 -2.5828 -0.3568
   33MOL0     H 4421   4.853  -0.280  10.758  0.7062 -0.6260  0.5739
   33MOL0     H 4422   4.786  -0.413  10.857 -1.9169  0.2322  1.3609
   33MOL0     H 4423   4.666  -0.245  11.003  0.7310  1.1375  0.2783
   33MOL0     H 4424   4.680  -0.128  10.879 -0.9086 -0.0034  2.2035
   33MOL0     H 4425   4.570  -0.413  10.819 -0.9283 -0.4589  1.6990
   33MOL0     H 4426   4.582  -0.286  10.703  0.8476 -0.7567 -1.1955
   33MOL0     H 4427   4.437  -0.151  10.826 -1.3933 -0.4928  2.0570
   33MOL0     H 4428   4.412  -0.269  10.954 -1.8979  1.1050 -0.7663
   33MOL0     H 4429   4.279  -0.244  10.701  0.8588 -0.3220 -2.4843
   33MOL0     H 4430   4.373  -0.377  10.664 -3.0835 -2.6175  0.0095
   33MOL0     H 4431   4.208  -0.379  10.927 -0.1220  0.7164 -0.2142
   33MOL0     H 4432   4.282  -0.519  10.837 -1.9931 -1.2397  4.2417
   33MOL0     H 4433   4.143  -0.461  10.637 -0.0059 -0.2497 -0.0802
   33MOL0     H 4434   4.052  -0.522  10.788  0.0921  0.3761  0.5859
   33MOL0     H 4435   5.153  -0.288  11.115  0.9771 -0.6912 -0.0035
   33MOL0     H 4436   5.242  -0.260  11.332 -0.4700 -0.3672 -1.6551
   33MOL0     H 4437   5.274  -0.157  11.694  1.5737 -1.2825  0.2734
   33MOL0     H 4438   5.407  -0.071  11.917  0.0823 -0.6220  2.6608
   33MOL0     H 4439   5.085   0.540  11.539 -0.4070  0.1411 -0.8406
   33MOL0     H 4440   5.187   0.455  11.312 -1.2013  0.2375 -2.7672
   33MOL0     H 4441   5.221   0.598  10.909 -0.2712  0.8659 -0.6357
   33MOL0     H 4442   5.255   0.585  10.659 -2.4307 -1.4199  2.1484
   33MOL0     H 4443   5.607   0.511  10.373 -2.4872 -1.9690  0.7007
   33MOL0     H 4444   5.683   0.531  10.527  0.9552 -0.1984 -1.2248
   33MOL0     H 4445   5.583   0.755  10.563 -2.2708  2.2732 -1.3227
   33MOL0     H 4446   5.494   0.747  10.411 -0.4518 -1.0076 -2.0153
   33MOL0     H 4447   5.707   0.740  10.287 -2.0675  0.5099 -0.1589
   33MOL0     H 4448   5.792   0.722  10.459  0.2201  0.4759  0.3598
   33MOL0     H 4449   5.630   0.956  10.423  0.2262  0.4281  0.0057
   33MOL0     H 4450   5.777   0.931  10.514  1.1162 -0.9876 -1.1962
   33MOL0     H 4451   5.940   1.064  10.146  0.4764 -2.1702 -0.9816
   33MOL0     H 4452   5.650   0.435  10.719 -1.5055 -1.7385 -1.2286
   33MOL0     H 4453   5.657   0.478  11.092 -0.6892  4.4533 -0.1229
   33MOL0     H 4454   5.680   0.329  10.991  0.7939  0.3551  1.5709
   33MOL0     H 4455   5.752   0.479  10.942 -0.5987  2.3790  0.6564
   34MOL0     O 4456   7.790   0.985   0.020  0.7218  0.0657 -0.2904
   34MOL0     C 4457   7.786   1.068  -0.071 -0.0656 -0.7115  0.7435
   34MOL0     O 4458   7.849   1.056  -0.197  0.3606 -0.0243 -0.2396
   34MOL0     C 4459   7.899   0.932  -0.224  0.9082 -0.8248 -0.9268
   34MOL0     C 4460   7.832   0.852  -0.324 -0.3848  0.8350  0.1005
   34MOL0     C 4461   7.873   0.720  -0.345 -0.7763 -0.1006  0.7050
   34MOL0     C 4462   7.980   0.667  -0.279  0.0235  0.0103  0.4883
   34MOL0     O 4463   8.019   0.539  -0.318  0.9217  0.9384 -0.2214
   34MOL0     C 4464   8.024   0.442  -0.213 -0.8589 -0.2008 -0.7759
   34MOL0     C 4465   7.984   0.315  -0.288  0.3350 -0.6513  0.8770
   34MOL0     C 4466   7.963   0.199  -0.197 -0.6823  0.5426 -0.4758
   34MOL0     C 4467   7.948   0.067  -0.280  0.6182 -0.0879  0.0238
   34MOL0     C 4468   7.886  -0.054  -0.211 -0.7118  0.8764  0.7635
   34MOL0     C 4469   7.975  -0.119  -0.098  0.3908 -0.1914  0.9005
   34MOL0     C 4470   7.909  -0.230  -0.020 -0.0516 -0.3901  0.2930
   34MOL0     C 4471   8.005  -0.277   0.096 -0.3701  0.7035 -0.6386
   34MOL0     N 4472   8.018  -0.188   0.199  0.7223  0.4029 -0.2108
   34MOL0     C 4473   7.918  -0.105   0.260  1.0845  0.5294  0.6577
   34MOL0     C 4474   7.975  -0.015   0.339 -0.8352  0.2252 -0.1395
   34MOL0     C 4475   7.890   0.096   0.400  0.5924  0.5190  0.6968
   34MOL0     C 4476   7.783   0.172   0.319 -0.0438 -0.4754  0.1501
   34MOL0     C 4477   7.679   0.246   0.403  0.9027 -1.2633 -0.2935
   34MOL0     C 4478   7.602   0.139   0.473  0.4463  0.4378 -0.2942
   34MOL0     O 4479   7.500   0.213   0.547  0.2492  0.2139  0.3602
   34MOL0     C 4480   7.398   0.148   0.617 -0.5814  1.1846 -0.3245
   34MOL0     C 4481   7.379   0.014   0.631 -0.4447  0.7274  0.3948
   34MOL0     C 4482   7.287  -0.040   0.720  0.4618 -0.4589  0.5236
   34MOL0     C 4483   7.185   0.046   0.784  0.1914 -0.1939  1.0654
   34MOL0     C 4484   7.064  -0.003   0.861 -0.1542  0.7942 -0.2896
   34MOL0     O 4485   6.977   0.093   0.895  0.0422  0.3109  0.3429
   34MOL0     C 4486   6.849   0.057   0.931 -0.1731 -0.3642 -1.1963
   34MOL0     C 4487   6.830   0.040   1.079 -0.5155  0.4154  0.4831
   34MOL0     C 4488   6.698   0.009   1.123 -0.7618 -0.4361  0.6103
   34MOL0     C 4489   6.592   0.006   1.028  0.4144 -0.5536  0.7603
   34MOL0     O 4490   6.464  -0.024   1.067 -0.1461  0.5233 -0.2519
   34MOL0     C 4491   6.442  -0.106   1.185 -0.4947  0.3348  0.0750
   34MOL0     C 4492   6.321  -0.207   1.173 -0.1470 -0.1463  0.4166
   34MOL0     C 4493   6.185  -0.140   1.150  0.0627 -0.3002 -0.8323
   34MOL0     C 4494   6.076  -0.235   1.196 -0.6264  1.1143  0.3312
   34MOL0     C 4495   5.936  -0.186   1.153 -0.1036  0.0346 -0.9693
   34MOL0     C 4496   5.810  -0.237   1.232 -0.3689 -0.0018 -0.2136
   34MOL0     C 4497   5.814  -0.165   1.376 -0.9626  0.4126  0.0856
   34MOL0     C 4498   5.798  -0.014   1.379  0.7030  0.4806 -0.1326
   34MOL0    Cl 4499   5.745   0.011   1.551 -0.4247 -0.2838  0.2110
   34MOL0     C 4500   6.614   0.021   0.894  0.1258 -0.6254  1.5403
   34MOL0     C 4501   6.739   0.038   0.842  0.8732  0.2607 -0.5369
   34MOL0     O 4502   7.050  -0.124   0.873 -0.1347  0.0551 -0.2811
   34MOL0     C 4503   7.218   0.176   0.778  0.7703  0.2322 -0.0908
   34MOL0     C 4504   7.323   0.232   0.704  0.4262 -0.3816 -0.0017
   34MOL0     N 4505   8.112  -0.049   0.327  0.4011  0.3333  0.2938
   34MOL0     N 4506   8.141  -0.141   0.241  0.9125  0.2223  0.4999
   34MOL0     C 4507   8.055   0.753  -0.197  0.1379 -0.2956 -1.2743
   34MOL0     C 4508   8.023   0.886  -0.171 -0.2611 -0.3535  0.6934
   34MOL0     C 4509   7.728   1.205  -0.046  0.1658  1.1110  0.2923
   34MOL0     C 4510   7.688   1.272  -0.158 -0.5891 -0.0518 -0.2913
   34MOL0     C 4511   7.640   1.400  -0.152 -0.1203  1.0795  0.0577
   34MOL0     C 4512   7.643   1.471  -0.029 -0.6586 -0.0177  0.0550
   34MOL0     O 4513   7.600   1.606  -0.025 -0.2141  1.1507 -0.2360
   34MOL0     C 4514   7.622   1.692   0.086  0.4018 -0.7051 -0.0919
   34MOL0     C 4515   7.734   1.800   0.060 -0.4431  0.4732 -0.4597
   34MOL0     C 4516   7.866   1.758   0.131 -0.2983 -0.1602  0.8085
   34MOL0     C 4517   7.978   1.864   0.093  1.3413  0.9195  0.1240
   34MOL0     C 4518   8.090   1.867   0.189 -0.5669  0.0771  0.0313
   34MOL0     C 4519   8.165   1.865   0.288  0.1596 -0.0919  0.6504
   34MOL0     C 4520   7.696   1.404   0.082 -0.0289 -0.0832  0.5562
   34MOL0     C 4521   7.745   1.271   0.078  0.5634 -0.1286 -0.0185
   34MOL0     C 4522   7.816   1.212   0.197 -0.4173  0.0333 -0.5882
   34MOL0     H 4523   7.735   0.879  -0.363  0.2320  0.7912 -1.5346
   34MOL0     H 4524   7.821   0.649  -0.409  0.8852 -2.4384  1.7866
   34MOL0     H 4525   8.127   0.438  -0.177 -0.3634 -2.1049 -2.2681
   34MOL0     H 4526   7.950   0.473  -0.138 -0.5183 -2.4194  0.5754
   34MOL0     H 4527   8.049   0.297  -0.374 -0.5367 -1.1809  0.3247
   34MOL0     H 4528   7.886   0.341  -0.329  0.6423 -0.9902 -0.1180
   34MOL0     H 4529   7.869   0.200  -0.141  0.5804 -5.0427  2.5002
   34MOL0     H 4530   8.043   0.190  -0.124 -0.7990  1.4496 -0.2317
   34MOL0     H 4531   7.879   0.094  -0.360 -0.2833 -2.6106 -0.1486
   34MOL0     H 4532   8.043   0.038  -0.326  1.2853 -0.3991  1.5349
   34MOL0     H 4533   7.792  -0.010  -0.174 -0.3917  1.0563  1.3844
   34MOL0     H 4534   7.879  -0.132  -0.287  2.7152 -0.4325  1.6288
   34MOL0     H 4535   8.067  -0.160  -0.139  0.1304  0.4815 -0.4003
   34MOL0     H 4536   8.010  -0.043  -0.027 -0.9953  3.0965 -1.6292
   34MOL0     H 4537   7.877  -0.314  -0.083 -1.0229  0.8257 -0.8851
   34MOL0     H 4538   7.811  -0.194   0.014  0.1033  3.3012 -2.5811
   34MOL0     H 4539   7.954  -0.366   0.133  0.2358  0.1601 -1.0780
   34MOL0     H 4540   8.104  -0.306   0.059 -1.1788 -0.3920 -2.0265
   34MOL0     H 4541   7.813  -0.111   0.236  1.0332  1.6540  0.5475
   34MOL0     H 4542   7.841   0.055   0.489  0.0399 -0.1868  0.0802
   34MOL0     H 4543   7.963   0.172   0.429  0.3522  1.2974 -0.6554
   34MOL0     H 4544   7.821   0.257   0.261 -2.7444  0.7507 -0.0129
   34MOL0     H 4545   7.745   0.103   0.243  2.6567  0.2282 -1.9843
   34MOL0     H 4546   7.621   0.310   0.336  1.4890  0.4711  0.7854
   34MOL0     H 4547   7.715   0.324   0.471 -3.2155  0.5932  0.0892
   34MOL0     H 4548   7.656   0.072   0.540 -0.1620  1.0797  0.8682
   34MOL0     H 4549   7.554   0.069   0.403  0.6910 -0.8065  0.7343
   34MOL0     H 4550   7.433  -0.056   0.568 -1.5639 -1.8245  2.0695
   34MOL0     H 4551   7.273  -0.147   0.730  1.1267 -0.5916  0.0757
   34MOL0     H 4552   6.912   0.065   1.145  0.9103  2.2386 -1.8016
   34MOL0     H 4553   6.683  -0.002   1.230  2.8465 -1.3904  1.1614
   34MOL0     H 4554   6.526  -0.169   1.215 -2.7408 -1.7427  2.4814
   34MOL0     H 4555   6.419  -0.047   1.274 -2.0793 -0.5556  0.2960
   34MOL0     H 4556   6.341  -0.286   1.101 -1.2389  0.5587 -0.7133
   34MOL0     H 4557   6.297  -0.263   1.264 -0.9365 -0.2911  0.1239
   34MOL0     H 4558   6.189  -0.038   1.189  2.3042 -0.9359  0.7859
   34MOL0     H 4559   6.187  -0.122   1.042 -0.7990  1.6480 -0.5721
   34MOL0     H 4560   6.079  -0.250   1.304  1.6612 -1.6294  0.0134
   34MOL0     H 4561   6.100  -0.336   1.161  0.5780  0.5893  2.5157
   34MOL0     H 4562   5.914  -0.219   1.051  1.5373 -2.1608 -0.6971
   34MOL0     H 4563   5.946  -0.077   1.153  2.7268 -0.1128  1.5238
   34MOL0     H 4564   5.727  -0.206   1.167 -0.6776  3.3852  1.5616
   34MOL0     H 4565   5.820  -0.346   1.229  1.5692  0.1521 -0.6931
   34MOL0     H 4566   5.906  -0.203   1.422  0.4666  0.2877 -2.6782
   34MOL0     H 4567   5.741  -0.225   1.431 -1.0055 -0.2064 -0.6410
   34MOL0     H 4568   5.894   0.032   1.354  0.7949  1.1728  1.3675
   34MOL0     H 4569   5.719   0.018   1.310 -0.1374 -2.6504 -0.7903
   34MOL0     H 4570   6.520   0.034   0.840 -0.9432 -0.7248  3.2998
   34MOL0     H 4571   6.737   0.043   0.733 -5.3704  0.2660 -0.7678
   34MOL0     H 4572   7.153   0.242   0.834  0.7001  0.9605 -1.0127
   34MOL0     H 4573   7.336   0.340   0.711  2.4289 -0.6952  2.1844
   34MOL0     H 4574   8.147   0.706  -0.166 -0.3765 -0.9304 -0.6790
   34MOL0     H 4575   8.089   0.946  -0.110 -0.4330  0.3190  0.2285
   34MOL0     H 4576   7.677   1.210  -0.246 -0.8872 -1.4975  0.7240
   34MOL0     H 4577   7.602   1.439  -0.245  0.4575 -0.1862 -0.7435
   34MOL0     H 4578   7.651   1.640   0.178  1.4386 -0.3269 -0.1884
   34MOL0     H 4579   7.527   1.741   0.106  1.4938  1.6113 -0.2977
   34MOL0     H 4580   7.697   1.896   0.095 -2.1696  0.2537 -1.5577
   34MOL0     H 4581   7.752   1.824  -0.045  0.1635 -0.8414 -0.6792
   34MOL0     H 4582   7.898   1.660   0.096 -0.5832 -0.0686  0.2810
   34MOL0     H 4583   7.854   1.747   0.240 -0.8200 -1.2939  0.6491
   34MOL0     H 4584   8.010   1.836  -0.008 -2.1405  2.1247 -1.4528
   34MOL0     H 4585   7.939   1.966   0.106  0.5227  0.5977  0.2364
   34MOL0     H 4586   8.242   1.872   0.362  0.8561 -0.7282  0.0044
   34MOL0     H 4587   7.724   1.452   0.175 -0.2883  0.0025  0.5909
   34MOL0     H 4588   7.742   1.172   0.267 -1.2356 -0.4160 -1.6866
   34MOL0     H 4589   7.890   1.140   0.161 -0.4985  1.0587 -2.9911
   34MOL0     H 4590   7.864   1.293   0.253  0.0880 -0.6978  0.0692
   35MOL0     O 4591   6.412   0.703  11.253  0.1118  0.2245 -0.0015
   35MOL0     C 4592   6.308   0.761  11.269 -0.6995  0.2748  0.8381
   35MOL0     O 4593   6.233   0.811  11.158 -0.6502 -0.3560 -0.0897
   35MOL0     C 4594   6.265   0.794  11.029 -0.1211 -0.0166  1.3266
   35MOL0     C 4595   6.349   0.708  10.961  0.1654  0.0064 -0.7435
   35MOL0     C 4596   6.337   0.685  10.823 -0.2435  0.0380  0.0522
   35MOL0     C 4597   6.253   0.766  10.741 -1.4895 -0.4308 -0.4234
   35MOL0     O 4598   6.229   0.732  10.604 -0.3841 -0.4369  0.1598
   35MOL0     C 4599   6.139   0.817  10.520  0.1127  0.3013  0.1417
   35MOL0     C 4600   6.122   0.746  10.387  0.4937  0.3568  0.6405
   35MOL0     C 4601   6.064   0.606  10.405 -0.2198 -0.1598 -1.0557
   35MOL0     C 4602   6.038   0.550  10.266  0.2682 -0.3084  0.2630
   35MOL0     C 4603   5.967   0.416  10.260  1.0153 -0.0152  0.1232
   35MOL0     C 4604   5.933   0.377  10.118  0.8148  0.6409  0.1740
   35MOL0     C 4605   5.879   0.231  10.126  0.1751 -1.5526  0.0999
   35MOL0     C 4606   5.822   0.177   9.994 -0.8171 -1.0673 -0.1760
   35MOL0     N 4607   5.918   0.177   9.885  0.7659  0.0730  0.0633
   35MOL0     C 4608   5.935   0.280   9.792 -0.2102 -0.2843 -0.0660
   35MOL0     C 4609   6.031   0.237   9.711 -0.1785 -0.7581 -0.0400
   35MOL0     C 4610   6.105   0.307   9.597 -0.4418 -0.0145 -0.3629
   35MOL0     C 4611   6.020   0.373   9.493 -0.2281 -0.1524 -0.1096
   35MOL0     C 4612   5.946   0.280   9.404 -0.0197 -0.4271 -0.2241
   35MOL0     C 4613   6.027   0.188   9.312  0.6951 -0.8550  0.6531
   35MOL0     O 4614   5.946   0.156   9.200 -0.2949  0.8666 -0.4416
   35MOL0     C 4615   5.974   0.047   9.126 -0.2698  0.0062 -0.2048
   35MOL0     C 4616   6.093  -0.015   9.130 -0.0851 -0.6733 -0.2933
   35MOL0     C 4617   6.124  -0.118   9.042  0.9497  0.3930  0.2438
   35MOL0     C 4618   6.018  -0.175   8.964 -1.3108  0.0476  0.1001
   35MOL0     C 4619   6.047  -0.285   8.867  0.1319 -1.3324 -0.8462
   35MOL0     O 4620   6.163  -0.362   8.888  0.6096  0.9980  0.5651
   35MOL0     C 4621   6.190  -0.460   8.799  0.7215  0.3311 -0.4135
   35MOL0     C 4622   6.229  -0.432   8.661  0.8329  0.2739  0.3770
   35MOL0     C 4623   6.263  -0.536   8.573  0.2030 -0.0621 -0.0686
   35MOL0     C 4624   6.285  -0.671   8.627  0.2072 -0.4853  0.1655
   35MOL0     O 4625   6.330  -0.783   8.560 -0.5958  0.5665 -0.1343
   35MOL0     C 4626   6.354  -0.770   8.416  0.7310  0.1617 -0.9446
   35MOL0     C 4627   6.434  -0.896   8.362 -0.5988  0.4716  0.9678
   35MOL0     C 4628   6.347  -1.021   8.369 -0.7412 -0.0618  0.0228
   35MOL0     C 4629   6.400  -1.129   8.273 -0.0957 -0.5185  0.2884
   35MOL0     C 4630   6.291  -1.219   8.206 -0.2229 -0.1050  0.2398
   35MOL0     C 4631   6.341  -1.333   8.133  0.4635  0.5496  0.4644
   35MOL0     C 4632   6.375  -1.295   7.980 -0.3148  0.6831 -1.0188
   35MOL0     C 4633   6.439  -1.412   7.914  0.1665  0.9262  0.3843
   35MOL0    Cl 4634   6.460  -1.367   7.748 -0.0401  0.2015  0.4194
   35MOL0     C 4635   6.254  -0.692   8.760  0.4468  0.1792  1.0575
   35MOL0     C 4636   6.208  -0.589   8.850  0.3137 -0.3728 -0.0886
   35MOL0     O 4637   5.970  -0.298   8.770  0.3704 -0.5181  0.0219
   35MOL0     C 4638   5.895  -0.116   8.972  0.3924  0.4040  0.3670
   35MOL0     C 4639   5.872  -0.005   9.049  0.1284  0.4969 -0.3159
   35MOL0     N 4640   6.059   0.107   9.749 -0.7457  0.6009 -0.6900
   35MOL0     N 4641   5.992   0.069   9.855  0.1455  0.3580  0.3360
   35MOL0     C 4642   6.192   0.866  10.808 -1.1099 -0.1054  0.0184
   35MOL0     C 4643   6.193   0.886  10.949  0.9321  0.2674  0.8648
   35MOL0     C 4644   6.259   0.807  11.405 -0.9529 -0.8422 -0.1496
   35MOL0     C 4645   6.136   0.885  11.399  0.1371  0.1640 -0.1991
   35MOL0     C 4646   6.068   0.923  11.517 -0.6912 -0.4062 -0.2627
   35MOL0     C 4647   6.121   0.882  11.639  0.7033 -0.0585  0.5393
   35MOL0     O 4648   6.038   0.906  11.744 -0.9471 -0.5272 -0.6839
   35MOL0     C 4649   6.089   0.859  11.870  0.7023 -0.3707 -0.3851
   35MOL0     C 4650   5.988   0.905  11.983  0.2032 -1.3122 -0.4143
   35MOL0     C 4651   5.838   0.879  11.976 -0.0478  0.2610 -0.0060
   35MOL0     C 4652   5.813   0.730  11.966 -0.5842 -0.8858 -0.1458
   35MOL0     C 4653   5.677   0.687  11.987 -0.1346  0.8773  0.3119
   35MOL0     C 4654   5.565   0.642  11.994 -1.4691  0.8976  0.7410
   35MOL0     C 4655   6.254   0.818  11.648  0.8008  1.4224 -0.0963
   35MOL0     C 4656   6.314   0.772  11.531 -0.4280 -0.9998  1.0838
   35MOL0     C 4657   6.444   0.697  11.552 -0.8367  0.4754  1.2660
   35MOL0     H 4658   6.420   0.644  11.014  1.6446  3.5158  1.9193
   35MOL0     H 4659   6.399   0.611  10.775  2.1463  1.7982  0.2815
   35MOL0     H 4660   6.046   0.805  10.576 -0.4941 -1.5407 -1.1813
   35MOL0     H 4661   6.164   0.924  10.514 -0.6139  0.4264 -1.3164
   35MOL0     H 4662   6.221   0.741  10.342 -0.2740 -2.1385 -0.9863
   35MOL0     H 4663   6.068   0.809  10.316  1.8973  1.0103  0.1098
   35MOL0     H 4664   5.968   0.616  10.457  0.7876 -1.9140  1.3030
   35MOL0     H 4665   6.125   0.550  10.476 -2.8975  0.3128  1.8238
   35MOL0     H 4666   5.977   0.626  10.216  1.7710  0.7489 -0.0729
   35MOL0     H 4667   6.135   0.533  10.219  0.8816  1.2961  0.8527
   35MOL0     H 4668   6.032   0.342  10.309  1.5515  0.3789  0.0193
   35MOL0     H 4669   5.884   0.426  10.330  3.4327  0.4581  3.1714
   35MOL0     H 4670   5.855   0.444  10.079  1.6038  0.8736 -1.0942
   35MOL0     H 4671   6.021   0.376  10.052  0.4541 -3.1840 -0.4328
   35MOL0     H 4672   5.794   0.233  10.195 -0.7578 -1.4532 -1.0231
   35MOL0     H 4673   5.965   0.173  10.161  0.2063 -2.2831 -1.1197
   35MOL0     H 4674   5.789   0.076  10.019 -1.9895 -0.1714  2.2451
   35MOL0     H 4675   5.739   0.240   9.960  0.0755 -1.2971 -3.0357
   35MOL0     H 4676   5.877   0.372   9.787 -1.6534 -1.2229 -1.6879
   35MOL0     H 4677   6.157   0.379   9.661  0.5538 -1.7956  0.8991
   35MOL0     H 4678   6.177   0.238   9.552  4.3255  3.8544  0.4037
   35MOL0     H 4679   5.968   0.443   9.559  4.6585  3.2903  0.6572
   35MOL0     H 4680   6.081   0.445   9.437  1.3972 -0.2287  1.4827
   35MOL0     H 4681   5.879   0.342   9.344  1.8144  1.3716 -0.5219
   35MOL0     H 4682   5.886   0.228   9.479 -3.7888  4.1420  0.3972
   35MOL0     H 4683   6.051   0.100   9.372 -0.7540 -2.0605 -0.4644
   35MOL0     H 4684   6.126   0.230   9.291  1.7042 -0.4258  5.3686
   35MOL0     H 4685   6.178   0.017   9.189 -0.0934 -0.0075 -0.6259
   35MOL0     H 4686   6.228  -0.147   9.045  1.1870  1.2123  0.1181
   35MOL0     H 4687   6.230  -0.326   8.639  3.4945  0.5169  1.3219
   35MOL0     H 4688   6.289  -0.508   8.471  1.5595  1.3381  0.6224
   35MOL0     H 4689   6.255  -0.757   8.373 -1.0539 -0.0973  2.7030
   35MOL0     H 4690   6.406  -0.676   8.394  0.5453  0.4807 -0.0728
   35MOL0     H 4691   6.435  -0.880   8.254  1.6333 -0.1573  0.8525
   35MOL0     H 4692   6.533  -0.919   8.403 -0.3770 -0.2093  0.0733
   35MOL0     H 4693   6.337  -1.053   8.473 -0.1576 -0.1203  0.0635
   35MOL0     H 4694   6.248  -0.986   8.335 -1.6426 -2.1038  0.4123
   35MOL0     H 4695   6.452  -1.197   8.341  1.9601 -1.7377 -2.3035
   35MOL0     H 4696   6.469  -1.096   8.196  0.0960 -1.9762 -0.1967
   35MOL0     H 4697   6.230  -1.153   8.143  0.1165  0.5143  0.5546
   35MOL0     H 4698   6.224  -1.246   8.288  1.1440  2.2152  2.2616
   35MOL0     H 4699   6.420  -1.384   8.188 -0.0623 -2.1467 -1.1094
   35MOL0     H 4700   6.259  -1.406   8.131  0.2125  0.8161 -2.2855
   35MOL0     H 4701   6.455  -1.223   7.962  3.5005 -2.0472  2.9644
   35MOL0     H 4702   6.276  -1.272   7.939 -1.8812 -1.2708  1.3796
   35MOL0     H 4703   6.530  -1.439   7.968 -0.0607 -2.0403 -0.4942
   35MOL0     H 4704   6.373  -1.500   7.920  0.3115  0.9336  3.9547
   35MOL0     H 4705   6.279  -0.793   8.792 -4.2809 -1.4343  0.4225
   35MOL0     H 4706   6.187  -0.599   8.956 -1.5180  0.4053 -0.3342
   35MOL0     H 4707   5.815  -0.162   8.916 -1.2813  1.4685  1.7651
   35MOL0     H 4708   5.771   0.030   9.068 -0.3140 -0.1087 -1.4789
   35MOL0     H 4709   6.121   0.923  10.749  0.6273 -0.8470 -3.0407
   35MOL0     H 4710   6.125   0.958  10.993 -0.4174 -0.0707 -0.5617
   35MOL0     H 4711   6.087   0.897  11.302  1.9536 -3.1538 -1.7054
   35MOL0     H 4712   5.969   0.968  11.515 -1.2582 -1.0547  3.9761
   35MOL0     H 4713   6.185   0.897  11.907 -0.1629 -1.7403  3.7932
   35MOL0     H 4714   6.099   0.750  11.875  2.7368 -0.1963  3.5592
   35MOL0     H 4715   5.994   1.013  11.997 -0.4681 -0.3021 -5.7443
   35MOL0     H 4716   6.031   0.852  12.069 -4.9081  0.4576  3.7898
   35MOL0     H 4717   5.807   0.924  11.881  0.6825  0.4917 -0.1356
   35MOL0     H 4718   5.783   0.929  12.056 -0.5873  0.3598 -0.4337
   35MOL0     H 4719   5.835   0.710  11.861 -0.2659 -1.9462  0.1141
   35MOL0     H 4720   5.884   0.674  12.027  0.3123 -0.0849 -0.4422
   35MOL0     H 4721   5.476   0.590  12.023 -1.0221  0.7979  1.9886
   35MOL0     H 4722   6.301   0.796  11.744 -4.0869 -2.6418  1.8008
   35MOL0     H 4723   6.496   0.720  11.645 -0.8087 -0.1829  1.4205
   35MOL0     H 4724   6.425   0.590  11.545 -1.3482  0.6574 -0.7815
   35MOL0     H 4725   6.518   0.733  11.480 -0.6659  2.6323  2.4477
   36MOL0     O 4726   3.544   6.383   1.817 -0.1961 -0.9409  0.5037
   36MOL0     C 4727   3.666   6.377   1.835 -0.6637  0.2948 -0.9659
   36MOL0     O 4728   3.760   6.473   1.797  0.0825  0.0597 -0.5742
   36MOL0     C 4729   3.719   6.591   1.750 -0.1615  0.2485  0.3410
   36MOL0     C 4730   3.657   6.595   1.620 -0.6237  0.7071 -0.3566
   36MOL0     C 4731   3.642   6.718   1.562 -0.3035 -0.3861 -0.6776
   36MOL0     C 4732   3.664   6.843   1.630  0.0675  0.6050 -0.5710
   36MOL0     O 4733   3.663   6.955   1.545 -0.3689 -0.0799  0.1557
   36MOL0     C 4734   3.767   7.054   1.567 -0.3322  0.5281  0.1266
   36MOL0     C 4735   3.736   7.176   1.480 -0.1377 -0.0250 -0.2961
   36MOL0     C 4736   3.629   7.262   1.547  0.4876  0.4447  0.1826
   36MOL0     C 4737   3.624   7.406   1.494 -0.0764  0.1145 -0.5025
   36MOL0     C 4738   3.736   7.505   1.545 -0.1502  0.2855  0.7790
   36MOL0     C 4739   3.729   7.640   1.476 -0.1971 -0.8371  0.3867
   36MOL0     C 4740   3.816   7.740   1.556 -0.4188 -0.5165 -0.0961
   36MOL0     C 4741   3.810   7.884   1.500 -0.1741 -0.4514  0.0362
   36MOL0     N 4742   3.680   7.930   1.451  0.3350  0.4842 -0.2414
   36MOL0     C 4743   3.560   7.925   1.512 -0.2724 -0.1695 -0.8016
   36MOL0     C 4744   3.467   7.971   1.433 -0.5621  0.0386  0.2543
   36MOL0     C 4745   3.322   7.971   1.465  0.7245  0.8340  0.1873
   36MOL0     C 4746   3.264   8.111   1.467  0.1705 -0.5740 -0.0847
   36MOL0     C 4747   3.315   8.182   1.597  0.0303  0.1484  0.2509
   36MOL0     C 4748   3.280   8.331   1.591  0.1595  0.1169 -0.2012
   36MOL0     O 4749   3.133   8.363   1.582 -0.4387 -0.6131  0.2461
   36MOL0     C 4750   3.099   8.493   1.566  0.3078 -0.2961  0.2532
   36MOL0     C 4751   2.964   8.515   1.521 -0.3242 -0.2454  0.2938
   36MOL0     C 4752   2.927   8.645   1.487  0.0491  0.7657  0.4606
   36MOL0     C 4753   3.007   8.757   1.515  0.4136  0.6180 -0.5331
   36MOL0     C 4754   2.959   8.893   1.500  0.5283 -0.9123  0.3930
   36MOL0     O 4755   3.050   8.991   1.514 -0.4594  0.2480 -0.3892
   36MOL0     C 4756   3.004   9.121   1.533 -0.3822 -0.5161 -0.6771
   36MOL0     C 4757   2.892   9.169   1.604 -0.4361 -0.3005 -0.1841
   36MOL0     C 4758   2.867   9.307   1.621  0.3367  0.7208  0.0069
   36MOL0     C 4759   2.955   9.401   1.576 -0.1159  0.4491  0.2686
   36MOL0     O 4760   2.923   9.527   1.614  0.4426  0.4638  0.0314
   36MOL0     C 4761   2.942   9.635   1.521 -0.5155  0.2882  0.0149
   36MOL0     C 4762   2.884   9.762   1.582  0.1152 -0.2576  1.1098
   36MOL0     C 4763   2.737   9.747   1.608  0.1462 -0.2266 -0.0627
   36MOL0     C 4764   2.696   9.876   1.660 -0.2754  0.5201 -0.2718
   36MOL0     C 4765   2.540   9.876   1.683  0.0300 -0.3396 -0.3916
   36MOL0     C 4766   2.476  10.024   1.681  0.7561 -0.6579  1.2431
   36MOL0     C 4767   2.536  10.109   1.788  0.5840 -0.0319  0.3120
   36MOL0     C 4768   2.455  10.223   1.843  0.5114 -0.1038  0.1827
   36MOL0    Cl 4769   2.278  10.202   1.871  0.2950 -0.0320  0.3513
   36MOL0     C 4770   3.060   9.359   1.497  0.2148 -0.5301  0.0141
   36MOL0     C 4771   3.084   9.226   1.485 -0.1967  0.4245  0.0972
   36MOL0     O 4772   2.841   8.913   1.465 -0.3243  0.8960  0.1076
   36MOL0     C 4773   3.132   8.729   1.560 -0.3971 -0.5325 -0.2361
   36MOL0     C 4774   3.186   8.600   1.578  0.2970  0.6306  1.5012
   36MOL0     N 4775   3.531   8.016   1.317 -0.2187  0.9604  0.4209
   36MOL0     N 4776   3.661   7.992   1.335  0.2135 -0.3345  1.0583
   36MOL0     C 4777   3.708   6.828   1.767  0.1917  0.1824  0.1882
   36MOL0     C 4778   3.748   6.710   1.819  1.1614  0.3017 -0.7747
   36MOL0     C 4779   3.728   6.254   1.895 -0.4426 -0.6238 -0.5869
   36MOL0     C 4780   3.866   6.233   1.883 -0.0966 -1.3084 -0.1516
   36MOL0     C 4781   3.929   6.108   1.906  0.0300  0.0215 -0.8138
   36MOL0     C 4782   3.864   6.003   1.967 -0.0536 -0.2242 -0.4518
   36MOL0     O 4783   3.916   5.877   1.992  0.2476 -0.1787 -0.1423
   36MOL0     C 4784   3.830   5.759   2.028 -0.0948  0.3194  0.0660
   36MOL0     C 4785   3.929   5.656   2.069  0.5413 -0.1040  0.2281
   36MOL0     C 4786   3.986   5.677   2.208  0.6259 -0.1158  0.1225
   36MOL0     C 4787   4.117   5.598   2.231  0.3965  0.1868 -0.3348
   36MOL0     C 4788   4.085   5.472   2.290 -0.4509  1.1336 -0.0357
   36MOL0     C 4789   4.065   5.375   2.365  0.2663 -0.2444  0.3609
   36MOL0     C 4790   3.729   6.022   1.976  0.7023 -0.3521  0.4121
   36MOL0     C 4791   3.665   6.144   1.947  0.5305 -0.7816 -0.0303
   36MOL0     C 4792   3.519   6.159   1.985 -0.3034 -0.1981  0.8589
   36MOL0     H 4793   3.637   6.501   1.570 -1.0659  1.3658 -1.4702
   36MOL0     H 4794   3.599   6.722   1.463  1.1603 -0.5923 -1.3560
   36MOL0     H 4795   3.787   7.083   1.671  2.7920 -5.8209  1.8376
   36MOL0     H 4796   3.859   7.006   1.531  0.1423  0.0763  1.8640
   36MOL0     H 4797   3.689   7.146   1.386 -1.5436  2.2281 -0.3904
   36MOL0     H 4798   3.822   7.244   1.471  2.1481 -2.5870  0.7298
   36MOL0     H 4799   3.653   7.256   1.654  4.7866  0.6066 -0.6057
   36MOL0     H 4800   3.533   7.211   1.541  1.0397 -0.6620  0.4262
   36MOL0     H 4801   3.616   7.416   1.385  1.8782  3.2062 -0.5005
   36MOL0     H 4802   3.523   7.438   1.523 -1.4909 -2.3439 -2.2832
   36MOL0     H 4803   3.714   7.530   1.649 -0.9053  0.9312  0.4693
   36MOL0     H 4804   3.837   7.465   1.536  0.1835  1.5285 -2.1891
   36MOL0     H 4805   3.774   7.620   1.378 -0.7827 -1.0364  0.1594
   36MOL0     H 4806   3.627   7.679   1.471 -0.2485 -1.0056  0.1263
   36MOL0     H 4807   3.923   7.717   1.555 -0.2720 -0.1032 -3.0186
   36MOL0     H 4808   3.776   7.757   1.656 -2.6345  0.9229 -1.1599
   36MOL0     H 4809   3.830   7.946   1.588  1.0965 -0.8884  0.0778
   36MOL0     H 4810   3.889   7.896   1.425  0.2010  2.3049  0.7484
   36MOL0     H 4811   3.541   7.893   1.614  0.1836  0.7450 -0.4221
   36MOL0     H 4812   3.279   7.904   1.391  0.7834 -0.7617  1.5505
   36MOL0     H 4813   3.304   7.923   1.562 -0.5932  0.5165 -0.1972
   36MOL0     H 4814   3.281   8.178   1.383 -1.2978  1.4263  1.1036
   36MOL0     H 4815   3.154   8.105   1.472 -0.0518  1.1440 -1.6458
   36MOL0     H 4816   3.425   8.181   1.596  0.0627 -0.2068  1.8391
   36MOL0     H 4817   3.273   8.137   1.687 -2.0473 -0.2959 -0.8888
   36MOL0     H 4818   3.335   8.383   1.512  5.3348  0.6020  3.2626
   36MOL0     H 4819   3.307   8.380   1.685  3.2358  0.8442 -1.3537
   36MOL0     H 4820   2.901   8.433   1.490  0.9298  0.1498 -3.9703
   36MOL0     H 4821   2.825   8.655   1.449 -0.4420 -1.9150  0.8998
   36MOL0     H 4822   2.820   9.106   1.655  1.9345 -0.4085  3.3058
   36MOL0     H 4823   2.776   9.327   1.678  0.8516 -2.2709  2.1597
   36MOL0     H 4824   3.049   9.644   1.497 -0.7207  0.3750 -0.9233
   36MOL0     H 4825   2.886   9.598   1.434 -0.3804 -1.9932  0.8454
   36MOL0     H 4826   2.950   9.787   1.665  2.3498 -0.2371 -0.5785
   36MOL0     H 4827   2.905   9.849   1.519 -1.1280  2.1027  3.7684
   36MOL0     H 4828   2.678   9.745   1.515 -0.3768  3.6227  0.0352
   36MOL0     H 4829   2.711   9.658   1.666 -1.4578  0.4064  0.2530
   36MOL0     H 4830   2.735   9.950   1.590 -0.4981  0.4280 -0.4965
   36MOL0     H 4831   2.749   9.885   1.755  1.3999 -0.4141 -1.0658
   36MOL0     H 4832   2.518   9.834   1.781  1.1159 -0.2831 -0.1128
   36MOL0     H 4833   2.484   9.813   1.613 -1.7681  0.2090  0.4860
   36MOL0     H 4834   2.495  10.059   1.580 -0.6473 -1.2442  0.7410
   36MOL0     H 4835   2.368  10.014   1.698  0.6544 -2.4026 -0.1534
   36MOL0     H 4836   2.627  10.138   1.735 -0.1538  0.9946 -0.4482
   36MOL0     H 4837   2.557  10.054   1.880 -3.8939 -1.8997  0.4638
   36MOL0     H 4838   2.498  10.273   1.929 -1.5305 -0.6756  1.6206
   36MOL0     H 4839   2.454  10.301   1.766 -1.4349 -0.4682 -0.2179
   36MOL0     H 4840   3.130   9.437   1.470 -2.2343  1.1026 -2.1592
   36MOL0     H 4841   3.170   9.194   1.427 -1.9995  0.6730 -2.9395
   36MOL0     H 4842   3.193   8.813   1.590 -1.5252 -0.6165  2.6699
   36MOL0     H 4843   3.284   8.610   1.622  0.5339  2.5021  0.6320
   36MOL0     H 4844   3.722   6.924   1.816 -1.4031  0.9614 -0.8418
   36MOL0     H 4845   3.792   6.694   1.916  0.5375 -2.4335 -0.8661
   36MOL0     H 4846   3.927   6.310   1.837  0.5466 -0.7493  1.5710
   36MOL0     H 4847   4.032   6.101   1.873  0.2875  2.8514 -0.8683
   36MOL0     H 4848   3.775   5.727   1.938  1.0076 -0.1792 -0.4501
   36MOL0     H 4849   3.762   5.778   2.111  1.9456  2.4674  1.3687
   36MOL0     H 4850   4.011   5.654   1.998  1.2626  2.8128  0.8650
   36MOL0     H 4851   3.876   5.561   2.080  2.0107 -0.8300  1.2824
   36MOL0     H 4852   3.911   5.661   2.287  2.8447 -1.6529  2.0522
   36MOL0     H 4853   4.022   5.780   2.222 -0.6714  0.4112 -0.2554
   36MOL0     H 4854   4.178   5.577   2.142  1.8256  1.2347  0.3545
   36MOL0     H 4855   4.182   5.659   2.295  1.5977  0.8501 -2.0981
   36MOL0     H 4856   4.055   5.278   2.411  1.9801 -2.0607 -2.7387
   36MOL0     H 4857   3.654   5.947   2.001 -2.5453  1.9336 -1.5965
   36MOL0     H 4858   3.503   6.260   2.025  0.8707  0.6878 -0.7909
   36MOL0     H 4859   3.455   6.141   1.898 -1.5788  0.0112  1.7113
   36MOL0     H 4860   3.503   6.081   2.061  0.9080 -0.6990  0.6215
   37MOL0     O 4861   3.198  10.209   6.817  0.0288 -1.1626 -0.6890
   37MOL0     C 4862   3.248  10.126   6.742 -0.3354  0.0533 -0.4234
   37MOL0     O 4863   3.357  10.042   6.777 -0.4617 -0.3800  0.0912
   37MOL0     C 4864   3.434  10.085   6.887 -0.4533  0.2842  0.1620
   37MOL0     C 4865   3.406  10.049   7.016  0.7941  0.7719 -1.7676
   37MOL0     C 4866   3.477  10.104   7.125 -1.2303  0.8989  0.5281
   37MOL0     C 4867   3.591  10.195   7.108  0.1952 -0.1646  0.0244
   37MOL0     O 4868   3.670  10.263   7.200 -0.9872 -0.0653  0.5351
   37MOL0     C 4869   3.633  10.243   7.333  0.4767 -0.7132 -0.4119
   37MOL0     C 4870   3.750  10.290   7.422 -0.1042  0.1347  0.2587
   37MOL0     C 4871   3.768  10.444   7.404 -0.7857 -0.0310  0.0756
   37MOL0     C 4872   3.914  10.488   7.432  1.0256 -0.5201  1.4715
   37MOL0     C 4873   3.954  10.475   7.580 -0.4628  0.7931  0.4557
   37MOL0     C 4874   3.871  10.563   7.680 -1.0981 -0.0331 -0.6487
   37MOL0     C 4875   3.946  10.558   7.812  0.2037 -0.1303  0.3884
   37MOL0     C 4876   3.845  10.625   7.910  0.3634  0.5002  0.3237
   37MOL0     N 4877   3.905  10.660   8.044  0.4779 -0.4442  0.4843
   37MOL0     C 4878   3.868  10.623   8.179 -0.1387  0.8774  0.2529
   37MOL0     C 4879   3.970  10.647   8.257 -0.1540 -1.2174 -0.0381
   37MOL0     C 4880   3.952  10.625   8.402  0.5803  0.9179 -0.5168
   37MOL0     C 4881   4.020  10.724   8.499 -0.5010 -0.3753  0.0589
   37MOL0     C 4882   4.171  10.693   8.517  0.3672  0.2055 -0.0731
   37MOL0     C 4883   4.212  10.705   8.670  0.2042  1.1220  0.5671
   37MOL0     O 4884   4.350  10.679   8.678  0.6549 -0.6380 -0.2156
   37MOL0     C 4885   4.412  10.739   8.794 -0.8996  0.7248 -0.9696
   37MOL0     C 4886   4.553  10.778   8.776 -0.0733  1.2360  0.9090
   37MOL0     C 4887   4.607  10.845   8.890  1.2172  0.2406  0.4564
   37MOL0     C 4888   4.533  10.864   9.009  0.1144 -0.5604 -0.7500
   37MOL0     C 4889   4.589  10.950   9.110  0.5455 -0.8874 -0.9135
   37MOL0     O 4890   4.498  10.996   9.196  0.3220 -0.0011  0.0261
   37MOL0     C 4891   4.561  11.039   9.313  0.0687 -0.2570  0.9676
   37MOL0     C 4892   4.524  11.163   9.351  0.0003 -0.0347 -0.6044
   37MOL0     C 4893   4.561  11.219   9.477 -0.2697  0.4965  0.9255
   37MOL0     C 4894   4.637  11.145   9.562 -0.3740 -0.0224 -0.0552
   37MOL0     O 4895   4.673  11.212   9.676  0.1223 -0.4071  0.0601
   37MOL0     C 4896   4.777  11.160   9.762  0.5368 -0.1006  0.0591
   37MOL0     C 4897   4.705  11.075   9.866 -0.1798  0.7235 -0.2464
   37MOL0     C 4898   4.763  11.079  10.002 -0.5972  0.5774 -0.0836
   37MOL0     C 4899   4.685  10.986  10.095 -0.3830 -0.2740 -0.0068
   37MOL0     C 4900   4.740  10.999  10.244  0.2812 -0.3683  1.2932
   37MOL0     C 4901   4.665  10.883  10.320  0.0373  0.4548 -0.2481
   37MOL0     C 4902   4.681  10.918  10.469 -0.5723  0.7717 -0.0745
   37MOL0     C 4903   4.606  10.819  10.560 -0.0719 -0.8104  1.4278
   37MOL0    Cl 4904   4.432  10.838  10.569  0.0851 -0.0704 -0.2018
   37MOL0     C 4905   4.666  11.008   9.520  0.8469 -0.4859 -0.9081
   37MOL0     C 4906   4.625  10.959   9.400 -0.1999 -0.1562 -0.3459
   37MOL0     O 4907   4.709  10.981   9.114  0.0167 -0.5845 -0.2670
   37MOL0     C 4908   4.402  10.809   9.025  1.3533 -0.5171  1.2534
   37MOL0     C 4909   4.337  10.753   8.916 -0.0929 -0.6749 -0.5025
   37MOL0     N 4910   4.072  10.696   8.175  0.7597  0.6031  0.6682
   37MOL0     N 4911   4.031  10.713   8.056  0.1531 -0.2104  0.2781
   37MOL0     C 4912   3.611  10.232   6.979 -0.0774 -0.9948  0.1511
   37MOL0     C 4913   3.538  10.178   6.870 -0.8430  0.1325  0.1804
   37MOL0     C 4914   3.195  10.118   6.598 -0.7980 -0.6189  0.2073
   37MOL0     C 4915   3.238  10.005   6.528  0.1484  0.5516  0.6004
   37MOL0     C 4916   3.193   9.979   6.400  0.2822  0.0982 -0.0400
   37MOL0     C 4917   3.104  10.067   6.342  0.1493 -0.0737 -0.0121
   37MOL0     O 4918   3.047  10.037   6.221 -0.2826  0.8026 -0.5291
   37MOL0     C 4919   3.113  10.084   6.099 -0.5106  1.6677  0.4380
   37MOL0     C 4920   3.249  10.018   6.087 -0.4806 -0.4144  0.4435
   37MOL0     C 4921   3.335  10.057   5.959  0.4280  0.1322 -0.2336
   37MOL0     C 4922   3.253  10.034   5.836 -0.2412 -0.2018 -0.0503
   37MOL0     C 4923   3.203   9.891   5.826 -0.1697  0.2788  0.1131
   37MOL0     C 4924   3.184   9.766   5.818  0.0988 -0.4647 -0.1496
   37MOL0     C 4925   3.053  10.179   6.411 -0.3468 -0.5844  0.2059
   37MOL0     C 4926   3.110  10.212   6.536  0.2239 -0.2746  0.0485
   37MOL0     C 4927   3.085  10.355   6.587 -0.3755  0.1136  0.2019
   37MOL0     H 4928   3.310  10.000   7.026 -0.7460  3.9585  0.7247
   37MOL0     H 4929   3.435  10.083   7.223 -1.3823 -2.2236 -0.0982
   37MOL0     H 4930   3.548  10.309   7.351  2.2848  1.8960 -0.8873
   37MOL0     H 4931   3.597  10.142   7.355  0.0737 -0.0127  2.5317
   37MOL0     H 4932   3.833  10.227   7.390 -2.1975 -1.5418 -2.2590
   37MOL0     H 4933   3.724  10.266   7.526  2.4201  1.0423  1.1704
   37MOL0     H 4934   3.697  10.506   7.459 -0.9492 -0.1190 -0.0333
   37MOL0     H 4935   3.744  10.470   7.301 -1.5577 -1.2812 -0.0836
   37MOL0     H 4936   3.974  10.425   7.365  0.1769 -0.4815  0.6528
   37MOL0     H 4937   3.928  10.593   7.407 -3.4179 -0.3084 -1.0859
   37MOL0     H 4938   3.939  10.371   7.611 -2.4463  1.1456  0.8091
   37MOL0     H 4939   4.061  10.497   7.587 -1.2329  5.1410  1.8382
   37MOL0     H 4940   3.850  10.664   7.642 -1.5373  0.0366 -0.2308
   37MOL0     H 4941   3.778  10.508   7.695 -1.1897  0.8302  2.4531
   37MOL0     H 4942   4.040  10.609   7.792 -1.3327  2.0495 -1.9304
   37MOL0     H 4943   3.962  10.452   7.833 -2.0494 -0.6743 -0.2729
   37MOL0     H 4944   3.792  10.706   7.859 -3.2738 -1.6172  0.4109
   37MOL0     H 4945   3.766  10.552   7.929 -0.2258  0.3705 -2.2385
   37MOL0     H 4946   3.777  10.568   8.202  2.0769 -3.3240 -0.0729
   37MOL0     H 4947   3.844  10.626   8.418  0.3869 -3.0078 -0.6548
   37MOL0     H 4948   3.993  10.527   8.430  1.0387  1.4139  0.6185
   37MOL0     H 4949   3.996  10.827   8.471  1.0450 -0.2785 -1.0416
   37MOL0     H 4950   3.981  10.694   8.596  0.9003  1.0384  1.1064
   37MOL0     H 4951   4.240  10.753   8.457  1.6191 -2.2747 -1.2755
   37MOL0     H 4952   4.201  10.596   8.477  2.4276  0.5037  0.5987
   37MOL0     H 4953   4.169  10.630   8.737  0.9509 -0.1286 -0.3124
   37MOL0     H 4954   4.181  10.804   8.703 -0.4315  0.6253  1.5083
   37MOL0     H 4955   4.614  10.773   8.686 -1.3639 -0.3523  0.0684
   37MOL0     H 4956   4.706  10.889   8.884  1.6982 -1.0574 -3.0050
   37MOL0     H 4957   4.483  11.231   9.277 -1.1850  1.0088  0.9407
   37MOL0     H 4958   4.530  11.321   9.500 -0.3228  0.8952 -0.7869
   37MOL0     H 4959   4.840  11.095   9.701 -0.9053 -0.2353 -1.3432
   37MOL0     H 4960   4.830  11.246   9.807 -3.1762  1.7793  1.2648
   37MOL0     H 4961   4.599  11.100   9.873 -0.6877 -1.5862  1.5547
   37MOL0     H 4962   4.722  10.971   9.837 -2.0856  0.7014 -1.4107
   37MOL0     H 4963   4.869  11.051  10.004 -0.8309 -0.3947  2.5960
   37MOL0     H 4964   4.763  11.184  10.033 -0.8881  0.8425 -0.9534
   37MOL0     H 4965   4.699  10.882  10.062 -2.7324 -0.5251 -0.3836
   37MOL0     H 4966   4.580  11.015  10.082 -0.1887 -0.7026 -3.6052
   37MOL0     H 4967   4.729  11.101  10.281  2.9188  0.0374  1.0920
   37MOL0     H 4968   4.847  10.986  10.258  0.8513  2.8583  0.5862
   37MOL0     H 4969   4.560  10.885  10.289  0.8126 -2.2336 -3.7411
   37MOL0     H 4970   4.704  10.786  10.288 -0.2214  0.8692 -1.9192
   37MOL0     H 4971   4.644  11.017  10.496 -0.8513  0.5152  0.5132
   37MOL0     H 4972   4.783  10.899  10.502 -0.6774  1.0811  0.4348
   37MOL0     H 4973   4.631  10.716  10.535  2.7665 -0.3039  1.8214
   37MOL0     H 4974   4.645  10.836  10.661  0.2457 -4.3571  2.0187
   37MOL0     H 4975   4.723  10.942   9.584 -1.1151 -1.6255 -0.2667
   37MOL0     H 4976   4.644  10.857   9.367  2.1718 -0.3233  1.2504
   37MOL0     H 4977   4.349  10.814   9.119  0.5426 -1.0572  0.8398
   37MOL0     H 4978   4.244  10.700   8.935  0.7631 -1.3260  2.5114
   37MOL0     H 4979   3.691  10.303   6.955 -0.9873 -0.3542 -1.1292
   37MOL0     H 4980   3.582  10.213   6.776  0.2915 -0.4047  0.4933
   37MOL0     H 4981   3.292   9.927   6.581  0.2800 -0.5486 -1.0830
   37MOL0     H 4982   3.219   9.889   6.344 -1.9448  0.9043 -2.5548
   37MOL0     H 4983   3.114  10.194   6.099  0.7179  1.7086 -1.8940
   37MOL0     H 4984   3.049  10.053   6.016 -1.8646  2.9441  0.9561
   37MOL0     H 4985   3.241   9.909   6.095  0.6323 -0.6944 -1.5608
   37MOL0     H 4986   3.315  10.039   6.171  0.9328 -2.3659 -0.1147
   37MOL0     H 4987   3.422   9.991   5.953  1.8972  1.9028  0.6139
   37MOL0     H 4988   3.364  10.162   5.967 -1.1569  0.4589  2.4827
   37MOL0     H 4989   3.168  10.103   5.837 -1.8283 -2.0276 -1.0390
   37MOL0     H 4990   3.317  10.055   5.749  2.1363  3.1453  2.2486
   37MOL0     H 4991   3.170   9.660   5.816  0.1030 -0.4903 -3.4279
   37MOL0     H 4992   2.991  10.249   6.354  2.0268  1.7502  0.2921
   37MOL0     H 4993   3.021  10.345   6.675 -0.7307 -0.3190 -0.1044
   37MOL0     H 4994   3.174  10.406   6.627 -2.0822  1.7416  2.1862
   37MOL0     H 4995   3.030  10.421   6.520 -0.9917 -1.8488 -1.3048
   38MOL0     O 4996   9.535   1.685  11.319  0.0234  0.0392 -0.0375
   38MOL0     C 4997   9.634   1.628  11.356 -0.0904 -0.3453 -0.6630
   38MOL0     O 4998   9.657   1.591  11.484 -0.1264  0.0389  0.2370
   38MOL0     C 4999   9.561   1.631  11.576 -0.5967 -0.1608 -0.5358
   38MOL0     C 5000   9.473   1.535  11.622  0.5358  0.6369 -0.9477
   38MOL0     C 5001   9.387   1.566  11.727 -0.5942 -0.1038  0.0714
   38MOL0     C 5002   9.387   1.700  11.788 -0.4134  0.6050  0.6754
   38MOL0     O 5003   9.297   1.739  11.885 -0.4528  0.1503 -0.4592
   38MOL0     C 5004   9.350   1.688  12.011  0.2520 -0.2583 -0.1930
   38MOL0     C 5005   9.222   1.629  12.092 -0.2168  0.1619  0.5603
   38MOL0     C 5006   9.171   1.496  12.038 -0.1553  0.2666  1.0017
   38MOL0     C 5007   9.064   1.413  12.118 -0.6442 -0.2141  0.2604
   38MOL0     C 5008   9.097   1.410  12.263 -0.6297  0.8105 -0.2517
   38MOL0     C 5009   9.014   1.305  12.338 -0.2768 -0.3702 -0.8126
   38MOL0     C 5010   9.061   1.156  12.324  0.2679 -0.2570  0.1638
   38MOL0     C 5011   9.183   1.106  12.411 -0.5000  0.1481  0.0195
   38MOL0     N 5012   9.214   0.964  12.381  0.2358 -0.2334  0.4710
   38MOL0     C 5013   9.293   0.909  12.281 -0.6201  0.5553  0.2438
   38MOL0     C 5014   9.261   0.772  12.273 -0.2149 -0.5266  0.4876
   38MOL0     C 5015   9.337   0.671  12.179 -0.6100  0.0540  0.6918
   38MOL0     C 5016   9.345   0.704  12.031 -0.5486  0.0216 -0.2995
   38MOL0     C 5017   9.428   0.605  11.953 -0.6221 -1.0440  0.4880
   38MOL0     C 5018   9.419   0.628  11.799 -0.1747 -0.5653  0.5515
   38MOL0     O 5019   9.293   0.598  11.753 -0.2352  0.3625  0.1359
   38MOL0     C 5020   9.275   0.583  11.613  0.0347 -0.5164  0.7540
   38MOL0     C 5021   9.376   0.591  11.516  0.5667 -0.1017 -0.5591
   38MOL0     C 5022   9.346   0.568  11.383  0.5408 -0.0170  0.9312
   38MOL0     C 5023   9.215   0.534  11.339 -0.0884 -0.2578 -0.0853
   38MOL0     C 5024   9.183   0.494  11.204 -0.1425  1.0570 -0.5783
   38MOL0     O 5025   9.288   0.470  11.122  0.1997  0.2880  0.8043
   38MOL0     C 5026   9.271   0.423  10.991 -1.2082  0.5421 -0.4444
   38MOL0     C 5027   9.386   0.382  10.917  0.3558  0.2759 -0.6666
   38MOL0     C 5028   9.378   0.319  10.788 -0.2150 -0.7315  0.1110
   38MOL0     C 5029   9.250   0.312  10.727  0.6972  0.4656  0.2288
   38MOL0     O 5030   9.250   0.257  10.596 -0.4408 -0.6979 -0.3792
   38MOL0     C 5031   9.123   0.218  10.538  0.4337  0.9365  0.3165
   38MOL0     C 5032   9.155   0.162  10.403  0.1104 -0.4884 -0.5989
   38MOL0     C 5033   9.027   0.145  10.319  1.0831 -0.0403  0.2939
   38MOL0     C 5034   9.032   0.069  10.181  0.0172 -0.0047  0.4756
   38MOL0     C 5035   8.889   0.055  10.116  0.3153  0.1763  0.3454
   38MOL0     C 5036   8.859   0.187  10.049 -0.2694  0.5553  0.6074
   38MOL0     C 5037   8.714   0.203  10.006 -0.3620  0.0449 -0.7984
   38MOL0     C 5038   8.678   0.348   9.986 -0.2314 -0.6781 -0.2819
   38MOL0    Cl 5039   8.658   0.429  10.145 -0.1898 -0.5039  0.4893
   38MOL0     C 5040   9.133   0.346  10.789 -0.6528 -0.0382 -0.9849
   38MOL0     C 5041   9.146   0.406  10.918 -0.5733 -0.0569 -0.8087
   38MOL0     O 5042   9.063   0.491  11.172 -0.0617  0.1949  0.4054
   38MOL0     C 5043   9.113   0.536  11.441 -0.0841 -0.3545  1.0474
   38MOL0     C 5044   9.143   0.557  11.566 -0.5188 -0.1021 -0.2052
   38MOL0     N 5045   9.160   0.760  12.368  0.3994 -0.1283 -0.4992
   38MOL0     N 5046   9.137   0.864  12.433  0.8816  0.0032 -0.2890
   38MOL0     C 5047   9.474   1.788  11.739 -0.2006  0.3273  0.4898
   38MOL0     C 5048   9.561   1.758  11.633  1.1744 -0.2647  0.2949
   38MOL0     C 5049   9.745   1.597  11.252  0.3806 -0.0849 -0.0262
   38MOL0     C 5050   9.875   1.589  11.298  0.4715  0.3170  0.8888
   38MOL0     C 5051   9.983   1.586  11.208  0.3485  0.3600 -0.5206
   38MOL0     C 5052   9.954   1.579  11.074 -0.3213  0.0945  0.4508
   38MOL0     O 5053  10.055   1.566  10.980  0.5861 -0.4816 -0.0274
   38MOL0     C 5054  10.042   1.500  10.854  0.4584 -0.4422 -0.0271
   38MOL0     C 5055  10.173   1.497  10.767 -0.1090 -0.0533  0.3278
   38MOL0     C 5056  10.284   1.459  10.863  0.3119  0.2366  0.0163
   38MOL0     C 5057  10.416   1.418  10.813 -0.1390 -0.5515 -0.5625
   38MOL0     C 5058  10.423   1.305  10.722  0.8554  0.8218  0.8562
   38MOL0     C 5059  10.424   1.211  10.641 -0.4149 -0.1902 -0.1945
   38MOL0     C 5060   9.827   1.585  11.020  0.8807  0.8286 -0.1761
   38MOL0     C 5061   9.724   1.592  11.111  0.8044  0.0121  0.6611
   38MOL0     C 5062   9.582   1.581  11.051 -0.1503  0.0606  0.1122
   38MOL0     H 5063   9.462   1.434  11.582  2.2986  0.9006 -2.2333
   38MOL0     H 5064   9.316   1.497  11.772 -1.4099  0.9856  0.5194
   38MOL0     H 5065   9.421   1.605  12.001  2.0104  1.2870 -1.0535
   38MOL0     H 5066   9.394   1.767  12.072  1.2877 -2.0652  1.5237
   38MOL0     H 5067   9.138   1.699  12.095 -1.3375 -1.1122  3.9039
   38MOL0     H 5068   9.267   1.614  12.191  1.1519 -1.2497 -0.2191
   38MOL0     H 5069   9.251   1.422  12.028 -1.4161 -0.9541 -0.8854
   38MOL0     H 5070   9.138   1.512  11.934 -0.0111 -0.0253  0.9092
   38MOL0     H 5071   8.965   1.455  12.101  0.0314  0.9373 -1.0710
   38MOL0     H 5072   9.069   1.312  12.075  0.3519  1.6647 -4.6352
   38MOL0     H 5073   9.201   1.396  12.295 -1.2106 -0.5150  1.1917
   38MOL0     H 5074   9.070   1.503  12.313 -1.0469  1.2354 -1.2395
   38MOL0     H 5075   9.028   1.323  12.445 -3.1528 -0.3271 -0.3491
   38MOL0     H 5076   8.909   1.316  12.309 -0.5034  2.4494  0.7495
   38MOL0     H 5077   9.088   1.139  12.219  0.0077 -2.8748  0.4407
   38MOL0     H 5078   8.970   1.101  12.349 -2.0615  3.4747  0.6563
   38MOL0     H 5079   9.262   1.180  12.395  2.0310 -2.2291  0.7550
   38MOL0     H 5080   9.166   1.104  12.520 -2.1877 -0.1320 -0.2170
   38MOL0     H 5081   9.372   0.958  12.225 -1.2109  0.9571 -0.2472
   38MOL0     H 5082   9.435   0.660  12.226 -1.5011 -1.1768  2.3677
   38MOL0     H 5083   9.290   0.573  12.189 -1.9297  0.5184 -0.5073
   38MOL0     H 5084   9.241   0.706  11.999 -0.2817  3.9629 -1.5163
   38MOL0     H 5085   9.384   0.805  12.013 -2.5028  1.1337  1.3244
   38MOL0     H 5086   9.391   0.503  11.972 -0.0754 -1.9321 -2.6394
   38MOL0     H 5087   9.532   0.615  11.984 -1.1548  1.4966  1.6914
   38MOL0     H 5088   9.481   0.561  11.738 -3.2348 -0.8232 -2.5810
   38MOL0     H 5089   9.443   0.730  11.767 -0.4842 -0.1311  1.6658
   38MOL0     H 5090   9.477   0.612  11.547  0.3629  0.1451 -0.0460
   38MOL0     H 5091   9.425   0.573  11.309  0.2574 -0.9024  0.5519
   38MOL0     H 5092   9.482   0.390  10.969 -0.5707 -2.3874  1.7598
   38MOL0     H 5093   9.467   0.285  10.736  0.2427 -1.8666  1.5520
   38MOL0     H 5094   9.079   0.134  10.591 -0.9729  0.3688 -1.6283
   38MOL0     H 5095   9.043   0.294  10.534 -0.6973  0.0064  3.1405
   38MOL0     H 5096   9.233   0.221  10.355  1.3533 -1.0248  0.6815
   38MOL0     H 5097   9.186   0.060  10.427  2.3697  0.0807 -0.9438
   38MOL0     H 5098   8.938   0.111  10.372 -0.3664 -0.0494 -2.0171
   38MOL0     H 5099   8.989   0.242  10.287 -0.6119 -1.0776 -0.9665
   38MOL0     H 5100   9.083  -0.027  10.194 -0.4256 -0.0208  2.2629
   38MOL0     H 5101   9.098   0.113  10.106 -1.7513  0.9465 -0.5997
   38MOL0     H 5102   8.807   0.020  10.179  0.0167  1.0355  0.4385
   38MOL0     H 5103   8.877  -0.017  10.034  2.8281  2.4525 -2.2795
   38MOL0     H 5104   8.884   0.271  10.116  2.4010  0.2560  0.1056
   38MOL0     H 5105   8.928   0.204   9.966  0.3893  0.3401  1.0959
   38MOL0     H 5106   8.645   0.163  10.081 -0.6699  1.2463 -0.4086
   38MOL0     H 5107   8.684   0.154   9.913 -0.5020 -2.5261  0.5096
   38MOL0     H 5108   8.765   0.389   9.933 -0.6151 -2.2964 -2.2988
   38MOL0     H 5109   8.575   0.361   9.949 -1.8092 -1.1098  3.4861
   38MOL0     H 5110   9.039   0.332  10.737 -2.4421 -0.6814  2.1748
   38MOL0     H 5111   9.054   0.454  10.949 -0.2922  2.7638 -3.7923
   38MOL0     H 5112   9.006   0.536  11.418 -0.4440  0.2955  2.6261
   38MOL0     H 5113   9.066   0.583  11.637 -0.3802  1.5205 -0.5978
   38MOL0     H 5114   9.477   1.890  11.775  1.8602  0.8420 -0.9181
   38MOL0     H 5115   9.617   1.840  11.589 -1.9985  2.0387  0.2510
   38MOL0     H 5116   9.885   1.584  11.406 -3.5421 -1.5109  1.3559
   38MOL0     H 5117  10.090   1.588  11.228  0.0673  3.4532  1.2938
   38MOL0     H 5118   9.974   1.559  10.793  0.4072  0.3627  0.7821
   38MOL0     H 5119  10.003   1.398  10.857  1.5950 -0.8999 -0.0521
   38MOL0     H 5120  10.181   1.593  10.715  1.3247  0.9693  2.3073
   38MOL0     H 5121  10.163   1.409  10.702 -1.3297  0.0897  0.3030
   38MOL0     H 5122  10.242   1.378  10.922 -3.3498  1.0631 -1.2189
   38MOL0     H 5123  10.303   1.544  10.929 -1.4306 -0.1795  1.1119
   38MOL0     H 5124  10.469   1.502  10.768  0.3178  0.4650  1.7158
   38MOL0     H 5125  10.468   1.383  10.903  2.0522 -0.8640 -1.8822
   38MOL0     H 5126  10.436   1.116  10.593 -2.0690 -0.9591  0.8512
   38MOL0     H 5127   9.808   1.562  10.916  3.1390  1.2742 -0.7354
   38MOL0     H 5128   9.538   1.678  11.023 -0.3911  0.6475  2.3640
   38MOL0     H 5129   9.585   1.530  10.954 -0.7733 -1.5316  0.9064
   38MOL0     H 5130   9.513   1.533  11.121 -0.0101 -0.5395 -0.1586
   39MOL0     O 5131   9.786   1.845   1.974  0.0929 -0.1895 -0.0765
   39MOL0     C 5132   9.884   1.800   2.037  0.1538 -0.2521 -0.4173
   39MOL0     O 5133   9.936   1.850   2.159  0.2745 -0.3170 -0.3047
   39MOL0     C 5134   9.888   1.972   2.206 -0.3707  0.5557  0.3698
   39MOL0     C 5135   9.854   2.073   2.114 -0.3613 -0.4981 -0.3511
   39MOL0     C 5136   9.822   2.205   2.160 -0.1944 -1.2098  0.8983
   39MOL0     C 5137   9.813   2.228   2.301 -0.3481 -0.4022  0.4377
   39MOL0     O 5138   9.791   2.354   2.345  1.2997  0.2319  0.2198
   39MOL0     C 5139   9.666   2.362   2.410 -0.8950 -0.5933  0.5778
   39MOL0     C 5140   9.675   2.478   2.506 -0.8632 -0.7729  0.9155
   39MOL0     C 5141   9.762   2.457   2.631 -1.2055  0.7898  0.0786
   39MOL0     C 5142   9.900   2.510   2.623 -0.1221 -0.4578  0.5632
   39MOL0     C 5143  10.001   2.411   2.683  0.5458 -0.2821  0.1407
   39MOL0     C 5144  10.142   2.464   2.718 -0.3339  0.5835 -0.3691
   39MOL0     C 5145  10.251   2.491   2.606 -0.4130  0.4527 -0.2638
   39MOL0     C 5146  10.284   2.359   2.528  0.6534 -1.0961 -0.5688
   39MOL0     N 5147  10.368   2.278   2.605 -0.0880 -0.4853  0.4014
   39MOL0     C 5148  10.502   2.297   2.625 -0.9735 -0.1488 -0.0321
   39MOL0     C 5149  10.536   2.194   2.705 -0.2641  0.0757 -0.0096
   39MOL0     C 5150  10.672   2.168   2.757 -0.8556 -0.1320 -0.4815
   39MOL0     C 5151  10.755   2.079   2.670 -0.5517  0.1106  0.8138
   39MOL0     C 5152  10.738   1.928   2.692 -0.6306 -0.9482  0.5508
   39MOL0     C 5153  10.833   1.837   2.597 -0.7638  0.6317 -0.5229
   39MOL0     O 5154  10.968   1.837   2.651  0.1905 -0.2987 -0.2546
   39MOL0     C 5155  11.055   1.757   2.579  0.7729 -0.3697  0.5429
   39MOL0     C 5156  11.032   1.701   2.451  0.2259 -0.0004  0.5613
   39MOL0     C 5157  11.124   1.615   2.389  0.5054 -0.2194 -0.4505
   39MOL0     C 5158  11.246   1.588   2.455 -0.5322 -0.7708 -0.0493
   39MOL0     C 5159  11.345   1.496   2.391 -0.1954  0.0304 -0.2027
   39MOL0     O 5160  11.295   1.417   2.290  0.3950 -0.9796 -0.1812
   39MOL0     C 5161  11.373   1.368   2.195  0.0353  0.1041  0.1660
   39MOL0     C 5162  11.464   1.440   2.124 -0.6771 -0.0660  0.5623
   39MOL0     C 5163  11.555   1.375   2.031  0.2524  1.0530  0.3484
   39MOL0     C 5164  11.526   1.248   1.984  0.0259  0.5759 -0.0870
   39MOL0     O 5165  11.596   1.181   1.887  0.0438 -0.0956  0.3902
   39MOL0     C 5166  11.725   1.231   1.833  1.3900 -0.1215  0.2236
   39MOL0     C 5167  11.795   1.139   1.720 -0.1687  0.5537  0.2979
   39MOL0     C 5168  11.707   1.078   1.609 -0.9191 -0.0699 -0.7197
   39MOL0     C 5169  11.646   0.947   1.648 -0.1825  0.5185 -0.2753
   39MOL0     C 5170  11.515   0.917   1.564 -0.7107 -0.9372 -0.0899
   39MOL0     C 5171  11.401   1.007   1.609  0.3948 -0.2205 -0.5877
   39MOL0     C 5172  11.273   0.969   1.548  0.2527  1.0534  0.6055
   39MOL0     C 5173  11.158   1.025   1.632  0.3317 -0.7298 -0.0703
   39MOL0    Cl 5174  10.999   0.955   1.562  0.6114 -0.5780  0.2045
   39MOL0     C 5175  11.415   1.182   2.039 -0.0816 -0.5136  0.0145
   39MOL0     C 5176  11.341   1.238   2.147  0.8164 -0.0533 -0.0836
   39MOL0     O 5177  11.457   1.490   2.439  0.1770  0.2789 -0.3164
   39MOL0     C 5178  11.275   1.660   2.580 -0.5678 -0.1025  0.6314
   39MOL0     C 5179  11.183   1.744   2.637 -0.3469 -0.4024  0.2327
   39MOL0     N 5180  10.423   2.118   2.738 -0.0530 -0.1643  0.2710
   39MOL0     N 5181  10.323   2.178   2.685 -0.5371 -0.6151 -0.0263
   39MOL0     C 5182   9.843   2.123   2.391  1.4683 -0.2628 -0.5679
   39MOL0     C 5183   9.882   1.999   2.341  0.7653  0.8236  0.3085
   39MOL0     C 5184   9.970   1.729   1.942 -0.3219  1.0518  0.1020
   39MOL0     C 5185  10.103   1.769   1.937  0.0870 -0.2081 -0.4424
   39MOL0     C 5186  10.186   1.703   1.845 -0.0631 -0.6838 -0.2064
   39MOL0     C 5187  10.140   1.595   1.760 -0.2889  0.1430  0.6985
   39MOL0     O 5188  10.236   1.566   1.658  0.3219 -0.1639 -0.3547
   39MOL0     C 5189  10.216   1.467   1.549  0.7238 -0.2208 -0.2021
   39MOL0     C 5190  10.331   1.463   1.444  0.3646 -0.1840  0.4110
   39MOL0     C 5191  10.410   1.599   1.421  0.6733  0.1210 -0.7417
   39MOL0     C 5192  10.320   1.708   1.374 -1.6482  0.1884  0.1718
   39MOL0     C 5193  10.404   1.824   1.356 -0.4752 -0.7743 -0.4612
   39MOL0     C 5194  10.484   1.912   1.325  0.2314  0.1679  0.7839
   39MOL0     C 5195  10.006   1.560   1.765 -0.4573 -0.3522  0.4320
   39MOL0     C 5196   9.922   1.623   1.855  0.1108  0.0368  0.4394
   39MOL0     C 5197   9.777   1.586   1.860  0.2759  0.4425 -0.6962
   39MOL0     H 5198   9.861   2.060   2.006  1.6596 -2.0754 -0.0915
   39MOL0     H 5199   9.796   2.274   2.080 -2.3914 -0.6952  1.9768
   39MOL0     H 5200   9.587   2.389   2.339 -0.4873  2.7817  1.2173
   39MOL0     H 5201   9.641   2.279   2.476 -2.4225 -1.3242 -0.8508
   39MOL0     H 5202   9.573   2.509   2.530 -1.3442 -2.1098  0.7356
   39MOL0     H 5203   9.718   2.564   2.454 -0.8549 -0.2988  1.7070
   39MOL0     H 5204   9.767   2.348   2.641 -5.3508  0.6659  4.4742
   39MOL0     H 5205   9.708   2.501   2.716 -2.3251 -0.5537  0.0996
   39MOL0     H 5206   9.922   2.535   2.518 -1.2728 -1.7639 -0.0191
   39MOL0     H 5207   9.909   2.609   2.669 -0.4324  0.8553 -1.9858
   39MOL0     H 5208   9.982   2.363   2.779  1.0602 -1.9002 -0.5348
   39MOL0     H 5209  10.009   2.327   2.613 -0.0424  0.0464 -0.3325
   39MOL0     H 5210  10.110   2.562   2.757 -0.9381  1.9460 -3.8726
   39MOL0     H 5211  10.174   2.397   2.798 -1.0803  0.0206 -0.5299
   39MOL0     H 5212  10.342   2.526   2.656  0.2277 -0.1550 -0.9873
   39MOL0     H 5213  10.221   2.577   2.545 -0.7483 -0.5155 -1.5098
   39MOL0     H 5214  10.196   2.304   2.493  0.4062 -1.9559  1.2484
   39MOL0     H 5215  10.339   2.388   2.439 -0.6923  3.3444 -0.1714
   39MOL0     H 5216  10.581   2.364   2.593  0.2753 -0.0539  2.9258
   39MOL0     H 5217  10.724   2.262   2.780 -0.7460 -0.4285  0.5325
   39MOL0     H 5218  10.653   2.116   2.851  1.3058 -0.9214 -0.4215
   39MOL0     H 5219  10.739   2.090   2.563  1.1142 -1.0741  0.4018
   39MOL0     H 5220  10.861   2.094   2.691  0.0414 -0.9747 -1.2028
   39MOL0     H 5221  10.636   1.893   2.677 -1.0408  0.7864 -1.1805
   39MOL0     H 5222  10.767   1.911   2.796  0.0138 -1.0189  0.3645
   39MOL0     H 5223  10.839   1.888   2.500  1.0856  3.8847  1.1077
   39MOL0     H 5224  10.787   1.738   2.597 -1.2853  0.7806  2.2746
   39MOL0     H 5225  10.944   1.731   2.395  0.3994 -1.0823 -0.3389
   39MOL0     H 5226  11.098   1.564   2.297 -0.2576 -1.4619  0.4221
   39MOL0     H 5227  11.481   1.542   2.155  0.3603  0.3302 -1.1580
   39MOL0     H 5228  11.642   1.421   1.985  0.0979  0.4756 -0.5532
   39MOL0     H 5229  11.705   1.317   1.768  2.9816 -0.7702 -1.2074
   39MOL0     H 5230  11.796   1.253   1.913 -0.5555  0.0010  1.9852
   39MOL0     H 5231  11.881   1.194   1.681  1.7893  0.3289  3.8489
   39MOL0     H 5232  11.849   1.062   1.776  2.2835  1.9627  0.0027
   39MOL0     H 5233  11.629   1.154   1.593  0.9868  1.6267 -2.5920
   39MOL0     H 5234  11.771   1.072   1.520  2.0686 -1.4106  1.3650
   39MOL0     H 5235  11.623   0.944   1.755  1.1089  2.5476  0.1140
   39MOL0     H 5236  11.729   0.877   1.633 -1.7103 -1.4863  0.2308
   39MOL0     H 5237  11.491   0.811   1.576  1.6407 -1.7949 -2.1276
   39MOL0     H 5238  11.522   0.937   1.457  0.3992 -1.3720 -0.1066
   39MOL0     H 5239  11.401   0.999   1.718 -3.5913 -2.3083 -0.5499
   39MOL0     H 5240  11.430   1.107   1.576  0.7453  0.8790  2.6972
   39MOL0     H 5241  11.266   0.860   1.546  2.6266  0.8558 -0.0351
   39MOL0     H 5242  11.262   1.002   1.445  0.4893 -1.0860 -0.1490
   39MOL0     H 5243  11.165   0.983   1.733 -1.7154 -2.6813 -0.6454
   39MOL0     H 5244  11.164   1.134   1.632  2.2355 -0.7900  1.1403
   39MOL0     H 5245  11.385   1.080   2.017 -0.0401 -0.7157  0.8741
   39MOL0     H 5246  11.262   1.178   2.190 -0.3504  2.8739  2.1627
   39MOL0     H 5247  11.369   1.636   2.629 -1.5143 -3.1184  1.2109
   39MOL0     H 5248  11.212   1.794   2.729 -1.7150  0.3067  0.3029
   39MOL0     H 5249   9.833   2.146   2.497 -1.9496  0.1729 -0.8976
   39MOL0     H 5250   9.915   1.925   2.413  0.1574  1.4269  1.2299
   39MOL0     H 5251  10.143   1.847   2.001 -0.1527 -0.9422  0.6540
   39MOL0     H 5252  10.285   1.740   1.821 -1.9862  1.7361 -6.5020
   39MOL0     H 5253  10.123   1.470   1.491  0.7836  1.0047 -0.2477
   39MOL0     H 5254  10.210   1.366   1.591 -0.9729 -1.8596 -3.8383
   39MOL0     H 5255  10.298   1.408   1.355  0.8977 -4.7625  2.7242
   39MOL0     H 5256  10.402   1.387   1.480  1.0492  0.0380 -0.4294
   39MOL0     H 5257  10.485   1.581   1.343  1.8135 -2.2090  0.7766
   39MOL0     H 5258  10.467   1.626   1.511 -1.3587  1.5771  0.1849
   39MOL0     H 5259  10.281   1.677   1.277  0.4335  0.3664 -0.7785
   39MOL0     H 5260  10.244   1.741   1.445  0.6755  2.0625  1.9543
   39MOL0     H 5261  10.550   1.984   1.281  1.9102 -0.5665  1.9962
   39MOL0     H 5262   9.962   1.481   1.705 -0.8667  0.2958 -0.1344
   39MOL0     H 5263   9.703   1.664   1.840 -0.3576  0.1678  0.4716
   39MOL0     H 5264   9.761   1.497   1.798  1.4197 -0.6234  0.4863
   39MOL0     H 5265   9.764   1.564   1.966  3.7173 -0.6207 -0.3736
   40MOL0     O 5266   2.026   7.104   0.762  0.5311 -0.1370  0.6236
   40MOL0     C 5267   1.942   7.120   0.849 -0.5793  0.6791 -0.3908
   40MOL0     O 5268   1.810   7.116   0.837 -0.4383 -0.5422 -0.3628
   40MOL0     C 5269   1.753   7.093   0.714 -0.8029  0.6278 -0.3846
   40MOL0     C 5270   1.696   7.203   0.647  0.8680  0.4680 -0.2638
   40MOL0     C 5271   1.625   7.191   0.528  0.2046  0.3485  0.5344
   40MOL0     C 5272   1.624   7.063   0.466 -0.6551  0.8481 -0.7348
   40MOL0     O 5273   1.578   7.041   0.337  0.3384 -0.1368 -0.3788
   40MOL0     C 5274   1.511   7.152   0.264  1.2712 -0.1782 -0.3673
   40MOL0     C 5275   1.423   7.107   0.153  0.0025  0.3878 -0.1402
   40MOL0     C 5276   1.282   7.072   0.173  0.4219  0.1533 -0.0942
   40MOL0     C 5277   1.207   7.083   0.033  0.3099  0.9589 -0.5494
   40MOL0     C 5278   1.077   6.995   0.029  0.0712  0.7942 -0.7097
   40MOL0     C 5279   0.991   7.044   0.153  0.6211  0.3230  0.4033
   40MOL0     C 5280   0.851   6.966   0.151 -0.5037 -0.4692 -0.9313
   40MOL0     C 5281   0.858   6.841   0.236  0.1254  0.4391 -0.3370
   40MOL0     N 5282   0.876   6.715   0.156  0.1140 -0.6055  0.1644
   40MOL0     C 5283   1.001   6.661   0.135  0.2665  0.4717  0.4366
   40MOL0     C 5284   0.981   6.536   0.082  1.4702 -0.7517 -0.2055
   40MOL0     C 5285   1.081   6.445   0.040 -0.5406  0.5283 -0.9463
   40MOL0     C 5286   1.042   6.299   0.032 -0.6243  0.3523 -0.6234
   40MOL0     C 5287   1.015   6.227   0.171 -0.1755  0.5573  0.2450
   40MOL0     C 5288   0.999   6.071   0.179 -0.0171 -0.5662 -0.0642
   40MOL0     O 5289   0.914   6.024   0.064  0.6820 -0.2912 -0.4523
   40MOL0     C 5290   0.881   5.894   0.048  0.1837  0.4954  0.4353
   40MOL0     C 5291   0.801   5.868  -0.062  0.0644 -0.5897  0.0395
   40MOL0     C 5292   0.765   5.733  -0.090 -0.5824 -0.7649  0.3892
   40MOL0     C 5293   0.806   5.629  -0.007  1.1175  0.0161 -0.3573
   40MOL0     C 5294   0.759   5.499  -0.027  1.2831  1.2131  1.2765
   40MOL0     O 5295   0.822   5.397   0.037  0.0634  0.1272 -0.3167
   40MOL0     C 5296   0.789   5.265   0.003 -0.3206 -0.0299 -0.9144
   40MOL0     C 5297   0.663   5.211   0.033  0.1895 -0.7060  0.1310
   40MOL0     C 5298   0.629   5.079  -0.012  0.0764  0.4352  0.1942
   40MOL0     C 5299   0.721   5.011  -0.088 -0.2393 -0.3756  0.8711
   40MOL0     O 5300   0.695   4.900  -0.160 -0.7321  0.2751  0.0145
   40MOL0     C 5301   0.570   4.889  -0.245  0.1673  1.7777  0.4425
   40MOL0     C 5302   0.592   4.755  -0.315 -0.4935 -0.1052 -0.5810
   40MOL0     C 5303   0.712   4.770  -0.411  0.7667 -0.6231 -0.9883
   40MOL0     C 5304   0.787   4.634  -0.427 -0.9301 -0.2363 -0.2426
   40MOL0     C 5305   0.875   4.642  -0.561  0.2391 -0.4067 -0.3109
   40MOL0     C 5306   0.942   4.776  -0.588 -0.0224 -0.2942  0.4574
   40MOL0     C 5307   1.019   4.769  -0.716 -0.9548  1.5550 -0.6140
   40MOL0     C 5308   1.151   4.859  -0.700  0.0785  0.4195  0.6389
   40MOL0    Cl 5309   1.096   5.016  -0.663  0.3249 -0.4832 -0.6061
   40MOL0     C 5310   0.852   5.057  -0.101  0.1705 -0.2700 -0.8092
   40MOL0     C 5311   0.884   5.186  -0.057 -0.2822  0.8551  0.3017
   40MOL0     O 5312   0.674   5.483  -0.126 -0.2525 -0.0417 -0.4566
   40MOL0     C 5313   0.889   5.665   0.099 -0.6479  0.0981  0.4503
   40MOL0     C 5314   0.926   5.789   0.130  0.1649 -0.2759  0.0031
   40MOL0     N 5315   0.844   6.513   0.082 -0.9144  0.8706 -0.2499
   40MOL0     N 5316   0.784   6.619   0.128 -0.4514 -0.0793  0.6819
   40MOL0     C 5317   1.676   6.949   0.534 -0.5372 -0.0564 -0.1408
   40MOL0     C 5318   1.746   6.969   0.652  0.0305 -0.6851  0.5077
   40MOL0     C 5319   1.996   7.158   0.972  0.4527  0.0348 -0.5362
   40MOL0     C 5320   2.073   7.270   0.985  0.5923 -0.1837  0.0820
   40MOL0     C 5321   2.115   7.318   1.112 -0.4706 -0.1409 -1.0409
   40MOL0     C 5322   2.090   7.249   1.229  0.6544  0.1089 -0.8115
   40MOL0     O 5323   2.154   7.294   1.341  0.3392 -0.7328  0.4705
   40MOL0     C 5324   2.124   7.246   1.467  0.2943 -0.2978  0.3353
   40MOL0     C 5325   2.227   7.133   1.498  1.0715 -0.2979 -0.1724
   40MOL0     C 5326   2.237   7.096   1.651  0.0650  0.2674  0.1297
   40MOL0     C 5327   2.110   7.065   1.724  0.7964 -0.1817  0.0501
   40MOL0     C 5328   2.034   7.180   1.757  0.5220 -0.7163  1.0208
   40MOL0     C 5329   1.987   7.291   1.787  0.8435  1.0288  0.5366
   40MOL0     C 5330   1.998   7.141   1.215  1.0025 -0.6417 -0.5952
   40MOL0     C 5331   1.949   7.100   1.090 -0.0753 -1.1605  0.3652
   40MOL0     C 5332   1.844   6.996   1.092  0.7437 -0.4435 -0.2501
   40MOL0     H 5333   1.700   7.297   0.701 -1.8570 -0.0823  1.1091
   40MOL0     H 5334   1.592   7.279   0.474  0.3568 -0.3675 -0.7845
   40MOL0     H 5335   1.439   7.211   0.322  1.0581  3.6623 -4.0818
   40MOL0     H 5336   1.592   7.213   0.223 -2.1177  2.2809 -4.0885
   40MOL0     H 5337   1.463   7.012   0.116 -0.7254 -0.4512  1.1781
   40MOL0     H 5338   1.444   7.176   0.070  2.0190 -0.2431 -0.1982
   40MOL0     H 5339   1.240   7.136   0.251 -1.2431 -0.8601 -0.1168
   40MOL0     H 5340   1.274   6.969   0.207 -0.0125  0.1921 -0.0759
   40MOL0     H 5341   1.184   7.188   0.012  1.6320  1.4768  0.4349
   40MOL0     H 5342   1.275   7.054  -0.048  2.9309  3.2100  0.6940
   40MOL0     H 5343   1.026   7.025  -0.063  1.2232  1.8955 -1.0234
   40MOL0     H 5344   1.110   6.891   0.022  3.7207  1.9206 -2.2262
   40MOL0     H 5345   1.046   7.021   0.245  1.0003  2.6378  0.8262
   40MOL0     H 5346   0.960   7.149   0.154 -3.1018 -0.5970  2.2062
   40MOL0     H 5347   0.807   6.948   0.052 -1.6545  0.6269 -0.6324
   40MOL0     H 5348   0.785   7.030   0.209  0.5815 -2.5859  2.9602
   40MOL0     H 5349   0.931   6.863   0.314  1.4216  0.5028 -1.5249
   40MOL0     H 5350   0.756   6.837   0.276 -0.0863  0.4658 -0.8580
   40MOL0     H 5351   1.095   6.715   0.143  0.9003 -0.5234 -0.1008
   40MOL0     H 5352   1.107   6.468  -0.064 -0.5023  0.0780 -1.0380
   40MOL0     H 5353   1.169   6.472   0.099 -0.6942  1.1986 -1.0069
   40MOL0     H 5354   0.950   6.285  -0.025 -0.5963  0.8373 -0.7886
   40MOL0     H 5355   1.121   6.246  -0.023 -0.8080  2.7370 -3.3665
   40MOL0     H 5356   0.927   6.277   0.211  1.1200  1.2172  2.4903
   40MOL0     H 5357   1.099   6.252   0.237  0.8718 -0.7906 -0.5264
   40MOL0     H 5358   0.952   6.034   0.271 -1.0392  0.8774  0.0375
   40MOL0     H 5359   1.096   6.021   0.174 -1.2071 -2.8760 -2.1082
   40MOL0     H 5360   0.756   5.957  -0.106 -0.0554 -0.9148 -0.5049
   40MOL0     H 5361   0.696   5.721  -0.173 -1.8762 -2.4724  1.6261
   40MOL0     H 5362   0.586   5.268   0.085 -1.4960 -1.7626 -1.1128
   40MOL0     H 5363   0.529   5.037  -0.007  0.2991 -0.1338 -0.0092
   40MOL0     H 5364   0.474   4.879  -0.194 -0.6405 -0.6261 -1.3721
   40MOL0     H 5365   0.569   4.959  -0.329  3.3278 -1.0498 -2.2490
   40MOL0     H 5366   0.615   4.677  -0.242  0.2930  1.7470  1.2513
   40MOL0     H 5367   0.500   4.730  -0.370 -0.5643  1.7789 -1.3813
   40MOL0     H 5368   0.668   4.792  -0.509 -1.8125  1.3611  0.4951
   40MOL0     H 5369   0.782   4.848  -0.379  0.4529 -1.9117  3.3860
   40MOL0     H 5370   0.724   4.545  -0.430 -0.7619 -0.3379 -0.8543
   40MOL0     H 5371   0.845   4.624  -0.335  1.0429  4.2964 -0.7217
   40MOL0     H 5372   0.810   4.631  -0.649  0.0836 -1.3332 -0.0885
   40MOL0     H 5373   0.945   4.559  -0.575  1.1658  0.7249 -3.3114
   40MOL0     H 5374   0.870   4.858  -0.598  2.4195  1.7048 -2.0753
   40MOL0     H 5375   0.995   4.806  -0.497 -0.0312  0.9878  0.0661
   40MOL0     H 5376   0.968   4.797  -0.808  0.8694  0.3563 -2.0678
   40MOL0     H 5377   1.051   4.667  -0.740 -2.9055  0.7633 -0.0126
   40MOL0     H 5378   1.212   4.819  -0.618 -1.4109  0.8219  2.0083
   40MOL0     H 5379   1.198   4.850  -0.798 -0.3636 -1.8703  0.5727
   40MOL0     H 5380   0.916   5.002  -0.170  0.2539  1.5053 -2.2353
   40MOL0     H 5381   0.977   5.232  -0.087 -1.0034  0.9148 -2.0427
   40MOL0     H 5382   0.923   5.593   0.173  1.7830  2.8966  2.2854
   40MOL0     H 5383   1.000   5.796   0.209 -0.5404 -1.4233  0.7804
   40MOL0     H 5384   1.671   6.847   0.496 -3.5388 -0.3228  0.7302
   40MOL0     H 5385   1.804   6.889   0.699 -2.8882 -2.8591  0.7183
   40MOL0     H 5386   2.097   7.329   0.896  0.5663 -0.4237 -0.0851
   40MOL0     H 5387   2.167   7.411   1.133  0.7957 -1.6564  3.9203
   40MOL0     H 5388   2.020   7.218   1.485  0.0037  1.7497  2.2647
   40MOL0     H 5389   2.151   7.334   1.526 -0.8430  1.2610 -1.3703
   40MOL0     H 5390   2.323   7.173   1.463  0.5489 -1.7889 -3.7650
   40MOL0     H 5391   2.194   7.047   1.439  0.6001 -1.0558  1.1389
   40MOL0     H 5392   2.302   7.169   1.699 -0.9374 -0.7141  3.2369
   40MOL0     H 5393   2.308   7.014   1.661 -0.4035 -0.0425  1.0010
   40MOL0     H 5394   2.050   7.001   1.658  0.4186 -1.3208  1.4500
   40MOL0     H 5395   2.142   7.011   1.813 -1.2543 -1.2799  0.2033
   40MOL0     H 5396   1.937   7.379   1.821 -2.5852 -1.6739  3.1865
   40MOL0     H 5397   1.966   7.089   1.305  2.5848 -1.2144 -0.3263
   40MOL0     H 5398   1.857   6.914   1.163  0.1505 -1.9159 -1.7528
   40MOL0     H 5399   1.745   7.043   1.096 -0.6031 -3.0993 -0.0559
   40MOL0     H 5400   1.839   6.935   1.001  0.2386 -0.0706 -0.4781
   41MOL0     O 5401   0.126   2.353  10.327  0.6968  0.0372 -0.3135
   41MOL0     C 5402   0.083   2.463  10.360  0.2178  0.7375  0.0205
   41MOL0     O 5403   0.153   2.545  10.449 -0.3070  0.4427 -0.6499
   41MOL0     C 5404   0.274   2.507  10.509 -0.4044 -0.1376 -0.2125
   41MOL0     C 5405   0.357   2.614  10.535 -0.2503 -0.7433 -0.1336
   41MOL0     C 5406   0.484   2.589  10.592  0.2931 -0.6872 -0.1571
   41MOL0     C 5407   0.541   2.462  10.607  0.0939  0.1717  0.3852
   41MOL0     O 5408   0.676   2.455  10.650  0.5014  0.1176  0.6584
   41MOL0     C 5409   0.726   2.327  10.702 -0.3970 -0.4102  0.2546
   41MOL0     C 5410   0.864   2.354  10.748 -0.1314 -0.4752  1.0311
   41MOL0     C 5411   0.975   2.393  10.639  0.6973 -0.7343 -0.3169
   41MOL0     C 5412   0.980   2.292  10.525  0.0642  0.2186  0.0666
   41MOL0     C 5413   1.070   2.342  10.424  0.2321 -0.3042 -0.8235
   41MOL0     C 5414   1.203   2.406  10.473  0.6551  0.6735 -0.3989
   41MOL0     C 5415   1.296   2.302  10.547 -0.5152  0.0203 -1.2206
   41MOL0     C 5416   1.422   2.369  10.605  0.7674 -0.8188 -0.5592
   41MOL0     N 5417   1.462   2.309  10.735 -0.3130 -0.5470 -0.3566
   41MOL0     C 5418   1.543   2.201  10.746 -0.0872 -0.1237 -0.2046
   41MOL0     C 5419   1.561   2.188  10.881 -0.4165 -0.0700  0.8061
   41MOL0     C 5420   1.642   2.072  10.924  0.3917 -0.6124 -0.2885
   41MOL0     C 5421   1.785   2.069  10.867  0.5210  0.1556 -0.4275
   41MOL0     C 5422   1.862   1.971  10.947  0.8459 -0.0571 -0.0993
   41MOL0     C 5423   2.000   1.951  10.889  0.3835  0.0506 -0.2918
   41MOL0     O 5424   2.071   1.852  10.962 -0.2092  0.4772 -0.1603
   41MOL0     C 5425   2.208   1.850  10.963 -0.0165 -0.2700 -0.1167
   41MOL0     C 5426   2.284   1.841  10.855  0.5272 -0.7916  0.0119
   41MOL0     C 5427   2.421   1.870  10.859 -0.5795  0.2729 -0.6705
   41MOL0     C 5428   2.480   1.915  10.983  0.2234  0.1709 -0.1411
   41MOL0     C 5429   2.624   1.956  10.996 -0.7129 -0.4355 -0.1373
   41MOL0     O 5430   2.685   1.970  10.871 -0.7954 -0.2410 -0.7734
   41MOL0     C 5431   2.814   2.018  10.869  0.5690  0.5414 -0.1773
   41MOL0     C 5432   2.911   1.947  10.803 -0.4741  0.6404  0.3180
   41MOL0     C 5433   3.034   2.007  10.786 -0.2516 -0.1673 -0.5049
   41MOL0     C 5434   3.067   2.130  10.841 -0.0235 -0.0775 -0.4042
   41MOL0     O 5435   3.186   2.192  10.821 -0.3271 -0.3408  0.1124
   41MOL0     C 5436   3.295   2.121  10.764  0.2168  0.1458  0.2170
   41MOL0     C 5437   3.434   2.180  10.787 -0.7053 -0.8841  0.0507
   41MOL0     C 5438   3.461   2.183  10.941  0.3242 -0.7092  0.2722
   41MOL0     C 5439   3.580   2.273  10.969  0.3722  0.1166 -0.0699
   41MOL0     C 5440   3.596   2.314  11.118 -0.4821  0.6446  0.1571
   41MOL0     C 5441   3.724   2.398  11.146 -0.3503  0.1117  0.8515
   41MOL0     C 5442   3.692   2.549  11.121 -1.4298  0.1361 -0.2719
   41MOL0     C 5443   3.818   2.638  11.128 -0.2878 -0.8108  0.8156
   41MOL0    Cl 5444   3.893   2.640  11.297 -0.5213 -0.2383  0.1754
   41MOL0     C 5445   2.966   2.204  10.903 -0.1581 -0.3530 -0.2374
   41MOL0     C 5446   2.842   2.148  10.926 -0.6113  0.0378 -0.2724
   41MOL0     O 5447   2.672   1.977  11.107  0.2860 -0.6832  0.6334
   41MOL0     C 5448   2.395   1.915  11.097 -0.9687  0.4734 -0.4100
   41MOL0     C 5449   2.263   1.882  11.088  0.0495 -0.4809 -0.8933
   41MOL0     N 5450   1.487   2.281  10.942 -0.1071 -1.0384  0.6759
   41MOL0     N 5451   1.426   2.353  10.858 -0.1062  0.1010  0.6011
   41MOL0     C 5452   0.453   2.359  10.598  0.2710  0.1237  0.5795
   41MOL0     C 5453   0.320   2.378  10.542  0.3305 -0.5505 -0.7007
   41MOL0     C 5454  -0.021   2.520  10.285  0.0754  0.5034  0.9448
   41MOL0     C 5455  -0.014   2.659  10.258  0.3311  0.4292 -0.0680
   41MOL0     C 5456  -0.121   2.724  10.190 -0.4294  0.2841  0.2131
   41MOL0     C 5457  -0.237   2.651  10.166 -0.6552  0.5656 -0.4565
   41MOL0     O 5458  -0.346   2.694  10.097 -0.0780 -1.7165 -0.3024
   41MOL0     C 5459  -0.335   2.826  10.042 -0.7026  0.1741 -0.6422
   41MOL0     C 5460  -0.448   2.879   9.953  0.0682  0.5922  0.4703
   41MOL0     C 5461  -0.582   2.852  10.015 -0.6450  0.1140 -0.3093
   41MOL0     C 5462  -0.602   2.879  10.166  0.2949 -0.1800  0.3534
   41MOL0     C 5463  -0.560   3.017  10.189 -0.2121 -0.5225  0.1129
   41MOL0     C 5464  -0.538   3.125  10.216  0.5336  0.2220 -0.2351
   41MOL0     C 5465  -0.245   2.518  10.214 -0.0284  0.6489 -0.4525
   41MOL0     C 5466  -0.142   2.447  10.269 -0.4510 -0.7921 -0.4049
   41MOL0     C 5467  -0.161   2.300  10.303  0.4116  0.5907 -0.4513
   41MOL0     H 5468   0.307   2.709  10.522 -0.1805 -0.0180  3.7945
   41MOL0     H 5469   0.541   2.678  10.619 -1.8618  1.0326 -0.9546
   41MOL0     H 5470   0.661   2.301  10.787  0.9108 -0.6833  1.2072
   41MOL0     H 5471   0.728   2.248  10.626 -0.4898 -0.1354 -0.0354
   41MOL0     H 5472   0.899   2.274  10.813 -0.1608  0.3615  2.1161
   41MOL0     H 5473   0.850   2.446  10.806  1.5021  1.0615 -0.8860
   41MOL0     H 5474   1.068   2.423  10.687 -0.6418  2.0607  0.7414
   41MOL0     H 5475   0.938   2.486  10.594 -0.4321 -0.5819  0.8692
   41MOL0     H 5476   1.023   2.205  10.576  0.3676  0.9861  1.1745
   41MOL0     H 5477   0.880   2.286  10.482  0.0995 -2.2443  0.1546
   41MOL0     H 5478   1.090   2.255  10.359 -0.1225  0.7437 -2.3990
   41MOL0     H 5479   1.015   2.410  10.359  0.8268 -0.6297 -1.6948
   41MOL0     H 5480   1.249   2.447  10.382  1.0652  0.7320 -0.1694
   41MOL0     H 5481   1.189   2.495  10.535 -0.9409 -1.4183  2.4854
   41MOL0     H 5482   1.335   2.234  10.471 -0.6670  0.2458 -1.4990
   41MOL0     H 5483   1.244   2.239  10.620 -0.2643 -0.7858 -1.7240
   41MOL0     H 5484   1.496   2.352  10.526 -0.9931 -1.8186 -2.0661
   41MOL0     H 5485   1.410   2.477  10.616  0.9610 -0.1978 -4.7891
   41MOL0     H 5486   1.596   2.138  10.675  0.4174  0.4071 -0.3014
   41MOL0     H 5487   1.646   2.091  11.032 -1.8605  3.2773 -0.7048
   41MOL0     H 5488   1.574   1.987  10.912 -1.9740  0.9090  1.6232
   41MOL0     H 5489   1.778   2.045  10.761 -1.9876  2.8343 -1.0042
   41MOL0     H 5490   1.834   2.165  10.884 -2.3197  2.1016 -2.3285
   41MOL0     H 5491   1.816   1.872  10.941  0.5911  0.1477 -2.1266
   41MOL0     H 5492   1.868   2.008  11.050 -1.3816  2.4280 -0.7515
   41MOL0     H 5493   2.047   2.049  10.903 -1.0925  0.7663 -0.1728
   41MOL0     H 5494   2.004   1.933  10.782 -1.3474 -0.3069 -0.3331
   41MOL0     H 5495   2.238   1.823  10.758 -0.1347 -3.5645  0.7419
   41MOL0     H 5496   2.475   1.864  10.764 -2.2123 -2.6909 -1.5463
   41MOL0     H 5497   2.887   1.853  10.754  3.7231 -1.2373  1.3993
   41MOL0     H 5498   3.108   1.953  10.728  1.0176  0.0052  0.8966
   41MOL0     H 5499   3.305   2.015  10.789  0.4779  0.0432 -0.3096
   41MOL0     H 5500   3.286   2.111  10.656 -0.5858 -0.0622  0.2974
   41MOL0     H 5501   3.512   2.125  10.734  1.6055  0.1364  2.1941
   41MOL0     H 5502   3.437   2.282  10.748  2.3180 -0.0880  1.9945
   41MOL0     H 5503   3.384   2.226  11.005  0.0446 -1.3099  0.3416
   41MOL0     H 5504   3.479   2.084  10.983  1.6489 -1.3856 -1.7257
   41MOL0     H 5505   3.577   2.363  10.906  0.9881 -0.3746 -0.8073
   41MOL0     H 5506   3.657   2.209  10.926  0.5640  1.1450 -1.3221
   41MOL0     H 5507   3.608   2.215  11.164  0.1884  0.1139 -1.0816
   41MOL0     H 5508   3.510   2.362  11.164 -0.0080  3.1681 -1.3989
   41MOL0     H 5509   3.754   2.382  11.250  0.4726  0.1825  0.6334
   41MOL0     H 5510   3.801   2.361  11.078 -3.1874 -1.8482 -1.5941
   41MOL0     H 5511   3.612   2.578  11.189 -2.4172 -0.2001 -1.2650
   41MOL0     H 5512   3.650   2.571  11.022 -2.2194  3.4232  0.6720
   41MOL0     H 5513   3.893   2.598  11.059  0.0652 -3.4785  2.6001
   41MOL0     H 5514   3.799   2.740  11.093 -0.5609 -0.0261  3.0715
   41MOL0     H 5515   2.988   2.306  10.935 -0.6397  0.1931 -1.5763
   41MOL0     H 5516   2.778   2.207  10.989  1.2390  0.4737  1.2963
   41MOL0     H 5517   2.441   1.934  11.193 -0.1180 -1.7366 -0.3179
   41MOL0     H 5518   2.208   1.880  11.181 -0.6501 -0.9980 -1.3086
   41MOL0     H 5519   0.488   2.261  10.630 -0.4970 -0.0743  0.8500
   41MOL0     H 5520   0.248   2.298  10.524 -0.8221  0.3374 -0.1199
   41MOL0     H 5521   0.076   2.717  10.273 -1.5599  3.6583 -0.1982
   41MOL0     H 5522  -0.091   2.827  10.173  0.3393 -0.1775 -1.5021
   41MOL0     H 5523  -0.247   2.812   9.977 -1.1394 -0.6049 -1.0811
   41MOL0     H 5524  -0.311   2.905  10.114  0.4576  2.0459 -2.9309
   41MOL0     H 5525  -0.447   2.839   9.851 -2.6835  0.1598  0.5321
   41MOL0     H 5526  -0.423   2.985   9.940  0.4873  0.6979  1.9952
   41MOL0     H 5527  -0.622   2.750  10.013  0.8658 -0.6306  2.2343
   41MOL0     H 5528  -0.650   2.916   9.959 -0.9299 -1.7453 -2.1979
   41MOL0     H 5529  -0.711   2.876  10.175  0.2660  0.6421  0.2995
   41MOL0     H 5530  -0.550   2.799  10.221  1.3261 -0.2056 -0.6022
   41MOL0     H 5531  -0.516   3.224  10.251 -1.1944 -0.4333  3.1096
   41MOL0     H 5532  -0.335   2.465  10.184  0.2308 -1.2311  1.7446
   41MOL0     H 5533  -0.102   2.226  10.249 -1.0523  0.1839 -1.5619
   41MOL0     H 5534  -0.158   2.286  10.411 -1.2159 -1.0139 -0.5770
   41MOL0     H 5535  -0.266   2.275  10.284  0.8257 -2.9934  1.1480
   42MOL0     O 5536   6.410   0.123   7.435 -0.0797 -0.8681 -0.1446
   42MOL0     C 5537   6.318   0.152   7.510 -0.0398  0.2659 -0.5132
   42MOL0     O 5538   6.194   0.161   7.474  0.3026 -0.1678  0.5983
   42MOL0     C 5539   6.161   0.143   7.339 -0.1758  0.5291 -0.0545
   42MOL0     C 5540   6.172   0.247   7.249  0.2737 -0.3423  0.5218
   42MOL0     C 5541   6.145   0.223   7.112 -0.2958 -0.0420  0.1205
   42MOL0     C 5542   6.092   0.098   7.069  0.1794 -0.5650 -0.2626
   42MOL0     O 5543   6.047   0.077   6.942 -0.9596 -0.0978  0.9220
   42MOL0     C 5544   6.113   0.148   6.831 -0.1582  0.4019  0.2997
   42MOL0     C 5545   6.085   0.080   6.696 -0.1625 -1.2586 -0.0562
   42MOL0     C 5546   5.939   0.049   6.671  0.5468 -0.2700 -0.0133
   42MOL0     C 5547   5.838   0.175   6.681  0.4614 -0.3397 -0.4803
   42MOL0     C 5548   5.694   0.120   6.624 -0.3275  0.2974 -0.8554
   42MOL0     C 5549   5.580   0.221   6.626  0.2982  0.4225 -0.9458
   42MOL0     C 5550   5.451   0.176   6.554  0.5845 -0.4869 -0.3392
   42MOL0     C 5551   5.379   0.062   6.636 -0.3248  0.5109 -1.2380
   42MOL0     N 5552   5.357   0.096   6.775  0.6363  0.9040 -0.9170
   42MOL0     C 5553   5.401   0.018   6.886  0.2502  0.4733 -0.3256
   42MOL0     C 5554   5.380   0.093   6.995  0.6429  0.4975  0.9175
   42MOL0     C 5555   5.430   0.071   7.134  0.3606 -0.4524 -0.5087
   42MOL0     C 5556   5.525   0.177   7.170  0.0337 -0.3436  0.0262
   42MOL0     C 5557   5.668   0.139   7.134 -0.5179  0.7712 -0.3474
   42MOL0     C 5558   5.763   0.243   7.168  0.2513 -1.0288 -0.4413
   42MOL0     O 5559   5.722   0.370   7.118  0.1734  0.3811 -0.5513
   42MOL0     C 5560   5.825   0.460   7.101  0.4351 -0.0727  0.1138
   42MOL0     C 5561   5.883   0.486   6.982 -0.4668 -0.0845  1.4927
   42MOL0     C 5562   5.992   0.577   6.962  1.1189  0.2479 -0.0136
   42MOL0     C 5563   6.047   0.633   7.079 -0.2123  0.3689 -0.5161
   42MOL0     C 5564   6.177   0.707   7.069  0.2914  0.2237  0.0119
   42MOL0     O 5565   6.277   0.661   7.148  0.3063 -1.1241  0.4276
   42MOL0     C 5566   6.404   0.699   7.114  0.5527 -0.0029 -0.5364
   42MOL0     C 5567   6.439   0.828   7.124  0.7371 -0.1289 -0.5332
   42MOL0     C 5568   6.566   0.865   7.091 -0.4441 -0.3620 -0.5521
   42MOL0     C 5569   6.665   0.776   7.045 -0.1836  0.5560 -0.0182
   42MOL0     O 5570   6.789   0.824   7.015 -0.5163  0.0014  0.2842
   42MOL0     C 5571   6.898   0.732   7.010  0.3041 -0.2054  0.5721
   42MOL0     C 5572   7.025   0.804   6.950  0.7414  0.3539 -0.1640
   42MOL0     C 5573   7.067   0.918   7.049  0.0562  0.3187 -0.5060
   42MOL0     C 5574   7.204   0.893   7.101  0.7816  0.7085  0.2524
   42MOL0     C 5575   7.309   0.882   6.993  0.2581 -0.5722 -0.5356
   42MOL0     C 5576   7.458   0.878   7.053 -0.1446 -0.5957  0.0348
   42MOL0     C 5577   7.565   0.914   6.947 -0.7314  0.1406 -0.1131
   42MOL0     C 5578   7.700   0.858   6.981 -0.2089 -0.0727  0.4114
   42MOL0    Cl 5579   7.823   0.961   6.897  0.1605  0.0519  0.3405
   42MOL0     C 5580   6.628   0.638   7.039 -0.4013  0.2960 -0.3591
   42MOL0     C 5581   6.492   0.604   7.076 -0.9968  0.3796  0.4670
   42MOL0     O 5582   6.184   0.781   6.973  0.0442 -0.9490  0.5988
   42MOL0     C 5583   5.995   0.597   7.211  0.4093  0.4313  0.4346
   42MOL0     C 5584   5.889   0.502   7.216  0.3497 -0.6152  0.8604
   42MOL0     N 5585   5.319   0.206   6.946  0.4470 -0.6057  0.0139
   42MOL0     N 5586   5.308   0.211   6.822 -0.5724  0.5263  0.5472
   42MOL0     C 5587   6.073  -0.000   7.160  0.8947  0.6236  0.5207
   42MOL0     C 5588   6.112   0.018   7.292 -0.2463 -0.0490 -0.8455
   42MOL0     C 5589   6.348   0.154   7.654 -0.9042 -0.0026  0.8461
   42MOL0     C 5590   6.237   0.192   7.737  1.1870  0.7693 -0.4160
   42MOL0     C 5591   6.256   0.185   7.879 -0.6292  0.2805 -0.0379
   42MOL0     C 5592   6.374   0.138   7.939 -1.0462 -0.0113 -0.2622
   42MOL0     O 5593   6.370   0.131   8.076 -0.2684  0.2202 -0.0615
   42MOL0     C 5594   6.482   0.079   8.150  0.7260  0.0890  0.5075
   42MOL0     C 5595   6.577   0.189   8.170  0.5312 -0.5467 -0.4550
   42MOL0     C 5596   6.516   0.328   8.202  0.2945  0.0748  0.1003
   42MOL0     C 5597   6.486   0.316   8.349  0.8336  0.0437 -1.3185
   42MOL0     C 5598   6.451   0.451   8.394  0.3732  0.3370  0.3403
   42MOL0     C 5599   6.444   0.565   8.437 -0.1683 -0.2702  0.5403
   42MOL0     C 5600   6.471   0.101   7.852 -0.2653  0.1621 -0.0166
   42MOL0     C 5601   6.473   0.114   7.714  0.5863  0.3411  1.0271
   42MOL0     C 5602   6.601   0.093   7.644  1.3335 -0.8437  0.2259
   42MOL0     H 5603   6.217   0.340   7.282 -1.8440  0.9771 -0.0653
   42MOL0     H 5604   6.183   0.300   7.046 -2.9399  2.5125  1.3513
   42MOL0     H 5605   6.065   0.246   6.828 -0.0434  0.4357 -0.9452
   42MOL0     H 5606   6.220   0.167   6.846 -0.4243  0.4738  2.4681
   42MOL0     H 5607   6.135  -0.017   6.697 -0.0553 -1.2091  1.2108
   42MOL0     H 5608   6.131   0.134   6.613 -2.9564 -0.2884 -1.0972
   42MOL0     H 5609   5.913  -0.033   6.738  2.3589 -2.7568 -2.1638
   42MOL0     H 5610   5.936   0.012   6.569  0.6780  0.2977 -0.2302
   42MOL0     H 5611   5.820   0.209   6.783  1.1700  0.1462 -0.5152
   42MOL0     H 5612   5.886   0.248   6.616 -0.8731 -3.5573 -5.7046
   42MOL0     H 5613   5.712   0.089   6.521  0.1639  0.4088 -0.8051
   42MOL0     H 5614   5.654   0.038   6.684 -0.1356  0.1552 -0.9204
   42MOL0     H 5615   5.570   0.245   6.732  0.1401 -1.7991 -0.4138
   42MOL0     H 5616   5.612   0.306   6.565  2.0611 -1.8822 -3.4571
   42MOL0     H 5617   5.475   0.127   6.459 -2.0045 -2.6036 -0.0128
   42MOL0     H 5618   5.385   0.263   6.547  0.4177 -0.7417 -3.2084
   42MOL0     H 5619   5.282   0.047   6.587 -0.9973 -0.1064  0.2087
   42MOL0     H 5620   5.445  -0.025   6.631  0.7770  0.7798  3.6511
   42MOL0     H 5621   5.446  -0.081   6.892 -0.1631  0.3615  1.5890
   42MOL0     H 5622   5.343   0.062   7.200  0.0064 -0.3940 -0.9623
   42MOL0     H 5623   5.478  -0.026   7.151  2.3326  0.2388 -1.7231
   42MOL0     H 5624   5.483   0.268   7.125 -0.6714 -0.4593  0.4413
   42MOL0     H 5625   5.524   0.192   7.278  1.2890  1.2997 -0.1549
   42MOL0     H 5626   5.661   0.128   7.025  2.5418 -0.1553 -0.5547
   42MOL0     H 5627   5.697   0.047   7.186  0.4335  1.5815  0.6021
   42MOL0     H 5628   5.855   0.204   7.124  1.3339 -1.4168  1.9647
   42MOL0     H 5629   5.789   0.261   7.273 -1.5198  2.3938 -0.4650
   42MOL0     H 5630   5.843   0.431   6.897  3.9359  2.7294 -2.9266
   42MOL0     H 5631   6.035   0.600   6.865  1.2859  0.8674  0.2020
   42MOL0     H 5632   6.370   0.905   7.156  0.5059 -1.9431  3.9945
   42MOL0     H 5633   6.585   0.971   7.105  1.8882 -0.7633 -0.3502
   42MOL0     H 5634   6.931   0.693   7.107  2.6174  1.8178  0.7031
   42MOL0     H 5635   6.878   0.660   6.930 -1.6921  0.0877  0.7478
   42MOL0     H 5636   7.097   0.725   6.928 -2.4033 -3.0869  0.8741
   42MOL0     H 5637   7.000   0.864   6.862 -3.2605  0.7921  1.0590
   42MOL0     H 5638   7.064   1.014   6.997  0.3131  0.4069 -0.3579
   42MOL0     H 5639   6.999   0.914   7.134  0.8657 -0.7599  0.1211
   42MOL0     H 5640   7.200   0.799   7.156  1.2608  0.0999 -0.7191
   42MOL0     H 5641   7.228   0.969   7.175 -2.2555  4.2610 -2.0572
   42MOL0     H 5642   7.299   0.971   6.931  0.5737 -2.0213 -2.7788
   42MOL0     H 5643   7.295   0.799   6.924  0.5379 -0.7790 -0.3473
   42MOL0     H 5644   7.463   0.959   7.127  3.0533  0.3809 -1.0922
   42MOL0     H 5645   7.480   0.786   7.107 -1.2020 -0.3202  0.9784
   42MOL0     H 5646   7.586   1.021   6.944  0.2928 -0.0632 -1.3994
   42MOL0     H 5647   7.550   0.876   6.845 -1.0723  0.4026 -0.1596
   42MOL0     H 5648   7.714   0.880   7.087 -0.1059  3.3595 -0.1928
   42MOL0     H 5649   7.717   0.755   6.948 -2.2991 -0.6132  0.8738
   42MOL0     H 5650   6.690   0.558   7.002 -2.3929 -0.6054 -1.9271
   42MOL0     H 5651   6.459   0.501   7.063  0.7321  0.0948 -2.6369
   42MOL0     H 5652   6.040   0.640   7.299  0.5454 -0.2114  0.6829
   42MOL0     H 5653   5.851   0.480   7.315 -0.5088 -0.6358  0.5299
   42MOL0     H 5654   6.054  -0.097   7.114  0.1808  0.2353  1.6148
   42MOL0     H 5655   6.106  -0.065   7.362  2.0990  0.3421 -0.0715
   42MOL0     H 5656   6.149   0.249   7.708  1.2478  2.3962  2.2050
   42MOL0     H 5657   6.169   0.219   7.934  0.5024 -0.2699  2.1874
   42MOL0     H 5658   6.521  -0.005   8.093 -0.7143 -0.1460 -0.1727
   42MOL0     H 5659   6.450   0.044   8.248  1.8497  0.1246  0.9031
   42MOL0     H 5660   6.636   0.185   8.077  0.0115 -0.5607 -0.7839
   42MOL0     H 5661   6.651   0.153   8.242 -0.6249 -0.2632  0.9106
   42MOL0     H 5662   6.436   0.363   8.137 -0.7101  0.9709  1.7629
   42MOL0     H 5663   6.591   0.406   8.189 -1.1464  1.2807 -1.4288
   42MOL0     H 5664   6.394   0.259   8.366  1.0212  0.4511  1.5233
   42MOL0     H 5665   6.570   0.275   8.406  0.8609 -0.8516 -1.9813
   42MOL0     H 5666   6.438   0.666   8.473 -0.6039  0.9512 -2.6310
   42MOL0     H 5667   6.554   0.050   7.900  1.0025  0.8238 -1.4142
   42MOL0     H 5668   6.692   0.114   7.702  1.6450  0.6129 -0.7211
   42MOL0     H 5669   6.611  -0.004   7.595  1.7584 -0.3770 -0.6405
   42MOL0     H 5670   6.602   0.169   7.565 -1.2254 -1.6812 -0.6803
   43MOL0     O 5671   3.212   3.206   6.975  0.6791  0.0041 -0.2782
   43MOL0     C 5672   3.133   3.196   6.887 -0.0773 -0.1023 -0.1237
   43MOL0     O 5673   3.110   3.298   6.798 -0.4685  0.9744  0.7642
   43MOL0     C 5674   3.146   3.421   6.828 -0.9437 -0.1465 -0.1793
   43MOL0     C 5675   3.239   3.464   6.743 -0.6967 -0.5098  0.3952
   43MOL0     C 5676   3.302   3.589   6.790  0.2330 -0.1243  0.1244
   43MOL0     C 5677   3.271   3.652   6.917  1.4938  1.6530  0.8610
   43MOL0     O 5678   3.322   3.774   6.941 -0.4762 -0.5205 -0.9209
   43MOL0     C 5679   3.299   3.844   7.059  0.2237 -0.0625 -0.1545
   43MOL0     C 5680   3.404   3.948   7.082  0.2664 -0.5790 -0.9424
   43MOL0     C 5681   3.541   3.896   7.145 -0.6236 -0.0509  0.3242
   43MOL0     C 5682   3.627   3.998   7.211 -0.1177 -0.4884  0.6882
   43MOL0     C 5683   3.667   4.106   7.114  0.7565  0.2039  0.6647
   43MOL0     C 5684   3.739   4.222   7.181 -0.7766  0.2093 -0.4646
   43MOL0     C 5685   3.644   4.333   7.216  1.5007 -0.1085  0.2969
   43MOL0     C 5686   3.673   4.414   7.337  0.0649 -0.0110  0.3709
   43MOL0     N 5687   3.605   4.545   7.344  0.0774 -0.1962  0.0796
   43MOL0     C 5688   3.469   4.556   7.344  0.5400  0.8212  0.3234
   43MOL0     C 5689   3.450   4.686   7.337  1.2905 -1.3204  0.5348
   43MOL0     C 5690   3.313   4.747   7.333  0.5840  0.3277 -0.1736
   43MOL0     C 5691   3.302   4.871   7.246 -0.2299  0.5938 -0.3550
   43MOL0     C 5692   3.283   4.835   7.105 -0.5702 -0.5623 -1.2604
   43MOL0     C 5693   3.138   4.772   7.079 -0.4188  0.4801  0.7046
   43MOL0     O 5694   3.118   4.626   7.111  0.6985  1.3670 -0.5717
   43MOL0     C 5695   2.994   4.580   7.149 -0.0651  1.0271  0.9718
   43MOL0     C 5696   2.870   4.649   7.148  0.1897 -0.7985  0.3175
   43MOL0     C 5697   2.755   4.573   7.178  0.2552 -0.2010  0.1815
   43MOL0     C 5698   2.757   4.443   7.210  0.0498 -1.0138 -0.1468
   43MOL0     C 5699   2.626   4.388   7.253 -0.6185  0.0608  0.5028
   43MOL0     O 5700   2.506   4.459   7.249 -0.0463  0.3224  0.2843
   43MOL0     C 5701   2.391   4.386   7.264 -0.0183  0.8633 -0.6471
   43MOL0     C 5702   2.318   4.385   7.384 -0.5709  0.9521 -0.1225
   43MOL0     C 5703   2.199   4.315   7.394  0.0091 -0.0285 -0.2065
   43MOL0     C 5704   2.149   4.256   7.273  0.5029  0.7611  0.2371
   43MOL0     O 5705   2.021   4.191   7.279  0.4640 -0.1403  0.2109
   43MOL0     C 5706   1.987   4.107   7.387 -0.1851 -1.3504  1.3165
   43MOL0     C 5707   1.840   4.060   7.353 -0.0305  0.3588 -0.1667
   43MOL0     C 5708   1.845   3.986   7.213  0.3247  0.1639 -0.1976
   43MOL0     C 5709   1.758   3.862   7.194 -0.1607 -0.5624  0.0844
   43MOL0     C 5710   1.774   3.818   7.043 -0.2103 -0.0546  0.3618
   43MOL0     C 5711   1.868   3.706   7.022 -0.6994 -0.4562  0.6161
   43MOL0     C 5712   1.875   3.675   6.877 -0.7249  0.0773  0.4409
   43MOL0     C 5713   2.026   3.678   6.831 -0.0239  0.2843  0.3848
   43MOL0    Cl 5714   2.097   3.843   6.843  0.0354  0.1976 -0.0722
   43MOL0     C 5715   2.219   4.257   7.153 -1.0715  0.1155  0.8595
   43MOL0     C 5716   2.346   4.322   7.147 -0.2973 -0.0160 -0.0893
   43MOL0     O 5717   2.639   4.273   7.291 -0.4412  0.3447  1.6356
   43MOL0     C 5718   2.885   4.379   7.211  0.0055  0.6776  0.0964
   43MOL0     C 5719   3.001   4.449   7.179  2.0604  0.0202 -0.0660
   43MOL0     N 5720   3.568   4.752   7.355 -1.0459 -0.4041  0.5194
   43MOL0     N 5721   3.665   4.670   7.361 -0.2544 -0.1103  0.9157
   43MOL0     C 5722   3.168   3.596   6.986  1.4815 -0.3265  0.3114
   43MOL0     C 5723   3.100   3.485   6.940 -0.1777  0.5842  0.6771
   43MOL0     C 5724   3.060   3.066   6.855  0.4638 -0.6503 -0.7306
   43MOL0     C 5725   3.130   2.955   6.902 -0.3955  0.1400 -0.2758
   43MOL0     C 5726   3.086   2.831   6.882 -0.2219 -0.1516 -0.9927
   43MOL0     C 5727   2.964   2.804   6.821 -0.2876  0.2751 -0.5937
   43MOL0     O 5728   2.927   2.677   6.798  0.4328 -0.0767  0.6829
   43MOL0     C 5729   2.945   2.573   6.900  0.1902 -0.2011  0.8155
   43MOL0     C 5730   2.919   2.428   6.851 -0.7633  0.1747  0.5994
   43MOL0     C 5731   2.998   2.397   6.721 -0.2261 -0.8596 -0.1274
   43MOL0     C 5732   2.946   2.276   6.634  0.2815 -0.2851  0.0181
   43MOL0     C 5733   2.975   2.145   6.689 -0.5133  0.6828  0.1782
   43MOL0     C 5734   2.992   2.028   6.739  0.6067 -0.2754 -0.0081
   43MOL0     C 5735   2.884   2.915   6.788  1.3477  0.1252  0.0795
   43MOL0     C 5736   2.931   3.040   6.802 -0.2346 -0.5327  0.4857
   43MOL0     C 5737   2.834   3.150   6.803 -0.1594 -1.2549 -0.0067
   43MOL0     H 5738   3.257   3.406   6.653  2.5694 -1.2756  1.3998
   43MOL0     H 5739   3.366   3.643   6.721 -0.0808 -1.7696 -1.5265
   43MOL0     H 5740   3.210   3.907   7.060  0.9015  0.9132  0.3702
   43MOL0     H 5741   3.285   3.769   7.138 -0.0422  0.1657  0.0193
   43MOL0     H 5742   3.366   4.029   7.145  2.2920  0.1224 -0.5379
   43MOL0     H 5743   3.413   3.996   6.984 -0.5076  0.7138 -0.4143
   43MOL0     H 5744   3.597   3.874   7.054 -0.7434 -0.0206  0.2420
   43MOL0     H 5745   3.522   3.809   7.208 -0.4761 -1.0328 -0.9473
   43MOL0     H 5746   3.575   4.049   7.292 -0.5360 -1.9807  1.3769
   43MOL0     H 5747   3.722   3.967   7.256  0.1013  1.0693  1.3608
   43MOL0     H 5748   3.729   4.070   7.032 -1.4910 -2.5554 -0.0130
   43MOL0     H 5749   3.577   4.140   7.062  1.1172 -0.0813 -0.1676
   43MOL0     H 5750   3.782   4.180   7.272  0.5856 -0.8741 -1.5544
   43MOL0     H 5751   3.819   4.266   7.122  1.0086 -1.5599  0.5212
   43MOL0     H 5752   3.546   4.284   7.226  1.3414 -0.1052 -1.0924
   43MOL0     H 5753   3.635   4.401   7.131  2.0191 -0.2381  0.1328
   43MOL0     H 5754   3.648   4.347   7.420  1.7433 -3.1204 -1.4496
   43MOL0     H 5755   3.780   4.436   7.349 -0.4442  2.1027  1.7124
   43MOL0     H 5756   3.396   4.476   7.341 -0.6986  1.9370 -0.5189
   43MOL0     H 5757   3.232   4.679   7.306  1.2633  0.1410 -1.8528
   43MOL0     H 5758   3.307   4.772   7.440  3.7717 -1.6903  0.6188
   43MOL0     H 5759   3.224   4.939   7.282  2.4904  2.7021  2.0902
   43MOL0     H 5760   3.394   4.930   7.248 -1.4819  2.7180  3.2374
   43MOL0     H 5761   3.361   4.768   7.066  1.5026  0.2889  1.1703
   43MOL0     H 5762   3.290   4.931   7.054  0.6181 -0.5082 -1.0278
   43MOL0     H 5763   3.113   4.784   6.973  2.3860 -1.8478 -0.3464
   43MOL0     H 5764   3.071   4.833   7.141  2.3197  3.0598  1.3867
   43MOL0     H 5765   2.870   4.755   7.127 -1.6371 -1.1130 -1.5953
   43MOL0     H 5766   2.663   4.628   7.159 -1.1346 -2.3763  0.3222
   43MOL0     H 5767   2.344   4.446   7.470  1.3437  1.7589 -1.2063
   43MOL0     H 5768   2.148   4.314   7.489 -0.8616 -0.0167 -0.6589
   43MOL0     H 5769   2.062   4.028   7.400  1.1322  0.0719  2.8217
   43MOL0     H 5770   1.978   4.153   7.486  0.7970  0.1788  0.7428
   43MOL0     H 5771   1.808   3.993   7.434  1.3845  2.1826  2.0384
   43MOL0     H 5772   1.760   4.135   7.356 -1.9169 -1.5414 -0.0682
   43MOL0     H 5773   1.824   4.067   7.143  3.6969  1.0076 -0.4374
   43MOL0     H 5774   1.951   3.966   7.192  0.3079 -2.2974  1.6514
   43MOL0     H 5775   1.655   3.894   7.210 -0.6637 -1.9227 -0.2679
   43MOL0     H 5776   1.793   3.796   7.274 -2.2939  0.3007  1.8087
   43MOL0     H 5777   1.810   3.900   6.981 -0.2765  0.2518  0.7261
   43MOL0     H 5778   1.677   3.788   7.000  0.1811  0.3609 -0.8387
   43MOL0     H 5779   1.969   3.735   7.050  0.9610 -1.0819 -3.9923
   43MOL0     H 5780   1.850   3.620   7.089 -2.9534  0.1390  0.8684
   43MOL0     H 5781   1.814   3.743   6.818  0.3516  1.5967  1.0285
   43MOL0     H 5782   1.838   3.573   6.861  0.3386 -0.6020  1.9947
   43MOL0     H 5783   2.077   3.596   6.881 -2.1878 -1.9019 -0.7940
   43MOL0     H 5784   2.038   3.639   6.729 -1.4316  0.9671 -0.0706
   43MOL0     H 5785   2.175   4.229   7.058  0.0364 -1.3390  0.7348
   43MOL0     H 5786   2.399   4.337   7.054  0.5070  0.1301  0.3807
   43MOL0     H 5787   2.887   4.275   7.242 -1.2847  0.3830 -0.7538
   43MOL0     H 5788   3.098   4.402   7.192  2.9276  2.3965  3.5957
   43MOL0     H 5789   3.132   3.636   7.081 -4.7825  0.9682 -2.0710
   43MOL0     H 5790   3.031   3.434   7.006 -0.9956 -0.7379 -1.1328
   43MOL0     H 5791   3.222   2.970   6.957 -1.0508  2.7770  0.2905
   43MOL0     H 5792   3.149   2.750   6.917 -1.1850 -0.2147  0.7210
   43MOL0     H 5793   2.882   2.584   6.988  3.2553  0.4453  3.0976
   43MOL0     H 5794   3.049   2.576   6.933  0.6539 -3.7988  0.0474
   43MOL0     H 5795   2.811   2.411   6.841 -0.4028 -1.1642 -1.9507
   43MOL0     H 5796   2.950   2.359   6.930 -3.7546 -1.2328  0.6720
   43MOL0     H 5797   3.101   2.372   6.746 -0.4347 -0.1583  1.5867
   43MOL0     H 5798   2.999   2.476   6.644 -1.7579 -0.6889 -0.0188
   43MOL0     H 5799   2.838   2.292   6.633  0.3716  1.0527 -3.4139
   43MOL0     H 5800   2.991   2.277   6.535  1.6606 -0.1685  0.6232
   43MOL0     H 5801   2.992   1.931   6.784 -1.0449 -1.2983 -2.0109
   43MOL0     H 5802   2.779   2.896   6.767  0.8438  0.6373  1.9617
   43MOL0     H 5803   2.734   3.118   6.773 -0.4478  1.7439 -2.7438
   43MOL0     H 5804   2.835   3.197   6.902  1.8320 -0.8394 -0.1932
   43MOL0     H 5805   2.866   3.233   6.740  0.0475 -1.0543  0.3609
   44MOL0     O 5806   1.680   6.938  10.421  1.0505  0.1272 -0.4675
   44MOL0     C 5807   1.671   6.846  10.503 -1.2393 -0.6515 -0.4945
   44MOL0     O 5808   1.695   6.718  10.471  0.4834 -0.7038 -0.1514
   44MOL0     C 5809   1.665   6.681  10.343 -0.4093 -0.4679  0.1919
   44MOL0     C 5810   1.538   6.708  10.283  0.5987 -1.1532  0.0330
   44MOL0     C 5811   1.497   6.675  10.154 -1.2030 -0.3851 -0.1420
   44MOL0     C 5812   1.575   6.590  10.089  0.2620 -0.0872  1.0289
   44MOL0     O 5813   1.540   6.561   9.959 -0.2819 -0.2635  0.0285
   44MOL0     C 5814   1.554   6.431   9.909 -0.4212 -0.1687  0.3360
   44MOL0     C 5815   1.422   6.403   9.849 -0.1699 -0.9855  0.2170
   44MOL0     C 5816   1.427   6.351   9.703  0.3058  0.5765 -1.0115
   44MOL0     C 5817   1.294   6.356   9.637  0.7523  1.5698  0.4416
   44MOL0     C 5818   1.283   6.301   9.491 -0.6752  0.4007 -0.0502
   44MOL0     C 5819   1.141   6.336   9.438 -0.0980  0.1177 -0.3632
   44MOL0     C 5820   1.108   6.269   9.304  0.3009 -0.6561 -0.2261
   44MOL0     C 5821   0.971   6.295   9.246  0.3842 -0.0827 -0.0819
   44MOL0     N 5822   0.947   6.219   9.113 -0.1723 -0.2560  0.0119
   44MOL0     C 5823   0.854   6.243   9.019 -0.4219 -0.3488  0.1575
   44MOL0     C 5824   0.833   6.135   8.935 -0.7598 -0.4549 -1.2170
   44MOL0     C 5825   0.746   6.118   8.819  0.0294  0.2277  0.4457
   44MOL0     C 5826   0.605   6.073   8.859 -0.3889  0.3705  0.1849
   44MOL0     C 5827   0.600   5.933   8.918 -0.4332  0.3958  0.4310
   44MOL0     C 5828   0.638   5.809   8.836  1.2821  0.4581  0.4908
   44MOL0     O 5829   0.561   5.810   8.711  0.0193 -0.5561 -1.1241
   44MOL0     C 5830   0.582   5.708   8.623 -0.0391 -0.5452 -0.0034
   44MOL0     C 5831   0.710   5.687   8.564  0.5300 -0.4524  0.1166
   44MOL0     C 5832   0.726   5.579   8.465 -0.0939 -0.3333  0.0304
   44MOL0     C 5833   0.621   5.497   8.430  0.5834 -0.3011  0.2959
   44MOL0     C 5834   0.633   5.386   8.343  1.2405  0.8737 -0.1832
   44MOL0     O 5835   0.756   5.316   8.335  0.1240 -0.4615  0.0774
   44MOL0     C 5836   0.779   5.216   8.238 -0.4472  0.3240  0.2333
   44MOL0     C 5837   0.775   5.251   8.101  0.2231  0.0011  0.9491
   44MOL0     C 5838   0.821   5.161   8.003  0.2680 -0.4488  0.7195
   44MOL0     C 5839   0.873   5.034   8.044 -0.6668 -0.2250 -0.0662
   44MOL0     O 5840   0.925   4.941   7.959  0.2576  0.8878 -0.4208
   44MOL0     C 5841   0.998   4.989   7.852  0.2240 -1.0300 -0.3291
   44MOL0     C 5842   1.079   4.884   7.792  0.0013 -0.6197  0.9782
   44MOL0     C 5843   1.073   4.899   7.636  0.2842 -0.9606 -0.5217
   44MOL0     C 5844   1.125   5.045   7.574 -0.6528  0.7146  0.0782
   44MOL0     C 5845   1.101   5.042   7.418 -0.1592 -0.2399 -0.0052
   44MOL0     C 5846   1.164   5.165   7.350 -0.0034  1.3542 -0.0646
   44MOL0     C 5847   1.172   5.141   7.201 -0.3122 -0.1746 -0.0496
   44MOL0     C 5848   1.204   5.277   7.127  0.4233  0.6014  0.5230
   44MOL0    Cl 5849   1.264   5.255   6.948 -0.1886 -0.1492  0.0965
   44MOL0     C 5850   0.857   4.999   8.180 -0.0452  0.4259 -0.1889
   44MOL0     C 5851   0.803   5.088   8.276 -0.5492  1.5971  0.3315
   44MOL0     O 5852   0.528   5.350   8.281 -0.9032 -0.5988 -0.6361
   44MOL0     C 5853   0.499   5.540   8.473  1.1807  0.1147 -1.1062
   44MOL0     C 5854   0.475   5.633   8.574  0.5673 -0.5819 -0.1891
   44MOL0     N 5855   0.934   6.042   8.983 -0.1879 -0.1108  0.1889
   44MOL0     N 5856   0.992   6.088   9.095  0.1587  0.0887  0.0916
   44MOL0     C 5857   1.700   6.558  10.136 -0.5784 -0.1069  0.3402
   44MOL0     C 5858   1.745   6.601  10.261  0.4447 -0.1397  0.1967
   44MOL0     C 5859   1.643   6.889  10.636  0.1370 -0.0929  0.5835
   44MOL0     C 5860   1.562   6.807  10.719 -0.6202 -0.3202 -0.5447
   44MOL0     C 5861   1.526   6.844  10.855 -0.1247  0.1655  0.7574
   44MOL0     C 5862   1.586   6.962  10.913  0.7834 -0.7089  0.1035
   44MOL0     O 5863   1.576   7.011  11.043  0.4728 -0.4274  0.3120
   44MOL0     C 5864   1.485   6.958  11.148  0.1777  0.1328  0.7124
   44MOL0     C 5865   1.336   6.974  11.113 -0.8744  0.6425  0.1092
   44MOL0     C 5866   1.308   7.118  11.070  0.0466 -0.5774  0.0739
   44MOL0     C 5867   1.188   7.189  11.136 -0.3224 -0.4393 -0.1172
   44MOL0     C 5868   1.143   7.310  11.060  0.0961 -1.0744  0.2656
   44MOL0     C 5869   1.106   7.408  11.000 -0.4035 -0.5389 -0.0298
   44MOL0     C 5870   1.669   7.030  10.829 -1.1559 -1.0754  0.0877
   44MOL0     C 5871   1.703   7.001  10.697  0.0866 -0.0267  0.1064
   44MOL0     C 5872   1.810   7.084  10.634 -0.1470 -0.1234  0.1289
   44MOL0     H 5873   1.466   6.752  10.351  1.4779  0.3370  0.0416
   44MOL0     H 5874   1.402   6.698  10.108 -0.8093 -0.5741 -1.0870
   44MOL0     H 5875   1.633   6.426   9.834 -2.5964 -2.3567 -2.0392
   44MOL0     H 5876   1.588   6.369   9.992  2.8475  4.3721  2.8162
   44MOL0     H 5877   1.361   6.494   9.850 -0.4657 -1.1477  2.7110
   44MOL0     H 5878   1.388   6.321   9.913  2.2451 -0.9400  1.7032
   44MOL0     H 5879   1.476   6.253   9.703  0.0698  0.4386 -2.5950
   44MOL0     H 5880   1.491   6.414   9.640  2.6005  0.2099  0.7973
   44MOL0     H 5881   1.229   6.305   9.709  0.2161  0.9246 -0.4863
   44MOL0     H 5882   1.255   6.458   9.635 -3.9640  0.0007 -2.2266
   44MOL0     H 5883   1.352   6.366   9.437 -1.9637  1.8149 -0.0613
   44MOL0     H 5884   1.304   6.194   9.478 -1.9881  0.1045  0.1036
   44MOL0     H 5885   1.058   6.307   9.504 -2.2380  1.3185 -2.3750
   44MOL0     H 5886   1.133   6.446   9.435 -0.3639  0.2469  2.2127
   44MOL0     H 5887   1.138   6.164   9.313 -1.3255 -0.9872  2.8592
   44MOL0     H 5888   1.157   6.320   9.221 -2.7613 -0.9209 -2.3476
   44MOL0     H 5889   0.907   6.255   9.326  0.1370 -0.9715 -0.7037
   44MOL0     H 5890   0.958   6.401   9.225 -1.2081 -0.3104 -0.4294
   44MOL0     H 5891   0.802   6.338   9.012 -3.5147 -1.9937 -1.1306
   44MOL0     H 5892   0.730   6.217   8.777  1.3246  0.1271 -0.3430
   44MOL0     H 5893   0.790   6.065   8.734  0.8069  1.7994 -0.1541
   44MOL0     H 5894   0.568   6.138   8.938 -4.0855 -0.2818 -0.8187
   44MOL0     H 5895   0.531   6.068   8.778 -0.9714  0.0533  0.7307
   44MOL0     H 5896   0.495   5.907   8.938 -1.4770  2.7249 -1.5185
   44MOL0     H 5897   0.653   5.918   9.013 -1.6063 -0.2626  1.0055
   44MOL0     H 5898   0.615   5.720   8.895  1.3172 -0.3721 -0.7044
   44MOL0     H 5899   0.746   5.817   8.825  1.4456 -1.5558  0.3157
   44MOL0     H 5900   0.802   5.734   8.597  0.5520 -0.8011  0.5740
   44MOL0     H 5901   0.824   5.553   8.426 -0.5874  0.8215 -2.1227
   44MOL0     H 5902   0.746   5.352   8.074 -0.5657 -0.0861  1.4481
   44MOL0     H 5903   0.814   5.186   7.898 -0.5828 -0.5309  0.7558
   44MOL0     H 5904   0.920   5.025   7.784 -1.4869 -2.6819  0.6913
   44MOL0     H 5905   1.064   5.072   7.878 -1.3292 -0.1220  0.9064
   44MOL0     H 5906   1.179   4.888   7.836 -0.7831  0.5138  2.7875
   44MOL0     H 5907   1.036   4.786   7.811  1.0870 -1.9998 -2.8163
   44MOL0     H 5908   1.137   4.816   7.607  1.3554 -0.5258  0.5292
   44MOL0     H 5909   0.973   4.876   7.597 -0.1156  0.4353 -0.3782
   44MOL0     H 5910   1.232   5.058   7.595  0.0345 -3.3968 -0.0867
   44MOL0     H 5911   1.070   5.135   7.601  3.4876  3.2731  0.8668
   44MOL0     H 5912   0.998   5.035   7.385 -0.0001 -0.0345 -0.5593
   44MOL0     H 5913   1.155   4.955   7.379  2.3357  2.3802 -2.9602
   44MOL0     H 5914   1.078   5.232   7.361 -3.4875 -2.6818 -0.4984
   44MOL0     H 5915   1.252   5.203   7.404 -1.2791  2.6487  1.2342
   44MOL0     H 5916   1.071   5.112   7.173 -0.9463  0.2197  1.7520
   44MOL0     H 5917   1.250   5.067   7.178  0.9292  1.8373 -3.1156
   44MOL0     H 5918   1.116   5.341   7.115 -0.4480 -0.5609  0.5226
   44MOL0     H 5919   1.276   5.340   7.180 -1.3596  2.7406  0.5390
   44MOL0     H 5920   0.883   4.897   8.204  0.4121  0.3759 -0.8830
   44MOL0     H 5921   0.782   5.076   8.382 -0.0905  0.3812  0.2994
   44MOL0     H 5922   0.413   5.479   8.446 -1.5604  2.7344  0.9583
   44MOL0     H 5923   0.372   5.655   8.599  0.0187  0.0065 -2.6589
   44MOL0     H 5924   1.767   6.499  10.074  1.1623  0.4798  1.5812
   44MOL0     H 5925   1.849   6.595  10.291 -0.4278 -1.7199  3.3447
   44MOL0     H 5926   1.500   6.734  10.666 -1.3397  1.3668 -2.1423
   44MOL0     H 5927   1.460   6.776  10.909 -0.0591 -1.7811 -1.4565
   44MOL0     H 5928   1.501   7.005  11.245  1.4524  2.6367 -0.5874
   44MOL0     H 5929   1.498   6.850  11.136 -1.3616  0.1196 -1.4572
   44MOL0     H 5930   1.281   6.954  11.205  0.1918 -2.0572  0.2510
   44MOL0     H 5931   1.308   6.901  11.036  1.5008 -1.6080  1.2490
   44MOL0     H 5932   1.290   7.113  10.963  0.1760 -1.8536  0.0868
   44MOL0     H 5933   1.407   7.165  11.076 -0.1129 -0.3098  0.6663
   44MOL0     H 5934   1.108   7.117  11.154  0.4962 -2.6318 -4.1270
   44MOL0     H 5935   1.225   7.228  11.231 -1.0222  1.1381 -0.4633
   44MOL0     H 5936   1.063   7.491  10.948 -0.6092 -0.0910  0.8269
   44MOL0     H 5937   1.712   7.119  10.873  0.9569 -1.6185 -0.7319
   44MOL0     H 5938   1.879   7.012  10.590  0.2242  0.2867  0.0366
   44MOL0     H 5939   1.775   7.148  10.553  0.6956 -1.0672 -1.0043
   44MOL0     H 5940   1.858   7.134  10.719  0.3975 -0.6629  0.1444
   45MOL0     O 5941   6.131  10.764   3.754  0.2331  0.0157  0.0164
   45MOL0     C 5942   6.030  10.824   3.714 -0.4902  0.4674 -0.2350
   45MOL0     O 5943   6.033  10.938   3.640 -0.0673 -0.2195 -0.7988
   45MOL0     C 5944   6.150  10.991   3.594 -0.1703 -0.4164 -0.2728
   45MOL0     C 5945   6.249  10.920   3.529 -0.3680 -0.1513  0.5231
   45MOL0     C 5946   6.368  10.981   3.498 -0.7039 -0.7182  0.2184
   45MOL0     C 5947   6.398  11.116   3.524  0.1680 -0.6203 -0.4096
   45MOL0     O 5948   6.516  11.181   3.492 -0.0017  0.7863 -1.1055
   45MOL0     C 5949   6.635  11.114   3.446  0.0501 -0.0580  0.4502
   45MOL0     C 5950   6.750  11.209   3.490 -0.1188  0.9793  0.2244
   45MOL0     C 5951   6.785  11.313   3.373  0.1809  0.3671 -0.0861
   45MOL0     C 5952   6.895  11.420   3.415  0.4647  0.0596  0.0545
   45MOL0     C 5953   6.928  11.518   3.304 -1.0743 -0.0184  0.1052
   45MOL0     C 5954   6.929  11.662   3.352  0.2878 -0.2080  0.2457
   45MOL0     C 5955   7.035  11.697   3.458  0.0345  0.2198  0.2038
   45MOL0     C 5956   6.997  11.838   3.512 -0.1533 -0.4817 -0.2255
   45MOL0     N 5957   6.928  11.834   3.638 -0.1351  0.6678 -0.1976
   45MOL0     C 5958   6.969  11.827   3.764 -0.2511  0.5489 -0.6813
   45MOL0     C 5959   6.864  11.794   3.844  0.7032 -0.7721 -0.5874
   45MOL0     C 5960   6.873  11.782   3.987  0.3620 -0.3927  0.2300
   45MOL0     C 5961   6.815  11.908   4.046  0.2358  0.1890  0.2539
   45MOL0     C 5962   6.879  11.938   4.179  0.7137 -0.2487 -0.1251
   45MOL0     C 5963   6.776  11.993   4.269 -0.4204 -0.5638 -0.2238
   45MOL0     O 5964   6.843  12.048   4.384 -0.7263  0.0970  0.6548
   45MOL0     C 5965   6.765  12.104   4.479  0.5674  0.5949 -0.5977
   45MOL0     C 5966   6.790  12.069   4.607 -0.1105  0.0304 -1.5062
   45MOL0     C 5967   6.707  12.109   4.713 -0.7774  0.5322 -0.0802
   45MOL0     C 5968   6.587  12.180   4.695 -0.8695  0.3462 -0.1821
   45MOL0     C 5969   6.505  12.211   4.810 -0.0989 -0.1894  0.2753
   45MOL0     O 5970   6.548  12.156   4.921  0.4545  0.1387  0.4261
   45MOL0     C 5971   6.473  12.145   5.031 -0.1786  0.8732 -0.1879
   45MOL0     C 5972   6.462  12.247   5.125 -0.0468  0.1555  0.4080
   45MOL0     C 5973   6.394  12.220   5.244  0.1727  1.1625 -0.0992
   45MOL0     C 5974   6.325  12.101   5.273  1.2532 -0.6150 -0.2437
   45MOL0     O 5975   6.270  12.066   5.397 -0.7481  0.3271 -0.4020
   45MOL0     C 5976   6.175  11.959   5.413  0.6084  0.7468 -0.7072
   45MOL0     C 5977   6.051  11.976   5.320 -0.5339  0.0271 -1.2885
   45MOL0     C 5978   5.948  11.865   5.335 -1.0761 -0.1995 -0.5314
   45MOL0     C 5979   5.924  11.818   5.481 -0.6718 -1.0867 -1.5632
   45MOL0     C 5980   5.809  11.715   5.490 -0.2887  0.9934 -0.3666
   45MOL0     C 5981   5.771  11.685   5.647 -0.4684 -0.2604 -0.8424
   45MOL0     C 5982   5.669  11.559   5.647 -1.0623 -0.3789  0.6922
   45MOL0     C 5983   5.621  11.544   5.796 -0.3573  0.6555 -0.3075
   45MOL0    Cl 5984   5.491  11.422   5.786  0.2335 -0.5572 -0.5141
   45MOL0     C 5985   6.335  12.003   5.179 -0.4356  0.2785 -0.1606
   45MOL0     C 5986   6.410  12.026   5.062 -0.2778 -0.0315  0.8108
   45MOL0     O 5987   6.395  12.265   4.801  0.1593 -0.5594 -0.2497
   45MOL0     C 5988   6.565  12.226   4.570 -0.0501  0.0848 -0.4666
   45MOL0     C 5989   6.652  12.189   4.459  0.3469 -0.5775  1.2268
   45MOL0     N 5990   6.749  11.784   3.768  0.5791  0.0855 -0.4168
   45MOL0     N 5991   6.794  11.797   3.644 -0.6661 -0.2053 -0.1439
   45MOL0     C 5992   6.297  11.190   3.579  0.2924 -0.3410  0.1505
   45MOL0     C 5993   6.179  11.131   3.618  0.3358 -0.0171 -0.6706
   45MOL0     C 5994   5.894  10.778   3.759 -0.2953 -0.9655 -0.2478
   45MOL0     C 5995   5.891  10.715   3.887  0.4461 -0.9551  0.0208
   45MOL0     C 5996   5.763  10.665   3.937 -0.1964  0.7351 -0.7401
   45MOL0     C 5997   5.653  10.679   3.859 -0.4135 -0.7905 -0.0135
   45MOL0     O 5998   5.544  10.614   3.880  0.9844 -0.8069  0.0104
   45MOL0     C 5999   5.499  10.577   4.008  1.8591  0.1595 -0.1412
   45MOL0     C 6000   5.354  10.570   4.006 -0.1676  0.6230  0.2304
   45MOL0     C 6001   5.282  10.708   4.034  1.7051 -0.0030  0.3327
   45MOL0     C 6002   5.331  10.817   3.933  0.1970 -0.1764 -0.3442
   45MOL0     C 6003   5.243  10.933   3.934 -0.3597 -0.2859 -0.7896
   45MOL0     C 6004   5.172  11.031   3.939  0.2184 -0.3762  0.3451
   45MOL0     C 6005   5.662  10.745   3.732 -0.2685  0.1784  0.6618
   45MOL0     C 6006   5.780  10.791   3.682  0.1385 -0.0277  0.9821
   45MOL0     C 6007   5.778  10.839   3.535  0.3827 -1.2540 -0.6478
   45MOL0     H 6008   6.230  10.815   3.510 -2.0904 -0.0532  1.4726
   45MOL0     H 6009   6.448  10.913   3.470 -0.2105 -1.4051  2.9997
   45MOL0     H 6010   6.643  11.014   3.489 -2.3981 -1.5684 -2.2604
   45MOL0     H 6011   6.648  11.090   3.340  0.7155  0.5620  0.3787
   45MOL0     H 6012   6.838  11.148   3.511  1.1661  1.8939 -2.1774
   45MOL0     H 6013   6.715  11.255   3.583 -0.4395  0.4855  0.3539
   45MOL0     H 6014   6.698  11.377   3.356 -0.0239  0.4144  1.0754
   45MOL0     H 6015   6.818  11.253   3.287  0.3302 -1.2265  1.0231
   45MOL0     H 6016   6.848  11.471   3.500  0.8643  0.9864 -0.2757
   45MOL0     H 6017   6.983  11.360   3.442 -0.3701 -1.3445 -0.2040
   45MOL0     H 6018   7.030  11.497   3.272 -1.7342 -0.8649 -1.5247
   45MOL0     H 6019   6.854  11.505   3.224  0.0962 -1.5155 -0.7775
   45MOL0     H 6020   6.934  11.737   3.272 -1.2166  1.1294  1.3651
   45MOL0     H 6021   6.829  11.675   3.394  0.3535  1.3805 -0.0388
   45MOL0     H 6022   7.130  11.700   3.403  0.4249 -2.7775  0.5121
   45MOL0     H 6023   7.040  11.614   3.530  1.2328 -2.3081 -2.5679
   45MOL0     H 6024   7.084  11.903   3.523 -1.4496  1.2955 -0.2044
   45MOL0     H 6025   6.931  11.883   3.437  2.1008  1.9201 -0.9241
   45MOL0     H 6026   7.072  11.844   3.795 -0.0070  1.0172 -1.6983
   45MOL0     H 6027   6.803  11.704   4.016  2.6002 -1.6930  2.6007
   45MOL0     H 6028   6.973  11.764   4.029  0.5984  2.9314  1.4455
   45MOL0     H 6029   6.824  11.994   3.979  0.7161  1.2621  1.6427
   45MOL0     H 6030   6.707  11.903   4.063  0.5600 -1.7538  2.1953
   45MOL0     H 6031   6.950  12.020   4.163 -1.3394  1.8863  0.9777
   45MOL0     H 6032   6.941  11.854   4.211 -1.5950 -3.9214 -4.2057
   45MOL0     H 6033   6.698  11.925   4.303 -1.3460  0.8489  0.5742
   45MOL0     H 6034   6.720  12.078   4.228  0.5804  0.1559 -0.1500
   45MOL0     H 6035   6.878  12.006   4.617 -0.0264  0.4963  1.9889
   45MOL0     H 6036   6.755  12.079   4.806  0.0311  0.3620 -0.5489
   45MOL0     H 6037   6.514  12.341   5.106  1.4234 -1.0074 -1.7197
   45MOL0     H 6038   6.377  12.303   5.312  3.1064  2.3571 -0.6785
   45MOL0     H 6039   6.215  11.858   5.402 -2.5533 -0.6179 -0.7692
   45MOL0     H 6040   6.137  11.963   5.516 -3.2157 -0.9382 -1.8619
   45MOL0     H 6041   5.995  12.065   5.352  2.5093  0.3247  4.5045
   45MOL0     H 6042   6.067  11.981   5.212  0.4531  0.4967 -1.1289
   45MOL0     H 6043   5.853  11.896   5.290 -3.0053 -3.4883  0.8748
   45MOL0     H 6044   5.966  11.777   5.273 -1.8573  0.8079 -2.2616
   45MOL0     H 6045   5.899  11.905   5.542 -0.2036 -0.9443 -1.5684
   45MOL0     H 6046   6.015  11.767   5.515 -1.7118 -1.6604  0.4732
   45MOL0     H 6047   5.841  11.623   5.440 -1.3270  0.4438 -0.0397
   45MOL0     H 6048   5.724  11.753   5.434 -0.8824  0.1493 -0.0537
   45MOL0     H 6049   5.850  11.667   5.720  0.0699 -0.6740 -1.5171
   45MOL0     H 6050   5.718  11.774   5.683 -0.2361  0.8149 -2.9810
   45MOL0     H 6051   5.734  11.476   5.619 -0.6863  1.1613 -3.7421
   45MOL0     H 6052   5.584  11.572   5.580 -1.0092  1.3728  0.9042
   45MOL0     H 6053   5.702  11.508   5.860 -1.2045  1.7960  1.4908
   45MOL0     H 6054   5.581  11.632   5.847 -3.5286 -0.6445 -0.3169
   45MOL0     H 6055   6.293  11.904   5.192 -0.3903  0.3685  0.7632
   45MOL0     H 6056   6.417  11.950   4.985 -2.9737  0.7580 -0.3434
   45MOL0     H 6057   6.478  12.291   4.566  0.7117  1.3476  1.7215
   45MOL0     H 6058   6.623  12.233   4.364  0.4944  0.1425  1.5035
   45MOL0     H 6059   6.318  11.293   3.606 -0.8759 -0.4650  1.7121
   45MOL0     H 6060   6.111  11.185   3.683  0.0830 -2.2883  1.0424
   45MOL0     H 6061   5.987  10.696   3.934  0.3212 -2.1352 -0.1620
   45MOL0     H 6062   5.759  10.617   4.034 -1.7767  1.7648 -0.2730
   45MOL0     H 6063   5.524  10.646   4.089 -0.2386  3.0623 -1.7697
   45MOL0     H 6064   5.538  10.480   4.039 -1.3306 -0.6414  1.7385
   45MOL0     H 6065   5.311  10.499   4.077 -1.0431  1.6211  0.7243
   45MOL0     H 6066   5.316  10.526   3.913  2.4845  1.1872 -1.2152
   45MOL0     H 6067   5.293  10.744   4.137 -1.0485 -0.8584  1.0201
   45MOL0     H 6068   5.175  10.687   4.026  1.9796 -1.1789 -0.4583
   45MOL0     H 6069   5.421  10.862   3.975 -2.1988  1.4167  3.6507
   45MOL0     H 6070   5.330  10.778   3.831  1.1642 -3.7298  0.8513
   45MOL0     H 6071   5.112  11.120   3.934  0.6809 -0.0294  0.8902
   45MOL0     H 6072   5.564  10.768   3.694  0.6709  0.0977 -1.9977
   45MOL0     H 6073   5.675  10.821   3.502 -0.2309 -1.7367  1.4116
   45MOL0     H 6074   5.803  10.943   3.514  0.6292 -1.5237 -1.8035
   45MOL0     H 6075   5.850  10.790   3.468 -1.0251 -1.5322 -2.0227
   46MOL0     O 6076   1.538   4.284   4.424  0.7687  0.1609  0.3829
   46MOL0     C 6077   1.596   4.389   4.414  0.3172 -0.3340 -0.2335
   46MOL0     O 6078   1.590   4.489   4.504  0.6116  0.2068 -0.4015
   46MOL0     C 6079   1.560   4.474   4.637 -0.2138 -0.2109 -0.8916
   46MOL0     C 6080   1.471   4.565   4.694  0.3874  0.6711 -1.1851
   46MOL0     C 6081   1.430   4.553   4.830 -0.1691 -0.3209 -0.1275
   46MOL0     C 6082   1.481   4.451   4.915 -0.3881 -0.4678  0.1860
   46MOL0     O 6083   1.443   4.443   5.050  0.0295 -0.2779  0.4894
   46MOL0     C 6084   1.425   4.317   5.109 -0.4109 -0.3169 -0.6298
   46MOL0     C 6085   1.311   4.326   5.200 -0.7832  0.5038 -0.1632
   46MOL0     C 6086   1.357   4.417   5.311 -0.2237  0.1120 -0.6156
   46MOL0     C 6087   1.251   4.436   5.426  0.7238 -0.9666 -0.3069
   46MOL0     C 6088   1.290   4.533   5.542 -0.3755 -0.2935  0.6734
   46MOL0     C 6089   1.181   4.551   5.637 -0.4944  0.2490  0.6285
   46MOL0     C 6090   1.225   4.646   5.744  0.4094  0.2300  0.4153
   46MOL0     C 6091   1.106   4.678   5.830 -0.3784  0.5093  0.3169
   46MOL0     N 6092   1.136   4.758   5.946  0.4350  0.5335  0.3716
   46MOL0     C 6093   1.246   4.743   6.034  0.3788 -0.0389 -0.0583
   46MOL0     C 6094   1.247   4.849   6.119  0.5417 -0.3748  0.8991
   46MOL0     C 6095   1.330   4.893   6.235 -1.0401  0.0804  1.1508
   46MOL0     C 6096   1.239   4.925   6.360 -0.1480 -1.4741  0.4845
   46MOL0     C 6097   1.321   4.966   6.481 -0.1375 -0.0900  0.6528
   46MOL0     C 6098   1.236   4.979   6.614 -0.5440  0.2285  0.4140
   46MOL0     O 6099   1.202   4.853   6.649  0.3478  0.4548  0.1734
   46MOL0     C 6100   1.156   4.843   6.774 -0.9879 -0.0936  0.1071
   46MOL0     C 6101   1.068   4.937   6.839 -0.5742 -0.1976 -0.0066
   46MOL0     C 6102   1.025   4.914   6.966  1.4286 -0.7058 -0.0549
   46MOL0     C 6103   1.064   4.802   7.035 -0.3168  0.3169  0.2350
   46MOL0     C 6104   1.030   4.776   7.173 -0.0297 -0.2593 -0.2975
   46MOL0     O 6105   1.090   4.665   7.232 -0.0335 -0.1218 -0.7822
   46MOL0     C 6106   1.050   4.625   7.361 -0.8258  0.2259  1.0541
   46MOL0     C 6107   1.153   4.585   7.453 -0.4958 -0.3630 -0.0462
   46MOL0     C 6108   1.120   4.548   7.582  1.1620 -0.3475  0.0287
   46MOL0     C 6109   0.991   4.561   7.631  0.3026  0.0524  0.0121
   46MOL0     O 6110   0.951   4.532   7.761  0.0111  0.1414 -0.0580
   46MOL0     C 6111   1.035   4.499   7.867  1.2399  0.2117  0.4361
   46MOL0     C 6112   0.972   4.460   8.000  0.9770 -0.3721  1.0871
   46MOL0     C 6113   0.884   4.574   8.051  0.0871 -0.1170  0.3215
   46MOL0     C 6114   0.794   4.502   8.157  0.1839 -0.6772  0.4884
   46MOL0     C 6115   0.681   4.598   8.193 -0.0478 -0.7615  0.9008
   46MOL0     C 6116   0.594   4.532   8.297 -0.3149 -0.3081 -1.5862
   46MOL0     C 6117   0.646   4.548   8.447  0.4869  0.0780 -0.5122
   46MOL0     C 6118   0.547   4.513   8.550  0.1961  0.0898 -1.0885
   46MOL0    Cl 6119   0.446   4.653   8.599 -0.3900  0.8000 -0.4850
   46MOL0     C 6120   0.890   4.603   7.536 -0.7794 -0.4293  0.1398
   46MOL0     C 6121   0.923   4.629   7.403  0.6304 -0.5362 -0.2069
   46MOL0     O 6122   0.941   4.846   7.224  0.6432 -0.3573 -0.2650
   46MOL0     C 6123   1.165   4.719   6.977  0.8342  0.4427 -0.0626
   46MOL0     C 6124   1.205   4.735   6.845 -0.9213 -0.3602  0.3767
   46MOL0     N 6125   1.143   4.933   6.062  0.4410 -0.0226  0.0694
   46MOL0     N 6126   1.079   4.881   5.966 -0.1168  0.5510  0.6236
   46MOL0     C 6127   1.566   4.353   4.858  0.0879 -0.7448  0.4084
   46MOL0     C 6128   1.591   4.365   4.718  0.3189  0.2361  0.7183
   46MOL0     C 6129   1.655   4.439   4.288  1.1012  0.1808 -0.1989
   46MOL0     C 6130   1.670   4.579   4.263 -0.4917  0.3493 -1.1105
   46MOL0     C 6131   1.753   4.625   4.158  0.0705 -0.3062  0.3840
   46MOL0     C 6132   1.818   4.531   4.069 -0.0406 -0.5649  1.1509
   46MOL0     O 6133   1.908   4.578   3.973 -0.4764 -0.2246  0.0514
   46MOL0     C 6134   2.023   4.628   4.032 -0.6619  1.0527  0.1537
   46MOL0     C 6135   2.059   4.766   3.970 -0.2836 -0.2104  0.6313
   46MOL0     C 6136   2.047   4.878   4.058 -0.2058 -1.1466 -0.2498
   46MOL0     C 6137   2.053   5.009   3.964  0.0136  0.5243 -0.9235
   46MOL0     C 6138   2.011   5.134   4.029  0.1915  0.1551 -0.2543
   46MOL0     C 6139   1.980   5.252   4.052  0.1719  0.1067  0.1926
   46MOL0     C 6140   1.787   4.392   4.087 -0.5443 -1.3101 -0.3425
   46MOL0     C 6141   1.713   4.343   4.197 -0.6967  0.2870 -0.4021
   46MOL0     C 6142   1.710   4.189   4.223 -0.1094  0.3001 -0.9664
   46MOL0     H 6143   1.426   4.639   4.629 -0.5359  0.4613 -0.7947
   46MOL0     H 6144   1.368   4.630   4.875 -1.4686 -1.0124 -0.6953
   46MOL0     H 6145   1.414   4.241   5.031  2.1015  0.0843 -1.4703
   46MOL0     H 6146   1.515   4.290   5.166 -1.9941 -2.8649  0.8839
   46MOL0     H 6147   1.297   4.224   5.238  1.5776  1.1169  2.6719
   46MOL0     H 6148   1.222   4.369   5.153 -1.3716 -1.0761 -0.5552
   46MOL0     H 6149   1.394   4.514   5.275  0.5278 -0.6021 -1.8284
   46MOL0     H 6150   1.452   4.379   5.349  0.4822  2.9499  0.7039
   46MOL0     H 6151   1.171   4.496   5.380  2.1822  0.6614 -0.8483
   46MOL0     H 6152   1.213   4.337   5.452  1.1266 -1.0598 -0.0794
   46MOL0     H 6153   1.380   4.491   5.588  1.3259  0.2842 -1.9336
   46MOL0     H 6154   1.333   4.631   5.518 -0.0352  0.3907  3.5931
   46MOL0     H 6155   1.105   4.606   5.581  0.4107  2.6980  1.6535
   46MOL0     H 6156   1.131   4.462   5.677 -0.6814  0.2363  0.3685
   46MOL0     H 6157   1.268   4.737   5.701  1.1659  0.9832  2.6028
   46MOL0     H 6158   1.300   4.604   5.811  0.2204 -1.9536 -0.6552
   46MOL0     H 6159   1.050   4.741   5.759  1.8167 -0.4712 -2.5015
   46MOL0     H 6160   1.047   4.589   5.853  1.1532 -0.3986  0.8799
   46MOL0     H 6161   1.326   4.669   6.034 -1.0947 -1.7158 -1.2004
   46MOL0     H 6162   1.396   4.810   6.264 -1.7887 -0.7629  0.5043
   46MOL0     H 6163   1.386   4.978   6.196 -0.9181 -1.3905 -2.2447
   46MOL0     H 6164   1.173   5.008   6.334  0.8132 -1.0034 -0.5923
   46MOL0     H 6165   1.175   4.837   6.371 -2.0303 -0.5059 -1.7524
   46MOL0     H 6166   1.378   5.056   6.455  1.7755 -1.2098  0.7982
   46MOL0     H 6167   1.389   4.889   6.518 -1.1357  0.1715  3.2128
   46MOL0     H 6168   1.153   5.048   6.599 -2.8347 -2.0095  1.8642
   46MOL0     H 6169   1.296   5.028   6.691 -1.4766  1.3776  0.4394
   46MOL0     H 6170   1.037   5.032   6.797 -1.0866  3.0888  6.5651
   46MOL0     H 6171   0.957   4.979   7.020  3.8048  0.4074  1.7999
   46MOL0     H 6172   1.255   4.568   7.421 -0.6352 -2.4511  0.5162
   46MOL0     H 6173   1.203   4.517   7.644  0.3473 -0.8773  0.8798
   46MOL0     H 6174   1.097   4.416   7.833  0.0297 -0.7430  0.4755
   46MOL0     H 6175   1.100   4.582   7.894  0.3951  0.6551  1.1817
   46MOL0     H 6176   0.915   4.367   7.993  0.6504 -0.2322  1.8111
   46MOL0     H 6177   1.055   4.442   8.070  1.7438  1.7677  0.8047
   46MOL0     H 6178   0.947   4.649   8.100  0.7865 -0.0013 -0.7145
   46MOL0     H 6179   0.824   4.619   7.972 -0.8298  2.3229  2.2974
   46MOL0     H 6180   0.855   4.479   8.244 -0.7855  3.1213  2.4148
   46MOL0     H 6181   0.754   4.413   8.107  1.3802 -0.9800  0.0336
   46MOL0     H 6182   0.621   4.632   8.108  0.9001  0.0982  0.5502
   46MOL0     H 6183   0.732   4.689   8.227 -1.1865  0.1203  0.3230
   46MOL0     H 6184   0.488   4.555   8.279 -0.5285  0.8207  0.7767
   46MOL0     H 6185   0.598   4.424   8.287  2.5678 -0.4836  0.3213
   46MOL0     H 6186   0.686   4.647   8.470 -1.1886  0.0169  3.6050
   46MOL0     H 6187   0.731   4.480   8.451 -0.0441 -0.5723  0.1350
   46MOL0     H 6188   0.483   4.434   8.510 -0.0529  0.5256 -1.5542
   46MOL0     H 6189   0.599   4.479   8.640 -1.9797 -0.3744  0.0855
   46MOL0     H 6190   0.785   4.604   7.562 -0.9540 -1.8580 -0.4042
   46MOL0     H 6191   0.843   4.676   7.346 -0.5801  0.1818  1.9687
   46MOL0     H 6192   1.199   4.632   7.031 -2.9994 -0.6236  0.9182
   46MOL0     H 6193   1.284   4.675   6.802 -2.7474 -1.5111 -1.5934
   46MOL0     H 6194   1.599   4.272   4.923 -0.7751 -0.3491  1.3647
   46MOL0     H 6195   1.645   4.279   4.680  2.5258  1.1802  1.5678
   46MOL0     H 6196   1.636   4.647   4.340  0.4627 -1.4611  0.9996
   46MOL0     H 6197   1.776   4.729   4.136 -0.4324 -0.5279 -1.3886
   46MOL0     H 6198   2.105   4.558   4.014  1.0128  3.3589 -1.9272
   46MOL0     H 6199   2.015   4.637   4.141  0.1115 -2.4567  0.6074
   46MOL0     H 6200   1.989   4.779   3.887 -2.6150 -0.7559  2.4127
   46MOL0     H 6201   2.162   4.764   3.932  0.5469  1.8414  2.5022
   46MOL0     H 6202   2.127   4.880   4.133  0.6748  0.6835 -1.1987
   46MOL0     H 6203   1.953   4.884   4.115  1.3800  0.8155  2.4077
   46MOL0     H 6204   2.158   5.022   3.936  0.9177 -0.1875  1.7984
   46MOL0     H 6205   1.994   4.987   3.874  0.5471 -3.9815 -0.3984
   46MOL0     H 6206   1.959   5.357   4.056  0.1449  0.0852  3.5587
   46MOL0     H 6207   1.831   4.334   4.007  0.3062 -0.7260 -0.3113
   46MOL0     H 6208   1.783   4.142   4.156 -2.0341  0.2922 -3.1659
   46MOL0     H 6209   1.743   4.172   4.326 -0.9895 -1.2366 -0.9054
   46MOL0     H 6210   1.614   4.144   4.197 -0.1929 -0.2032  0.1610
   47MOL0     O 6211   0.185   5.413   5.292  0.4359 -0.4389  0.6042
   47MOL0     C 6212   0.201   5.327   5.375 -0.6679 -0.9049 -0.1251
   47MOL0     O 6213   0.139   5.320   5.496  0.3676  0.4399 -0.0459
   47MOL0     C 6214   0.010   5.371   5.502 -0.3985  0.2990  0.3867
   47MOL0     C 6215  -0.050   5.361   5.630  0.1394 -0.5777 -0.2973
   47MOL0     C 6216  -0.191   5.403   5.648 -0.8548 -0.7732 -0.2247
   47MOL0     C 6217  -0.268   5.442   5.540  0.0609  1.3239 -0.2436
   47MOL0     O 6218  -0.406   5.474   5.567  0.4947 -0.0728 -0.2878
   47MOL0     C 6219  -0.475   5.537   5.462  0.1424 -0.5294 -0.4628
   47MOL0     C 6220  -0.622   5.508   5.482  1.0185 -1.3169 -0.3400
   47MOL0     C 6221  -0.654   5.354   5.482 -0.7879  0.7743 -0.7899
   47MOL0     C 6222  -0.603   5.273   5.361  0.0646  0.2226  0.1360
   47MOL0     C 6223  -0.660   5.133   5.366 -0.5650  0.0991  0.1999
   47MOL0     C 6224  -0.617   5.073   5.239 -0.5838  0.2869  0.7766
   47MOL0     C 6225  -0.690   4.936   5.224  0.3389  0.1640  0.1175
   47MOL0     C 6226  -0.653   4.854   5.106 -0.1502  0.1162 -0.0974
   47MOL0     N 6227  -0.731   4.905   4.996  0.4334  0.5397  0.3028
   47MOL0     C 6228  -0.858   4.867   4.979 -0.0094  0.8610  0.0347
   47MOL0     C 6229  -0.903   4.954   4.887 -0.6892  0.1978 -0.1002
   47MOL0     C 6230  -1.046   4.947   4.832  0.2122  0.2862 -0.3169
   47MOL0     C 6231  -1.171   4.949   4.928 -0.8745 -0.3561  0.1282
   47MOL0     C 6232  -1.284   4.897   4.839 -0.0322  0.1353 -0.4747
   47MOL0     C 6233  -1.425   4.885   4.887  0.0834  0.5986  0.3914
   47MOL0     O 6234  -1.488   5.016   4.903 -0.0539  0.3834  0.8209
   47MOL0     C 6235  -1.565   5.076   4.801 -0.6440 -0.6040 -1.1554
   47MOL0     C 6236  -1.578   5.036   4.664  0.2497  0.1908 -0.4802
   47MOL0     C 6237  -1.668   5.088   4.577 -0.0443 -0.6341  0.5903
   47MOL0     C 6238  -1.758   5.188   4.616  0.7434 -0.0098  0.4242
   47MOL0     C 6239  -1.856   5.238   4.519  0.4922 -0.0348 -0.2205
   47MOL0     O 6240  -1.897   5.370   4.537 -0.7260 -0.1663  0.1065
   47MOL0     C 6241  -1.984   5.437   4.460 -0.5453 -0.6757  0.4535
   47MOL0     C 6242  -2.021   5.564   4.503  0.5041 -0.0124  0.4090
   47MOL0     C 6243  -2.107   5.646   4.433 -0.2604  0.0458 -0.2376
   47MOL0     C 6244  -2.172   5.604   4.318  0.1222 -0.2578  0.1864
   47MOL0     O 6245  -2.290   5.668   4.277  0.1122  0.6157 -0.0213
   47MOL0     C 6246  -2.322   5.798   4.317  0.9299 -0.2011  0.4645
   47MOL0     C 6247  -2.454   5.840   4.265 -0.1214  0.1425 -0.2817
   47MOL0     C 6248  -2.474   5.994   4.280 -0.1994  1.0122  0.2252
   47MOL0     C 6249  -2.616   6.019   4.245  0.2562 -0.0939 -0.4916
   47MOL0     C 6250  -2.640   6.176   4.238 -0.3170  0.5677 -0.6021
   47MOL0     C 6251  -2.569   6.242   4.120  0.6671 -0.8818  0.1271
   47MOL0     C 6252  -2.581   6.391   4.130 -0.0676  0.3359 -0.1233
   47MOL0     C 6253  -2.551   6.453   3.997  0.5734 -0.3359 -0.4932
   47MOL0    Cl 6254  -2.580   6.628   3.994 -0.2560  0.4168 -0.1326
   47MOL0     C 6255  -2.132   5.482   4.265  0.5351 -0.5655  0.2936
   47MOL0     C 6256  -2.034   5.404   4.333 -0.9243  0.2516  0.4787
   47MOL0     O 6257  -1.888   5.159   4.433  0.5161  0.4675 -0.2719
   47MOL0     C 6258  -1.754   5.220   4.749  1.2492  0.0258 -0.0003
   47MOL0     C 6259  -1.656   5.174   4.831  0.7160  0.2455 -1.1472
   47MOL0     N 6260  -0.800   5.032   4.843  0.7886 -0.7485  0.6710
   47MOL0     N 6261  -0.697   4.999   4.906  0.6159  0.3473  0.2884
   47MOL0     C 6262  -0.207   5.433   5.412  1.3427 -0.1770 -0.2452
   47MOL0     C 6263  -0.077   5.396   5.392  0.1853 -0.0461  0.0610
   47MOL0     C 6264   0.305   5.229   5.355 -0.1347 -0.2964 -0.4821
   47MOL0     C 6265   0.293   5.108   5.428 -0.5008 -0.0930  0.1633
   47MOL0     C 6266   0.387   5.011   5.419  0.7183  0.7139  0.6740
   47MOL0     C 6267   0.499   5.026   5.333  0.4387 -0.5312  1.0803
   47MOL0     O 6268   0.587   4.924   5.312 -0.4358  0.7610 -0.2714
   47MOL0     C 6269   0.722   4.957   5.281 -0.3745  0.0363  0.9441
   47MOL0     C 6270   0.807   4.833   5.315  1.2866  0.4313  0.7208
   47MOL0     C 6271   0.908   4.846   5.427  0.5047 -0.3219 -0.1737
   47MOL0     C 6272   1.044   4.912   5.379  0.2749 -0.3467  0.6373
   47MOL0     C 6273   1.123   4.821   5.295 -0.7926 -0.6914  0.7635
   47MOL0     C 6274   1.191   4.752   5.221  0.1888 -0.7184 -0.4640
   47MOL0     C 6275   0.522   5.148   5.260  0.3871 -0.3360  0.2732
   47MOL0     C 6276   0.416   5.248   5.265  0.1770  0.4590 -1.2208
   47MOL0     C 6277   0.436   5.362   5.165  0.2060 -0.1828  1.0539
   47MOL0     H 6278  -0.009   5.319   5.722 -0.5238 -4.0633 -1.4599
   47MOL0     H 6279  -0.228   5.409   5.750  2.6343 -1.5474  1.2433
   47MOL0     H 6280  -0.458   5.645   5.468  2.7016 -0.9563  3.5169
   47MOL0     H 6281  -0.458   5.501   5.360 -0.4753 -0.9258 -0.4307
   47MOL0     H 6282  -0.689   5.553   5.409 -1.4633 -2.0343  1.3576
   47MOL0     H 6283  -0.665   5.545   5.576 -0.4626  1.3202 -1.9451
   47MOL0     H 6284  -0.763   5.343   5.482 -0.6694 -0.5734 -1.1430
   47MOL0     H 6285  -0.612   5.311   5.574  1.0866  0.4337 -1.7599
   47MOL0     H 6286  -0.642   5.319   5.270  1.0885 -0.9620 -0.9535
   47MOL0     H 6287  -0.494   5.271   5.353  0.0325 -0.0971 -0.3459
   47MOL0     H 6288  -0.610   5.077   5.445 -0.0811  0.4014  0.1111
   47MOL0     H 6289  -0.768   5.135   5.383 -0.6183  0.8419 -0.1909
   47MOL0     H 6290  -0.644   5.130   5.149  0.1596  0.4870  0.6727
   47MOL0     H 6291  -0.509   5.059   5.231 -0.9740 -2.1553 -1.4590
   47MOL0     H 6292  -0.800   4.944   5.224  0.3331  0.0601  0.0313
   47MOL0     H 6293  -0.667   4.880   5.315  1.7428  1.8203  0.8382
   47MOL0     H 6294  -0.548   4.862   5.074 -0.6292  1.9453 -1.3736
   47MOL0     H 6295  -0.687   4.753   5.131  1.4595 -0.7376 -1.1469
   47MOL0     H 6296  -0.900   4.781   5.029  3.7136 -1.3280 -0.2522
   47MOL0     H 6297  -1.064   5.040   4.777 -0.1158 -1.0243 -2.5181
   47MOL0     H 6298  -1.044   4.869   4.755  1.2606  0.6690 -0.6905
   47MOL0     H 6299  -1.161   4.882   5.013 -0.6206  1.1090  1.3096
   47MOL0     H 6300  -1.190   5.044   4.979 -1.3872 -1.3818  1.9312
   47MOL0     H 6301  -1.267   4.791   4.819 -1.1289  0.2842 -2.3892
   47MOL0     H 6302  -1.290   4.955   4.747 -1.8353  0.4954 -0.1691
   47MOL0     H 6303  -1.428   4.843   4.988 -0.6245 -2.6989 -0.8407
   47MOL0     H 6304  -1.485   4.819   4.823 -0.3255 -3.4448  4.3884
   47MOL0     H 6305  -1.523   4.946   4.638 -0.9089 -0.5279 -0.5697
   47MOL0     H 6306  -1.649   5.059   4.474 -0.6281 -1.2093  0.6421
   47MOL0     H 6307  -2.001   5.583   4.608  0.8693 -5.7132  1.6728
   47MOL0     H 6308  -2.140   5.736   4.485  4.3416  2.3455 -0.8014
   47MOL0     H 6309  -2.335   5.805   4.426 -0.8910 -1.2548  0.3679
   47MOL0     H 6310  -2.247   5.865   4.275 -1.1398  2.1789  0.3123
   47MOL0     H 6311  -2.479   5.820   4.161  1.0988 -1.5059 -0.2999
   47MOL0     H 6312  -2.531   5.789   4.325  1.0220  1.3104  2.3521
   47MOL0     H 6313  -2.450   6.025   4.382 -0.6071  0.0340  0.6353
   47MOL0     H 6314  -2.406   6.045   4.212  1.2237  0.6243  1.3055
   47MOL0     H 6315  -2.686   5.979   4.319 -0.3848  1.7769 -0.0298
   47MOL0     H 6316  -2.639   5.975   4.147  2.2256  1.5993 -1.8020
   47MOL0     H 6317  -2.606   6.215   4.334  0.4960 -1.2771 -0.1077
   47MOL0     H 6318  -2.748   6.193   4.226 -0.5200  0.0614  0.4091
   47MOL0     H 6319  -2.463   6.219   4.111  1.0740  1.4834 -6.0157
   47MOL0     H 6320  -2.621   6.200   4.033  4.0631  0.0061 -2.5461
   47MOL0     H 6321  -2.522   6.421   4.217 -1.7426 -0.6321  1.3997
   47MOL0     H 6322  -2.677   6.426   4.167 -1.7264 -0.7777 -3.0308
   47MOL0     H 6323  -2.444   6.442   3.979  0.6209  1.6296 -1.6959
   47MOL0     H 6324  -2.607   6.408   3.914  1.1166 -0.2308 -0.9197
   47MOL0     H 6325  -2.185   5.447   4.177  1.7341  0.3560 -0.8345
   47MOL0     H 6326  -2.009   5.302   4.307  2.2267  0.9345  0.5219
   47MOL0     H 6327  -1.828   5.295   4.776 -2.1804 -2.9653 -0.4085
   47MOL0     H 6328  -1.653   5.213   4.932 -2.7544  0.5719 -1.0514
   47MOL0     H 6329  -0.254   5.465   5.320 -0.3729  0.7078  0.8774
   47MOL0     H 6330  -0.048   5.393   5.287  1.2514  1.4137  0.2860
   47MOL0     H 6331   0.212   5.083   5.496 -1.1705  0.3809 -0.4457
   47MOL0     H 6332   0.372   4.913   5.463 -1.0135  0.0436 -1.2491
   47MOL0     H 6333   0.759   5.043   5.337  0.3818  0.4068 -0.0906
   47MOL0     H 6334   0.726   4.983   5.175  1.5876 -0.2507  0.9081
   47MOL0     H 6335   0.860   4.790   5.230  0.8607 -0.4953  0.9056
   47MOL0     H 6336   0.738   4.752   5.340  0.0814  0.2170 -2.8157
   47MOL0     H 6337   0.929   4.751   5.477 -0.0861  1.0134  2.8357
   47MOL0     H 6338   0.862   4.905   5.506 -2.4910 -1.9003 -0.5743
   47MOL0     H 6339   1.021   4.998   5.315 -2.5914 -1.8682 -0.5684
   47MOL0     H 6340   1.105   4.948   5.462  0.8823  2.4513 -0.8984
   47MOL0     H 6341   1.256   4.699   5.154  1.3605 -0.3018  0.3145
   47MOL0     H 6342   0.615   5.161   5.205 -0.3422 -0.0272 -0.9087
   47MOL0     H 6343   0.342   5.392   5.116  0.5291 -0.2893  0.3611
   47MOL0     H 6344   0.472   5.447   5.224  1.8607 -0.7148  0.8313
   47MOL0     H 6345   0.513   5.348   5.089 -1.9973  0.2037 -1.4097
   48MOL0     O 6346   6.255   0.572   0.532 -0.4659 -0.1703 -0.4004
   48MOL0     C 6347   6.251   0.482   0.446  0.2360 -0.0315  0.0931
   48MOL0     O 6348   6.362   0.400   0.410  0.5398  0.0345 -0.3087
   48MOL0     C 6349   6.476   0.418   0.483 -0.5255  0.9967  0.9157
   48MOL0     C 6350   6.567   0.528   0.469  0.0127 -0.3712 -0.5498
   48MOL0     C 6351   6.677   0.537   0.554 -0.1440 -0.5165  0.0008
   48MOL0     C 6352   6.715   0.423   0.635 -0.3173 -0.5696 -1.0114
   48MOL0     O 6353   6.834   0.402   0.701 -0.4377 -0.6573 -0.3939
   48MOL0     C 6354   6.954   0.472   0.653  0.4052  0.1406  0.1741
   48MOL0     C 6355   7.002   0.542   0.782 -0.1839  1.1339  0.7036
   48MOL0     C 6356   7.144   0.584   0.773 -0.9936 -0.0643  0.2915
   48MOL0     C 6357   7.191   0.643   0.905 -0.3513 -0.2617  0.3814
   48MOL0     C 6358   7.346   0.641   0.903 -0.3512  0.5234  0.0584
   48MOL0     C 6359   7.421   0.724   0.996  0.6565 -0.4213 -0.6093
   48MOL0     C 6360   7.567   0.721   0.968  1.1493  0.8867  0.4425
   48MOL0     C 6361   7.640   0.799   1.078 -0.9894 -0.0294  0.3061
   48MOL0     N 6362   7.654   0.722   1.204 -0.3250 -0.4922  0.5733
   48MOL0     C 6363   7.747   0.625   1.229 -0.5230 -0.2357  0.5331
   48MOL0     C 6364   7.730   0.602   1.359  0.1095 -0.1265  0.3085
   48MOL0     C 6365   7.809   0.504   1.436  0.1461  1.3186  0.4209
   48MOL0     C 6366   7.736   0.363   1.446  0.6251  0.7892  0.5144
   48MOL0     C 6367   7.830   0.255   1.500 -0.4854  0.5900 -0.1902
   48MOL0     C 6368   7.831   0.241   1.661  0.2256  0.6162 -0.4659
   48MOL0     O 6369   7.705   0.243   1.718 -0.2156 -0.8682 -0.3439
   48MOL0     C 6370   7.690   0.272   1.848  1.4680 -0.5899 -0.2654
   48MOL0     C 6371   7.558   0.311   1.887  0.7881 -0.5065 -0.1143
   48MOL0     C 6372   7.534   0.328   2.020  0.3033  0.3040  0.6864
   48MOL0     C 6373   7.634   0.306   2.113  0.7865  0.2653 -0.9352
   48MOL0     C 6374   7.597   0.319   2.260  1.2407  0.1906  1.1860
   48MOL0     O 6375   7.700   0.362   2.343 -0.3811 -0.1547 -0.2928
   48MOL0     C 6376   7.682   0.401   2.478 -0.3203 -0.4307 -0.1139
   48MOL0     C 6377   7.610   0.332   2.572  0.3242 -0.4510 -0.1184
   48MOL0     C 6378   7.622   0.364   2.706  0.4350  1.0517  0.7825
   48MOL0     C 6379   7.706   0.469   2.741 -0.4537 -0.6452 -0.3541
   48MOL0     O 6380   7.719   0.495   2.876 -0.3444 -0.2474  0.3283
   48MOL0     C 6381   7.831   0.562   2.933  0.1699  0.5090  0.6000
   48MOL0     C 6382   7.922   0.444   2.986  0.1436  0.2350 -0.3794
   48MOL0     C 6383   8.064   0.474   3.028 -0.3968 -0.1356 -0.1985
   48MOL0     C 6384   8.160   0.511   2.911  0.7666 -0.1557  0.6586
   48MOL0     C 6385   8.291   0.432   2.894  0.6076 -0.1545 -0.8339
   48MOL0     C 6386   8.327   0.395   2.750 -0.0306 -0.4553  0.4617
   48MOL0     C 6387   8.396   0.512   2.665  1.0817  0.8054  0.5737
   48MOL0     C 6388   8.332   0.522   2.522  0.6422 -0.3043  0.2661
   48MOL0    Cl 6389   8.168   0.595   2.541 -0.3919 -0.1097  0.5049
   48MOL0     C 6390   7.757   0.553   2.646 -0.9373  0.7648  0.6967
   48MOL0     C 6391   7.747   0.518   2.516  0.2240  0.3068 -0.3270
   48MOL0     O 6392   7.485   0.286   2.298 -0.2611  0.0683  0.7299
   48MOL0     C 6393   7.763   0.280   2.074  0.3966  0.3835  0.6198
   48MOL0     C 6394   7.792   0.252   1.942 -0.1023 -0.0425 -0.5377
   48MOL0     N 6395   7.629   0.678   1.416 -0.5779 -0.0215 -0.4285
   48MOL0     N 6396   7.601   0.763   1.324  0.3088  0.5044  1.3551
   48MOL0     C 6397   6.625   0.321   0.645 -0.0220  0.4110  0.2743
   48MOL0     C 6398   6.504   0.320   0.578 -0.1258  0.6505 -0.6328
   48MOL0     C 6399   6.121   0.463   0.378  0.3106  0.2252 -0.4324
   48MOL0     C 6400   6.102   0.495   0.242 -0.4963 -0.6635 -0.4098
   48MOL0     C 6401   5.978   0.479   0.179  0.1306 -0.1542  0.1670
   48MOL0     C 6402   5.866   0.421   0.237 -0.0896  0.2284 -0.1566
   48MOL0     O 6403   5.746   0.393   0.184 -0.4148 -0.1080  0.4276
   48MOL0     C 6404   5.725   0.436   0.043 -0.2549  0.7367  0.3309
   48MOL0     C 6405   5.574   0.469   0.039 -0.2966  0.2245  0.3610
   48MOL0     C 6406   5.532   0.570   0.148  0.4222 -0.6375  0.6573
   48MOL0     C 6407   5.600   0.713   0.154 -0.6233  0.3861  0.3058
   48MOL0     C 6408   5.608   0.790   0.022 -0.4165  0.2224 -0.7575
   48MOL0     C 6409   5.626   0.833  -0.089  0.1257 -0.2489 -0.9414
   48MOL0     C 6410   5.886   0.385   0.367  0.5345 -0.1754  0.3129
   48MOL0     C 6411   6.004   0.406   0.438 -0.0163 -0.4735 -0.5469
   48MOL0     C 6412   6.008   0.372   0.584 -0.7228 -0.0309  0.2572
   48MOL0     H 6413   6.547   0.607   0.397  2.6205  0.5642 -0.3571
   48MOL0     H 6414   6.741   0.624   0.541  0.1071 -1.0233 -2.7551
   48MOL0     H 6415   7.021   0.393   0.615  0.8857  0.2067  0.8738
   48MOL0     H 6416   6.942   0.545   0.573 -3.1078 -1.7528 -1.2877
   48MOL0     H 6417   6.982   0.479   0.869 -0.6311  1.2666  0.6986
   48MOL0     H 6418   6.923   0.616   0.795 -2.2252 -0.4334 -1.8892
   48MOL0     H 6419   7.159   0.655   0.691 -0.8444 -0.0764  0.3093
   48MOL0     H 6420   7.208   0.497   0.755 -2.2451 -1.1780  0.9846
   48MOL0     H 6421   7.164   0.746   0.929  1.0990 -0.1984  1.9238
   48MOL0     H 6422   7.173   0.570   0.984 -0.0534  1.2695  1.9240
   48MOL0     H 6423   7.386   0.540   0.915 -0.7642  0.2848 -0.5391
   48MOL0     H 6424   7.380   0.675   0.805  1.5847  0.7340  0.7458
   48MOL0     H 6425   7.374   0.822   1.005  2.7218  0.5815 -0.1798
   48MOL0     H 6426   7.415   0.669   1.090  0.3207 -3.8169 -2.4401
   48MOL0     H 6427   7.587   0.773   0.873  0.2123 -0.6270 -0.6276
   48MOL0     H 6428   7.612   0.621   0.968  0.2390  0.4705  0.0330
   48MOL0     H 6429   7.736   0.824   1.032 -1.8324 -1.8235 -2.7498
   48MOL0     H 6430   7.579   0.884   1.111 -1.1876  0.1044 -0.3801
   48MOL0     H 6431   7.820   0.584   1.161  1.3810  1.4662  1.4241
   48MOL0     H 6432   7.901   0.489   1.379 -1.1270 -0.3173 -1.3437
   48MOL0     H 6433   7.839   0.531   1.538  0.7865 -0.1872  0.6543
   48MOL0     H 6434   7.644   0.378   1.503  0.4088 -0.8680  0.6456
   48MOL0     H 6435   7.692   0.343   1.348  0.8811  0.5747  0.4415
   48MOL0     H 6436   7.927   0.264   1.450 -0.6240 -2.8494 -1.2971
   48MOL0     H 6437   7.791   0.163   1.457 -3.1015  2.0884 -1.2226
   48MOL0     H 6438   7.878   0.336   1.687 -0.1698  0.8325 -0.5256
   48MOL0     H 6439   7.891   0.156   1.693 -0.1184 -0.0410 -1.5118
   48MOL0     H 6440   7.471   0.315   1.822  0.7099 -3.1464 -0.2506
   48MOL0     H 6441   7.443   0.373   2.060 -0.4827 -0.5862 -0.0588
   48MOL0     H 6442   7.546   0.247   2.554  0.3184 -0.8453  1.5931
   48MOL0     H 6443   7.584   0.302   2.786 -1.2893  0.2082 -0.6149
   48MOL0     H 6444   7.889   0.620   2.861  1.7990  0.5455  1.8900
   48MOL0     H 6445   7.796   0.626   3.014  1.5162  0.3085  1.3794
   48MOL0     H 6446   7.861   0.410   3.070  0.9547 -2.0739 -0.6487
   48MOL0     H 6447   7.925   0.359   2.917 -2.7554 -0.8525  0.6951
   48MOL0     H 6448   8.066   0.555   3.101  2.0679 -2.4558  2.5342
   48MOL0     H 6449   8.110   0.392   3.083  0.3496  0.0516 -0.5338
   48MOL0     H 6450   8.172   0.619   2.929  1.0093 -0.1694  0.5782
   48MOL0     H 6451   8.114   0.495   2.814  0.8087 -1.3717  0.8323
   48MOL0     H 6452   8.279   0.341   2.954  2.5763  1.5708  2.4232
   48MOL0     H 6453   8.381   0.469   2.943  2.1459 -4.1466 -0.2246
   48MOL0     H 6454   8.402   0.315   2.757 -1.3703 -1.7936 -0.0700
   48MOL0     H 6455   8.231   0.369   2.705 -0.7957  0.7506  1.3557
   48MOL0     H 6456   8.504   0.497   2.672  0.6405 -2.4110  2.8896
   48MOL0     H 6457   8.368   0.610   2.706 -2.2241  2.1958 -4.1016
   48MOL0     H 6458   8.396   0.591   2.467 -0.0725  0.3584  0.2507
   48MOL0     H 6459   8.341   0.429   2.465  1.4266 -0.1620  0.1574
   48MOL0     H 6460   7.829   0.633   2.658  1.2198 -1.3605  3.0465
   48MOL0     H 6461   7.789   0.576   2.434  1.5164  2.5387  1.7621
   48MOL0     H 6462   7.848   0.282   2.142  3.1150  5.3748 -2.3550
   48MOL0     H 6463   7.886   0.202   1.923  0.4923  0.3057  1.3157
   48MOL0     H 6464   6.643   0.242   0.718  0.5950  1.2398  1.0484
   48MOL0     H 6465   6.440   0.233   0.590  0.6687 -0.0797 -1.5791
   48MOL0     H 6466   6.191   0.533   0.193 -0.2855  0.6388  0.9166
   48MOL0     H 6467   5.986   0.505   0.074  0.6855  1.4492  0.5817
   48MOL0     H 6468   5.742   0.361  -0.036  2.2586  1.7232 -0.1653
   48MOL0     H 6469   5.782   0.524   0.012  0.1967 -0.0573 -1.2239
   48MOL0     H 6470   5.523   0.373   0.046  0.4640 -0.3292 -1.2568
   48MOL0     H 6471   5.553   0.503  -0.063  2.6458 -0.1103 -0.4397
   48MOL0     H 6472   5.556   0.529   0.246  0.3453 -3.4882 -0.4028
   48MOL0     H 6473   5.424   0.581   0.130  0.8544  0.0839 -1.8333
   48MOL0     H 6474   5.556   0.772   0.235  2.1369  1.6616  1.0135
   48MOL0     H 6475   5.701   0.696   0.195 -0.0318  1.0407 -0.8337
   48MOL0     H 6476   5.648   0.880  -0.183  3.9308  2.8496  1.2379
   48MOL0     H 6477   5.802   0.334   0.413 -0.8105  1.2635 -0.4611
   48MOL0     H 6478   6.104   0.336   0.620 -0.0087  0.8807 -0.6936
   48MOL0     H 6479   5.990   0.470   0.629  4.8317  1.1240  0.6623
   48MOL0     H 6480   5.931   0.298   0.609  0.0768 -1.1421 -0.4791
   49MOL0     O 6481   1.074   7.141   7.730 -0.1253  0.5717 -0.6674
   49MOL0     C 6482   1.177   7.161   7.798 -0.4309  0.3797  0.2572
   49MOL0     O 6483   1.303   7.145   7.739 -0.3133  0.3198 -0.0868
   49MOL0     C 6484   1.326   7.123   7.607  0.5795  0.2531 -0.5636
   49MOL0     C 6485   1.384   7.221   7.530 -0.3810  0.4801  0.0861
   49MOL0     C 6486   1.396   7.207   7.395  0.8782 -0.9151  0.8382
   49MOL0     C 6487   1.338   7.107   7.315  0.8954 -1.2544 -0.3046
   49MOL0     O 6488   1.330   7.106   7.182 -0.3836 -0.0680  0.2687
   49MOL0     C 6489   1.387   7.213   7.103 -0.7670  0.2600 -0.2398
   49MOL0     C 6490   1.367   7.173   6.956 -0.3025  0.6608  0.2660
   49MOL0     C 6491   1.422   7.284   6.868  0.3422  0.7313  0.0290
   49MOL0     C 6492   1.418   7.239   6.723 -0.9484  0.0408  0.1473
   49MOL0     C 6493   1.454   7.347   6.628 -0.7243 -0.8074 -1.2072
   49MOL0     C 6494   1.457   7.299   6.491  0.3698 -0.6408  0.6508
   49MOL0     C 6495   1.507   7.406   6.397 -0.3250  0.7739 -0.8111
   49MOL0     C 6496   1.487   7.376   6.246  0.5488 -0.3614  0.8624
   49MOL0     N 6497   1.507   7.492   6.158 -0.1163  0.4765 -0.6442
   49MOL0     C 6498   1.614   7.576   6.149 -0.8025  0.3199 -0.2833
   49MOL0     C 6499   1.572   7.659   6.057 -0.5636  0.3064  0.0009
   49MOL0     C 6500   1.639   7.783   6.003  0.5781 -0.5339  0.0508
   49MOL0     C 6501   1.782   7.763   5.946  0.0342  0.2871  0.4434
   49MOL0     C 6502   1.812   7.887   5.858  0.5010 -0.3116 -0.4940
   49MOL0     C 6503   1.962   7.898   5.827 -0.4377 -0.3125  0.3519
   49MOL0     O 6504   2.000   8.029   5.767  0.1317 -0.4105 -0.2291
   49MOL0     C 6505   2.134   8.055   5.736 -0.5625 -0.4096  0.3309
   49MOL0     C 6506   2.165   8.188   5.696 -0.5124 -0.8413  0.7839
   49MOL0     C 6507   2.291   8.223   5.656 -0.1390  0.3807  0.0463
   49MOL0     C 6508   2.397   8.132   5.677 -0.0010 -0.2911 -0.0025
   49MOL0     C 6509   2.533   8.183   5.646 -0.4739 -0.2747 -0.2457
   49MOL0     O 6510   2.634   8.092   5.643 -0.0404 -0.0369  0.1506
   49MOL0     C 6511   2.751   8.131   5.587 -0.5408 -1.2885 -0.1820
   49MOL0     C 6512   2.872   8.101   5.652 -0.5492 -0.5656 -0.9130
   49MOL0     C 6513   2.999   8.119   5.598 -0.4518 -0.4853  0.3259
   49MOL0     C 6514   3.011   8.184   5.476 -0.2287 -0.3933  0.9085
   49MOL0     O 6515   3.130   8.199   5.415  0.0509 -0.4754  0.4970
   49MOL0     C 6516   3.149   8.154   5.276 -0.5452 -0.3554 -0.7621
   49MOL0     C 6517   3.288   8.195   5.236  0.5225  1.0951 -0.5807
   49MOL0     C 6518   3.308   8.337   5.278 -0.1150  1.4619 -0.3892
   49MOL0     C 6519   3.417   8.401   5.198 -0.0387  0.7797 -0.7036
   49MOL0     C 6520   3.452   8.543   5.265  0.4899 -0.2276 -0.0530
   49MOL0     C 6521   3.583   8.590   5.195  0.2152  0.2084  0.9441
   49MOL0     C 6522   3.597   8.749   5.187 -0.0351  0.5964  0.1183
   49MOL0     C 6523   3.685   8.784   5.302 -0.1471 -0.2505  0.4244
   49MOL0    Cl 6524   3.708   8.956   5.311  0.3515 -0.0122  0.2641
   49MOL0     C 6525   2.892   8.228   5.413  0.6549 -0.5149  0.2503
   49MOL0     C 6526   2.766   8.201   5.467 -0.8744 -0.3376 -0.0152
   49MOL0     O 6527   2.546   8.302   5.631  0.2155  0.4576 -0.2794
   49MOL0     C 6528   2.366   7.996   5.720 -0.8249 -0.7979  0.3110
   49MOL0     C 6529   2.233   7.950   5.739  0.4673  0.6510 -0.1110
   49MOL0     N 6530   1.438   7.632   6.017 -0.8231  0.3100  1.1691
   49MOL0     N 6531   1.405   7.528   6.083 -0.0539 -0.0291 -0.4675
   49MOL0     C 6532   1.291   7.000   7.396 -0.8263 -0.5684  0.5855
   49MOL0     C 6533   1.288   7.011   7.538 -0.4704  0.4808  0.1444
   49MOL0     C 6534   1.176   7.232   7.920 -0.0842  0.1856 -0.3549
   49MOL0     C 6535   1.287   7.314   7.949 -0.6344  0.3310  0.5410
   49MOL0     C 6536   1.288   7.389   8.069  0.3300  0.6994 -0.6101
   49MOL0     C 6537   1.193   7.377   8.167 -0.8871  0.1048  0.3847
   49MOL0     O 6538   1.178   7.444   8.288 -0.4267  0.5467  0.1686
   49MOL0     C 6539   1.277   7.541   8.328 -0.9877 -1.2714 -0.0682
   49MOL0     C 6540   1.251   7.584   8.473  0.2908  0.6502  0.2460
   49MOL0     C 6541   1.297   7.463   8.577  0.2690 -1.3814  0.6134
   49MOL0     C 6542   1.261   7.498   8.723  0.6937  0.3920  0.3797
   49MOL0     C 6543   1.270   7.382   8.796  0.4472 -0.2927 -0.2984
   49MOL0     C 6544   1.268   7.266   8.845  0.1020 -0.3010 -0.4193
   49MOL0     C 6545   1.092   7.287   8.144  0.5195  0.6434  0.7260
   49MOL0     C 6546   1.074   7.216   8.020  0.4269  0.0119  0.2779
   49MOL0     C 6547   0.957   7.119   7.998  0.6469 -0.2871  0.7134
   49MOL0     H 6548   1.430   7.294   7.596  1.5210 -2.1743  1.9215
   49MOL0     H 6549   1.460   7.280   7.346  0.2804 -0.8583  0.1348
   49MOL0     H 6550   1.326   7.303   7.114 -1.2212  0.1921 -1.9552
   49MOL0     H 6551   1.495   7.223   7.118 -0.3925  2.3831 -3.4322
   49MOL0     H 6552   1.263   7.143   6.938  0.6202 -2.9705  0.0390
   49MOL0     H 6553   1.419   7.077   6.944 -2.3454 -0.8215  2.4222
   49MOL0     H 6554   1.525   7.313   6.891  1.2885  0.9398 -3.7950
   49MOL0     H 6555   1.348   7.364   6.876 -1.7891 -0.7834 -2.7677
   49MOL0     H 6556   1.487   7.155   6.709 -3.3485 -2.0906  0.3087
   49MOL0     H 6557   1.317   7.204   6.701 -2.2492  2.9902  0.9178
   49MOL0     H 6558   1.388   7.433   6.640 -1.4713 -1.5520  0.2297
   49MOL0     H 6559   1.557   7.383   6.634 -0.6055 -0.8515 -2.5261
   49MOL0     H 6560   1.520   7.211   6.481  2.2337  0.4894  1.8124
   49MOL0     H 6561   1.356   7.275   6.457 -0.1506 -0.4151  1.9953
   49MOL0     H 6562   1.614   7.412   6.421 -0.0292 -1.0556 -1.4527
   49MOL0     H 6563   1.454   7.496   6.427  2.8991  2.9601 -1.2157
   49MOL0     H 6564   1.548   7.292   6.213  0.0116 -0.0935 -0.9008
   49MOL0     H 6565   1.381   7.353   6.237 -0.2234  2.8996  0.2875
   49MOL0     H 6566   1.712   7.563   6.193  2.7153  3.0013 -6.1186
   49MOL0     H 6567   1.570   7.819   5.926 -0.5639 -1.3819  0.6338
   49MOL0     H 6568   1.643   7.858   6.083  2.3232  0.6661 -1.1185
   49MOL0     H 6569   1.852   7.747   6.029 -1.9581 -0.1768  2.1017
   49MOL0     H 6570   1.773   7.672   5.887  1.7413 -0.4802  1.2739
   49MOL0     H 6571   1.777   7.976   5.912  0.8595 -0.5804  0.1931
   49MOL0     H 6572   1.754   7.880   5.766 -0.3733 -0.0267  0.0248
   49MOL0     H 6573   1.988   7.812   5.766  2.0905 -0.1903  1.1396
   49MOL0     H 6574   2.026   7.871   5.912  3.0209 -2.6086 -2.6771
   49MOL0     H 6575   2.086   8.262   5.699 -0.5443 -0.9079  2.0245
   49MOL0     H 6576   2.313   8.321   5.614  1.8650  0.0935  0.3607
   49MOL0     H 6577   2.881   8.051   5.748  2.1227 -2.4667 -2.0165
   49MOL0     H 6578   3.083   8.102   5.664  1.1082  1.7887 -0.9039
   49MOL0     H 6579   3.151   8.045   5.286  2.5260 -0.6481 -3.0022
   49MOL0     H 6580   3.074   8.194   5.208  0.1822  2.1029 -0.2323
   49MOL0     H 6581   3.360   8.130   5.288 -1.4828 -0.3310  0.5479
   49MOL0     H 6582   3.294   8.186   5.127 -0.7720 -0.5970 -0.5684
   49MOL0     H 6583   3.220   8.391   5.243 -0.9540 -0.2626 -1.0371
   49MOL0     H 6584   3.329   8.348   5.385 -3.0578 -0.8498  0.5406
   49MOL0     H 6585   3.373   8.406   5.098 -1.1520 -2.8410 -0.5441
   49MOL0     H 6586   3.512   8.348   5.188  1.2002  2.8676 -0.7963
   49MOL0     H 6587   3.472   8.534   5.372 -1.2321 -1.1171  0.2353
   49MOL0     H 6588   3.369   8.614   5.260 -4.2900 -5.0835  0.4197
   49MOL0     H 6589   3.668   8.540   5.244 -1.1807 -1.9173  1.3372
   49MOL0     H 6590   3.579   8.553   5.092 -1.2536  0.8026  0.7782
   49MOL0     H 6591   3.506   8.809   5.182  0.2031  1.1718  1.9995
   49MOL0     H 6592   3.661   8.764   5.099  1.2421 -1.7022  0.5737
   49MOL0     H 6593   3.643   8.735   5.390  0.1147 -4.4294 -1.5009
   49MOL0     H 6594   3.785   8.742   5.289  2.0012  3.5946  2.5176
   49MOL0     H 6595   2.902   8.274   5.315  0.7883  0.7031  0.8148
   49MOL0     H 6596   2.683   8.247   5.413 -1.7167 -1.0936  0.6140
   49MOL0     H 6597   2.445   7.922   5.716 -0.7395 -0.7548 -4.4693
   49MOL0     H 6598   2.224   7.849   5.777 -1.1877  0.8189 -0.0082
   49MOL0     H 6599   1.248   6.919   7.338 -0.6506  1.1491 -2.1621
   49MOL0     H 6600   1.237   6.936   7.598  1.2124  1.1108  2.5095
   49MOL0     H 6601   1.372   7.330   7.883  1.0759 -0.1874  2.5141
   49MOL0     H 6602   1.370   7.458   8.083 -1.7389  4.1654 -3.7648
   49MOL0     H 6603   1.258   7.627   8.263 -1.6054 -2.0036 -0.8800
   49MOL0     H 6604   1.375   7.506   8.296 -0.5195 -0.5980  0.5894
   49MOL0     H 6605   1.142   7.593   8.481  0.0641  0.9172 -2.2186
   49MOL0     H 6606   1.296   7.680   8.499  2.6343 -0.4690  0.5991
   49MOL0     H 6607   1.400   7.425   8.575 -0.3345 -3.2068 -2.3413
   49MOL0     H 6608   1.232   7.386   8.534 -1.4271  1.3650 -2.2006
   49MOL0     H 6609   1.323   7.580   8.759 -1.1541  2.1774 -0.3167
   49MOL0     H 6610   1.158   7.534   8.712  1.6760  2.4595 -3.5706
   49MOL0     H 6611   1.267   7.171   8.895 -1.6111 -1.0725 -1.8079
   49MOL0     H 6612   1.015   7.279   8.219  0.3100 -3.5128  0.3166
   49MOL0     H 6613   0.980   7.012   7.986  0.8948 -0.0226 -1.7219
   49MOL0     H 6614   0.896   7.126   8.088 -1.1094  3.7049 -0.5630
   49MOL0     H 6615   0.896   7.157   7.916 -0.1211 -3.3510 -0.2739
   50MOL0     O 6616   3.492   3.964   5.680  0.2873 -0.5934  0.5474
   50MOL0     C 6617   3.550   3.929   5.579 -0.6524  0.2678 -0.6968
   50MOL0     O 6618   3.689   3.948   5.561 -0.5591 -0.6421  0.2784
   50MOL0     C 6619   3.757   4.022   5.661 -0.7135 -1.0015  1.1281
   50MOL0     C 6620   3.787   4.162   5.641 -0.1740 -0.2502  0.2439
   50MOL0     C 6621   3.850   4.231   5.743  0.4291  0.0170  0.4423
   50MOL0     C 6622   3.876   4.177   5.867  0.4348 -0.4665  0.0580
   50MOL0     O 6623   3.959   4.251   5.955  0.2693  0.0264  0.1006
   50MOL0     C 6624   3.898   4.275   6.086 -0.2088  0.3483  0.8499
   50MOL0     C 6625   3.954   4.186   6.196  0.0410  0.3313  0.1112
   50MOL0     C 6626   4.105   4.205   6.215  0.4015 -0.3710 -0.6783
   50MOL0     C 6627   4.151   4.134   6.342 -0.4820 -0.6835 -0.0383
   50MOL0     C 6628   4.299   4.166   6.360  0.2428 -0.3279 -0.7899
   50MOL0     C 6629   4.358   4.090   6.477 -0.7656 -0.7027  0.5838
   50MOL0     C 6630   4.506   4.124   6.494  0.1168  1.0206 -0.5002
   50MOL0     C 6631   4.605   4.052   6.403  0.4713  0.7065 -0.0806
   50MOL0     N 6632   4.739   4.112   6.404  0.0575  0.5378 -0.0713
   50MOL0     C 6633   4.816   4.143   6.518  0.8828  0.4319 -0.2598
   50MOL0     C 6634   4.931   4.188   6.463 -0.4084 -0.2708 -0.7749
   50MOL0     C 6635   5.046   4.233   6.542 -0.8124 -0.0831 -0.1792
   50MOL0     C 6636   5.021   4.367   6.609  0.5668  0.6545 -0.2631
   50MOL0     C 6637   5.141   4.418   6.683  0.5311 -0.3529  0.1850
   50MOL0     C 6638   5.095   4.495   6.810  0.3075 -0.0611 -0.2107
   50MOL0     O 6639   5.212   4.554   6.878 -0.0342 -0.5204 -0.2978
   50MOL0     C 6640   5.185   4.632   6.987 -1.1353  0.6187 -0.8325
   50MOL0     C 6641   5.060   4.649   7.051  0.0964  0.5401 -1.6103
   50MOL0     C 6642   5.047   4.734   7.159 -0.7965 -0.6002 -0.6722
   50MOL0     C 6643   5.148   4.831   7.195  0.9532  0.0764  0.3942
   50MOL0     C 6644   5.117   4.933   7.292 -0.3452  0.8805 -0.1709
   50MOL0     O 6645   5.205   5.029   7.307  0.1844  0.1858  0.9172
   50MOL0     C 6646   5.193   5.118   7.406  0.2331 -0.6702 -1.0113
   50MOL0     C 6647   5.195   5.094   7.549  0.3905  1.0987  0.8353
   50MOL0     C 6648   5.180   5.201   7.633 -0.2231 -0.2979  0.0947
   50MOL0     C 6649   5.176   5.337   7.592  1.1178  0.8369 -0.3682
   50MOL0     O 6650   5.181   5.449   7.672  0.4701 -0.5475  0.2239
   50MOL0     C 6651   5.181   5.435   7.808 -0.6118  0.7461 -0.1037
   50MOL0     C 6652   5.120   5.548   7.900  1.0642  0.8569  0.2585
   50MOL0     C 6653   4.965   5.541   7.888  0.0970  0.3184  0.0221
   50MOL0     C 6654   4.912   5.626   7.780 -0.0798 -0.0784 -0.2748
   50MOL0     C 6655   4.767   5.677   7.786 -0.4521  0.7930  0.3205
   50MOL0     C 6656   4.726   5.716   7.647 -0.3890  0.1360 -0.1761
   50MOL0     C 6657   4.590   5.787   7.638 -0.4565  0.2548  0.7911
   50MOL0     C 6658   4.567   5.867   7.506  0.0186  0.1882  0.3634
   50MOL0    Cl 6659   4.549   5.744   7.375  0.0929 -0.1711 -0.2335
   50MOL0     C 6660   5.185   5.361   7.454 -0.8568  0.9610 -0.1525
   50MOL0     C 6661   5.202   5.260   7.361 -0.5126  0.8807  0.0185
   50MOL0     O 6662   5.016   4.908   7.361 -0.4304 -0.1906 -0.2495
   50MOL0     C 6663   5.267   4.816   7.135 -0.2838 -0.4181  0.1266
   50MOL0     C 6664   5.289   4.719   7.036  1.0367 -0.6813 -0.7515
   50MOL0     N 6665   4.923   4.193   6.330  0.0627 -0.6385 -0.5831
   50MOL0     N 6666   4.811   4.153   6.294 -0.0878 -0.1761 -0.3854
   50MOL0     C 6667   3.844   4.040   5.889 -0.0868 -0.2297  0.2699
   50MOL0     C 6668   3.792   3.965   5.782 -0.3581  0.9421 -0.4560
   50MOL0     C 6669   3.477   3.858   5.487 -0.0348 -0.0854  0.4993
   50MOL0     C 6670   3.556   3.761   5.417 -0.3065  0.0895 -0.8087
   50MOL0     C 6671   3.496   3.673   5.327  0.6099  1.4137 -0.1767
   50MOL0     C 6672   3.358   3.671   5.299 -0.0206  0.4257 -0.0934
   50MOL0     O 6673   3.316   3.581   5.202  0.4910  0.4576 -0.0770
   50MOL0     C 6674   3.188   3.604   5.129 -0.5187 -0.6879 -1.3929
   50MOL0     C 6675   3.198   3.553   4.989 -0.8890  0.0232  0.3135
   50MOL0     C 6676   3.275   3.660   4.907 -1.1839  0.1592 -0.4414
   50MOL0     C 6677   3.309   3.606   4.768 -0.8833 -0.4608  0.3839
   50MOL0     C 6678   3.180   3.592   4.691  0.5054 -0.6433 -0.0047
   50MOL0     C 6679   3.065   3.571   4.643 -0.7385  0.3413  0.2920
   50MOL0     C 6680   3.281   3.770   5.362 -0.1505 -0.1680  0.2690
   50MOL0     C 6681   3.329   3.861   5.459 -1.4812  0.0749 -0.2460
   50MOL0     C 6682   3.225   3.949   5.525 -0.4116  0.6639  0.2261
   50MOL0     H 6683   3.777   4.203   5.542  1.6772  0.9075  0.4852
   50MOL0     H 6684   3.887   4.332   5.726 -0.7455  0.7204  1.7488
   50MOL0     H 6685   3.905   4.381   6.111 -2.2747  1.3576 -2.2733
   50MOL0     H 6686   3.792   4.246   6.086  0.2690 -1.8141 -1.4725
   50MOL0     H 6687   3.942   4.081   6.166  1.0661  0.3844 -0.5557
   50MOL0     H 6688   3.905   4.206   6.291  0.9486 -3.4631  1.5614
   50MOL0     H 6689   4.125   4.311   6.232  1.3533 -0.6945  0.3231
   50MOL0     H 6690   4.169   4.175   6.132  3.2429 -0.2279  1.3140
   50MOL0     H 6691   4.082   4.187   6.409 -2.8684 -0.0225 -2.8064
   50MOL0     H 6692   4.124   4.028   6.337 -3.6810 -0.2075  2.9176
   50MOL0     H 6693   4.359   4.133   6.274  1.4255 -4.5443  1.3739
   50MOL0     H 6694   4.321   4.272   6.378  1.6350 -0.9399  1.4735
   50MOL0     H 6695   4.291   4.119   6.559 -1.7150  1.9122 -0.9704
   50MOL0     H 6696   4.359   3.981   6.465  1.3266 -0.8724  1.9287
   50MOL0     H 6697   4.527   4.094   6.597  0.7581 -0.5112 -1.0425
   50MOL0     H 6698   4.512   4.232   6.482 -1.7057  1.0201 -1.7000
   50MOL0     H 6699   4.599   3.946   6.430 -1.4358  1.0331  0.9058
   50MOL0     H 6700   4.560   4.053   6.303 -0.6960 -1.2479  0.3626
   50MOL0     H 6701   4.813   4.134   6.626  0.4159  1.6687 -0.1599
   50MOL0     H 6702   5.077   4.157   6.614  0.7292  2.1432  1.6206
   50MOL0     H 6703   5.133   4.250   6.478  1.9259 -0.6648  3.1009
   50MOL0     H 6704   4.988   4.441   6.536  2.8507  1.2299 -0.7964
   50MOL0     H 6705   4.941   4.361   6.684 -1.1621  1.5286 -1.9592
   50MOL0     H 6706   5.193   4.479   6.608  0.6635 -2.5964 -1.6670
   50MOL0     H 6707   5.214   4.338   6.701  0.9269  0.4537  2.4925
   50MOL0     H 6708   5.036   4.431   6.875  1.5492 -0.7202  0.3034
   50MOL0     H 6709   5.022   4.569   6.775  0.6474 -0.4611 -1.8900
   50MOL0     H 6710   4.965   4.604   7.022 -0.1451  1.0576 -1.6310
   50MOL0     H 6711   4.945   4.732   7.198 -0.7400 -3.0259 -0.4999
   50MOL0     H 6712   5.214   4.990   7.575 -2.3562  0.6179  1.2421
   50MOL0     H 6713   5.184   5.180   7.740  0.4162  1.7731  0.5283
   50MOL0     H 6714   5.168   5.331   7.839  2.2864  0.0842 -0.8391
   50MOL0     H 6715   5.288   5.455   7.822 -0.3325  1.6745 -3.0056
   50MOL0     H 6716   5.139   5.512   8.002 -5.1344 -0.6431  1.2943
   50MOL0     H 6717   5.156   5.646   7.867  1.4115 -0.1194 -2.5355
   50MOL0     H 6718   4.923   5.439   7.886  1.2677 -0.1673 -1.4068
   50MOL0     H 6719   4.932   5.585   7.983  0.8825 -0.4693  0.6760
   50MOL0     H 6720   4.910   5.555   7.696  0.1192  0.7232 -0.9645
   50MOL0     H 6721   4.982   5.703   7.747  1.3350 -2.1052 -2.3788
   50MOL0     H 6722   4.747   5.750   7.866  1.8929 -0.2395  1.9815
   50MOL0     H 6723   4.717   5.581   7.803  0.8472  0.3781  2.0924
   50MOL0     H 6724   4.806   5.777   7.603  1.9457  0.1728  3.6538
   50MOL0     H 6725   4.713   5.626   7.585 -1.9798 -0.3153  0.7573
   50MOL0     H 6726   4.588   5.856   7.723 -0.3066  0.2721  0.7804
   50MOL0     H 6727   4.510   5.712   7.649  0.0675 -0.3325  0.6916
   50MOL0     H 6728   4.473   5.924   7.509  0.0188  0.4704 -2.6120
   50MOL0     H 6729   4.648   5.939   7.494 -0.9405  1.2750  0.2409
   50MOL0     H 6730   5.160   5.463   7.425 -4.0416  0.3358  0.0077
   50MOL0     H 6731   5.224   5.294   7.260  0.1130  1.3262  0.3012
   50MOL0     H 6732   5.350   4.879   7.164  0.4745 -1.2844 -0.0864
   50MOL0     H 6733   5.383   4.712   6.982  2.2901  0.8651  1.1014
   50MOL0     H 6734   3.837   3.999   5.989 -5.0874  0.8524  0.6344
   50MOL0     H 6735   3.786   3.857   5.791  1.1072  0.7141 -1.7958
   50MOL0     H 6736   3.663   3.761   5.432 -0.4297  5.0401  2.5655
   50MOL0     H 6737   3.560   3.598   5.281 -1.9397 -0.2567 -1.2562
   50MOL0     H 6738   3.166   3.711   5.124  2.2588  0.2036  1.7044
   50MOL0     H 6739   3.130   3.546   5.203  1.3963  1.7649  2.3583
   50MOL0     H 6740   3.096   3.561   4.951 -0.1952 -0.4970 -1.7732
   50MOL0     H 6741   3.243   3.455   4.972  1.4847  1.0792  0.1091
   50MOL0     H 6742   3.366   3.681   4.964 -0.6583  2.4183 -1.9871
   50MOL0     H 6743   3.221   3.756   4.905  1.0081  1.4733  0.4026
   50MOL0     H 6744   3.390   3.665   4.725  0.4050 -0.6185  2.4375
   50MOL0     H 6745   3.349   3.504   4.770  1.4411  0.3974  0.5963
   50MOL0     H 6746   2.968   3.543   4.605  0.3555 -0.4043 -2.1740
   50MOL0     H 6747   3.175   3.772   5.338  0.6422 -0.7939 -3.9026
   50MOL0     H 6748   3.130   3.955   5.471  0.2937  0.8702 -1.0254
   50MOL0     H 6749   3.205   3.932   5.631 -3.2046  2.4904  0.0979
   50MOL0     H 6750   3.268   4.050   5.533  3.1249 -0.6394 -0.6694
   51MOL0     O 6751   9.809   6.356   6.098  0.6384 -0.8509  0.4888
   51MOL0     C 6752   9.687   6.372   6.063 -0.9660  0.2617  0.0423
   51MOL0     O 6753   9.579   6.318   6.139 -0.3031  0.0006  1.1815
   51MOL0     C 6754   9.613   6.264   6.257 -0.2624  0.3911 -0.5781
   51MOL0     C 6755   9.632   6.345   6.366 -0.2466  0.2749  0.6704
   51MOL0     C 6756   9.671   6.297   6.487  0.1036  0.0758 -0.6635
   51MOL0     C 6757   9.696   6.169   6.503 -0.4582  0.1754  0.8289
   51MOL0     O 6758   9.706   6.114   6.624  0.1503 -0.0696 -1.0913
   51MOL0     C 6759   9.612   6.157   6.716 -0.2755 -0.2355 -1.0502
   51MOL0     C 6760   9.602   6.075   6.854  1.0540 -1.2412 -0.3116
   51MOL0     C 6761   9.552   5.935   6.826  0.3409 -0.7376 -0.1352
   51MOL0     C 6762   9.401   5.926   6.784 -0.7943  1.2631 -0.0161
   51MOL0     C 6763   9.301   5.982   6.889  0.0401 -0.1487 -0.5378
   51MOL0     C 6764   9.154   5.953   6.846  0.1770  0.4377  0.1309
   51MOL0     C 6765   9.094   5.814   6.901  0.8471 -0.3168 -0.0410
   51MOL0     C 6766   9.093   5.823   7.058  0.1850  0.2887  0.1948
   51MOL0     N 6767   9.007   5.928   7.096 -0.4174  0.6621  0.4531
   51MOL0     C 6768   8.877   5.943   7.052  0.0134  0.1804  0.1754
   51MOL0     C 6769   8.848   6.073   7.084  0.1855 -0.0632  0.3117
   51MOL0     C 6770   8.734   6.159   7.033  0.2326 -0.5798  0.6090
   51MOL0     C 6771   8.759   6.197   6.887 -1.0745 -0.0900  0.1263
   51MOL0     C 6772   8.656   6.289   6.834  1.0116 -0.4275  0.0078
   51MOL0     C 6773   8.683   6.308   6.681  0.0695 -0.7629  0.6381
   51MOL0     O 6774   8.649   6.192   6.602 -0.1044  0.4000  0.5980
   51MOL0     C 6775   8.664   6.203   6.470  0.0808  0.3696  0.6317
   51MOL0     C 6776   8.744   6.297   6.402  1.2526 -0.3845 -0.5730
   51MOL0     C 6777   8.773   6.277   6.265  0.1763  1.1247 -1.1299
   51MOL0     C 6778   8.703   6.189   6.185 -0.6643 -0.6256 -0.4942
   51MOL0     C 6779   8.717   6.188   6.040  1.2537  0.7480 -0.1318
   51MOL0     O 6780   8.813   6.261   5.982  0.2296 -0.0891 -0.0996
   51MOL0     C 6781   8.792   6.306   5.858 -0.0121  0.6742 -1.1075
   51MOL0     C 6782   8.688   6.387   5.824  0.2217 -0.5511  0.7036
   51MOL0     C 6783   8.682   6.440   5.689 -0.6136 -0.4472 -0.5527
   51MOL0     C 6784   8.798   6.420   5.601 -0.4807  0.2262 -0.8855
   51MOL0     O 6785   8.836   6.501   5.500 -0.2925  0.0909  0.3596
   51MOL0     C 6786   8.757   6.629   5.483  0.0150  0.8267  0.6047
   51MOL0     C 6787   8.808   6.744   5.388 -0.5139  0.5577 -0.7824
   51MOL0     C 6788   8.932   6.822   5.426 -0.3253  1.1756 -0.2225
   51MOL0     C 6789   8.927   6.870   5.580 -0.3758  0.2064  0.2432
   51MOL0     C 6790   9.000   6.769   5.675 -0.0672  1.4192 -0.0341
   51MOL0     C 6791   8.957   6.798   5.818 -0.7742  0.0937 -0.5535
   51MOL0     C 6792   9.075   6.785   5.915  0.3641 -0.2394 -0.8980
   51MOL0     C 6793   9.074   6.658   5.999  0.4911  0.1517  0.0077
   51MOL0    Cl 6794   9.065   6.511   5.897 -0.0349 -0.1044 -0.2883
   51MOL0     C 6795   8.890   6.327   5.641  1.4603  0.3425  0.2901
   51MOL0     C 6796   8.894   6.273   5.765  0.6490 -0.3554 -1.3541
   51MOL0     O 6797   8.620   6.129   5.979 -0.6158 -0.7295  0.6925
   51MOL0     C 6798   8.618   6.098   6.253  0.6275  0.2801 -0.4018
   51MOL0     C 6799   8.602   6.102   6.398  0.6883  0.8152 -0.5014
   51MOL0     N 6800   8.953   6.129   7.161  0.0888  0.6779 -0.3921
   51MOL0     N 6801   9.046   6.043   7.159 -0.1812 -1.0431 -0.6490
   51MOL0     C 6802   9.695   6.088   6.391 -0.1628  0.0025  0.1742
   51MOL0     C 6803   9.650   6.131   6.267 -0.1349  0.6756 -0.0707
   51MOL0     C 6804   9.654   6.447   5.933  0.7255  1.2356 -0.2474
   51MOL0     C 6805   9.752   6.471   5.842 -0.5317 -0.5550  0.6242
   51MOL0     C 6806   9.723   6.561   5.740  1.0721 -0.0534  0.3197
   51MOL0     C 6807   9.596   6.617   5.713  0.1621  0.4204 -0.0784
   51MOL0     O 6808   9.577   6.705   5.611  0.1741  0.3729 -0.3109
   51MOL0     C 6809   9.444   6.744   5.572  0.5947 -0.7578 -0.1036
   51MOL0     C 6810   9.459   6.825   5.449 -0.7427 -0.1385 -0.2722
   51MOL0     C 6811   9.517   6.735   5.336  0.4306 -0.4677  0.6779
   51MOL0     C 6812   9.503   6.794   5.192  0.0722  0.2306  0.2935
   51MOL0     C 6813   9.586   6.726   5.095 -0.2522  1.5779  0.6507
   51MOL0     C 6814   9.652   6.672   5.010 -0.5432 -0.3988  0.0406
   51MOL0     C 6815   9.498   6.585   5.803 -0.6763  0.0543  0.1013
   51MOL0     C 6816   9.523   6.512   5.916 -0.5399 -0.1403 -0.5637
   51MOL0     C 6817   9.429   6.528   6.029 -0.2277 -0.9011  0.1234
   51MOL0     H 6818   9.619   6.453   6.358  2.1827  1.0536  4.6721
   51MOL0     H 6819   9.684   6.365   6.571 -0.0504 -0.1419 -0.4627
   51MOL0     H 6820   9.640   6.257   6.751 -0.6695 -1.3931  2.9768
   51MOL0     H 6821   9.515   6.182   6.671 -0.1047  1.1888 -0.6884
   51MOL0     H 6822   9.534   6.130   6.919 -1.7767 -3.5049 -1.1329
   51MOL0     H 6823   9.697   6.075   6.909  2.5157  1.4191 -2.5634
   51MOL0     H 6824   9.568   5.878   6.918  2.8359 -0.3461 -0.2469
   51MOL0     H 6825   9.623   5.886   6.758  0.3323 -0.5959 -0.2471
   51MOL0     H 6826   9.393   5.972   6.685 -1.1259 -2.8929 -2.1302
   51MOL0     H 6827   9.365   5.831   6.744 -0.6342  0.7232  1.0859
   51MOL0     H 6828   9.328   5.940   6.987  0.5740  0.2192 -0.5254
   51MOL0     H 6829   9.315   6.090   6.889 -1.1428  0.0259 -1.4258
   51MOL0     H 6830   9.089   6.033   6.882  0.7259  1.3941 -0.9582
   51MOL0     H 6831   9.156   5.933   6.738 -0.7798 -0.8629  0.3348
   51MOL0     H 6832   9.149   5.723   6.873  2.7340  0.4104  1.0992
   51MOL0     H 6833   8.994   5.803   6.859  1.2767  0.4190 -1.2908
   51MOL0     H 6834   9.045   5.730   7.088  0.4030 -0.5022 -1.7586
   51MOL0     H 6835   9.189   5.838   7.107 -0.2615 -0.5597  1.3658
   51MOL0     H 6836   8.825   5.865   6.997 -0.7361  0.1693  0.8850
   51MOL0     H 6837   8.636   6.110   7.042 -0.7833  1.6883  3.9476
   51MOL0     H 6838   8.731   6.253   7.088  0.8026 -0.1484 -0.0769
   51MOL0     H 6839   8.862   6.231   6.879  0.1959 -3.9056 -2.1575
   51MOL0     H 6840   8.752   6.099   6.839 -1.1735 -1.5278  2.8584
   51MOL0     H 6841   8.636   6.379   6.894 -4.4488 -0.4121 -1.2433
   51MOL0     H 6842   8.567   6.227   6.847  2.4439 -2.0694  3.0809
   51MOL0     H 6843   8.790   6.326   6.667 -0.2255  1.3028  0.7377
   51MOL0     H 6844   8.629   6.394   6.640  2.3188 -0.4652 -2.0371
   51MOL0     H 6845   8.797   6.369   6.463  2.7116 -0.6595 -1.4531
   51MOL0     H 6846   8.847   6.345   6.225 -1.2065  3.6310  0.3029
   51MOL0     H 6847   8.610   6.407   5.897  0.5029  1.3505  0.5385
   51MOL0     H 6848   8.606   6.510   5.657 -1.9037 -1.0430  1.0572
   51MOL0     H 6849   8.654   6.612   5.451 -1.5096  3.1348  3.8089
   51MOL0     H 6850   8.753   6.672   5.583  0.5506  1.8123  0.2162
   51MOL0     H 6851   8.808   6.697   5.289 -0.6583 -5.6848  1.7156
   51MOL0     H 6852   8.738   6.827   5.376  0.7156  1.4953 -1.7056
   51MOL0     H 6853   9.021   6.773   5.385  0.7972  3.9246 -1.3390
   51MOL0     H 6854   8.937   6.920   5.377  2.6979  1.2786  0.0982
   51MOL0     H 6855   8.824   6.887   5.612 -1.1878 -3.0065 -0.3357
   51MOL0     H 6856   8.981   6.965   5.592 -0.9639  0.7756 -1.3393
   51MOL0     H 6857   9.107   6.782   5.658 -0.1791  0.9061 -1.2359
   51MOL0     H 6858   8.972   6.664   5.663 -0.0448  0.9459  3.1974
   51MOL0     H 6859   8.917   6.898   5.838 -0.9196  0.1647 -1.1825
   51MOL0     H 6860   8.881   6.730   5.858 -0.7397  1.6526  2.5408
   51MOL0     H 6861   9.074   6.866   5.988  0.7744 -1.1275  0.1238
   51MOL0     H 6862   9.169   6.808   5.864  0.6457  2.3663  0.6453
   51MOL0     H 6863   9.154   6.657   6.074 -0.6950  0.7907  1.3042
   51MOL0     H 6864   8.977   6.656   6.049  1.3016 -1.1550  1.6149
   51MOL0     H 6865   8.971   6.296   5.575  0.1554 -2.9610  0.0084
   51MOL0     H 6866   8.961   6.194   5.797 -1.1590 -1.6965 -0.7080
   51MOL0     H 6867   8.566   6.024   6.192  0.4588  1.0066 -1.1491
   51MOL0     H 6868   8.529   6.038   6.447  0.9568 -0.0860 -1.2370
   51MOL0     H 6869   9.728   5.985   6.402 -0.6855 -0.5634 -2.8593
   51MOL0     H 6870   9.631   6.067   6.181 -1.7144 -3.3737  2.9426
   51MOL0     H 6871   9.847   6.424   5.863 -0.9465 -0.4385  3.0289
   51MOL0     H 6872   9.807   6.576   5.672 -0.6239  2.3657 -1.4119
   51MOL0     H 6873   9.383   6.793   5.648 -0.8832 -0.2899 -1.5492
   51MOL0     H 6874   9.402   6.646   5.548  1.9284 -1.3018 -0.3306
   51MOL0     H 6875   9.526   6.908   5.472 -1.4571 -0.1054  1.8344
   51MOL0     H 6876   9.366   6.874   5.417 -0.5651  1.3205  1.3544
   51MOL0     H 6877   9.475   6.634   5.332 -1.6886  0.3296  1.2932
   51MOL0     H 6878   9.625   6.724   5.341  0.8142  1.2384 -1.8525
   51MOL0     H 6879   9.396   6.800   5.171 -0.2576  2.1902  2.1185
   51MOL0     H 6880   9.533   6.899   5.191 -0.9421  0.5395  0.4302
   51MOL0     H 6881   9.705   6.651   4.919 -1.7446 -0.9389 -0.5505
   51MOL0     H 6882   9.397   6.624   5.807 -1.2707 -1.2733 -1.1432
   51MOL0     H 6883   9.380   6.430   6.039 -0.1222 -1.0668 -0.8107
   51MOL0     H 6884   9.486   6.548   6.119 -2.6835 -0.8712  1.7595
   51MOL0     H 6885   9.352   6.603   6.011 -2.2403 -3.2995 -2.2937
   52MOL0     O 6886   3.045  10.260   4.150 -0.3398 -1.0600 -0.8821
   52MOL0     C 6887   2.994  10.352   4.088  0.6575  0.0599  0.5126
   52MOL0     O 6888   3.050  10.476   4.070  0.8676  0.7349 -0.2032
   52MOL0     C 6889   3.187  10.499   4.094  0.6357  0.3950  0.8340
   52MOL0     C 6890   3.257  10.551   3.976  0.1070 -0.0805  0.0476
   52MOL0     C 6891   3.387  10.587   3.998  1.3154 -0.0215 -0.6171
   52MOL0     C 6892   3.468  10.546   4.105  0.2298  0.5083 -0.0882
   52MOL0     O 6893   3.608  10.570   4.096  0.7181  0.2184 -0.3309
   52MOL0     C 6894   3.702  10.496   4.173 -0.4350 -0.7980 -0.3587
   52MOL0     C 6895   3.725  10.342   4.129  0.3020  0.2917 -0.3971
   52MOL0     C 6896   3.846  10.284   4.182 -0.3588 -0.2319 -0.8754
   52MOL0     C 6897   3.878  10.152   4.119 -0.2779  0.6849 -0.3761
   52MOL0     C 6898   3.875  10.032   4.221  0.5416 -0.9108  0.2527
   52MOL0     C 6899   3.996  10.027   4.315  0.4581  0.0369 -0.0459
   52MOL0     C 6900   4.134  10.034   4.252 -0.1585  0.3746 -0.4416
   52MOL0     C 6901   4.193  10.173   4.257 -0.5273 -0.3346  0.3210
   52MOL0     N 6902   4.312  10.185   4.169  0.0674  0.9521  0.9545
   52MOL0     C 6903   4.332  10.126   4.045 -0.3931 -0.6859  0.5998
   52MOL0     C 6904   4.465  10.153   4.021 -0.0591  0.3388 -0.1863
   52MOL0     C 6905   4.541  10.103   3.904 -0.5696 -0.3659  0.6614
   52MOL0     C 6906   4.528  10.189   3.776  0.0049 -0.4778 -0.1917
   52MOL0     C 6907   4.510  10.106   3.648  0.3297 -0.0388  0.2311
   52MOL0     C 6908   4.368  10.058   3.634 -0.0310  0.9377 -0.2073
   52MOL0     O 6909   4.359  10.036   3.493  0.3855 -1.0004  0.0933
   52MOL0     C 6910   4.269  10.111   3.419 -0.1898 -0.1277  0.8544
   52MOL0     C 6911   4.305  10.142   3.288 -0.5017 -0.0852  0.7407
   52MOL0     C 6912   4.220  10.223   3.208 -0.1538  0.3992 -0.8260
   52MOL0     C 6913   4.093  10.267   3.253 -0.2517  0.2763 -0.2192
   52MOL0     C 6914   4.010  10.350   3.173 -0.9201 -0.5861  0.6552
   52MOL0     O 6915   3.902  10.386   3.236  0.0002  0.4116 -1.0166
   52MOL0     C 6916   3.806  10.458   3.162  0.2492 -0.7179  0.3045
   52MOL0     C 6917   3.739  10.568   3.210 -0.3432  0.3258 -0.4380
   52MOL0     C 6918   3.648  10.642   3.128  0.4584  0.1409  1.2368
   52MOL0     C 6919   3.612  10.589   3.003 -0.5602 -0.1636  0.3448
   52MOL0     O 6920   3.516  10.640   2.921 -0.2340 -0.7458 -0.1788
   52MOL0     C 6921   3.510  10.790   2.903 -0.1991  0.2348 -0.6627
   52MOL0     C 6922   3.479  10.815   2.757  0.0548  0.2603  0.1536
   52MOL0     C 6923   3.487  10.965   2.723 -0.0350  0.4881  0.8040
   52MOL0     C 6924   3.624  11.023   2.730 -0.3634  0.0918 -0.4265
   52MOL0     C 6925   3.624  11.166   2.698 -0.4535 -0.5613  0.1113
   52MOL0     C 6926   3.767  11.245   2.698 -0.2594 -0.9678 -0.3812
   52MOL0     C 6927   3.869  11.181   2.595  0.2130 -0.2152 -0.4477
   52MOL0     C 6928   3.832  11.220   2.454  1.0338 -0.6000  0.6475
   52MOL0    Cl 6929   3.987  11.240   2.369  0.2753 -0.0400  0.4531
   52MOL0     C 6930   3.653  10.461   2.964 -0.5625 -0.2338 -0.0428
   52MOL0     C 6931   3.765  10.411   3.036  0.6577 -0.0491  0.1733
   52MOL0     O 6932   4.055  10.387   3.061 -0.5253 -0.5638  0.8724
   52MOL0     C 6933   4.065  10.241   3.391 -0.0565  0.3425 -0.1861
   52MOL0     C 6934   4.158  10.174   3.471 -0.2395 -0.1006  0.4822
   52MOL0     N 6935   4.528  10.200   4.135  0.5580 -0.6783 -0.6083
   52MOL0     N 6936   4.429  10.235   4.215 -0.8182 -0.2593 -0.3026
   52MOL0     C 6937   3.402  10.469   4.212  0.2235 -0.0664  0.4471
   52MOL0     C 6938   3.261  10.464   4.202 -0.6132  1.1013  0.0676
   52MOL0     C 6939   2.853  10.337   4.037  0.8233  0.9059 -0.2310
   52MOL0     C 6940   2.778  10.453   4.009  0.2749 -0.0758 -0.0722
   52MOL0     C 6941   2.650  10.445   3.965  0.4266 -0.9384  0.3920
   52MOL0     C 6942   2.587  10.328   3.942  0.1848  0.1580  0.5458
   52MOL0     O 6943   2.459  10.348   3.902  0.2953  0.2456 -0.1583
   52MOL0     C 6944   2.378  10.236   3.862 -0.5613 -0.2342  0.0927
   52MOL0     C 6945   2.418  10.191   3.724  0.5644 -0.1720  0.0022
   52MOL0     C 6946   2.350  10.055   3.706  0.1169 -0.4967 -0.2982
   52MOL0     C 6947   2.435   9.941   3.770 -0.5026  0.2873  1.0166
   52MOL0     C 6948   2.561   9.936   3.694 -0.0176  0.9813 -0.9051
   52MOL0     C 6949   2.659   9.934   3.627 -0.0961  0.1386  0.3788
   52MOL0     C 6950   2.657  10.204   3.962 -0.8308  0.2764 -0.2449
   52MOL0     C 6951   2.792  10.209   4.005  0.3191 -0.6029  0.6074
   52MOL0     C 6952   2.858  10.074   4.022 -1.1311  0.0253  0.5238
   52MOL0     H 6953   3.215  10.573   3.879 -1.6102  0.1252  0.7981
   52MOL0     H 6954   3.441  10.649   3.926  1.9711  1.9719  1.4780
   52MOL0     H 6955   3.798  10.548   4.176 -1.5568  1.6911 -3.2621
   52MOL0     H 6956   3.669  10.496   4.278 -0.5409 -1.7509 -0.3771
   52MOL0     H 6957   3.733  10.332   4.021  3.6529 -0.1813 -0.2249
   52MOL0     H 6958   3.636  10.284   4.156  0.3963  0.4670  0.3270
   52MOL0     H 6959   3.821  10.277   4.288 -3.2855  0.4895 -1.4195
   52MOL0     H 6960   3.922  10.361   4.163  0.1387  0.1098  2.0446
   52MOL0     H 6961   3.802  10.126   4.045 -2.9487 -1.3780  2.8753
   52MOL0     H 6962   3.974  10.176   4.071  2.1176  4.1080  5.1181
   52MOL0     H 6963   3.788  10.031   4.288  0.2681  1.8795  0.0669
   52MOL0     H 6964   3.871   9.937   4.167  2.8681 -0.6376 -0.5023
   52MOL0     H 6965   3.986  10.087   4.405  0.1875 -1.3090  0.8582
   52MOL0     H 6966   3.981   9.931   4.365  0.5364  0.1617  0.2197
   52MOL0     H 6967   4.131   9.996   4.149 -0.7104 -1.9159  0.3442
   52MOL0     H 6968   4.204   9.968   4.305  2.3802  1.1139 -2.6559
   52MOL0     H 6969   4.117  10.240   4.215 -2.0324 -1.3188  1.3483
   52MOL0     H 6970   4.220  10.200   4.360  1.1301 -3.0640  0.6988
   52MOL0     H 6971   4.261  10.077   3.978  0.4243  0.5687 -1.2871
   52MOL0     H 6972   4.646  10.102   3.934 -0.7390  2.3771  1.5734
   52MOL0     H 6973   4.500  10.005   3.878  1.1869 -0.2761 -3.0598
   52MOL0     H 6974   4.452  10.265   3.794 -0.3527 -1.0272  0.6622
   52MOL0     H 6975   4.620  10.246   3.763  0.2240 -0.2346  2.0037
   52MOL0     H 6976   4.584  10.026   3.641 -0.3118 -0.6890  0.8210
   52MOL0     H 6977   4.541  10.171   3.565  0.1865 -3.3407 -2.6480
   52MOL0     H 6978   4.297  10.130   3.676  1.6319  1.8566  1.1524
   52MOL0     H 6979   4.359   9.958   3.679 -0.1704 -0.2417 -2.6975
   52MOL0     H 6980   4.408  10.124   3.260 -0.6095  0.7456 -0.2264
   52MOL0     H 6981   4.259  10.239   3.108  0.2212  0.2889 -0.7006
   52MOL0     H 6982   3.757  10.611   3.308 -3.7514  0.2136  0.3405
   52MOL0     H 6983   3.606  10.738   3.156  1.2892  0.4781  1.3520
   52MOL0     H 6984   3.445  10.844   2.973  0.2442 -1.1586  0.8852
   52MOL0     H 6985   3.603  10.839   2.932 -1.0921  1.1916  0.6827
   52MOL0     H 6986   3.558  10.759   2.706  0.0576 -0.4606  0.9196
   52MOL0     H 6987   3.381  10.772   2.734  0.3757 -2.4168  2.9812
   52MOL0     H 6988   3.455  10.981   2.619  1.8503 -1.1981 -0.1179
   52MOL0     H 6989   3.431  11.026   2.795 -1.0704  0.8180 -0.2486
   52MOL0     H 6990   3.691  10.960   2.670 -1.7644 -0.4379 -1.4836
   52MOL0     H 6991   3.666  11.021   2.831  1.3169 -1.6914 -1.0942
   52MOL0     H 6992   3.553  11.212   2.768 -2.2253 -1.9887 -0.6529
   52MOL0     H 6993   3.583  11.162   2.597  2.7622 -0.1407 -1.3132
   52MOL0     H 6994   3.744  11.351   2.689 -0.7308 -1.0155  0.2283
   52MOL0     H 6995   3.816  11.258   2.795 -1.4789  0.0887  0.1237
   52MOL0     H 6996   3.867  11.072   2.603  0.6909 -0.1789  0.2088
   52MOL0     H 6997   3.965  11.224   2.627  0.6368 -1.1640 -0.4195
   52MOL0     H 6998   3.770  11.145   2.404  0.4305 -0.1582  0.7222
   52MOL0     H 6999   3.772  11.311   2.446 -0.8384 -1.3984  3.7558
   52MOL0     H 7000   3.616  10.403   2.880 -0.0987  0.4547 -0.7244
   52MOL0     H 7001   3.803  10.316   2.998 -2.2116 -1.1606 -0.1490
   52MOL0     H 7002   3.982  10.274   3.452 -0.1756 -1.7467  0.8718
   52MOL0     H 7003   4.124  10.161   3.574 -2.2591 -2.0323 -0.3499
   52MOL0     H 7004   3.469  10.443   4.293  0.6584  2.2571  0.9026
   52MOL0     H 7005   3.208  10.410   4.280  1.9293 -1.4993  0.1672
   52MOL0     H 7006   2.820  10.551   4.028  2.4730 -0.4316 -2.4783
   52MOL0     H 7007   2.589  10.535   3.955 -4.7544 -3.9197  1.5756
   52MOL0     H 7008   2.274  10.269   3.866  0.0074  1.7583 -0.4942
   52MOL0     H 7009   2.383  10.152   3.931 -3.4394 -0.8200 -0.2727
   52MOL0     H 7010   2.525  10.193   3.704 -0.0376 -1.7225 -4.5548
   52MOL0     H 7011   2.374  10.263   3.653 -2.3065 -1.5075  0.2718
   52MOL0     H 7012   2.336  10.040   3.599  2.6914 -0.2860 -0.7179
   52MOL0     H 7013   2.250  10.066   3.748  0.7651 -2.0525  1.8472
   52MOL0     H 7014   2.462   9.954   3.875  1.4494 -0.0956  0.5843
   52MOL0     H 7015   2.390   9.843   3.749  1.9629 -1.1889  2.2191
   52MOL0     H 7016   2.736   9.938   3.552  0.0918 -0.1165  0.5563
   52MOL0     H 7017   2.599  10.114   3.949 -2.1637  1.3714 -2.8146
   52MOL0     H 7018   2.806  10.002   3.957 -0.9400  0.1869  0.1906
   52MOL0     H 7019   2.961  10.092   3.991 -1.3961 -1.2422 -1.2693
   52MOL0     H 7020   2.855  10.038   4.125  2.6064 -2.2743  0.0302
   53MOL0     O 7021   9.695   2.180   0.034  0.6817 -0.5791 -0.5096
   53MOL0     C 7022   9.647   2.265  -0.043 -0.3679  0.1077 -0.0520
   53MOL0     O 7023   9.660   2.395  -0.017  0.0408  0.1215  0.2143
   53MOL0     C 7024   9.732   2.441   0.090 -0.2491 -0.3895  0.3612
   53MOL0     C 7025   9.693   2.427   0.229  0.0412 -0.0277  0.7423
   53MOL0     C 7026   9.780   2.462   0.327  0.2688 -0.3184  0.9748
   53MOL0     C 7027   9.906   2.514   0.301  0.7044 -0.1469  0.4235
   53MOL0     O 7028   9.987   2.544   0.414 -0.2566  0.5552  0.6009
   53MOL0     C 7029  10.111   2.603   0.396  1.1499  0.3152  0.1238
   53MOL0     C 7030  10.093   2.753   0.374  0.1907 -0.1717  0.3119
   53MOL0     C 7031   9.990   2.827   0.464  0.2343 -0.2008  0.0868
   53MOL0     C 7032  10.046   2.857   0.603  0.4292 -0.0553  0.2683
   53MOL0     C 7033  10.161   2.959   0.603  0.7276 -0.6079  0.0211
   53MOL0     C 7034  10.189   3.009   0.742  0.5660 -0.3517  0.0807
   53MOL0     C 7035  10.075   3.087   0.811  0.4675  0.5320  0.7408
   53MOL0     C 7036  10.115   3.135   0.953 -0.9067  0.0628 -0.0739
   53MOL0     N 7037  10.016   3.239   0.986 -0.5957 -0.2203 -0.3875
   53MOL0     C 7038  10.004   3.374   0.941  0.1134  0.4441  0.0133
   53MOL0     C 7039   9.892   3.421   1.011 -0.8453  0.0364  0.2893
   53MOL0     C 7040   9.830   3.557   1.004 -0.2768 -0.0983 -0.5413
   53MOL0     C 7041   9.886   3.660   1.107  0.2045  0.6729  0.1477
   53MOL0     C 7042  10.041   3.666   1.090 -1.1490 -0.4667  0.4560
   53MOL0     C 7043  10.111   3.773   1.185 -0.3843  0.0529 -0.4641
   53MOL0     O 7044  10.072   3.895   1.127 -0.3406 -0.2031  0.5692
   53MOL0     C 7045  10.168   3.988   1.090 -0.2565  0.3663  1.1113
   53MOL0     C 7046  10.113   4.115   1.056  0.4815 -0.2410  0.3497
   53MOL0     C 7047  10.195   4.212   1.012  0.5645  0.5202  0.7293
   53MOL0     C 7048  10.338   4.196   0.998 -0.6538  0.7754 -0.3657
   53MOL0     C 7049  10.431   4.304   0.955 -0.0844  0.4392  0.7066
   53MOL0     O 7050  10.385   4.426   0.958  0.5377  0.4312 -0.2641
   53MOL0     C 7051  10.470   4.526   0.938 -0.4987  0.4805  0.1957
   53MOL0     C 7052  10.586   4.549   1.015 -0.5601 -1.1471 -0.6872
   53MOL0     C 7053  10.674   4.663   0.983  1.0644  0.5988 -0.4325
   53MOL0     C 7054  10.631   4.753   0.885  0.4933  0.0231 -0.3696
   53MOL0     O 7055  10.711   4.857   0.860 -0.1975  0.8696 -0.6947
   53MOL0     C 7056  10.671   4.949   0.759 -0.5531 -0.0316 -0.2995
   53MOL0     C 7057  10.754   5.077   0.798  0.2037  0.0293  0.1836
   53MOL0     C 7058  10.762   5.188   0.688 -0.1090  0.1113  0.2919
   53MOL0     C 7059  10.839   5.314   0.725 -0.0983 -0.0318 -0.3994
   53MOL0     C 7060  10.764   5.418   0.800 -0.3618 -0.0614  0.3270
   53MOL0     C 7061  10.858   5.526   0.841 -0.8252 -0.4351  0.3748
   53MOL0     C 7062  10.791   5.643   0.912 -0.8375 -0.6788  0.0109
   53MOL0     C 7063  10.722   5.737   0.810  0.7677  0.2393  0.6375
   53MOL0    Cl 7064  10.704   5.896   0.878 -0.1650  0.4010  0.0172
   53MOL0     C 7065  10.512   4.733   0.806  0.4564  0.5877 -0.0827
   53MOL0     C 7066  10.427   4.622   0.833  1.0515 -0.0466  0.4943
   53MOL0     O 7067  10.541   4.274   0.911  0.4605 -0.0539 -0.1753
   53MOL0     C 7068  10.392   4.070   1.034  0.5427  0.0121  0.1448
   53MOL0     C 7069  10.308   3.965   1.076 -0.1739  0.1399  0.2492
   53MOL0     N 7070   9.847   3.326   1.101  0.5419 -0.3116 -0.2956
   53MOL0     N 7071   9.918   3.224   1.087 -0.4356  0.2534  0.3867
   53MOL0     C 7072   9.937   2.541   0.167 -0.7977  0.4010 -0.0913
   53MOL0     C 7073   9.853   2.513   0.061  0.0059 -0.3701 -0.5995
   53MOL0     C 7074   9.579   2.231  -0.167  0.5984  0.2905  0.5578
   53MOL0     C 7075   9.526   2.104  -0.176  0.3356  0.1046  0.5334
   53MOL0     C 7076   9.453   2.063  -0.292 -0.1882 -0.0071  0.5114
   53MOL0     C 7077   9.426   2.152  -0.393 -0.2230 -0.9247 -1.2713
   53MOL0     O 7078   9.348   2.128  -0.506 -0.0032 -0.4405  0.3095
   53MOL0     C 7079   9.286   2.006  -0.533 -0.4522  0.0524 -0.3177
   53MOL0     C 7080   9.192   2.028  -0.649 -0.1161  0.0751 -0.2610
   53MOL0     C 7081   9.072   2.106  -0.599 -0.3408 -0.2707  0.5506
   53MOL0     C 7082   8.991   2.167  -0.717 -0.0938  0.0088  0.5732
   53MOL0     C 7083   8.893   2.256  -0.661  0.6250  0.3162  0.1038
   53MOL0     C 7084   8.813   2.320  -0.602 -1.2120 -1.0485 -0.7024
   53MOL0     C 7085   9.486   2.275  -0.383 -0.3037  0.1051  0.6371
   53MOL0     C 7086   9.567   2.319  -0.280 -0.1176  0.1714  0.1515
   53MOL0     C 7087   9.655   2.437  -0.296  0.6965  0.3102  0.2653
   53MOL0     H 7088   9.596   2.395   0.264 -1.5673 -0.3813 -3.4727
   53MOL0     H 7089   9.747   2.453   0.430 -2.2942 -2.0713  0.1182
   53MOL0     H 7090  10.172   2.594   0.487  1.2815 -3.1674 -0.1854
   53MOL0     H 7091  10.151   2.557   0.306  0.6191  2.3947 -1.2359
   53MOL0     H 7092  10.062   2.767   0.270 -0.0414  0.1867  0.4293
   53MOL0     H 7093  10.193   2.794   0.393 -1.3345  3.0373  2.1714
   53MOL0     H 7094   9.907   2.756   0.476  0.0976 -0.2131 -0.8774
   53MOL0     H 7095   9.959   2.923   0.420 -0.5179 -1.1727 -1.5842
   53MOL0     H 7096   9.961   2.903   0.654 -0.8520 -0.2410 -1.6097
   53MOL0     H 7097  10.069   2.773   0.670  0.6816 -0.4756 -0.3409
   53MOL0     H 7098  10.260   2.918   0.580  1.4704  1.0187  0.1526
   53MOL0     H 7099  10.146   3.044   0.537 -1.0230 -1.3792 -0.6274
   53MOL0     H 7100  10.206   2.928   0.813  0.8716 -0.0086  0.4064
   53MOL0     H 7101  10.268   3.084   0.741 -1.6714  2.3860  3.0387
   53MOL0     H 7102   9.990   3.019   0.813  2.6170 -2.4686 -1.4916
   53MOL0     H 7103  10.056   3.177   0.751 -1.7156  0.3027  1.0186
   53MOL0     H 7104  10.105   3.052   1.024  0.9660  0.9944  1.3593
   53MOL0     H 7105  10.214   3.178   0.937 -1.8579  2.0726 -0.8491
   53MOL0     H 7106  10.074   3.425   0.875 -1.0437  0.1324 -1.5155
   53MOL0     H 7107   9.851   3.597   0.905 -2.5993  0.3073 -0.9404
   53MOL0     H 7108   9.721   3.555   1.015 -0.5001 -1.1524 -2.5863
   53MOL0     H 7109   9.846   3.757   1.075  0.3652  1.1732  1.4344
   53MOL0     H 7110   9.857   3.630   1.208 -2.4359  1.0717 -0.4000
   53MOL0     H 7111  10.067   3.688   0.986 -1.4445 -1.2391  0.2078
   53MOL0     H 7112  10.084   3.569   1.118 -2.1719 -0.7225  1.1942
   53MOL0     H 7113  10.220   3.761   1.186 -0.0498  2.5205 -0.9706
   53MOL0     H 7114  10.073   3.773   1.288  1.8277  3.9563  0.5748
   53MOL0     H 7115  10.008   4.139   1.064  0.5789  0.5351 -0.5711
   53MOL0     H 7116  10.146   4.307   0.992 -1.1417 -0.1910  1.3133
   53MOL0     H 7117  10.610   4.482   1.097 -0.5328 -2.1464 -1.4944
   53MOL0     H 7118  10.747   4.714   1.046 -2.6869  2.9963  2.4692
   53MOL0     H 7119  10.687   4.902   0.661  0.4240  0.1802 -0.2507
   53MOL0     H 7120  10.570   4.988   0.768 -1.0838 -1.8395  2.9881
   53MOL0     H 7121  10.712   5.127   0.886  2.3296 -0.5950  1.6144
   53MOL0     H 7122  10.856   5.051   0.827 -0.3540 -1.0367  1.2618
   53MOL0     H 7123  10.810   5.161   0.593  0.2607  1.1967  0.1603
   53MOL0     H 7124  10.659   5.221   0.666  0.3925  1.7014  0.2266
   53MOL0     H 7125  10.868   5.357   0.629 -0.6774  3.8845  0.9907
   53MOL0     H 7126  10.928   5.288   0.782 -0.7111 -4.2421 -1.0445
   53MOL0     H 7127  10.716   5.379   0.890 -0.5795 -0.9895 -0.1810
   53MOL0     H 7128  10.695   5.454   0.724  3.5136  2.7281 -2.2535
   53MOL0     H 7129  10.927   5.479   0.912  0.0810  0.9925  0.4893
   53MOL0     H 7130  10.916   5.567   0.757  0.6425 -2.6162  0.2424
   53MOL0     H 7131  10.863   5.699   0.972 -1.2587  0.2752 -0.3532
   53MOL0     H 7132  10.711   5.598   0.972 -2.0052  0.1313 -0.8862
   53MOL0     H 7133  10.779   5.747   0.717 -2.2696  0.8479 -1.3322
   53MOL0     H 7134  10.631   5.698   0.763  1.6410  0.7485 -1.5911
   53MOL0     H 7135  10.479   4.799   0.726 -1.0855 -0.2018 -0.1343
   53MOL0     H 7136  10.334   4.598   0.781 -0.2023 -0.2947  2.7114
   53MOL0     H 7137  10.490   4.031   1.007  0.4049 -0.0135 -0.3300
   53MOL0     H 7138  10.353   3.867   1.086 -2.5655 -1.1098 -0.3559
   53MOL0     H 7139  10.042   2.568   0.153 -1.2830  2.5767  0.1448
   53MOL0     H 7140   9.886   2.535  -0.040  0.0836 -1.3474 -0.8054
   53MOL0     H 7141   9.532   2.022  -0.106  0.1919 -3.0008 -2.7976
   53MOL0     H 7142   9.431   1.957  -0.300  0.8833 -0.2696  0.8522
   53MOL0     H 7143   9.223   1.969  -0.452  0.6077 -2.5497 -0.5875
   53MOL0     H 7144   9.359   1.927  -0.551 -0.9011 -0.3656 -0.3336
   53MOL0     H 7145   9.155   1.928  -0.673  1.3515 -0.6277  0.3104
   53MOL0     H 7146   9.243   2.080  -0.730 -2.3753  2.9445  0.0035
   53MOL0     H 7147   9.097   2.185  -0.527 -2.3985  1.2696 -0.3411
   53MOL0     H 7148   9.007   2.037  -0.544  2.6361 -2.9975  1.0008
   53MOL0     H 7149   9.054   2.232  -0.779  1.0207 -2.9277 -1.6148
   53MOL0     H 7150   8.930   2.092  -0.769 -0.6959 -0.5699  2.0463
   53MOL0     H 7151   8.749   2.373  -0.534 -1.4772 -1.1003 -0.9077
   53MOL0     H 7152   9.484   2.340  -0.470  2.0517 -1.0966 -0.3978
   53MOL0     H 7153   9.651   2.477  -0.397  3.5958 -1.2676 -0.5620
   53MOL0     H 7154   9.621   2.507  -0.219  2.4636 -0.5953  1.9608
   53MOL0     H 7155   9.763   2.424  -0.283  0.8701  0.2794 -1.0734
   54MOL0     O 7156   5.282   1.776  11.232  0.1947 -0.1202  0.0925
   54MOL0     C 7157   5.331   1.860  11.308  0.4767 -0.1079 -0.3283
   54MOL0     O 7158   5.358   1.987  11.269 -0.2159  0.5024  0.6337
   54MOL0     C 7159   5.288   2.013  11.157  0.5050  0.5023 -0.1125
   54MOL0     C 7160   5.356   2.051  11.047 -0.4250 -0.0603 -0.3135
   54MOL0     C 7161   5.290   2.106  10.939 -0.0975 -0.2219 -0.2591
   54MOL0     C 7162   5.151   2.119  10.936 -0.1025  0.5527  0.1972
   54MOL0     O 7163   5.079   2.154  10.823 -0.1613  0.1032 -0.4374
   54MOL0     C 7164   5.141   2.177  10.693 -0.1319  0.0759 -0.6803
   54MOL0     C 7165   5.167   2.332  10.669  1.3693  0.2309 -0.4759
   54MOL0     C 7166   5.243   2.397  10.782 -0.9781 -0.9825  0.2362
   54MOL0     C 7167   5.291   2.540  10.752 -0.8278 -0.9235  0.3919
   54MOL0     C 7168   5.368   2.621  10.868  0.5884 -0.4040 -0.3455
   54MOL0     C 7169   5.273   2.673  10.977 -0.2471 -0.0550  0.2721
   54MOL0     C 7170   5.358   2.701  11.106  1.0399 -1.0145 -0.0570
   54MOL0     C 7171   5.432   2.829  11.087 -0.0495  1.1641 -0.2166
   54MOL0     N 7172   5.350   2.941  11.116  0.5710  0.2499  0.5891
   54MOL0     C 7173   5.308   2.981  11.232  0.3609 -0.3743  0.5766
   54MOL0     C 7174   5.229   3.086  11.190 -0.2324  0.5268  0.0828
   54MOL0     C 7175   5.138   3.169  11.288 -0.4082 -0.2572 -0.8764
   54MOL0     C 7176   5.050   3.083  11.375  0.0084 -1.0663  0.7334
   54MOL0     C 7177   4.967   3.186  11.468  0.8712 -0.5863  0.0968
   54MOL0     C 7178   4.896   3.105  11.573  0.4624 -0.2309  0.4145
   54MOL0     O 7179   4.787   3.048  11.505  0.5018  0.1465  0.4021
   54MOL0     C 7180   4.683   3.002  11.574  0.9790 -0.5448 -0.0428
   54MOL0     C 7181   4.588   2.924  11.508 -0.3129  0.0148  0.4154
   54MOL0     C 7182   4.477   2.868  11.570  0.7743 -0.2683  0.0461
   54MOL0     C 7183   4.457   2.898  11.709 -0.0576  0.7482  0.0763
   54MOL0     C 7184   4.342   2.847  11.776 -0.5339  0.7445 -0.5260
   54MOL0     O 7185   4.234   2.809  11.690 -0.8829  0.3730  0.4064
   54MOL0     C 7186   4.119   2.754  11.744  0.5360 -0.6675 -0.0359
   54MOL0     C 7187   4.050   2.794  11.858 -0.2726  0.2256 -0.1926
   54MOL0     C 7188   3.930   2.738  11.899 -0.4653 -0.4505  0.5022
   54MOL0     C 7189   3.869   2.644  11.817 -0.4415 -0.1326  0.3025
   54MOL0     O 7190   3.749   2.583  11.851 -0.1463  0.1209  0.2875
   54MOL0     C 7191   3.677   2.653  11.956  1.0880 -0.3343  0.1679
   54MOL0     C 7192   3.538   2.586  11.968  0.2743 -1.2998 -0.1689
   54MOL0     C 7193   3.437   2.673  11.900 -0.3807  0.6544  0.0714
   54MOL0     C 7194   3.292   2.612  11.913 -0.5722  0.4918 -0.4895
   54MOL0     C 7195   3.195   2.715  11.856 -0.1488 -0.3508 -0.1464
   54MOL0     C 7196   3.066   2.643  11.824  0.1385  0.2383 -0.4889
   54MOL0     C 7197   2.960   2.732  11.754 -0.1672 -0.1078 -0.3150
   54MOL0     C 7198   2.842   2.661  11.700  0.3182  0.0721  1.1725
   54MOL0    Cl 7199   2.793   2.515  11.786 -0.0249 -0.2971 -0.2433
   54MOL0     C 7200   3.934   2.607  11.697  0.1910  0.3536  0.5870
   54MOL0     C 7201   4.059   2.667  11.657  0.4039  0.4658 -0.1020
   54MOL0     O 7202   4.349   2.826  11.898  0.2692  0.5208  0.7200
   54MOL0     C 7203   4.546   2.982  11.781  0.1391  0.5170  0.1740
   54MOL0     C 7204   4.658   3.033  11.711  0.7186  0.5925  0.2303
   54MOL0     N 7205   5.221   3.103  11.058 -0.0779 -0.3150 -0.0199
   54MOL0     N 7206   5.297   3.010  11.008 -0.3422 -0.2244 -0.0331
   54MOL0     C 7207   5.081   2.081  11.047 -0.3877 -1.3074  0.1028
   54MOL0     C 7208   5.151   2.036  11.166 -0.1890 -0.6174  0.4859
   54MOL0     C 7209   5.385   1.800  11.447 -0.9551  0.7880  0.0657
   54MOL0     C 7210   5.397   1.669  11.457 -0.8756 -0.6060 -0.0981
   54MOL0     C 7211   5.460   1.603  11.568  0.4228 -0.8100  1.0045
   54MOL0     C 7212   5.516   1.685  11.667 -0.2574  0.5508  0.5319
   54MOL0     O 7213   5.599   1.629  11.758  0.1054  0.8532 -0.2481
   54MOL0     C 7214   5.646   1.702  11.872 -0.7650  1.5064 -1.0267
   54MOL0     C 7215   5.759   1.612  11.935  0.8302  0.1702  0.9656
   54MOL0     C 7216   5.887   1.656  11.873 -0.0419  0.0561  0.8686
   54MOL0     C 7217   5.967   1.748  11.964  1.1898  0.0668  0.0231
   54MOL0     C 7218   5.926   1.891  11.970  0.7000 -0.4104  0.1286
   54MOL0     C 7219   5.880   2.002  11.964 -0.5587 -0.2445 -0.7279
   54MOL0     C 7220   5.486   1.824  11.670 -0.5563 -0.2174  1.1192
   54MOL0     C 7221   5.434   1.879  11.547 -0.1475 -1.4902  0.1120
   54MOL0     C 7222   5.411   2.026  11.540  0.6470  0.1579  0.0874
   54MOL0     H 7223   5.463   2.042  11.062 -0.3927  0.2905 -0.3150
   54MOL0     H 7224   5.341   2.143  10.851 -0.0213 -0.7754 -0.4546
   54MOL0     H 7225   5.225   2.116  10.658 -0.5531  0.2059 -1.9542
   54MOL0     H 7226   5.074   2.133  10.619  0.3913 -1.8648 -0.0689
   54MOL0     H 7227   5.072   2.385  10.654  1.0530 -1.1355 -5.1766
   54MOL0     H 7228   5.218   2.337  10.572 -1.6812 -2.3603 -2.4687
   54MOL0     H 7229   5.334   2.338  10.797  0.3702 -0.3934 -4.1926
   54MOL0     H 7230   5.180   2.392  10.872 -1.5363 -0.6049 -0.1296
   54MOL0     H 7231   5.367   2.536  10.673 -1.6820  1.2158 -0.6235
   54MOL0     H 7232   5.218   2.600  10.698 -1.1480  0.2522  2.0534
   54MOL0     H 7233   5.445   2.553  10.908  1.1823  0.9230  0.8541
   54MOL0     H 7234   5.421   2.705  10.822 -0.0413 -0.0270 -0.3860
   54MOL0     H 7235   5.211   2.758  10.947 -4.0463 -1.6376  2.8654
   54MOL0     H 7236   5.206   2.590  11.002 -3.5629  2.4561  0.2879
   54MOL0     H 7237   5.431   2.620  11.117  0.6541 -1.0296  3.2517
   54MOL0     H 7238   5.293   2.710  11.193  0.2508  1.2306 -0.8080
   54MOL0     H 7239   5.516   2.832  11.157 -0.1777 -0.4539  0.0454
   54MOL0     H 7240   5.482   2.839  10.991 -0.4739 -1.2069 -0.7430
   54MOL0     H 7241   5.327   2.923  11.322 -0.5029  2.0936  2.4402
   54MOL0     H 7242   5.212   3.227  11.343  1.4131 -3.5721  0.4839
   54MOL0     H 7243   5.065   3.224  11.229 -3.6625 -1.1830  1.9848
   54MOL0     H 7244   4.984   3.033  11.303 -1.1219  0.7460  0.4753
   54MOL0     H 7245   5.110   3.009  11.430  0.4449 -1.5748 -0.3808
   54MOL0     H 7246   4.891   3.247  11.418 -0.1365 -0.5017  1.6734
   54MOL0     H 7247   5.032   3.258  11.518 -0.7374  1.8128 -1.0625
   54MOL0     H 7248   4.867   3.175  11.652  2.1599 -0.2429  1.0953
   54MOL0     H 7249   4.963   3.030  11.617  0.3827 -1.9969 -2.2080
   54MOL0     H 7250   4.593   2.894  11.404  0.1680  1.0766  0.1189
   54MOL0     H 7251   4.410   2.806  11.511 -0.1067  1.1097 -0.4650
   54MOL0     H 7252   4.104   2.852  11.933  1.0146 -3.8881  2.3874
   54MOL0     H 7253   3.891   2.773  11.994  3.5142  0.3497  2.0661
   54MOL0     H 7254   3.719   2.648  12.056  1.8293  0.1266 -0.1109
   54MOL0     H 7255   3.669   2.758  11.924  1.9083  0.9796  3.8271
   54MOL0     H 7256   3.535   2.487  11.922 -0.8942 -0.6087 -1.6800
   54MOL0     H 7257   3.508   2.580  12.073  2.2882  2.1847  0.7563
   54MOL0     H 7258   3.445   2.775  11.938  1.1991  1.6867 -2.7808
   54MOL0     H 7259   3.455   2.688  11.794  0.2820 -1.7241 -0.2222
   54MOL0     H 7260   3.264   2.600  12.018  4.0654  0.0797  0.8984
   54MOL0     H 7261   3.297   2.512  11.869  4.8763  0.2949 -0.0960
   54MOL0     H 7262   3.243   2.742  11.761  0.6821 -3.8460 -0.8521
   54MOL0     H 7263   3.191   2.811  11.908 -0.3041 -1.1309  1.3310
   54MOL0     H 7264   3.081   2.555  11.761 -1.7826 -3.2370  3.4266
   54MOL0     H 7265   3.021   2.596  11.912  1.1921  3.3151  1.8998
   54MOL0     H 7266   3.008   2.790  11.675 -0.2927 -2.3182 -2.1079
   54MOL0     H 7267   2.937   2.811  11.827 -0.3263  2.8230 -3.3002
   54MOL0     H 7268   2.760   2.733  11.708 -0.2836 -0.4634  0.0873
   54MOL0     H 7269   2.852   2.643  11.593 -2.5683  3.4396  0.1341
   54MOL0     H 7270   3.878   2.538  11.634  1.1807 -0.0706  0.1519
   54MOL0     H 7271   4.098   2.647  11.558  3.6584  1.8696  0.7558
   54MOL0     H 7272   4.550   2.981  11.890 -0.8697 -0.4450  0.2229
   54MOL0     H 7273   4.716   3.098  11.776 -1.2201  0.6420  2.0317
   54MOL0     H 7274   4.974   2.092  11.038 -0.3418 -2.4533 -3.8623
   54MOL0     H 7275   5.096   2.008  11.255 -0.8651 -4.4486 -0.9434
   54MOL0     H 7276   5.345   1.608  11.383 -0.9212  1.2154 -1.6444
   54MOL0     H 7277   5.469   1.496  11.554 -0.3317 -0.6256 -1.4180
   54MOL0     H 7278   5.561   1.704  11.941 -1.5824 -0.1724 -1.9338
   54MOL0     H 7279   5.673   1.807  11.854  0.3062  0.9027 -3.3060
   54MOL0     H 7280   5.751   1.505  11.912 -1.0286  0.1608  1.4897
   54MOL0     H 7281   5.760   1.631  12.043  0.7246  1.6417  0.7258
   54MOL0     H 7282   5.884   1.713  11.780  0.5776 -3.4968 -1.5471
   54MOL0     H 7283   5.946   1.566  11.856 -0.6371 -0.2377  0.3053
   54MOL0     H 7284   5.958   1.711  12.067  0.5942 -1.1945 -0.4677
   54MOL0     H 7285   6.071   1.744  11.930  0.8232 -4.3349 -1.1672
   54MOL0     H 7286   5.866   2.108  11.961 -1.1076 -0.2549  0.6592
   54MOL0     H 7287   5.502   1.886  11.757 -1.6776 -1.5293  2.3114
   54MOL0     H 7288   5.308   2.046  11.509  0.6983  0.1319 -0.1056
   54MOL0     H 7289   5.436   2.080  11.632 -1.0532  0.9486  0.1090
   54MOL0     H 7290   5.476   2.069  11.463  2.1264  0.7920  1.6373
   55MOL0     O 7291   0.153   4.393   6.817  0.4090  0.5832 -0.3738
   55MOL0     C 7292   0.205   4.452   6.912  0.2536  0.2475 -0.3690
   55MOL0     O 7293   0.281   4.574   6.899 -0.1165  0.0453 -1.1326
   55MOL0     C 7294   0.305   4.623   6.779 -0.4348 -0.0070 -0.0443
   55MOL0     C 7295   0.384   4.554   6.683 -0.3268  0.7477 -0.3083
   55MOL0     C 7296   0.402   4.597   6.549  0.5970 -0.2475  0.4856
   55MOL0     C 7297   0.346   4.715   6.508  1.2942  0.2958  0.8611
   55MOL0     O 7298   0.339   4.748   6.371 -0.2261  0.3790  0.3030
   55MOL0     C 7299   0.228   4.835   6.320  0.3725  0.5777 -0.0116
   55MOL0     C 7300   0.252   4.869   6.176  0.0400  0.0211  0.8143
   55MOL0     C 7301   0.275   4.734   6.108  0.2361 -0.0780 -0.6056
   55MOL0     C 7302   0.258   4.752   5.954  0.0663  0.5891 -0.7518
   55MOL0     C 7303   0.372   4.833   5.896 -0.1265  0.5211  0.1370
   55MOL0     C 7304   0.500   4.750   5.898  0.3443 -0.1228 -0.2700
   55MOL0     C 7305   0.598   4.820   5.796  0.3118  0.7018  0.7621
   55MOL0     C 7306   0.745   4.768   5.813 -0.2849 -0.1545  0.2557
   55MOL0     N 7307   0.768   4.625   5.773 -0.1099  0.0816 -0.2656
   55MOL0     C 7308   0.752   4.516   5.853  0.8835  0.1417  0.0173
   55MOL0     C 7309   0.814   4.417   5.783 -0.2009  0.4443 -0.7534
   55MOL0     C 7310   0.814   4.281   5.840  0.5473 -1.1272  0.7053
   55MOL0     C 7311   0.954   4.208   5.828 -0.7040 -0.0082 -0.0901
   55MOL0     C 7312   0.957   4.097   5.930 -0.3407 -0.4982  0.0196
   55MOL0     C 7313   0.960   4.140   6.070 -0.0221  0.4222 -0.0861
   55MOL0     O 7314   1.006   4.043   6.162 -0.1894  0.6790 -0.0508
   55MOL0     C 7315   0.948   3.928   6.202 -0.1430 -0.6661  0.6498
   55MOL0     C 7316   0.821   3.874   6.166  0.4592  0.0812  0.7347
   55MOL0     C 7317   0.777   3.749   6.228  0.5950 -0.0170 -0.1451
   55MOL0     C 7318   0.874   3.669   6.309  0.4330 -0.1185 -0.4345
   55MOL0     C 7319   0.838   3.541   6.378 -0.0581 -0.2181  0.6380
   55MOL0     O 7320   0.712   3.505   6.372 -0.2491  0.0180 -0.4227
   55MOL0     C 7321   0.677   3.386   6.438  0.8245 -0.1057  0.1228
   55MOL0     C 7322   0.717   3.262   6.390 -0.2909  1.3535  0.7517
   55MOL0     C 7323   0.682   3.146   6.448  0.3108  0.2056  0.4025
   55MOL0     C 7324   0.604   3.144   6.563  0.6129 -1.2267 -0.0660
   55MOL0     O 7325   0.570   3.019   6.606 -0.6293  1.0580  0.7939
   55MOL0     C 7326   0.454   3.007   6.689 -0.3871 -0.1843 -0.0212
   55MOL0     C 7327   0.453   2.862   6.725 -0.6249 -0.4767 -0.2399
   55MOL0     C 7328   0.318   2.809   6.788  0.1507  0.5829 -0.3716
   55MOL0     C 7329   0.307   2.653   6.765 -0.7281  0.6908 -0.5402
   55MOL0     C 7330   0.401   2.581   6.858  0.1272  0.3596 -0.4810
   55MOL0     C 7331   0.403   2.431   6.817  0.3074  0.0707  0.2238
   55MOL0     C 7332   0.532   2.368   6.874 -0.7989 -0.0374 -0.0826
   55MOL0     C 7333   0.546   2.220   6.845 -0.5726 -0.8634 -0.5124
   55MOL0    Cl 7334   0.703   2.153   6.881  0.5832 -0.0009  0.3823
   55MOL0     C 7335   0.559   3.272   6.613 -0.1438  0.4962 -0.0557
   55MOL0     C 7336   0.599   3.388   6.552  0.5139  0.3037  0.2473
   55MOL0     O 7337   0.925   3.495   6.451 -0.3247  0.1886  0.2674
   55MOL0     C 7338   1.001   3.730   6.333  0.6296  0.2159  0.1215
   55MOL0     C 7339   1.033   3.850   6.276  0.5001 -0.5353 -0.6549
   55MOL0     N 7340   0.861   4.464   5.662  0.2188 -0.4807  0.5611
   55MOL0     N 7341   0.822   4.591   5.653 -0.0869  0.1870 -0.2830
   55MOL0     C 7342   0.275   4.793   6.604  0.2833  0.1171  0.2281
   55MOL0     C 7343   0.255   4.749   6.736 -0.6286 -0.0313 -0.2698
   55MOL0     C 7344   0.179   4.390   7.047 -0.5426  0.3049  0.0945
   55MOL0     C 7345   0.269   4.438   7.147  0.1555  0.7275 -0.0991
   55MOL0     C 7346   0.261   4.405   7.281 -0.6766 -0.0883  0.3727
   55MOL0     C 7347   0.156   4.328   7.325 -0.2508 -0.0700 -0.2578
   55MOL0     O 7348   0.126   4.323   7.461  0.8309  0.0578 -0.5630
   55MOL0     C 7349   0.038   4.228   7.522 -1.2842  0.7969  0.1021
   55MOL0     C 7350  -0.080   4.297   7.603  1.0015 -0.3536 -0.1075
   55MOL0     C 7351  -0.189   4.194   7.640 -0.9732 -0.7125  0.5942
   55MOL0     C 7352  -0.314   4.252   7.696  0.1892  0.6963 -0.0101
   55MOL0     C 7353  -0.276   4.333   7.818  0.5641  0.2194 -0.4203
   55MOL0     C 7354  -0.250   4.404   7.916 -0.0663 -0.0356  0.2705
   55MOL0     C 7355   0.066   4.276   7.231  0.8149 -0.0757 -0.0540
   55MOL0     C 7356   0.074   4.305   7.091 -1.3935 -0.1490  0.0778
   55MOL0     C 7357  -0.019   4.238   6.997 -0.3548  0.0515 -0.4993
   55MOL0     H 7358   0.419   4.454   6.706  1.0316  1.3541  0.4445
   55MOL0     H 7359   0.446   4.532   6.475 -0.6622  0.9944 -1.4471
   55MOL0     H 7360   0.129   4.789   6.323  0.5805  0.0298 -1.2459
   55MOL0     H 7361   0.229   4.936   6.363  0.9184  1.8902 -2.8528
   55MOL0     H 7362   0.338   4.934   6.165 -0.6498  0.7442 -0.5478
   55MOL0     H 7363   0.166   4.919   6.131  2.1444  1.1153 -2.2542
   55MOL0     H 7364   0.199   4.666   6.146 -1.3537  1.5212 -0.7688
   55MOL0     H 7365   0.374   4.694   6.133  1.4603  1.5199 -2.5950
   55MOL0     H 7366   0.251   4.653   5.907  0.9999  1.3935 -2.7164
   55MOL0     H 7367   0.158   4.795   5.939 -0.6237 -0.2054  1.3250
   55MOL0     H 7368   0.348   4.859   5.792  2.8894  0.9964 -0.5412
   55MOL0     H 7369   0.388   4.923   5.956 -0.6766  0.0265  1.0454
   55MOL0     H 7370   0.538   4.736   5.999  1.9668 -3.4210 -1.2006
   55MOL0     H 7371   0.468   4.655   5.854  1.1752 -3.0830  4.6990
   55MOL0     H 7372   0.587   4.928   5.802 -1.9886  0.4840  1.6429
   55MOL0     H 7373   0.565   4.804   5.693  2.0033  1.1552  0.1081
   55MOL0     H 7374   0.806   4.841   5.760 -0.3065 -0.8342 -0.7400
   55MOL0     H 7375   0.776   4.776   5.918 -0.0370 -0.3840  0.2005
   55MOL0     H 7376   0.700   4.516   5.948  0.8632 -1.6681  0.0400
   55MOL0     H 7377   0.781   4.300   5.943  1.4603 -2.2729  1.2286
   55MOL0     H 7378   0.748   4.214   5.784 -0.8302 -0.2943  1.2615
   55MOL0     H 7379   0.973   4.180   5.724 -0.2057  0.3093 -0.0847
   55MOL0     H 7380   1.036   4.273   5.861 -1.5066 -0.4474  3.1067
   55MOL0     H 7381   1.045   4.032   5.922  0.5925  0.2879  2.7620
   55MOL0     H 7382   0.876   4.024   5.921  0.4142 -1.6597  1.9167
   55MOL0     H 7383   0.859   4.181   6.083  0.9020  2.8587 -0.0535
   55MOL0     H 7384   1.016   4.233   6.076  1.8701 -0.7187  0.6765
   55MOL0     H 7385   0.754   3.921   6.095  0.1719 -1.5043 -0.0921
   55MOL0     H 7386   0.680   3.702   6.216  1.3042 -2.6653  3.0784
   55MOL0     H 7387   0.764   3.254   6.293 -0.0219 -0.1051  0.9791
   55MOL0     H 7388   0.714   3.044   6.429 -2.1533 -0.5505  0.0047
   55MOL0     H 7389   0.467   3.062   6.783  0.8790  0.7304 -0.6972
   55MOL0     H 7390   0.367   3.043   6.635  0.1732  0.1719 -0.7059
   55MOL0     H 7391   0.476   2.805   6.635  0.2522  2.2517 -1.8584
   55MOL0     H 7392   0.528   2.849   6.803 -2.2981  0.0767  1.5362
   55MOL0     H 7393   0.307   2.831   6.894 -0.6237 -0.7793 -0.1472
   55MOL0     H 7394   0.226   2.848   6.742 -1.2118  1.0658  2.5587
   55MOL0     H 7395   0.328   2.644   6.658  0.3996  2.0688 -0.4556
   55MOL0     H 7396   0.208   2.609   6.784  0.4385 -2.1609 -0.5988
   55MOL0     H 7397   0.357   2.586   6.958  0.8750  1.3935 -0.1868
   55MOL0     H 7398   0.501   2.623   6.863 -0.7598  2.5084  1.7438
   55MOL0     H 7399   0.316   2.375   6.854 -0.2423  0.3683 -0.5970
   55MOL0     H 7400   0.403   2.421   6.708 -1.3969 -1.7876  0.3389
   55MOL0     H 7401   0.543   2.373   6.982  0.7124 -0.0773 -0.2185
   55MOL0     H 7402   0.622   2.419   6.838 -2.1162  0.8303 -2.3859
   55MOL0     H 7403   0.471   2.171   6.909 -0.2489 -1.8008 -0.8280
   55MOL0     H 7404   0.517   2.191   6.744 -2.8295 -1.2934  0.2058
   55MOL0     H 7405   0.492   3.273   6.698 -1.4578  1.7382 -1.0560
   55MOL0     H 7406   0.563   3.486   6.583  1.7660  0.3920  1.5326
   55MOL0     H 7407   1.069   3.689   6.408 -2.1344 -0.7073  2.2809
   55MOL0     H 7408   1.133   3.878   6.308  1.2076 -1.0674 -2.3151
   55MOL0     H 7409   0.221   4.882   6.576  1.0650  0.9281  1.2215
   55MOL0     H 7410   0.191   4.809   6.799 -0.2254  1.3801 -1.1543
   55MOL0     H 7411   0.346   4.509   7.118  0.2781  0.9105  0.6600
   55MOL0     H 7412   0.337   4.434   7.353  1.1219 -1.1721 -0.9940
   55MOL0     H 7413   0.101   4.176   7.594  0.8497  1.1658 -1.3989
   55MOL0     H 7414  -0.004   4.156   7.451  0.1846  0.9421 -0.9587
   55MOL0     H 7415  -0.127   4.365   7.532  2.2623  0.5652 -0.0996
   55MOL0     H 7416  -0.039   4.362   7.681 -2.6014  2.9931 -0.7103
   55MOL0     H 7417  -0.144   4.110   7.695  2.6501 -0.7294 -1.9932
   55MOL0     H 7418  -0.227   4.144   7.550 -2.7588  3.2086 -1.0398
   55MOL0     H 7419  -0.361   4.320   7.624  3.1618  1.0589 -1.8014
   55MOL0     H 7420  -0.382   4.170   7.722  0.6886 -0.6904 -2.6888
   55MOL0     H 7421  -0.221   4.464   8.000 -0.4178 -0.1985  0.5122
   55MOL0     H 7422  -0.016   4.213   7.266  0.7756  0.6200  1.1444
   55MOL0     H 7423   0.042   4.185   6.922  2.1704  1.0046  0.7729
   55MOL0     H 7424  -0.085   4.167   7.047  0.5419  0.3527  1.1798
   55MOL0     H 7425  -0.086   4.315   6.959  0.6388  1.1904 -0.0238
   56MOL0     O 7426  10.175   3.340   0.087  0.2565 -0.3663 -0.1663
   56MOL0     C 7427  10.234   3.236   0.129 -0.5644 -0.3053  0.6330
   56MOL0     O 7428  10.174   3.127   0.177 -0.1965 -0.6214  0.1553
   56MOL0     C 7429  10.045   3.103   0.162  0.1996  0.2809  0.0024
   56MOL0     C 7430   9.996   2.983   0.120 -0.1950  0.0263  0.1551
   56MOL0     C 7431   9.855   2.952   0.136  0.0255  0.3826  0.3447
   56MOL0     C 7432   9.769   3.050   0.185  0.0514  0.6897  0.4601
   56MOL0     O 7433   9.638   3.033   0.207 -0.2908 -0.2170  0.0468
   56MOL0     C 7434   9.565   2.941   0.131 -0.4890  0.5946 -0.3396
   56MOL0     C 7435   9.542   2.806   0.210  1.1893 -0.1660  0.8945
   56MOL0     C 7436   9.411   2.739   0.172  0.0619 -0.2803 -0.7039
   56MOL0     C 7437   9.416   2.680   0.026 -0.2283 -0.0540 -0.5504
   56MOL0     C 7438   9.303   2.577   0.028 -0.4377 -0.3349  0.3669
   56MOL0     C 7439   9.271   2.515  -0.109  0.1488  0.0959  0.9922
   56MOL0     C 7440   9.152   2.420  -0.113 -0.0369 -0.6091 -0.0362
   56MOL0     C 7441   9.103   2.373  -0.253 -0.3570  0.5576 -0.2536
   56MOL0     N 7442   9.041   2.234  -0.243  1.0097  0.2402 -0.6677
   56MOL0     C 7443   9.109   2.133  -0.182  0.3045 -0.7162  0.8188
   56MOL0     C 7444   9.021   2.024  -0.174 -0.2541 -0.6879  0.8755
   56MOL0     C 7445   9.040   1.886  -0.125 -0.7608 -0.2808  0.4121
   56MOL0     C 7446   9.079   1.798  -0.240 -0.1095 -0.2736  0.3567
   56MOL0     C 7447   9.076   1.651  -0.205  0.5858  0.6357 -0.0186
   56MOL0     C 7448   9.147   1.562  -0.309 -0.2722 -0.0235 -0.6906
   56MOL0     O 7449   9.135   1.616  -0.442 -0.2857 -0.3817 -1.3376
   56MOL0     C 7450   9.181   1.531  -0.543 -0.0863  0.0359  0.3252
   56MOL0     C 7451   9.256   1.416  -0.529 -0.5984  0.9674  0.3065
   56MOL0     C 7452   9.299   1.342  -0.642  0.5930  0.9100  0.4085
   56MOL0     C 7453   9.261   1.380  -0.770 -0.8196 -0.4126 -0.1156
   56MOL0     C 7454   9.296   1.302  -0.893 -0.0460  0.1246  0.0871
   56MOL0     O 7455   9.371   1.188  -0.879  0.1144  0.2458 -0.2492
   56MOL0     C 7456   9.406   1.109  -0.990  0.7048  0.4733 -0.2289
   56MOL0     C 7457   9.538   1.071  -1.002  0.6267 -0.4864  0.1891
   56MOL0     C 7458   9.567   0.979  -1.105  0.2492 -0.0181 -0.1470
   56MOL0     C 7459   9.471   0.910  -1.194  0.0477 -1.3147  0.3917
   56MOL0     O 7460   9.523   0.819  -1.287  0.0358 -0.2335 -0.2859
   56MOL0     C 7461   9.444   0.816  -1.408  0.1652  0.0291  0.4262
   56MOL0     C 7462   9.516   0.743  -1.533  0.7848 -0.2704 -0.3354
   56MOL0     C 7463   9.534   0.595  -1.495 -0.7038 -0.8239 -0.3754
   56MOL0     C 7464   9.605   0.508  -1.602  0.7521  0.1873  0.4132
   56MOL0     C 7465   9.616   0.368  -1.557 -0.3516  0.2759  0.7236
   56MOL0     C 7466   9.478   0.301  -1.578  0.0336  0.3597  0.0404
   56MOL0     C 7467   9.478   0.143  -1.560 -0.2539 -0.6940  0.6890
   56MOL0     C 7468   9.567   0.088  -1.446 -0.4640  0.7945 -0.0661
   56MOL0    Cl 7469   9.543  -0.079  -1.444 -0.3181 -0.0629 -0.2498
   56MOL0     C 7470   9.351   0.968  -1.186 -0.2541 -0.1674  0.2595
   56MOL0     C 7471   9.318   1.065  -1.091 -0.4731 -0.3097  0.5324
   56MOL0     O 7472   9.248   1.342  -0.999  0.5300 -0.0160  0.2432
   56MOL0     C 7473   9.204   1.510  -0.780 -0.5035  0.6970  0.0317
   56MOL0     C 7474   9.161   1.576  -0.668 -0.6433 -1.1136  0.5059
   56MOL0     N 7475   8.904   2.077  -0.235  0.6900 -0.6303 -0.7139
   56MOL0     N 7476   8.914   2.192  -0.286  0.5925  0.1575 -0.8042
   56MOL0     C 7477   9.820   3.174   0.226  0.2893  0.2012 -1.2127
   56MOL0     C 7478   9.952   3.190   0.218 -0.6991  0.2777  0.3124
   56MOL0     C 7479  10.372   3.260   0.170  0.0395 -0.2977 -0.4877
   56MOL0     C 7480  10.420   3.398   0.171  0.3615 -0.9173 -0.2477
   56MOL0     C 7481  10.550   3.430   0.194 -0.8151  0.6362  0.5050
   56MOL0     C 7482  10.645   3.333   0.225  0.6121 -0.0299  0.5301
   56MOL0     O 7483  10.764   3.384   0.257 -0.3642  0.0728 -0.1368
   56MOL0     C 7484  10.844   3.302   0.335 -0.0702  0.7623  0.3183
   56MOL0     C 7485  10.926   3.193   0.275 -0.2989 -0.1133 -0.0776
   56MOL0     C 7486  10.962   3.091   0.386 -0.2628 -0.0767  1.1998
   56MOL0     C 7487  11.085   3.014   0.347  0.6086  0.1381  0.3152
   56MOL0     C 7488  11.075   2.883   0.410  0.0800  0.7858 -0.6332
   56MOL0     C 7489  11.040   2.779   0.473 -0.2397  0.3889 -0.7692
   56MOL0     C 7490  10.603   3.199   0.217  0.3083 -0.1740 -0.4422
   56MOL0     C 7491  10.467   3.158   0.188 -1.0915 -0.6778 -0.5340
   56MOL0     C 7492  10.429   3.016   0.211  0.0546 -0.2571  0.6182
   56MOL0     H 7493  10.059   2.910   0.069 -1.6129  0.8209 -2.9865
   56MOL0     H 7494   9.806   2.857   0.115 -0.1584 -0.5420  4.1839
   56MOL0     H 7495   9.466   2.984   0.116 -0.6892 -0.5752 -2.6992
   56MOL0     H 7496   9.597   2.926   0.028  1.3100  1.7684 -0.0084
   56MOL0     H 7497   9.535   2.828   0.317 -2.4444 -1.7906  1.1170
   56MOL0     H 7498   9.628   2.740   0.192  1.4390  0.8475 -2.3062
   56MOL0     H 7499   9.320   2.797   0.185 -0.9918 -1.9927 -0.1316
   56MOL0     H 7500   9.406   2.654   0.241 -1.3390  0.3618  0.0090
   56MOL0     H 7501   9.396   2.751  -0.055  1.4756  0.1740 -0.8057
   56MOL0     H 7502   9.515   2.635   0.015  0.7545  2.2401 -1.7788
   56MOL0     H 7503   9.324   2.490   0.091 -1.7776 -2.1064 -1.4697
   56MOL0     H 7504   9.212   2.635   0.046  0.9051  2.5187 -1.3611
   56MOL0     H 7505   9.262   2.595  -0.183 -0.4735  1.4497  2.4641
   56MOL0     H 7506   9.358   2.454  -0.135 -0.7086 -0.0595 -1.9114
   56MOL0     H 7507   9.068   2.471  -0.066  1.0007  0.2571  0.9364
   56MOL0     H 7508   9.176   2.339  -0.044 -1.8670  1.3293  3.1448
   56MOL0     H 7509   9.024   2.442  -0.283 -0.7015 -0.4100 -1.6738
   56MOL0     H 7510   9.180   2.391  -0.329 -2.4428  3.4379 -1.8997
   56MOL0     H 7511   9.206   2.115  -0.138  1.0150 -1.1371 -0.8614
   56MOL0     H 7512   9.116   1.883  -0.046 -0.5518 -2.0218  0.1911
   56MOL0     H 7513   8.948   1.846  -0.081  0.5488 -1.8454  1.9166
   56MOL0     H 7514   9.009   1.806  -0.323  1.6460 -1.8677 -1.3792
   56MOL0     H 7515   9.178   1.827  -0.277  0.1158 -1.2606  0.1826
   56MOL0     H 7516   8.970   1.624  -0.209  0.8273 -0.3383 -0.2230
   56MOL0     H 7517   9.118   1.618  -0.109  0.7416 -0.8845 -0.5820
   56MOL0     H 7518   9.109   1.460  -0.310  0.7798 -0.4301 -0.4809
   56MOL0     H 7519   9.252   1.550  -0.281 -1.0799  2.9568  5.5004
   56MOL0     H 7520   9.289   1.384  -0.431  3.8135  0.0501 -1.2754
   56MOL0     H 7521   9.331   1.239  -0.636 -2.8022 -0.2245  1.3000
   56MOL0     H 7522   9.609   1.124  -0.939  0.4530 -0.0715  0.0391
   56MOL0     H 7523   9.670   0.954  -1.127 -0.2892 -1.2225 -1.4502
   56MOL0     H 7524   9.357   0.752  -1.392 -2.9596  2.7617 -3.4952
   56MOL0     H 7525   9.420   0.920  -1.430  0.9326  0.1241 -0.0308
   56MOL0     H 7526   9.454   0.750  -1.622 -1.5733  0.1394  1.2524
   56MOL0     H 7527   9.612   0.787  -1.562  0.0475  0.8071 -1.2277
   56MOL0     H 7528   9.595   0.589  -1.404 -0.7979 -0.3555 -0.2833
   56MOL0     H 7529   9.438   0.553  -1.465 -0.6241  0.0651  1.2392
   56MOL0     H 7530   9.707   0.547  -1.615 -0.2456  3.0085  0.3470
   56MOL0     H 7531   9.539   0.525  -1.688 -0.1124 -0.4981  0.9297
   56MOL0     H 7532   9.653   0.358  -1.454  4.2316  2.7905 -0.4198
   56MOL0     H 7533   9.682   0.317  -1.627 -2.1577  2.1296 -2.5399
   56MOL0     H 7534   9.410   0.345  -1.505  1.7173  2.9919  0.1552
   56MOL0     H 7535   9.431   0.319  -1.675  1.6267 -2.0204 -1.2945
   56MOL0     H 7536   9.505   0.103  -1.658  1.8650  3.1415 -0.4821
   56MOL0     H 7537   9.375   0.112  -1.539 -1.1991  2.3805  1.1592
   56MOL0     H 7538   9.670   0.118  -1.470 -0.4643 -0.2673 -1.5195
   56MOL0     H 7539   9.537   0.124  -1.347 -1.3251 -1.8858  0.7364
   56MOL0     H 7540   9.272   0.926  -1.248  0.7492 -4.2078  1.4521
   56MOL0     H 7541   9.217   1.105  -1.081 -0.8687 -0.9971 -0.5992
   56MOL0     H 7542   9.186   1.565  -0.871  2.3556 -0.2825 -1.2285
   56MOL0     H 7543   9.110   1.671  -0.680 -0.9966 -1.5605 -2.0647
   56MOL0     H 7544   9.759   3.246   0.280  0.3515  1.3545 -2.6120
   56MOL0     H 7545   9.990   3.275   0.274 -0.9485  0.1844  0.6255
   56MOL0     H 7546  10.347   3.474   0.144 -0.2020 -1.1228  0.6573
   56MOL0     H 7547  10.598   3.526   0.177  0.3817  0.2979  1.7485
   56MOL0     H 7548  10.777   3.255   0.407 -2.5299  1.7332 -1.2256
   56MOL0     H 7549  10.920   3.355   0.394  3.0558 -2.2257 -0.7221
   56MOL0     H 7550  11.016   3.239   0.235  0.8435 -1.2887  1.0505
   56MOL0     H 7551  10.869   3.142   0.197  0.1246 -1.8398  0.7033
   56MOL0     H 7552  10.881   3.019   0.399  0.7771 -2.2839 -3.0104
   56MOL0     H 7553  10.974   3.144   0.481  5.5417 -0.6984  1.1474
   56MOL0     H 7554  11.086   3.004   0.238 -1.8493  1.9646  0.0396
   56MOL0     H 7555  11.178   3.062   0.377  1.3648 -0.0959 -1.5220
   56MOL0     H 7556  11.010   2.691   0.527  1.0402  1.5341  2.0388
   56MOL0     H 7557  10.664   3.117   0.252  1.3874  1.7786  2.6901
   56MOL0     H 7558  10.374   2.994   0.303  1.6289  2.1898  2.2416
   56MOL0     H 7559  10.362   2.982   0.131  0.7734  0.6287 -0.3938
   56MOL0     H 7560  10.513   2.949   0.229 -1.3302 -1.4879  3.0316
   57MOL0     O 7561   1.496   3.866   9.006 -1.4215 -0.0865  0.1937
   57MOL0     C 7562   1.581   3.854   9.097  0.0119  0.1059  0.2866
   57MOL0     O 7563   1.563   3.884   9.230  0.3407  0.3536  0.3011
   57MOL0     C 7564   1.445   3.847   9.299 -0.9125  0.4658  0.6138
   57MOL0     C 7565   1.373   3.730   9.273  1.4628  1.1270 -1.2066
   57MOL0     C 7566   1.248   3.715   9.338  0.1167  0.7239  0.4380
   57MOL0     C 7567   1.193   3.814   9.416  0.3048  0.2826  1.5392
   57MOL0     O 7568   1.062   3.788   9.448 -0.5226 -0.2842  0.2317
   57MOL0     C 7569   1.023   3.873   9.558  0.0824  0.8362  0.4670
   57MOL0     C 7570   0.887   3.824   9.630 -0.5452  0.5344  1.0646
   57MOL0     C 7571   0.768   3.807   9.519 -0.3004  0.8716 -0.7659
   57MOL0     C 7572   0.645   3.746   9.570 -0.4206  0.4587  0.4148
   57MOL0     C 7573   0.552   3.723   9.442  0.1972 -0.5764  0.0948
   57MOL0     C 7574   0.497   3.860   9.383 -0.5284 -0.8996 -0.2970
   57MOL0     C 7575   0.394   3.938   9.460 -0.4441 -0.2938 -0.0356
   57MOL0     C 7576   0.264   3.876   9.512  0.1165  0.4868  1.0275
   57MOL0     N 7577   0.238   3.889   9.658  0.5306 -0.6066 -0.0654
   57MOL0     C 7578   0.227   4.003   9.724  0.2137 -0.0293  0.2003
   57MOL0     C 7579   0.185   3.968   9.848  1.8155  0.6918 -0.1279
   57MOL0     C 7580   0.147   4.065   9.967  0.1707 -0.9101 -0.2848
   57MOL0     C 7581   0.008   4.117   9.963  0.2241 -0.0833 -0.6880
   57MOL0     C 7582  -0.021   4.213   9.855 -0.0711  0.3312 -0.0160
   57MOL0     C 7583  -0.168   4.249   9.856 -0.5441 -0.1481 -0.4772
   57MOL0     O 7584  -0.184   4.330   9.741 -0.0175 -0.4674 -0.2020
   57MOL0     C 7585  -0.295   4.389   9.702  0.4985 -0.3339 -0.0378
   57MOL0     C 7586  -0.295   4.476   9.594 -0.2854  0.5720 -0.0584
   57MOL0     C 7587  -0.411   4.537   9.547 -1.0742 -0.6308  0.0377
   57MOL0     C 7588  -0.533   4.507   9.593  0.2580  0.7427 -0.0950
   57MOL0     C 7589  -0.655   4.555   9.541 -0.5389 -0.8174 -0.3934
   57MOL0     O 7590  -0.755   4.572   9.636 -0.5373 -0.0563  0.2716
   57MOL0     C 7591  -0.859   4.639   9.583  0.1486 -0.3295  0.0516
   57MOL0     C 7592  -0.984   4.583   9.571  0.2939  0.3239  0.3453
   57MOL0     C 7593  -1.097   4.657   9.524  0.1078  0.1223 -0.7398
   57MOL0     C 7594  -1.078   4.786   9.480 -0.4770  0.6902 -0.1026
   57MOL0     O 7595  -1.188   4.855   9.454  0.4369 -0.3548 -0.2434
   57MOL0     C 7596  -1.197   4.943   9.349  0.2012  0.0587  0.6701
   57MOL0     C 7597  -1.342   4.971   9.328  0.3026 -0.7390 -0.0962
   57MOL0     C 7598  -1.423   5.067   9.424 -1.0005  0.3360  0.0002
   57MOL0     C 7599  -1.554   5.130   9.364  0.2383 -0.2069  0.5190
   57MOL0     C 7600  -1.643   5.187   9.473  0.6372 -0.3524 -0.1965
   57MOL0     C 7601  -1.682   5.103   9.604 -0.6446  0.3698 -0.5119
   57MOL0     C 7602  -1.766   5.183   9.705 -0.3506 -0.0114 -0.3511
   57MOL0     C 7603  -1.913   5.168   9.697  0.2359 -0.1669 -0.0686
   57MOL0    Cl 7604  -1.949   4.999   9.726 -0.0722 -0.2813 -0.1429
   57MOL0     C 7605  -0.949   4.843   9.490 -0.1130 -0.3868 -0.5814
   57MOL0     C 7606  -0.845   4.773   9.540 -0.9577  0.5917 -0.3771
   57MOL0     O 7607  -0.656   4.608   9.430 -0.3979 -0.5733  0.8489
   57MOL0     C 7608  -0.539   4.413   9.705  0.2699 -0.5161 -0.1453
   57MOL0     C 7609  -0.422   4.355   9.758 -0.4906 -0.1221  0.7721
   57MOL0     N 7610   0.183   3.830   9.859 -0.0173  0.6615  0.0450
   57MOL0     N 7611   0.208   3.788   9.739 -0.5037  0.4261  0.3502
   57MOL0     C 7612   1.265   3.935   9.443  0.0896 -0.2994  0.0152
   57MOL0     C 7613   1.397   3.940   9.401 -0.5356  0.5685 -0.2463
   57MOL0     C 7614   1.720   3.858   9.052  0.8709  0.6087  0.2475
   57MOL0     C 7615   1.795   3.971   9.068 -0.1560  0.2579  0.3026
   57MOL0     C 7616   1.918   3.987   8.999  0.0482  0.9890  0.0474
   57MOL0     C 7617   1.968   3.880   8.928 -0.1096 -0.3205  0.5729
   57MOL0     O 7618   2.093   3.880   8.876  0.2090 -0.4354 -0.0255
   57MOL0     C 7619   2.116   3.946   8.753 -0.3019  0.3878 -0.6721
   57MOL0     C 7620   2.267   3.973   8.739  0.7621 -0.9041  0.0086
   57MOL0     C 7621   2.326   4.072   8.850 -0.3854  0.0025 -0.0537
   57MOL0     C 7622   2.273   4.210   8.856  0.4365 -0.2877 -0.4512
   57MOL0     C 7623   2.235   4.262   8.724  0.7108  0.7656 -0.0720
   57MOL0     C 7624   2.220   4.300   8.607 -0.2901  0.2397 -0.3052
   57MOL0     C 7625   1.889   3.760   8.910  0.2132 -0.2423 -0.2276
   57MOL0     C 7626   1.765   3.753   8.969 -0.3316  0.6981 -0.2312
   57MOL0     C 7627   1.693   3.626   8.954  0.0818 -0.4825 -0.7722
   57MOL0     H 7628   1.407   3.663   9.196  1.6201 -0.5562  0.2710
   57MOL0     H 7629   1.185   3.629   9.319 -0.9294  0.9066  2.7873
   57MOL0     H 7630   1.099   3.878   9.637  1.3610 -0.9157 -0.5803
   57MOL0     H 7631   1.007   3.975   9.520 -1.9732  0.0975 -0.7811
   57MOL0     H 7632   0.853   3.891   9.710  0.5519 -2.5253  4.3963
   57MOL0     H 7633   0.901   3.728   9.680 -2.4219 -0.3552 -0.0387
   57MOL0     H 7634   0.802   3.752   9.431 -1.7794 -0.3267 -0.6421
   57MOL0     H 7635   0.733   3.909   9.504 -1.7320  0.4694 -0.3844
   57MOL0     H 7636   0.665   3.644   9.604 -0.8749  0.3499  0.3657
   57MOL0     H 7637   0.594   3.808   9.644 -0.7052 -2.1490  2.5811
   57MOL0     H 7638   0.605   3.682   9.355  0.4280 -1.6181  0.7018
   57MOL0     H 7639   0.465   3.663   9.469  0.0333 -1.7917 -2.7599
   57MOL0     H 7640   0.575   3.931   9.354 -1.2996 -1.0597 -3.0291
   57MOL0     H 7641   0.448   3.829   9.290  0.3396 -2.9359 -0.1080
   57MOL0     H 7642   0.361   4.022   9.398 -1.5030 -0.9757 -0.4178
   57MOL0     H 7643   0.447   3.979   9.546 -1.6377 -0.2484  0.6865
   57MOL0     H 7644   0.190   3.931   9.454  0.6184 -0.6332 -0.7250
   57MOL0     H 7645   0.266   3.771   9.485 -1.5158  0.6969  0.0250
   57MOL0     H 7646   0.239   4.101   9.677  2.5981 -1.1172 -1.6364
   57MOL0     H 7647   0.154   4.005  10.058 -3.4703 -1.0109  0.0998
   57MOL0     H 7648   0.224   4.142   9.959 -0.5097 -0.0782  0.8202
   57MOL0     H 7649  -0.050   4.028   9.937 -2.5252  1.4256 -0.0910
   57MOL0     H 7650  -0.013   4.161  10.061  0.8363  1.1603 -1.0971
   57MOL0     H 7651  -0.000   4.178   9.753 -0.7449 -3.4641  1.0099
   57MOL0     H 7652   0.041   4.302   9.869 -0.7871  1.3077 -2.4127
   57MOL0     H 7653  -0.188   4.304   9.948 -1.6429  1.7469 -1.7680
   57MOL0     H 7654  -0.230   4.159   9.851 -2.2656  0.8926  1.1151
   57MOL0     H 7655  -0.203   4.513   9.549  0.2885  1.5644  1.7889
   57MOL0     H 7656  -0.395   4.595   9.457  1.2992 -0.1177  0.7260
   57MOL0     H 7657  -0.996   4.481   9.606  2.7743 -0.2971 -0.3582
   57MOL0     H 7658  -1.185   4.596   9.506 -0.6257  1.4571 -1.8568
   57MOL0     H 7659  -1.143   5.034   9.375 -0.0930  0.4579 -0.0990
   57MOL0     H 7660  -1.156   4.896   9.259 -4.8438 -4.3596  0.1813
   57MOL0     H 7661  -1.332   5.027   9.234 -0.6482  1.8683  1.2419
   57MOL0     H 7662  -1.390   4.874   9.313 -0.9192 -0.3076  0.8349
   57MOL0     H 7663  -1.447   4.991   9.499  0.7870  0.3277  0.6279
   57MOL0     H 7664  -1.368   5.156   9.458 -1.5588  1.2831 -1.4941
   57MOL0     H 7665  -1.607   5.059   9.300 -0.2355  1.9853 -1.6567
   57MOL0     H 7666  -1.530   5.213   9.297 -1.7152  0.3079  0.4081
   57MOL0     H 7667  -1.735   5.226   9.427  0.4686 -1.4238 -0.7962
   57MOL0     H 7668  -1.581   5.265   9.519  0.3328  1.1237 -2.1265
   57MOL0     H 7669  -1.734   5.016   9.562  0.7977  0.5771 -2.9311
   57MOL0     H 7670  -1.589   5.068   9.650 -0.5628 -2.4769 -2.5200
   57MOL0     H 7671  -1.743   5.289   9.696 -1.1765  0.0130 -2.9384
   57MOL0     H 7672  -1.721   5.155   9.801  3.8524  0.9505 -1.8047
   57MOL0     H 7673  -1.967   5.223   9.774 -1.3998 -2.0117  0.1849
   57MOL0     H 7674  -1.953   5.201   9.600 -0.4796 -3.0041 -0.8420
   57MOL0     H 7675  -0.921   4.944   9.463  1.3397  0.2741  2.8534
   57MOL0     H 7676  -0.748   4.817   9.562  0.5411 -2.5361 -0.0381
   57MOL0     H 7677  -0.638   4.380   9.734  0.1608 -2.2079 -2.1905
   57MOL0     H 7678  -0.444   4.295   9.845  2.6555 -0.5714  1.3681
   57MOL0     H 7679   1.218   4.011   9.504 -0.4830 -0.9345  0.3851
   57MOL0     H 7680   1.468   4.022   9.411 -0.8408  0.6502  1.7850
   57MOL0     H 7681   1.763   4.049   9.136  1.0615  0.6678  0.4263
   57MOL0     H 7682   1.987   4.068   9.020  2.9794 -1.5520  1.0125
   57MOL0     H 7683   2.045   4.029   8.753 -3.1868 -1.8009  2.1843
   57MOL0     H 7684   2.085   3.868   8.683  1.3702 -1.1815  0.2446
   57MOL0     H 7685   2.296   4.011   8.641 -0.4090  0.9846  0.3386
   57MOL0     H 7686   2.309   3.873   8.757 -1.4661 -2.1901 -1.5198
   57MOL0     H 7687   2.434   4.078   8.832 -0.4311 -0.1477 -0.3862
   57MOL0     H 7688   2.321   4.027   8.949  3.1564 -0.5196  0.0427
   57MOL0     H 7689   2.189   4.223   8.925 -0.0482  1.1849 -1.2797
   57MOL0     H 7690   2.347   4.277   8.899  0.9575 -0.8311 -0.4861
   57MOL0     H 7691   2.207   4.347   8.511  2.2889  2.4726  0.3420
   57MOL0     H 7692   1.929   3.683   8.845 -3.0642  0.7514 -3.7936
   57MOL0     H 7693   1.731   3.575   8.865 -1.6353  0.4513 -2.0899
   57MOL0     H 7694   1.709   3.576   9.050  0.0510  0.4107 -0.2974
   57MOL0     H 7695   1.585   3.644   8.946  0.3040  1.7404  0.5091
   58MOL0     O 7696   0.472  10.193   0.120 -0.4564 -0.1544  0.9972
   58MOL0     C 7697   0.593  10.182   0.137  0.3010 -0.3504 -0.4840
   58MOL0     O 7698   0.669  10.296   0.175 -0.2075  0.0559 -0.4598
   58MOL0     C 7699   0.615  10.415   0.212 -0.1290 -1.3504 -0.9485
   58MOL0     C 7700   0.673  10.526   0.146  0.9468 -0.9932 -0.5659
   58MOL0     C 7701   0.636  10.656   0.187 -0.1712  0.4312  0.2109
   58MOL0     C 7702   0.544  10.672   0.298  0.1003 -0.1498  0.3932
   58MOL0     O 7703   0.526  10.802   0.333 -0.0049  0.0470  0.0342
   58MOL0     C 7704   0.384  10.843   0.338  0.1236 -0.0816 -0.7656
   58MOL0     C 7705   0.364  10.942   0.456  0.2727  0.1560  0.2039
   58MOL0     C 7706   0.383  10.863   0.576  0.0917 -0.9875  0.3798
   58MOL0     C 7707   0.362  10.959   0.694  1.1448 -0.2414 -0.5729
   58MOL0     C 7708   0.354  10.891   0.835 -0.3845 -0.1823 -0.6018
   58MOL0     C 7709   0.472  10.808   0.878 -0.5483  0.4436  0.7445
   58MOL0     C 7710   0.468  10.659   0.846 -0.0272 -0.7771  0.7151
   58MOL0     C 7711   0.596  10.583   0.885  0.4289 -0.0627 -0.3441
   58MOL0     N 7712   0.704  10.643   0.814 -0.0797 -1.2635 -0.4824
   58MOL0     C 7713   0.710  10.647   0.674  0.0990 -0.2076  0.0570
   58MOL0     C 7714   0.814  10.728   0.652  0.6591 -0.5500 -0.7732
   58MOL0     C 7715   0.862  10.755   0.507  0.0832 -0.4997 -0.4518
   58MOL0     C 7716   0.907  10.894   0.488 -0.3108 -0.7144 -0.2116
   58MOL0     C 7717   0.793  10.987   0.442  1.2520 -0.2041 -0.4532
   58MOL0     C 7718   0.847  11.123   0.411 -0.2739  0.1924  0.6022
   58MOL0     O 7719   0.738  11.195   0.343  0.3787  0.1380 -0.5612
   58MOL0     C 7720   0.636  11.250   0.421 -0.2418 -1.1142  0.3502
   58MOL0     C 7721   0.613  11.240   0.561 -0.6215  0.4393  0.2907
   58MOL0     C 7722   0.489  11.295   0.622  0.0325 -0.2459  0.1071
   58MOL0     C 7723   0.407  11.380   0.546  0.1327 -0.8279  0.8494
   58MOL0     C 7724   0.285  11.446   0.600  0.0337  0.6119 -0.2038
   58MOL0     O 7725   0.229  11.541   0.521  0.3436  0.8150 -0.3332
   58MOL0     C 7726   0.128  11.625   0.555 -0.7143 -0.2089 -0.7595
   58MOL0     C 7727   0.092  11.664   0.685  0.8485 -0.7156  0.2710
   58MOL0     C 7728  -0.013  11.752   0.712  0.1784  1.1452  0.0226
   58MOL0     C 7729  -0.078  11.811   0.609  0.4980 -0.5904 -0.5714
   58MOL0     O 7730  -0.176  11.908   0.634 -0.0491  0.9768 -0.3429
   58MOL0     C 7731  -0.310  11.849   0.615 -0.5117  0.5179  1.2007
   58MOL0     C 7732  -0.427  11.939   0.649 -0.0021 -0.1056  0.3374
   58MOL0     C 7733  -0.415  12.075   0.571 -0.1062  0.1067 -0.7678
   58MOL0     C 7734  -0.550  12.155   0.594 -0.8651 -0.1874 -0.8518
   58MOL0     C 7735  -0.552  12.292   0.518  0.1412  0.1572  0.5239
   58MOL0     C 7736  -0.692  12.354   0.522 -0.6056  0.7591 -0.4099
   58MOL0     C 7737  -0.679  12.494   0.476 -0.0092 -0.5446  0.3697
   58MOL0     C 7738  -0.823  12.541   0.503 -0.1109 -0.4853 -0.4210
   58MOL0    Cl 7739  -0.950  12.448   0.423  0.1270  0.2370  0.1994
   58MOL0     C 7740  -0.037  11.791   0.482 -0.0209  0.2284  0.1472
   58MOL0     C 7741   0.065  11.697   0.447 -0.3560  0.5898 -0.1290
   58MOL0     O 7742   0.252  11.411   0.708 -0.2434 -0.0281 -0.7274
   58MOL0     C 7743   0.442  11.405   0.410  0.1565 -0.0099 -0.7520
   58MOL0     C 7744   0.550  11.339   0.354 -0.0269  0.3073 -0.3593
   58MOL0     N 7745   0.858  10.779   0.769 -0.3674 -0.4897 -0.1216
   58MOL0     N 7746   0.794  10.728   0.864  0.3784 -1.0311 -0.0019
   58MOL0     C 7747   0.496  10.566   0.359 -0.2022  0.2825  0.0522
   58MOL0     C 7748   0.525  10.428   0.319  0.1160 -0.8050 -0.0465
   58MOL0     C 7749   0.660  10.051   0.131  0.3537  0.9509  1.2321
   58MOL0     C 7750   0.638   9.972   0.012  0.0240 -0.3922  0.3837
   58MOL0     C 7751   0.696   9.849  -0.010 -0.3386  0.3220 -0.9273
   58MOL0     C 7752   0.772   9.794   0.090 -0.8954 -0.2991 -0.4920
   58MOL0     O 7753   0.824   9.665   0.075 -0.6859 -0.5353  0.5679
   58MOL0     C 7754   0.734   9.553   0.051 -0.6474 -1.1459  0.5001
   58MOL0     C 7755   0.812   9.427   0.074  0.1364  0.0947  0.9282
   58MOL0     C 7756   0.822   9.370   0.219 -0.9407  0.7113 -0.0606
   58MOL0     C 7757   0.892   9.227   0.224  0.1931  0.0052 -0.3656
   58MOL0     C 7758   0.821   9.117   0.151 -1.2741 -0.8099  0.4799
   58MOL0     C 7759   0.798   9.011   0.096 -1.0441  0.3035 -0.8968
   58MOL0     C 7760   0.796   9.863   0.201  0.1412  0.3239 -0.1955
   58MOL0     C 7761   0.742   9.989   0.228  0.4493  0.6427 -0.3472
   58MOL0     C 7762   0.785  10.072   0.344 -0.3881 -0.1704 -0.0976
   58MOL0     H 7763   0.753  10.523   0.072  0.9901 -0.2489 -0.5609
   58MOL0     H 7764   0.672  10.746   0.139  0.7965  1.9093  3.4342
   58MOL0     H 7765   0.355  10.904   0.252  2.1066  2.2691  0.1100
   58MOL0     H 7766   0.309  10.764   0.332 -0.1623 -0.0885  1.7930
   58MOL0     H 7767   0.263  10.982   0.441  0.9721  1.1558 -2.5487
   58MOL0     H 7768   0.437  11.023   0.445  1.9658 -0.9094  2.8053
   58MOL0     H 7769   0.483  10.820   0.572  0.1389 -0.7740 -1.3641
   58MOL0     H 7770   0.314  10.778   0.569  2.8904 -3.6490  2.4727
   58MOL0     H 7771   0.443  11.033   0.696 -1.5127  2.9138  1.3324
   58MOL0     H 7772   0.276  11.023   0.672  0.6533 -0.1109  1.5098
   58MOL0     H 7773   0.339  10.969   0.911 -1.0507 -1.3365  0.4972
   58MOL0     H 7774   0.266  10.828   0.847 -0.5144  0.2810  1.3738
   58MOL0     H 7775   0.565  10.851   0.839 -2.3032  1.8178 -2.1937
   58MOL0     H 7776   0.472  10.808   0.988  0.8598 -0.3360  0.7724
   58MOL0     H 7777   0.455  10.639   0.740 -1.3950 -1.7172  1.0449
   58MOL0     H 7778   0.379  10.617   0.895  1.5406 -2.1080  2.6413
   58MOL0     H 7779   0.625  10.604   0.988  1.3544  3.1657 -1.1198
   58MOL0     H 7780   0.576  10.476   0.877 -1.3136  0.1750  0.4574
   58MOL0     H 7781   0.653  10.590   0.601  2.2361 -2.3724 -0.0526
   58MOL0     H 7782   0.941  10.682   0.488  0.1592 -2.1347  4.6113
   58MOL0     H 7783   0.779  10.738   0.437  0.0870 -1.5704 -0.2178
   58MOL0     H 7784   0.950  10.924   0.584 -1.0588 -1.7006  0.4595
   58MOL0     H 7785   0.984  10.903   0.411  1.4362  0.8461  1.5806
   58MOL0     H 7786   0.713  10.990   0.516  0.3692 -1.7011 -1.3065
   58MOL0     H 7787   0.758  10.947   0.347  1.4814  1.5018 -1.2990
   58MOL0     H 7788   0.931  11.117   0.341 -0.7920  1.6929 -0.1822
   58MOL0     H 7789   0.886  11.165   0.504  1.3936  0.8871 -0.3576
   58MOL0     H 7790   0.686  11.197   0.629  0.0909  2.2070  0.7044
   58MOL0     H 7791   0.483  11.304   0.730 -3.6521  1.4397 -0.0833
   58MOL0     H 7792   0.139  11.617   0.770  0.0634 -1.4693  0.3007
   58MOL0     H 7793  -0.027  11.767   0.818 -0.5672 -1.6569  0.4042
   58MOL0     H 7794  -0.313  11.829   0.507  1.6747 -0.3939  1.2753
   58MOL0     H 7795  -0.326  11.757   0.672 -2.4802 -0.2122 -0.3918
   58MOL0     H 7796  -0.524  11.894   0.624  1.1000 -2.4273 -0.0171
   58MOL0     H 7797  -0.422  11.964   0.755  1.1931 -0.0661  0.2869
   58MOL0     H 7798  -0.323  12.127   0.598 -0.9721  1.9835 -1.2882
   58MOL0     H 7799  -0.410  12.045   0.466 -2.5069  0.1018 -0.9314
   58MOL0     H 7800  -0.570  12.185   0.697  1.1100 -0.2800 -0.3833
   58MOL0     H 7801  -0.621  12.076   0.568 -1.4305 -0.1405  0.4737
   58MOL0     H 7802  -0.533  12.274   0.412 -0.9595  3.9865 -0.4560
   58MOL0     H 7803  -0.470  12.347   0.565  4.1332 -2.9950 -1.9954
   58MOL0     H 7804  -0.750  12.282   0.464 -1.1233  0.2007  0.7645
   58MOL0     H 7805  -0.711  12.354   0.630 -0.2383  3.7723 -0.2708
   58MOL0     H 7806  -0.657  12.506   0.370  1.9150 -3.7255  0.2881
   58MOL0     H 7807  -0.609  12.558   0.531 -1.3673  0.4358  1.0234
   58MOL0     H 7808  -0.838  12.534   0.611  2.1517 -2.5378 -0.1712
   58MOL0     H 7809  -0.826  12.643   0.462 -2.2849 -1.0730 -1.8682
   58MOL0     H 7810  -0.087  11.849   0.406  1.7031  1.2555 -0.2351
   58MOL0     H 7811   0.088  11.672   0.344 -0.7350 -1.5560  0.2498
   58MOL0     H 7812   0.389  11.489   0.367  2.8441  2.0161 -0.3174
   58MOL0     H 7813   0.560  11.360   0.248 -1.1746  1.8972 -0.1858
   58MOL0     H 7814   0.435  10.579   0.448 -0.3366 -1.0292  0.1706
   58MOL0     H 7815   0.477  10.338   0.355 -1.0726 -0.7026 -1.2888
   58MOL0     H 7816   0.580  10.007  -0.073 -1.0298 -1.9005  0.4346
   58MOL0     H 7817   0.664   9.781  -0.088  1.3559 -0.0151 -1.3671
   58MOL0     H 7818   0.689   9.567  -0.048 -1.9006  2.2293  1.4079
   58MOL0     H 7819   0.654   9.570   0.123 -0.6616  1.1036  0.0377
   58MOL0     H 7820   0.912   9.418   0.029 -1.2083  1.0810 -2.5526
   58MOL0     H 7821   0.748   9.357   0.020  2.6577 -1.5048 -0.1681
   58MOL0     H 7822   0.721   9.358   0.259 -1.2173 -0.5569 -1.0575
   58MOL0     H 7823   0.889   9.435   0.276  1.7782 -2.9455  1.3681
   58MOL0     H 7824   0.994   9.231   0.184  0.1514  1.4603 -0.4078
   58MOL0     H 7825   0.893   9.194   0.328 -1.6024 -1.6736 -0.8354
   58MOL0     H 7826   0.787   8.914   0.053 -1.4304  0.3813 -0.9709
   58MOL0     H 7827   0.863   9.824   0.277 -0.9049 -1.9036 -0.3512
   58MOL0     H 7828   0.830  10.025   0.432 -2.3618  3.1167  2.9161
   58MOL0     H 7829   0.861  10.143   0.312 -1.4072  2.3103  2.5774
   58MOL0     H 7830   0.698  10.123   0.384  0.3192  2.0976 -1.2977
   59MOL0     O 7831   8.693  10.545  10.493 -0.0582 -0.2203  0.1670
   59MOL0     C 7832   8.788  10.468  10.473  0.5861  0.0366 -0.3458
   59MOL0     O 7833   8.908  10.500  10.422  0.5873  0.7609 -0.2612
   59MOL0     C 7834   8.972  10.627  10.421  1.1647  0.3263  0.1491
   59MOL0     C 7835   9.082  10.656  10.512  0.3432  0.3650  0.7912
   59MOL0     C 7836   9.133  10.783  10.512  0.1029  0.4384 -0.0839
   59MOL0     C 7837   9.087  10.882  10.431  0.4750 -0.4869 -0.4382
   59MOL0     O 7838   9.136  11.014  10.415  0.5447  0.5534  0.4282
   59MOL0     C 7839   9.261  11.037  10.477 -0.1787  0.1715 -0.1895
   59MOL0     C 7840   9.288  11.186  10.461 -1.1416 -0.5556 -1.0302
   59MOL0     C 7841   9.305  11.236  10.314  0.2524 -0.0684 -0.6943
   59MOL0     C 7842   9.368  11.139  10.209  0.3536 -0.5427 -0.1438
   59MOL0     C 7843   9.514  11.111  10.230  0.2964  0.2193  0.6056
   59MOL0     C 7844   9.558  10.987  10.144 -0.0769  0.1131  0.3163
   59MOL0     C 7845   9.574  10.854  10.209 -0.5023  0.8546  0.2734
   59MOL0     C 7846   9.709  10.840  10.283 -0.0583 -0.2648  0.0324
   59MOL0     N 7847   9.719  10.702  10.336 -0.1210  0.0952  0.3765
   59MOL0     C 7848   9.812  10.613  10.293 -0.0854  0.9332  0.3223
   59MOL0     C 7849   9.796  10.491  10.359  0.5540  0.1190 -0.2994
   59MOL0     C 7850   9.878  10.370  10.359  0.1054 -0.2115 -0.1144
   59MOL0     C 7851  10.018  10.408  10.410  0.8201 -0.1900 -0.0344
   59MOL0     C 7852  10.033  10.420  10.568  0.5756  0.2058 -0.3445
   59MOL0     C 7853  10.022  10.278  10.632  0.6267  0.2338  0.3428
   59MOL0     O 7854  10.123  10.201  10.563 -0.2482  0.2512  0.2890
   59MOL0     C 7855  10.082  10.085  10.503  0.7598 -0.1829 -1.0079
   59MOL0     C 7856   9.972  10.006  10.554  0.5364 -0.3739 -0.1746
   59MOL0     C 7857   9.931   9.899  10.475 -0.3537  0.5969  0.4503
   59MOL0     C 7858   9.990   9.867  10.354  0.3117 -0.4512  0.2938
   59MOL0     C 7859   9.953   9.755  10.269 -0.0988 -0.8018 -0.4476
   59MOL0     O 7860   9.867   9.680  10.326  0.2888  0.1621 -0.3144
   59MOL0     C 7861   9.806   9.567  10.267 -0.3327  0.8666 -1.1182
   59MOL0     C 7862   9.784   9.556  10.134  0.7395 -0.1579  0.7376
   59MOL0     C 7863   9.718   9.448  10.073  0.1595  0.0847 -0.0362
   59MOL0     C 7864   9.669   9.343  10.141 -0.4203  0.5514 -0.1072
   59MOL0     O 7865   9.610   9.239  10.069 -0.2114  0.2256  0.4884
   59MOL0     C 7866   9.529   9.152  10.135  0.1387 -0.0349  0.0460
   59MOL0     C 7867   9.453   9.052  10.053 -0.6190 -0.0376 -0.0867
   59MOL0     C 7868   9.348   9.113   9.965 -0.3882 -0.1847  0.0597
   59MOL0     C 7869   9.294   9.008   9.871  0.4515 -0.1775  0.7008
   59MOL0     C 7870   9.247   9.077   9.737 -0.8367  0.6191  0.3101
   59MOL0     C 7871   9.120   9.157   9.767  0.2322  0.8918  0.7665
   59MOL0     C 7872   9.050   9.196   9.636 -0.1279  0.1750  0.4709
   59MOL0     C 7873   8.915   9.254   9.681 -0.4834 -0.1187 -0.2638
   59MOL0    Cl 7874   8.817   9.319   9.541 -0.0653  0.5893  0.2395
   59MOL0     C 7875   9.697   9.347  10.281 -0.5108  0.0339 -0.1692
   59MOL0     C 7876   9.767   9.455  10.345 -0.1772  0.8063  0.7050
   59MOL0     O 7877  10.004   9.727  10.160 -1.2451 -0.5256  0.3672
   59MOL0     C 7878  10.096   9.946  10.308 -0.0346 -0.7041  0.0665
   59MOL0     C 7879  10.145  10.053  10.383 -0.7039  0.9609  0.2800
   59MOL0     N 7880   9.684  10.524  10.442  0.1238 -0.5213  0.4063
   59MOL0     N 7881   9.636  10.647  10.428  0.4016 -0.7604  0.1781
   59MOL0     C 7882   8.980  10.855  10.345  0.5387  0.1551 -0.3193
   59MOL0     C 7883   8.922  10.727  10.342 -0.1362 -0.2573 -0.1813
   59MOL0     C 7884   8.754  10.322  10.485 -0.3373  0.8123 -0.2566
   59MOL0     C 7885   8.790  10.225  10.392  0.6651 -0.1200 -0.7170
   59MOL0     C 7886   8.741  10.095  10.407 -0.0292 -0.4226 -0.9378
   59MOL0     C 7887   8.660  10.057  10.511 -0.9357  0.6390 -0.5237
   59MOL0     O 7888   8.619   9.922  10.509 -0.0611 -1.2423 -1.0321
   59MOL0     C 7889   8.542   9.857  10.619 -0.5239  0.1553 -0.0491
   59MOL0     C 7890   8.529   9.706  10.614 -0.2788  0.2030 -0.4016
   59MOL0     C 7891   8.427   9.680  10.507  1.0858 -0.5580 -0.1232
   59MOL0     C 7892   8.425   9.532  10.455 -0.6693  0.1649 -0.0441
   59MOL0     C 7893   8.414   9.443  10.571  0.8980  1.4792 -0.0391
   59MOL0     C 7894   8.383   9.348  10.643 -0.4653 -0.4292  0.2129
   59MOL0     C 7895   8.624  10.146  10.609 -0.4820  0.1053  0.3114
   59MOL0     C 7896   8.680  10.277  10.602 -0.2896 -0.5439 -0.2525
   59MOL0     C 7897   8.633  10.355  10.717 -0.1326 -0.7408 -1.2408
   59MOL0     H 7898   9.106  10.580  10.586  0.0582 -1.4636 -0.8889
   59MOL0     H 7899   9.207  10.798  10.590 -0.6265 -3.1517  1.4852
   59MOL0     H 7900   9.247  11.006  10.581 -2.6123 -4.2198 -1.5420
   59MOL0     H 7901   9.344  10.993  10.421  1.7843  1.9486  1.2038
   59MOL0     H 7902   9.376  11.224  10.515  0.1076  0.9023 -3.8347
   59MOL0     H 7903   9.203  11.233  10.511 -0.1730  3.3685 -2.6366
   59MOL0     H 7904   9.360  11.331  10.318  1.7598 -0.9455 -0.0118
   59MOL0     H 7905   9.206  11.270  10.280 -0.2399 -1.9190 -1.2016
   59MOL0     H 7906   9.324  11.039  10.205  1.2361 -0.9300 -0.4775
   59MOL0     H 7907   9.349  11.193  10.116  3.3979  0.7136 -0.1262
   59MOL0     H 7908   9.569  11.201  10.202  2.9467 -1.0257  1.5278
   59MOL0     H 7909   9.545  11.103  10.334  0.6755  0.6553  0.5303
   59MOL0     H 7910   9.497  10.983  10.054  2.7113  1.9291 -1.8135
   59MOL0     H 7911   9.657  11.006  10.102  0.8421 -1.7297  1.5010
   59MOL0     H 7912   9.573  10.775  10.134 -1.2222  0.7450  0.3915
   59MOL0     H 7913   9.488  10.825  10.269 -2.3682 -0.8449 -2.9318
   59MOL0     H 7914   9.795  10.858  10.219  0.2624 -0.0101  0.5220
   59MOL0     H 7915   9.715  10.899  10.375 -0.3843 -0.9327  0.4991
   59MOL0     H 7916   9.874  10.636  10.207 -2.5455  2.1028 -1.2348
   59MOL0     H 7917   9.829  10.296  10.423 -2.1961 -0.7803 -2.3434
   59MOL0     H 7918   9.879  10.341  10.254  1.7040 -2.0453  0.3643
   59MOL0     H 7919  10.098  10.346  10.367  0.1883 -1.2938  0.3472
   59MOL0     H 7920  10.045  10.505  10.369 -2.3678  1.3351  1.1731
   59MOL0     H 7921   9.955  10.483  10.612 -1.0596 -0.3085 -2.3668
   59MOL0     H 7922  10.131  10.468  10.575  0.2215  0.6808  2.6905
   59MOL0     H 7923   9.922  10.235  10.623  0.4624  0.7883 -0.5815
   59MOL0     H 7924  10.065  10.262  10.732 -0.4118 -1.4182  0.5744
   59MOL0     H 7925   9.920  10.031  10.646 -1.7587  0.5952 -1.6295
   59MOL0     H 7926   9.857   9.825  10.504  0.9171 -1.4650 -1.2356
   59MOL0     H 7927   9.802   9.635  10.061  0.3186 -0.6819  0.0541
   59MOL0     H 7928   9.708   9.443   9.965 -0.2901  1.6815 -0.0810
   59MOL0     H 7929   9.593   9.096  10.203  1.3086 -1.3396 -2.0332
   59MOL0     H 7930   9.453   9.207  10.191  0.6271  1.5233 -0.7620
   59MOL0     H 7931   9.525   8.987  10.002  0.3408  0.5193  0.5290
   59MOL0     H 7932   9.401   8.979  10.115 -0.0160 -0.5629 -0.1874
   59MOL0     H 7933   9.271   9.161  10.027 -0.7636  0.2148 -0.6985
   59MOL0     H 7934   9.398   9.186   9.902  0.7817  0.5233  1.7400
   59MOL0     H 7935   9.207   8.958   9.915  1.0348  0.7260  3.0692
   59MOL0     H 7936   9.373   8.936   9.851  0.1701 -0.5099  0.7938
   59MOL0     H 7937   9.239   9.006   9.654  0.6565  0.6202  0.1231
   59MOL0     H 7938   9.327   9.146   9.709  0.1171 -0.3971  0.4642
   59MOL0     H 7939   9.055   9.089   9.824  2.4830 -3.3542 -1.2318
   59MOL0     H 7940   9.159   9.242   9.823  0.9019  1.4081 -0.4540
   59MOL0     H 7941   9.031   9.105   9.580  0.2554  0.4315 -0.0881
   59MOL0     H 7942   9.112   9.270   9.584 -0.1514 -0.2542 -0.1701
   59MOL0     H 7943   8.860   9.180   9.741 -0.3052  0.2531  0.3768
   59MOL0     H 7944   8.947   9.330   9.754 -0.0333 -0.1959 -0.3774
   59MOL0     H 7945   9.660   9.269  10.345  1.5295 -0.9983 -0.1478
   59MOL0     H 7946   9.798   9.450  10.449  0.3971  2.8976  0.6833
   59MOL0     H 7947  10.142   9.927  10.212  0.3736 -0.8220  0.2811
   59MOL0     H 7948  10.226  10.115  10.346 -1.2915  0.6987 -1.5361
   59MOL0     H 7949   8.951  10.927  10.270  2.1455  0.6979 -0.4363
   59MOL0     H 7950   8.837  10.709  10.278 -1.2732  1.1044  0.8896
   59MOL0     H 7951   8.848  10.257  10.307 -0.1420  4.7081  0.2753
   59MOL0     H 7952   8.770  10.014  10.341 -2.4620 -1.3074 -1.0041
   59MOL0     H 7953   8.439   9.891  10.624 -0.1916  1.0101  1.7839
   59MOL0     H 7954   8.593   9.891  10.709  1.7891  0.1646 -1.2811
   59MOL0     H 7955   8.526   9.652  10.710 -1.0085  0.8935 -0.0230
   59MOL0     H 7956   8.622   9.666  10.572 -0.1988  0.7268 -0.7316
   59MOL0     H 7957   8.446   9.733  10.413  0.5535 -0.3894 -0.1410
   59MOL0     H 7958   8.333   9.724  10.541  3.1965  6.2054 -1.6510
   59MOL0     H 7959   8.348   9.513  10.379 -1.0437 -1.4257  0.6969
   59MOL0     H 7960   8.515   9.507  10.399 -1.4723 -0.1991 -1.2341
   59MOL0     H 7961   8.349   9.267  10.706 -0.7662  0.2915  0.9990
   59MOL0     H 7962   8.571  10.113  10.698  1.6363  0.1811  1.6478
   59MOL0     H 7963   8.685  10.451  10.710 -0.0072 -0.4901  1.7133
   59MOL0     H 7964   8.527  10.362  10.741 -0.2073 -3.5690 -0.3708
   59MOL0     H 7965   8.676  10.317  10.810  1.3839  3.0883 -0.1857
   60MOL0     O 7966   3.070   3.764   0.785 -0.1410  0.1917 -0.1389
   60MOL0     C 7967   3.075   3.658   0.838 -0.0721  0.4997  0.3262
   60MOL0     O 7968   3.094   3.541   0.767 -0.0074  0.1095 -0.1279
   60MOL0     C 7969   3.108   3.533   0.633  0.2630  0.3660  0.1712
   60MOL0     C 7970   3.184   3.428   0.586  0.6196  0.4327 -0.2036
   60MOL0     C 7971   3.230   3.418   0.455  0.1885  0.0405  0.2571
   60MOL0     C 7972   3.190   3.521   0.362 -0.9104  0.3290 -0.6105
   60MOL0     O 7973   3.228   3.523   0.234 -0.7972  0.4677  0.4965
   60MOL0     C 7974   3.211   3.407   0.159 -0.1139 -0.0515  0.2393
   60MOL0     C 7975   3.164   3.449   0.020 -0.3602 -0.0798  1.0470
   60MOL0     C 7976   3.262   3.401  -0.088  0.1242 -0.3978 -0.3914
   60MOL0     C 7977   3.211   3.267  -0.137 -0.1483 -0.2254 -0.5700
   60MOL0     C 7978   3.295   3.218  -0.257  0.6659 -0.1376  0.1791
   60MOL0     C 7979   3.287   3.073  -0.275  0.3505  0.1617  0.7652
   60MOL0     C 7980   3.354   3.057  -0.407 -0.4017 -0.4390 -0.0515
   60MOL0     C 7981   3.358   2.910  -0.452  0.0376  0.6351 -0.2922
   60MOL0     N 7982   3.470   2.878  -0.545  0.0032 -0.1586  1.2606
   60MOL0     C 7983   3.599   2.872  -0.527 -0.1842 -0.3674 -0.0290
   60MOL0     C 7984   3.657   2.852  -0.647 -0.4434 -0.0994  0.3267
   60MOL0     C 7985   3.808   2.850  -0.680 -0.9584  0.2916 -0.4863
   60MOL0     C 7986   3.838   2.916  -0.815 -0.7351  0.3205 -0.2404
   60MOL0     C 7987   3.800   3.070  -0.811 -0.3204  0.1184 -0.4480
   60MOL0     C 7988   3.654   3.111  -0.804 -0.1742 -0.1612 -0.2130
   60MOL0     O 7989   3.632   3.252  -0.850 -0.9385  0.5056  0.1977
   60MOL0     C 7990   3.533   3.330  -0.786 -0.0219  0.4384 -0.6233
   60MOL0     C 7991   3.532   3.468  -0.795  0.6605 -0.7616  0.1169
   60MOL0     C 7992   3.424   3.548  -0.744  0.7812  0.6835  1.0964
   60MOL0     C 7993   3.326   3.490  -0.667  0.2966  0.2270 -0.8590
   60MOL0     C 7994   3.220   3.563  -0.599 -0.5481 -0.3231  0.9108
   60MOL0     O 7995   3.139   3.503  -0.504 -0.1776  0.4807  0.8759
   60MOL0     C 7996   3.062   3.583  -0.426 -0.6445  0.2860  0.4149
   60MOL0     C 7997   3.115   3.681  -0.350  0.5215 -0.1240 -1.0051
   60MOL0     C 7998   3.036   3.733  -0.245 -0.9972  0.0075  1.2178
   60MOL0     C 7999   2.910   3.691  -0.219  0.6736 -0.5053 -0.3722
   60MOL0     O 8000   2.822   3.760  -0.145 -0.5775  0.0373 -0.9791
   60MOL0     C 8001   2.874   3.822  -0.029 -0.0001  1.3605 -0.7601
   60MOL0     C 8002   2.789   3.770   0.096 -0.1759 -0.1204 -1.0553
   60MOL0     C 8003   2.815   3.874   0.203 -0.1044 -0.5820 -0.2996
   60MOL0     C 8004   2.748   3.832   0.331 -0.2497 -0.2450 -0.4553
   60MOL0     C 8005   2.801   3.922   0.448  0.1997 -0.9975  0.8226
   60MOL0     C 8006   2.712   3.903   0.571  0.0567 -0.4529  0.5995
   60MOL0     C 8007   2.753   4.000   0.683  0.0518 -0.6250 -0.1804
   60MOL0     C 8008   2.680   3.960   0.805  0.5597 -0.4902  0.4486
   60MOL0    Cl 8009   2.734   4.067   0.933  0.0111  0.1090 -0.7673
   60MOL0     C 8010   2.856   3.596  -0.298 -0.1522  0.4324  0.5662
   60MOL0     C 8011   2.929   3.539  -0.409 -0.0242  0.9385 -0.3339
   60MOL0     O 8012   3.214   3.679  -0.637 -0.3023  0.6434  0.2597
   60MOL0     C 8013   3.330   3.348  -0.650 -0.3389  0.0641  0.1509
   60MOL0     C 8014   3.432   3.274  -0.712  0.0096  1.4367 -1.0365
   60MOL0     N 8015   3.555   2.832  -0.739 -0.2395  0.2999 -0.3429
   60MOL0     N 8016   3.452   2.848  -0.670  0.8303  0.4990 -0.2354
   60MOL0     C 8017   3.104   3.620   0.401  0.2376  0.2230 -0.3002
   60MOL0     C 8018   3.069   3.628   0.537 -0.8565  0.4970 -0.8058
   60MOL0     C 8019   3.043   3.665   0.990 -1.1525 -0.2354 -0.3350
   60MOL0     C 8020   3.007   3.789   1.049  0.0952  0.9753 -0.1069
   60MOL0     C 8021   2.994   3.807   1.191 -0.4851 -0.1741  1.3750
   60MOL0     C 8022   3.009   3.699   1.279  0.3017 -0.6435  0.2016
   60MOL0     O 8023   2.985   3.708   1.419 -0.0416  0.4254  0.0784
   60MOL0     C 8024   2.953   3.835   1.484  0.3080  0.0701 -0.2200
   60MOL0     C 8025   2.945   3.828   1.639  0.4447  0.6287  0.3588
   60MOL0     C 8026   2.804   3.777   1.692  0.2461 -0.4253  0.5424
   60MOL0     C 8027   2.772   3.812   1.838 -0.0736 -0.9046  0.2645
   60MOL0     C 8028   2.827   3.733   1.941 -0.1481  0.2247 -0.4769
   60MOL0     C 8029   2.854   3.639   2.011 -0.3749  0.2990 -0.4804
   60MOL0     C 8030   3.043   3.578   1.220  0.3215 -0.0983 -0.7656
   60MOL0     C 8031   3.055   3.562   1.078  0.5990  0.6046 -0.0994
   60MOL0     C 8032   3.074   3.425   1.030 -0.1441 -0.5645 -0.4571
   60MOL0     H 8033   3.216   3.356   0.660  1.7508  0.8368 -0.2758
   60MOL0     H 8034   3.302   3.338   0.436 -0.7359 -1.9468  4.0127
   60MOL0     H 8035   3.308   3.358   0.148 -0.2408 -1.2870  3.4756
   60MOL0     H 8036   3.144   3.342   0.215  0.3514 -1.4156 -0.7556
   60MOL0     H 8037   3.150   3.558   0.013 -0.6806 -0.0903  1.4767
   60MOL0     H 8038   3.065   3.408  -0.003 -0.2282  2.2642 -6.0335
   60MOL0     H 8039   3.360   3.384  -0.043 -1.2633 -0.4481  2.9129
   60MOL0     H 8040   3.269   3.479  -0.164  3.2938 -1.6158 -1.5040
   60MOL0     H 8041   3.210   3.196  -0.054  1.1319  0.0118 -0.3378
   60MOL0     H 8042   3.106   3.276  -0.168 -1.0332 -1.5839  1.8077
   60MOL0     H 8043   3.256   3.279  -0.340  0.9227  0.3451  0.4122
   60MOL0     H 8044   3.400   3.237  -0.235  0.4799 -0.8831  1.7704
   60MOL0     H 8045   3.336   3.012  -0.198  0.7559  2.3930  2.3791
   60MOL0     H 8046   3.181   3.049  -0.280  0.7526 -1.8227  1.0631
   60MOL0     H 8047   3.458   3.091  -0.416 -0.5472 -0.4341 -2.2369
   60MOL0     H 8048   3.293   3.109  -0.481  1.1169 -0.5168 -1.4206
   60MOL0     H 8049   3.371   2.843  -0.367  1.4846 -0.4029 -1.2778
   60MOL0     H 8050   3.261   2.893  -0.502 -0.3220  0.6853  0.3834
   60MOL0     H 8051   3.652   2.903  -0.437  2.2839 -0.6390 -1.3087
   60MOL0     H 8052   3.868   2.893  -0.600 -3.3196  1.7158  0.6441
   60MOL0     H 8053   3.844   2.747  -0.684 -1.0028  0.1181  2.0442
   60MOL0     H 8054   3.947   2.913  -0.826 -0.1676 -1.8783  3.9850
   60MOL0     H 8055   3.783   2.863  -0.893 -0.9657 -0.7835  0.6403
   60MOL0     H 8056   3.831   3.118  -0.905 -0.8493 -1.2260 -1.3396
   60MOL0     H 8057   3.865   3.117  -0.736  0.2841  1.8573 -1.9858
   60MOL0     H 8058   3.624   3.107  -0.699  0.3732  3.0084  0.1472
   60MOL0     H 8059   3.598   3.039  -0.864  1.0021 -1.4193  0.1373
   60MOL0     H 8060   3.613   3.516  -0.849  0.1665  1.0456  0.9110
   60MOL0     H 8061   3.412   3.653  -0.767  1.2623  0.5937  0.4071
   60MOL0     H 8062   3.216   3.716  -0.370 -0.7561  4.8927  0.0243
   60MOL0     H 8063   3.092   3.805  -0.187  2.0921  0.3284 -1.8272
   60MOL0     H 8064   2.978   3.794  -0.007 -0.7414  1.8880  5.4003
   60MOL0     H 8065   2.863   3.930  -0.041 -2.6689  1.3337  0.5766
   60MOL0     H 8066   2.683   3.756   0.073  0.0807 -1.1955 -1.6820
   60MOL0     H 8067   2.843   3.680   0.128 -2.1717 -1.2131 -0.5799
   60MOL0     H 8068   2.923   3.878   0.221  0.2748 -4.6267 -0.8013
   60MOL0     H 8069   2.776   3.974   0.178 -0.0806  0.5628  3.5731
   60MOL0     H 8070   2.768   3.727   0.354  1.3425 -0.3092 -1.9752
   60MOL0     H 8071   2.639   3.843   0.335 -0.0533  1.6708  1.5860
   60MOL0     H 8072   2.783   4.024   0.413 -2.8454 -2.2632 -1.7318
   60MOL0     H 8073   2.905   3.910   0.481 -1.2108 -2.2198  5.5848
   60MOL0     H 8074   2.608   3.911   0.538  0.0090  0.1995  0.8854
   60MOL0     H 8075   2.742   3.805   0.609 -0.2456  0.1991  2.6405
   60MOL0     H 8076   2.752   4.105   0.656 -1.3079 -0.7401 -0.6083
   60MOL0     H 8077   2.858   3.981   0.709 -0.0100 -0.0728  0.5181
   60MOL0     H 8078   2.577   3.981   0.776  0.7102  0.5274  0.6154
   60MOL0     H 8079   2.699   3.858   0.840  2.7435  0.0914  1.1408
   60MOL0     H 8080   2.752   3.566  -0.290 -0.1543 -0.1466 -1.1255
   60MOL0     H 8081   2.879   3.463  -0.468 -1.2934  3.1568 -2.3188
   60MOL0     H 8082   3.253   3.307  -0.586 -2.5314  4.2297  0.5296
   60MOL0     H 8083   3.426   3.166  -0.701 -0.2992  1.2324 -2.8502
   60MOL0     H 8084   3.065   3.694   0.332  0.5519 -1.1366 -2.0197
   60MOL0     H 8085   2.998   3.709   0.555 -2.5931 -1.3305  1.0587
   60MOL0     H 8086   2.969   3.870   0.988 -1.8932  1.1254  1.2408
   60MOL0     H 8087   2.995   3.903   1.241  1.8092  1.4121 -1.3834
   60MOL0     H 8088   2.866   3.889   1.447  1.2757 -0.1679 -3.0725
   60MOL0     H 8089   3.030   3.909   1.462  1.2209 -0.2641  1.6428
   60MOL0     H 8090   2.957   3.933   1.666 -2.2955  0.7112  1.6003
   60MOL0     H 8091   3.030   3.768   1.672  0.0904 -1.1389 -1.7060
   60MOL0     H 8092   2.788   3.668   1.691  0.8975 -0.5565  1.9742
   60MOL0     H 8093   2.729   3.820   1.626 -2.8690 -1.5093  3.1401
   60MOL0     H 8094   2.789   3.919   1.852 -1.9061 -0.8470  2.6682
   60MOL0     H 8095   2.663   3.813   1.837 -0.1702 -1.8364 -2.9531
   60MOL0     H 8096   2.895   3.553   2.059 -2.7429 -1.2925 -1.1593
   60MOL0     H 8097   3.044   3.493   1.287  1.0046  1.2756  1.0489
   60MOL0     H 8098   2.988   3.381   0.979 -0.8131 -2.1671  1.8745
   60MOL0     H 8099   3.162   3.406   0.969  0.1606  0.3440 -0.3095
   60MOL0     H 8100   3.087   3.366   1.121  2.1917 -1.4290 -1.2761
   61MOL0     O 8101   1.646   7.918   1.625  0.7995  0.2879  0.3931
   61MOL0     C 8102   1.716   7.861   1.709  0.3232  0.4625  0.0479
   61MOL0     O 8103   1.802   7.755   1.680 -0.2560  0.6815 -0.2623
   61MOL0     C 8104   1.871   7.755   1.559 -0.1780 -0.6256 -0.4648
   61MOL0     C 8105   1.906   7.869   1.484  0.3802 -0.6677 -0.5534
   61MOL0     C 8106   1.979   7.859   1.375 -0.2065 -0.1241  0.6622
   61MOL0     C 8107   2.028   7.735   1.333 -1.2365  0.1454  0.3470
   61MOL0     O 8108   2.090   7.716   1.208  0.3363 -0.2222  0.0173
   61MOL0     C 8109   2.190   7.810   1.169  0.4542 -0.4397 -0.6882
   61MOL0     C 8110   2.329   7.751   1.187 -0.1319  0.6613  0.4589
   61MOL0     C 8111   2.350   7.695   1.324  0.2806  0.1054 -1.2840
   61MOL0     C 8112   2.478   7.607   1.321 -0.0688  0.7995  0.3011
   61MOL0     C 8113   2.455   7.460   1.271  0.6330 -0.5162 -1.0877
   61MOL0     C 8114   2.577   7.409   1.197 -0.9177 -0.1742 -0.2296
   61MOL0     C 8115   2.561   7.281   1.112  0.6560 -0.0003  0.3609
   61MOL0     C 8116   2.694   7.225   1.056 -0.4427  0.0359 -0.5170
   61MOL0     N 8117   2.804   7.182   1.145  0.0721 -0.6836 -0.6149
   61MOL0     C 8118   2.854   7.052   1.158  0.3608 -0.9192  0.9539
   61MOL0     C 8119   2.955   7.071   1.248 -0.3871  0.9185  0.3379
   61MOL0     C 8120   3.055   6.956   1.277  0.5579 -0.1236 -1.2982
   61MOL0     C 8121   2.998   6.874   1.397  0.5119 -0.0806  0.2969
   61MOL0     C 8122   3.104   6.790   1.455 -1.1732  0.2920 -0.4569
   61MOL0     C 8123   3.067   6.679   1.557 -0.1209 -0.0624 -0.0877
   61MOL0     O 8124   3.176   6.610   1.612 -0.5431  0.5805  0.0435
   61MOL0     C 8125   3.141   6.517   1.707  0.5990  0.4480  0.3814
   61MOL0     C 8126   3.004   6.462   1.725 -0.0579  0.3081  0.0001
   61MOL0     C 8127   2.978   6.359   1.822  0.1193 -0.0497  0.1137
   61MOL0     C 8128   3.078   6.300   1.897 -0.0491 -0.7722 -0.2795
   61MOL0     C 8129   3.042   6.192   2.003 -0.2017 -0.4834 -0.2303
   61MOL0     O 8130   3.151   6.134   2.076  0.9297  0.3857  0.2668
   61MOL0     C 8131   3.131   6.037   2.173 -0.1430  0.4051  0.1219
   61MOL0     C 8132   3.170   6.048   2.305 -0.1609 -0.3724  0.2361
   61MOL0     C 8133   3.153   5.939   2.396  0.2806 -0.2378  0.5097
   61MOL0     C 8134   3.110   5.812   2.353 -0.2842  0.3444  0.0896
   61MOL0     O 8135   3.124   5.697   2.431  0.2123  0.0969 -0.2203
   61MOL0     C 8136   3.093   5.564   2.377 -0.1309 -1.0295 -0.9695
   61MOL0     C 8137   3.108   5.472   2.495 -0.2971  0.4747  0.1274
   61MOL0     C 8138   3.247   5.424   2.533  0.4199 -0.6842  0.2190
   61MOL0     C 8139   3.303   5.512   2.649  0.0430  0.5253 -0.2932
   61MOL0     C 8140   3.232   5.488   2.784 -0.5660 -0.0643 -0.4570
   61MOL0     C 8141   3.266   5.585   2.904  0.5072  0.3526  0.7846
   61MOL0     C 8142   3.247   5.498   3.033 -0.5622 -0.4958 -0.6102
   61MOL0     C 8143   3.235   5.588   3.158  0.6511 -0.4910 -0.5721
   61MOL0    Cl 8144   3.144   5.511   3.293 -0.0171 -0.0108 -0.2689
   61MOL0     C 8145   3.073   5.797   2.221  0.2087 -1.4186 -0.0937
   61MOL0     C 8146   3.077   5.912   2.135  0.5290  1.0334  0.9798
   61MOL0     O 8147   2.920   6.166   2.014  0.1934 -0.3647 -0.8013
   61MOL0     C 8148   3.210   6.351   1.878 -0.2015  0.5604 -1.7406
   61MOL0     C 8149   3.241   6.459   1.786  0.1300 -0.5984 -1.0875
   61MOL0     N 8150   2.963   7.213   1.283 -0.1861  0.4355  0.2132
   61MOL0     N 8151   2.876   7.276   1.211  0.4932 -0.3249 -0.3024
   61MOL0     C 8152   2.015   7.624   1.419 -0.0132 -0.3543  0.3403
   61MOL0     C 8153   1.935   7.636   1.533  0.3537  0.5914  1.1554
   61MOL0     C 8154   1.687   7.883   1.851  0.3185 -0.8388 -0.5039
   61MOL0     C 8155   1.711   7.781   1.946  1.1899  0.0410 -0.1543
   61MOL0     C 8156   1.696   7.796   2.077  0.3275 -0.3181 -0.8711
   61MOL0     C 8157   1.665   7.923   2.126  1.1022  0.2801 -0.2019
   61MOL0     O 8158   1.671   7.952   2.262 -0.9667 -0.4637 -0.3635
   61MOL0     C 8159   1.719   7.850   2.357  0.0705  0.3277  0.5633
   61MOL0     C 8160   1.867   7.823   2.338 -1.4742  0.1227 -0.0210
   61MOL0     C 8161   1.944   7.957   2.317  0.6114 -0.4958 -0.1196
   61MOL0     C 8162   2.095   7.959   2.357  0.2396  0.4570 -0.0152
   61MOL0     C 8163   2.146   7.854   2.261 -0.4509 -0.4103 -0.1346
   61MOL0     C 8164   2.193   7.782   2.173 -0.1016 -0.5047 -0.8310
   61MOL0     C 8165   1.632   8.028   2.039 -0.4231 -0.1575 -0.5066
   61MOL0     C 8166   1.647   8.008   1.898 -0.0254  0.1147 -0.6516
   61MOL0     C 8167   1.644   8.136   1.815 -0.4550  0.7414 -0.2369
   61MOL0     H 8168   1.861   7.962   1.514 -0.5259 -1.8475  2.0982
   61MOL0     H 8169   1.995   7.949   1.316 -1.0282  0.3225  1.0954
   61MOL0     H 8170   2.191   7.831   1.062  3.0589  0.1494 -0.6378
   61MOL0     H 8171   2.189   7.906   1.223  2.6127  0.2844 -1.7944
   61MOL0     H 8172   2.410   7.820   1.160  1.4734 -1.0923  0.5576
   61MOL0     H 8173   2.345   7.673   1.112  1.6261 -0.2828  1.7547
   61MOL0     H 8174   2.270   7.629   1.359  0.1290  1.1020  0.3446
   61MOL0     H 8175   2.362   7.773   1.399 -0.7442 -3.6919  3.3622
   61MOL0     H 8176   2.547   7.648   1.246 -1.8981 -2.2348 -3.3700
   61MOL0     H 8177   2.536   7.599   1.414 -0.6234 -1.3063  0.5107
   61MOL0     H 8178   2.425   7.409   1.363 -0.7732 -1.2155 -1.8970
   61MOL0     H 8179   2.365   7.453   1.208 -0.3480  1.4951 -0.0213
   61MOL0     H 8180   2.634   7.485   1.143 -2.3508  3.6254  3.0854
   61MOL0     H 8181   2.647   7.390   1.279 -2.1968  1.2550  1.2837
   61MOL0     H 8182   2.515   7.303   1.015  0.8442  1.8124  0.6593
   61MOL0     H 8183   2.504   7.211   1.173 -3.5994  1.1120 -1.9762
   61MOL0     H 8184   2.690   7.149   0.978  1.4412 -2.7113  1.8281
   61MOL0     H 8185   2.741   7.311   1.008  1.0129 -0.4443 -0.0179
   61MOL0     H 8186   2.821   6.966   1.101 -3.3346  0.3867  0.8688
   61MOL0     H 8187   3.078   6.893   1.191  0.5169 -1.9284 -0.0529
   61MOL0     H 8188   3.148   7.004   1.307  0.9269 -0.9222 -1.1482
   61MOL0     H 8189   2.950   6.944   1.465  2.9837  2.1147 -0.0864
   61MOL0     H 8190   2.914   6.808   1.371 -0.6030  1.0672  0.8904
   61MOL0     H 8191   3.178   6.856   1.502 -1.0970 -0.4171  0.4708
   61MOL0     H 8192   3.151   6.736   1.373 -0.2269  1.2760 -0.5802
   61MOL0     H 8193   2.997   6.608   1.513  0.2360 -0.1827 -0.4680
   61MOL0     H 8194   3.011   6.737   1.631 -1.2305  0.6558 -1.4597
   61MOL0     H 8195   2.920   6.500   1.667 -0.3049  1.0156  0.8107
   61MOL0     H 8196   2.879   6.314   1.826 -0.2347  0.6289 -0.8263
   61MOL0     H 8197   3.180   6.146   2.352  1.2397  0.2865 -1.3204
   61MOL0     H 8198   3.173   5.958   2.501 -4.0748  3.8056  0.9616
   61MOL0     H 8199   2.991   5.563   2.337 -1.2984 -0.7500  1.7475
   61MOL0     H 8200   3.159   5.533   2.296  0.7787  0.4302 -0.8234
   61MOL0     H 8201   3.044   5.518   2.571 -1.3167 -1.1473  0.3166
   61MOL0     H 8202   3.045   5.384   2.478 -1.6106  1.3226  0.4648
   61MOL0     H 8203   3.237   5.317   2.549 -2.0589 -1.1215 -3.2519
   61MOL0     H 8204   3.319   5.450   2.454 -0.3208  3.0279  0.5750
   61MOL0     H 8205   3.301   5.612   2.606  1.7686 -1.3754 -5.6781
   61MOL0     H 8206   3.407   5.480   2.665  0.6011  0.8654 -2.8094
   61MOL0     H 8207   3.261   5.384   2.805 -1.5653 -0.2184  0.2812
   61MOL0     H 8208   3.124   5.498   2.766 -0.2619 -2.2140 -4.7681
   61MOL0     H 8209   3.369   5.620   2.912  0.1326  1.6141  0.3798
   61MOL0     H 8210   3.191   5.664   2.895  2.2500  1.8001 -3.8277
   61MOL0     H 8211   3.323   5.421   3.048 -0.6168 -0.0438  2.8019
   61MOL0     H 8212   3.155   5.440   3.020  0.4503 -2.4093  0.2590
   61MOL0     H 8213   3.331   5.621   3.199 -0.3014 -1.3650  2.6590
   61MOL0     H 8214   3.175   5.678   3.137  1.8049 -0.3876 -4.1457
   61MOL0     H 8215   3.026   5.709   2.178  1.1677 -0.0585 -4.4079
   61MOL0     H 8216   3.047   5.908   2.031  3.9366 -2.9074 -0.1455
   61MOL0     H 8217   3.304   6.317   1.922 -0.1225 -1.3024 -3.2245
   61MOL0     H 8218   3.337   6.508   1.769 -0.6944  1.0550 -1.1257
   61MOL0     H 8219   2.070   7.534   1.394  1.5929  0.3525  1.1371
   61MOL0     H 8220   1.925   7.556   1.605 -0.7470 -1.6935 -1.3373
   61MOL0     H 8221   1.730   7.682   1.905 -1.6304 -0.5486 -0.2593
   61MOL0     H 8222   1.714   7.712   2.144  2.7979 -0.1120 -1.1882
   61MOL0     H 8223   1.663   7.757   2.344  0.9858 -0.6470  2.9624
   61MOL0     H 8224   1.696   7.883   2.458 -2.3459  2.1657 -0.5041
   61MOL0     H 8225   1.888   7.757   2.253 -0.2248 -0.9859  1.0958
   61MOL0     H 8226   1.904   7.774   2.429  4.5736  0.0778 -2.0616
   61MOL0     H 8227   1.889   8.041   2.361  2.6260  0.4383  0.7722
   61MOL0     H 8228   1.935   7.982   2.211 -1.4484  1.1184  0.3688
   61MOL0     H 8229   2.135   8.060   2.344 -0.0178  0.5690  0.0468
   61MOL0     H 8230   2.107   7.930   2.462  0.9761  0.4678 -0.0951
   61MOL0     H 8231   2.246   7.721   2.104  2.8789 -3.2238  3.4003
   61MOL0     H 8232   1.615   8.125   2.084  0.6021 -0.9839  1.8360
   61MOL0     H 8233   1.645   8.225   1.879 -3.7656  0.7155  0.0476
   61MOL0     H 8234   1.730   8.136   1.747 -1.3367 -2.4937 -1.5474
   61MOL0     H 8235   1.548   8.129   1.763 -1.4538 -2.1180  1.7231
   62MOL0     O 8236   6.852   6.547   8.069 -0.7909  0.1271 -0.8589
   62MOL0     C 8237   6.811   6.650   8.007  1.0538 -0.3253  0.8692
   62MOL0     O 8238   6.797   6.654   7.871 -0.4053  0.1870 -0.0227
   62MOL0     C 8239   6.822   6.541   7.804  0.4058  0.1873 -0.6015
   62MOL0     C 8240   6.720   6.441   7.783 -0.2573 -0.1976 -0.6069
   62MOL0     C 8241   6.748   6.341   7.687  0.3242 -0.1693 -0.5313
   62MOL0     C 8242   6.882   6.321   7.642  0.0972 -1.0286 -0.6637
   62MOL0     O 8243   6.917   6.220   7.557 -0.3706 -0.4274 -0.0796
   62MOL0     C 8244   7.061   6.194   7.535  0.2340  0.1443  0.0734
   62MOL0     C 8245   7.076   6.050   7.490 -0.0583 -0.1238  0.1071
   62MOL0     C 8246   7.224   6.011   7.462 -0.4995 -0.9224  0.4739
   62MOL0     C 8247   7.226   5.864   7.406  1.0202 -0.2646 -0.2334
   62MOL0     C 8248   7.190   5.762   7.507  1.0196  0.6126  0.5743
   62MOL0     C 8249   7.279   5.751   7.632  0.8637 -0.3552 -0.5612
   62MOL0     C 8250   7.424   5.714   7.593 -0.0568  0.4036  0.3927
   62MOL0     C 8251   7.448   5.565   7.550 -1.7029 -0.2391  1.5401
   62MOL0     N 8252   7.425   5.537   7.402 -0.5603 -0.2411 -0.0535
   62MOL0     C 8253   7.339   5.435   7.361 -0.7138  1.1006 -0.0333
   62MOL0     C 8254   7.325   5.455   7.226  0.5051  0.1787 -0.6908
   62MOL0     C 8255   7.268   5.372   7.117  0.1280 -0.0591 -0.5960
   62MOL0     C 8256   7.118   5.387   7.086  0.6978  1.0514 -0.7359
   62MOL0     C 8257   7.037   5.367   7.207 -0.4581  0.6244 -0.2643
   62MOL0     C 8258   6.884   5.329   7.182 -0.0329 -1.0277 -0.1311
   62MOL0     O 8259   6.835   5.380   7.061 -0.2540  0.3311  0.3716
   62MOL0     C 8260   6.805   5.522   7.058  1.4059  0.4706 -0.0401
   62MOL0     C 8261   6.823   5.623   7.155  0.5230  0.5728  0.3329
   62MOL0     C 8262   6.782   5.755   7.138 -0.1750  0.4887  0.0074
   62MOL0     C 8263   6.729   5.791   7.012 -0.0628  0.1779  0.1002
   62MOL0     C 8264   6.686   5.930   6.998 -0.1676 -0.8694 -0.1979
   62MOL0     O 8265   6.597   5.958   6.897 -0.1975 -0.7388  0.1244
   62MOL0     C 8266   6.557   6.079   6.856  0.4497 -0.3840 -0.0883
   62MOL0     C 8267   6.596   6.121   6.728  0.9615  0.5777  0.0709
   62MOL0     C 8268   6.578   6.251   6.682 -0.7056 -1.1187  0.2588
   62MOL0     C 8269   6.502   6.345   6.761  0.8420  0.3694 -0.3382
   62MOL0     O 8270   6.476   6.476   6.720  0.9314  0.0747  0.2030
   62MOL0     C 8271   6.403   6.572   6.796  0.3016  0.0771  0.2868
   62MOL0     C 8272   6.386   6.703   6.730  0.2641 -0.2840  0.1016
   62MOL0     C 8273   6.316   6.677   6.594 -0.0077 -0.2385  0.4978
   62MOL0     C 8274   6.280   6.816   6.526 -0.1311  0.3128 -0.4588
   62MOL0     C 8275   6.230   6.792   6.384  1.0267  0.7684 -0.1225
   62MOL0     C 8276   6.077   6.836   6.370 -0.1717 -0.4199 -1.2694
   62MOL0     C 8277   5.992   6.771   6.478  0.6935  0.3769  0.1381
   62MOL0     C 8278   5.845   6.775   6.431 -0.4980  0.2294  0.0340
   62MOL0    Cl 8279   5.781   6.942   6.406 -0.4572  0.2296  0.0197
   62MOL0     C 8280   6.462   6.299   6.895  0.0931 -0.6592  1.3151
   62MOL0     C 8281   6.482   6.171   6.937  0.0981  0.4144  0.0025
   62MOL0     O 8282   6.732   6.012   7.074 -0.2605 -0.4018 -0.0095
   62MOL0     C 8283   6.705   5.698   6.914 -0.4237 -0.0271  0.4593
   62MOL0     C 8284   6.736   5.560   6.937 -0.5330  1.3714 -0.1115
   62MOL0     N 8285   7.401   5.571   7.196  0.5363  0.1808 -0.4665
   62MOL0     N 8286   7.449   5.627   7.302  0.4292  0.3679  0.1506
   62MOL0     C 8287   6.981   6.414   7.680  0.6659  0.2749  0.0075
   62MOL0     C 8288   6.957   6.519   7.760  0.7989 -0.1227  1.5224
   62MOL0     C 8289   6.764   6.774   8.076  0.0761  0.1894 -0.5749
   62MOL0     C 8290   6.694   6.877   8.010 -0.6545  0.3395 -0.4815
   62MOL0     C 8291   6.660   6.994   8.076  0.7192  0.0298 -0.5297
   62MOL0     C 8292   6.673   7.006   8.214  0.9818 -0.1122  0.1138
   62MOL0     O 8293   6.606   7.113   8.261  0.1424  0.3297  0.8191
   62MOL0     C 8294   6.646   7.169   8.392 -0.9182 -0.7083 -0.4122
   62MOL0     C 8295   6.631   7.320   8.367 -0.0429  0.1998  0.2776
   62MOL0     C 8296   6.703   7.374   8.242 -0.9450  0.8501 -0.0478
   62MOL0     C 8297   6.730   7.522   8.233 -1.0741  0.0065 -0.2947
   62MOL0     C 8298   6.819   7.569   8.339  0.3454  0.7198 -0.1900
   62MOL0     C 8299   6.904   7.607   8.414  0.0173  0.3433 -0.0901
   62MOL0     C 8300   6.735   6.904   8.290  0.0448 -0.2937 -0.5233
   62MOL0     C 8301   6.787   6.786   8.226 -0.4084 -0.1592 -0.2317
   62MOL0     C 8302   6.895   6.710   8.304  0.5094  0.6611 -0.3440
   62MOL0     H 8303   6.627   6.441   7.838  1.6635  0.2548  2.9364
   62MOL0     H 8304   6.672   6.270   7.657  2.7224 -2.3398 -1.8814
   62MOL0     H 8305   7.101   6.267   7.464 -0.5042  0.8323  0.3581
   62MOL0     H 8306   7.114   6.202   7.630 -1.4489  1.4994  0.9429
   62MOL0     H 8307   7.016   6.032   7.401  0.8512  2.2055 -1.0686
   62MOL0     H 8308   7.038   5.982   7.567  1.6449 -0.2549  0.8866
   62MOL0     H 8309   7.291   6.017   7.549  0.4078  1.4325 -0.2868
   62MOL0     H 8310   7.263   6.086   7.392  0.3907 -1.9045 -0.0977
   62MOL0     H 8311   7.166   5.860   7.314  1.9826  0.8200 -0.9342
   62MOL0     H 8312   7.326   5.845   7.367  1.4765 -0.0475  0.8093
   62MOL0     H 8313   7.087   5.765   7.543 -0.4050 -2.9696 -2.4142
   62MOL0     H 8314   7.189   5.667   7.452 -1.7338  0.9540 -0.1522
   62MOL0     H 8315   7.266   5.844   7.689 -6.0735  0.2595 -2.2483
   62MOL0     H 8316   7.241   5.678   7.703 -0.6390  0.7214 -0.1893
   62MOL0     H 8317   7.488   5.735   7.679 -0.0373  0.9325  0.2544
   62MOL0     H 8318   7.465   5.781   7.518  0.8545  0.8030  1.2257
   62MOL0     H 8319   7.557   5.558   7.560 -0.5907  0.4840 -5.3138
   62MOL0     H 8320   7.402   5.485   7.607 -3.3149 -0.2877  0.2296
   62MOL0     H 8321   7.303   5.348   7.415  3.8531 -1.0535 -0.0140
   62MOL0     H 8322   7.327   5.408   7.031  2.2460 -0.7423  0.4872
   62MOL0     H 8323   7.281   5.267   7.145  2.3387  0.0513 -0.9933
   62MOL0     H 8324   7.103   5.489   7.048  3.6000  1.0312 -2.2069
   62MOL0     H 8325   7.088   5.319   7.005  1.5929 -1.8202  1.1907
   62MOL0     H 8326   7.051   5.458   7.267 -0.0204  0.3195  0.1027
   62MOL0     H 8327   7.078   5.275   7.249  1.1376  0.1810 -2.5876
   62MOL0     H 8328   6.821   5.364   7.265 -0.8568 -1.5482 -0.5250
   62MOL0     H 8329   6.873   5.221   7.195 -0.6552 -0.7644  2.0039
   62MOL0     H 8330   6.866   5.598   7.251  2.5556  1.6303 -0.2352
   62MOL0     H 8331   6.782   5.821   7.224 -4.9031  0.9546 -0.0873
   62MOL0     H 8332   6.645   6.046   6.667 -1.0602 -1.6245  0.9913
   62MOL0     H 8333   6.613   6.275   6.582  0.8406 -2.7098  0.3581
   62MOL0     H 8334   6.305   6.530   6.817 -0.4553  2.1916  1.3189
   62MOL0     H 8335   6.456   6.579   6.892  0.4792 -0.2925  0.2170
   62MOL0     H 8336   6.337   6.775   6.796  0.8143 -0.7503  1.0302
   62MOL0     H 8337   6.489   6.737   6.724  1.3493 -3.3524 -0.6396
   62MOL0     H 8338   6.380   6.625   6.521  1.0513  3.0635 -1.1355
   62MOL0     H 8339   6.229   6.611   6.600  1.0163 -1.5825  1.2672
   62MOL0     H 8340   6.377   6.867   6.526 -0.3746  0.8315 -2.0391
   62MOL0     H 8341   6.206   6.876   6.582  1.9648  1.3952  1.3368
   62MOL0     H 8342   6.245   6.690   6.348 -0.7121 -0.3325  2.0252
   62MOL0     H 8343   6.279   6.863   6.317 -0.0433  0.3678 -1.3723
   62MOL0     H 8344   6.068   6.944   6.380 -2.9024 -0.5451 -1.6569
   62MOL0     H 8345   6.053   6.791   6.273  2.7010 -3.9747 -0.5474
   62MOL0     H 8346   5.991   6.828   6.572  0.1625  0.4713  0.0746
   62MOL0     H 8347   6.022   6.669   6.505 -1.5700 -1.0162 -2.2111
   62MOL0     H 8348   5.826   6.715   6.342 -1.1926 -1.0357  0.9990
   62MOL0     H 8349   5.788   6.742   6.519 -1.6883  2.3710  0.1147
   62MOL0     H 8350   6.393   6.363   6.949  0.8447  1.6300 -0.2581
   62MOL0     H 8351   6.450   6.143   7.037  3.6788 -2.3474  0.5836
   62MOL0     H 8352   6.677   5.729   6.814  1.6881 -0.0394 -0.1716
   62MOL0     H 8353   6.706   5.485   6.865 -1.0284  2.1802 -0.7744
   62MOL0     H 8354   7.079   6.419   7.633  0.2159  4.5047 -0.8713
   62MOL0     H 8355   7.024   6.602   7.783 -1.3375  2.2211 -0.1853
   62MOL0     H 8356   6.682   6.887   7.902  2.0379 -0.7070 -0.9473
   62MOL0     H 8357   6.614   7.081   8.030 -0.8644  0.8902  2.4433
   62MOL0     H 8358   6.748   7.151   8.427 -1.8885 -0.6545  2.7774
   62MOL0     H 8359   6.580   7.130   8.470  0.4782 -4.6327 -0.9886
   62MOL0     H 8360   6.653   7.369   8.462  0.4190 -1.4295  1.0511
   62MOL0     H 8361   6.526   7.341   8.346 -0.2227 -2.4835 -2.1596
   62MOL0     H 8362   6.644   7.358   8.152  1.6485 -0.3212 -1.6661
   62MOL0     H 8363   6.797   7.318   8.232 -1.5479 -0.3964  1.0109
   62MOL0     H 8364   6.778   7.543   8.137  0.1792  0.7805  0.4704
   62MOL0     H 8365   6.635   7.577   8.240  0.6423  3.1098  0.3647
   62MOL0     H 8366   6.983   7.634   8.482  3.7272 -3.0858 -2.5746
   62MOL0     H 8367   6.751   6.920   8.397  2.5022 -0.9606 -0.7267
   62MOL0     H 8368   6.984   6.701   8.241 -1.4728  0.4111 -3.2657
   62MOL0     H 8369   6.936   6.753   8.396  3.5283  0.1823 -1.3656
   62MOL0     H 8370   6.849   6.617   8.338 -3.9481  2.6410 -0.3146
   63MOL0     O 8371   3.404   4.770   1.094  0.0983  0.5274 -1.0734
   63MOL0     C 8372   3.341   4.689   1.026 -0.2385  1.4359  0.0669
   63MOL0     O 8373   3.358   4.551   1.044 -0.3235 -0.5140 -0.2790
   63MOL0     C 8374   3.459   4.491   1.121  0.6898  0.5540 -0.1581
   63MOL0     C 8375   3.436   4.365   1.176  0.1669  0.1383 -1.1249
   63MOL0     C 8376   3.535   4.310   1.261  0.0868  0.8530 -0.0602
   63MOL0     C 8377   3.656   4.374   1.280 -0.6024  0.0936  0.1472
   63MOL0     O 8378   3.753   4.321   1.358  0.1114 -0.0629 -0.3648
   63MOL0     C 8379   3.819   4.198   1.318  0.1202 -0.7064 -1.0439
   63MOL0     C 8380   3.826   4.120   1.446 -0.1426 -0.4167 -0.7777
   63MOL0     C 8381   3.920   3.997   1.429  0.7428 -0.5963 -0.1201
   63MOL0     C 8382   3.909   3.899   1.546  0.9328  0.2556  1.1927
   63MOL0     C 8383   3.989   3.774   1.510  0.5869  0.2775  0.4902
   63MOL0     C 8384   4.139   3.794   1.479  0.9561 -0.1038 -0.8484
   63MOL0     C 8385   4.214   3.816   1.614  0.4171 -0.4448 -0.7963
   63MOL0     C 8386   4.343   3.743   1.613  0.6503  0.5020  0.0265
   63MOL0     N 8387   4.428   3.791   1.719 -0.8481 -1.0685  0.5067
   63MOL0     C 8388   4.429   3.755   1.852  0.2077  0.2333 -0.2196
   63MOL0     C 8389   4.553   3.785   1.904  0.1447 -0.2867 -0.6820
   63MOL0     C 8390   4.595   3.785   2.056 -0.3295  0.1184  0.0962
   63MOL0     C 8391   4.541   3.903   2.147  0.1386  0.9317  0.0217
   63MOL0     C 8392   4.557   4.042   2.092 -0.1427 -0.4220 -0.1508
   63MOL0     C 8393   4.699   4.098   2.084 -0.4414  0.0072 -0.0651
   63MOL0     O 8394   4.676   4.236   2.071  0.6874 -0.5752 -0.1804
   63MOL0     C 8395   4.785   4.316   2.049 -0.3360  0.2691 -0.1435
   63MOL0     C 8396   4.913   4.273   2.017  0.5761 -0.4621  0.6317
   63MOL0     C 8397   5.015   4.374   2.009  0.0834  0.2218  0.0362
   63MOL0     C 8398   4.991   4.515   2.027 -0.1904  0.1746  0.0048
   63MOL0     C 8399   5.087   4.618   1.981 -0.0594  0.1166  0.2402
   63MOL0     O 8400   5.060   4.751   2.019  0.2450 -0.0555  0.1905
   63MOL0     C 8401   5.139   4.858   1.977 -0.3685  0.2950 -0.0763
   63MOL0     C 8402   5.234   4.900   2.068  0.4069 -0.4408 -0.2334
   63MOL0     C 8403   5.298   5.032   2.051  0.8282  1.3212 -1.2615
   63MOL0     C 8404   5.255   5.100   1.934  1.3707 -0.2360 -0.0372
   63MOL0     O 8405   5.296   5.232   1.936 -0.0983  0.0223  0.3027
   63MOL0     C 8406   5.355   5.276   1.809 -0.4045 -1.0705  0.0911
   63MOL0     C 8407   5.395   5.427   1.818 -0.5733  0.4934 -0.5146
   63MOL0     C 8408   5.285   5.535   1.843  0.0813 -0.5228 -0.4328
   63MOL0     C 8409   5.207   5.536   1.979 -0.0770 -0.1126  1.1278
   63MOL0     C 8410   5.078   5.616   1.968 -1.2456 -0.8006 -0.0657
   63MOL0     C 8411   5.021   5.616   2.114  0.0468  0.6097 -0.8303
   63MOL0     C 8412   4.919   5.727   2.144  0.1138 -0.4998 -0.1927
   63MOL0     C 8413   4.995   5.856   2.197 -0.3208  0.3333  0.2032
   63MOL0    Cl 8414   5.084   5.942   2.076 -0.4512  0.0223  0.1945
   63MOL0     C 8415   5.163   5.051   1.842 -1.3389 -0.6848  0.0481
   63MOL0     C 8416   5.107   4.928   1.866  1.2208  0.2150 -0.4774
   63MOL0     O 8417   5.192   4.582   1.924  0.4517  0.6540  0.2305
   63MOL0     C 8418   4.856   4.546   2.071 -0.1370 -0.8741 -0.1127
   63MOL0     C 8419   4.763   4.451   2.078  0.2285  0.2716 -0.1357
   63MOL0     N 8420   4.612   3.863   1.808 -0.0849  0.0985  0.1184
   63MOL0     N 8421   4.547   3.860   1.697  0.7911  0.5916  0.6319
   63MOL0     C 8422   3.687   4.502   1.224  0.4566  0.1201  0.5727
   63MOL0     C 8423   3.583   4.562   1.143  0.4063  0.4922  0.2784
   63MOL0     C 8424   3.239   4.735   0.934  0.3155 -0.5356 -0.0666
   63MOL0     C 8425   3.190   4.867   0.953  0.4064 -0.1190 -0.5075
   63MOL0     C 8426   3.074   4.907   0.874 -0.1709  0.3923  0.1948
   63MOL0     C 8427   3.030   4.841   0.763  0.7881  1.1095  1.1478
   63MOL0     O 8428   2.940   4.905   0.678  0.4269  0.0725  0.1506
   63MOL0     C 8429   2.961   4.899   0.541 -0.1522 -0.0120  0.2462
   63MOL0     C 8430   2.914   5.036   0.480 -0.4227  0.5352  0.6487
   63MOL0     C 8431   2.764   5.059   0.499  0.3001  0.9961 -0.0858
   63MOL0     C 8432   2.698   5.166   0.404 -0.0938 -0.2089 -0.0260
   63MOL0     C 8433   2.745   5.303   0.435  0.1750 -0.4370  0.2933
   63MOL0     C 8434   2.780   5.418   0.449  0.4321 -0.4972 -0.0542
   63MOL0     C 8435   3.098   4.723   0.731 -0.4661  0.1116  0.9252
   63MOL0     C 8436   3.186   4.669   0.821 -0.4692 -0.0907  0.6884
   63MOL0     C 8437   3.241   4.542   0.758 -0.1799  0.4547 -0.2717
   63MOL0     H 8438   3.339   4.317   1.166  0.8514 -2.1418  1.8020
   63MOL0     H 8439   3.502   4.218   1.309 -1.7780  0.7491 -1.4121
   63MOL0     H 8440   3.770   4.147   1.235  0.2934 -1.7900 -0.4990
   63MOL0     H 8441   3.920   4.222   1.283 -0.8555  1.0650 -2.8321
   63MOL0     H 8442   3.726   4.077   1.454  0.4966 -2.1866 -1.6069
   63MOL0     H 8443   3.849   4.179   1.535 -0.4792 -0.6263 -0.5521
   63MOL0     H 8444   4.022   4.036   1.420  0.0805  1.0935 -0.7934
   63MOL0     H 8445   3.894   3.945   1.336 -3.9429  2.0379 -0.6153
   63MOL0     H 8446   3.946   3.943   1.639  1.3366 -0.9625  1.6326
   63MOL0     H 8447   3.806   3.871   1.569  1.4722 -2.3140  0.8120
   63MOL0     H 8448   3.984   3.711   1.600 -4.2681  1.8129  1.5787
   63MOL0     H 8449   3.940   3.722   1.427 -1.3041 -1.0849  2.3482
   63MOL0     H 8450   4.175   3.697   1.445  0.8222 -1.2018  1.8865
   63MOL0     H 8451   4.158   3.871   1.403  1.6079  0.6925  0.0929
   63MOL0     H 8452   4.159   3.780   1.701 -1.2394  0.2327 -1.5100
   63MOL0     H 8453   4.234   3.923   1.625  2.0161 -0.9317  1.5669
   63MOL0     H 8454   4.329   3.635   1.624  1.4953  0.3988  0.2132
   63MOL0     H 8455   4.385   3.757   1.513  1.1086  0.8029  0.2559
   63MOL0     H 8456   4.346   3.717   1.910  1.5682  1.0793  2.4683
   63MOL0     H 8457   4.565   3.690   2.100  2.4956 -1.8896 -1.9827
   63MOL0     H 8458   4.704   3.797   2.057 -0.5164  2.3658  1.3327
   63MOL0     H 8459   4.434   3.886   2.159  0.2250 -0.5481 -1.0266
   63MOL0     H 8460   4.581   3.891   2.249 -0.5968 -1.0125  0.1266
   63MOL0     H 8461   4.501   4.110   2.156 -1.6040  0.3584 -2.1523
   63MOL0     H 8462   4.507   4.047   1.995 -1.3632  2.5666  0.5288
   63MOL0     H 8463   4.737   4.056   1.990 -3.8526  1.4415 -2.3095
   63MOL0     H 8464   4.760   4.084   2.173 -0.0076  1.2303 -0.1459
   63MOL0     H 8465   4.931   4.168   1.996 -1.1235 -0.8325  0.8529
   63MOL0     H 8466   5.117   4.341   1.989 -1.6041 -4.5461 -2.1366
   63MOL0     H 8467   5.245   4.842   2.158 -0.4486  1.3629  1.1100
   63MOL0     H 8468   5.353   5.075   2.133 -0.2371  1.0661 -0.3889
   63MOL0     H 8469   5.444   5.214   1.789  1.4340  1.9019 -1.7766
   63MOL0     H 8470   5.281   5.261   1.729  0.4844 -1.3507 -0.7045
   63MOL0     H 8471   5.458   5.446   1.906  0.4126  2.6418 -1.5824
   63MOL0     H 8472   5.456   5.440   1.727  2.5304  3.6702  1.7383
   63MOL0     H 8473   5.316   5.639   1.831 -0.8570 -0.2184 -0.2846
   63MOL0     H 8474   5.208   5.529   1.767 -0.2091  0.3754 -0.2220
   63MOL0     H 8475   5.268   5.598   2.046 -0.1323 -2.1213  3.1280
   63MOL0     H 8476   5.191   5.437   2.022 -0.9774 -1.4844 -2.0732
   63MOL0     H 8477   4.998   5.584   1.900 -0.5941  0.6146 -1.5930
   63MOL0     H 8478   5.102   5.718   1.937 -0.2823 -0.5418  1.4777
   63MOL0     H 8479   4.981   5.515   2.131  2.6663 -0.7034 -1.9082
   63MOL0     H 8480   5.092   5.633   2.196 -2.4423  0.7147  1.4532
   63MOL0     H 8481   4.853   5.694   2.225 -0.7629 -1.6683 -1.3270
   63MOL0     H 8482   4.860   5.748   2.054 -2.9082  1.1151  1.9978
   63MOL0     H 8483   4.917   5.923   2.234  0.7345  1.2469  0.7884
   63MOL0     H 8484   5.062   5.829   2.278 -0.5933 -2.0919 -0.2773
   63MOL0     H 8485   5.130   5.119   1.764  0.8585  0.1023 -0.2639
   63MOL0     H 8486   5.012   4.902   1.820  0.4034  0.4767  0.9670
   63MOL0     H 8487   4.829   4.648   2.096  0.5598 -0.1562 -2.1101
   63MOL0     H 8488   4.662   4.483   2.100  0.1281  0.8106 -1.3181
   63MOL0     H 8489   3.781   4.555   1.231  0.0719  0.9163  0.0092
   63MOL0     H 8490   3.612   4.660   1.104  1.5708 -0.2491 -0.7816
   63MOL0     H 8491   3.215   4.927   1.039  0.8696 -1.0301  0.0099
   63MOL0     H 8492   3.026   4.999   0.906 -0.1292 -0.5679  3.4077
   63MOL0     H 8493   2.913   4.812   0.496 -0.8741  1.2396 -1.5039
   63MOL0     H 8494   3.066   4.881   0.514 -0.6947 -0.7905 -1.4234
   63MOL0     H 8495   2.926   5.041   0.372 -0.6124 -0.2201  0.5872
   63MOL0     H 8496   2.970   5.120   0.522 -0.2027 -0.7154  3.0131
   63MOL0     H 8497   2.746   5.101   0.598 -1.7969 -0.7460  0.3650
   63MOL0     H 8498   2.703   4.968   0.505  2.0364 -0.1193  3.0253
   63MOL0     H 8499   2.715   5.136   0.300  0.5894  5.3668 -1.8413
   63MOL0     H 8500   2.591   5.158   0.426 -0.6347 -2.2845 -2.8466
   63MOL0     H 8501   2.805   5.520   0.470  1.6821 -0.8354  0.2074
   63MOL0     H 8502   3.063   4.660   0.649 -1.3959 -0.6474  1.8707
   63MOL0     H 8503   3.199   4.452   0.804  1.7693  0.7439  2.3074
   63MOL0     H 8504   3.237   4.530   0.649  1.4364  1.5650 -0.4852
   63MOL0     H 8505   3.346   4.539   0.790 -0.9550  2.6489  2.9429
   64MOL0     O 8506   0.166   2.016   4.703 -0.1558  0.2792 -0.4760
   64MOL0     C 8507   0.193   2.032   4.586 -0.0344  0.3452  0.2781
   64MOL0     O 8508   0.236   2.145   4.529 -0.7448  0.2462  0.3691
   64MOL0     C 8509   0.241   2.256   4.606 -0.7091 -0.1770  0.2428
   64MOL0     C 8510   0.368   2.314   4.640  0.5645 -1.4994 -0.6907
   64MOL0     C 8511   0.368   2.431   4.729  0.5483 -0.5360 -0.0656
   64MOL0     C 8512   0.255   2.484   4.782 -0.7992  0.4002 -0.3726
   64MOL0     O 8513   0.281   2.596   4.861  0.4417  0.0264  0.5815
   64MOL0     C 8514   0.229   2.617   4.994  0.2752 -0.0991 -0.6790
   64MOL0     C 8515   0.314   2.729   5.053  0.1182 -0.2285  1.2555
   64MOL0     C 8516   0.255   2.794   5.180  0.1067  0.1165 -0.1420
   64MOL0     C 8517   0.128   2.868   5.141 -0.6966  0.2373 -0.0167
   64MOL0     C 8518   0.042   2.920   5.253  0.0600 -1.2119 -1.2677
   64MOL0     C 8519   0.117   3.048   5.321 -0.9257  0.2722 -0.6595
   64MOL0     C 8520   0.006   3.142   5.391  0.2621  0.5886  0.9308
   64MOL0     C 8521   0.055   3.273   5.437 -0.0861 -0.2033  0.7028
   64MOL0     N 8522   0.168   3.262   5.527  0.7009 -0.1201 -0.7314
   64MOL0     C 8523   0.160   3.215   5.660 -0.1530  0.2672  0.8317
   64MOL0     C 8524   0.282   3.239   5.715  0.2387  0.2408  0.5899
   64MOL0     C 8525   0.327   3.215   5.856 -0.1117  0.2544  0.3162
   64MOL0     C 8526   0.369   3.070   5.876 -0.8345 -0.4279  0.0182
   64MOL0     C 8527   0.502   3.026   5.812 -0.3656  0.4565 -0.3407
   64MOL0     C 8528   0.509   2.879   5.781 -0.7098 -0.0392  0.9003
   64MOL0     O 8529   0.467   2.850   5.647 -0.6316 -0.7852 -0.6848
   64MOL0     C 8530   0.490   2.722   5.592  1.0412  0.2531  0.2972
   64MOL0     C 8531   0.516   2.606   5.667  0.0401  0.3450  0.2373
   64MOL0     C 8532   0.525   2.471   5.612 -0.4940  1.0692 -0.4194
   64MOL0     C 8533   0.522   2.451   5.474 -0.8714 -0.4091  0.1043
   64MOL0     C 8534   0.525   2.317   5.415  0.4785 -0.1360 -1.0023
   64MOL0     O 8535   0.504   2.319   5.279 -0.7263 -1.1420  0.0627
   64MOL0     C 8536   0.482   2.204   5.205 -0.2288 -0.4863 -0.2884
   64MOL0     C 8537   0.408   2.198   5.095  0.8328  0.5509 -0.0189
   64MOL0     C 8538   0.400   2.086   5.013 -0.0118  0.0447  1.0320
   64MOL0     C 8539   0.476   1.976   5.039  0.0895 -0.5692 -0.7762
   64MOL0     O 8540   0.481   1.868   4.958 -0.6020 -0.0618 -0.1899
   64MOL0     C 8541   0.368   1.802   4.912  0.0833  0.4557 -0.3563
   64MOL0     C 8542   0.411   1.671   4.835 -0.2668 -0.0791 -0.0633
   64MOL0     C 8543   0.453   1.711   4.700 -0.1388 -0.5828  0.3639
   64MOL0     C 8544   0.484   1.587   4.606  0.7294  0.0546  0.1611
   64MOL0     C 8545   0.636   1.569   4.582 -0.2447  0.0993  0.5405
   64MOL0     C 8546   0.681   1.440   4.525  0.7544 -0.1693 -0.7355
   64MOL0     C 8547   0.702   1.460   4.377 -0.2655  0.6879 -0.6928
   64MOL0     C 8548   0.688   1.322   4.312  1.2459 -0.5782 -1.0094
   64MOL0    Cl 8549   0.730   1.294   4.141 -0.2646  0.1800 -0.1816
   64MOL0     C 8550   0.559   1.981   5.153  0.7768 -0.0323 -0.4286
   64MOL0     C 8551   0.564   2.093   5.231 -0.4324  0.7077  0.0877
   64MOL0     O 8552   0.568   2.218   5.491 -0.1005  0.7821  1.3718
   64MOL0     C 8553   0.496   2.568   5.392 -0.0317  1.1876 -0.0876
   64MOL0     C 8554   0.487   2.698   5.454 -0.5998  0.1045 -0.0422
   64MOL0     N 8555   0.365   3.293   5.614 -0.6187 -0.4504 -1.0077
   64MOL0     N 8556   0.296   3.315   5.508  0.6243  0.3936  0.6429
   64MOL0     C 8557   0.134   2.426   4.751  0.1530  0.6604 -0.4587
   64MOL0     C 8558   0.127   2.318   4.664  0.8896  0.6051 -0.2935
   64MOL0     C 8559   0.174   1.906   4.497  0.7193 -0.0811  0.2136
   64MOL0     C 8560   0.229   1.916   4.377  0.2992 -0.4320  0.0947
   64MOL0     C 8561   0.233   1.822   4.279 -0.6229  0.2974  0.3912
   64MOL0     C 8562   0.187   1.693   4.317 -0.8009 -0.0382  0.8773
   64MOL0     O 8563   0.184   1.578   4.248 -0.3632 -0.0208  0.6289
   64MOL0     C 8564   0.239   1.566   4.119  0.5817 -0.0312  0.1914
   64MOL0     C 8565   0.221   1.419   4.084 -0.2780 -1.1504  0.8689
   64MOL0     C 8566   0.327   1.329   4.163 -0.6535  0.2773  0.4531
   64MOL0     C 8567   0.311   1.171   4.155  0.2701 -0.4821 -0.2489
   64MOL0     C 8568   0.329   1.129   4.015  0.0570 -0.4733 -1.1034
   64MOL0     C 8569   0.352   1.085   3.909  0.5965 -0.7526 -0.6647
   64MOL0     C 8570   0.131   1.673   4.448  0.4032 -1.0479 -0.6520
   64MOL0     C 8571   0.110   1.785   4.535  0.0900  0.0175 -0.5102
   64MOL0     C 8572   0.030   1.750   4.661  0.2621  0.5532 -0.0728
   64MOL0     H 8573   0.465   2.285   4.600  2.1290  2.8570 -0.6112
   64MOL0     H 8574   0.459   2.478   4.766  1.5602 -0.8470 -2.0554
   64MOL0     H 8575   0.129   2.657   4.974  1.5572  2.9780 -1.6586
   64MOL0     H 8576   0.226   2.532   5.062  0.1781 -0.4381 -1.1056
   64MOL0     H 8577   0.333   2.802   4.974 -1.3266 -0.4865  0.6473
   64MOL0     H 8578   0.405   2.671   5.076 -3.0253 -5.6774  1.5797
   64MOL0     H 8579   0.332   2.864   5.213 -0.4692  0.4644  0.5009
   64MOL0     H 8580   0.230   2.718   5.255 -0.3691 -2.0590 -2.3723
   64MOL0     H 8581   0.164   2.950   5.078  0.2703 -1.3995 -1.7391
   64MOL0     H 8582   0.057   2.803   5.088 -2.5097  1.1570  1.2011
   64MOL0     H 8583  -0.050   2.961   5.210  0.1235  1.7439  1.0493
   64MOL0     H 8584   0.016   2.844   5.327 -0.6512  0.8526  0.7039
   64MOL0     H 8585   0.180   3.010   5.401 -2.0466  2.5410  1.4355
   64MOL0     H 8586   0.181   3.106   5.254 -2.1843  2.2771 -0.2153
   64MOL0     H 8587  -0.030   3.086   5.477 -2.4881 -2.3003 -1.8162
   64MOL0     H 8588  -0.074   3.152   5.317  1.2807  0.2656 -0.2574
   64MOL0     H 8589   0.086   3.332   5.351 -0.6139 -1.2524 -0.2270
   64MOL0     H 8590  -0.022   3.335   5.485  1.4896  2.2130  0.2641
   64MOL0     H 8591   0.075   3.178   5.716  0.0500 -0.2058  0.8302
   64MOL0     H 8592   0.413   3.281   5.874 -1.0912  2.4276 -2.2383
   64MOL0     H 8593   0.250   3.247   5.927 -3.0345 -0.9120 -2.0952
   64MOL0     H 8594   0.381   3.054   5.984  5.0735 -1.8578 -0.5090
   64MOL0     H 8595   0.287   3.003   5.846 -0.2033 -2.7878  3.0189
   64MOL0     H 8596   0.597   3.038   5.864  0.7867 -2.1145 -1.6448
   64MOL0     H 8597   0.515   3.082   5.719  0.4909 -0.4779 -0.8092
   64MOL0     H 8598   0.453   2.825   5.858 -0.0132 -0.4946  1.0938
   64MOL0     H 8599   0.616   2.860   5.783 -0.4825  1.1259  0.5592
   64MOL0     H 8600   0.525   2.613   5.775  3.3914  1.5295  0.0024
   64MOL0     H 8601   0.534   2.385   5.677  0.3371  0.3406 -1.4611
   64MOL0     H 8602   0.360   2.292   5.069 -0.0030 -0.3516 -1.9063
   64MOL0     H 8603   0.334   2.084   4.926  1.6561  1.1097 -0.3413
   64MOL0     H 8604   0.299   1.760   4.986  0.1781 -1.6140 -1.3742
   64MOL0     H 8605   0.316   1.866   4.840 -0.9643 -0.8403 -0.7912
   64MOL0     H 8606   0.497   1.621   4.881 -1.3428 -2.8833 -0.8371
   64MOL0     H 8607   0.325   1.604   4.841  1.8438 -2.9036  0.9874
   64MOL0     H 8608   0.366   1.756   4.651  0.8353  2.2798  1.0202
   64MOL0     H 8609   0.525   1.794   4.700 -1.4223  0.7463 -3.4006
   64MOL0     H 8610   0.428   1.609   4.514 -1.6352  2.0241  1.9541
   64MOL0     H 8611   0.443   1.488   4.630 -0.6739 -0.0370 -2.2627
   64MOL0     H 8612   0.677   1.576   4.683 -1.8521 -1.9959  1.3961
   64MOL0     H 8613   0.678   1.652   4.525  3.1676 -2.7043 -1.4045
   64MOL0     H 8614   0.779   1.417   4.567  0.5538  0.9322  0.3996
   64MOL0     H 8615   0.604   1.367   4.554  2.2714 -1.2668  0.7372
   64MOL0     H 8616   0.801   1.505   4.360 -0.2195  1.4190  1.2348
   64MOL0     H 8617   0.623   1.511   4.322 -0.5077  2.7802  1.4518
   64MOL0     H 8618   0.735   1.238   4.365 -1.8502 -1.8511 -0.0684
   64MOL0     H 8619   0.581   1.300   4.310  0.6579  1.8695 -0.3125
   64MOL0     H 8620   0.624   1.895   5.160 -0.1820 -0.7104  0.5185
   64MOL0     H 8621   0.649   2.086   5.298  1.3600  1.0921 -2.0141
   64MOL0     H 8622   0.474   2.559   5.286  0.0124  1.1414 -0.0926
   64MOL0     H 8623   0.466   2.790   5.400 -0.6645  0.5571  0.7389
   64MOL0     H 8624   0.044   2.475   4.784  0.9456  0.9302  1.4402
   64MOL0     H 8625   0.031   2.282   4.628  0.2633  0.1376  1.7350
   64MOL0     H 8626   0.278   2.007   4.343  0.3356 -0.9631 -1.3411
   64MOL0     H 8627   0.274   1.838   4.180 -1.1445 -0.5679  0.0248
   64MOL0     H 8628   0.343   1.598   4.116  2.2636 -4.4160  2.5945
   64MOL0     H 8629   0.184   1.615   4.038  0.5480 -1.6186 -0.7995
   64MOL0     H 8630   0.244   1.390   3.981  1.9611 -1.3727  1.3876
   64MOL0     H 8631   0.118   1.393   4.112 -0.8167  1.4378  1.4927
   64MOL0     H 8632   0.325   1.344   4.271 -2.8699  3.3752  0.1228
   64MOL0     H 8633   0.429   1.363   4.142 -0.1728 -1.1701  0.3105
   64MOL0     H 8634   0.384   1.122   4.219  1.4481 -0.1695 -1.3100
   64MOL0     H 8635   0.209   1.150   4.191  0.6299  2.4397  2.9780
   64MOL0     H 8636   0.357   1.054   3.807 -1.3240  0.0438 -1.0471
   64MOL0     H 8637   0.094   1.572   4.463 -2.2464  0.0004  0.5753
   64MOL0     H 8638   0.005   1.644   4.649  0.9166  0.5714 -2.0372
   64MOL0     H 8639   0.099   1.744   4.746  0.0984 -1.1715 -0.0244
   64MOL0     H 8640  -0.062   1.808   4.673 -0.7063 -0.8131 -0.6140
   65MOL0     O 8641   0.395   0.306   1.263  0.7525 -0.0938  0.2578
   65MOL0     C 8642   0.323   0.246   1.189  0.4317  1.0176 -0.2156
   65MOL0     O 8643   0.193   0.271   1.163  0.1472 -0.0760 -0.6378
   65MOL0     C 8644   0.154   0.403   1.190 -0.2924  0.3349  0.9171
   65MOL0     C 8645   0.090   0.449   1.301  0.4628  1.0714  0.4040
   65MOL0     C 8646   0.075   0.583   1.321 -0.1216 -0.7474 -0.2051
   65MOL0     C 8647   0.102   0.682   1.219 -0.0913 -0.5322  0.3634
   65MOL0     O 8648   0.068   0.818   1.220 -0.0675 -0.2902  0.5848
   65MOL0     C 8649  -0.062   0.847   1.176  0.8277 -0.2054  0.3449
   65MOL0     C 8650  -0.101   0.992   1.168  0.5768 -0.4279  0.5785
   65MOL0     C 8651  -0.029   1.063   1.043 -0.0685  1.0572 -0.2359
   65MOL0     C 8652   0.074   1.154   1.094  0.5453 -0.1457 -0.3058
   65MOL0     C 8653   0.004   1.276   1.141  1.2349 -0.8240 -0.1211
   65MOL0     C 8654   0.110   1.383   1.158  1.3200 -0.1600  0.1633
   65MOL0     C 8655   0.175   1.364   1.291 -0.0818 -0.3035 -0.0413
   65MOL0     C 8656   0.274   1.482   1.292 -0.1824 -0.0202  0.4497
   65MOL0     N 8657   0.372   1.459   1.400  0.6363  0.1439  0.2029
   65MOL0     C 8658   0.477   1.370   1.399 -0.1311  0.4329  0.8511
   65MOL0     C 8659   0.540   1.396   1.515 -0.4812 -0.4048  0.2641
   65MOL0     C 8660   0.661   1.336   1.570  0.6592 -0.1186 -0.1060
   65MOL0     C 8661   0.789   1.414   1.540 -0.3240  0.5429 -0.2410
   65MOL0     C 8662   0.790   1.554   1.609  0.6621 -0.0118  0.3120
   65MOL0     C 8663   0.765   1.549   1.755 -0.0617  0.0656 -0.7026
   65MOL0     O 8664   0.794   1.667   1.818 -0.0135  0.3234 -0.3540
   65MOL0     C 8665   0.705   1.760   1.836  0.0594  0.0534  0.0411
   65MOL0     C 8666   0.760   1.870   1.908  0.2062 -0.3639 -0.0606
   65MOL0     C 8667   0.668   1.963   1.949  0.0282 -0.1227  0.4596
   65MOL0     C 8668   0.530   1.950   1.915  0.7784  0.1464  0.0396
   65MOL0     C 8669   0.430   2.052   1.974 -0.0745 -0.2562  0.1807
   65MOL0     O 8670   0.453   2.123   2.083 -0.1093  0.0328 -0.1718
   65MOL0     C 8671   0.358   2.215   2.125  0.3587  1.0769 -0.1292
   65MOL0     C 8672   0.235   2.175   2.183 -0.6828  0.1007 -0.5114
   65MOL0     C 8673   0.148   2.284   2.224  0.5250  0.8870 -0.3594
   65MOL0     C 8674   0.177   2.420   2.196  0.5043 -0.1088 -0.3735
   65MOL0     O 8675   0.083   2.515   2.209  0.0888 -1.2580 -0.5519
   65MOL0     C 8676  -0.060   2.482   2.182 -0.0401 -0.6173  0.0465
   65MOL0     C 8677  -0.081   2.510   2.032 -0.0672  0.1190 -0.4644
   65MOL0     C 8678  -0.232   2.504   1.995  0.4134 -0.3981 -0.4704
   65MOL0     C 8679  -0.272   2.603   1.883 -0.3083  0.0444 -0.6487
   65MOL0     C 8680  -0.256   2.751   1.912  0.1754  0.0541  0.5484
   65MOL0     C 8681  -0.336   2.820   1.789 -0.6379 -0.4040  0.9085
   65MOL0     C 8682  -0.359   2.974   1.822 -0.6483  0.2624 -0.0479
   65MOL0     C 8683  -0.391   3.052   1.690 -0.8410 -0.2769 -0.0454
   65MOL0    Cl 8684  -0.247   3.080   1.605  0.1240 -0.2448  0.1483
   65MOL0     C 8685   0.305   2.450   2.147 -0.4161  0.1628 -1.3523
   65MOL0     C 8686   0.387   2.349   2.111 -0.0990  0.8747 -0.4683
   65MOL0     O 8687   0.325   2.068   1.905 -0.4418  0.6765 -0.6173
   65MOL0     C 8688   0.482   1.849   1.833 -0.2304  0.0784 -0.3145
   65MOL0     C 8689   0.574   1.754   1.796  0.3768 -0.7586 -0.8631
   65MOL0     N 8690   0.459   1.481   1.586  0.7671 -0.0280  0.1766
   65MOL0     N 8691   0.367   1.536   1.519 -0.3977  0.3103 -0.2278
   65MOL0     C 8692   0.169   0.633   1.106  0.6812 -0.5754  0.1630
   65MOL0     C 8693   0.196   0.496   1.092 -0.1733  0.0759 -0.2499
   65MOL0     C 8694   0.362   0.105   1.161  0.6139 -0.9197  0.4544
   65MOL0     C 8695   0.263   0.009   1.135 -0.2853  0.3151 -0.0695
   65MOL0     C 8696   0.288  -0.126   1.103  0.8050 -0.3478 -0.2428
   65MOL0     C 8697   0.412  -0.169   1.087 -0.0917 -0.3076  0.7086
   65MOL0     O 8698   0.426  -0.300   1.065 -0.4225  0.4335 -0.2752
   65MOL0     C 8699   0.551  -0.346   1.001  0.0505  0.5858  0.4571
   65MOL0     C 8700   0.650  -0.395   1.103  0.5265 -0.1060 -0.6740
   65MOL0     C 8701   0.768  -0.463   1.045  0.0862 -0.6338 -0.0942
   65MOL0     C 8702   0.877  -0.371   0.980  0.3425  0.6914 -0.6414
   65MOL0     C 8703   0.981  -0.327   1.073 -0.1796 -0.3009 -0.0036
   65MOL0     C 8704   1.044  -0.273   1.158 -0.1799 -0.1523  0.1715
   65MOL0     C 8705   0.514  -0.069   1.110 -0.1562  0.0047 -0.4357
   65MOL0     C 8706   0.492   0.064   1.149  0.3711 -0.1832 -0.3798
   65MOL0     C 8707   0.609   0.143   1.190  0.4765  0.4064 -0.0070
   65MOL0     H 8708   0.063   0.376   1.377  2.4426  1.5201  1.5967
   65MOL0     H 8709   0.032   0.628   1.410  0.2062 -1.3722  0.2717
   65MOL0     H 8710  -0.079   0.798   1.080 -1.3802 -1.2043  1.1829
   65MOL0     H 8711  -0.132   0.811   1.252  2.0084 -0.0108  1.5689
   65MOL0     H 8712  -0.083   1.048   1.260 -0.2881 -1.2587  1.2730
   65MOL0     H 8713  -0.210   0.996   1.160  0.5987 -0.1411  0.4158
   65MOL0     H 8714  -0.107   1.111   0.984 -1.8130 -0.5725  0.6162
   65MOL0     H 8715   0.020   0.990   0.978  2.1964  1.6820  0.6963
   65MOL0     H 8716   0.136   1.107   1.171  3.4776  1.3818 -1.5725
   65MOL0     H 8717   0.137   1.168   1.006  0.3403 -1.5952 -0.7072
   65MOL0     H 8718  -0.054   1.314   1.056  0.8871 -0.2353  0.3710
   65MOL0     H 8719  -0.059   1.266   1.229  1.7411 -0.3272  0.3084
   65MOL0     H 8720   0.180   1.373   1.075 -1.4433 -1.1018 -2.2340
   65MOL0     H 8721   0.055   1.477   1.148  0.0514 -0.7607  1.0857
   65MOL0     H 8722   0.230   1.269   1.299 -0.1943 -0.2284  2.1041
   65MOL0     H 8723   0.109   1.361   1.378 -1.8949 -2.0942 -1.3933
   65MOL0     H 8724   0.325   1.492   1.196  2.0863  1.3289  1.7029
   65MOL0     H 8725   0.219   1.574   1.316  1.3212  0.1672  3.6088
   65MOL0     H 8726   0.508   1.316   1.311 -2.7456  1.9284 -1.1451
   65MOL0     H 8727   0.646   1.308   1.674 -3.4101 -2.5363 -1.1115
   65MOL0     H 8728   0.669   1.233   1.535  1.1741  0.4749 -1.8533
   65MOL0     H 8729   0.869   1.351   1.579 -1.6521 -0.9860  0.1355
   65MOL0     H 8730   0.803   1.440   1.434  0.7683  0.6383 -0.0764
   65MOL0     H 8731   0.717   1.625   1.570 -0.5046  0.3986  3.0664
   65MOL0     H 8732   0.891   1.595   1.602  1.1054 -0.5570  2.6639
   65MOL0     H 8733   0.824   1.470   1.803 -0.1916  0.1425 -0.4163
   65MOL0     H 8734   0.663   1.514   1.774 -0.5257  1.0533 -1.2769
   65MOL0     H 8735   0.860   1.881   1.949  0.3970  0.6061 -0.7429
   65MOL0     H 8736   0.699   2.051   2.004 -0.0378  0.9414 -1.1263
   65MOL0     H 8737   0.227   2.069   2.205 -1.9563 -0.1301 -1.8879
   65MOL0     H 8738   0.060   2.245   2.276  1.0798 -2.6218 -1.7381
   65MOL0     H 8739  -0.093   2.381   2.210 -2.2410  0.4787  1.7685
   65MOL0     H 8740  -0.129   2.544   2.239 -2.3047 -3.6903  0.9283
   65MOL0     H 8741  -0.043   2.610   2.010  0.7855 -0.6604 -2.9689
   65MOL0     H 8742  -0.020   2.452   1.962 -2.2935 -1.5974 -1.1081
   65MOL0     H 8743  -0.256   2.403   1.960  0.6507  0.0297 -1.9487
   65MOL0     H 8744  -0.291   2.535   2.082  2.3894 -1.3737  1.3108
   65MOL0     H 8745  -0.381   2.588   1.880 -0.3275  0.0856 -0.1451
   65MOL0     H 8746  -0.228   2.575   1.787 -2.3586  2.4924 -2.4325
   65MOL0     H 8747  -0.151   2.779   1.926  0.4809 -0.6402 -0.2619
   65MOL0     H 8748  -0.304   2.775   2.007  1.9180  0.7937  1.2853
   65MOL0     H 8749  -0.285   2.809   1.693 -1.0233 -0.3164  0.6901
   65MOL0     H 8750  -0.439   2.785   1.777 -1.5286  1.7510  1.6609
   65MOL0     H 8751  -0.275   3.023   1.872 -1.5873  0.6257  1.2107
   65MOL0     H 8752  -0.447   2.990   1.885  0.6711  4.2144  1.0754
   65MOL0     H 8753  -0.472   2.998   1.641  0.1865 -1.9378 -0.0182
   65MOL0     H 8754  -0.422   3.152   1.720 -3.9426 -0.6720 -1.5822
   65MOL0     H 8755   0.347   2.550   2.151  2.3607 -0.6619 -5.0483
   65MOL0     H 8756   0.481   2.396   2.084 -0.9112  1.9063 -1.5800
   65MOL0     H 8757   0.375   1.834   1.821 -0.5226  0.9877  1.0122
   65MOL0     H 8758   0.533   1.664   1.751  1.8338 -0.4151 -3.0397
   65MOL0     H 8759   0.198   0.695   1.022  0.7670 -2.7511 -1.4712
   65MOL0     H 8760   0.260   0.468   1.009  0.8720 -3.4931  1.5648
   65MOL0     H 8761   0.157   0.022   1.154 -0.4394 -0.9696  0.0590
   65MOL0     H 8762   0.209  -0.193   1.070 -1.8138  2.7191 -0.7391
   65MOL0     H 8763   0.595  -0.261   0.948  1.8755 -0.9923 -0.7035
   65MOL0     H 8764   0.535  -0.423   0.924  0.3979  0.5173  0.4507
   65MOL0     H 8765   0.605  -0.466   1.173  1.2687  0.0448 -0.0304
   65MOL0     H 8766   0.698  -0.311   1.155 -1.0933  0.7006 -0.4092
   65MOL0     H 8767   0.733  -0.535   0.970  1.7135 -2.0684  0.4484
   65MOL0     H 8768   0.825  -0.527   1.113  3.2603  1.4460 -0.6055
   65MOL0     H 8769   0.926  -0.413   0.892  1.2205  1.2951 -0.4572
   65MOL0     H 8770   0.831  -0.283   0.936 -1.6712 -0.4949 -1.0065
   65MOL0     H 8771   1.108  -0.227   1.231 -2.3156  1.1853  1.2980
   65MOL0     H 8772   0.620  -0.092   1.108 -0.1916 -0.3923 -4.1218
   65MOL0     H 8773   0.608   0.159   1.299  4.2015  1.2043  0.0584
   65MOL0     H 8774   0.705   0.096   1.169  0.7888  1.9924 -2.5103
   65MOL0     H 8775   0.609   0.245   1.150  0.1225  0.4314  0.0577
   66MOL0     O 8776   3.571   2.107   0.908 -0.0508  0.2416  0.0767
   66MOL0     C 8777   3.452   2.121   0.874 -0.2281 -0.7091 -0.7481
   66MOL0     O 8778   3.394   2.058   0.765  0.8685  0.9235 -0.1600
   66MOL0     C 8779   3.447   1.935   0.709 -0.0637  0.1151  0.3912
   66MOL0     C 8780   3.500   1.842   0.791  0.4533  0.7804 -0.0274
   66MOL0     C 8781   3.548   1.718   0.747  0.3099  0.5519  0.7430
   66MOL0     C 8782   3.546   1.688   0.613 -0.3995 -0.1202 -0.0282
   66MOL0     O 8783   3.593   1.566   0.578  1.0969 -0.1317  0.9977
   66MOL0     C 8784   3.729   1.587   0.530  0.5809  0.1249 -0.1919
   66MOL0     C 8785   3.798   1.447   0.502  0.0845  0.2793  0.4309
   66MOL0     C 8786   3.748   1.396   0.363 -0.0045  0.0363  1.1471
   66MOL0     C 8787   3.807   1.254   0.336 -0.3689  0.1606  0.4488
   66MOL0     C 8788   3.782   1.206   0.192  0.0539 -0.0595 -0.5549
   66MOL0     C 8789   3.865   1.090   0.169  0.8856  0.4722 -0.1167
   66MOL0     C 8790   3.870   1.053   0.026  0.0847  0.0140 -0.5849
   66MOL0     C 8791   3.742   0.979  -0.020 -0.1696 -0.5792 -0.0801
   66MOL0     N 8792   3.752   0.971  -0.165  0.6512 -0.2667 -0.8828
   66MOL0     C 8793   3.795   0.855  -0.235  0.1567 -0.4979  0.2652
   66MOL0     C 8794   3.764   0.884  -0.366  0.2762 -1.0185 -0.1137
   66MOL0     C 8795   3.789   0.798  -0.487  0.0919  0.3278 -0.1427
   66MOL0     C 8796   3.942   0.773  -0.486 -0.9428  0.4236  0.6300
   66MOL0     C 8797   3.999   0.675  -0.597 -0.1514 -0.0481 -0.0080
   66MOL0     C 8798   3.958   0.529  -0.579 -0.2646 -0.1235  0.4409
   66MOL0     O 8799   3.817   0.508  -0.604  0.0134 -0.2116  0.8951
   66MOL0     C 8800   3.776   0.472  -0.729  0.4316 -0.7923  0.8063
   66MOL0     C 8801   3.818   0.366  -0.795  0.3017  1.0948 -0.2130
   66MOL0     C 8802   3.797   0.337  -0.935 -0.6859  0.6047 -0.8517
   66MOL0     C 8803   3.714   0.427  -1.000 -0.1237 -0.7624 -0.2407
   66MOL0     C 8804   3.682   0.397  -1.142  0.0525  0.6046 -0.4536
   66MOL0     O 8805   3.623   0.283  -1.154 -0.1357  0.5065 -0.1064
   66MOL0     C 8806   3.607   0.227  -1.278  0.7273  1.2412  0.6432
   66MOL0     C 8807   3.482   0.233  -1.346 -0.0120 -0.8088 -0.9913
   66MOL0     C 8808   3.456   0.173  -1.462 -0.8508  0.0911 -0.3272
   66MOL0     C 8809   3.558   0.104  -1.525 -0.1527 -0.3190 -0.0054
   66MOL0     O 8810   3.546   0.021  -1.632 -0.9635 -0.0154  0.2398
   66MOL0     C 8811   3.414  -0.009  -1.685 -0.2855  0.4929  0.2951
   66MOL0     C 8812   3.422  -0.141  -1.768  1.3390 -0.9783 -0.9352
   66MOL0     C 8813   3.292  -0.180  -1.841 -0.9452  0.4231 -0.4939
   66MOL0     C 8814   3.317  -0.313  -1.929 -0.3708 -0.1806 -0.9727
   66MOL0     C 8815   3.189  -0.342  -2.021 -1.0287 -0.2101 -0.7003
   66MOL0     C 8816   3.183  -0.493  -2.038  0.7340  0.6312  0.3752
   66MOL0     C 8817   3.044  -0.538  -2.073  0.0698  0.4073  0.3553
   66MOL0     C 8818   2.943  -0.563  -1.965 -0.2240  1.7105  0.1315
   66MOL0    Cl 8819   3.006  -0.705  -1.871 -0.1998  0.0873  0.3876
   66MOL0     C 8820   3.688   0.096  -1.468 -0.1303 -0.4232 -0.1748
   66MOL0     C 8821   3.709   0.157  -1.345 -0.3682 -0.2639 -0.3666
   66MOL0     O 8822   3.716   0.468  -1.233 -0.5714 -0.0357  0.1342
   66MOL0     C 8823   3.675   0.548  -0.938  1.3470  0.4215 -0.3863
   66MOL0     C 8824   3.704   0.562  -0.803  0.6668 -0.3759  0.4560
   66MOL0     N 8825   3.690   1.003  -0.366 -0.6190 -0.1785  0.4208
   66MOL0     N 8826   3.694   1.056  -0.249 -0.1653 -0.6318  0.0218
   66MOL0     C 8827   3.485   1.778   0.520 -0.0717 -0.3657  0.0594
   66MOL0     C 8828   3.440   1.902   0.569 -0.3737  0.1488 -0.0660
   66MOL0     C 8829   3.363   2.218   0.946 -0.7244  0.1550 -0.0962
   66MOL0     C 8830   3.236   2.177   0.999 -0.1870  0.0274 -1.1957
   66MOL0     C 8831   3.160   2.274   1.073 -0.0757 -0.0504  0.1689
   66MOL0     C 8832   3.196   2.406   1.090  0.2689  0.4651 -0.5246
   66MOL0     O 8833   3.111   2.503   1.147 -0.8000  0.3286  0.2677
   66MOL0     C 8834   3.094   2.489   1.282  0.1021  0.1764 -0.2210
   66MOL0     C 8835   2.938   2.456   1.309 -0.3129 -0.7116 -0.5136
   66MOL0     C 8836   2.907   2.440   1.455 -0.7941 -0.1610  0.0123
   66MOL0     C 8837   2.768   2.426   1.483 -0.4466 -0.2090 -0.1043
   66MOL0     C 8838   2.727   2.282   1.469  0.1427 -0.5732  0.0594
   66MOL0     C 8839   2.700   2.160   1.474  0.3136  0.5783  0.6460
   66MOL0     C 8840   3.313   2.450   1.031  0.8344 -0.3091 -0.0499
   66MOL0     C 8841   3.392   2.359   0.962 -0.3716  0.3242 -0.0804
   66MOL0     C 8842   3.524   2.413   0.915  0.0057 -0.1768  0.0261
   66MOL0     H 8843   3.512   1.863   0.897 -0.9494 -1.0359  0.5385
   66MOL0     H 8844   3.593   1.657   0.825  5.2896  1.1915 -1.2386
   66MOL0     H 8845   3.728   1.641   0.435  0.9965  2.8693  1.2566
   66MOL0     H 8846   3.785   1.644   0.604 -0.8352 -0.1509  1.1327
   66MOL0     H 8847   3.772   1.364   0.569  1.0834  0.5402  1.1609
   66MOL0     H 8848   3.906   1.458   0.498  0.2620 -1.4148 -0.4077
   66MOL0     H 8849   3.777   1.466   0.283  1.1583 -0.0626  1.4648
   66MOL0     H 8850   3.638   1.393   0.361 -0.0076  0.3476  0.6168
   66MOL0     H 8851   3.915   1.249   0.353 -0.3174 -1.7088 -0.2750
   66MOL0     H 8852   3.765   1.188   0.412  3.0252 -1.0145  1.4730
   66MOL0     H 8853   3.680   1.178   0.167 -0.1502 -0.1387  0.3304
   66MOL0     H 8854   3.798   1.282   0.115  1.2715  0.4579  0.1788
   66MOL0     H 8855   3.970   1.109   0.196  0.1386  4.6060  0.5445
   66MOL0     H 8856   3.819   1.004   0.218  1.7401  0.1408  0.1363
   66MOL0     H 8857   3.960   0.995   0.004 -0.9228 -1.1156 -1.9201
   66MOL0     H 8858   3.879   1.136  -0.044 -2.3305  0.5982 -0.3232
   66MOL0     H 8859   3.731   0.879   0.025 -1.3744  0.0810  1.1657
   66MOL0     H 8860   3.655   1.031   0.021 -0.9646 -3.7513  2.8235
   66MOL0     H 8861   3.820   0.755  -0.200  2.1146  0.7372  2.6371
   66MOL0     H 8862   3.735   0.707  -0.461  0.9586  0.6549  3.2399
   66MOL0     H 8863   3.754   0.846  -0.579  1.5392  1.5644 -0.0777
   66MOL0     H 8864   3.982   0.873  -0.508 -0.7921  0.0656 -0.8204
   66MOL0     H 8865   3.972   0.734  -0.388 -0.0155  0.4978  0.3836
   66MOL0     H 8866   4.107   0.672  -0.581 -0.5140 -1.3270  2.7350
   66MOL0     H 8867   3.977   0.703  -0.700  1.8562 -0.6966 -0.6599
   66MOL0     H 8868   3.973   0.490  -0.478  0.4420  0.5860  0.6132
   66MOL0     H 8869   4.028   0.467  -0.636  2.5124  2.8265  0.3510
   66MOL0     H 8870   3.874   0.290  -0.740 -3.5715 -2.3918 -0.6305
   66MOL0     H 8871   3.840   0.245  -0.975  2.5232  0.1962  2.9308
   66MOL0     H 8872   3.406   0.296  -1.300  0.2408 -1.6878  0.7320
   66MOL0     H 8873   3.355   0.180  -1.502 -0.7626 -1.8489 -1.0210
   66MOL0     H 8874   3.328  -0.009  -1.618 -0.4916 -1.1188  0.0748
   66MOL0     H 8875   3.388   0.069  -1.758  1.3383  1.7955  1.0377
   66MOL0     H 8876   3.509  -0.127  -1.833  0.6812 -0.4700 -1.7348
   66MOL0     H 8877   3.445  -0.219  -1.695 -1.8495 -2.7597 -1.6332
   66MOL0     H 8878   3.218  -0.203  -1.765  1.2176 -0.2590  1.5171
   66MOL0     H 8879   3.265  -0.103  -1.914 -3.0795 -2.2294 -2.7747
   66MOL0     H 8880   3.315  -0.386  -1.848 -1.1611  1.6864  0.7885
   66MOL0     H 8881   3.412  -0.334  -1.978 -1.8593 -2.0342 -3.2772
   66MOL0     H 8882   3.184  -0.278  -2.110  1.7363 -1.4095 -1.8137
   66MOL0     H 8883   3.103  -0.313  -1.959 -1.2069 -1.0928 -0.5304
   66MOL0     H 8884   3.255  -0.521  -2.115 -3.3341 -0.8541 -3.2625
   66MOL0     H 8885   3.222  -0.543  -1.949  4.6040  0.1443 -1.4318
   66MOL0     H 8886   3.058  -0.632  -2.126  2.1562 -0.4611  2.3159
   66MOL0     H 8887   2.993  -0.463  -2.135 -1.5292 -0.8697  0.0339
   66MOL0     H 8888   2.940  -0.488  -1.885  0.0579 -1.6656  3.6321
   66MOL0     H 8889   2.844  -0.565  -2.012  0.6702 -3.8592 -2.2350
   66MOL0     H 8890   3.772   0.048  -1.516 -0.7432 -0.1942 -1.5333
   66MOL0     H 8891   3.810   0.163  -1.307 -0.5242 -2.8346  0.6654
   66MOL0     H 8892   3.610   0.622  -0.983  0.4801 -1.9157 -3.2785
   66MOL0     H 8893   3.681   0.650  -0.743 -1.2190 -1.0215  0.7292
   66MOL0     H 8894   3.476   1.750   0.415  0.5074 -2.3570  0.5007
   66MOL0     H 8895   3.411   1.985   0.505  4.6404  2.3885  0.0979
   66MOL0     H 8896   3.191   2.080   0.982  0.2545 -0.5866  0.7819
   66MOL0     H 8897   3.065   2.245   1.116  0.3780 -1.5563  0.2231
   66MOL0     H 8898   3.112   2.588   1.324  1.1042  0.7933 -2.0358
   66MOL0     H 8899   3.161   2.412   1.321  2.1620  1.2454 -1.4973
   66MOL0     H 8900   2.912   2.357   1.269 -0.9323 -0.8908  0.3007
   66MOL0     H 8901   2.872   2.533   1.270 -0.2588  0.0294  0.8072
   66MOL0     H 8902   2.946   2.530   1.504 -0.7351 -1.2099  1.9873
   66MOL0     H 8903   2.956   2.351   1.495  0.4309  0.0264 -1.0022
   66MOL0     H 8904   2.764   2.449   1.590 -0.8096 -0.0568 -0.1497
   66MOL0     H 8905   2.714   2.500   1.423  0.2641  0.5591  0.1608
   66MOL0     H 8906   2.682   2.054   1.475  4.1801 -0.4535 -3.8824
   66MOL0     H 8907   3.345   2.554   1.036 -0.7758  0.1968  0.4242
   66MOL0     H 8908   3.588   2.351   0.852  1.4031  0.0532  1.1870
   66MOL0     H 8909   3.517   2.505   0.855  1.2550  1.4478  2.2198
   66MOL0     H 8910   3.582   2.445   1.001  0.1270 -1.7657  0.5601
   67MOL0     O 8911   3.003   6.026   4.823 -0.3173  0.3978 -0.3940
   67MOL0     C 8912   2.880   6.035   4.802  0.9981 -0.4900  0.3302
   67MOL0     O 8913   2.793   6.112   4.878  0.7253  0.1393 -0.5602
   67MOL0     C 8914   2.828   6.159   4.997  0.3416 -0.0465 -0.1208
   67MOL0     C 8915   2.951   6.215   5.040  0.0672 -0.9133 -0.8581
   67MOL0     C 8916   2.968   6.240   5.178 -1.0264 -0.2260  0.4401
   67MOL0     C 8917   2.867   6.221   5.266 -0.7041 -0.2624  0.2790
   67MOL0     O 8918   2.887   6.246   5.402  0.3833 -0.0855  0.8128
   67MOL0     C 8919   3.021   6.246   5.451  0.0758 -0.2682  0.2864
   67MOL0     C 8920   3.037   6.224   5.605 -0.2805 -0.0794  0.1997
   67MOL0     C 8921   2.988   6.352   5.679  0.9846 -0.3352 -0.2456
   67MOL0     C 8922   3.015   6.351   5.829 -0.3131  0.5161 -0.0626
   67MOL0     C 8923   2.966   6.482   5.900  0.4183 -0.6626 -1.7315
   67MOL0     C 8924   3.047   6.610   5.874  0.0859  0.3832 -0.3245
   67MOL0     C 8925   3.008   6.709   5.976  0.3486 -0.0999 -0.7847
   67MOL0     C 8926   3.079   6.848   5.936 -0.3600 -0.1609  0.4689
   67MOL0     N 8927   3.036   6.952   6.021  0.0142  0.2717  0.0645
   67MOL0     C 8928   3.079   6.982   6.146  0.2212 -0.0469  0.1054
   67MOL0     C 8929   3.019   7.096   6.179  0.4314 -0.2646  0.6785
   67MOL0     C 8930   3.053   7.174   6.297 -0.6654 -0.0908  0.1487
   67MOL0     C 8931   3.018   7.087   6.417 -0.2123  0.9916  0.7075
   67MOL0     C 8932   3.014   7.163   6.549 -1.0843  0.2588  0.2351
   67MOL0     C 8933   3.141   7.237   6.578 -0.5919  0.1737  0.0184
   67MOL0     O 8934   3.156   7.283   6.718 -0.0662 -0.1788 -0.1453
   67MOL0     C 8935   3.229   7.193   6.801 -0.2503 -0.0230 -0.8431
   67MOL0     C 8936   3.255   7.057   6.765  1.2316 -0.6920  0.0556
   67MOL0     C 8937   3.316   6.967   6.850  0.4626 -0.8858  0.5573
   67MOL0     C 8938   3.376   7.015   6.966 -0.6255  0.0844  0.3102
   67MOL0     C 8939   3.458   6.928   7.053  0.3311  0.3820 -0.3569
   67MOL0     O 8940   3.482   6.976   7.172 -0.0689  0.6162  0.1873
   67MOL0     C 8941   3.576   6.917   7.254  0.4296 -0.2105 -0.7641
   67MOL0     C 8942   3.561   6.781   7.283  0.1434  0.7432 -0.0240
   67MOL0     C 8943   3.638   6.719   7.384 -0.1938 -0.1576 -0.2807
   67MOL0     C 8944   3.742   6.786   7.447 -0.5339  0.2060  0.5781
   67MOL0     O 8945   3.823   6.711   7.524 -0.5147  0.7724 -0.0569
   67MOL0     C 8946   3.962   6.730   7.490 -0.6038 -0.2222 -0.2496
   67MOL0     C 8947   4.021   6.603   7.542  0.0216 -0.1320  0.3736
   67MOL0     C 8948   4.170   6.608   7.542 -0.1445  0.0011  0.2447
   67MOL0     C 8949   4.233   6.484   7.601  0.3761 -0.3539 -0.3839
   67MOL0     C 8950   4.380   6.480   7.634  0.0963  1.5317 -0.4384
   67MOL0     C 8951   4.469   6.526   7.510  0.4087 -0.1045 -0.6687
   67MOL0     C 8952   4.620   6.507   7.525  0.7732  0.7741 -0.2217
   67MOL0     C 8953   4.682   6.590   7.632  0.5605  0.4821 -0.0482
   67MOL0    Cl 8954   4.855   6.558   7.629 -0.4272  0.3833  0.2170
   67MOL0     C 8955   3.761   6.922   7.425 -0.0022 -0.1999  1.0212
   67MOL0     C 8956   3.677   6.986   7.329 -0.4592  0.1292 -0.0622
   67MOL0     O 8957   3.499   6.828   7.002 -0.1714 -0.3399 -0.1426
   67MOL0     C 8958   3.354   7.155   7.002 -1.1831 -0.3264  0.2657
   67MOL0     C 8959   3.281   7.239   6.922  0.7622 -0.6381  0.0516
   67MOL0     N 8960   2.940   7.139   6.074 -0.4610  0.3060  0.0870
   67MOL0     N 8961   2.969   7.059   5.972 -0.1177 -0.5714 -0.8191
   67MOL0     C 8962   2.751   6.179   5.220  0.6855 -0.2033 -0.1793
   67MOL0     C 8963   2.727   6.146   5.089  0.1435  0.7108  1.0123
   67MOL0     C 8964   2.819   5.956   4.698 -0.5705  0.4158  0.5087
   67MOL0     C 8965   2.885   5.962   4.576 -0.3368 -0.6578 -0.6968
   67MOL0     C 8966   2.849   5.886   4.468 -0.0594  0.4386  0.3941
   67MOL0     C 8967   2.729   5.807   4.473  0.3596  0.9276  0.4393
   67MOL0     O 8968   2.685   5.728   4.362 -0.2378 -0.3324  0.4684
   67MOL0     C 8969   2.764   5.722   4.241 -0.9654 -1.0465 -0.0640
   67MOL0     C 8970   2.678   5.660   4.128 -0.5344 -0.0848 -0.6269
   67MOL0     C 8971   2.771   5.662   4.000 -0.3802  0.7376 -0.4353
   67MOL0     C 8972   2.736   5.557   3.898  0.7226  0.1435  0.2968
   67MOL0     C 8973   2.720   5.419   3.949  0.2559 -0.1491  0.7500
   67MOL0     C 8974   2.679   5.314   3.983 -0.1726  0.3640 -0.0484
   67MOL0     C 8975   2.655   5.807   4.595 -0.2062  0.0139  0.3267
   67MOL0     C 8976   2.702   5.880   4.708 -0.7732  0.9645 -0.3931
   67MOL0     C 8977   2.605   5.900   4.823  0.5202  0.1594 -0.4010
   67MOL0     H 8978   3.030   6.226   4.967  1.9225  2.9149  1.3795
   67MOL0     H 8979   3.067   6.281   5.197 -0.1572 -1.0538 -1.9874
   67MOL0     H 8980   3.084   6.173   5.398  0.3819 -1.1357  1.7840
   67MOL0     H 8981   3.061   6.345   5.427  2.1908 -1.0236  0.4621
   67MOL0     H 8982   3.141   6.208   5.633  0.2310  1.7740 -0.5219
   67MOL0     H 8983   2.990   6.131   5.640  2.3030 -0.3254  3.4280
   67MOL0     H 8984   2.880   6.348   5.663  1.1421  0.6139 -1.7102
   67MOL0     H 8985   3.037   6.431   5.622  1.2264 -2.4451 -3.1713
   67MOL0     H 8986   2.970   6.261   5.872  4.0790 -1.8623  0.1389
   67MOL0     H 8987   3.117   6.328   5.860 -1.5363 -2.3737  2.3641
   67MOL0     H 8988   2.862   6.500   5.871 -0.8475 -2.2407  1.4593
   67MOL0     H 8989   2.963   6.475   6.009 -0.5023  1.0156 -1.6109
   67MOL0     H 8990   3.151   6.577   5.880  0.0617 -0.0192 -1.6583
   67MOL0     H 8991   3.027   6.641   5.771 -3.1421 -3.3243 -1.0651
   67MOL0     H 8992   3.031   6.672   6.076 -2.3393 -0.9850 -0.4259
   67MOL0     H 8993   2.901   6.732   5.980  0.5058  0.4519  1.3586
   67MOL0     H 8994   3.186   6.825   5.932 -0.1017  1.0137  0.4122
   67MOL0     H 8995   3.072   6.871   5.830  1.0204 -0.4214  0.2928
   67MOL0     H 8996   3.157   6.932   6.202  0.8874  0.2051 -0.5860
   67MOL0     H 8997   3.159   7.197   6.288 -0.7697  0.6166  0.5948
   67MOL0     H 8998   2.999   7.269   6.293 -0.7892 -0.1999 -1.3090
   67MOL0     H 8999   2.921   7.043   6.392  0.8306  0.5261 -3.1801
   67MOL0     H 9000   3.089   7.005   6.425  0.3484  1.2791 -0.9334
   67MOL0     H 9001   2.995   7.090   6.628  0.0591 -0.0706  0.2294
   67MOL0     H 9002   2.933   7.235   6.536  0.6880  2.3350  0.1757
   67MOL0     H 9003   3.146   7.325   6.514  1.3715  0.7125  0.8314
   67MOL0     H 9004   3.214   7.164   6.542 -0.0030 -1.5652  4.1754
   67MOL0     H 9005   3.198   7.020   6.680  1.0104 -1.7951  0.6684
   67MOL0     H 9006   3.311   6.866   6.809 -0.3861  0.8244 -4.1854
   67MOL0     H 9007   3.493   6.719   7.226  2.5033 -2.0568 -0.0250
   67MOL0     H 9008   3.620   6.612   7.390 -0.3313 -0.2579 -2.0510
   67MOL0     H 9009   3.975   6.731   7.382  1.3416  1.1190 -0.0447
   67MOL0     H 9010   4.007   6.821   7.532 -0.7491 -0.5823  0.7182
   67MOL0     H 9011   3.984   6.564   7.638 -3.4176 -0.4452 -0.9298
   67MOL0     H 9012   3.981   6.519   7.484 -0.8022 -0.2964  1.1533
   67MOL0     H 9013   4.218   6.625   7.446  3.4268 -1.7730  1.5552
   67MOL0     H 9014   4.200   6.681   7.618 -2.9618 -0.7771  2.2643
   67MOL0     H 9015   4.218   6.405   7.526 -1.6992  0.1769 -0.5855
   67MOL0     H 9016   4.187   6.464   7.698  2.5462  1.1939  1.0631
   67MOL0     H 9017   4.399   6.380   7.674  1.5599  1.9179 -0.0958
   67MOL0     H 9018   4.399   6.540   7.724 -3.4312  2.3910 -0.1309
   67MOL0     H 9019   4.435   6.466   7.425  1.0398  1.0172 -1.7481
   67MOL0     H 9020   4.456   6.633   7.491 -0.0343 -0.1329 -0.5419
   67MOL0     H 9021   4.672   6.513   7.429 -2.5237 -1.3958 -2.3727
   67MOL0     H 9022   4.630   6.401   7.550 -0.9559  1.5273  4.7052
   67MOL0     H 9023   4.670   6.696   7.612 -0.0582  0.6024  0.8865
   67MOL0     H 9024   4.641   6.563   7.730  0.2821  1.3882  0.0879
   67MOL0     H 9025   3.841   6.974   7.477  2.7424  0.4521 -3.3707
   67MOL0     H 9026   3.673   7.093   7.310 -2.2348  0.2571  0.8453
   67MOL0     H 9027   3.399   7.201   7.090 -1.2955  2.2678 -0.9326
   67MOL0     H 9028   3.270   7.344   6.947  1.4187 -0.4978 -0.2090
   67MOL0     H 9029   2.681   6.165   5.302  1.8970  1.0435  1.1382
   67MOL0     H 9030   2.636   6.098   5.056  0.2641  0.8040  0.5394
   67MOL0     H 9031   2.977   6.018   4.562 -0.5959 -0.3376 -1.1344
   67MOL0     H 9032   2.916   5.888   4.382  0.1193  0.0211  0.5238
   67MOL0     H 9033   2.852   5.660   4.263  2.1529  1.6236 -3.6232
   67MOL0     H 9034   2.808   5.810   4.193  2.6301 -3.9238 -2.6522
   67MOL0     H 9035   2.584   5.711   4.109 -0.1337  1.0782  0.3636
   67MOL0     H 9036   2.658   5.556   4.157 -1.0804  0.2687  0.2966
   67MOL0     H 9037   2.872   5.643   4.039 -0.3405 -1.8580 -1.6155
   67MOL0     H 9038   2.758   5.756   3.947 -2.6825  0.4227 -0.5365
   67MOL0     H 9039   2.646   5.579   3.839  0.3770 -2.7395 -0.4080
   67MOL0     H 9040   2.807   5.558   3.815 -2.6081  1.4726 -2.8318
   67MOL0     H 9041   2.648   5.214   4.006  2.1719 -0.3296  0.4512
   67MOL0     H 9042   2.560   5.755   4.598  0.4696 -1.4044 -1.1780
   67MOL0     H 9043   2.653   5.868   4.916  0.1272 -2.0795 -0.8950
   67MOL0     H 9044   2.574   6.004   4.826 -1.5707 -0.4220 -0.1983
   67MOL0     H 9045   2.510   5.848   4.809 -0.9817  2.9545 -1.2136
   68MOL0     O 9046   5.420   6.697  10.328  0.2526 -0.1647 -0.0647
   68MOL0     C 9047   5.415   6.762  10.230  1.1291  0.2693  0.3887
   68MOL0     O 9048   5.501   6.750  10.122  0.7084  0.6185 -0.2859
   68MOL0     C 9049   5.599   6.651  10.112  0.5120 -0.5137  0.1048
   68MOL0     C 9050   5.675   6.608  10.222  0.1710 -0.2000 -0.4964
   68MOL0     C 9051   5.776   6.507  10.216 -0.8319  1.2734 -0.8802
   68MOL0     C 9052   5.791   6.452  10.090 -0.3293  0.4211 -1.0669
   68MOL0     O 9053   5.881   6.343  10.098 -0.3150  0.3200  0.5554
   68MOL0     C 9054   5.946   6.299   9.978 -0.0822 -0.2402 -0.0635
   68MOL0     C 9055   6.046   6.185  10.004  0.7263 -0.1349  0.1920
   68MOL0     C 9056   5.975   6.062  10.062 -0.5018  0.5196  0.0346
   68MOL0     C 9057   5.845   6.015   9.986 -0.2407  0.2029 -0.2817
   68MOL0     C 9058   5.789   5.875  10.022  0.1634 -0.1319 -0.2113
   68MOL0     C 9059   5.882   5.754   9.991  0.6599 -0.5557 -0.1556
   68MOL0     C 9060   5.892   5.727   9.830 -0.0023 -0.5638  0.5578
   68MOL0     C 9061   5.958   5.599   9.777 -1.1456  0.3303  0.0539
   68MOL0     N 9062   5.885   5.479   9.811  0.1175  0.5653 -0.0481
   68MOL0     C 9063   5.905   5.357   9.752 -0.0415 -1.0269 -0.6426
   68MOL0     C 9064   5.807   5.280   9.799 -0.5172 -0.6218  0.8940
   68MOL0     C 9065   5.791   5.145   9.745 -0.1533  0.0366  0.1806
   68MOL0     C 9066   5.912   5.061   9.719 -0.4498 -0.3366 -0.3536
   68MOL0     C 9067   5.874   4.916   9.703  0.4389  0.0882 -0.3272
   68MOL0     C 9068   5.990   4.824   9.739 -0.2819 -0.7081 -0.5402
   68MOL0     O 9069   6.080   4.831   9.631  0.2906 -0.2117 -0.1485
   68MOL0     C 9070   6.212   4.793   9.656  0.0719  0.4298 -0.1226
   68MOL0     C 9071   6.309   4.795   9.552  1.4001  0.8094 -0.7180
   68MOL0     C 9072   6.444   4.766   9.572  0.2749 -0.2207 -0.4494
   68MOL0     C 9073   6.482   4.727   9.698 -0.2731  0.4464 -0.6156
   68MOL0     C 9074   6.628   4.693   9.719  0.4889  0.2617  0.9434
   68MOL0     O 9075   6.712   4.690   9.607  0.8268  0.2277  0.5799
   68MOL0     C 9076   6.846   4.693   9.610 -0.4451 -0.6682  0.3746
   68MOL0     C 9077   6.922   4.729   9.727  0.2620 -0.4766  0.2917
   68MOL0     C 9078   7.058   4.726   9.733 -0.3409 -0.3318  0.0480
   68MOL0     C 9079   7.132   4.691   9.620  0.6627 -0.0076 -1.1044
   68MOL0     O 9080   7.267   4.686   9.609 -1.0215  0.3089 -0.2293
   68MOL0     C 9081   7.332   4.663   9.731 -0.0285  0.0643 -0.6065
   68MOL0     C 9082   7.481   4.667   9.718  0.1648  0.7138 -0.2001
   68MOL0     C 9083   7.534   4.812   9.688  0.6843  0.0602 -0.2755
   68MOL0     C 9084   7.691   4.809   9.701 -0.9947 -0.1929  0.1701
   68MOL0     C 9085   7.747   4.723   9.594  0.1564 -1.0310  1.0624
   68MOL0     C 9086   7.899   4.733   9.581 -0.9765  0.6066 -0.8820
   68MOL0     C 9087   7.938   4.641   9.466 -0.5844 -0.0757 -0.1022
   68MOL0     C 9088   8.066   4.681   9.388  0.4387 -0.2087  0.4532
   68MOL0    Cl 9089   8.214   4.641   9.478  0.0981 -0.3087  0.1448
   68MOL0     C 9090   7.062   4.660   9.505 -0.1149  0.3542 -0.3237
   68MOL0     C 9091   6.922   4.652   9.497  0.6526 -0.8140  0.0780
   68MOL0     O 9092   6.664   4.670   9.832  1.3466 -0.3801 -0.3066
   68MOL0     C 9093   6.395   4.731   9.802  0.3986  0.7182  0.3463
   68MOL0     C 9094   6.260   4.764   9.788 -0.0783 -0.0077 -0.5303
   68MOL0     N 9095   5.737   5.337   9.901  0.0058 -0.5284 -0.3056
   68MOL0     N 9096   5.785   5.463   9.905  0.1236 -0.1313  0.3618
   68MOL0     C 9097   5.738   6.512   9.978 -0.2196  0.8964 -0.0905
   68MOL0     C 9098   5.643   6.615   9.991 -0.4143  0.3094  0.4252
   68MOL0     C 9099   5.308   6.865  10.222 -0.2997  0.3963 -0.3303
   68MOL0     C 9100   5.351   6.999  10.204  0.3653 -0.1329  2.1284
   68MOL0     C 9101   5.251   7.097  10.167 -1.1813 -0.0064 -0.2784
   68MOL0     C 9102   5.108   7.061  10.175 -0.0733 -0.0437  0.6418
   68MOL0     O 9103   5.000   7.147  10.135 -0.0670  0.0977 -0.1422
   68MOL0     C 9104   5.039   7.271  10.086 -0.2590 -0.6215 -0.6599
   68MOL0     C 9105   4.919   7.353  10.045 -0.8428  0.5983  0.6536
   68MOL0     C 9106   4.968   7.487   9.993  0.3059 -0.0540  0.1494
   68MOL0     C 9107   5.054   7.586  10.078 -0.0529 -0.4090 -0.0130
   68MOL0     C 9108   4.983   7.634  10.195 -0.1417 -0.3027  0.4747
   68MOL0     C 9109   4.925   7.667  10.298  0.5535 -0.2783  1.2809
   68MOL0     C 9110   5.073   6.935  10.205  0.9169  0.5894  0.0472
   68MOL0     C 9111   5.162   6.834  10.217 -0.1591  0.0766  0.4445
   68MOL0     C 9112   5.102   6.706  10.242  0.2899  0.2967  0.4089
   68MOL0     H 9113   5.649   6.641  10.322  1.5220 -1.3690  0.2826
   68MOL0     H 9114   5.822   6.459  10.301 -3.1790 -1.6708 -1.1238
   68MOL0     H 9115   5.864   6.262   9.915 -1.0710  0.1610  0.9583
   68MOL0     H 9116   5.986   6.383   9.920  2.1667  0.2478  2.0543
   68MOL0     H 9117   6.124   6.212  10.076  2.5346 -0.1164 -1.6938
   68MOL0     H 9118   6.093   6.170   9.907 -0.1248  1.5177 -0.5323
   68MOL0     H 9119   5.944   6.076  10.165 -0.4624  1.5459 -0.0893
   68MOL0     H 9120   6.056   5.989  10.059 -0.1837  0.8510  0.4986
   68MOL0     H 9121   5.764   6.078  10.024 -1.9711 -2.6737  1.1531
   68MOL0     H 9122   5.861   6.018   9.878  2.2735  0.6436  0.0527
   68MOL0     H 9123   5.762   5.887  10.127 -4.3419  2.0616 -1.3473
   68MOL0     H 9124   5.690   5.864   9.976 -0.2892  0.0643  0.6875
   68MOL0     H 9125   5.978   5.777  10.037  1.1221 -1.5958 -0.5858
   68MOL0     H 9126   5.841   5.667  10.043  0.8485 -0.7569 -0.3459
   68MOL0     H 9127   5.959   5.803   9.790  2.4366 -3.9251 -2.3948
   68MOL0     H 9128   5.788   5.737   9.799 -0.6683 -2.0246  2.1465
   68MOL0     H 9129   5.962   5.598   9.667  0.2490 -0.4173  0.0855
   68MOL0     H 9130   6.063   5.596   9.806 -1.6349 -0.2410  1.9028
   68MOL0     H 9131   5.983   5.333   9.681  1.6442  1.7795  0.0778
   68MOL0     H 9132   5.717   5.090   9.805 -2.6188  0.3310 -2.3705
   68MOL0     H 9133   5.736   5.153   9.651 -3.8449  0.3405  2.1658
   68MOL0     H 9134   5.970   5.089   9.630 -1.5793 -0.5068 -1.1590
   68MOL0     H 9135   5.973   5.066   9.810  0.8074  0.5126 -1.2075
   68MOL0     H 9136   5.827   4.885   9.609  2.1303  0.0105 -1.1785
   68MOL0     H 9137   5.802   4.899   9.784  1.4004  0.0062  0.5328
   68MOL0     H 9138   5.962   4.718   9.744  1.0969 -1.0192  2.6436
   68MOL0     H 9139   6.028   4.862   9.834 -0.1880  1.4268 -1.3829
   68MOL0     H 9140   6.271   4.814   9.452 -1.3072 -1.3019 -0.2184
   68MOL0     H 9141   6.496   4.773   9.477 -0.5338  1.5538 -0.8015
   68MOL0     H 9142   6.877   4.773   9.815 -1.8813  1.3187 -1.5834
   68MOL0     H 9143   7.102   4.749   9.829 -1.2985  2.5243 -0.0901
   68MOL0     H 9144   7.311   4.737   9.809 -0.8601  0.8661 -1.5490
   68MOL0     H 9145   7.299   4.563   9.762 -0.9412  0.4563 -0.2769
   68MOL0     H 9146   7.528   4.619   9.804 -0.2726  3.1981  1.5189
   68MOL0     H 9147   7.517   4.594   9.644  0.1182  0.3149  0.1672
   68MOL0     H 9148   7.497   4.817   9.585  2.3472  0.1607 -0.9010
   68MOL0     H 9149   7.482   4.890   9.744  0.9779 -0.7759  1.2118
   68MOL0     H 9150   7.729   4.761   9.791 -0.9196 -1.5390 -0.5491
   68MOL0     H 9151   7.736   4.908   9.696 -2.0337  0.3723 -5.7725
   68MOL0     H 9152   7.699   4.769   9.507 -3.0495 -3.3384  1.4455
   68MOL0     H 9153   7.716   4.618   9.602 -1.0830 -0.7121  0.6455
   68MOL0     H 9154   7.933   4.836   9.569 -0.2950  0.5099  0.0913
   68MOL0     H 9155   7.938   4.686   9.672 -2.6134 -0.2493 -0.5840
   68MOL0     H 9156   7.855   4.639   9.395 -3.3501  0.7425  2.8547
   68MOL0     H 9157   7.944   4.538   9.504  2.4304  0.5287  1.4109
   68MOL0     H 9158   8.060   4.627   9.293 -0.5762  1.5214 -0.5122
   68MOL0     H 9159   8.065   4.783   9.348  2.7947 -0.7807 -1.2625
   68MOL0     H 9160   7.118   4.643   9.414 -1.4111 -0.7299 -0.9551
   68MOL0     H 9161   6.883   4.632   9.398  2.6467 -2.0375 -0.5318
   68MOL0     H 9162   6.429   4.702   9.901  3.8161  3.6473  0.2437
   68MOL0     H 9163   6.198   4.733   9.871  0.7237  0.0613  0.1153
   68MOL0     H 9164   5.764   6.482   9.877  0.3471  0.9753  0.0286
   68MOL0     H 9165   5.599   6.651   9.898  1.7021 -0.1453 -0.8438
   68MOL0     H 9166   5.454   7.031  10.204  0.2975  0.1652  0.4669
   68MOL0     H 9167   5.282   7.200  10.149 -1.7125  0.1641 -0.2096
   68MOL0     H 9168   5.110   7.257  10.005  1.0378 -0.9251  0.4918
   68MOL0     H 9169   5.085   7.340  10.158  0.7597 -0.6063 -1.3027
   68MOL0     H 9170   4.836   7.358  10.115 -1.7449 -0.4017 -0.3062
   68MOL0     H 9171   4.877   7.295   9.962  1.3287 -2.7539  1.6843
   68MOL0     H 9172   4.876   7.542   9.968  1.5715  1.0817 -2.3474
   68MOL0     H 9173   5.026   7.466   9.903 -1.0653 -0.7656 -0.5971
   68MOL0     H 9174   5.143   7.530  10.109 -0.9675 -0.9917  1.6602
   68MOL0     H 9175   5.083   7.681  10.033 -1.9877  1.5672  2.6059
   68MOL0     H 9176   4.877   7.688  10.391  0.7415  4.6535  0.5100
   68MOL0     H 9177   4.968   6.910  10.196  1.2141 -1.5334  1.6900
   68MOL0     H 9178   4.993   6.699  10.243  0.0554  2.7592 -0.2126
   68MOL0     H 9179   5.136   6.622  10.181  0.1721 -0.0539  0.8171
   68MOL0     H 9180   5.127   6.677  10.345 -4.9602  1.1115  2.2406
   69MOL0     O 9181   4.695   5.379   6.723 -0.0211  0.4230  0.0847
   69MOL0     C 9182   4.582   5.361   6.690 -0.1798  0.1849 -0.0726
   69MOL0     O 9183   4.478   5.435   6.732  0.1361  0.5418  0.2215
   69MOL0     C 9184   4.505   5.571   6.743  1.3100 -0.0577  0.0329
   69MOL0     C 9185   4.510   5.617   6.871 -0.7881  0.4235 -0.5898
   69MOL0     C 9186   4.557   5.736   6.912  0.0388 -0.7877  0.3328
   69MOL0     C 9187   4.599   5.824   6.802  0.8384 -0.1433 -0.4776
   69MOL0     O 9188   4.626   5.953   6.830 -0.7257 -1.2245  0.1509
   69MOL0     C 9189   4.761   5.967   6.879 -0.2850 -0.0231  0.4376
   69MOL0     C 9190   4.746   6.076   6.991  0.1609  0.3591  1.1257
   69MOL0     C 9191   4.874   6.071   7.080 -1.5866  0.3802  0.2616
   69MOL0     C 9192   5.009   6.115   7.009  0.0500  0.4263  0.6037
   69MOL0     C 9193   5.127   6.144   7.113 -0.3144 -0.0412  0.3068
   69MOL0     C 9194   5.265   6.159   7.049  0.1799  0.6734  0.2218
   69MOL0     C 9195   5.342   6.024   7.053  0.0637  0.7755  0.3362
   69MOL0     C 9196   5.404   6.007   7.189  0.4156  0.3580 -0.4793
   69MOL0     N 9197   5.470   5.877   7.189 -0.1058  0.2685  0.1839
   69MOL0     C 9198   5.422   5.748   7.205 -0.1483  0.0445 -0.2326
   69MOL0     C 9199   5.524   5.664   7.213 -0.6117 -0.1126  0.0554
   69MOL0     C 9200   5.529   5.510   7.234 -0.1258 -0.5466 -0.3830
   69MOL0     C 9201   5.485   5.436   7.106 -0.0683 -0.2964  0.4170
   69MOL0     C 9202   5.499   5.293   7.122 -0.5215 -0.4344  0.2508
   69MOL0     C 9203   5.438   5.221   6.998  0.3628 -0.7978 -1.0173
   69MOL0     O 9204   5.299   5.216   7.018  0.0884 -0.2489  0.5077
   69MOL0     C 9205   5.225   5.120   6.955 -0.4325 -0.6702 -0.7251
   69MOL0     C 9206   5.094   5.118   7.001 -0.0182  0.0354 -1.4018
   69MOL0     C 9207   4.996   5.033   6.961 -0.8808  1.2401 -0.3687
   69MOL0     C 9208   5.036   4.943   6.863 -0.3985 -0.1694 -0.2509
   69MOL0     C 9209   4.934   4.857   6.802  0.3860  0.4422 -0.1752
   69MOL0     O 9210   4.822   4.804   6.868  0.4424  0.8816  0.5016
   69MOL0     C 9211   4.736   4.725   6.799  0.3973  1.1961 -0.0438
   69MOL0     C 9212   4.666   4.617   6.854 -0.0491  0.3150  0.6072
   69MOL0     C 9213   4.564   4.547   6.791  0.9453  0.5786 -0.5997
   69MOL0     C 9214   4.518   4.582   6.666 -0.6032 -0.6162  0.0005
   69MOL0     O 9215   4.417   4.537   6.582 -0.2296  0.3058  0.4801
   69MOL0     C 9216   4.321   4.447   6.650  0.0036  0.1438  1.0636
   69MOL0     C 9217   4.212   4.508   6.735 -0.9200  0.1346 -0.3428
   69MOL0     C 9218   4.125   4.612   6.668 -0.2894  0.1274  0.5029
   69MOL0     C 9219   4.007   4.546   6.574  0.0809 -0.5576 -0.5919
   69MOL0     C 9220   3.958   4.661   6.491 -0.6339  0.5172  0.2362
   69MOL0     C 9221   3.886   4.615   6.372  0.3401  0.7651  0.2571
   69MOL0     C 9222   3.842   4.738   6.288  0.9091 -0.8075  0.3670
   69MOL0     C 9223   3.734   4.709   6.175  0.3434 -0.4953  0.0682
   69MOL0    Cl 9224   3.588   4.644   6.260  0.7277 -0.1608  0.0114
   69MOL0     C 9225   4.584   4.691   6.604  0.4405  0.6864  0.5417
   69MOL0     C 9226   4.687   4.757   6.668  0.1672 -0.2217 -0.0651
   69MOL0     O 9227   4.971   4.834   6.683  0.1405 -0.4985 -1.2892
   69MOL0     C 9228   5.176   4.925   6.824  0.4640 -0.2109 -0.2924
   69MOL0     C 9229   5.269   5.013   6.871  0.6226  1.0218 -0.1992
   69MOL0     N 9230   5.634   5.743   7.225  0.6597  0.0194  0.3176
   69MOL0     N 9231   5.605   5.870   7.204  0.9887 -0.5136 -0.3635
   69MOL0     C 9232   4.573   5.784   6.670 -0.0946 -0.3246  0.0045
   69MOL0     C 9233   4.530   5.660   6.638 -0.2679  0.1984 -0.2099
   69MOL0     C 9234   4.550   5.249   6.596  0.0276  0.0339  0.3860
   69MOL0     C 9235   4.426   5.256   6.523 -0.6862  0.2735 -1.1444
   69MOL0     C 9236   4.396   5.155   6.433  0.6657  0.4343  0.9201
   69MOL0     C 9237   4.488   5.055   6.396 -0.0009  0.5100 -0.1461
   69MOL0     O 9238   4.457   4.951   6.304  0.0544 -0.1885 -0.1566
   69MOL0     C 9239   4.326   4.894   6.309  0.3724  0.4676 -0.0371
   69MOL0     C 9240   4.307   4.796   6.194  0.3242 -0.2436  0.2034
   69MOL0     C 9241   4.414   4.687   6.187  0.2223 -0.1999 -0.6593
   69MOL0     C 9242   4.362   4.549   6.190  0.7221 -0.3530  0.5160
   69MOL0     C 9243   4.273   4.520   6.078  0.5897  0.8320  0.2731
   69MOL0     C 9244   4.198   4.501   5.985  0.1810 -0.8880 -0.0541
   69MOL0     C 9245   4.606   5.045   6.455  0.0357 -0.7490 -0.3765
   69MOL0     C 9246   4.642   5.147   6.551 -0.4124 -0.2590  0.7664
   69MOL0     C 9247   4.780   5.138   6.600  0.5442 -0.6935  0.7345
   69MOL0     H 9248   4.480   5.551   6.952  0.1837  3.5015  2.5263
   69MOL0     H 9249   4.539   5.786   7.007 -1.6040 -0.7178  0.0273
   69MOL0     H 9250   4.808   5.875   6.913 -1.5361 -0.0184  2.3077
   69MOL0     H 9251   4.828   6.001   6.799 -0.1565  1.0404  0.9848
   69MOL0     H 9252   4.653   6.058   7.046 -1.4205 -2.4872 -2.0577
   69MOL0     H 9253   4.744   6.177   6.949 -2.2234  1.7896  4.3510
   69MOL0     H 9254   4.879   5.977   7.136  2.4961  0.3389  0.1247
   69MOL0     H 9255   4.850   6.144   7.158  0.2843  1.0240  0.2841
   69MOL0     H 9256   5.043   6.023   6.961  2.9900  0.5271  2.3071
   69MOL0     H 9257   5.002   6.191   6.930  2.7644 -0.6784 -0.8345
   69MOL0     H 9258   5.118   6.244   7.157 -0.0500 -0.4081  1.2247
   69MOL0     H 9259   5.123   6.068   7.191 -5.1241 -2.1976 -1.6691
   69MOL0     H 9260   5.241   6.173   6.943 -1.4344  1.9599  0.7062
   69MOL0     H 9261   5.312   6.244   7.098  0.2977  0.2375  0.8800
   69MOL0     H 9262   5.421   6.022   6.977 -0.5947 -0.5295 -0.3304
   69MOL0     H 9263   5.268   5.948   7.026 -1.6204  2.6504 -0.6543
   69MOL0     H 9264   5.485   6.079   7.202 -0.0934  0.9389 -0.4600
   69MOL0     H 9265   5.336   6.017   7.274  0.8414  1.5217 -0.2619
   69MOL0     H 9266   5.318   5.719   7.198 -0.4423  1.2851 -1.5248
   69MOL0     H 9267   5.636   5.494   7.247  0.7724  2.4756 -2.8818
   69MOL0     H 9268   5.472   5.473   7.319 -2.4650  1.6029 -0.8837
   69MOL0     H 9269   5.381   5.462   7.085 -0.1720 -1.5707 -0.7628
   69MOL0     H 9270   5.547   5.471   7.023 -0.2128  1.1269  0.8793
   69MOL0     H 9271   5.452   5.263   7.216  3.8949 -1.9573  2.2693
   69MOL0     H 9272   5.606   5.274   7.134 -0.2511  1.6337  1.4916
   69MOL0     H 9273   5.486   5.123   7.001  1.7996 -0.1803 -2.3284
   69MOL0     H 9274   5.457   5.275   6.904  0.6230  1.3496  0.2167
   69MOL0     H 9275   5.068   5.191   7.076  2.1223  2.5686 -2.9318
   69MOL0     H 9276   4.895   5.036   7.001 -0.8116  3.1082 -0.2451
   69MOL0     H 9277   4.692   4.596   6.957  0.1200  1.0170  0.7119
   69MOL0     H 9278   4.518   4.467   6.848  2.2899  0.0321 -0.2382
   69MOL0     H 9279   4.264   4.397   6.572 -0.0262  2.3745 -0.4568
   69MOL0     H 9280   4.377   4.372   6.705 -0.6559 -1.3304 -0.2146
   69MOL0     H 9281   4.153   4.427   6.778  1.0622 -0.5978  1.1624
   69MOL0     H 9282   4.261   4.550   6.824 -1.8913 -1.7248  1.1149
   69MOL0     H 9283   4.083   4.682   6.740  1.6650  4.4784 -2.2118
   69MOL0     H 9284   4.203   4.661   6.609 -1.6893  1.1653 -0.5472
   69MOL0     H 9285   3.929   4.518   6.646 -0.1699 -1.1719 -1.1001
   69MOL0     H 9286   4.042   4.454   6.527  3.3299  0.0657  0.3267
   69MOL0     H 9287   4.047   4.712   6.454 -0.2411  1.2366  2.0479
   69MOL0     H 9288   3.895   4.726   6.552 -0.1942  0.8648  0.3300
   69MOL0     H 9289   3.940   4.546   6.306 -0.9953  0.4918 -0.5990
   69MOL0     H 9290   3.794   4.567   6.405 -0.2419  0.7305 -1.3120
   69MOL0     H 9291   3.927   4.782   6.235  1.5907 -0.8687  1.3885
   69MOL0     H 9292   3.798   4.808   6.358  0.2813 -3.0655  2.3608
   69MOL0     H 9293   3.706   4.802   6.123  0.4158  2.4998  4.7359
   69MOL0     H 9294   3.761   4.627   6.108 -2.7693  0.5102 -2.6648
   69MOL0     H 9295   4.560   4.726   6.504  0.7332  1.1841  0.6444
   69MOL0     H 9296   4.718   4.846   6.613  0.9621 -0.8122 -0.6013
   69MOL0     H 9297   5.194   4.862   6.737 -0.6881  2.9998 -3.0915
   69MOL0     H 9298   5.367   4.988   6.830 -1.4211 -2.6304 -3.6530
   69MOL0     H 9299   4.572   5.859   6.592 -0.1575 -0.5778 -0.2361
   69MOL0     H 9300   4.512   5.623   6.538 -0.7536  1.3680 -0.5746
   69MOL0     H 9301   4.359   5.338   6.546 -0.7872 -0.4207  1.4198
   69MOL0     H 9302   4.298   5.158   6.386 -0.5129  2.7664  3.2901
   69MOL0     H 9303   4.244   4.966   6.299 -0.4217 -0.3278  0.4612
   69MOL0     H 9304   4.321   4.845   6.407  4.3302 -0.1290  0.0171
   69MOL0     H 9305   4.311   4.851   6.100  1.2749 -2.5290 -1.1631
   69MOL0     H 9306   4.206   4.754   6.191 -0.1774  0.9535 -0.3091
   69MOL0     H 9307   4.481   4.691   6.273 -0.4035 -0.3547 -0.1550
   69MOL0     H 9308   4.472   4.707   6.096 -1.5514  2.5727 -1.2975
   69MOL0     H 9309   4.445   4.479   6.186  1.1145  0.1107  0.4256
   69MOL0     H 9310   4.308   4.536   6.285  2.4473  1.4392  1.8259
   69MOL0     H 9311   4.133   4.473   5.905 -2.5210  1.3246  1.2066
   69MOL0     H 9312   4.665   4.961   6.419 -3.0784 -3.3778  0.1390
   69MOL0     H 9313   4.762   5.118   6.706 -1.3873  1.6875  0.9333
   69MOL0     H 9314   4.831   5.055   6.550 -2.1993 -1.2567 -1.4283
   69MOL0     H 9315   4.846   5.224   6.590 -0.1620  0.2365  3.4327
   70MOL0     O 9316   9.111   1.755   2.553 -0.0243  0.2960  0.4724
   70MOL0     C 9317   9.018   1.771   2.634 -0.1522  0.3790 -0.1440
   70MOL0     O 9318   9.019   1.710   2.751  0.1472 -0.2910 -0.4538
   70MOL0     C 9319   9.126   1.638   2.797  0.4079 -0.3350  0.4520
   70MOL0     C 9320   9.191   1.540   2.728  0.4616 -0.4950 -0.1765
   70MOL0     C 9321   9.295   1.467   2.780  0.2544  0.5962 -0.2736
   70MOL0     C 9322   9.340   1.487   2.916 -0.3040 -0.2299  0.3806
   70MOL0     O 9323   9.450   1.431   2.971 -0.2552  0.0593  0.1341
   70MOL0     C 9324   9.557   1.385   2.882 -0.5578  0.0574  0.3626
   70MOL0     C 9325   9.671   1.341   2.978  0.3382  0.2317  0.2092
   70MOL0     C 9326   9.792   1.277   2.907  0.5279 -0.1918 -0.2032
   70MOL0     C 9327   9.883   1.190   3.000 -0.4099  0.6703  0.1255
   70MOL0     C 9328  10.006   1.128   2.939  0.0129  0.0346  0.3313
   70MOL0     C 9329   9.984   1.056   2.812  0.6045  0.0549 -0.2495
   70MOL0     C 9330  10.122   1.005   2.768  0.9061  0.2198  0.7461
   70MOL0     C 9331  10.112   0.958   2.628 -0.8045 -0.6752  0.1761
   70MOL0     N 9332  10.245   0.948   2.567 -0.7918  0.2833 -0.2386
   70MOL0     C 9333  10.364   0.897   2.621  0.2814 -0.1925 -0.5531
   70MOL0     C 9334  10.464   0.951   2.545 -0.5722  0.1151 -0.4245
   70MOL0     C 9335  10.608   0.901   2.567  0.5123 -0.7302 -0.9034
   70MOL0     C 9336  10.666   0.982   2.682 -0.2214  0.0366 -0.4709
   70MOL0     C 9337  10.777   0.911   2.753 -0.5894  0.0876  0.2396
   70MOL0     C 9338  10.833   0.992   2.868  0.5094 -0.7716  0.6720
   70MOL0     O 9339  10.733   1.012   2.969  0.7495 -0.1355 -0.1924
   70MOL0     C 9340  10.675   0.898   3.037 -1.5519 -0.2954 -0.3444
   70MOL0     C 9341  10.752   0.789   3.063  0.1337  0.5196  0.0085
   70MOL0     C 9342  10.695   0.677   3.143 -0.8337  0.5187  0.5917
   70MOL0     C 9343  10.556   0.672   3.178  0.2884  0.3458  0.8006
   70MOL0     C 9344  10.501   0.554   3.251  0.0017 -0.6784 -0.4188
   70MOL0     O 9345  10.370   0.549   3.290  0.1330  0.4301  0.2720
   70MOL0     C 9346  10.315   0.439   3.358 -0.4422 -0.5575 -0.3259
   70MOL0     C 9347  10.366   0.310   3.365 -0.1063 -0.6449  0.1520
   70MOL0     C 9348  10.301   0.206   3.434  0.2873 -0.9015  0.4571
   70MOL0     C 9349  10.187   0.244   3.506 -0.4388  0.3075  0.8391
   70MOL0     O 9350  10.138   0.144   3.581  0.9899 -0.3156 -0.3424
   70MOL0     C 9351  10.013   0.167   3.659  0.8137  0.4111 -0.6734
   70MOL0     C 9352   9.935   0.036   3.700  0.8140  0.4505 -0.1096
   70MOL0     C 9353  10.002  -0.007   3.829  0.4793  0.2337 -0.4559
   70MOL0     C 9354  10.157  -0.014   3.842  0.3506  0.6663  0.0789
   70MOL0     C 9355  10.201  -0.107   3.960 -0.0907 -0.0592  0.5921
   70MOL0     C 9356  10.357  -0.112   3.974  0.1522 -0.2800  0.0588
   70MOL0     C 9357  10.402  -0.175   4.106  0.3545 -0.0060  0.2310
   70MOL0     C 9358  10.389  -0.080   4.226  0.1215 -0.6864  0.6360
   70MOL0    Cl 9359  10.517  -0.122   4.346  0.0622 -0.0848  0.2243
   70MOL0     C 9360  10.137   0.377   3.504  0.1617  1.3633  0.0006
   70MOL0     C 9361  10.198   0.476   3.434  0.6304  0.2169  0.7505
   70MOL0     O 9362  10.592   0.480   3.298  0.2590  0.4447 -0.8646
   70MOL0     C 9363  10.471   0.778   3.132 -0.1163 -0.0450  0.3854
   70MOL0     C 9364  10.532   0.892   3.059  0.2155 -0.5295  0.3225
   70MOL0     N 9365  10.413   1.020   2.440  0.3882 -1.1854 -0.6110
   70MOL0     N 9366  10.284   1.016   2.451 -0.6791  1.1865 -1.2048
   70MOL0     C 9367   9.268   1.581   2.984 -0.2897  1.1018 -0.4883
   70MOL0     C 9368   9.163   1.657   2.933  0.1869 -0.0034 -0.5410
   70MOL0     C 9369   8.896   1.854   2.601 -0.3924  0.0317  0.0577
   70MOL0     C 9370   8.786   1.851   2.694  0.2317 -0.1237 -1.3704
   70MOL0     C 9371   8.674   1.911   2.658 -0.0264  0.3925 -0.1238
   70MOL0     C 9372   8.664   1.994   2.550  1.0920  0.2258 -0.5409
   70MOL0     O 9373   8.553   2.076   2.516 -0.0536 -0.5952 -0.9687
   70MOL0     C 9374   8.490   2.137   2.628  0.5915  0.0787  0.2505
   70MOL0     C 9375   8.358   2.058   2.673 -0.9568  0.6358 -0.0721
   70MOL0     C 9376   8.301   2.100   2.808  0.8778  0.1578  0.1177
   70MOL0     C 9377   8.176   2.020   2.841 -0.7427 -0.0052 -0.7317
   70MOL0     C 9378   8.111   2.078   2.955  0.4205 -0.2072  0.7066
   70MOL0     C 9379   8.034   2.117   3.036 -0.2738  0.6711 -0.8314
   70MOL0     C 9380   8.758   1.986   2.447 -0.0543  0.0512 -0.0523
   70MOL0     C 9381   8.874   1.910   2.477 -0.3220  0.4387 -0.3843
   70MOL0     C 9382   8.983   1.909   2.367  0.1892 -1.1434 -0.0208
   70MOL0     H 9383   9.162   1.508   2.628  1.1201 -4.3044  0.7017
   70MOL0     H 9384   9.336   1.399   2.707  1.1943  0.3802  0.4324
   70MOL0     H 9385   9.525   1.304   2.817  2.8637 -0.3170 -1.1047
   70MOL0     H 9386   9.587   1.470   2.820 -1.0974  1.0378  1.4092
   70MOL0     H 9387   9.634   1.270   3.052  0.2149  1.0743  0.9788
   70MOL0     H 9388   9.708   1.429   3.032 -0.5436  0.8846 -0.2204
   70MOL0     H 9389   9.852   1.361   2.869  2.2086 -0.6030  1.4080
   70MOL0     H 9390   9.761   1.231   2.813  0.3628  4.0232 -2.4634
   70MOL0     H 9391   9.929   1.252   3.077  0.9231 -0.8538  0.6036
   70MOL0     H 9392   9.819   1.111   3.042  0.0375  1.3288  2.1737
   70MOL0     H 9393  10.080   1.208   2.923  1.5726 -1.3966  0.1856
   70MOL0     H 9394  10.041   1.057   3.014 -0.1496 -1.3835 -0.8841
   70MOL0     H 9395   9.910   0.977   2.827 -1.5313  2.1509  0.9649
   70MOL0     H 9396   9.947   1.126   2.736 -0.8257  2.5338  2.5087
   70MOL0     H 9397  10.162   0.929   2.836  2.1121  1.6022  1.6623
   70MOL0     H 9398  10.194   1.088   2.769  1.6043 -0.3561  2.5710
   70MOL0     H 9399  10.059   0.863   2.617 -2.7205  0.4306 -0.4980
   70MOL0     H 9400  10.053   1.031   2.573 -0.1150 -1.1594 -1.2618
   70MOL0     H 9401  10.368   0.821   2.697 -2.5453 -0.1696 -0.2940
   70MOL0     H 9402  10.604   0.795   2.591 -1.5041 -0.4645  0.1619
   70MOL0     H 9403  10.672   0.906   2.479 -0.9881 -0.6257 -2.0262
   70MOL0     H 9404  10.696   1.077   2.636 -1.8992 -0.1582 -2.0736
   70MOL0     H 9405  10.588   1.008   2.754  0.0322 -1.3133  0.3300
   70MOL0     H 9406  10.857   0.893   2.681  1.3062  1.9839  1.7529
   70MOL0     H 9407  10.736   0.817   2.791  1.5002 -1.7689 -1.7977
   70MOL0     H 9408  10.870   1.089   2.832  1.1074 -0.1152  2.9103
   70MOL0     H 9409  10.924   0.948   2.912  1.7992  0.5875 -0.5195
   70MOL0     H 9410  10.853   0.775   3.027  0.3240  1.6542  0.0547
   70MOL0     H 9411  10.769   0.600   3.162  0.1838  1.2506 -0.3210
   70MOL0     H 9412  10.443   0.271   3.300 -3.2456 -1.3498 -3.4634
   70MOL0     H 9413  10.363   0.117   3.430  0.9928 -0.4067  0.1945
   70MOL0     H 9414  10.034   0.227   3.749 -1.6803  1.0911 -0.4528
   70MOL0     H 9415   9.942   0.232   3.607  1.1826  0.7876 -0.7135
   70MOL0     H 9416   9.829   0.049   3.724  0.5691 -1.0090 -0.2818
   70MOL0     H 9417   9.935  -0.044   3.625  1.2322 -0.0839  0.4494
   70MOL0     H 9418   9.964   0.064   3.903  2.0827  1.4805 -0.7717
   70MOL0     H 9419   9.959  -0.104   3.855 -1.1995  1.0083 -0.2569
   70MOL0     H 9420  10.191   0.089   3.852 -1.7794  1.3842  0.3820
   70MOL0     H 9421  10.192  -0.056   3.748 -2.6402  0.6338 -1.1257
   70MOL0     H 9422  10.162  -0.209   3.957  2.4792 -1.1111 -1.7065
   70MOL0     H 9423  10.158  -0.060   4.049 -1.4789  0.2982 -0.2515
   70MOL0     H 9424  10.404  -0.172   3.897  0.8737 -0.4896  0.6520
   70MOL0     H 9425  10.402  -0.012   3.976  1.7542 -0.9663 -0.4238
   70MOL0     H 9426  10.503  -0.215   4.095 -0.6352 -2.0244 -2.7131
   70MOL0     H 9427  10.335  -0.258   4.132  1.2314 -0.5772  0.7235
   70MOL0     H 9428  10.411   0.022   4.196  1.9913 -1.2066  0.1270
   70MOL0     H 9429  10.289  -0.095   4.267  1.0130 -3.3127  2.0964
   70MOL0     H 9430  10.050   0.403   3.563 -0.4790 -2.6502  1.1148
   70MOL0     H 9431  10.159   0.577   3.427  0.7461  0.1582 -1.5759
   70MOL0     H 9432  10.364   0.767   3.149 -0.0559 -1.5170 -0.0283
   70MOL0     H 9433  10.473   0.979   3.033  0.3605 -0.3948  0.4397
   70MOL0     H 9434   9.304   1.600   3.084  0.8515  1.1742 -0.9047
   70MOL0     H 9435   9.116   1.730   2.997  2.3857 -1.2815  2.8506
   70MOL0     H 9436   8.784   1.813   2.796  0.6963  4.3325  0.5497
   70MOL0     H 9437   8.594   1.922   2.731  2.1998 -2.3244  3.0901
   70MOL0     H 9438   8.472   2.239   2.591  2.1177  0.5368  0.6845
   70MOL0     H 9439   8.561   2.146   2.712 -0.4261 -1.9123  1.3999
   70MOL0     H 9440   8.388   1.954   2.684 -2.5755  0.0035 -1.3013
   70MOL0     H 9441   8.275   2.049   2.602 -0.7193 -1.6923 -0.1179
   70MOL0     H 9442   8.278   2.206   2.812 -1.0605 -0.1147 -1.8862
   70MOL0     H 9443   8.377   2.087   2.886  0.3324 -1.2310  0.4670
   70MOL0     H 9444   8.110   2.030   2.755  2.0553  0.4566 -2.9811
   70MOL0     H 9445   8.190   1.912   2.857  2.1547  0.5992  1.9486
   70MOL0     H 9446   7.956   2.155   3.100 -2.1046  0.1727 -2.6723
   70MOL0     H 9447   8.759   2.056   2.364  2.2576 -0.1478 -0.2500
   70MOL0     H 9448   9.075   1.960   2.398 -0.3951 -0.1781  0.1738
   70MOL0     H 9449   9.007   1.807   2.337 -0.4933 -0.6010 -2.7162
   70MOL0     H 9450   8.950   1.956   2.273  0.5936  1.7999  1.1930
   71MOL0     O 9451   1.463   9.075   4.016 -0.7034 -0.2081  0.7187
   71MOL0     C 9452   1.361   9.128   4.041  0.2702 -0.7011  0.0033
   71MOL0     O 9453   1.331   9.250   4.011  0.7933  0.5122 -0.1084
   71MOL0     C 9454   1.413   9.331   3.938 -0.8896  0.6886 -0.2415
   71MOL0     C 9455   1.464   9.450   3.986  0.1071  0.1497  0.2621
   71MOL0     C 9456   1.552   9.525   3.920  0.6927 -0.9039 -0.1632
   71MOL0     C 9457   1.581   9.496   3.785 -0.5429  0.6932 -0.0300
   71MOL0     O 9458   1.661   9.594   3.733 -0.0013 -0.2402 -0.0564
   71MOL0     C 9459   1.773   9.550   3.646  0.0266  0.7228  0.8265
   71MOL0     C 9460   1.747   9.623   3.515 -0.2017 -0.0991  0.4773
   71MOL0     C 9461   1.818   9.556   3.394  0.2734  0.4300  0.6785
   71MOL0     C 9462   1.735   9.564   3.266  0.4665 -0.3782  0.6635
   71MOL0     C 9463   1.794   9.478   3.153 -0.7137  0.1526  1.4214
   71MOL0     C 9464   1.707   9.455   3.026  0.3147  0.2260  0.3205
   71MOL0     C 9465   1.784   9.401   2.914  0.2095  1.3140 -0.6797
   71MOL0     C 9466   1.792   9.243   2.921  0.8202 -0.4561 -0.5950
   71MOL0     N 9467   1.879   9.187   2.821  0.7775 -0.6678 -0.0041
   71MOL0     C 9468   2.010   9.199   2.812 -0.0619 -0.6345  0.1957
   71MOL0     C 9469   2.056   9.129   2.717  0.1082  0.2676  0.2802
   71MOL0     C 9470   2.193   9.071   2.694 -0.2902  0.2368 -0.1133
   71MOL0     C 9471   2.294   9.129   2.806 -0.0219 -0.8060  0.2830
   71MOL0     C 9472   2.431   9.067   2.782 -0.0064  0.4140 -0.3974
   71MOL0     C 9473   2.501   9.118   2.646  0.3037  0.6428  0.1981
   71MOL0     O 9474   2.619   9.044   2.632 -0.3455 -0.2262 -1.3314
   71MOL0     C 9475   2.689   9.043   2.513  0.2011  0.3732  0.3843
   71MOL0     C 9476   2.638   9.086   2.392  0.1287  0.9809 -0.4491
   71MOL0     C 9477   2.717   9.091   2.276  0.9186 -0.4416  0.1638
   71MOL0     C 9478   2.855   9.069   2.279  0.5369  0.3496 -0.5997
   71MOL0     C 9479   2.944   9.078   2.160  0.1691 -1.1221 -0.5679
   71MOL0     O 9480   3.061   9.001   2.167  0.3449 -0.1135 -0.3210
   71MOL0     C 9481   3.150   8.978   2.067 -0.8161 -0.9622  0.7232
   71MOL0     C 9482   3.134   9.004   1.932 -0.1359  0.3734  1.9669
   71MOL0     C 9483   3.236   8.991   1.835  0.2525  0.2245 -0.0173
   71MOL0     C 9484   3.358   8.942   1.882 -0.3487 -0.1259  0.7384
   71MOL0     O 9485   3.454   8.920   1.790  0.1863  0.3221 -0.0840
   71MOL0     C 9486   3.588   8.965   1.813  0.6484  0.1802 -0.1909
   71MOL0     C 9487   3.597   9.090   1.723 -0.2242  0.8984 -0.2538
   71MOL0     C 9488   3.643   9.045   1.589 -0.0407  0.3122  0.1673
   71MOL0     C 9489   3.529   9.003   1.496  0.1955 -0.1517 -0.4725
   71MOL0     C 9490   3.574   8.977   1.354  0.6479  0.4004  0.2915
   71MOL0     C 9491   3.450   8.955   1.260 -0.6040  0.0723 -0.1490
   71MOL0     C 9492   3.363   8.832   1.289  0.6794  1.1122 -0.4253
   71MOL0     C 9493   3.439   8.703   1.276  0.4794 -0.3027 -0.1328
   71MOL0    Cl 9494   3.320   8.569   1.248  0.5220  0.1001  0.1111
   71MOL0     C 9495   3.377   8.903   2.014  0.2794  0.7183 -0.5900
   71MOL0     C 9496   3.273   8.934   2.103 -0.1375 -0.8123 -0.3294
   71MOL0     O 9497   2.900   9.136   2.063 -0.1153 -0.7785 -0.0805
   71MOL0     C 9498   2.904   9.029   2.405  0.1581 -0.7067 -0.6467
   71MOL0     C 9499   2.829   9.011   2.521 -0.4817 -0.1217 -0.0655
   71MOL0     N 9500   1.948   9.070   2.656 -0.5869  0.0283 -0.6230
   71MOL0     N 9501   1.842   9.098   2.720 -0.4250 -0.6684 -0.3102
   71MOL0     C 9502   1.534   9.382   3.726 -1.0916  0.2137  0.1644
   71MOL0     C 9503   1.457   9.298   3.808 -0.1567  0.1257 -0.2750
   71MOL0     C 9504   1.265   9.050   4.101 -0.5276 -1.0956 -0.1129
   71MOL0     C 9505   1.136   9.086   4.105 -0.3775 -0.0210  0.4770
   71MOL0     C 9506   1.029   9.033   4.176 -0.5030  0.5855 -0.8029
   71MOL0     C 9507   1.057   8.929   4.269  0.0921  0.7435 -0.1012
   71MOL0     O 9508   0.965   8.872   4.345  0.1346 -0.0248  0.1368
   71MOL0     C 9509   0.970   8.730   4.338 -0.2131  0.1835 -0.5667
   71MOL0     C 9510   0.832   8.681   4.295  0.4418 -0.3764  0.5311
   71MOL0     C 9511   0.746   8.653   4.419  0.0901  0.9446 -0.2632
   71MOL0     C 9512   0.616   8.591   4.376  0.1033  0.0504  1.1370
   71MOL0     C 9513   0.607   8.458   4.323  0.5227 -0.0287  0.6143
   71MOL0     C 9514   0.582   8.355   4.265 -1.0537  0.1609 -0.4446
   71MOL0     C 9515   1.195   8.884   4.271  0.6773 -0.1163 -0.0050
   71MOL0     C 9516   1.296   8.942   4.187  0.1681  0.8311 -1.2005
   71MOL0     C 9517   1.438   8.883   4.217  0.2039  0.0350  0.2642
   71MOL0     H 9518   1.438   9.505   4.076 -0.7551  0.8885 -0.4205
   71MOL0     H 9519   1.590   9.621   3.953  0.6585  0.1687 -2.9733
   71MOL0     H 9520   1.869   9.578   3.691 -0.1736  0.0044  1.7394
   71MOL0     H 9521   1.778   9.442   3.631  0.2657  0.5176  2.2311
   71MOL0     H 9522   1.799   9.716   3.540 -0.9834  0.0890  1.4777
   71MOL0     H 9523   1.640   9.636   3.493  0.4126 -0.5129 -3.4265
   71MOL0     H 9524   1.829   9.449   3.408 -1.3098 -0.3118 -2.6692
   71MOL0     H 9525   1.919   9.597   3.389 -0.3534  1.9077 -1.4826
   71MOL0     H 9526   1.635   9.525   3.288  0.8693 -0.5978  2.2660
   71MOL0     H 9527   1.723   9.668   3.236 -4.4786 -0.8859  0.0059
   71MOL0     H 9528   1.885   9.531   3.121  0.0244 -1.7497  0.2312
   71MOL0     H 9529   1.818   9.380   3.194 -2.9360  0.3496  3.3933
   71MOL0     H 9530   1.618   9.394   3.041  2.1870 -3.9768 -3.5562
   71MOL0     H 9531   1.668   9.553   2.994  0.2622 -0.4029 -1.6407
   71MOL0     H 9532   1.879   9.456   2.915  0.5009  0.8594  1.7030
   71MOL0     H 9533   1.734   9.434   2.822  0.7856 -1.0389 -1.9189
   71MOL0     H 9534   1.819   9.207   3.021 -1.0508  0.9449  0.4907
   71MOL0     H 9535   1.692   9.204   2.900  0.7765  0.5166 -2.4184
   71MOL0     H 9536   2.063   9.244   2.896 -0.4629 -1.4662  0.9156
   71MOL0     H 9537   2.188   8.962   2.709  1.8284  0.3971  2.7746
   71MOL0     H 9538   2.220   9.081   2.588  0.2068  5.9350  0.2469
   71MOL0     H 9539   2.307   9.238   2.801 -3.4492 -0.3098 -0.5225
   71MOL0     H 9540   2.257   9.104   2.905 -0.3775 -3.7870 -0.4975
   71MOL0     H 9541   2.421   8.959   2.795 -2.2111  0.8747  3.3367
   71MOL0     H 9542   2.502   9.082   2.864  1.6621  1.5489 -1.9762
   71MOL0     H 9543   2.522   9.225   2.659 -0.0066  0.5883  1.2559
   71MOL0     H 9544   2.445   9.105   2.553  3.6007  1.2704 -2.0547
   71MOL0     H 9545   2.539   9.129   2.390 -1.6505 -2.7747 -1.1509
   71MOL0     H 9546   2.660   9.130   2.191 -1.9184 -2.3840  1.0380
   71MOL0     H 9547   3.043   9.047   1.892 -1.1154 -1.1187  2.5171
   71MOL0     H 9548   3.226   9.018   1.731 -0.3161  0.2141  0.0325
   71MOL0     H 9549   3.609   8.995   1.916  0.6074 -0.3174 -0.0343
   71MOL0     H 9550   3.656   8.883   1.789 -0.6007 -0.5181 -1.4582
   71MOL0     H 9551   3.505   9.149   1.715  0.9942  2.7411 -1.4128
   71MOL0     H 9552   3.681   9.140   1.773  0.9087 -1.6948  0.6247
   71MOL0     H 9553   3.690   9.131   1.541 -0.4220  2.1189  2.7684
   71MOL0     H 9554   3.713   8.961   1.590  1.0144  1.1636 -0.3496
   71MOL0     H 9555   3.450   9.078   1.510 -0.2446 -0.7281  0.2885
   71MOL0     H 9556   3.467   8.919   1.529 -0.2721  0.4900  0.3245
   71MOL0     H 9557   3.633   8.885   1.355 -0.3858 -0.3440 -1.8264
   71MOL0     H 9558   3.637   9.058   1.315 -0.2980  0.4045 -1.3138
   71MOL0     H 9559   3.386   9.042   1.275 -0.7825  0.1559 -1.3067
   71MOL0     H 9560   3.488   8.959   1.157  0.2318  2.4356  0.1858
   71MOL0     H 9561   3.273   8.838   1.227 -0.1884 -1.2676  0.4890
   71MOL0     H 9562   3.322   8.835   1.390  0.5753  0.0723 -0.4308
   71MOL0     H 9563   3.508   8.725   1.194 -1.3397  4.7469 -0.6574
   71MOL0     H 9564   3.506   8.681   1.359 -0.8786 -4.0385  0.1764
   71MOL0     H 9565   3.471   8.864   2.051 -1.1193 -2.4690 -0.0756
   71MOL0     H 9566   3.277   8.906   2.208 -1.7047 -0.5462 -0.1729
   71MOL0     H 9567   3.010   9.006   2.406  0.3911  0.3309 -0.6108
   71MOL0     H 9568   2.883   8.982   2.610 -2.1088  0.0124  1.0182
   71MOL0     H 9569   1.549   9.342   3.627  1.7782  1.6038 -0.0657
   71MOL0     H 9570   1.426   9.203   3.766  0.5936 -0.1679 -0.1855
   71MOL0     H 9571   1.091   9.158   4.038 -1.9441 -1.5268 -0.1814
   71MOL0     H 9572   0.924   9.057   4.159 -0.4076  0.2146 -2.0031
   71MOL0     H 9573   0.995   8.694   4.439 -2.8210  0.1224  0.1396
   71MOL0     H 9574   1.050   8.698   4.271 -1.9850 -2.2949 -1.6421
   71MOL0     H 9575   0.837   8.591   4.233  3.7425  0.3147 -0.4090
   71MOL0     H 9576   0.787   8.755   4.227 -0.8225 -0.5045  1.1971
   71MOL0     H 9577   0.732   8.749   4.471  3.7867  1.6339 -0.2679
   71MOL0     H 9578   0.803   8.589   4.487  0.8792 -1.2843 -2.8522
   71MOL0     H 9579   0.549   8.597   4.462 -0.6664 -0.1229  0.5658
   71MOL0     H 9580   0.580   8.655   4.295  1.3403  0.4900  0.9072
   71MOL0     H 9581   0.552   8.260   4.227  1.0118 -1.0443  0.7683
   71MOL0     H 9582   1.223   8.817   4.351 -0.1381 -0.7947 -0.2762
   71MOL0     H 9583   1.441   8.800   4.288  0.3721 -0.2686 -0.0894
   71MOL0     H 9584   1.472   8.842   4.121 -0.8397  0.0423 -0.1242
   71MOL0     H 9585   1.501   8.960   4.262 -1.5808  0.4298  2.2128
   72MOL0     O 9586   6.009   3.816   8.309 -0.0395  0.9974 -0.1075
   72MOL0     C 9587   5.934   3.875   8.387  0.2797  0.6587  0.3775
   72MOL0     O 9588   5.807   3.899   8.364 -0.2443 -0.5986  0.6342
   72MOL0     C 9589   5.733   3.851   8.263 -1.1877  0.8162  0.0785
   72MOL0     C 9590   5.782   3.821   8.130 -0.6269  0.2829 -0.4080
   72MOL0     C 9591   5.697   3.763   8.034 -0.0544 -0.0734 -0.5068
   72MOL0     C 9592   5.563   3.742   8.063  0.5093 -0.2609 -0.0546
   72MOL0     O 9593   5.466   3.691   7.978 -0.4308 -0.1745  0.2459
   72MOL0     C 9594   5.515   3.647   7.847  0.6261 -0.4958 -0.8068
   72MOL0     C 9595   5.408   3.642   7.739  0.5492 -0.1073  0.3239
   72MOL0     C 9596   5.347   3.778   7.716  0.3983 -0.3668  0.9729
   72MOL0     C 9597   5.201   3.759   7.663 -0.6401 -0.3950 -0.1207
   72MOL0     C 9598   5.144   3.908   7.647  0.0793  0.2038 -0.3183
   72MOL0     C 9599   5.124   3.981   7.779  0.3171  0.3610  0.5670
   72MOL0     C 9600   5.037   3.907   7.873 -0.8274  1.0093 -1.0542
   72MOL0     C 9601   5.013   3.981   8.008 -1.1912  0.4316  0.3622
   72MOL0     N 9602   4.919   4.087   7.992  0.6593 -0.0633  0.1690
   72MOL0     C 9603   4.786   4.066   8.003  0.0159 -0.5270  0.6941
   72MOL0     C 9604   4.736   4.192   8.003  0.3429 -0.0064  0.6952
   72MOL0     C 9605   4.593   4.216   8.043 -1.4907 -0.1578  0.0208
   72MOL0     C 9606   4.575   4.191   8.190  0.1082  1.3256  0.0384
   72MOL0     C 9607   4.445   4.233   8.253  0.0019 -0.8387  0.2052
   72MOL0     C 9608   4.449   4.389   8.283 -0.5248 -0.3956  0.4729
   72MOL0     O 9609   4.364   4.428   8.388  0.2263  0.3990 -0.7400
   72MOL0     C 9610   4.228   4.442   8.363  0.3071 -0.5154 -0.1400
   72MOL0     C 9611   4.148   4.424   8.476 -1.0795 -0.1455  0.6475
   72MOL0     C 9612   4.011   4.414   8.460 -0.3502  0.1619  0.1300
   72MOL0     C 9613   3.946   4.425   8.343  0.6151  0.2724 -0.2079
   72MOL0     C 9614   3.804   4.399   8.337 -0.7422  0.5109 -0.2287
   72MOL0     O 9615   3.734   4.429   8.449  0.5557 -0.6905 -0.0897
   72MOL0     C 9616   3.608   4.378   8.475  0.1467  0.5492 -0.4823
   72MOL0     C 9617   3.560   4.251   8.446 -0.2409 -0.1705  0.7613
   72MOL0     C 9618   3.439   4.198   8.494  0.0002  0.4358  0.6617
   72MOL0     C 9619   3.350   4.272   8.564  1.1475 -0.3263 -1.6534
   72MOL0     O 9620   3.229   4.230   8.611  0.3261  0.4954  0.5427
   72MOL0     C 9621   3.178   4.100   8.582  0.3710 -0.6966 -0.4643
   72MOL0     C 9622   3.141   4.091   8.434  0.3595 -0.6759  0.1658
   72MOL0     C 9623   3.036   3.990   8.398 -0.8271 -0.5022  0.1691
   72MOL0     C 9624   2.986   3.998   8.255 -0.0497 -0.2307  0.1416
   72MOL0     C 9625   2.885   3.875   8.222  0.3937 -0.4647  0.3281
   72MOL0     C 9626   2.820   3.884   8.077 -0.9525  0.1343 -0.3295
   72MOL0     C 9627   2.689   3.800   8.091  0.2993  0.0877  1.1575
   72MOL0     C 9628   2.619   3.810   7.966 -0.0936  0.2534  0.1717
   72MOL0    Cl 9629   2.694   3.723   7.831 -0.1045 -0.3982 -0.1243
   72MOL0     C 9630   3.391   4.404   8.595  0.0165  0.1207 -0.3392
   72MOL0     C 9631   3.519   4.457   8.555  0.3735  1.3664 -0.5181
   72MOL0     O 9632   3.759   4.357   8.230 -0.2678  0.1727 -0.0045
   72MOL0     C 9633   4.022   4.467   8.235 -0.7785  0.7506  1.2107
   72MOL0     C 9634   4.162   4.459   8.243  0.4811  0.1698  0.5225
   72MOL0     N 9635   4.835   4.283   7.985 -0.4653  0.2588  0.8732
   72MOL0     N 9636   4.943   4.216   7.971  0.3270 -0.8172  0.9276
   72MOL0     C 9637   5.522   3.762   8.196  0.2330 -0.2852  0.2480
   72MOL0     C 9638   5.606   3.818   8.297  0.0746  0.8887  1.3694
   72MOL0     C 9639   5.991   3.913   8.517 -0.0998 -0.0978 -0.2425
   72MOL0     C 9640   5.901   3.952   8.623  0.4000  0.7987  0.6521
   72MOL0     C 9641   5.937   4.005   8.741 -0.1038 -0.0308  0.4759
   72MOL0     C 9642   6.070   4.003   8.764  0.1161 -0.4067 -0.1666
   72MOL0     O 9643   6.122   4.023   8.893  0.0915 -0.3366 -0.5284
   72MOL0     C 9644   6.066   4.121   8.984  1.3586  0.2336 -0.3028
   72MOL0     C 9645   6.163   4.179   9.080  0.6377 -0.4933  0.0088
   72MOL0     C 9646   6.269   4.268   9.013 -1.2753 -0.1652  0.4148
   72MOL0     C 9647   6.389   4.301   9.111  0.7665  0.3729 -0.5868
   72MOL0     C 9648   6.356   4.385   9.222 -0.3081 -0.5684 -0.1619
   72MOL0     C 9649   6.329   4.462   9.307  0.3657  0.2428 -0.5147
   72MOL0     C 9650   6.168   3.960   8.675 -0.6313  0.0011  0.1750
   72MOL0     C 9651   6.132   3.921   8.548  0.1819  0.1155  0.2709
   72MOL0     C 9652   6.242   3.895   8.458  1.1779 -0.2846  1.2590
   72MOL0     H 9653   5.888   3.824   8.109 -0.8273 -0.9174 -1.6932
   72MOL0     H 9654   5.738   3.731   7.939 -1.9905 -3.6272 -0.3089
   72MOL0     H 9655   5.590   3.716   7.808 -1.0510  0.3953 -2.6303
   72MOL0     H 9656   5.561   3.549   7.864 -0.6444 -0.8863  0.5872
   72MOL0     H 9657   5.336   3.567   7.774  3.1256 -1.5127  3.0886
   72MOL0     H 9658   5.445   3.590   7.650  1.7140 -0.4048  0.9651
   72MOL0     H 9659   5.395   3.833   7.634  0.0120  0.2358  1.1455
   72MOL0     H 9660   5.356   3.833   7.809  3.9770 -1.7055  1.5886
   72MOL0     H 9661   5.204   3.700   7.571  0.3981 -3.4883  1.7222
   72MOL0     H 9662   5.136   3.703   7.731 -2.6244  1.1488 -0.6593
   72MOL0     H 9663   5.219   3.973   7.600  0.8566  0.9261  1.7969
   72MOL0     H 9664   5.051   3.899   7.591 -0.0632  2.4505 -0.5434
   72MOL0     H 9665   5.222   3.990   7.827 -0.1598  1.3466  1.3988
   72MOL0     H 9666   5.098   4.084   7.754  0.7673  0.7932  1.7852
   72MOL0     H 9667   5.093   3.819   7.907  0.7928  1.0432 -3.4230
   72MOL0     H 9668   4.940   3.886   7.828 -0.8555  2.3706 -1.6462
   72MOL0     H 9669   4.966   3.902   8.068 -0.7123  0.7128  1.1169
   72MOL0     H 9670   5.111   4.004   8.050 -0.7026 -3.5328  1.8831
   72MOL0     H 9671   4.734   3.971   8.006  2.0295 -1.6874  1.7538
   72MOL0     H 9672   4.573   4.320   8.016  2.2234  0.3699 -1.3032
   72MOL0     H 9673   4.534   4.144   7.986  0.3514 -4.9881  3.4824
   72MOL0     H 9674   4.595   4.086   8.212 -0.7182  1.3670  1.0285
   72MOL0     H 9675   4.658   4.240   8.242 -0.4434  0.8307  1.4325
   72MOL0     H 9676   4.436   4.174   8.344  3.9152 -0.0857  1.2488
   72MOL0     H 9677   4.360   4.212   8.187  0.4779  1.3402 -1.2093
   72MOL0     H 9678   4.442   4.444   8.188  1.9061 -2.5749 -1.1211
   72MOL0     H 9679   4.550   4.412   8.318 -0.3309 -0.5713  0.0424
   72MOL0     H 9680   4.187   4.405   8.575 -0.9540  1.2620  0.8937
   72MOL0     H 9681   3.962   4.400   8.556  2.0296 -0.7113  1.3147
   72MOL0     H 9682   3.622   4.176   8.397 -2.1277 -0.2172 -1.8231
   72MOL0     H 9683   3.433   4.096   8.459  5.1478 -0.5167  1.7185
   72MOL0     H 9684   3.251   4.021   8.603  1.4267  1.0176  2.9950
   72MOL0     H 9685   3.099   4.074   8.653  1.7966 -0.3932  1.3156
   72MOL0     H 9686   3.114   4.189   8.393  1.6368 -0.3900 -0.0471
   72MOL0     H 9687   3.235   4.070   8.382  0.9572  0.4767  0.7266
   72MOL0     H 9688   3.088   3.896   8.416  0.3518 -0.2851 -1.8863
   72MOL0     H 9689   2.950   3.999   8.466 -1.0434  0.3722 -0.2086
   72MOL0     H 9690   3.065   4.000   8.180 -1.5785  2.5316 -1.5776
   72MOL0     H 9691   2.938   4.095   8.239  2.4476  1.2367  1.0364
   72MOL0     H 9692   2.799   3.876   8.290 -2.1326  1.4821 -2.6028
   72MOL0     H 9693   2.932   3.777   8.236  3.2526  0.9746  1.5722
   72MOL0     H 9694   2.793   3.987   8.051  1.5697  0.4066 -2.3012
   72MOL0     H 9695   2.878   3.851   7.990 -4.1747 -1.4283 -2.0875
   72MOL0     H 9696   2.622   3.830   8.172  1.6462 -0.2568  2.4413
   72MOL0     H 9697   2.724   3.707   8.135  0.5231  0.0019  0.8027
   72MOL0     H 9698   2.520   3.766   7.976  0.7717 -2.0436 -0.7150
   72MOL0     H 9699   2.614   3.911   7.925  2.1739  0.2037 -0.3335
   72MOL0     H 9700   3.330   4.467   8.659  0.1548  1.0877 -1.1298
   72MOL0     H 9701   3.545   4.556   8.589 -1.4303  0.9157  2.5712
   72MOL0     H 9702   3.973   4.460   8.138  1.0752 -3.0407  0.3443
   72MOL0     H 9703   4.215   4.464   8.148 -0.4348 -0.6391 -0.0518
   72MOL0     H 9704   5.421   3.729   8.220 -0.9534  2.3912 -0.7559
   72MOL0     H 9705   5.567   3.832   8.397 -1.1967  1.5004  0.8132
   72MOL0     H 9706   5.793   3.941   8.613  0.2082  0.8093  2.3557
   72MOL0     H 9707   5.861   4.039   8.811 -2.3928 -2.3646 -0.7129
   72MOL0     H 9708   5.988   4.074   9.044  1.1128 -2.0281 -2.2704
   72MOL0     H 9709   6.016   4.195   8.919 -0.3656 -1.8227 -1.4543
   72MOL0     H 9710   6.201   4.093   9.137 -3.1962 -2.9170 -0.7343
   72MOL0     H 9711   6.104   4.242   9.147  3.1974  1.3254  0.7333
   72MOL0     H 9712   6.221   4.357   8.972  1.4973  0.8898 -0.7759
   72MOL0     H 9713   6.307   4.218   8.924 -1.7321 -0.1319  0.1978
   72MOL0     H 9714   6.422   4.205   9.153  0.0225  1.0018  1.5227
   72MOL0     H 9715   6.480   4.335   9.060 -0.0061  1.5717 -1.1912
   72MOL0     H 9716   6.282   4.531   9.374 -0.2724  0.4429 -1.1433
   72MOL0     H 9717   6.269   3.958   8.715 -0.5128  2.0040  0.0697
   72MOL0     H 9718   6.269   3.790   8.440  1.1265 -0.3349  1.4612
   72MOL0     H 9719   6.213   3.943   8.364 -4.4633 -3.6768  0.7775
   72MOL0     H 9720   6.330   3.948   8.495  0.6139  3.1723 -1.7791
   73MOL0     O 9721   9.836   3.667   1.602  0.4263  0.6712 -0.4649
   73MOL0     C 9722   9.764   3.626   1.513  0.2434 -1.4856  0.4538
   73MOL0     O 9723   9.694   3.708   1.433 -0.0728  0.6633  0.1939
   73MOL0     C 9724   9.738   3.836   1.389 -0.1945 -0.9438  0.4356
   73MOL0     C 9725   9.646   3.915   1.313 -0.3029 -0.0346  0.0762
   73MOL0     C 9726   9.688   4.041   1.270 -0.6287  0.7533 -0.4777
   73MOL0     C 9727   9.811   4.094   1.287  0.4887 -0.0788 -0.5292
   73MOL0     O 9728   9.846   4.207   1.227 -0.1276 -0.3944 -0.0435
   73MOL0     C 9729   9.921   4.302   1.301  1.0650  0.5127 -0.2238
   73MOL0     C 9730   9.832   4.415   1.336 -0.2401 -0.6152 -0.3006
   73MOL0     C 9731   9.788   4.504   1.217  0.2485  0.1325 -0.0989
   73MOL0     C 9732   9.667   4.599   1.235 -0.4361  0.6805  0.7028
   73MOL0     C 9733   9.581   4.626   1.106  0.4567 -0.2300 -0.6509
   73MOL0     C 9734   9.655   4.737   1.017  0.6310  0.5463  0.3225
   73MOL0     C 9735   9.605   4.760   0.866  0.2174  0.3250 -1.2534
   73MOL0     C 9736   9.460   4.815   0.860 -0.6359  0.1968  0.6626
   73MOL0     N 9737   9.413   4.854   0.726  0.8612 -0.5543 -0.5414
   73MOL0     C 9738   9.484   4.933   0.630 -1.0372  0.0313  1.2318
   73MOL0     C 9739   9.393   4.947   0.538 -0.0608  0.1564 -0.9394
   73MOL0     C 9740   9.425   5.013   0.414  0.2707  0.8843  0.6418
   73MOL0     C 9741   9.370   4.939   0.290  0.2347 -0.4345  0.2842
   73MOL0     C 9742   9.432   5.006   0.160  0.3562  0.6377 -0.2614
   73MOL0     C 9743   9.404   4.936   0.033  0.3122  0.2886 -0.0595
   73MOL0     O 9744   9.485   5.006  -0.075 -0.8154  0.2661  0.3854
   73MOL0     C 9745   9.596   4.939  -0.120 -0.2719  0.1337  1.0763
   73MOL0     C 9746   9.674   4.836  -0.065 -0.0621  0.2603  0.0805
   73MOL0     C 9747   9.773   4.767  -0.141 -0.5082 -1.2824  0.6727
   73MOL0     C 9748   9.792   4.802  -0.276  0.9349 -0.0130 -0.7571
   73MOL0     C 9749   9.895   4.716  -0.354  0.5322  0.6001  0.0312
   73MOL0     O 9750   9.945   4.603  -0.297  0.6326 -0.2407  0.1924
   73MOL0     C 9751  10.034   4.510  -0.354  0.4517 -0.2600  0.1133
   73MOL0     C 9752  10.163   4.554  -0.401  1.0065 -0.2258  0.5045
   73MOL0     C 9753  10.241   4.466  -0.480  0.1482  0.5761 -0.0401
   73MOL0     C 9754  10.193   4.344  -0.514 -0.8410 -0.8942  0.0347
   73MOL0     O 9755  10.263   4.262  -0.596  0.3215 -0.3400 -0.3593
   73MOL0     C 9756  10.245   4.117  -0.586  0.0789 -0.3355 -1.1733
   73MOL0     C 9757  10.371   4.038  -0.643  0.4523  0.2255 -0.3338
   73MOL0     C 9758  10.403   3.900  -0.567 -0.3816 -0.4159  0.0759
   73MOL0     C 9759  10.508   3.809  -0.639  0.6519 -0.0805 -0.6083
   73MOL0     C 9760  10.545   3.690  -0.556  0.3367  0.6190 -0.9287
   73MOL0     C 9761  10.642   3.603  -0.627  0.1546 -0.6584 -1.1537
   73MOL0     C 9762  10.708   3.506  -0.526 -0.1458 -0.0823 -0.1031
   73MOL0     C 9763  10.802   3.400  -0.588 -0.2259 -1.4402  1.1032
   73MOL0    Cl 9764  10.960   3.489  -0.627 -0.3504 -0.3091 -0.5443
   73MOL0     C 9765  10.067   4.307  -0.484  0.6364  0.5715  0.5542
   73MOL0     C 9766   9.995   4.386  -0.397  0.5384  1.6876 -0.4177
   73MOL0     O 9767   9.921   4.755  -0.466 -0.1406 -0.2880 -0.3385
   73MOL0     C 9768   9.730   4.917  -0.326  0.9594 -0.4906  0.0607
   73MOL0     C 9769   9.629   4.980  -0.250  0.1782  0.1996  0.6250
   73MOL0     N 9770   9.279   4.892   0.574 -0.3456  0.3516 -0.3043
   73MOL0     N 9771   9.287   4.840   0.693  0.3201  0.3772  0.1791
   73MOL0     C 9772   9.908   4.014   1.355  0.8090 -0.8084  0.5110
   73MOL0     C 9773   9.873   3.890   1.404  0.4378 -0.3672 -0.1412
   73MOL0     C 9774   9.762   3.480   1.502  1.1227 -0.4074  0.3070
   73MOL0     C 9775   9.835   3.402   1.579  0.1268  0.6402  0.2267
   73MOL0     C 9776   9.814   3.263   1.583 -0.3891  0.4818  0.1987
   73MOL0     C 9777   9.716   3.201   1.505 -0.7045  0.2428 -0.1279
   73MOL0     O 9778   9.701   3.063   1.521 -0.1551  0.2771 -0.4070
   73MOL0     C 9779   9.605   2.993   1.441  0.1508  0.7298  1.4921
   73MOL0     C 9780   9.648   2.982   1.300 -0.2116 -0.5748  1.8138
   73MOL0     C 9781   9.744   2.866   1.280 -0.5128 -0.4405 -0.3031
   73MOL0     C 9782   9.749   2.815   1.136  0.3600  0.4049 -0.4794
   73MOL0     C 9783   9.628   2.755   1.087 -0.4696  0.7489 -0.1462
   73MOL0     C 9784   9.523   2.729   1.036  0.6662  0.0198 -0.3012
   73MOL0     C 9785   9.647   3.284   1.427  0.0896  0.3793  0.2563
   73MOL0     C 9786   9.670   3.415   1.416  0.0505 -0.6382 -0.6274
   73MOL0     C 9787   9.589   3.481   1.312  0.4043  0.2418 -0.7367
   73MOL0     H 9788   9.547   3.876   1.292  0.3934 -2.3304  0.8167
   73MOL0     H 9789   9.623   4.098   1.204  1.2442  1.8873 -1.4509
   73MOL0     H 9790   9.958   4.253   1.392  1.4617  1.0975 -0.0640
   73MOL0     H 9791  10.011   4.337   1.251  2.3071 -2.4845 -0.3409
   73MOL0     H 9792   9.878   4.485   1.406 -1.2332  0.5538 -0.7764
   73MOL0     H 9793   9.737   4.387   1.383  0.3677  1.4783  2.3551
   73MOL0     H 9794   9.779   4.447   1.124 -2.6800  1.8444 -0.9752
   73MOL0     H 9795   9.875   4.568   1.199  1.1317 -0.4384  1.9159
   73MOL0     H 9796   9.601   4.554   1.309 -0.0451  0.3544  0.8569
   73MOL0     H 9797   9.698   4.690   1.286 -3.4594  1.0065  2.1539
   73MOL0     H 9798   9.567   4.537   1.043 -1.8847  1.1024 -2.1476
   73MOL0     H 9799   9.477   4.644   1.135 -0.6555 -4.0377 -1.6139
   73MOL0     H 9800   9.657   4.834   1.067 -0.4757  1.3817 -1.1905
   73MOL0     H 9801   9.756   4.697   1.010 -0.1880 -1.3971 -1.1879
   73MOL0     H 9802   9.619   4.669   0.808 -0.0621 -1.0990  0.8006
   73MOL0     H 9803   9.667   4.837   0.820 -0.2675  1.7102  0.2696
   73MOL0     H 9804   9.387   4.756   0.916  0.1382 -0.2402  1.2252
   73MOL0     H 9805   9.460   4.914   0.908  0.0569  0.2968  0.4589
   73MOL0     H 9806   9.584   4.975   0.638 -1.9742  2.3312  1.7493
   73MOL0     H 9807   9.379   5.112   0.421  1.4441  1.4909  0.0062
   73MOL0     H 9808   9.534   5.025   0.414  0.4650 -0.6574  1.4928
   73MOL0     H 9809   9.391   4.833   0.311 -1.6753 -0.8784  0.1941
   73MOL0     H 9810   9.262   4.945   0.276  0.2695  1.1357  0.5629
   73MOL0     H 9811   9.537   5.016   0.188  0.7836 -0.9615 -1.2015
   73MOL0     H 9812   9.397   5.110   0.156  1.3934  1.0506  0.6303
   73MOL0     H 9813   9.300   4.950   0.003 -0.1938 -0.7067  1.1311
   73MOL0     H 9814   9.421   4.828   0.040 -0.2236 -0.0136 -2.5621
   73MOL0     H 9815   9.664   4.789   0.033  0.6618 -0.8628 -0.3573
   73MOL0     H 9816   9.836   4.692  -0.096 -1.9823 -3.3282 -0.4825
   73MOL0     H 9817  10.204   4.652  -0.382  1.0672 -0.1144 -0.1867
   73MOL0     H 9818  10.344   4.487  -0.508  0.4081  0.5346  0.8313
   73MOL0     H 9819  10.242   4.082  -0.483  3.3640 -0.0116 -0.8723
   73MOL0     H 9820  10.149   4.089  -0.631 -2.7149  1.5821  2.9994
   73MOL0     H 9821  10.360   4.014  -0.749  0.7650 -0.0049 -0.3152
   73MOL0     H 9822  10.455   4.107  -0.632  0.8216 -0.0200 -1.4791
   73MOL0     H 9823  10.439   3.934  -0.470  0.2583  2.2076 -1.0150
   73MOL0     H 9824  10.309   3.844  -0.559 -2.9250  3.4035 -0.6445
   73MOL0     H 9825  10.600   3.863  -0.662  2.8518 -3.8833 -1.6057
   73MOL0     H 9826  10.477   3.780  -0.740 -1.9914  3.3312 -1.0076
   73MOL0     H 9827  10.450   3.642  -0.529 -0.3572  1.8875 -1.0522
   73MOL0     H 9828  10.586   3.721  -0.460 -3.3266  5.1391 -0.4969
   73MOL0     H 9829  10.600   3.554  -0.716 -2.0017 -0.8039 -0.1197
   73MOL0     H 9830  10.732   3.653  -0.662  1.5664  0.6698  3.6656
   73MOL0     H 9831  10.623   3.450  -0.486  0.2201  0.5787  1.6738
   73MOL0     H 9832  10.751   3.571  -0.449  0.5439  2.6739 -2.6167
   73MOL0     H 9833  10.828   3.330  -0.508  2.4799 -0.1212  1.4743
   73MOL0     H 9834  10.755   3.351  -0.675  1.3074 -0.6362 -0.2257
   73MOL0     H 9835  10.024   4.214  -0.520  1.0097  1.5988 -2.9059
   73MOL0     H 9836   9.899   4.349  -0.363  1.5385 -0.6564  0.1200
   73MOL0     H 9837   9.749   4.957  -0.425  0.8726  3.4886  1.4671
   73MOL0     H 9838   9.562   5.053  -0.295  1.0519  0.7105  0.1377
   73MOL0     H 9839  10.010   4.049   1.359  0.0259  1.9856 -1.0018
   73MOL0     H 9840   9.949   3.824   1.444  0.2649 -0.2141  0.4533
   73MOL0     H 9841   9.905   3.442   1.652 -2.1902  1.5492  2.0905
   73MOL0     H 9842   9.879   3.204   1.647  1.0176  2.5235  0.7617
   73MOL0     H 9843   9.501   3.027   1.438  0.0026  0.2171 -0.7996
   73MOL0     H 9844   9.590   2.889   1.472 -1.3786  0.7384  0.8815
   73MOL0     H 9845   9.681   3.078   1.259  1.5423 -0.8367  2.5101
   73MOL0     H 9846   9.560   2.955   1.240 -1.0895 -0.1153  2.8707
   73MOL0     H 9847   9.719   2.779   1.342  0.6448 -0.9618 -0.5509
   73MOL0     H 9848   9.844   2.892   1.315 -1.0765  1.5282 -0.0218
   73MOL0     H 9849   9.766   2.903   1.073  1.3548  0.4892 -0.1163
   73MOL0     H 9850   9.831   2.744   1.125 -0.2596 -0.4155  0.0492
   73MOL0     H 9851   9.431   2.696   0.993 -0.5704  0.5155  1.8317
   73MOL0     H 9852   9.559   3.243   1.378 -1.2408  4.1118 -0.7973
   73MOL0     H 9853   9.528   3.405   1.261  0.7188 -1.6476  1.5220
   73MOL0     H 9854   9.520   3.561   1.339  2.5945  2.0125 -0.1505
   73MOL0     H 9855   9.650   3.537   1.242  1.5718  1.3695  1.1123
   74MOL0     O 9856   9.051   2.931  11.481  0.3283  0.0719 -0.7182
   74MOL0     C 9857   8.995   2.863  11.398  0.2949  0.3193 -0.1562
   74MOL0     O 9858   9.010   2.883  11.267  0.5669 -0.5295  0.2200
   74MOL0     C 9859   9.084   2.989  11.209  1.0257 -0.4623  0.0549
   74MOL0     C 9860   9.215   3.005  11.258  0.2837  0.5513  0.3684
   74MOL0     C 9861   9.291   3.110  11.205 -0.5397 -0.1439 -0.0285
   74MOL0     C 9862   9.246   3.193  11.105 -0.1821  0.2917  0.1626
   74MOL0     O 9863   9.313   3.306  11.061 -0.3270  0.4552  0.5046
   74MOL0     C 9864   9.358   3.401  11.170 -0.8573  0.7059 -0.9472
   74MOL0     C 9865   9.234   3.460  11.233  1.0255 -0.3753  0.5101
   74MOL0     C 9866   9.288   3.543  11.345 -0.2742 -0.4125  0.6305
   74MOL0     C 9867   9.177   3.601  11.428 -0.6314  0.5873 -0.5095
   74MOL0     C 9868   9.242   3.688  11.550  1.0209 -0.1329 -0.0231
   74MOL0     C 9869   9.351   3.622  11.641 -0.6651  1.1286  0.6088
   74MOL0     C 9870   9.349   3.660  11.794 -0.9108 -0.0771 -0.3203
   74MOL0     C 9871   9.467   3.578  11.845  0.7208  0.2450 -0.3184
   74MOL0     N 9872   9.489   3.607  11.984 -1.0688  0.1628  0.0902
   74MOL0     C 9873   9.558   3.712  12.019  0.5220 -0.2638 -0.4768
   74MOL0     C 9874   9.549   3.718  12.155  0.0126 -0.4707 -0.3153
   74MOL0     C 9875   9.615   3.832  12.239 -0.3005  0.6815 -0.2015
   74MOL0     C 9876   9.745   3.885  12.172  1.0420  0.6564 -0.4040
   74MOL0     C 9877   9.794   3.997  12.261 -0.3684  0.2043 -0.1808
   74MOL0     C 9878   9.939   4.030  12.235  0.0395  0.7569 -0.7437
   74MOL0     O 9879   9.953   4.049  12.097 -0.2771 -0.1929 -0.5829
   74MOL0     C 9880  10.062   4.122  12.069 -0.3203  0.3854 -0.1408
   74MOL0     C 9881  10.049   4.229  11.973  0.3420  1.0426  0.7325
   74MOL0     C 9882  10.159   4.314  11.943  0.3272 -0.3711 -0.5609
   74MOL0     C 9883  10.290   4.291  12.004  0.4292  0.0306  0.2619
   74MOL0     C 9884  10.408   4.370  11.969 -0.1671 -0.7188 -0.1276
   74MOL0     O 9885  10.527   4.296  11.976 -0.5096 -0.1276  0.1390
   74MOL0     C 9886  10.642   4.366  11.999 -0.5258  0.5184 -0.1420
   74MOL0     C 9887  10.746   4.353  11.899 -0.9246 -1.5598  0.1064
   74MOL0     C 9888  10.871   4.402  11.918 -0.2054 -0.5611  0.2987
   74MOL0     C 9889  10.899   4.484  12.026  0.3728  0.2664 -0.2213
   74MOL0     O 9890  11.023   4.540  12.037  0.5154  0.4080  0.0940
   74MOL0     C 9891  11.025   4.666  11.982 -0.4443  0.3601  0.4841
   74MOL0     C 9892  11.088   4.768  12.081  0.5936 -0.0043  1.0871
   74MOL0     C 9893  11.082   4.902  12.019  0.1554  0.9172  1.4507
   74MOL0     C 9894  11.147   4.995  12.112  0.7156  0.8275  0.1656
   74MOL0     C 9895  11.147   5.128  12.038 -0.5234 -0.1120  0.0457
   74MOL0     C 9896  11.219   5.228  12.137 -0.0352 -0.2071 -0.6561
   74MOL0     C 9897  11.216   5.373  12.083 -0.1699 -0.6910 -0.0460
   74MOL0     C 9898  11.335   5.453  12.139  0.0081  0.4804  0.4683
   74MOL0    Cl 9899  11.311   5.633  12.084 -0.8333 -0.2121  0.0510
   74MOL0     C 9900  10.801   4.505  12.127 -0.5582  1.3767 -0.1059
   74MOL0     C 9901  10.667   4.447  12.117  0.4346  0.9020  0.4665
   74MOL0     O 9902  10.399   4.489  11.943 -0.1676 -0.2432  0.3830
   74MOL0     C 9903  10.300   4.182  12.094 -0.9491  0.6256  1.2495
   74MOL0     C 9904  10.189   4.103  12.132  0.7179 -0.0097 -0.6410
   74MOL0     N 9905   9.488   3.600  12.204  0.2256  0.4370  0.5486
   74MOL0     N 9906   9.443   3.538  12.095  0.0534  1.5423 -0.3806
   74MOL0     C 9907   9.121   3.169  11.051  0.1954 -0.3009  0.6765
   74MOL0     C 9908   9.040   3.063  11.101 -0.2039 -0.2213 -0.4705
   74MOL0     C 9909   8.921   2.737  11.444 -0.0694 -0.5002 -0.5311
   74MOL0     C 9910   8.874   2.654  11.344 -0.1123 -0.2671  0.4175
   74MOL0     C 9911   8.788   2.549  11.367 -0.2244  0.5132 -0.4171
   74MOL0     C 9912   8.754   2.506  11.491 -0.1719 -0.1648 -0.3918
   74MOL0     O 9913   8.697   2.388  11.524 -0.4457  0.5427 -0.1789
   74MOL0     C 9914   8.553   2.372  11.502 -0.0071  0.1193  0.0011
   74MOL0     C 9915   8.512   2.245  11.594  0.7906 -0.2438 -0.0526
   74MOL0     C 9916   8.523   2.103  11.515 -0.0973  0.2963 -0.2471
   74MOL0     C 9917   8.440   1.986  11.572 -0.2028 -0.8719  0.5408
   74MOL0     C 9918   8.473   1.859  11.501 -0.8962  0.2725  0.0849
   74MOL0     C 9919   8.519   1.765  11.432 -0.8826  0.3628  0.4306
   74MOL0     C 9920   8.805   2.582  11.597 -0.3523  0.4845 -0.1305
   74MOL0     C 9921   8.889   2.685  11.577  0.2089 -0.6442  0.1457
   74MOL0     C 9922   8.945   2.770  11.696 -0.3907  1.3536 -0.3683
   74MOL0     H 9923   9.247   2.950  11.346 -0.0677 -0.5880 -0.2057
   74MOL0     H 9924   9.389   3.139  11.243  0.2952  0.3074 -2.3437
   74MOL0     H 9925   9.428   3.345  11.232 -1.1385  1.4267  0.0491
   74MOL0     H 9926   9.413   3.480  11.118 -1.4635  2.6400  1.1741
   74MOL0     H 9927   9.163   3.386  11.270 -3.0056  3.3037  0.9563
   74MOL0     H 9928   9.184   3.517  11.153 -1.2375  0.1867  2.2036
   74MOL0     H 9929   9.347   3.624  11.302  1.5289 -1.1227  1.6503
   74MOL0     H 9930   9.359   3.484  11.405  0.9536  1.9312  1.5955
   74MOL0     H 9931   9.106   3.657  11.367 -0.6823 -1.3239 -2.3003
   74MOL0     H 9932   9.122   3.516  11.469 -0.4355  1.3920  1.5402
   74MOL0     H 9933   9.296   3.770  11.500  0.3767  0.0035 -0.4974
   74MOL0     H 9934   9.153   3.729  11.598 -1.3355 -2.0324 -2.4269
   74MOL0     H 9935   9.350   3.514  11.627  3.4218  1.0671 -0.5081
   74MOL0     H 9936   9.450   3.641  11.599  0.2076 -1.4094  1.3621
   74MOL0     H 9937   9.254   3.630  11.840  0.2651 -0.3193  2.1333
   74MOL0     H 9938   9.365   3.766  11.815  2.2225 -1.0016  2.9817
   74MOL0     H 9939   9.439   3.473  11.835  0.6022  0.1978  0.4330
   74MOL0     H 9940   9.557   3.609  11.790  0.5015  1.2686 -0.1281
   74MOL0     H 9941   9.592   3.793  11.955  0.0647  0.4232  0.1267
   74MOL0     H 9942   9.544   3.915  12.243 -0.4840  0.5007  0.2968
   74MOL0     H 9943   9.632   3.785  12.336  0.3048  2.2227  0.4795
   74MOL0     H 9944   9.823   3.808  12.174  0.0423 -0.3916 -0.4550
   74MOL0     H 9945   9.729   3.899  12.065 -0.5935  0.9211 -0.1596
   74MOL0     H 9946   9.805   3.968  12.365  5.3710 -0.6558 -0.6828
   74MOL0     H 9947   9.730   4.085  12.248  1.5886  1.7400 -0.0367
   74MOL0     H 9948  10.007   3.949  12.265  0.2752  0.6998 -1.4135
   74MOL0     H 9949   9.977   4.105  12.305 -0.9991 -1.0750  1.9785
   74MOL0     H 9950   9.951   4.238  11.927  0.9661 -0.9627 -1.1465
   74MOL0     H 9951  10.150   4.397  11.873  1.0855 -0.7647 -1.1365
   74MOL0     H 9952  10.727   4.293  11.811 -1.0565  0.3503 -1.2231
   74MOL0     H 9953  10.945   4.386  11.840  0.3192 -2.1274  1.0822
   74MOL0     H 9954  11.078   4.677  11.887 -1.5736  1.7887 -0.0188
   74MOL0     H 9955  10.921   4.695  11.964 -1.9992 -4.0867  1.1449
   74MOL0     H 9956  11.047   4.762  12.183 -2.7537  1.4008 -0.0517
   74MOL0     H 9957  11.195   4.745  12.083  0.4993 -0.9384 -1.4890
   74MOL0     H 9958  11.150   4.893  11.934  1.2127  0.4073  2.3253
   74MOL0     H 9959  10.981   4.936  11.994 -0.9461 -2.7508  0.1503
   74MOL0     H 9960  11.249   4.973  12.144  0.3541  0.7559  1.3071
   74MOL0     H 9961  11.086   4.995  12.203  0.3655 -2.1278  0.0540
   74MOL0     H 9962  11.046   5.163  12.015 -0.0998  0.2159 -1.4284
   74MOL0     H 9963  11.210   5.120  11.949 -0.3104  0.0667  0.1784
   74MOL0     H 9964  11.174   5.236  12.237 -1.0899 -0.4338 -1.0987
   74MOL0     H 9965  11.316   5.181  12.153 -1.2914 -2.0844  2.4973
   74MOL0     H 9966  11.119   5.420  12.103 -1.3764 -3.0214  0.0056
   74MOL0     H 9967  11.222   5.374  11.974 -3.5236  1.2671 -0.3564
   74MOL0     H 9968  11.353   5.450  12.247 -1.1145  3.4283  0.8460
   74MOL0     H 9969  11.422   5.408  12.091  1.7098  0.8137  3.0232
   74MOL0     H 9970  10.845   4.558  12.211 -0.1168 -0.8682  1.1494
   74MOL0     H 9971  10.599   4.462  12.200 -1.2256  0.7651 -0.8170
   74MOL0     H 9972  10.396   4.153  12.136  0.9683 -3.2068 -4.6056
   74MOL0     H 9973  10.210   4.021  12.199  5.3217  0.9322 -0.6046
   74MOL0     H 9974   9.079   3.238  10.979  2.5752  0.7050  0.1662
   74MOL0     H 9975   8.950   3.028  11.051 -0.0390  3.3396 -3.6873
   74MOL0     H 9976   8.908   2.677  11.243 -0.2414 -2.3029 -0.1391
   74MOL0     H 9977   8.742   2.489  11.289  2.5270  0.1885 -1.9187
   74MOL0     H 9978   8.520   2.342  11.402  0.5574 -0.0319 -0.1433
   74MOL0     H 9979   8.502   2.462  11.537  0.1374 -0.5925  2.2209
   74MOL0     H 9980   8.409   2.251  11.631  1.1276 -2.2757  1.3902
   74MOL0     H 9981   8.561   2.248  11.692  2.1289  0.9615 -0.7165
   74MOL0     H 9982   8.629   2.075  11.515 -0.0725  0.2272  1.9988
   74MOL0     H 9983   8.477   2.107  11.416  0.8850 -4.8619 -1.1958
   74MOL0     H 9984   8.442   1.988  11.682  0.1971 -0.6455  0.5321
   74MOL0     H 9985   8.332   2.000  11.561 -0.1401 -0.4549  0.4202
   74MOL0     H 9986   8.543   1.682  11.368  1.9664  0.9203  0.6358
   74MOL0     H 9987   8.788   2.534  11.693  1.1424 -0.1881 -0.1739
   74MOL0     H 9988   9.054   2.781  11.687 -0.1308  0.2700  1.0942
   74MOL0     H 9989   8.912   2.874  11.687  5.8483  3.5670 -3.1363
   74MOL0     H 9990   8.925   2.723  11.793  0.8688 -2.1883 -1.6263
   75MOL0     O 9991   8.909  10.509   8.467 -0.6509  0.4187 -0.0902
   75MOL0     C 9992   8.927  10.512   8.346  0.2143  0.1963  0.2941
   75MOL0     O 9993   8.846  10.595   8.268  0.0803  0.3454  1.1367
   75MOL0     C 9994   8.785  10.705   8.322 -0.1936 -0.1616  1.0975
   75MOL0     C 9995   8.652  10.715   8.318  0.1099  0.0927  0.7634
   75MOL0     C 9996   8.584  10.821   8.377 -0.7157  0.6625 -0.4254
   75MOL0     C 9997   8.664  10.922   8.436 -0.2235 -0.5883 -0.4537
   75MOL0     O 9998   8.599  11.023   8.504  0.4013  0.3530 -0.2797
   75MOL0     C 9999   8.664  11.102   8.602  0.6120  0.4047  1.4345
   75MOL0     C10000   8.598  11.227   8.647  0.7222  0.6440 -0.7707
   75MOL0     C10001   8.679  11.296   8.760  0.8215 -0.8323  0.4125
   75MOL0     C10002   8.594  11.364   8.850  0.5856 -0.4577  0.0773
   75MOL0     C10003   8.671  11.443   8.962  0.9346  0.0961  0.6604
   75MOL0     C10004   8.662  11.388   9.102  0.3398  0.2943  0.5640
   75MOL0     C10005   8.761  11.466   9.183 -1.5554 -0.3074 -0.0221
   75MOL0     C10006   8.736  11.419   9.325  0.6579 -0.0311  0.0492
   75MOL0     N10007   8.629  11.490   9.400 -0.1026  1.1427  0.8330
   75MOL0     C10008   8.644  11.607   9.456  0.0908 -0.2549 -0.1692
   75MOL0     C10009   8.528  11.630   9.531 -0.3697  0.2143  0.0254
   75MOL0     C10010   8.487  11.760   9.594  0.6093 -0.5597  0.1371
   75MOL0     C10011   8.340  11.773   9.637  0.1951  1.6058 -0.5916
   75MOL0     C10012   8.305  11.913   9.690  0.4246 -0.0358  0.2769
   75MOL0     C10013   8.149  11.935   9.706  0.0015  2.0420 -0.7574
   75MOL0     O10014   8.081  11.917   9.585  0.5446 -0.1902  0.3297
   75MOL0     C10015   8.105  12.012   9.484 -0.4885  0.1513 -0.0403
   75MOL0     C10016   8.131  12.141   9.508  0.5520  0.9831  0.4171
   75MOL0     C10017   8.147  12.229   9.412  0.0181  0.7025  0.3353
   75MOL0     C10018   8.169  12.189   9.281  0.1633  0.0835 -0.3079
   75MOL0     C10019   8.196  12.286   9.172  0.2422  0.0094 -0.7660
   75MOL0     O10020   8.230  12.415   9.205 -0.0788  0.0155 -0.1132
   75MOL0     C10021   8.240  12.504   9.099 -0.0361 -0.5577 -0.3306
   75MOL0     C10022   8.132  12.589   9.075 -0.5001 -0.5032  0.2490
   75MOL0     C10023   8.138  12.696   8.989  0.7152  0.0133  1.1643
   75MOL0     C10024   8.243  12.714   8.901  0.0277  0.0426 -0.3812
   75MOL0     O10025   8.238  12.816   8.805  1.0268 -0.2785 -0.5852
   75MOL0     C10026   8.351  12.838   8.720  0.2667  0.4947  0.4490
   75MOL0     C10027   8.302  12.922   8.596  0.0798  0.1709 -0.3261
   75MOL0     C10028   8.424  12.935   8.509  0.1104  0.1051 -1.3099
   75MOL0     C10029   8.390  13.039   8.393 -0.3111 -1.1667  0.3035
   75MOL0     C10030   8.516  13.103   8.330 -0.4486  0.2830 -0.3986
   75MOL0     C10031   8.481  13.215   8.238  0.4789  0.4200  0.2373
   75MOL0     C10032   8.580  13.265   8.140  0.2061  0.2268  0.0725
   75MOL0     C10033   8.513  13.381   8.067  0.7000 -0.0964 -0.0359
   75MOL0    Cl10034   8.594  13.408   7.913  0.1744  0.4889 -0.0634
   75MOL0     C10035   8.357  12.641   8.940 -0.4839  0.6906 -0.9756
   75MOL0     C10036   8.363  12.540   9.041  0.4019  0.3331  0.9497
   75MOL0     O10037   8.197  12.250   9.056  0.0633  0.6042 -0.8014
   75MOL0     C10038   8.158  12.051   9.254 -0.2129  0.1886  0.4815
   75MOL0     C10039   8.114  11.965   9.351  0.0340  0.1186  0.2276
   75MOL0     N10040   8.459  11.513   9.543 -0.5168 -0.0781  0.0646
   75MOL0     N10041   8.525  11.427   9.469  0.0415 -0.2581  0.3896
   75MOL0     C10042   8.804  10.908   8.430 -0.8547 -0.2298 -0.3047
   75MOL0     C10043   8.871  10.799   8.366 -0.8624  0.8943  0.4349
   75MOL0     C10044   9.015  10.425   8.271  0.0825  0.9030 -1.3804
   75MOL0     C10045   8.997  10.401   8.138 -0.0963 -1.3578 -0.1634
   75MOL0     C10046   9.098  10.331   8.066  0.0721 -0.3424 -0.8951
   75MOL0     C10047   9.199  10.264   8.128 -0.6893  0.2556  1.0466
   75MOL0     O10048   9.278  10.176   8.051  0.2411 -0.3785 -0.1503
   75MOL0     C10049   9.378  10.092   8.105  0.7097  0.4268  0.6251
   75MOL0     C10050   9.442  10.010   7.992  0.4405 -0.4806 -0.2444
   75MOL0     C10051   9.583   9.968   8.019  0.3598  0.0767 -0.0288
   75MOL0     C10052   9.660   9.920   7.896 -0.9809  0.1393 -0.5539
   75MOL0     C10053   9.749  10.031   7.836 -0.0302  0.7015  0.7990
   75MOL0     C10054   9.812  10.128   7.785 -0.6769  1.0163  0.6280
   75MOL0     C10055   9.214  10.283   8.263  1.1837 -0.1144  0.8439
   75MOL0     C10056   9.128  10.362   8.340  0.2507  1.4232  0.3966
   75MOL0     C10057   9.167  10.383   8.481 -0.0144  0.6164 -1.0641
   75MOL0     H10058   8.607  10.624   8.279  1.8815 -0.3115 -0.4185
   75MOL0     H10059   8.478  10.830   8.397 -0.4738  1.7427  0.4766
   75MOL0     H10060   8.666  11.040   8.692  1.2621  1.4924  2.2056
   75MOL0     H10061   8.766  11.131   8.574  0.3318 -0.5948 -0.8580
   75MOL0     H10062   8.499  11.205   8.687  1.4399  1.7538  1.8142
   75MOL0     H10063   8.589  11.306   8.572 -1.2348  1.9509  0.7554
   75MOL0     H10064   8.749  11.373   8.724  0.0689  1.7930  3.9907
   75MOL0     H10065   8.732  11.229   8.829 -0.7279 -0.1197  2.4123
   75MOL0     H10066   8.535  11.436   8.792  1.2920  0.5408  0.5478
   75MOL0     H10067   8.531  11.291   8.901 -0.7597  0.6353  0.0446
   75MOL0     H10068   8.773  11.468   8.932  0.4789 -0.3167 -1.4292
   75MOL0     H10069   8.613  11.535   8.976 -2.1137 -1.4265 -0.9824
   75MOL0     H10070   8.560  11.389   9.141 -0.2383 -1.9485 -0.7055
   75MOL0     H10071   8.689  11.282   9.096  2.2638  0.7512  0.3987
   75MOL0     H10072   8.754  11.575   9.182 -1.4528 -0.2618 -2.6344
   75MOL0     H10073   8.849  11.424   9.134 -1.1154 -3.7435  3.2769
   75MOL0     H10074   8.705  11.314   9.328 -1.9801  0.6744 -0.1737
   75MOL0     H10075   8.829  11.423   9.383  0.8772  1.3649 -0.3556
   75MOL0     H10076   8.702  11.689   9.416 -0.2347 -0.0501 -0.2230
   75MOL0     H10077   8.559  11.781   9.674  0.5480  0.9060 -0.1522
   75MOL0     H10078   8.508  11.836   9.518 -1.8438  1.2782  1.1451
   75MOL0     H10079   8.280  11.744   9.550 -0.1318  0.4665 -0.0045
   75MOL0     H10080   8.319  11.692   9.708  1.2010 -1.1005 -3.1363
   75MOL0     H10081   8.336  11.991   9.619  1.6736 -1.4659 -0.8320
   75MOL0     H10082   8.356  11.923   9.786 -1.0042  0.4975  1.0018
   75MOL0     H10083   8.126  12.030   9.756 -1.1684  1.3617  0.0357
   75MOL0     H10084   8.116  11.852   9.769 -2.4817  2.2685 -1.6678
   75MOL0     H10085   8.112  12.190   9.603 -2.9745 -0.0114  0.3579
   75MOL0     H10086   8.158  12.333   9.442  1.2327  0.9622 -0.9163
   75MOL0     H10087   8.040  12.557   9.123 -0.8191 -3.1059 -1.8460
   75MOL0     H10088   8.048  12.749   8.958  1.5654 -1.2372 -4.5532
   75MOL0     H10089   8.422  12.900   8.775 -0.1036 -0.2354  1.7923
   75MOL0     H10090   8.392  12.739   8.697 -0.4690  0.1522  0.5982
   75MOL0     H10091   8.225  12.870   8.539 -0.6263  0.1254  0.6457
   75MOL0     H10092   8.276  13.018   8.641  1.5371 -0.6974  2.6587
   75MOL0     H10093   8.507  12.979   8.564 -1.2047  2.5756 -1.1669
   75MOL0     H10094   8.449  12.839   8.461 -1.1600 -0.7210 -0.3731
   75MOL0     H10095   8.330  13.125   8.425 -1.8444 -2.0102 -0.2072
   75MOL0     H10096   8.330  12.985   8.319  3.3738 -1.0046 -3.1788
   75MOL0     H10097   8.587  13.030   8.290 -0.1940  1.4260 -2.1115
   75MOL0     H10098   8.567  13.147   8.416  2.5353 -0.5402 -1.6353
   75MOL0     H10099   8.396  13.174   8.183  0.1311  0.5332  0.6805
   75MOL0     H10100   8.458  13.296   8.309  3.5380  0.4800  1.3090
   75MOL0     H10101   8.602  13.180   8.075 -3.2948 -0.6216 -0.1806
   75MOL0     H10102   8.668  13.289   8.200  0.1837 -2.7554  1.4921
   75MOL0     H10103   8.404  13.371   8.062  0.6883  0.1103 -0.2358
   75MOL0     H10104   8.541  13.475   8.115  0.2057 -0.4014  0.8709
   75MOL0     H10105   8.456  12.657   8.896  1.0595  0.7544  2.2111
   75MOL0     H10106   8.461  12.505   9.071  0.6442  2.7808  3.4227
   75MOL0     H10107   8.176  12.014   9.154  1.9830  2.7498 -0.1963
   75MOL0     H10108   8.099  11.859   9.332 -0.6787  0.3799 -0.7283
   75MOL0     H10109   8.867  10.973   8.491 -1.4863 -1.0930  1.3193
   75MOL0     H10110   8.976  10.772   8.355 -2.0925 -4.5266 -0.7127
   75MOL0     H10111   8.911  10.444   8.087  0.0826 -2.7605 -1.7023
   75MOL0     H10112   9.078  10.330   7.959  1.0698 -2.9496 -1.1259
   75MOL0     H10113   9.342  10.021   8.180  1.3423 -0.7294 -0.1480
   75MOL0     H10114   9.453  10.153   8.156 -0.8103  0.2091  3.3045
   75MOL0     H10115   9.447  10.073   7.903 -2.3383  1.7497  1.0045
   75MOL0     H10116   9.380   9.924   7.963 -2.3194  0.1968  3.0824
   75MOL0     H10117   9.578   9.882   8.086 -0.6831  2.0466  2.6268
   75MOL0     H10118   9.638  10.057   8.051  0.0771  1.7240 -3.6061
   75MOL0     H10119   9.733   9.844   7.924  0.3908  1.3895 -0.6230
   75MOL0     H10120   9.586   9.883   7.824 -1.9117 -1.0611  0.9514
   75MOL0     H10121   9.867  10.206   7.736  0.0658  0.4276  0.5079
   75MOL0     H10122   9.290  10.226   8.316  0.3556  0.5314  2.8220
   75MOL0     H10123   9.268  10.352   8.509 -0.9217 -3.4427 -1.6432
   75MOL0     H10124   9.155  10.490   8.496  1.2470  1.1463 -3.3000
   75MOL0     H10125   9.092  10.335   8.545  0.1209 -3.1527 -3.4175
   76MOL0     O10126   6.290   3.330   0.481  0.0483 -0.3036 -1.1060
   76MOL0     C10127   6.387   3.396   0.446 -1.2930 -0.2600 -0.4138
   76MOL0     O10128   6.420   3.516   0.502 -0.3533  0.0283 -0.3471
   76MOL0     C10129   6.364   3.546   0.631 -0.8903  1.2096  0.2259
   76MOL0     C10130   6.233   3.568   0.650 -0.3201 -0.1131 -0.0719
   76MOL0     C10131   6.172   3.620   0.769  0.5013 -0.3127  0.6809
   76MOL0     C10132   6.262   3.636   0.876 -0.4054  0.3719  0.3380
   76MOL0     O10133   6.205   3.687   0.986  0.5985 -0.4877 -0.4984
   76MOL0     C10134   6.274   3.766   1.079 -0.1270  0.0006  0.6418
   76MOL0     C10135   6.320   3.899   1.018 -0.1732 -0.1834  0.3082
   76MOL0     C10136   6.207   3.986   0.971  0.7707 -0.8333  0.2019
   76MOL0     C10137   6.153   3.951   0.828  0.2056 -0.4594 -0.1781
   76MOL0     C10138   6.045   4.057   0.792  0.8076  0.2285  0.3575
   76MOL0     C10139   5.956   3.996   0.677 -0.7431 -0.1021  1.5781
   76MOL0     C10140   5.996   4.033   0.534 -0.1218 -0.9419  0.6464
   76MOL0     C10141   5.890   3.964   0.435 -0.4627 -0.2163 -0.5978
   76MOL0     N10142   5.890   3.820   0.434  0.1387 -0.2108  0.5455
   76MOL0     C10143   5.994   3.745   0.396  0.3207 -0.2081  0.2747
   76MOL0     C10144   5.939   3.623   0.369  0.1103  0.3420 -0.0259
   76MOL0     C10145   6.013   3.503   0.328  0.0964  0.4242  0.4834
   76MOL0     C10146   5.977   3.442   0.186  0.3379  0.5309 -0.1524
   76MOL0     C10147   5.824   3.433   0.156 -0.3171 -0.3130  0.2304
   76MOL0     C10148   5.758   3.335   0.246  0.8428  0.0229 -1.3932
   76MOL0     O10149   5.810   3.203   0.220  0.5090  0.7135  0.2871
   76MOL0     C10150   5.771   3.096   0.305  0.6545 -0.3608 -0.7978
   76MOL0     C10151   5.676   3.106   0.412  0.8855 -0.1489 -0.0026
   76MOL0     C10152   5.636   2.995   0.491  0.0095 -0.0063  0.2216
   76MOL0     C10153   5.688   2.872   0.449 -0.2242  0.7694 -0.1209
   76MOL0     C10154   5.628   2.745   0.511 -0.6784  0.1863  0.4874
   76MOL0     O10155   5.665   2.628   0.451  0.6273  0.3592  0.4713
   76MOL0     C10156   5.624   2.499   0.497  0.3158  0.4595 -0.5087
   76MOL0     C10157   5.563   2.407   0.404 -0.5102 -0.8187 -0.2478
   76MOL0     C10158   5.541   2.276   0.439 -0.1422  0.6175  1.3392
   76MOL0     C10159   5.579   2.230   0.564  0.2335 -0.2980  0.2798
   76MOL0     O10160   5.546   2.103   0.601  0.3278 -0.1971 -0.0269
   76MOL0     C10161   5.612   2.041   0.717  1.1747 -0.4250 -0.5483
   76MOL0     C10162   5.581   1.901   0.725  0.8373 -0.5174  0.6671
   76MOL0     C10163   5.650   1.833   0.838  0.5506  0.5954 -0.3043
   76MOL0     C10164   5.616   1.894   0.980 -0.5650  0.8777 -0.4257
   76MOL0     C10165   5.688   1.826   1.095  0.2457  0.2710  0.4516
   76MOL0     C10166   5.624   1.860   1.233 -0.0265 -0.5304 -0.3933
   76MOL0     C10167   5.715   1.827   1.349 -0.3665  0.1921 -0.3458
   76MOL0     C10168   5.632   1.806   1.470  0.0938 -0.9320 -0.7523
   76MOL0    Cl10169   5.735   1.734   1.602 -0.4140 -0.3007 -0.0526
   76MOL0     C10170   5.625   2.325   0.658 -0.4337  0.4930 -0.5433
   76MOL0     C10171   5.657   2.451   0.626 -0.9017  0.4539  0.3776
   76MOL0     O10172   5.543   2.758   0.593  0.3429  0.2896  0.3785
   76MOL0     C10173   5.778   2.859   0.346 -0.1976 -0.2606  0.5573
   76MOL0     C10174   5.810   2.975   0.275 -0.2583  0.2369  0.7980
   76MOL0     N10175   5.799   3.625   0.403 -0.1816 -0.2601  0.6408
   76MOL0     N10176   5.776   3.743   0.444  0.4382  0.5397 -0.1103
   76MOL0     C10177   6.398   3.617   0.860 -0.7873  0.3728 -0.1531
   76MOL0     C10178   6.448   3.585   0.733 -0.5467 -0.3865 -0.7977
   76MOL0     C10179   6.492   3.353   0.342  0.1720 -0.8495 -0.4010
   76MOL0     C10180   6.564   3.464   0.296 -0.2187  0.1265  0.1735
   76MOL0     C10181   6.677   3.438   0.222  0.1366 -0.3490  1.0803
   76MOL0     C10182   6.702   3.310   0.166  0.6005  0.4550  0.6669
   76MOL0     O10183   6.800   3.303   0.076  0.1761 -0.0536  0.0109
   76MOL0     C10184   6.851   3.177   0.039  1.0969  0.8414 -0.0592
   76MOL0     C10185   6.985   3.192  -0.038  0.2586  0.4094 -0.6607
   76MOL0     C10186   6.985   3.108  -0.173  0.2149 -0.7232  1.4242
   76MOL0     C10187   7.064   3.171  -0.281  0.2948 -0.8320  0.1643
   76MOL0     C10188   7.107   3.064  -0.378  0.2529 -1.0234  0.0948
   76MOL0     C10189   7.143   2.981  -0.462 -1.5145 -0.4106 -0.2920
   76MOL0     C10190   6.622   3.201   0.207 -0.4429 -0.0335 -0.0418
   76MOL0     C10191   6.527   3.220   0.304 -0.4688 -0.3239  1.0182
   76MOL0     C10192   6.454   3.104   0.359  0.8136 -0.2931  0.6818
   76MOL0     H10193   6.160   3.547   0.572  0.9144  0.7734 -1.5207
   76MOL0     H10194   6.067   3.648   0.769  1.0306  1.9399 -0.8063
   76MOL0     H10195   6.200   3.794   1.155 -0.6409  0.1324  0.0975
   76MOL0     H10196   6.357   3.709   1.121  0.2744  0.6564  0.7557
   76MOL0     H10197   6.394   3.874   0.942 -0.7031 -4.9402  1.0309
   76MOL0     H10198   6.370   3.954   1.098  0.3187  2.7460 -1.8577
   76MOL0     H10199   6.243   4.089   0.964 -0.9986  0.0316  2.4918
   76MOL0     H10200   6.134   3.986   1.052  0.2357  1.1602 -0.2381
   76MOL0     H10201   6.226   3.954   0.747  0.7220  0.0191  0.3007
   76MOL0     H10202   6.108   3.851   0.834  2.8038 -1.6660  0.2073
   76MOL0     H10203   5.984   4.072   0.881 -0.2037  0.5268 -0.3695
   76MOL0     H10204   6.095   4.151   0.770 -0.3189  1.4914  2.8718
   76MOL0     H10205   5.957   3.887   0.677 -2.8361 -0.2501 -1.8115
   76MOL0     H10206   5.848   4.011   0.682 -1.6717 -4.4729 -0.6023
   76MOL0     H10207   6.097   4.003   0.504  1.3097  2.6425  1.4121
   76MOL0     H10208   6.000   4.141   0.515  1.8323 -1.0907 -0.0219
   76MOL0     H10209   5.788   4.000   0.455  0.3629  0.0456  4.4255
   76MOL0     H10210   5.916   4.005   0.336  0.4458  1.2761  0.2195
   76MOL0     H10211   6.099   3.773   0.385 -0.0338  1.5333  1.0073
   76MOL0     H10212   6.120   3.527   0.333 -0.4473  2.8729  2.4975
   76MOL0     H10213   5.983   3.431   0.404  1.6907  0.7639  1.4767
   76MOL0     H10214   6.028   3.501   0.109  2.1662  1.4615  1.6749
   76MOL0     H10215   6.018   3.342   0.164  1.1285  1.2858 -2.4145
   76MOL0     H10216   5.815   3.407   0.050 -2.0269  2.8784 -0.5432
   76MOL0     H10217   5.774   3.526   0.184 -1.5525 -1.0876  0.7131
   76MOL0     H10218   5.651   3.327   0.226  0.8744  2.3080 -2.8314
   76MOL0     H10219   5.777   3.355   0.351  3.0128 -1.3393 -1.4541
   76MOL0     H10220   5.635   3.200   0.447 -1.2274 -1.2957  0.7799
   76MOL0     H10221   5.567   3.018   0.571 -1.1841  0.0035 -0.7819
   76MOL0     H10222   5.545   2.443   0.303  1.1446  1.1912  0.1131
   76MOL0     H10223   5.500   2.216   0.358  0.9993  1.6603 -0.0717
   76MOL0     H10224   5.721   2.050   0.713  1.0384  1.1184 -2.3264
   76MOL0     H10225   5.587   2.099   0.806 -0.4691  0.4277 -1.5091
   76MOL0     H10226   5.475   1.877   0.721  1.1838 -2.5054  1.9062
   76MOL0     H10227   5.628   1.859   0.636 -0.0531  0.2756 -0.2033
   76MOL0     H10228   5.613   1.731   0.853  1.0063  0.6155  1.1803
   76MOL0     H10229   5.757   1.842   0.817  1.2652 -0.8218  2.2332
   76MOL0     H10230   5.510   1.894   1.006 -0.4435  1.3378  0.0665
   76MOL0     H10231   5.662   1.993   0.976  3.4835 -0.8390 -2.0322
   76MOL0     H10232   5.794   1.851   1.091  0.6514 -1.3807 -0.2775
   76MOL0     H10233   5.687   1.719   1.072 -0.0010  0.2265  0.6681
   76MOL0     H10234   5.607   1.968   1.224  0.4265 -0.2350  1.7439
   76MOL0     H10235   5.529   1.807   1.242 -0.0215 -0.1297  3.3671
   76MOL0     H10236   5.777   1.915   1.370  1.0226 -0.8236 -0.0603
   76MOL0     H10237   5.781   1.742   1.332  1.3082  1.1336  1.0965
   76MOL0     H10238   5.596   1.903   1.506  0.9430 -0.8456 -0.1093
   76MOL0     H10239   5.550   1.733   1.467 -2.0688  1.3328 -0.0636
   76MOL0     H10240   5.626   2.291   0.761 -3.2627  0.6673 -0.3731
   76MOL0     H10241   5.682   2.521   0.705  0.5365  0.0730  0.2833
   76MOL0     H10242   5.820   2.764   0.313  2.2371  0.6778  0.6945
   76MOL0     H10243   5.865   2.950   0.185  0.6191  1.9461  0.8134
   76MOL0     H10244   6.468   3.637   0.941 -0.5474 -1.0397  0.0125
   76MOL0     H10245   6.555   3.578   0.715 -0.0636  1.5192  0.9447
   76MOL0     H10246   6.547   3.565   0.332 -1.1167  0.4128 -1.0061
   76MOL0     H10247   6.739   3.524   0.198 -0.7725  0.1468  0.4704
   76MOL0     H10248   6.780   3.116  -0.018 -0.5107  2.5132  0.0519
   76MOL0     H10249   6.873   3.115   0.127  1.3527  0.5937 -0.2923
   76MOL0     H10250   7.076   3.167   0.018 -1.1735  1.4210  2.3240
   76MOL0     H10251   6.997   3.296  -0.069 -0.0590  0.7003  0.1619
   76MOL0     H10252   6.881   3.091  -0.201  0.4779  1.8640 -1.7661
   76MOL0     H10253   7.031   3.010  -0.159 -0.3296 -1.6741 -2.4052
   76MOL0     H10254   7.004   3.247  -0.332 -0.0378 -1.8948 -1.0929
   76MOL0     H10255   7.148   3.230  -0.242 -0.9861  0.5122  1.0041
   76MOL0     H10256   7.184   2.922  -0.542 -0.7697  3.7823 -3.3553
   76MOL0     H10257   6.640   3.098   0.176  0.1832 -0.7404  2.4612
   76MOL0     H10258   6.451   3.097   0.468 -1.2890 -0.9683  0.6141
   76MOL0     H10259   6.356   3.105   0.311  1.4316  0.0517 -0.6253
   76MOL0     H10260   6.502   3.008   0.334 -0.1896 -0.2022 -1.8695
   77MOL0     O10261   9.771   9.663   0.618  0.6578  0.5507 -1.1385
   77MOL0     C10262   9.676   9.612   0.678 -0.5183 -0.6633  0.4171
   77MOL0     O10263   9.586   9.683   0.753  0.3253 -0.4324  0.2791
   77MOL0     C10264   9.615   9.808   0.799 -0.3609 -0.3757 -0.0693
   77MOL0     C10265   9.562   9.830   0.921 -0.7875  0.2232 -0.0835
   77MOL0     C10266   9.559   9.949   0.988 -1.1296 -0.1745  0.7489
   77MOL0     C10267   9.636  10.052   0.923  0.6541  0.6657  0.0450
   77MOL0     O10268   9.647  10.178   0.956  0.8084 -0.2928 -1.1485
   77MOL0     C10269   9.577  10.215   1.081  0.6476  0.1994  0.0468
   77MOL0     C10270   9.612  10.353   1.129  0.4196 -0.3451 -0.2470
   77MOL0     C10271   9.582  10.455   1.027 -0.7265 -1.0900 -0.3218
   77MOL0     C10272   9.605  10.602   1.081  0.6722 -0.6247 -0.1521
   77MOL0     C10273   9.747  10.652   1.034  0.4078  0.0704  0.6868
   77MOL0     C10274   9.787  10.792   1.091 -0.2751 -0.5159 -0.0168
   77MOL0     C10275   9.937  10.808   1.109  0.3542  0.7847 -0.9415
   77MOL0     C10276   9.996  10.754   1.244 -0.1013 -0.2010  0.0552
   77MOL0     N10277  10.005  10.609   1.252 -0.5589  0.5483 -0.7990
   77MOL0     C10278  10.073  10.528   1.160 -1.4536 -0.2477  0.0080
   77MOL0     C10279  10.040  10.403   1.204 -0.1219  0.2562  0.8668
   77MOL0     C10280  10.087  10.270   1.160 -0.3956  0.0948 -0.5064
   77MOL0     C10281   9.969  10.178   1.126 -0.4988  0.3729 -0.0264
   77MOL0     C10282  10.025  10.044   1.076 -0.9700  0.0502 -0.3540
   77MOL0     C10283  10.129   9.961   1.166  0.0784  0.5843 -0.1936
   77MOL0     O10284  10.174   9.842   1.112 -0.0134  0.2283 -0.9120
   77MOL0     C10285  10.248   9.820   0.996 -0.2811 -0.5536 -0.1843
   77MOL0     C10286  10.312   9.923   0.924 -0.0652  0.4009  0.1699
   77MOL0     C10287  10.384   9.898   0.804  0.2768 -0.7148 -0.3693
   77MOL0     C10288  10.398   9.763   0.762 -0.0030  0.3151  0.6018
   77MOL0     C10289  10.476   9.733   0.638 -0.7553  0.3583 -0.3902
   77MOL0     O10290  10.482   9.603   0.588  0.0756  0.0465 -0.3411
   77MOL0     C10291  10.562   9.568   0.484  0.8838 -0.0934  0.1012
   77MOL0     C10292  10.600   9.653   0.383 -0.2119  0.4777 -0.1111
   77MOL0     C10293  10.674   9.598   0.275 -1.0221 -0.0461  0.5042
   77MOL0     C10294  10.721   9.463   0.278 -0.2436 -0.5691  0.2579
   77MOL0     O10295  10.795   9.399   0.185 -0.0076 -0.8289  0.5012
   77MOL0     C10296  10.805   9.452   0.052  0.2172 -0.1241 -0.1682
   77MOL0     C10297  10.674   9.453  -0.028  0.4629 -0.0031  0.0497
   77MOL0     C10298  10.636   9.310  -0.053  0.0779 -1.2948  0.9109
   77MOL0     C10299  10.500   9.297  -0.115 -0.5715 -0.5347 -0.3358
   77MOL0     C10300  10.467   9.153  -0.154 -0.2223 -0.0095 -0.3686
   77MOL0     C10301  10.326   9.125  -0.115  0.2421  0.8191 -0.6154
   77MOL0     C10302  10.289   8.977  -0.131  1.8240  0.7563  1.1478
   77MOL0     C10303  10.135   8.942  -0.130 -0.7228  0.7391  0.1098
   77MOL0    Cl10304  10.087   8.971  -0.302  0.2758  0.1609  0.0082
   77MOL0     C10305  10.691   9.385   0.386  0.4998  0.4559  0.0252
   77MOL0     C10306  10.606   9.433   0.483 -0.2649 -1.0975 -0.0120
   77MOL0     O10307  10.539   9.827   0.597  0.2893 -0.0539  0.3207
   77MOL0     C10308  10.328   9.658   0.841  0.1390 -0.4381 -0.5535
   77MOL0     C10309  10.253   9.689   0.953 -0.3097  0.0245  1.0000
   77MOL0     N10310   9.947  10.411   1.313  0.3655 -0.2887  0.2369
   77MOL0     N10311   9.940  10.535   1.346  0.0785 -0.2055  1.0789
   77MOL0     C10312   9.700  10.026   0.801 -0.2566 -0.1284 -0.1969
   77MOL0     C10313   9.689   9.906   0.742  0.5883 -0.3668 -0.3343
   77MOL0     C10314   9.682   9.462   0.678 -1.2455  0.1176  0.5659
   77MOL0     C10315   9.773   9.405   0.586 -0.3144  0.6638  0.3827
   77MOL0     C10316   9.798   9.267   0.588 -1.3575 -0.1172  0.2188
   77MOL0     C10317   9.735   9.179   0.668 -0.9641  0.1339 -1.3694
   77MOL0     O10318   9.776   9.038   0.694  0.0039 -0.1708 -0.0138
   77MOL0     C10319   9.890   8.989   0.638  0.2221 -0.5287 -0.3708
   77MOL0     C10320   9.925   8.848   0.690 -0.3906  0.9152  0.3436
   77MOL0     C10321   9.963   8.854   0.836 -0.3394  0.1843 -0.5051
   77MOL0     C10322  10.016   8.727   0.890 -0.6070  0.6881 -1.0366
   77MOL0     C10323  10.157   8.713   0.860 -1.0916  0.0906 -0.3862
   77MOL0     C10324  10.276   8.702   0.842 -0.5250  0.5927 -0.3070
   77MOL0     C10325   9.639   9.236   0.755  0.9846  0.2847  0.4701
   77MOL0     C10326   9.603   9.374   0.756 -0.9606  0.7326  0.4821
   77MOL0     C10327   9.506   9.409   0.867 -0.4227 -0.2690 -0.3774
   77MOL0     H10328   9.501   9.747   0.956 -0.1704 -0.2397 -0.0912
   77MOL0     H10329   9.504   9.960   1.081 -1.1806  0.5604  0.6325
   77MOL0     H10330   9.469  10.207   1.076  0.6201 -0.7821  1.5834
   77MOL0     H10331   9.607  10.143   1.158 -3.5890 -0.5614  1.2252
   77MOL0     H10332   9.719  10.364   1.147  0.4579  0.2714 -0.8361
   77MOL0     H10333   9.566  10.385   1.223 -1.8093 -0.3427 -1.2738
   77MOL0     H10334   9.474  10.456   1.010 -0.8719  0.8091  0.4909
   77MOL0     H10335   9.637  10.454   0.933  0.5856  1.9272  0.2927
   77MOL0     H10336   9.533  10.667   1.031  0.0992 -1.0880  0.0718
   77MOL0     H10337   9.593  10.599   1.189  0.8609  0.6406 -0.0768
   77MOL0     H10338   9.807  10.565   1.064 -2.3896 -2.1494  0.3230
   77MOL0     H10339   9.747  10.664   0.925  0.6813 -0.6989  0.5945
   77MOL0     H10340   9.755  10.878   1.031 -0.3315 -0.8769 -0.5091
   77MOL0     H10341   9.740  10.800   1.190  3.3574  1.5303  1.7562
   77MOL0     H10342   9.947  10.914   1.132 -1.3649  0.5200  1.4730
   77MOL0     H10343   9.990  10.770   1.022  0.2280  1.4212 -1.2965
   77MOL0     H10344  10.095  10.797   1.261  0.2461 -1.3690  1.1786
   77MOL0     H10345   9.940  10.795   1.328 -2.4445  1.1344 -2.0130
   77MOL0     H10346  10.131  10.560   1.074 -3.7817  0.6767 -1.3054
   77MOL0     H10347  10.154  10.266   1.074  0.6787 -4.7091  0.2234
   77MOL0     H10348  10.132  10.227   1.250  2.7522  2.8478 -0.5819
   77MOL0     H10349   9.894  10.158   1.202  0.9916 -0.1130  1.3739
   77MOL0     H10350   9.914  10.223   1.043  2.0136  1.9390 -0.9637
   77MOL0     H10351  10.068  10.051   0.976 -2.9413 -2.0084 -1.4635
   77MOL0     H10352   9.944   9.971   1.065 -0.9513 -0.6300  3.0497
   77MOL0     H10353  10.082   9.947   1.264  0.0321  2.1184  0.0386
   77MOL0     H10354  10.217  10.021   1.192  2.1600 -2.3301 -0.1117
   77MOL0     H10355  10.303  10.030   0.942 -0.9768  0.7796 -2.2010
   77MOL0     H10356  10.422   9.986   0.754 -3.1660  1.5565  0.6851
   77MOL0     H10357  10.579   9.759   0.369  1.1090  0.4121 -3.3093
   77MOL0     H10358  10.708   9.652   0.188  0.9949  0.8209  1.7657
   77MOL0     H10359  10.843   9.554   0.042  0.8750 -0.2693  0.7011
   77MOL0     H10360  10.876   9.390  -0.004 -2.7218 -3.2358 -0.8102
   77MOL0     H10361  10.594   9.516   0.012 -0.7004  0.8868 -3.3224
   77MOL0     H10362  10.682   9.508  -0.122 -1.8634  1.8693  0.8437
   77MOL0     H10363  10.718   9.273  -0.115  0.7097  1.1689  0.1752
   77MOL0     H10364  10.635   9.254   0.041  0.5918  0.5927  2.1009
   77MOL0     H10365  10.493   9.362  -0.203 -0.3596 -1.5408 -1.1173
   77MOL0     H10366  10.432   9.339  -0.040  3.0045  2.9874  1.3220
   77MOL0     H10367  10.538   9.087  -0.103  1.6408  1.5679 -0.8006
   77MOL0     H10368  10.458   9.136  -0.262 -2.8434 -0.9794 -0.0470
   77MOL0     H10369  10.301   9.148  -0.011 -3.4078 -0.6401 -1.0514
   77MOL0     H10370  10.269   9.174  -0.195 -1.2918 -0.2824 -0.2291
   77MOL0     H10371  10.345   8.913  -0.062  1.7078 -1.6527 -0.8250
   77MOL0     H10372  10.314   8.936  -0.230 -2.9897 -0.8567  0.3317
   77MOL0     H10373  10.117   8.839  -0.101 -1.5848  0.8912  0.1564
   77MOL0     H10374  10.076   8.999  -0.057 -0.5439 -2.6294  3.1222
   77MOL0     H10375  10.732   9.284   0.389  1.4650  0.8514  0.6787
   77MOL0     H10376  10.558   9.372   0.559 -2.5036  0.0646 -0.4219
   77MOL0     H10377  10.350   9.555   0.815 -0.9201 -0.4545 -1.4177
   77MOL0     H10378  10.200   9.609   1.005 -1.5465  0.2788  0.1785
   77MOL0     H10379   9.766  10.101   0.757  1.0745 -1.3712 -0.3874
   77MOL0     H10380   9.757   9.881   0.661  1.5264 -1.2844  0.7073
   77MOL0     H10381   9.826   9.467   0.515  0.5399  1.5111  1.7187
   77MOL0     H10382   9.885   9.237   0.531 -0.1228  2.6046  0.4927
   77MOL0     H10383   9.973   9.057   0.660 -0.1954 -0.7487  2.2409
   77MOL0     H10384   9.858   8.990   0.534  1.1088 -1.7458 -0.6731
   77MOL0     H10385  10.008   8.825   0.622 -0.3883  2.3425 -0.1793
   77MOL0     H10386   9.849   8.776   0.659  0.8065  0.2826 -1.2894
   77MOL0     H10387   9.878   8.881   0.899  0.0979 -1.3485  0.8153
   77MOL0     H10388  10.046   8.926   0.848  2.2845 -2.6318 -0.4741
   77MOL0     H10389  10.001   8.725   0.998 -0.5656  0.6643 -1.0312
   77MOL0     H10390   9.956   8.646   0.847  2.9285 -2.2496 -0.8886
   77MOL0     H10391  10.378   8.674   0.830 -0.2543  1.0224  0.8867
   77MOL0     H10392   9.618   9.164   0.833  0.6082 -2.7385 -2.2107
   77MOL0     H10393   9.418   9.456   0.821 -0.0266 -0.9173 -1.8580
   77MOL0     H10394   9.480   9.327   0.934  1.6820 -1.0354 -0.4255
   77MOL0     H10395   9.553   9.476   0.939  0.0329 -2.1820  1.2022
   78MOL0     O10396   7.096  10.342   8.081 -0.7990 -0.5521  0.1736
   78MOL0     C10397   7.075  10.322   8.196 -0.4266  1.3807 -0.1759
   78MOL0     O10398   7.042  10.200   8.252  0.0040  0.0923 -0.2079
   78MOL0     C10399   7.081  10.080   8.190  1.1790  0.8838 -0.1367
   78MOL0     C10400   6.996   9.975   8.218 -1.1226  0.2846 -1.2057
   78MOL0     C10401   7.045   9.844   8.204  0.4242 -0.1866  0.9584
   78MOL0     C10402   7.169   9.821   8.143 -0.1038  0.2234  0.4552
   78MOL0     O10403   7.196   9.690   8.108  0.2042 -0.2345 -0.0470
   78MOL0     C10404   7.287   9.644   8.004  0.9565 -0.7529 -0.7244
   78MOL0     C10405   7.280   9.493   7.995  0.1057 -0.1776  0.1721
   78MOL0     C10406   7.358   9.421   8.107 -0.3642  1.1578 -0.1863
   78MOL0     C10407   7.290   9.285   8.128  0.2558 -0.1746  0.1699
   78MOL0     C10408   7.395   9.192   8.200  0.4786 -0.6770  0.2672
   78MOL0     C10409   7.440   9.233   8.342 -0.0356 -0.4543  0.4747
   78MOL0     C10410   7.333   9.206   8.451  0.6315 -0.1019 -0.8020
   78MOL0     C10411   7.361   9.276   8.586 -0.2572  0.1601  0.1466
   78MOL0     N10412   7.280   9.239   8.704 -0.1337 -0.2147 -0.0377
   78MOL0     C10413   7.147   9.210   8.701  0.6444 -0.6388 -0.5172
   78MOL0     C10414   7.120   9.195   8.834 -0.1268  0.2985  1.1952
   78MOL0     C10415   6.995   9.158   8.899 -0.4783 -0.4658  0.5118
   78MOL0     C10416   6.871   9.183   8.806 -0.1300 -0.4745  0.7145
   78MOL0     C10417   6.737   9.198   8.891 -0.8290 -0.9636 -0.1714
   78MOL0     C10418   6.715   9.341   8.942  0.6278 -0.9398 -0.8077
   78MOL0     O10419   6.838   9.404   8.998  0.3939 -0.0148  0.6248
   78MOL0     C10420   6.824   9.532   9.034 -1.3234 -0.5193  1.0313
   78MOL0     C10421   6.736   9.620   8.964 -0.2717  0.2617 -0.4553
   78MOL0     C10422   6.720   9.747   9.008 -0.2517 -0.0299  0.6449
   78MOL0     C10423   6.793   9.789   9.127  0.2365 -0.3021  0.2453
   78MOL0     C10424   6.787   9.931   9.179 -0.3395  1.0478  0.5990
   78MOL0     O10425   6.900   9.991   9.234 -1.2315 -0.1984  0.0807
   78MOL0     C10426   6.879  10.119   9.290  0.8951 -1.0687  0.4092
   78MOL0     C10427   6.859  10.233   9.211  0.3574  1.0736  0.2686
   78MOL0     C10428   6.827  10.354   9.272  0.2324 -0.2841 -1.1243
   78MOL0     C10429   6.815  10.360   9.414 -0.0188  0.8897  0.3794
   78MOL0     O10430   6.784  10.480   9.482 -0.1569 -0.1110 -0.0293
   78MOL0     C10431   6.680  10.571   9.438 -0.4351  1.6557 -0.5146
   78MOL0     C10432   6.648  10.682   9.537 -0.3069  0.3647  0.2652
   78MOL0     C10433   6.756  10.785   9.548  0.2680 -0.5687  0.2497
   78MOL0     C10434   6.816  10.786   9.692 -0.4119  0.1352  0.3771
   78MOL0     C10435   6.910  10.905   9.714 -0.4781  0.5273  0.4189
   78MOL0     C10436   6.850  11.044   9.720 -0.0630 -0.2782  0.3183
   78MOL0     C10437   6.962  11.142   9.755 -0.0179 -0.4812 -0.8355
   78MOL0     C10438   6.911  11.287   9.783  0.1265  0.1490  0.4841
   78MOL0    Cl10439   6.808  11.263   9.932 -0.4380 -0.2615 -0.0813
   78MOL0     C10440   6.848  10.246   9.491 -0.5692  0.9564 -0.9517
   78MOL0     C10441   6.871  10.120   9.425  0.6415 -0.6734 -1.2802
   78MOL0     O10442   6.680   9.982   9.148  0.2684 -0.3961  0.4714
   78MOL0     C10443   6.887   9.707   9.194 -1.0635 -0.3006 -0.2130
   78MOL0     C10444   6.909   9.581   9.133 -0.4287 -0.8156  1.4246
   78MOL0     N10445   7.235   9.223   8.907  0.0754 -0.5963  0.0875
   78MOL0     N10446   7.328   9.243   8.826  0.3611 -0.2260 -0.2884
   78MOL0     C10447   7.246   9.924   8.095  0.1939 -0.6445  0.0098
   78MOL0     C10448   7.199  10.058   8.129 -0.1444  0.3334 -0.3426
   78MOL0     C10449   7.081  10.426   8.296 -1.0409  1.0275 -0.6958
   78MOL0     C10450   7.194  10.519   8.290  0.0563  0.2491 -0.3243
   78MOL0     C10451   7.218  10.622   8.382  0.2073 -0.2104  0.0271
   78MOL0     C10452   7.127  10.637   8.488  0.8350 -0.3035  0.2980
   78MOL0     O10453   7.169  10.732   8.576 -0.4544 -0.0333 -0.0940
   78MOL0     C10454   7.103  10.751   8.695 -0.0884  0.5509 -0.9024
   78MOL0     C10455   7.188  10.782   8.817  0.2768 -0.0731 -0.0265
   78MOL0     C10456   7.263  10.909   8.799  0.4061 -0.2556 -0.0722
   78MOL0     C10457   7.334  10.929   8.938  0.5950 -0.2006 -0.4120
   78MOL0     C10458   7.418  11.047   8.941  0.2292  0.0146 -0.0566
   78MOL0     C10459   7.498  11.136   8.925 -0.2349 -0.0996 -0.3289
   78MOL0     C10460   7.005  10.563   8.488 -0.2427 -0.0290 -0.2004
   78MOL0     C10461   6.986  10.454   8.397  1.0693 -0.3480  0.3317
   78MOL0     C10462   6.857  10.383   8.414 -0.1461  0.1072  0.2394
   78MOL0     H10463   6.910  10.003   8.280  0.1150  0.7689  0.3579
   78MOL0     H10464   6.993   9.751   8.225 -2.2852  0.6317 -1.4503
   78MOL0     H10465   7.256   9.692   7.911 -1.3667  0.2764  0.4936
   78MOL0     H10466   7.391   9.676   8.016  0.0847  1.7329  1.0664
   78MOL0     H10467   7.334   9.463   7.905  3.3789  1.3583  1.4449
   78MOL0     H10468   7.175   9.461   7.993  0.6477 -2.2910  1.8800
   78MOL0     H10469   7.352   9.479   8.199 -1.6583  0.1929  0.3698
   78MOL0     H10470   7.465   9.411   8.090  0.0204  0.6437  2.1522
   78MOL0     H10471   7.200   9.303   8.188 -0.4379 -1.6969 -0.3619
   78MOL0     H10472   7.261   9.229   8.039  2.0611  0.0830 -0.6187
   78MOL0     H10473   7.373   9.085   8.187  0.8392 -1.1397  2.8893
   78MOL0     H10474   7.475   9.183   8.125 -1.7694 -1.3790 -2.2111
   78MOL0     H10475   7.531   9.177   8.364  0.4451 -0.6143 -1.6898
   78MOL0     H10476   7.471   9.338   8.339 -2.2775  0.3722  2.7574
   78MOL0     H10477   7.302   9.101   8.453  0.1299 -0.1177 -3.9830
   78MOL0     H10478   7.237   9.247   8.420 -0.0079  1.5200  2.7575
   78MOL0     H10479   7.466   9.261   8.613  0.2399  3.2268  0.3772
   78MOL0     H10480   7.359   9.385   8.571  0.8018 -0.1259 -2.4721
   78MOL0     H10481   7.074   9.208   8.620 -0.8112 -1.2127  0.7481
   78MOL0     H10482   6.985   9.053   8.930  2.0921 -0.7039  0.7016
   78MOL0     H10483   6.986   9.218   8.990 -1.7093  1.7227 -0.9438
   78MOL0     H10484   6.889   9.274   8.747  0.1733 -2.0554 -1.7793
   78MOL0     H10485   6.840   9.099   8.743 -3.6808  0.1490  1.4298
   78MOL0     H10486   6.738   9.120   8.968  1.2720 -1.4675 -0.6455
   78MOL0     H10487   6.649   9.171   8.832  0.6211 -1.1948 -2.3456
   78MOL0     H10488   6.638   9.341   9.020  0.5457 -1.2252 -0.8867
   78MOL0     H10489   6.678   9.404   8.861  1.1931  1.1226  0.4609
   78MOL0     H10490   6.677   9.603   8.875  1.3628  1.0194 -1.7298
   78MOL0     H10491   6.654   9.816   8.956 -1.8925 -3.5905 -2.5290
   78MOL0     H10492   6.878  10.227   9.104  1.6623  3.1335  0.3100
   78MOL0     H10493   6.815  10.445   9.214 -2.3122  0.3957  0.3069
   78MOL0     H10494   6.714  10.614   9.343 -1.8763  1.3881 -1.1765
   78MOL0     H10495   6.585  10.524   9.414  0.0359  0.8194 -0.7732
   78MOL0     H10496   6.557  10.735   9.507 -1.2517 -1.7189 -0.7677
   78MOL0     H10497   6.625  10.642   9.636 -0.9060 -1.0651 -0.4254
   78MOL0     H10498   6.836  10.783   9.474  0.0840 -1.7643  0.0616
   78MOL0     H10499   6.708  10.883   9.541 -2.6847 -1.7776  1.8307
   78MOL0     H10500   6.880  10.699   9.704  0.7761  1.0133  0.5616
   78MOL0     H10501   6.736  10.788   9.766  0.3380  0.7784  1.1990
   78MOL0     H10502   6.989  10.894   9.640 -0.0195  2.0827  0.6338
   78MOL0     H10503   6.971  10.885   9.803  1.4696  1.5149 -0.6416
   78MOL0     H10504   6.789  11.071   9.633 -1.6610 -0.5317  1.3213
   78MOL0     H10505   6.783  11.038   9.805 -0.1939  3.6918  0.6799
   78MOL0     H10506   7.027  11.147   9.667  0.0181 -0.9320 -0.8392
   78MOL0     H10507   7.018  11.108   9.843  0.4869  1.9721 -0.1418
   78MOL0     H10508   6.986  11.364   9.806  1.7180 -1.5293  1.1393
   78MOL0     H10509   6.861  11.326   9.693  3.8372 -1.0194 -2.3493
   78MOL0     H10510   6.850  10.261   9.598 -0.0476 -0.3276 -0.7566
   78MOL0     H10511   6.895  10.028   9.479 -0.2061  0.0360  0.3965
   78MOL0     H10512   6.951   9.736   9.276 -2.2403  2.0842 -0.0632
   78MOL0     H10513   6.989   9.519   9.172  1.9746  0.9814 -0.2982
   78MOL0     H10514   7.340   9.914   8.042 -0.1108  0.9304 -0.8949
   78MOL0     H10515   7.259  10.144   8.102 -1.7531  1.5263 -0.2416
   78MOL0     H10516   7.256  10.506   8.202 -1.3287 -0.4228 -1.2549
   78MOL0     H10517   7.304  10.687   8.372  1.0772 -1.5670 -1.8777
   78MOL0     H10518   7.052  10.659   8.727  2.3260 -0.1598  1.1917
   78MOL0     H10519   7.022  10.825   8.691 -0.3884  0.2740 -0.1102
   78MOL0     H10520   7.266  10.706   8.827  0.1691 -0.5109 -2.0794
   78MOL0     H10521   7.127  10.778   8.908 -2.1094 -1.7683 -1.5931
   78MOL0     H10522   7.199  10.995   8.777  3.6194  2.3734  0.1669
   78MOL0     H10523   7.339  10.904   8.721  1.8127 -0.5372  1.2788
   78MOL0     H10524   7.257  10.943   9.015  3.3964 -2.7194  3.2153
   78MOL0     H10525   7.388  10.835   8.953 -3.0442 -2.3376  0.6463
   78MOL0     H10526   7.551  11.226   8.901 -0.0243  0.4198  1.8432
   78MOL0     H10527   6.935  10.593   8.565 -0.0882  2.5127 -0.9500
   78MOL0     H10528   6.774  10.390   8.343  0.8486 -1.7147 -1.1993
   78MOL0     H10529   6.861  10.274   8.425 -3.0499 -0.2721 -1.3073
   78MOL0     H10530   6.806  10.429   8.499  0.1196  0.4413  0.2205
   79MOL0     O10531   1.858   7.826   7.327  0.5928 -0.4245 -0.2248
   79MOL0     C10532   1.891   7.782   7.221 -0.0077  0.9826 -0.0187
   79MOL0     O10533   1.899   7.645   7.193  0.2503 -0.0666 -0.7510
   79MOL0     C10534   1.887   7.555   7.296 -0.2915  0.3505  0.0140
   79MOL0     C10535   1.773   7.469   7.305  0.6237  0.2266  0.3071
   79MOL0     C10536   1.758   7.379   7.411  0.5625 -0.3201 -0.3740
   79MOL0     C10537   1.849   7.377   7.510 -1.0737  0.2604 -0.8821
   79MOL0     O10538   1.828   7.302   7.622  0.5063 -0.4784  0.1394
   79MOL0     C10539   1.916   7.196   7.641  0.3727  0.4804 -0.1848
   79MOL0     C10540   1.866   7.072   7.557 -0.6564  0.4491  0.0192
   79MOL0     C10541   1.720   7.022   7.584 -0.0422 -0.1618  0.7345
   79MOL0     C10542   1.660   6.960   7.465 -0.0660  0.0334  0.2641
   79MOL0     C10543   1.725   6.829   7.417  0.1836  0.2420 -0.4390
   79MOL0     C10544   1.614   6.746   7.357 -0.5931 -0.7287 -0.0439
   79MOL0     C10545   1.646   6.598   7.333  0.3663  0.2763  0.0178
   79MOL0     C10546   1.574   6.529   7.220  0.0357  0.2748  0.6851
   79MOL0     N10547   1.441   6.498   7.259  0.5537  0.3353 -0.7815
   79MOL0     C10548   1.328   6.561   7.224  0.6535  0.0394 -1.2802
   79MOL0     C10549   1.232   6.498   7.295 -0.0660  0.9186 -1.0405
   79MOL0     C10550   1.088   6.543   7.271 -0.0175  0.2019 -0.5423
   79MOL0     C10551   1.009   6.577   7.393 -0.4326  0.8031 -0.4509
   79MOL0     C10552   1.081   6.670   7.496  0.0990  0.1591 -0.2716
   79MOL0     C10553   0.997   6.747   7.597  0.8445  0.5828  0.5017
   79MOL0     O10554   0.886   6.678   7.653 -0.5909  0.0979  0.5315
   79MOL0     C10555   0.796   6.733   7.734 -0.3688 -0.3747 -0.3475
   79MOL0     C10556   0.693   6.658   7.787 -0.0704  0.2300 -0.1699
   79MOL0     C10557   0.607   6.696   7.879  0.3669 -0.4656  0.5918
   79MOL0     C10558   0.601   6.838   7.914  0.4384 -0.6319 -0.4805
   79MOL0     C10559   0.512   6.893   8.018  0.0640 -0.5755  1.0650
   79MOL0     O10560   0.436   6.808   8.094 -0.3433  0.2934  0.2641
   79MOL0     C10561   0.360   6.851   8.193 -0.9562  0.0050 -0.9209
   79MOL0     C10562   0.370   6.768   8.301 -0.2644 -0.1553 -0.4486
   79MOL0     C10563   0.290   6.786   8.416  0.4882  0.6921  0.6267
   79MOL0     C10564   0.206   6.892   8.419  0.1397 -0.6172 -0.4597
   79MOL0     O10565   0.122   6.902   8.531 -0.1061 -0.2721 -0.5380
   79MOL0     C10566   0.112   7.033   8.595 -0.2658  0.7574 -0.1196
   79MOL0     C10567   0.099   7.013   8.747 -0.2207 -0.4654 -0.3870
   79MOL0     C10568  -0.026   6.929   8.790 -1.1458 -0.3685  0.2358
   79MOL0     C10569  -0.044   6.915   8.941 -1.3633 -0.1759  0.3251
   79MOL0     C10570  -0.137   6.792   8.979 -0.5807  0.0068  0.0709
   79MOL0     C10571  -0.160   6.758   9.131 -0.6335 -0.4247 -0.1021
   79MOL0     C10572  -0.049   6.754   9.229 -0.6157  0.6868  0.1978
   79MOL0     C10573   0.057   6.646   9.188 -0.3800 -0.2665 -0.5821
   79MOL0    Cl10574   0.209   6.661   9.278 -0.1220 -0.3130 -0.4160
   79MOL0     C10575   0.210   6.988   8.323  0.9444  0.6613 -0.0222
   79MOL0     C10576   0.294   6.974   8.209  0.0550  0.5750  0.3459
   79MOL0     O10577   0.508   7.013   8.032 -0.5658 -1.2959 -0.1655
   79MOL0     C10578   0.699   6.919   7.851  0.1597  0.7995 -1.3418
   79MOL0     C10579   0.794   6.868   7.762  0.6708 -0.0016  1.2154
   79MOL0     N10580   1.286   6.389   7.368  0.2213 -0.1974  0.0398
   79MOL0     N10581   1.412   6.392   7.339 -0.1724 -0.2565 -0.0095
   79MOL0     C10582   1.960   7.467   7.507 -0.5330  0.3390  0.0568
   79MOL0     C10583   1.985   7.549   7.400 -0.7869  0.0018  0.1079
   79MOL0     C10584   1.891   7.862   7.091 -0.3815 -0.5471 -1.5552
   79MOL0     C10585   1.987   7.817   6.997  0.3155 -0.6260 -0.7980
   79MOL0     C10586   1.994   7.869   6.867  0.0047  0.1916 -0.5554
   79MOL0     C10587   1.917   7.987   6.839  0.1143  0.8559 -0.3727
   79MOL0     O10588   1.944   8.041   6.717 -0.3596 -1.2947 -0.2725
   79MOL0     C10589   1.916   8.179   6.677  0.2232  0.5800 -0.4598
   79MOL0     C10590   1.991   8.227   6.552  0.4409 -0.0686  0.7313
   79MOL0     C10591   1.961   8.379   6.536 -0.5273  0.6635  0.9489
   79MOL0     C10592   1.968   8.418   6.390 -0.2281 -0.1095  0.6464
   79MOL0     C10593   1.970   8.562   6.366  0.3883 -0.0577 -0.8508
   79MOL0     C10594   1.976   8.682   6.330  0.5676  0.2233  0.7132
   79MOL0     C10595   1.817   8.033   6.929  0.2596  0.4890 -0.2876
   79MOL0     C10596   1.802   7.971   7.060  0.1475 -0.2852 -0.5082
   79MOL0     C10597   1.704   8.034   7.148 -0.0003 -0.0631  0.0708
   79MOL0     H10598   1.704   7.476   7.221  0.9648 -0.4172 -0.0248
   79MOL0     H10599   1.667   7.321   7.423  0.5677  0.0801  1.9829
   79MOL0     H10600   2.017   7.227   7.613 -0.4746  1.9565 -1.8234
   79MOL0     H10601   1.935   7.173   7.746 -2.5710  0.2567  0.3884
   79MOL0     H10602   1.941   6.996   7.581 -0.5159  0.5845  0.0075
   79MOL0     H10603   1.884   7.088   7.450 -0.1183  0.3784  0.0931
   79MOL0     H10604   1.664   7.113   7.606  0.1625  1.1451 -3.4127
   79MOL0     H10605   1.726   6.954   7.670 -0.3483 -1.5123 -0.2837
   79MOL0     H10606   1.553   6.949   7.482 -1.5956  3.3818 -4.8414
   79MOL0     H10607   1.668   7.039   7.389  0.4227 -1.2620 -1.0800
   79MOL0     H10608   1.801   6.864   7.346 -1.0571  0.5372 -1.6803
   79MOL0     H10609   1.756   6.781   7.510 -2.9200  1.4524  1.3572
   79MOL0     H10610   1.528   6.737   7.424  0.7888 -3.7288  1.5222
   79MOL0     H10611   1.583   6.795   7.264  1.1117  0.4020 -0.0723
   79MOL0     H10612   1.627   6.548   7.428 -2.3789  1.3236  0.1044
   79MOL0     H10613   1.752   6.592   7.305  0.4736 -0.2506  0.5170
   79MOL0     H10614   1.573   6.593   7.131  3.4999  2.3709  1.9276
   79MOL0     H10615   1.641   6.447   7.190  3.7500  2.4088  2.3651
   79MOL0     H10616   1.313   6.644   7.156 -2.1051 -0.1342 -0.9831
   79MOL0     H10617   1.089   6.634   7.211  0.1323  0.7529  0.2730
   79MOL0     H10618   1.027   6.472   7.215 -0.0485 -0.7421  0.6381
   79MOL0     H10619   0.927   6.643   7.362 -0.9904  1.2968  1.8513
   79MOL0     H10620   0.962   6.489   7.439 -3.9857  2.6227 -0.2047
   79MOL0     H10621   1.140   6.744   7.442 -0.4587  1.2010  0.5136
   79MOL0     H10622   1.153   6.617   7.559  2.5048  1.1735 -1.9921
   79MOL0     H10623   0.967   6.845   7.557  0.9008  0.3993 -0.0049
   79MOL0     H10624   1.060   6.771   7.683 -0.0010  2.7750  0.5783
   79MOL0     H10625   0.701   6.553   7.762  1.6253 -0.0061  1.1732
   79MOL0     H10626   0.531   6.625   7.907  0.0544 -1.1816 -1.8244
   79MOL0     H10627   0.423   6.674   8.296 -0.0590 -0.1829  1.5994
   79MOL0     H10628   0.293   6.720   8.502  3.2565 -0.2657 -0.1110
   79MOL0     H10629   0.184   7.107   8.560  0.3362  0.7964  1.1251
   79MOL0     H10630   0.019   7.085   8.568  0.0086  2.7324  2.3342
   79MOL0     H10631   0.189   6.972   8.794 -0.8869 -1.5466 -0.0324
   79MOL0     H10632   0.088   7.110   8.796 -1.1957 -0.6269 -0.2671
   79MOL0     H10633  -0.124   6.964   8.754 -1.2787 -0.4643  0.4987
   79MOL0     H10634  -0.019   6.828   8.752 -3.1767 -0.5077  0.0933
   79MOL0     H10635  -0.093   7.007   8.976  1.4088  1.0303  1.3516
   79MOL0     H10636   0.052   6.901   8.993 -1.4719 -1.4926  0.1868
   79MOL0     H10637  -0.102   6.702   8.928 -0.5578 -0.7653  1.3843
   79MOL0     H10638  -0.235   6.821   8.941  1.1288  4.0475 -1.7661
   79MOL0     H10639  -0.213   6.848   9.165  2.1845  0.9566  0.8748
   79MOL0     H10640  -0.222   6.670   9.148 -2.2453  1.0044  1.9291
   79MOL0     H10641  -0.082   6.735   9.331 -1.3156  2.6798  0.3865
   79MOL0     H10642  -0.001   6.852   9.238  3.4840 -1.1425  0.4367
   79MOL0     H10643   0.039   6.539   9.197  0.7701 -0.3239  1.7598
   79MOL0     H10644   0.070   6.655   9.080 -2.5620 -2.5231 -1.1176
   79MOL0     H10645   0.141   7.072   8.328 -2.1257 -1.7464  1.2518
   79MOL0     H10646   0.293   7.044   8.126  2.5346  0.0583 -0.1913
   79MOL0     H10647   0.705   7.023   7.879 -0.3354  0.2955  0.7833
   79MOL0     H10648   0.858   6.939   7.711  0.5460  0.9994  2.3994
   79MOL0     H10649   2.030   7.465   7.590  0.5462 -1.8123 -0.8299
   79MOL0     H10650   2.069   7.615   7.382 -0.4969 -0.7977 -1.6139
   79MOL0     H10651   2.050   7.730   7.010 -0.9057 -1.1507  2.8164
   79MOL0     H10652   2.068   7.820   6.804  0.8894  1.4564 -0.5332
   79MOL0     H10653   1.944   8.247   6.757 -0.4228 -0.6273  0.8346
   79MOL0     H10654   1.809   8.185   6.653  0.3817  0.8601 -1.1341
   79MOL0     H10655   1.945   8.171   6.470 -1.4898  2.7661 -0.2693
   79MOL0     H10656   2.099   8.216   6.555  0.2760 -3.0803 -0.7673
   79MOL0     H10657   2.035   8.428   6.600  1.8117  0.4452 -1.4100
   79MOL0     H10658   1.860   8.409   6.565 -1.7823 -2.8701  0.6730
   79MOL0     H10659   2.053   8.370   6.341 -0.5104 -0.4210  0.4556
   79MOL0     H10660   1.883   8.379   6.334  0.9914 -1.6811 -0.1749
   79MOL0     H10661   1.996   8.782   6.296 -0.9056  0.8385  1.5861
   79MOL0     H10662   1.753   8.120   6.914  0.2037  0.5536  0.2851
   79MOL0     H10663   1.743   8.027   7.250  1.5503  0.8836 -0.4282
   79MOL0     H10664   1.689   8.136   7.113  2.7890 -0.6213 -3.1948
   79MOL0     H10665   1.605   7.988   7.154  1.0069 -2.6502 -1.6012
   80MOL0     O10666   2.616   0.071   3.401  0.2275 -0.0728 -0.4707
   80MOL0     C10667   2.566   0.102   3.513  0.4979 -0.2885  0.1899
   80MOL0     O10668   2.602   0.053   3.626 -0.1866  0.0814 -0.8054
   80MOL0     C10669   2.730   0.011   3.654 -1.2993 -0.1821 -0.5115
   80MOL0     C10670   2.744  -0.093   3.752  0.1620  0.2289 -0.1947
   80MOL0     C10671   2.870  -0.163   3.780  1.2274 -0.6051  0.6015
   80MOL0     C10672   2.982  -0.126   3.695  1.3579 -1.1509 -0.3010
   80MOL0     O10673   3.104  -0.186   3.725 -0.5920 -0.7906 -0.1929
   80MOL0     C10674   3.101  -0.329   3.731  0.3820 -0.4071 -0.1806
   80MOL0     C10675   3.238  -0.382   3.665  0.1682 -0.5508 -0.3822
   80MOL0     C10676   3.366  -0.336   3.737 -0.2542  0.7736  0.1984
   80MOL0     C10677   3.485  -0.425   3.708 -0.2646  0.4650 -0.4170
   80MOL0     C10678   3.612  -0.397   3.793 -0.6170 -0.0158  0.0390
   80MOL0     C10679   3.662  -0.243   3.787  0.5039  0.2785 -0.2796
   80MOL0     C10680   3.789  -0.223   3.873 -0.4438 -0.1904 -0.3268
   80MOL0     C10681   3.838  -0.075   3.870  0.0366 -0.0776  0.8305
   80MOL0     N10682   3.946  -0.060   3.966 -0.1861 -0.6628  0.0556
   80MOL0     C10683   4.068  -0.117   3.967 -0.9420 -0.7215  0.1957
   80MOL0     C10684   4.120  -0.066   4.087 -0.2587 -0.0922  0.6543
   80MOL0     C10685   4.250  -0.095   4.143 -0.0497  0.9736  0.0716
   80MOL0     C10686   4.358  -0.026   4.064  0.1128 -0.5891  0.6019
   80MOL0     C10687   4.491  -0.017   4.151  0.0792  0.7727 -0.5682
   80MOL0     C10688   4.513   0.120   4.229  0.2424  0.4865  1.1478
   80MOL0     O10689   4.418   0.149   4.337  0.4836  0.3523  0.0920
   80MOL0     C10690   4.413   0.066   4.451  1.1354 -1.2932 -0.3321
   80MOL0     C10691   4.511  -0.005   4.507 -0.3168  0.1165  0.1321
   80MOL0     C10692   4.482  -0.059   4.629 -0.8196  0.7962 -0.3948
   80MOL0     C10693   4.359  -0.050   4.691  0.5463 -0.2404  0.9036
   80MOL0     C10694   4.329  -0.122   4.815 -0.2378  0.4015 -0.2087
   80MOL0     O10695   4.441  -0.166   4.884 -0.2776 -0.7562 -0.0537
   80MOL0     C10696   4.431  -0.203   5.016  0.4217 -0.3726  0.0332
   80MOL0     C10697   4.369  -0.110   5.112  0.1924 -0.5398 -0.5690
   80MOL0     C10698   4.378  -0.145   5.242  0.0012 -0.8134 -0.2777
   80MOL0     C10699   4.445  -0.260   5.292 -0.1675 -0.8293 -0.0054
   80MOL0     O10700   4.459  -0.262   5.423 -0.4965 -0.3936 -0.0911
   80MOL0     C10701   4.567  -0.336   5.482  0.6274  0.4677  0.7435
   80MOL0     C10702   4.566  -0.344   5.642 -0.7261 -0.0657 -0.1663
   80MOL0     C10703   4.553  -0.197   5.691 -0.2398  0.0453  0.3041
   80MOL0     C10704   4.546  -0.191   5.846  1.1582  0.0486  0.0507
   80MOL0     C10705   4.497  -0.059   5.904 -0.2747  0.5299 -0.4232
   80MOL0     C10706   4.366   0.005   5.850 -0.9536  0.2876  0.0718
   80MOL0     C10707   4.330   0.139   5.927 -0.0385  0.3696 -0.7947
   80MOL0     C10708   4.427   0.254   5.880 -0.1303  0.3175  0.0824
   80MOL0    Cl10709   4.573   0.268   5.975  0.1857  0.0599  0.3871
   80MOL0     C10710   4.503  -0.346   5.201  0.3197  0.2393  0.0635
   80MOL0     C10711   4.494  -0.319   5.063  0.4622 -0.1762 -0.1955
   80MOL0     O10712   4.213  -0.129   4.848 -0.9723  0.6356 -0.3013
   80MOL0     C10713   4.255   0.013   4.626  0.1131  1.2193  0.1609
   80MOL0     C10714   4.280   0.069   4.504  0.1178 -0.7601 -0.1914
   80MOL0     N10715   4.029   0.003   4.155 -0.4495  0.3318 -0.2614
   80MOL0     N10716   3.921   0.014   4.084 -0.1866  0.0636  0.5842
   80MOL0     C10717   2.973  -0.026   3.597 -0.0933  0.9440  0.9818
   80MOL0     C10718   2.848   0.043   3.576  0.2671 -0.0429 -0.4408
   80MOL0     C10719   2.457   0.213   3.511  0.4071  0.4958 -0.1283
   80MOL0     C10720   2.434   0.296   3.619 -0.7904 -0.2145  0.7237
   80MOL0     C10721   2.334   0.392   3.642  0.1037  0.0644  0.0704
   80MOL0     C10722   2.236   0.382   3.538  0.4655 -0.0178 -0.9510
   80MOL0     O10723   2.119   0.459   3.548 -0.2785 -0.0332 -0.4120
   80MOL0     C10724   2.070   0.526   3.439  1.2247 -1.2593  0.5994
   80MOL0     C10725   1.999   0.662   3.482 -0.4803 -0.4502  0.3162
   80MOL0     C10726   1.908   0.740   3.393  0.0627 -0.1246 -0.2325
   80MOL0     C10727   1.902   0.883   3.445 -0.0672  0.3078 -0.2682
   80MOL0     C10728   1.835   0.968   3.351 -0.2899  0.5591  0.9596
   80MOL0     C10729   1.782   1.051   3.272  0.2509  0.0376 -0.8404
   80MOL0     C10730   2.255   0.307   3.420  0.4857 -0.7368  0.1947
   80MOL0     C10731   2.371   0.223   3.402  1.0282 -0.4132  0.2645
   80MOL0     C10732   2.378   0.153   3.271  1.3683  0.3586  0.0503
   80MOL0     H10733   2.655  -0.109   3.812 -0.1017  1.1188 -0.3336
   80MOL0     H10734   2.863  -0.233   3.862 -2.2434  0.8287  1.7287
   80MOL0     H10735   3.101  -0.356   3.837  2.3798  2.8874  0.8039
   80MOL0     H10736   3.020  -0.387   3.685  2.2904 -3.6475  0.2095
   80MOL0     H10737   3.235  -0.341   3.563 -2.0870  0.0634 -0.1106
   80MOL0     H10738   3.236  -0.491   3.660  1.6318 -0.6426  0.4014
   80MOL0     H10739   3.342  -0.336   3.844 -1.3023  2.8201  0.0117
   80MOL0     H10740   3.384  -0.235   3.698 -0.6540 -0.4381 -3.5669
   80MOL0     H10741   3.457  -0.530   3.721  2.0351  0.1938  4.4383
   80MOL0     H10742   3.515  -0.400   3.606  0.6820  0.3429 -0.1776
   80MOL0     H10743   3.578  -0.421   3.894  2.8907 -0.8094  1.1596
   80MOL0     H10744   3.694  -0.466   3.769  0.5855  0.5423  2.2473
   80MOL0     H10745   3.674  -0.213   3.683 -0.3334  0.2937 -0.3763
   80MOL0     H10746   3.576  -0.186   3.824 -0.4558  0.2135 -2.3009
   80MOL0     H10747   3.869  -0.283   3.829 -0.3704 -2.2927  2.4047
   80MOL0     H10748   3.776  -0.249   3.978 -0.0106  0.4286 -0.1169
   80MOL0     H10749   3.867  -0.040   3.770 -3.8426  0.6575 -0.1857
   80MOL0     H10750   3.765   0.000   3.899 -2.8036 -2.3893  0.1142
   80MOL0     H10751   4.125  -0.182   3.901  1.2726 -0.7947  2.0512
   80MOL0     H10752   4.239  -0.064   4.247 -2.6203  2.7746 -0.6302
   80MOL0     H10753   4.270  -0.202   4.132  5.7015  1.8615 -1.1290
   80MOL0     H10754   4.380  -0.077   3.969  0.4067 -2.1142  1.4538
   80MOL0     H10755   4.321   0.073   4.037 -0.5215 -1.3111 -1.3522
   80MOL0     H10756   4.580  -0.037   4.092  2.3657  2.0610  2.2260
   80MOL0     H10757   4.489  -0.102   4.219 -1.7743 -1.4757 -3.2305
   80MOL0     H10758   4.510   0.191   4.146  2.0171 -1.9147 -1.1035
   80MOL0     H10759   4.618   0.123   4.259  1.1935  2.5887 -1.9720
   80MOL0     H10760   4.608  -0.007   4.457  1.2596  2.8057  2.7279
   80MOL0     H10761   4.559  -0.096   4.696 -0.9493 -0.6426 -0.9944
   80MOL0     H10762   4.320  -0.018   5.079 -0.0333 -0.6233 -0.4699
   80MOL0     H10763   4.334  -0.089   5.323 -0.5962 -0.7999 -0.6094
   80MOL0     H10764   4.558  -0.439   5.446 -0.7866 -0.0970  2.5801
   80MOL0     H10765   4.667  -0.299   5.455  0.4886 -0.4642 -1.1878
   80MOL0     H10766   4.481  -0.399   5.683 -1.7843  1.5656 -0.0742
   80MOL0     H10767   4.654  -0.398   5.676 -1.3526 -0.3214  1.0984
   80MOL0     H10768   4.629  -0.128   5.652  0.7933  0.7305  3.2713
   80MOL0     H10769   4.458  -0.160   5.651  1.2569  1.8867 -1.8556
   80MOL0     H10770   4.646  -0.221   5.877  1.3347 -0.0234 -0.5746
   80MOL0     H10771   4.490  -0.274   5.889 -1.2626  1.7525  0.3971
   80MOL0     H10772   4.578   0.014   5.893 -0.8139  1.0590 -1.0161
   80MOL0     H10773   4.486  -0.063   6.012  0.6423  1.2587 -0.2951
   80MOL0     H10774   4.384   0.040   5.748 -1.3611  0.4700  0.0613
   80MOL0     H10775   4.285  -0.068   5.861  0.3731 -1.1897  0.2932
   80MOL0     H10776   4.343   0.116   6.033 -1.5129 -2.1096 -1.0738
   80MOL0     H10777   4.226   0.171   5.924  0.0905  0.7792 -0.9829
   80MOL0     H10778   4.440   0.249   5.772 -1.5282 -1.0203 -0.0624
   80MOL0     H10779   4.374   0.343   5.916 -0.9219  0.9319 -2.4051
   80MOL0     H10780   4.542  -0.437   5.245 -3.9158 -1.1934  1.3939
   80MOL0     H10781   4.537  -0.387   4.990  1.3517  0.9604 -0.7600
   80MOL0     H10782   4.153   0.010   4.662  0.2716  1.3500  0.6444
   80MOL0     H10783   4.204   0.122   4.449  2.6643  0.6893 -2.5890
   80MOL0     H10784   3.062   0.001   3.542 -0.7714  2.9961  0.7868
   80MOL0     H10785   2.839   0.110   3.491  0.0191  0.5161  0.0168
   80MOL0     H10786   2.495   0.276   3.707 -1.0078 -0.4143  0.8273
   80MOL0     H10787   2.325   0.441   3.738  2.4190 -1.1690  1.0038
   80MOL0     H10788   1.999   0.454   3.398  0.0356 -1.3880  2.7203
   80MOL0     H10789   2.148   0.556   3.368 -2.3506  1.2148 -2.7399
   80MOL0     H10790   2.071   0.734   3.520 -1.4068  0.2139  0.8339
   80MOL0     H10791   1.948   0.632   3.573 -1.2146 -0.7469 -0.1860
   80MOL0     H10792   1.806   0.700   3.397  0.6383 -1.5567  0.8175
   80MOL0     H10793   1.958   0.735   3.296 -0.3805  0.9120 -0.5249
   80MOL0     H10794   1.853   0.907   3.540  0.6302  0.4813  0.0531
   80MOL0     H10795   2.006   0.915   3.459 -0.0493  0.6789 -1.2126
   80MOL0     H10796   1.737   1.122   3.205 -2.0196 -1.8948 -1.4923
   80MOL0     H10797   2.172   0.315   3.350  0.9464  0.1552 -0.2604
   80MOL0     H10798   2.377   0.045   3.290 -0.5094  0.0874 -1.3065
   80MOL0     H10799   2.298   0.178   3.201  0.1453  1.2566  1.7019
   80MOL0     H10800   2.462   0.178   3.206  0.8505 -2.1327 -1.7313
   81MOL0     O10801   4.484   4.877   2.816 -0.2291  0.3363  0.4498
   81MOL0     C10802   4.545   4.901   2.707 -0.2013  0.2344 -0.5587
   81MOL0     O10803   4.647   4.981   2.695 -0.2634 -0.9701 -0.1472
   81MOL0     C10804   4.705   5.037   2.802  0.0373  0.3203 -1.9151
   81MOL0     C10805   4.744   5.169   2.780 -0.2434  0.0640 -0.5623
   81MOL0     C10806   4.825   5.235   2.880 -0.6998 -0.8142 -0.7491
   81MOL0     C10807   4.872   5.163   2.994 -0.4450 -0.4214  0.6057
   81MOL0     O10808   4.950   5.241   3.079 -0.2837 -0.8305  0.1954
   81MOL0     C10809   5.062   5.183   3.146  0.3554 -0.5894 -0.1487
   81MOL0     C10810   5.041   5.195   3.299  0.1147 -0.4506  0.1651
   81MOL0     C10811   5.069   5.340   3.350  0.5194  0.5955  0.2086
   81MOL0     C10812   4.951   5.373   3.455  0.2009  0.3228 -1.5858
   81MOL0     C10813   4.944   5.519   3.509 -0.2464  0.5812  1.0562
   81MOL0     C10814   4.846   5.536   3.623 -0.1132  0.2421 -0.5534
   81MOL0     C10815   4.833   5.693   3.660 -0.0255 -0.0410 -0.1481
   81MOL0     C10816   4.760   5.767   3.546  0.9689 -0.7385 -0.1642
   81MOL0     N10817   4.612   5.736   3.560  0.0057 -0.4701 -0.2531
   81MOL0     C10818   4.530   5.777   3.661 -0.5103  2.1234 -1.3241
   81MOL0     C10819   4.407   5.740   3.631 -0.1101  0.9261  0.0906
   81MOL0     C10820   4.296   5.764   3.727  0.7532  0.1336 -0.1159
   81MOL0     C10821   4.212   5.886   3.678  0.4445 -0.5477  0.6584
   81MOL0     C10822   4.078   5.922   3.755  0.7642  0.2638 -0.4698
   81MOL0     C10823   3.992   6.023   3.671  0.1098 -0.2608  0.8816
   81MOL0     O10824   4.061   6.148   3.672 -0.5366 -0.8340 -0.5339
   81MOL0     C10825   4.016   6.257   3.744  0.9704 -0.3119  0.4008
   81MOL0     C10826   4.080   6.304   3.854 -0.4657  0.1223  0.3739
   81MOL0     C10827   4.027   6.416   3.921 -0.1179  0.4285  0.3651
   81MOL0     C10828   3.908   6.488   3.882 -0.6500  0.4231  0.4645
   81MOL0     C10829   3.856   6.613   3.935  0.2859 -0.6802 -0.1353
   81MOL0     O10830   3.762   6.683   3.865 -0.6114  0.4578  0.6299
   81MOL0     C10831   3.692   6.787   3.915 -1.1041 -0.5385 -1.1847
   81MOL0     C10832   3.760   6.892   3.979  0.1373 -0.0961 -0.4565
   81MOL0     C10833   3.685   7.013   3.999  0.0806  0.1280 -0.3639
   81MOL0     C10834   3.550   7.031   3.962 -0.5103 -0.2678 -0.1014
   81MOL0     O10835   3.490   7.147   3.982  1.0524  0.1921 -0.0652
   81MOL0     C10836   3.357   7.149   4.020  0.1108 -0.1779 -1.2672
   81MOL0     C10837   3.353   7.266   4.126 -0.9011 -0.6892  0.1557
   81MOL0     C10838   3.435   7.244   4.255 -0.4025 -0.7095  0.0498
   81MOL0     C10839   3.490   7.378   4.322  0.2851 -0.2566 -0.4360
   81MOL0     C10840   3.546   7.352   4.461  0.0709 -0.1120 -0.0793
   81MOL0     C10841   3.662   7.243   4.467  0.6822  0.0311 -0.3060
   81MOL0     C10842   3.709   7.231   4.609  0.0264 -0.1820  0.5057
   81MOL0     C10843   3.838   7.317   4.629  0.2217 -0.5677  0.4360
   81MOL0    Cl10844   3.813   7.503   4.596  0.0030  0.0161 -0.2848
   81MOL0     C10845   3.484   6.923   3.904  0.0871  0.2899 -0.6931
   81MOL0     C10846   3.559   6.806   3.877  0.1795 -0.4602 -0.4025
   81MOL0     O10847   3.883   6.623   4.057 -0.0768 -0.5240  0.0837
   81MOL0     C10848   3.850   6.434   3.761  0.7367 -0.1884  0.1195
   81MOL0     C10849   3.903   6.331   3.693 -0.1695  0.3035  1.7903
   81MOL0     N10850   4.407   5.677   3.502  0.5039  0.1201 -0.4980
   81MOL0     N10851   4.530   5.675   3.471 -1.0361  0.8886  0.3571
   81MOL0     C10852   4.828   5.037   3.014  0.4757  0.4425 -0.2954
   81MOL0     C10853   4.739   4.972   2.931 -0.6531  0.1277  0.4540
   81MOL0     C10854   4.515   4.816   2.584 -0.0494 -0.8895 -1.6332
   81MOL0     C10855   4.616   4.801   2.492 -0.2041  0.1443 -0.4196
   81MOL0     C10856   4.599   4.710   2.387 -0.7976  0.5566 -0.4504
   81MOL0     C10857   4.489   4.627   2.378  1.3276 -0.2839  0.0098
   81MOL0     O10858   4.493   4.525   2.292 -0.0194  0.4772 -0.3650
   81MOL0     C10859   4.434   4.396   2.319  0.3192  0.1174 -0.2600
   81MOL0     C10860   4.504   4.338   2.436  0.6776 -0.5563  0.8585
   81MOL0     C10861   4.647   4.321   2.411 -0.8427  0.5427  0.3909
   81MOL0     C10862   4.712   4.246   2.522  0.1598 -0.8782 -0.0890
   81MOL0     C10863   4.717   4.327   2.645 -0.0367  0.5641 -0.3819
   81MOL0     C10864   4.739   4.406   2.742 -0.0178  0.7046 -0.1605
   81MOL0     C10865   4.383   4.650   2.467 -0.2177 -0.3404 -0.2878
   81MOL0     C10866   4.399   4.747   2.571  0.4873 -1.1259  0.6021
   81MOL0     C10867   4.273   4.756   2.657 -0.0646 -0.2602 -0.0508
   81MOL0     H10868   4.721   5.229   2.693 -4.3356 -0.8035 -0.2590
   81MOL0     H10869   4.868   5.335   2.877 -1.8838 -0.2334  0.3860
   81MOL0     H10870   5.089   5.089   3.099 -0.3553  0.2058 -2.2414
   81MOL0     H10871   5.143   5.252   3.121  0.3272  0.3287  2.0385
   81MOL0     H10872   5.110   5.130   3.352 -1.3528 -1.9896  0.2727
   81MOL0     H10873   4.944   5.160   3.334 -0.5475 -0.2194 -1.3466
   81MOL0     H10874   5.065   5.409   3.265 -4.1388  0.6926  0.2566
   81MOL0     H10875   5.170   5.361   3.386  1.1205  2.5423 -2.3179
   81MOL0     H10876   4.853   5.348   3.414 -0.6489 -0.0544  0.5497
   81MOL0     H10877   4.961   5.317   3.548  1.8842  4.2266  0.8734
   81MOL0     H10878   5.043   5.555   3.538 -1.2440  2.7089  1.9643
   81MOL0     H10879   4.918   5.576   3.419 -1.5733  0.5673  1.4112
   81MOL0     H10880   4.747   5.492   3.610  0.1440  0.5593 -5.7056
   81MOL0     H10881   4.890   5.492   3.713  0.9255 -2.9258 -2.4530
   81MOL0     H10882   4.933   5.730   3.686  0.6041 -1.3621 -0.5923
   81MOL0     H10883   4.776   5.693   3.754  1.1517 -3.6912  0.7220
   81MOL0     H10884   4.761   5.875   3.560 -2.6583 -0.6204  0.2664
   81MOL0     H10885   4.800   5.747   3.446  1.1370 -1.0459 -0.0374
   81MOL0     H10886   4.562   5.826   3.753 -1.2922 -0.5030  0.4713
   81MOL0     H10887   4.231   5.677   3.742  1.2618 -0.2260 -0.0026
   81MOL0     H10888   4.327   5.808   3.822 -1.1730  3.0909 -0.7309
   81MOL0     H10889   4.278   5.973   3.667  1.0888 -0.9952  0.8737
   81MOL0     H10890   4.171   5.854   3.582 -1.8526  1.1463  1.0130
   81MOL0     H10891   4.105   5.972   3.848 -3.2159 -0.6754  1.4367
   81MOL0     H10892   4.024   5.829   3.776 -0.1440  0.1333 -3.0751
   81MOL0     H10893   3.884   6.032   3.690 -0.6606  1.3922 -3.2938
   81MOL0     H10894   3.993   5.983   3.569 -3.6942  3.3116 -0.8659
   81MOL0     H10895   4.167   6.262   3.902  2.0959  1.8691 -2.3837
   81MOL0     H10896   4.085   6.460   4.001  1.5727  1.9902 -1.6140
   81MOL0     H10897   3.860   6.874   4.016  0.1375 -0.7788 -0.7808
   81MOL0     H10898   3.745   7.086   4.052  0.5164  0.1517 -0.8838
   81MOL0     H10899   3.300   7.168   3.929 -1.8078 -3.4088 -0.8767
   81MOL0     H10900   3.315   7.060   4.069 -1.8777  1.6389  0.5638
   81MOL0     H10901   3.397   7.350   4.072  1.2754  0.0625  2.8823
   81MOL0     H10902   3.248   7.291   4.147  0.1580  2.6223  2.2367
   81MOL0     H10903   3.370   7.199   4.332 -1.0216  0.3519  0.1602
   81MOL0     H10904   3.525   7.186   4.235  1.0811  1.3688  0.4294
   81MOL0     H10905   3.401   7.440   4.338 -2.0078 -2.8306 -2.2493
   81MOL0     H10906   3.557   7.434   4.257 -0.2528 -0.0316 -0.7961
   81MOL0     H10907   3.463   7.312   4.519  0.9166 -1.3879  0.2906
   81MOL0     H10908   3.593   7.438   4.508  0.3637  1.2602 -2.6774
   81MOL0     H10909   3.614   7.150   4.433  1.3555 -0.6080  0.4686
   81MOL0     H10910   3.733   7.292   4.400 -0.6033  0.1610 -1.6307
   81MOL0     H10911   3.733   7.126   4.630 -3.0415 -1.2705 -0.7821
   81MOL0     H10912   3.637   7.268   4.684  0.1800 -0.5974  0.8630
   81MOL0     H10913   3.855   7.311   4.737 -0.4548 -0.6834  0.5395
   81MOL0     H10914   3.925   7.284   4.572  1.3388  2.9593 -0.1436
   81MOL0     H10915   3.383   6.914   3.866 -0.3030 -3.2769  0.7112
   81MOL0     H10916   3.507   6.726   3.826 -1.5621 -0.0827  0.6880
   81MOL0     H10917   3.761   6.483   3.725  0.7557  0.6890  1.2209
   81MOL0     H10918   3.856   6.286   3.605  0.0880  0.1924  1.7091
   81MOL0     H10919   4.843   4.991   3.111 -1.3972 -1.8400 -0.9961
   81MOL0     H10920   4.713   4.870   2.956  0.5546 -0.2274  0.2915
   81MOL0     H10921   4.708   4.858   2.497  0.4049 -0.8605  0.1723
   81MOL0     H10922   4.669   4.706   2.304  0.1461 -1.1847  0.3649
   81MOL0     H10923   4.434   4.325   2.236 -2.4462 -0.3380  0.0158
   81MOL0     H10924   4.327   4.409   2.341  0.1242  2.9591 -2.2459
   81MOL0     H10925   4.454   4.244   2.465  2.7560 -3.1752 -3.1046
   81MOL0     H10926   4.487   4.402   2.523 -3.4515  0.1175 -0.2637
   81MOL0     H10927   4.687   4.422   2.400 -0.3327  0.5192  1.8757
   81MOL0     H10928   4.664   4.262   2.320  0.3370 -2.2988  2.3116
   81MOL0     H10929   4.661   4.152   2.548  0.4354 -0.9899  0.0493
   81MOL0     H10930   4.810   4.220   2.481  2.3360  1.4580  3.2333
   81MOL0     H10931   4.755   4.472   2.825 -1.3037  0.8684 -0.0330
   81MOL0     H10932   4.302   4.578   2.478 -1.7634  1.3698 -0.0379
   81MOL0     H10933   4.258   4.862   2.677  0.8298  0.5452 -3.0584
   81MOL0     H10934   4.190   4.711   2.601  0.3606  1.4194 -2.2003
   81MOL0     H10935   4.288   4.697   2.747  0.5828 -2.8050 -1.7111
   82MOL0     O10936  10.666  11.285   9.019  1.0147 -0.4754 -0.0390
   82MOL0     C10937  10.767  11.228   9.052  0.3486  0.6283 -0.1258
   82MOL0     O10938  10.893  11.281   9.035 -0.0477 -0.3337 -0.1807
   82MOL0     C10939  10.923  11.401   8.974 -0.6936  0.8590 -0.6029
   82MOL0     C10940  11.034  11.475   9.011  0.0289 -0.7163  0.5043
   82MOL0     C10941  11.065  11.604   8.959  0.2757  1.3142  0.7459
   82MOL0     C10942  10.995  11.650   8.842 -0.4131 -0.1504 -0.8440
   82MOL0     O10943  11.025  11.763   8.771  0.7544 -0.0196  0.0654
   82MOL0     C10944  11.156  11.810   8.760  1.0774 -0.3206  0.2073
   82MOL0     C10945  11.255  11.702   8.700  0.7160 -1.2321 -0.8346
   82MOL0     C10946  11.216  11.639   8.566 -0.0527  0.8707  0.1544
   82MOL0     C10947  11.326  11.647   8.452 -0.3126 -0.3136  0.1059
   82MOL0     C10948  11.265  11.690   8.319 -0.4558 -1.1061 -0.2790
   82MOL0     C10949  11.153  11.597   8.269  0.1930 -1.0885 -0.3619
   82MOL0     C10950  11.213  11.487   8.191  0.4030 -0.1164 -0.4904
   82MOL0     C10951  11.121  11.446   8.066  0.9469 -0.1664  0.6675
   82MOL0     N10952  10.991  11.399   8.114 -0.0221  0.7832  0.1545
   82MOL0     C10953  10.949  11.272   8.156 -0.7824  0.2733  0.8308
   82MOL0     C10954  10.817  11.295   8.186 -0.4192  1.0759  0.0940
   82MOL0     C10955  10.728  11.181   8.238  0.3189 -1.0658 -0.7361
   82MOL0     C10956  10.698  11.080   8.130 -0.0649  0.3795 -0.3871
   82MOL0     C10957  10.579  11.110   8.051 -0.5167  0.1144 -0.7283
   82MOL0     C10958  10.589  11.024   7.923  0.1401  0.0450  0.0915
   82MOL0     O10959  10.573  10.887   7.972 -0.4509 -0.9405 -0.1699
   82MOL0     C10960  10.461  10.852   8.039  1.2877 -0.1402  0.8913
   82MOL0     C10961  10.461  10.810   8.174 -0.5824 -0.5512  1.1511
   82MOL0     C10962  10.342  10.797   8.245  0.1899  0.0671 -0.5359
   82MOL0     C10963  10.219  10.818   8.181 -0.5222 -0.0891 -0.0442
   82MOL0     C10964  10.093  10.787   8.247 -0.6481 -0.0037  0.1295
   82MOL0     O10965  10.092  10.791   8.378 -0.0928  0.1833  0.2978
   82MOL0     C10966   9.964  10.784   8.434  0.0903 -0.2969 -0.1991
   82MOL0     C10967   9.881  10.895   8.462  0.9553  0.3905 -0.4983
   82MOL0     C10968   9.762  10.878   8.535 -0.1303 -0.3391 -0.0165
   82MOL0     C10969   9.716  10.743   8.565 -0.4016 -0.2577 -0.8001
   82MOL0     O10970   9.597  10.707   8.632 -0.0577 -0.3148 -0.7446
   82MOL0     C10971   9.502  10.812   8.640 -0.3855  0.7092  0.6066
   82MOL0     C10972   9.377  10.763   8.716 -0.9912 -0.7068 -0.4511
   82MOL0     C10973   9.326  10.632   8.654 -0.4685  0.7308  0.0523
   82MOL0     C10974   9.225  10.569   8.755  0.2639 -1.0222  0.0373
   82MOL0     C10975   9.082  10.627   8.733  0.5251  0.5523 -0.1057
   82MOL0     C10976   9.042  10.737   8.835  0.4502 -0.3085 -0.5916
   82MOL0     C10977   8.929  10.835   8.790 -0.9105  0.7449 -0.2661
   82MOL0     C10978   8.788  10.760   8.794 -0.6569  0.2709  0.2494
   82MOL0    Cl10979   8.761  10.687   8.956 -0.3026 -0.2315  0.8256
   82MOL0     C10980   9.792  10.636   8.525  1.1482  0.0011 -0.1305
   82MOL0     C10981   9.912  10.661   8.458  0.3190 -0.1976 -0.6751
   82MOL0     O10982   9.997  10.760   8.177 -0.1302 -0.2345  0.4003
   82MOL0     C10983  10.221  10.862   8.050  0.5119  0.6092  0.5469
   82MOL0     C10984  10.338  10.881   7.974 -1.0270 -0.9834 -0.3352
   82MOL0     N10985  10.787  11.423   8.162 -0.1594 -0.4119 -0.0700
   82MOL0     N10986  10.884  11.486   8.114  0.2394 -1.1221 -0.0492
   82MOL0     C10987  10.880  11.576   8.807 -0.6497  0.8381  0.5810
   82MOL0     C10988  10.846  11.452   8.866  0.2000 -0.8802 -0.4088
   82MOL0     C10989  10.763  11.102   9.135  0.2163  0.5270  0.1132
   82MOL0     C10990  10.638  11.042   9.154 -0.5859 -0.0161  0.9797
   82MOL0     C10991  10.630  10.926   9.225  0.1770  0.1719 -0.8539
   82MOL0     C10992  10.739  10.855   9.268 -0.2971  0.2025 -0.6324
   82MOL0     O10993  10.735  10.730   9.310 -0.1098  1.0556 -0.1450
   82MOL0     C10994  10.848  10.654   9.359  0.0981 -0.5377 -0.7364
   82MOL0     C10995  10.788  10.515   9.357  0.2671  0.1970 -0.4515
   82MOL0     C10996  10.868  10.420   9.449 -0.0148 -0.0473 -0.1028
   82MOL0     C10997  11.001  10.373   9.399 -0.1801 -0.1387 -0.5454
   82MOL0     C10998  10.978  10.259   9.316 -0.7447 -0.0750  0.8483
   82MOL0     C10999  10.961  10.170   9.231 -0.2805 -0.0708 -0.2578
   82MOL0     C11000  10.857  10.914   9.247 -0.0509  0.5942 -0.5341
   82MOL0     C11001  10.875  11.044   9.204 -0.5297 -0.5336 -0.6910
   82MOL0     C11002  11.022  11.087   9.201  0.2312  0.1088  0.3914
   82MOL0     H11003  11.096  11.443   9.094 -2.6993  0.9174  3.3860
   82MOL0     H11004  11.155  11.649   9.001  1.3627 -1.6202  1.7888
   82MOL0     H11005  11.155  11.897   8.693  3.7294 -1.9910 -2.2204
   82MOL0     H11006  11.195  11.848   8.855 -2.2354 -0.5265  1.7794
   82MOL0     H11007  11.267  11.621   8.772 -0.6919 -0.4064  0.3814
   82MOL0     H11008  11.356  11.745   8.699  0.9061 -1.6739 -0.5769
   82MOL0     H11009  11.114  11.664   8.537  0.7376  1.9094 -1.9887
   82MOL0     H11010  11.208  11.535   8.596  1.1164  1.0467  1.1974
   82MOL0     H11011  11.409  11.712   8.478 -1.1504  0.0284  2.0839
   82MOL0     H11012  11.364  11.544   8.444  0.0772 -0.2340  0.9266
   82MOL0     H11013  11.228  11.793   8.325 -0.9830 -1.2142 -1.4451
   82MOL0     H11014  11.342  11.707   8.244 -1.6791  1.0376 -1.1399
   82MOL0     H11015  11.097  11.563   8.357 -0.7833  2.5410  0.5819
   82MOL0     H11016  11.089  11.658   8.205  1.0612 -1.4331 -1.5930
   82MOL0     H11017  11.231  11.396   8.249  3.5046 -0.6736 -2.1094
   82MOL0     H11018  11.315  11.520   8.168  1.2875 -1.3627  1.4340
   82MOL0     H11019  11.105  11.538   8.009 -1.3132 -1.3301 -0.7129
   82MOL0     H11020  11.169  11.365   8.009  0.5835 -0.9539  1.4484
   82MOL0     H11021  11.011  11.184   8.164  2.2662  2.3404  1.4376
   82MOL0     H11022  10.791  11.123   8.305  0.7457  1.4389  1.1910
   82MOL0     H11023  10.634  11.203   8.289  0.2698 -1.9872 -0.4198
   82MOL0     H11024  10.785  11.073   8.065 -2.0451 -0.5802 -3.0793
   82MOL0     H11025  10.682  10.984   8.179 -1.4930  0.9237  0.2837
   82MOL0     H11026  10.589  11.217   8.032 -1.0821  0.7832  2.2396
   82MOL0     H11027  10.486  11.093   8.108  1.6456  1.1484  3.4983
   82MOL0     H11028  10.679  11.036   7.862 -0.0507  3.9274  0.3707
   82MOL0     H11029  10.510  11.062   7.858  1.0718 -0.8525 -1.6455
   82MOL0     H11030  10.561  10.801   8.214 -0.1858  1.5598  0.7008
   82MOL0     H11031  10.319  10.754   8.343  1.5839 -1.8887 -1.0022
   82MOL0     H11032   9.924  10.992   8.440 -2.3450  2.3164  0.6975
   82MOL0     H11033   9.722  10.976   8.560 -0.5030 -0.0439 -1.6383
   82MOL0     H11034   9.547  10.892   8.700  0.4936 -0.1539  1.1317
   82MOL0     H11035   9.474  10.851   8.542 -3.6629 -0.6929  0.8515
   82MOL0     H11036   9.411  10.736   8.817 -1.5132  0.9498  0.1994
   82MOL0     H11037   9.300  10.839   8.725 -0.6496  0.0347 -2.9421
   82MOL0     H11038   9.280  10.658   8.558 -2.9067 -0.6668  0.7608
   82MOL0     H11039   9.400  10.553   8.635 -1.7522 -0.4755 -0.1171
   82MOL0     H11040   9.243  10.594   8.860 -0.6823  0.3320 -0.1002
   82MOL0     H11041   9.232  10.460   8.747  2.9636 -0.9518  0.6146
   82MOL0     H11042   9.005  10.550   8.743  0.9611 -0.0526 -1.3079
   82MOL0     H11043   9.076  10.662   8.630  1.4198  1.9216  0.2765
   82MOL0     H11044   9.022  10.697   8.935  2.0273 -2.6615 -1.1206
   82MOL0     H11045   9.131  10.798   8.856 -1.1123  1.2926  1.8868
   82MOL0     H11046   8.945  10.863   8.686  2.7206  3.1627  0.7331
   82MOL0     H11047   8.945  10.923   8.853 -0.7084 -1.1841  2.5790
   82MOL0     H11048   8.711  10.830   8.759 -0.5443  1.3887  2.0929
   82MOL0     H11049   8.784  10.677   8.723 -0.1606  1.8308 -1.6868
   82MOL0     H11050   9.763  10.534   8.549  4.3236 -0.9975 -0.0971
   82MOL0     H11051   9.968  10.572   8.432 -0.2782 -1.3730  1.7749
   82MOL0     H11052  10.125  10.868   7.999  1.9344  4.3986 -2.2181
   82MOL0     H11053  10.347  10.911   7.870  1.6112 -0.1754  0.0365
   82MOL0     H11054  10.829  11.602   8.715  3.6020 -0.7618 -2.5310
   82MOL0     H11055  10.761  11.392   8.835  0.4933 -1.2307 -0.5386
   82MOL0     H11056  10.554  11.090   9.105  1.0339  1.3026 -0.6361
   82MOL0     H11057  10.534  10.875   9.229  0.7472 -0.8600  0.8281
   82MOL0     H11058  10.880  10.686   9.458 -2.0429  0.8271 -0.4106
   82MOL0     H11059  10.942  10.670   9.306  1.5575 -2.7675  1.0015
   82MOL0     H11060  10.782  10.467   9.258 -2.9642  0.3769 -0.4480
   82MOL0     H11061  10.688  10.512   9.400 -0.8385 -1.3315 -2.9239
   82MOL0     H11062  10.809  10.338   9.491 -3.1708  1.3659 -1.4057
   82MOL0     H11063  10.892  10.481   9.537  3.0295 -0.0254 -0.8294
   82MOL0     H11064  11.042  10.450   9.332 -2.4380 -0.6369 -2.6503
   82MOL0     H11065  11.067  10.358   9.485 -0.5965  2.7531  0.3668
   82MOL0     H11066  10.934  10.118   9.141  1.4502  0.5292 -1.1836
   82MOL0     H11067  10.954  10.875   9.275  0.5638  2.8976  0.7228
   82MOL0     H11068  11.027  11.196   9.201 -3.1711  0.3828  1.2690
   82MOL0     H11069  11.090  11.052   9.280  1.8848 -0.9546 -1.4186
   82MOL0     H11070  11.060  11.060   9.102 -3.3551  2.2315 -1.7609
   83MOL0     O11071   1.042   2.805   2.133  0.5863  0.9465  0.0159
   83MOL0     C11072   0.996   2.814   2.249 -0.0024 -0.6086 -0.4540
   83MOL0     O11073   0.988   2.713   2.346  0.2060  0.4044  0.5877
   83MOL0     C11074   1.079   2.619   2.322 -0.1180 -0.3855 -0.4941
   83MOL0     C11075   1.035   2.490   2.288 -0.4264 -0.1403  0.4577
   83MOL0     C11076   1.123   2.380   2.275 -0.4388 -0.6085 -0.6078
   83MOL0     C11077   1.261   2.409   2.284  1.0833 -0.5815  0.3168
   83MOL0     O11078   1.345   2.319   2.235  0.5236  0.8755 -0.1590
   83MOL0     C11079   1.406   2.243   2.335 -0.4030  0.5305  0.0494
   83MOL0     C11080   1.479   2.130   2.267  0.0146 -0.1536  0.2594
   83MOL0     C11081   1.378   2.031   2.212  0.3587  0.3634  0.3654
   83MOL0     C11082   1.378   1.911   2.312  0.4196  0.3940 -0.6495
   83MOL0     C11083   1.231   1.853   2.324  0.4607 -0.2288 -0.3994
   83MOL0     C11084   1.139   1.912   2.440  0.6739  0.2266  1.2519
   83MOL0     C11085   1.014   1.830   2.476  0.9477  0.5950 -0.1932
   83MOL0     C11086   0.910   1.824   2.363 -0.4513 -0.0694 -0.1037
   83MOL0     N11087   0.859   1.957   2.335  0.0206 -0.0049  0.3438
   83MOL0     C11088   0.748   2.026   2.375 -0.5788  0.2648 -0.0271
   83MOL0     C11089   0.760   2.148   2.317 -0.4363  0.7600 -0.0379
   83MOL0     C11090   0.646   2.248   2.325 -0.2305 -0.2734 -0.5046
   83MOL0     C11091   0.680   2.356   2.434 -0.3569 -0.4170  0.0463
   83MOL0     C11092   0.604   2.486   2.410 -0.1313 -0.0094  0.3704
   83MOL0     C11093   0.685   2.608   2.465  0.5685  0.0326  0.3289
   83MOL0     O11094   0.676   2.638   2.601  0.4025 -0.6668  0.1669
   83MOL0     C11095   0.764   2.745   2.629  1.2375  1.1206 -0.4715
   83MOL0     C11096   0.902   2.723   2.634  0.0212  0.5860 -1.1775
   83MOL0     C11097   0.983   2.835   2.662 -0.0999 -0.8841  0.4603
   83MOL0     C11098   0.919   2.960   2.669 -0.2856 -0.1605  0.2160
   83MOL0     C11099   1.014   3.070   2.687 -0.2317 -0.0842 -0.0913
   83MOL0     O11100   0.958   3.193   2.662  0.0673  0.4659  0.2946
   83MOL0     C11101   1.037   3.302   2.670 -0.0697 -1.4975 -0.9407
   83MOL0     C11102   1.167   3.315   2.617  0.1035  0.0110 -0.2610
   83MOL0     C11103   1.239   3.427   2.641  0.3287 -0.5657  0.2080
   83MOL0     C11104   1.188   3.535   2.716 -1.0723 -0.8977  1.0110
   83MOL0     O11105   1.268   3.639   2.736  0.2891 -0.4084  0.2967
   83MOL0     C11106   1.226   3.758   2.809  0.3385 -0.1559  0.1590
   83MOL0     C11107   1.312   3.879   2.775  0.0680  0.6122 -0.4117
   83MOL0     C11108   1.254   3.943   2.654 -0.0343  0.0390 -1.0930
   83MOL0     C11109   1.354   4.054   2.607  0.0333 -0.7960  0.4962
   83MOL0     C11110   1.285   4.140   2.503 -0.1207  1.1371 -0.2312
   83MOL0     C11111   1.266   4.066   2.369  0.2805 -0.7622  0.2647
   83MOL0     C11112   1.123   4.052   2.331  0.1758  0.3663  0.1521
   83MOL0     C11113   1.040   4.186   2.315  0.3527  0.8897 -0.1677
   83MOL0    Cl11114   0.881   4.148   2.238  0.1527  0.2902  0.2291
   83MOL0     C11115   1.058   3.524   2.767 -0.1451 -0.1508 -0.8382
   83MOL0     C11116   0.986   3.407   2.754  0.1753  0.2720  0.5795
   83MOL0     O11117   1.129   3.047   2.716  0.3692  0.3020 -0.0508
   83MOL0     C11118   0.783   2.981   2.665 -0.1655 -0.4092 -0.8204
   83MOL0     C11119   0.713   2.864   2.646  0.8516 -0.3968 -0.8901
   83MOL0     N11120   0.879   2.153   2.245  1.1835  0.0198  0.1232
   83MOL0     N11121   0.927   2.030   2.248 -0.1122 -0.4916 -0.2073
   83MOL0     C11122   1.312   2.543   2.294  0.7872  0.8010 -0.4796
   83MOL0     C11123   1.219   2.644   2.317  0.5863 -1.3469  0.3090
   83MOL0     C11124   0.922   2.935   2.284  0.0777  0.1409 -0.2440
   83MOL0     C11125   0.785   2.937   2.278 -0.3884  0.4390  0.1781
   83MOL0     C11126   0.714   3.056   2.313  0.2358 -0.0962  0.6261
   83MOL0     C11127   0.783   3.180   2.335 -0.5548 -0.3349 -0.5078
   83MOL0     O11128   0.729   3.306   2.361 -0.7636  0.3597  0.7995
   83MOL0     C11129   0.582   3.325   2.362  0.7055  0.0963 -0.7541
   83MOL0     C11130   0.529   3.367   2.495  0.5962 -0.4384 -0.0789
   83MOL0     C11131   0.597   3.498   2.556 -0.4389 -0.1246  0.1413
   83MOL0     C11132   0.577   3.525   2.703 -0.0991  0.4388  0.4224
   83MOL0     C11133   0.452   3.480   2.767 -0.1123  0.5253  1.2899
   83MOL0     C11134   0.361   3.427   2.829  0.5958 -0.0099 -0.2172
   83MOL0     C11135   0.921   3.174   2.338 -0.7793 -0.5739 -0.5292
   83MOL0     C11136   0.990   3.054   2.309 -0.5666  0.5760  0.5559
   83MOL0     C11137   1.144   3.059   2.315  0.4462 -0.0165  0.2832
   83MOL0     H11138   0.928   2.476   2.285 -0.5321  0.7214  0.1123
   83MOL0     H11139   1.098   2.280   2.241 -2.1024 -0.1792 -0.7369
   83MOL0     H11140   1.479   2.300   2.393  1.2474 -3.1042  1.8495
   83MOL0     H11141   1.333   2.204   2.407  1.5169 -3.1376  0.2184
   83MOL0     H11142   1.556   2.091   2.333  0.9101  0.9831 -0.0749
   83MOL0     H11143   1.524   2.182   2.182 -1.7904 -0.2636 -0.8278
   83MOL0     H11144   1.414   1.997   2.114  0.1381  1.3976 -0.0908
   83MOL0     H11145   1.279   2.075   2.202  1.2251  2.1973 -0.5860
   83MOL0     H11146   1.443   1.825   2.292  0.9742  0.8894 -1.0165
   83MOL0     H11147   1.411   1.936   2.414 -0.0133  0.4041 -0.5085
   83MOL0     H11148   1.176   1.860   2.230  1.6139 -0.8439 -1.1385
   83MOL0     H11149   1.236   1.745   2.335 -0.4660 -0.3317 -0.8864
   83MOL0     H11150   1.202   1.925   2.528  1.3936  0.7031  0.6774
   83MOL0     H11151   1.113   2.009   2.397 -3.2956 -1.3637 -0.3862
   83MOL0     H11152   0.973   1.861   2.573  0.3909  0.9385 -0.5338
   83MOL0     H11153   1.036   1.724   2.491 -1.1371 -0.1762 -2.0698
   83MOL0     H11154   0.949   1.782   2.270  2.9863  0.4200  0.9940
   83MOL0     H11155   0.822   1.760   2.379 -0.9457  0.1115 -1.9393
   83MOL0     H11156   0.685   1.993   2.457  1.3527 -1.0007  1.0077
   83MOL0     H11157   0.650   2.295   2.226  3.5568  2.2165  0.6151
   83MOL0     H11158   0.548   2.205   2.349 -0.9533  1.5298 -0.0694
   83MOL0     H11159   0.644   2.317   2.530  0.5663  2.6768  1.7648
   83MOL0     H11160   0.790   2.362   2.438 -0.1911 -2.8790  1.4796
   83MOL0     H11161   0.500   2.480   2.443 -0.0999 -0.0360  0.4679
   83MOL0     H11162   0.608   2.501   2.302  1.3936  3.8102  0.7939
   83MOL0     H11163   0.645   2.691   2.406 -0.9079  0.5000  1.8954
   83MOL0     H11164   0.788   2.597   2.432  0.4223  4.0916 -2.3066
   83MOL0     H11165   0.945   2.628   2.606 -0.5852 -0.2890  0.6719
   83MOL0     H11166   1.089   2.815   2.674 -0.0326  0.0623  1.6847
   83MOL0     H11167   1.213   3.242   2.550  1.1863  0.6415 -0.2336
   83MOL0     H11168   1.326   3.435   2.576 -0.7461 -0.1582 -1.2392
   83MOL0     H11169   1.122   3.783   2.784  0.6268  2.3136  1.0923
   83MOL0     H11170   1.227   3.736   2.916  2.5580 -0.3667  0.1358
   83MOL0     H11171   1.315   3.955   2.854  2.3665  1.3733 -1.1756
   83MOL0     H11172   1.416   3.852   2.755 -0.8216 -1.6742 -2.5076
   83MOL0     H11173   1.251   3.859   2.583 -2.1231  0.0379 -1.0491
   83MOL0     H11174   1.153   3.979   2.674  0.6510  0.8474  1.2863
   83MOL0     H11175   1.449   4.010   2.576 -0.3834 -3.4390  2.6721
   83MOL0     H11176   1.382   4.123   2.687  0.2111  1.4722 -1.4230
   83MOL0     H11177   1.348   4.227   2.484  4.6401 -2.0816 -0.8649
   83MOL0     H11178   1.188   4.166   2.548  1.8506  0.7767  4.8371
   83MOL0     H11179   1.321   4.107   2.284  1.8293 -2.0145  0.6260
   83MOL0     H11180   1.303   3.964   2.377  2.5867  0.1096  1.5862
   83MOL0     H11181   1.072   3.997   2.410  2.8318 -1.4987  0.7020
   83MOL0     H11182   1.109   4.006   2.233 -0.9995  2.3804 -0.6965
   83MOL0     H11183   1.012   4.223   2.414 -1.3304 -0.3904 -0.1160
   83MOL0     H11184   1.094   4.261   2.257  1.4965  0.1895 -0.0345
   83MOL0     H11185   1.012   3.603   2.825 -0.7623 -0.1446 -1.3271
   83MOL0     H11186   0.883   3.403   2.787  0.5428 -3.4342  1.6987
   83MOL0     H11187   0.732   3.076   2.653  0.3675 -0.2453 -2.0136
   83MOL0     H11188   0.606   2.873   2.631  0.6591 -0.8581  0.0848
   83MOL0     H11189   1.418   2.564   2.291  1.0241  0.1285  1.7159
   83MOL0     H11190   1.238   2.750   2.331 -1.9546 -0.9029  0.7564
   83MOL0     H11191   0.743   2.848   2.233  2.6372  0.3768 -2.8927
   83MOL0     H11192   0.606   3.061   2.319 -0.1083  1.1757 -3.5762
   83MOL0     H11193   0.527   3.240   2.321 -0.2042  0.2671  0.0471
   83MOL0     H11194   0.553   3.410   2.301 -2.3398 -1.1858 -1.2812
   83MOL0     H11195   0.541   3.285   2.566  0.9955 -0.3218 -0.0062
   83MOL0     H11196   0.424   3.390   2.474  0.2077 -3.1081 -1.5085
   83MOL0     H11197   0.555   3.585   2.505 -2.4209 -2.6785 -3.0136
   83MOL0     H11198   0.703   3.475   2.542 -0.4107  0.9764 -1.7257
   83MOL0     H11199   0.655   3.469   2.756  3.0271  2.5806 -1.6212
   83MOL0     H11200   0.592   3.631   2.724  1.9204 -0.1570  2.4974
   83MOL0     H11201   0.300   3.376   2.900  0.8183  2.2849  1.7661
   83MOL0     H11202   0.985   3.261   2.351 -0.6701 -0.4689 -1.6593
   83MOL0     H11203   1.180   3.012   2.406 -1.5252 -1.5436  0.3188
   83MOL0     H11204   1.183   3.020   2.220 -0.3455  2.6641 -1.2715
   83MOL0     H11205   1.182   3.161   2.330 -0.3208  0.6724 -2.0528
   84MOL0     O11206   2.220   9.938   0.060 -1.0062 -0.9449 -0.3433
   84MOL0     C11207   2.196   9.820   0.070  0.2602 -0.1751  0.0562
   84MOL0     O11208   2.165   9.750  -0.038 -0.0886  0.3949  0.5212
   84MOL0     C11209   2.137   9.819  -0.157  0.2779  0.2514 -0.9622
   84MOL0     C11210   2.218   9.793  -0.265 -0.1477  0.5539  0.5844
   84MOL0     C11211   2.178   9.845  -0.390 -0.7267 -0.6289  0.5011
   84MOL0     C11212   2.058   9.916  -0.400 -0.3928  1.2614 -0.1314
   84MOL0     O11213   2.020   9.953  -0.526  0.7258 -0.1043  0.0858
   84MOL0     C11214   1.968  10.084  -0.551 -0.1927 -0.0862 -0.5619
   84MOL0     C11215   1.925  10.096  -0.705 -0.4594 -0.3300  0.0563
   84MOL0     C11216   1.894  10.237  -0.755  0.0058 -0.3289 -0.6953
   84MOL0     C11217   1.839  10.231  -0.895  0.0862  0.0227 -0.7995
   84MOL0     C11218   1.790  10.372  -0.933 -0.1767 -0.9348  0.7016
   84MOL0     C11219   1.747  10.367  -1.079 -0.1217 -0.3873 -0.1063
   84MOL0     C11220   1.693  10.506  -1.119 -0.0550 -0.8215  0.3743
   84MOL0     C11221   1.614  10.493  -1.250  0.4898 -0.0668 -0.3775
   84MOL0     N11222   1.574  10.628  -1.288  0.5946 -0.0134  0.1932
   84MOL0     C11223   1.651  10.736  -1.317  0.0293 -0.4708  0.7732
   84MOL0     C11224   1.574  10.844  -1.324  0.6285  0.1954  0.7769
   84MOL0     C11225   1.630  10.987  -1.346 -0.4158  0.6241 -0.2802
   84MOL0     C11226   1.697  10.972  -1.482  0.5324  0.2899 -0.6766
   84MOL0     C11227   1.598  10.941  -1.605  0.2382 -0.3436 -0.0017
   84MOL0     C11228   1.666  10.929  -1.734 -0.4027 -1.0053  0.0021
   84MOL0     O11229   1.684  11.050  -1.806  0.0055  0.6079  0.7809
   84MOL0     C11230   1.779  11.055  -1.908  0.6390  0.2695 -0.4102
   84MOL0     C11231   1.837  10.938  -1.965  0.5875 -0.2266  0.4094
   84MOL0     C11232   1.942  10.956  -2.062  0.2302  0.5118 -0.2701
   84MOL0     C11233   1.984  11.071  -2.110  0.3500  0.6451  0.8218
   84MOL0     C11234   2.084  11.074  -2.221  0.1590 -0.2323 -0.4575
   84MOL0     O11235   2.083  11.175  -2.312  0.2676  0.1078 -1.0106
   84MOL0     C11236   2.192  11.191  -2.401  0.5058 -0.3318  0.8456
   84MOL0     C11237   2.327  11.177  -2.360  0.7995 -0.8830  0.6203
   84MOL0     C11238   2.428  11.233  -2.433 -0.6985  0.1651 -0.5078
   84MOL0     C11239   2.403  11.308  -2.552 -0.1917  0.7377  0.1384
   84MOL0     O11240   2.502  11.380  -2.619 -0.0609 -0.2182  0.7162
   84MOL0     C11241   2.462  11.512  -2.657 -0.3168 -0.2035  0.1636
   84MOL0     C11242   2.574  11.589  -2.731 -0.4249  0.5863  1.0328
   84MOL0     C11243   2.674  11.489  -2.795  0.3461 -0.2103 -0.0760
   84MOL0     C11244   2.760  11.564  -2.896  0.5895  0.3337  0.1898
   84MOL0     C11245   2.813  11.702  -2.843 -0.2459  0.1443 -0.2264
   84MOL0     C11246   2.898  11.695  -2.715 -0.1633 -0.0597  0.3974
   84MOL0     C11247   2.921  11.838  -2.664  0.2463  0.5976 -0.2053
   84MOL0     C11248   3.057  11.853  -2.593  0.2815 -0.2542  0.3457
   84MOL0    Cl11249   3.059  12.007  -2.488 -0.2898  0.0412 -0.3562
   84MOL0     C11250   2.271  11.299  -2.609 -0.2202 -0.7258  0.7550
   84MOL0     C11251   2.168  11.244  -2.531 -0.6833  0.9521 -0.6420
   84MOL0     O11252   2.156  10.972  -2.220 -0.0283  0.3225  0.0469
   84MOL0     C11253   1.918  11.192  -2.058 -0.3544 -0.2144  0.4063
   84MOL0     C11254   1.821  11.176  -1.956 -0.6439  0.9479 -0.9076
   84MOL0     N11255   1.441  10.808  -1.302 -0.1102 -0.5187 -0.7804
   84MOL0     N11256   1.450  10.680  -1.271  0.1344 -0.5201  0.2478
   84MOL0     C11257   1.981   9.945  -0.290 -0.6043 -0.6302  0.6916
   84MOL0     C11258   2.020   9.892  -0.165 -0.3945 -0.0212 -0.1763
   84MOL0     C11259   2.194   9.756   0.195 -0.1214  0.4020  0.8151
   84MOL0     C11260   2.176   9.612   0.191  0.6346 -0.8312  0.1168
   84MOL0     C11261   2.185   9.534   0.306  0.1318 -0.0362  0.2128
   84MOL0     C11262   2.220   9.591   0.431 -0.1275 -0.3057  0.1438
   84MOL0     O11263   2.214   9.523   0.548 -0.6560 -0.0398 -0.0876
   84MOL0     C11264   2.264   9.390   0.569 -0.1355 -0.8100  0.4124
   84MOL0     C11265   2.392   9.386   0.654  0.0014  1.2421 -0.5919
   84MOL0     C11266   2.495   9.464   0.582  0.6915 -0.2238 -0.0998
   84MOL0     C11267   2.623   9.454   0.655 -1.1622 -0.9600 -0.7802
   84MOL0     C11268   2.667   9.309   0.665  0.5215 -0.4547  0.3085
   84MOL0     C11269   2.716   9.201   0.650  0.5439  0.2519  0.7514
   84MOL0     C11270   2.230   9.729   0.430 -0.9396  0.1947  0.0367
   84MOL0     C11271   2.211   9.815   0.321 -0.6440 -0.1786  0.4735
   84MOL0     C11272   2.231   9.961   0.344  0.7428 -0.2177  0.3557
   84MOL0     H11273   2.310   9.740  -0.245  1.1349  1.1668 -2.9268
   84MOL0     H11274   2.238   9.823  -0.478  0.3130 -0.9455  1.2740
   84MOL0     H11275   1.883  10.105  -0.485  1.7716  4.0110  0.9634
   84MOL0     H11276   2.042  10.162  -0.531  0.3945 -0.5844 -0.7584
   84MOL0     H11277   1.834  10.038  -0.721 -0.1776 -0.6280 -0.4653
   84MOL0     H11278   2.007  10.049  -0.759  1.9276  0.8151  2.4393
   84MOL0     H11279   1.991  10.287  -0.749  0.6238 -1.4391 -1.0304
   84MOL0     H11280   1.821  10.287  -0.692 -1.7722 -2.7189 -0.7165
   84MOL0     H11281   1.921  10.201  -0.960  0.1121  1.4700 -1.4618
   84MOL0     H11282   1.754  10.162  -0.907  0.6243 -0.8142  0.0069
   84MOL0     H11283   1.706  10.414  -0.878  0.3085  1.0746  0.0037
   84MOL0     H11284   1.875  10.441  -0.936 -2.3970  1.9374 -1.1075
   84MOL0     H11285   1.830  10.348  -1.148  0.1123  0.6894 -0.1315
   84MOL0     H11286   1.673  10.287  -1.093  1.6582 -1.7650 -2.4629
   84MOL0     H11287   1.781  10.559  -1.157 -0.9904 -0.7718 -1.9253
   84MOL0     H11288   1.634  10.563  -1.047 -0.3898  0.3609 -0.7869
   84MOL0     H11289   1.666  10.441  -1.331 -0.6499 -3.2222  0.7675
   84MOL0     H11290   1.525  10.436  -1.222  0.4573  0.7773  1.3309
   84MOL0     H11291   1.758  10.728  -1.334 -0.1778  0.2743 -1.1952
   84MOL0     H11292   1.550  11.061  -1.353 -0.9810  0.0092 -0.3440
   84MOL0     H11293   1.704  11.011  -1.268 -1.9708  0.6970  1.2341
   84MOL0     H11294   1.756  11.063  -1.495  1.7930 -0.5479 -0.9480
   84MOL0     H11295   1.763  10.885  -1.489  1.2545  0.6972  0.6990
   84MOL0     H11296   1.523  11.021  -1.610  1.7284  1.0607 -3.3828
   84MOL0     H11297   1.556  10.842  -1.585 -3.8370  0.7562 -1.9580
   84MOL0     H11298   1.617  10.844  -1.781 -1.9555 -1.4707  2.2962
   84MOL0     H11299   1.765  10.898  -1.698 -1.3371 -1.1451  2.7386
   84MOL0     H11300   1.818  10.839  -1.924  1.1281  0.4509  2.4151
   84MOL0     H11301   1.983  10.862  -2.097  2.9667  0.2119  3.2263
   84MOL0     H11302   2.352  11.130  -2.265  0.0429  0.6205  1.6093
   84MOL0     H11303   2.528  11.223  -2.392 -0.6759  1.3542 -0.2464
   84MOL0     H11304   2.374  11.517  -2.722  0.3776 -1.8239 -0.9537
   84MOL0     H11305   2.439  11.558  -2.560  0.5630 -1.4674  0.9941
   84MOL0     H11306   2.539  11.662  -2.805  4.2103  2.7390  0.6167
   84MOL0     H11307   2.622  11.651  -2.654 -2.0497  2.0498  0.9369
   84MOL0     H11308   2.749  11.461  -2.721  1.3464 -1.1003 -1.3944
   84MOL0     H11309   2.620  11.401  -2.832 -0.3655  0.3696 -0.4575
   84MOL0     H11310   2.693  11.590  -2.979 -1.4833 -1.6024  1.1311
   84MOL0     H11311   2.846  11.504  -2.928  1.2340  0.4298  1.6864
   84MOL0     H11312   2.726  11.765  -2.824  0.8102  1.0263  2.0631
   84MOL0     H11313   2.876  11.748  -2.920 -0.1925 -0.1235 -0.3432
   84MOL0     H11314   2.842  11.646  -2.635 -1.3464  1.1875  0.3700
   84MOL0     H11315   3.000  11.665  -2.740  0.2759  2.8061 -1.7019
   84MOL0     H11316   2.837  11.866  -2.600 -0.4125 -1.2956 -0.1950
   84MOL0     H11317   2.916  11.905  -2.750 -0.5387 -2.1952 -2.4868
   84MOL0     H11318   3.063  11.760  -2.536  0.0644 -0.5162 -0.0536
   84MOL0     H11319   3.132  11.858  -2.672 -3.0503  1.2343 -3.0625
   84MOL0     H11320   2.244  11.349  -2.701 -0.0258 -0.1105  1.0301
   84MOL0     H11321   2.070  11.249  -2.576 -0.5207  2.0221 -0.8830
   84MOL0     H11322   1.956  11.291  -2.083 -2.0208  0.1343 -0.9295
   84MOL0     H11323   1.766  11.257  -1.909 -4.1523 -1.6219 -0.1897
   84MOL0     H11324   1.892  10.005  -0.308  0.7540  0.7263 -2.3352
   84MOL0     H11325   1.957   9.890  -0.076  2.3850  3.0360  2.1006
   84MOL0     H11326   2.155   9.556   0.100  1.8570 -0.1742 -0.5768
   84MOL0     H11327   2.165   9.427   0.309 -0.5547  0.1095  1.5025
   84MOL0     H11328   2.278   9.339   0.473  1.7987  1.1908 -0.4391
   84MOL0     H11329   2.190   9.336   0.629 -0.1756  0.5481  1.6427
   84MOL0     H11330   2.409   9.280   0.671 -3.3042  0.5272 -1.1530
   84MOL0     H11331   2.386   9.428   0.755 -0.8668  0.0720 -0.1415
   84MOL0     H11332   2.466   9.569   0.585 -0.1495 -0.4830  1.7088
   84MOL0     H11333   2.504   9.433   0.477 -0.3785 -2.3868  0.3845
   84MOL0     H11334   2.702   9.508   0.602  2.1619 -1.8938  2.7683
   84MOL0     H11335   2.614   9.497   0.755  2.0093 -0.7990 -0.4708
   84MOL0     H11336   2.764   9.108   0.629 -1.6091 -0.6666 -0.4253
   84MOL0     H11337   2.246   9.776   0.526  1.1602  1.4307 -0.8748
   84MOL0     H11338   2.246   9.985   0.450  0.1123 -1.1657  0.6687
   84MOL0     H11339   2.319   9.985   0.283  1.3868 -1.6565  0.6939
   84MOL0     H11340   2.138  10.012   0.316 -1.3121 -1.4724  4.1817
   85MOL0     O11341   4.148   2.447   8.497  0.9199 -0.2335 -0.4343
   85MOL0     C11342   4.205   2.548   8.467 -0.1058 -0.7151  0.5421
   85MOL0     O11343   4.209   2.606   8.340  0.0146  0.7075 -0.5638
   85MOL0     C11344   4.146   2.543   8.231 -0.3874 -0.0015  0.2417
   85MOL0     C11345   4.219   2.498   8.126  1.4531  0.0942  0.5272
   85MOL0     C11346   4.146   2.444   8.013  0.6132  1.1973 -0.3183
   85MOL0     C11347   4.011   2.418   8.014 -0.0917 -0.9908 -0.5301
   85MOL0     O11348   3.945   2.354   7.910  0.0695  0.3399 -0.1272
   85MOL0     C11349   4.020   2.254   7.845  0.3311  0.3531 -0.3667
   85MOL0     C11350   3.933   2.173   7.755 -0.1397 -0.4169 -0.0222
   85MOL0     C11351   3.842   2.260   7.652  0.5489  1.0220  0.7190
   85MOL0     C11352   3.702   2.203   7.627  0.1406  0.2320  1.3002
   85MOL0     C11353   3.709   2.060   7.562  0.0328 -0.3273  0.2906
   85MOL0     C11354   3.567   2.001   7.514 -0.6445 -0.0809  0.9579
   85MOL0     C11355   3.594   1.853   7.455 -0.3816 -0.4993 -1.1653
   85MOL0     C11356   3.463   1.801   7.391  0.4084  0.4342  0.7099
   85MOL0     N11357   3.480   1.659   7.366  0.7587 -0.2480 -0.5415
   85MOL0     C11358   3.525   1.606   7.257  0.3486  0.4108  0.0913
   85MOL0     C11359   3.512   1.475   7.278 -0.3115 -0.1026 -0.0479
   85MOL0     C11360   3.517   1.352   7.183 -0.4589  0.0104  0.6074
   85MOL0     C11361   3.433   1.357   7.058 -0.3376 -0.0125 -0.3623
   85MOL0     C11362   3.301   1.444   7.081 -0.6519 -0.0063 -0.5394
   85MOL0     C11363   3.293   1.583   7.015  0.1111  0.6143 -0.4027
   85MOL0     O11364   3.284   1.554   6.873 -0.0593  0.2380  0.8993
   85MOL0     C11365   3.299   1.662   6.786 -0.4362  0.7888 -0.1959
   85MOL0     C11366   3.332   1.802   6.816  0.6769  0.6892 -0.8063
   85MOL0     C11367   3.345   1.896   6.714  0.5928 -1.0950 -0.3874
   85MOL0     C11368   3.339   1.858   6.580 -0.0026  0.6993 -0.8943
   85MOL0     C11369   3.326   1.953   6.481 -0.0084  0.3933  0.3381
   85MOL0     O11370   3.344   1.902   6.358  0.6463 -0.0189 -0.6988
   85MOL0     C11371   3.313   1.981   6.255  1.1857 -0.7751 -0.2907
   85MOL0     C11372   3.178   1.994   6.210  0.5540 -0.1474  0.6729
   85MOL0     C11373   3.142   2.081   6.103 -0.8175 -0.2853  0.3331
   85MOL0     C11374   3.238   2.164   6.041  0.5176 -0.3947 -0.1582
   85MOL0     O11375   3.186   2.233   5.937 -0.8940 -0.6975 -0.1004
   85MOL0     C11376   3.221   2.371   5.915 -0.0225  0.0983 -0.2646
   85MOL0     C11377   3.259   2.396   5.770  0.1101 -0.0432 -0.0933
   85MOL0     C11378   3.356   2.294   5.699  0.2557  0.0318  1.3301
   85MOL0     C11379   3.402   2.338   5.553  0.0629  0.7043 -0.3879
   85MOL0     C11380   3.430   2.221   5.468 -0.6173 -0.0588 -0.5354
   85MOL0     C11381   3.496   2.257   5.338 -0.3850 -0.0185  0.2994
   85MOL0     C11382   3.516   2.141   5.241 -0.2115 -0.6973  0.3335
   85MOL0     C11383   3.571   2.184   5.098  0.2873  0.5386 -0.1959
   85MOL0    Cl11384   3.458   2.278   4.989 -0.3448  0.0080 -0.2888
   85MOL0     C11385   3.375   2.155   6.086  0.4216 -0.5814  0.6322
   85MOL0     C11386   3.408   2.066   6.187  0.3635 -0.2196 -0.5824
   85MOL0     O11387   3.282   2.065   6.508  0.1938  0.6609 -0.1902
   85MOL0     C11388   3.333   1.719   6.552 -0.0784  0.3236 -0.4674
   85MOL0     C11389   3.294   1.626   6.652 -0.0361  0.1867  0.5494
   85MOL0     N11390   3.462   1.459   7.410  0.0969 -0.1345 -0.0342
   85MOL0     N11391   3.441   1.573   7.466  0.3573  0.3443 -0.1371
   85MOL0     C11392   3.941   2.464   8.132  0.4044 -0.2460 -0.1104
   85MOL0     C11393   4.014   2.523   8.236  0.2436  0.0547 -0.4770
   85MOL0     C11394   4.276   2.616   8.582 -0.0073  0.5685  0.1713
   85MOL0     C11395   4.341   2.732   8.553  0.8388  0.5882  0.1981
   85MOL0     C11396   4.396   2.808   8.655  0.1355 -0.4960  0.6104
   85MOL0     C11397   4.394   2.765   8.784 -0.7853  0.0042  0.5462
   85MOL0     O11398   4.438   2.858   8.876 -0.6925 -0.1769 -0.3898
   85MOL0     C11399   4.482   2.805   9.004 -0.9398  0.6771  0.2823
   85MOL0     C11400   4.367   2.817   9.108  0.5140 -0.5302 -0.2866
   85MOL0     C11401   4.355   2.953   9.186  0.6214  0.2544 -1.1064
   85MOL0     C11402   4.435   2.944   9.314 -0.0426  0.5588 -0.3418
   85MOL0     C11403   4.571   2.979   9.294 -0.4578 -0.1656  0.1648
   85MOL0     C11404   4.691   3.022   9.274  0.2523  0.8721  0.9576
   85MOL0     C11405   4.333   2.653   8.821 -0.4286 -0.5932  0.5329
   85MOL0     C11406   4.279   2.573   8.721  0.7779  0.9951 -0.2076
   85MOL0     C11407   4.216   2.451   8.774  0.3915  0.4935  0.3526
   85MOL0     H11408   4.326   2.518   8.118  1.9592 -1.9974  1.2917
   85MOL0     H11409   4.208   2.405   7.933  0.2472  0.1895 -0.1214
   85MOL0     H11410   4.115   2.290   7.805  0.9339 -0.0779  0.6297
   85MOL0     H11411   4.050   2.175   7.915  3.7994 -0.4878 -2.5361
   85MOL0     H11412   3.877   2.113   7.827  2.0882  1.5444  3.6581
   85MOL0     H11413   3.997   2.102   7.702 -0.5688 -1.0965  0.3559
   85MOL0     H11414   3.898   2.262   7.558  2.0693 -3.3223  1.3165
   85MOL0     H11415   3.829   2.360   7.696  5.4706  1.2519  2.1722
   85MOL0     H11416   3.642   2.200   7.719 -0.1395 -1.4786  1.0925
   85MOL0     H11417   3.656   2.268   7.551  1.2784 -0.2153  0.1960
   85MOL0     H11418   3.791   2.052   7.490  2.6768 -0.0017  3.1052
   85MOL0     H11419   3.734   1.987   7.639  0.1886  2.5667  3.1903
   85MOL0     H11420   3.495   1.999   7.596 -1.8143  0.8815 -0.0020
   85MOL0     H11421   3.530   2.060   7.430  1.4404  0.1375  0.1156
   85MOL0     H11422   3.628   1.794   7.540 -1.3518  2.3592  1.4117
   85MOL0     H11423   3.673   1.851   7.379 -2.3943 -2.9344 -3.3582
   85MOL0     H11424   3.378   1.829   7.453 -2.5624  0.2742 -2.9316
   85MOL0     H11425   3.442   1.852   7.296 -1.8508 -1.4755  0.0956
   85MOL0     H11426   3.568   1.647   7.166 -0.8167 -1.7712 -1.5292
   85MOL0     H11427   3.622   1.326   7.170 -0.7447 -0.3868 -1.1852
   85MOL0     H11428   3.466   1.274   7.240 -0.1230 -1.5775 -1.1782
   85MOL0     H11429   3.494   1.402   6.979  0.6117  1.3497  1.0889
   85MOL0     H11430   3.392   1.259   7.035 -0.1254  0.1458 -1.4722
   85MOL0     H11431   3.287   1.449   7.189 -0.8274 -0.4541 -0.5366
   85MOL0     H11432   3.214   1.393   7.039 -2.7366  1.0875  2.1971
   85MOL0     H11433   3.384   1.642   7.030 -0.1585  0.5184  2.0812
   85MOL0     H11434   3.210   1.642   7.052 -0.0599 -0.1279  0.4335
   85MOL0     H11435   3.350   1.831   6.919  1.5735 -3.7673  0.5032
   85MOL0     H11436   3.338   2.003   6.731 -3.3742 -1.1684 -0.7388
   85MOL0     H11437   3.096   1.943   6.260 -0.5309  1.7323  0.9154
   85MOL0     H11438   3.038   2.093   6.073 -1.0255  0.9041  1.4391
   85MOL0     H11439   3.141   2.441   5.942  0.2027 -0.1375  1.0998
   85MOL0     H11440   3.311   2.396   5.972 -0.0221  0.3740 -0.3819
   85MOL0     H11441   3.170   2.398   5.707  0.9431 -2.0027 -1.4064
   85MOL0     H11442   3.318   2.488   5.773  0.7994 -0.4996  1.8519
   85MOL0     H11443   3.444   2.287   5.765  0.6431 -2.3234  0.6505
   85MOL0     H11444   3.316   2.192   5.696 -1.1769  0.4489 -4.0459
   85MOL0     H11445   3.486   2.406   5.571  1.3831 -1.2429  1.1341
   85MOL0     H11446   3.328   2.396   5.497  0.3130  3.7199  2.0949
   85MOL0     H11447   3.336   2.166   5.455 -1.8735  0.9980  3.0056
   85MOL0     H11448   3.496   2.155   5.524  0.4231  3.9084  3.5436
   85MOL0     H11449   3.426   2.332   5.301 -1.1311 -0.2667  1.1604
   85MOL0     H11450   3.589   2.313   5.348 -1.7624  2.1189  2.3834
   85MOL0     H11451   3.430   2.076   5.222  0.5249 -0.9862 -2.5222
   85MOL0     H11452   3.598   2.085   5.285  1.6290  0.5130 -1.3941
   85MOL0     H11453   3.666   2.236   5.112 -0.1641  1.7852 -1.4869
   85MOL0     H11454   3.592   2.089   5.049  1.6776  0.9262 -0.3855
   85MOL0     H11455   3.447   2.219   6.035 -0.2893 -1.8362 -2.1351
   85MOL0     H11456   3.508   2.055   6.229 -0.8746 -0.0180  2.6946
   85MOL0     H11457   3.340   1.696   6.446  1.5407  1.4193 -0.6345
   85MOL0     H11458   3.261   1.524   6.636 -1.5330  0.0391  3.8594
   85MOL0     H11459   3.838   2.431   8.133  0.6484 -1.3148  3.5580
   85MOL0     H11460   3.966   2.548   8.331 -0.2607 -0.8090 -0.4886
   85MOL0     H11461   4.329   2.781   8.457 -2.6071 -2.0189 -0.9076
   85MOL0     H11462   4.452   2.900   8.643  2.6620 -1.4014  3.9943
   85MOL0     H11463   4.577   2.844   9.042  2.7367 -4.3271 -2.5043
   85MOL0     H11464   4.514   2.701   8.988  2.3100  1.0814  2.8665
   85MOL0     H11465   4.373   2.734   9.178  1.3072 -0.6434 -0.4845
   85MOL0     H11466   4.285   2.798   9.038  2.9230 -1.8525 -2.8952
   85MOL0     H11467   4.248   2.967   9.206  0.7516  2.1425 -1.6098
   85MOL0     H11468   4.390   3.034   9.122 -1.7708  0.4955 -2.2329
   85MOL0     H11469   4.382   3.017   9.376  0.1700  1.9777 -1.7376
   85MOL0     H11470   4.423   2.846   9.361 -1.1257  0.2639 -1.2027
   85MOL0     H11471   4.783   3.071   9.250  1.5356 -2.5359 -1.9341
   85MOL0     H11472   4.328   2.619   8.924 -0.7202  2.6236  1.6864
   85MOL0     H11473   4.262   2.367   8.722 -2.4822  0.1623 -1.9476
   85MOL0     H11474   4.221   2.443   8.883  0.7762 -2.7419  0.2090
   85MOL0     H11475   4.108   2.452   8.754  0.6486  0.7853 -1.1325
   86MOL0     O11476   2.213  11.043  10.781 -0.6247 -0.3319 -0.3039
   86MOL0     C11477   2.235  11.000  10.886  0.0127  0.3446  0.0678
   86MOL0     O11478   2.170  11.034  11.002  0.7456  0.1570  0.2953
   86MOL0     C11479   2.086  11.147  11.022 -0.6836  0.1562  0.2462
   86MOL0     C11480   2.009  11.216  10.922 -0.2967 -0.0525 -0.0144
   86MOL0     C11481   1.936  11.328  10.954 -0.8086  0.3481  0.8662
   86MOL0     C11482   1.945  11.389  11.078 -0.0260  0.1906 -0.2735
   86MOL0     O11483   1.872  11.505  11.091  0.7161  0.4292 -0.1931
   86MOL0     C11484   1.797  11.528  11.208 -1.2493  0.2441 -1.2597
   86MOL0     C11485   1.671  11.443  11.231 -0.4140  1.0317  0.3901
   86MOL0     C11486   1.571  11.444  11.115  0.2209  0.0900 -1.2324
   86MOL0     C11487   1.615  11.366  10.995 -0.6419  0.2339 -0.4392
   86MOL0     C11488   1.496  11.329  10.913  0.1217  0.4021 -0.3757
   86MOL0     C11489   1.539  11.265  10.786 -0.2689  0.7448  0.7380
   86MOL0     C11490   1.427  11.242  10.683 -0.1021  0.5718 -0.1345
   86MOL0     C11491   1.328  11.135  10.715 -0.0257  0.2183 -0.0311
   86MOL0     N11492   1.231  11.116  10.606 -0.2226  0.1380 -0.4012
   86MOL0     C11493   1.245  11.038  10.496 -0.6439 -0.6445  0.5787
   86MOL0     C11494   1.143  11.058  10.413  0.7861 -0.2541  0.6188
   86MOL0     C11495   1.126  10.992  10.281  1.2939  0.4145  0.7458
   86MOL0     C11496   1.158  11.081  10.164  0.4934  1.0008  0.3943
   86MOL0     C11497   1.117  11.002  10.039  0.6170 -0.2583  0.3587
   86MOL0     C11498   1.192  11.042   9.915 -0.1431  0.5822  0.1477
   86MOL0     O11499   1.144  10.994   9.785 -0.4197 -0.0674  0.5897
   86MOL0     C11500   1.244  10.978   9.690 -0.3343 -0.2502 -0.0461
   86MOL0     C11501   1.248  10.860   9.618 -0.6345  0.1454 -0.0283
   86MOL0     C11502   1.339  10.842   9.510  0.7197 -0.6224  0.2386
   86MOL0     C11503   1.409  10.946   9.462 -0.3893 -0.2195 -0.0210
   86MOL0     C11504   1.496  10.933   9.345  0.4900  0.3568  0.0784
   86MOL0     O11505   1.520  11.038   9.270  0.1138  0.1679  0.3788
   86MOL0     C11506   1.575  11.010   9.145 -0.6365  0.7033 -0.0801
   86MOL0     C11507   1.715  11.001   9.133 -0.0505  0.8753 -0.3447
   86MOL0     C11508   1.775  11.015   9.004  0.5098 -0.0732 -1.0320
   86MOL0     C11509   1.699  11.015   8.893 -0.1234  0.0165  0.1044
   86MOL0     O11510   1.761  10.999   8.771  0.7160 -0.5444  0.0170
   86MOL0     C11511   1.743  10.865   8.717 -0.1896 -0.3430  0.8037
   86MOL0     C11512   1.873  10.802   8.656  0.4689  0.3784  0.2202
   86MOL0     C11513   1.986  10.799   8.769 -0.1449 -0.1235  0.5114
   86MOL0     C11514   1.959  10.695   8.869  0.1697  0.6467 -0.9630
   86MOL0     C11515   2.039  10.724   8.994  0.3381 -0.7634 -0.3091
   86MOL0     C11516   2.197  10.702   8.973  0.3213  0.3567 -0.1434
   86MOL0     C11517   2.285  10.707   9.106  0.6712  0.4516  0.0878
   86MOL0     C11518   2.427  10.657   9.084 -0.7547  0.0058 -0.1059
   86MOL0    Cl11519   2.532  10.784   9.162 -0.1486  0.3320  0.0183
   86MOL0     C11520   1.563  11.032   8.902  0.0600 -0.7156  0.3404
   86MOL0     C11521   1.507  11.034   9.025  0.8263 -0.2821  0.1388
   86MOL0     O11522   1.530  10.816   9.315 -0.2418  0.4646 -0.8857
   86MOL0     C11523   1.391  11.075   9.527  0.3890 -0.1598 -0.9210
   86MOL0     C11524   1.312  11.086   9.636  0.2192 -0.3686 -0.2067
   86MOL0     N11525   1.060  11.154  10.468  0.0258  0.3076 -0.1922
   86MOL0     N11526   1.109  11.176  10.588  0.0556  0.1832 -0.0304
   86MOL0     C11527   2.014  11.329  11.182  0.8811  0.4984 -0.7934
   86MOL0     C11528   2.084  11.203  11.156 -0.5663  0.8119  0.4881
   86MOL0     C11529   2.345  10.911  10.880  0.7857  0.8547 -0.0758
   86MOL0     C11530   2.418  10.902  10.758 -0.9170  0.0423 -0.3282
   86MOL0     C11531   2.513  10.802  10.739 -0.4808  0.4104  0.0851
   86MOL0     C11532   2.528  10.696  10.830  0.8049  0.1347 -0.4380
   86MOL0     O11533   2.603  10.587  10.807  0.4008 -0.2257  0.6670
   86MOL0     C11534   2.702  10.593  10.697 -0.4942 -0.5514  0.2939
   86MOL0     C11535   2.668  10.513  10.580  0.3523  0.3049  1.0975
   86MOL0     C11536   2.686  10.360  10.609 -0.1905 -0.4465 -0.4551
   86MOL0     C11537   2.630  10.270  10.500  0.2022  0.3097  0.1319
   86MOL0     C11538   2.640  10.137  10.562  0.1853  0.6332 -0.0241
   86MOL0     C11539   2.665  10.022  10.598  0.1125 -1.3177  1.0262
   86MOL0     C11540   2.455  10.705  10.953 -0.4780 -0.1553  0.2773
   86MOL0     C11541   2.363  10.806  10.974  0.0192  0.4665  0.7243
   86MOL0     C11542   2.282  10.796  11.102 -0.0698 -0.2232  0.1267
   86MOL0     H11543   2.013  11.170  10.824  0.3665 -2.9538  1.2377
   86MOL0     H11544   1.885  11.376  10.871  2.0358 -0.7393 -1.7298
   86MOL0     H11545   1.860  11.516  11.297 -2.2790  0.1566 -0.5233
   86MOL0     H11546   1.770  11.633  11.199  0.0778  0.5176 -2.2696
   86MOL0     H11547   1.606  11.464  11.316 -0.6039 -0.4645  0.6435
   86MOL0     H11548   1.716  11.344  11.230  4.5405  2.9984 -0.3627
   86MOL0     H11549   1.537  11.547  11.097 -1.6105 -0.5506 -1.7105
   86MOL0     H11550   1.477  11.399  11.146 -0.1386  1.2546 -0.5376
   86MOL0     H11551   1.686  11.429  10.940 -0.0484 -0.5757 -0.6243
   86MOL0     H11552   1.678  11.283  11.029  0.2141  0.7465 -0.7242
   86MOL0     H11553   1.424  11.267  10.965 -2.4592  2.9029 -0.7132
   86MOL0     H11554   1.443  11.424  10.902  0.3524  1.1747  3.6077
   86MOL0     H11555   1.610  11.322  10.726  2.2414 -2.0046  0.9268
   86MOL0     H11556   1.587  11.169  10.806  1.5430  1.3985 -0.2594
   86MOL0     H11557   1.475  11.219  10.588  0.1577 -2.8271  0.6956
   86MOL0     H11558   1.377  11.339  10.674  1.3297  1.2120 -1.7144
   86MOL0     H11559   1.380  11.044  10.745 -1.9791 -0.0282  3.0173
   86MOL0     H11560   1.279  11.176  10.804 -0.7235 -0.2370 -0.1973
   86MOL0     H11561   1.319  10.961  10.477 -1.5695 -1.5956  0.7841
   86MOL0     H11562   1.193  10.905  10.285  1.1518  0.3330  1.4813
   86MOL0     H11563   1.031  10.938  10.272  2.0409 -1.5258  3.1820
   86MOL0     H11564   1.105  11.174  10.187 -1.2579  0.1218  0.0908
   86MOL0     H11565   1.265  11.102  10.162  0.6207  0.3450 -0.8376
   86MOL0     H11566   1.009  11.009  10.022  0.6955  1.9836  0.4389
   86MOL0     H11567   1.127  10.896  10.062 -2.6921 -0.0796  3.7560
   86MOL0     H11568   1.291  11.009   9.947 -1.1411 -1.1482  1.6462
   86MOL0     H11569   1.204  11.150   9.906 -0.5415  0.7027  0.9319
   86MOL0     H11570   1.187  10.774   9.643  1.2737 -0.6419  2.2562
   86MOL0     H11571   1.350  10.751   9.451  2.7388  0.0534 -0.5106
   86MOL0     H11572   1.771  11.003   9.225  0.8057  2.7164 -0.8421
   86MOL0     H11573   1.883  11.007   9.001  0.5191 -1.6592  0.9931
   86MOL0     H11574   1.694  10.800   8.789 -3.6080  1.0198 -0.1186
   86MOL0     H11575   1.660  10.857   8.646  0.5160 -1.7269  0.0832
   86MOL0     H11576   1.851  10.708   8.606 -0.3680 -0.0330  1.3083
   86MOL0     H11577   1.915  10.866   8.578  1.6252  0.8011  1.1537
   86MOL0     H11578   2.084  10.785   8.724 -1.4919  0.0462 -2.7986
   86MOL0     H11579   1.987  10.894   8.823 -2.6777  2.8287 -3.9440
   86MOL0     H11580   1.985  10.599   8.823  2.8007  2.2970 -3.2178
   86MOL0     H11581   1.854  10.676   8.892  0.6411  0.8496  1.6281
   86MOL0     H11582   2.017  10.654   9.075 -3.7214 -0.0522 -0.5849
   86MOL0     H11583   2.010  10.815   9.046 -0.4171 -1.8920  1.3335
   86MOL0     H11584   2.200  10.600   8.932  2.0970  0.5269 -0.5059
   86MOL0     H11585   2.254  10.764   8.903 -0.1769  3.3882  1.9519
   86MOL0     H11586   2.226  10.648   9.176  0.0733  1.7300  0.7023
   86MOL0     H11587   2.292  10.809   9.145 -3.8609 -0.4308  4.1110
   86MOL0     H11588   2.453  10.569   9.144  1.3574  1.3983  1.1811
   86MOL0     H11589   2.459  10.640   8.981  0.4613 -0.8065  0.3770
   86MOL0     H11590   1.500  11.019   8.814 -1.6531 -1.3011  1.5950
   86MOL0     H11591   1.401  11.057   9.029  0.1324 -3.0880 -0.5636
   86MOL0     H11592   1.456  11.158   9.501  2.0087 -0.6070  1.3904
   86MOL0     H11593   1.306  11.183   9.683  1.0118 -0.6401  0.4657
   86MOL0     H11594   2.009  11.366  11.284  1.6661 -0.6529 -0.3144
   86MOL0     H11595   2.129  11.144  11.234 -1.5357  0.4845  0.8042
   86MOL0     H11596   2.410  10.986  10.688  1.5704  1.3072  0.7825
   86MOL0     H11597   2.558  10.815  10.641 -0.7711 -3.5306 -0.7344
   86MOL0     H11598   2.792  10.554  10.745 -1.8095 -1.9408  1.7820
   86MOL0     H11599   2.728  10.697  10.676  0.8812 -0.7249  1.0352
   86MOL0     H11600   2.735  10.537  10.497  1.2495 -2.0836  1.0490
   86MOL0     H11601   2.570  10.539  10.539  0.8594  0.0420 -0.3379
   86MOL0     H11602   2.631  10.340  10.702  0.2054 -0.8380 -0.3003
   86MOL0     H11603   2.791  10.338  10.629 -0.0687 -0.5203 -1.1762
   86MOL0     H11604   2.529  10.283  10.459 -1.3090 -1.5877  2.9197
   86MOL0     H11605   2.685  10.283  10.407  1.8516  2.8786  1.3469
   86MOL0     H11606   2.663   9.918  10.622 -2.5125 -2.0197 -1.6779
   86MOL0     H11607   2.470  10.624  11.022 -0.7547 -1.3066 -0.9747
   86MOL0     H11608   2.295  10.892  11.153 -1.3081  1.4275 -2.4372
   86MOL0     H11609   2.175  10.772  11.098  0.0881 -0.8121 -0.7869
   86MOL0     H11610   2.328  10.716  11.161 -2.7050 -2.1494 -0.2549
   87MOL0     O11611   9.534   5.470   7.303  0.6840  0.1124  0.1053
   87MOL0     C11612   9.582   5.487   7.412 -0.9198 -0.4632  0.6387
   87MOL0     O11613   9.520   5.549   7.516 -0.1556  0.1883  0.0686
   87MOL0     C11614   9.390   5.580   7.499  0.4844 -0.0321 -0.2648
   87MOL0     C11615   9.342   5.699   7.449 -0.2862 -0.1478  0.9052
   87MOL0     C11616   9.208   5.739   7.438 -0.5696  0.2613 -0.7187
   87MOL0     C11617   9.109   5.642   7.481  0.7805 -0.2915  0.4239
   87MOL0     O11618   8.973   5.673   7.492 -0.6245  0.6435 -0.3688
   87MOL0     C11619   8.933   5.806   7.484  0.3047  0.6609  0.7473
   87MOL0     C11620   8.785   5.796   7.461  0.0378 -0.1288 -0.4461
   87MOL0     C11621   8.718   5.932   7.458  0.4266  0.1346  0.0557
   87MOL0     C11622   8.559   5.932   7.452 -0.0267  1.2094  0.1211
   87MOL0     C11623   8.504   6.046   7.369  0.2219  0.8702  0.5583
   87MOL0     C11624   8.509   6.189   7.422 -0.2548  0.9144 -0.4049
   87MOL0     C11625   8.505   6.286   7.311 -0.1359 -0.8463 -0.3448
   87MOL0     C11626   8.373   6.277   7.239 -0.2871  0.3809 -0.9085
   87MOL0     N11627   8.354   6.403   7.168 -0.5640 -0.9911 -0.7360
   87MOL0     C11628   8.252   6.498   7.198 -0.5795  0.5113 -0.0534
   87MOL0     C11629   8.278   6.590   7.105  0.3457  0.2010  0.4921
   87MOL0     C11630   8.209   6.724   7.088 -0.1184  0.1422  0.9137
   87MOL0     C11631   8.178   6.791   7.222 -0.1792  0.0342  0.1756
   87MOL0     C11632   8.300   6.861   7.282 -0.0169 -0.0739  0.8200
   87MOL0     C11633   8.302   6.910   7.427 -0.0043 -1.0272  0.5149
   87MOL0     O11634   8.268   6.807   7.521 -0.4242  0.4961 -0.2730
   87MOL0     C11635   8.355   6.715   7.570  0.3037  0.1562  1.0825
   87MOL0     C11636   8.498   6.720   7.549  0.3615 -0.4246 -0.2528
   87MOL0     C11637   8.581   6.622   7.591  0.8563  1.2252 -0.7940
   87MOL0     C11638   8.532   6.505   7.663  0.1556 -1.1880 -0.0493
   87MOL0     C11639   8.617   6.385   7.696  0.2764  0.3848  0.2984
   87MOL0     O11640   8.740   6.387   7.635 -1.5478 -0.0634  0.2024
   87MOL0     C11641   8.833   6.286   7.655  0.5381  0.0622  0.1999
   87MOL0     C11642   8.915   6.242   7.547  0.5783 -0.8032 -0.2619
   87MOL0     C11643   9.024   6.155   7.573 -0.5974 -0.3328 -1.1183
   87MOL0     C11644   9.056   6.109   7.700 -0.6006  0.4191  0.1274
   87MOL0     O11645   9.159   6.013   7.714 -0.4628  0.1793 -0.4022
   87MOL0     C11646   9.168   5.920   7.830  0.3985 -1.1071 -0.2613
   87MOL0     C11647   9.276   5.817   7.802  0.3614 -0.5392  1.0584
   87MOL0     C11648   9.315   5.739   7.925  0.1235 -0.3772 -0.3196
   87MOL0     C11649   9.401   5.616   7.891  0.4309  0.5437 -0.3556
   87MOL0     C11650   9.451   5.543   8.023 -0.6710  0.4303 -0.7927
   87MOL0     C11651   9.559   5.449   7.983 -0.4798 -0.3965 -0.1216
   87MOL0     C11652   9.526   5.356   7.865  0.5480 -0.2728 -0.3828
   87MOL0     C11653   9.641   5.255   7.846 -0.5790  0.2347  0.2534
   87MOL0    Cl11654   9.594   5.144   7.710 -0.3684 -0.1003 -0.4868
   87MOL0     C11655   8.976   6.154   7.806  0.4484 -0.9940 -0.6010
   87MOL0     C11656   8.869   6.244   7.784  0.5077 -0.3155  0.2467
   87MOL0     O11657   8.568   6.288   7.766 -0.8432  0.2291 -0.1119
   87MOL0     C11658   8.395   6.513   7.699 -0.4429  0.4591  0.1501
   87MOL0     C11659   8.316   6.617   7.655  0.0511 -0.5342  0.6808
   87MOL0     N11660   8.375   6.550   7.014  0.1378 -0.4578  0.5589
   87MOL0     N11661   8.413   6.432   7.050  0.2118 -0.9027 -0.6151
   87MOL0     C11662   9.153   5.518   7.524  0.8613  0.1744  1.1081
   87MOL0     C11663   9.294   5.486   7.542  0.4756  0.1666 -0.3136
   87MOL0     C11664   9.710   5.410   7.442  0.1156  0.0593 -0.0524
   87MOL0     C11665   9.762   5.435   7.568 -0.5034 -0.1427 -0.6242
   87MOL0     C11666   9.891   5.394   7.613  0.1762  0.1044 -0.2191
   87MOL0     C11667   9.969   5.308   7.534  0.1249 -0.0246  0.0457
   87MOL0     O11668  10.081   5.249   7.583 -0.5955 -0.5176 -0.4908
   87MOL0     C11669  10.161   5.164   7.505  0.0184 -0.6291 -0.2395
   87MOL0     C11670  10.259   5.079   7.594  0.7734 -0.9154 -0.2456
   87MOL0     C11671  10.355   5.173   7.673 -0.8963 -0.9126 -1.7704
   87MOL0     C11672  10.447   5.085   7.764 -0.6263  0.6254  0.3912
   87MOL0     C11673  10.381   4.967   7.827 -0.2170  0.3988 -0.7705
   87MOL0     C11674  10.322   4.883   7.903  0.3663  0.1350  1.0296
   87MOL0     C11675   9.917   5.288   7.401  0.2716 -1.2900  1.5726
   87MOL0     C11676   9.792   5.329   7.352 -0.5602  0.1883 -0.6569
   87MOL0     C11677   9.737   5.275   7.220 -0.0708 -1.2573  0.1720
   87MOL0     H11678   9.414   5.768   7.405 -0.4967 -1.1941 -1.2518
   87MOL0     H11679   9.178   5.838   7.404  2.7605  1.3490 -0.9010
   87MOL0     H11680   8.956   5.863   7.574  3.1397  1.4553 -0.3752
   87MOL0     H11681   8.970   5.858   7.395  3.2997 -1.3826  0.6535
   87MOL0     H11682   8.747   5.746   7.551  0.4492  0.3946  0.0325
   87MOL0     H11683   8.757   5.737   7.374  0.0038 -2.8663  1.2775
   87MOL0     H11684   8.763   5.985   7.373 -2.0178  0.1198 -1.3583
   87MOL0     H11685   8.740   5.969   7.558 -1.6694  0.4038  0.4736
   87MOL0     H11686   8.526   5.836   7.411  1.1808  0.9588 -0.2931
   87MOL0     H11687   8.510   5.937   7.549  0.4998 -1.5287  0.6213
   87MOL0     H11688   8.557   6.037   7.273  0.0368 -1.7635  0.6109
   87MOL0     H11689   8.402   6.017   7.342  0.1911  0.8133  0.7364
   87MOL0     H11690   8.426   6.204   7.491  2.2477 -0.3223  3.2161
   87MOL0     H11691   8.602   6.191   7.481  1.1893 -2.8027 -2.1678
   87MOL0     H11692   8.599   6.294   7.256 -1.4306  1.8715 -2.4021
   87MOL0     H11693   8.504   6.383   7.363 -3.0756 -0.5353 -0.7990
   87MOL0     H11694   8.376   6.195   7.167 -0.1597 -0.9593  0.5713
   87MOL0     H11695   8.291   6.265   7.310  2.9141 -0.1013  3.0667
   87MOL0     H11696   8.179   6.489   7.278 -1.9870  0.7101 -1.2797
   87MOL0     H11697   8.258   6.789   7.016 -2.6916 -0.7806 -1.8706
   87MOL0     H11698   8.128   6.708   7.016  4.2847  1.4214 -5.0721
   87MOL0     H11699   8.113   6.878   7.209  0.0293  0.3906  1.3649
   87MOL0     H11700   8.137   6.714   7.289  0.3769  1.2589  2.0172
   87MOL0     H11701   8.320   6.953   7.227 -3.2369  1.3272  1.7669
   87MOL0     H11702   8.387   6.796   7.269  0.0605  0.0805  0.5590
   87MOL0     H11703   8.225   6.987   7.437  0.1243 -0.9020  0.5450
   87MOL0     H11704   8.398   6.959   7.443 -1.0640  1.9806 -1.3765
   87MOL0     H11705   8.555   6.792   7.492 -0.2153 -0.3847 -0.7954
   87MOL0     H11706   8.684   6.621   7.558  1.4803  0.0241  1.0208
   87MOL0     H11707   8.895   6.265   7.443 -3.5958 -1.6443  0.1689
   87MOL0     H11708   9.083   6.126   7.488 -0.2488 -0.6960 -0.7569
   87MOL0     H11709   9.186   5.963   7.929  1.7847  1.1601 -1.4071
   87MOL0     H11710   9.074   5.866   7.848  0.4009 -1.4835 -1.3115
   87MOL0     H11711   9.232   5.752   7.726  2.4959 -0.1981 -0.5844
   87MOL0     H11712   9.364   5.868   7.761 -1.2907  0.9609 -0.8071
   87MOL0     H11713   9.368   5.804   7.994 -2.1863  0.8737  0.3536
   87MOL0     H11714   9.227   5.702   7.977 -2.3824  4.9073 -0.2197
   87MOL0     H11715   9.478   5.648   7.819 -0.1421  1.3964 -0.6076
   87MOL0     H11716   9.342   5.558   7.820  1.1745  0.0459 -0.5839
   87MOL0     H11717   9.367   5.489   8.069 -1.1009  0.6558 -1.2985
   87MOL0     H11718   9.491   5.620   8.090  0.6042  1.4738 -2.6761
   87MOL0     H11719   9.646   5.504   7.946 -0.0461 -0.2323  1.1226
   87MOL0     H11720   9.589   5.402   8.077 -0.3691  4.6450  2.6691
   87MOL0     H11721   9.518   5.424   7.780  2.3025  1.0419  0.4281
   87MOL0     H11722   9.432   5.302   7.881  0.9830 -2.8460 -4.7680
   87MOL0     H11723   9.735   5.309   7.826 -1.7433  2.3685  0.2195
   87MOL0     H11724   9.659   5.187   7.929 -4.6228 -0.5081  0.6834
   87MOL0     H11725   8.998   6.122   7.907 -2.3763  0.1741  0.5019
   87MOL0     H11726   8.830   6.279   7.879  0.4880 -0.7204  0.3887
   87MOL0     H11727   8.351   6.437   7.762 -0.4966  2.1244  2.2320
   87MOL0     H11728   8.218   6.617   7.701  1.0601  1.2062  3.0712
   87MOL0     H11729   9.082   5.442   7.556 -0.8914  1.4183  0.3203
   87MOL0     H11730   9.322   5.387   7.576  0.6219  0.2112 -0.3040
   87MOL0     H11731   9.701   5.496   7.634 -1.4958 -1.6364 -0.0850
   87MOL0     H11732   9.935   5.423   7.708  0.2331 -1.6930  0.3324
   87MOL0     H11733  10.230   5.226   7.448  0.2302 -1.1859 -0.6029
   87MOL0     H11734  10.099   5.106   7.436  1.7102 -3.7686  0.6231
   87MOL0     H11735  10.310   5.019   7.518 -0.8242  0.5267 -2.5762
   87MOL0     H11736  10.200   5.017   7.662 -1.7101 -0.6201 -2.0218
   87MOL0     H11737  10.282   5.224   7.737 -0.2584 -2.3436  0.2212
   87MOL0     H11738  10.416   5.233   7.606 -1.6000 -0.3705 -1.9389
   87MOL0     H11739  10.509   5.026   7.696 -1.1542  0.1430  0.3082
   87MOL0     H11740  10.499   5.144   7.839  3.3969 -2.4204  0.2959
   87MOL0     H11741  10.272   4.825   7.977 -1.3213  0.3097  0.0774
   87MOL0     H11742   9.979   5.233   7.330 -0.7032  0.0582 -0.3949
   87MOL0     H11743   9.629   5.272   7.238 -0.0930  1.8275  1.0910
   87MOL0     H11744   9.760   5.343   7.138  2.2795 -0.3545  1.4735
   87MOL0     H11745   9.777   5.173   7.211 -0.8994 -1.7262  1.4477
   88MOL0     O11746   0.275   8.833   9.751 -0.2263 -0.3622 -0.0850
   88MOL0     C11747   0.232   8.946   9.765  0.2345  0.4788  0.0533
   88MOL0     O11748   0.100   8.972   9.749  0.4065 -0.6011 -0.5704
   88MOL0     C11749   0.024   8.902   9.658  0.8260  0.2357  0.6040
   88MOL0     C11750  -0.118   8.909   9.671  0.4510  0.7401  0.4145
   88MOL0     C11751  -0.198   8.819   9.590  0.7401  0.2667 -0.5787
   88MOL0     C11752  -0.147   8.742   9.488  0.3217 -0.4652  1.3055
   88MOL0     O11753  -0.230   8.661   9.417  0.7124 -0.0593 -0.1353
   88MOL0     C11754  -0.253   8.680   9.274 -1.2651  0.1118 -0.0443
   88MOL0     C11755  -0.334   8.563   9.220  0.3680  0.2128 -0.2458
   88MOL0     C11756  -0.476   8.550   9.285 -0.3931 -0.3395  1.2069
   88MOL0     C11757  -0.555   8.444   9.203 -0.0082  0.1246  0.5019
   88MOL0     C11758  -0.710   8.466   9.223  0.0038  0.7335 -0.6010
   88MOL0     C11759  -0.769   8.344   9.145 -0.4169 -0.0136 -0.5120
   88MOL0     C11760  -0.914   8.341   9.164  0.0634  0.4704 -0.0859
   88MOL0     C11761  -0.996   8.239   9.080  0.0118 -0.0765 -0.2644
   88MOL0     N11762  -0.927   8.114   9.098  0.1574  0.4404 -0.7397
   88MOL0     C11763  -0.925   8.026   9.209  0.3310 -0.2437  0.1469
   88MOL0     C11764  -0.859   7.914   9.166 -0.4000 -0.6252  0.2300
   88MOL0     C11765  -0.847   7.789   9.238  0.3809  0.4679  0.6481
   88MOL0     C11766  -0.739   7.775   9.346  0.4604 -0.7922 -0.7139
   88MOL0     C11767  -0.607   7.748   9.283 -0.9221 -0.0025 -0.4857
   88MOL0     C11768  -0.531   7.867   9.220 -0.4259 -0.2201 -0.7690
   88MOL0     O11769  -0.398   7.825   9.182  0.6999 -0.1761  1.2761
   88MOL0     C11770  -0.329   7.929   9.119  0.5153  0.3676  0.2978
   88MOL0     C11771  -0.382   8.050   9.077 -0.5238  0.2247 -0.1468
   88MOL0     C11772  -0.299   8.149   9.014  0.3194  0.8095 -0.0969
   88MOL0     C11773  -0.159   8.118   8.993  0.3927 -0.9413  0.4463
   88MOL0     C11774  -0.072   8.225   8.941  0.1118  0.1768  0.3138
   88MOL0     O11775  -0.108   8.354   8.933  0.3333 -0.2534  0.4325
   88MOL0     C11776  -0.015   8.436   8.871 -0.5668  0.4643 -0.2944
   88MOL0     C11777   0.025   8.420   8.738 -0.1717 -0.1796  0.1430
   88MOL0     C11778   0.104   8.530   8.684  0.1836 -0.1727  0.3355
   88MOL0     C11779   0.134   8.649   8.750  1.2706 -0.1894  0.0788
   88MOL0     O11780   0.198   8.757   8.696  1.4123 -0.9263  0.6574
   88MOL0     C11781   0.136   8.818   8.582  0.6078  0.0574 -1.0033
   88MOL0     C11782   0.219   8.928   8.536 -0.2489 -0.9817  0.6147
   88MOL0     C11783   0.321   8.999   8.628 -0.6517  0.4930 -0.3315
   88MOL0     C11784   0.445   8.912   8.623  0.9607 -0.0975  0.7222
   88MOL0     C11785   0.567   8.975   8.705  0.5633  0.0120  0.4898
   88MOL0     C11786   0.705   8.918   8.664 -0.5503 -0.4886 -0.5341
   88MOL0     C11787   0.697   8.762   8.664 -0.1084 -0.5208  0.3502
   88MOL0     C11788   0.837   8.695   8.672 -0.5774 -0.8174 -0.5616
   88MOL0    Cl11789   0.936   8.756   8.793  0.2431 -0.6968  0.5240
   88MOL0     C11790   0.088   8.655   8.886 -1.1053 -0.4250  0.4265
   88MOL0     C11791   0.015   8.550   8.947 -0.2082  0.2451  0.1128
   88MOL0     O11792   0.038   8.181   8.904 -0.3308 -0.1934  0.4180
   88MOL0     C11793  -0.109   7.994   9.031  0.3061 -0.9269 -0.1736
   88MOL0     C11794  -0.201   7.902   9.083 -0.1937  0.4783  0.0755
   88MOL0     N11795  -0.821   7.930   9.035  0.4535  1.1284  0.3268
   88MOL0     N11796  -0.849   8.049   9.004  0.1890  0.7219 -0.2106
   88MOL0     C11797  -0.009   8.741   9.471  0.4821  1.0558  0.0254
   88MOL0     C11798   0.075   8.819   9.555  0.2458 -0.1955  0.0445
   88MOL0     C11799   0.315   9.046   9.835 -0.8513  0.4390 -0.7123
   88MOL0     C11800   0.247   9.133   9.924  0.1744 -0.1676 -0.9240
   88MOL0     C11801   0.310   9.245   9.976 -0.2400 -0.1028 -0.1666
   88MOL0     C11802   0.439   9.282   9.940 -0.4643  1.9108 -0.3013
   88MOL0     O11803   0.521   9.376   9.984 -0.4201 -0.8263 -0.1292
   88MOL0     C11804   0.452   9.489  10.039  0.1892 -0.5147  0.6527
   88MOL0     C11805   0.543   9.609  10.044  0.1289  1.2808  0.6916
   88MOL0     C11806   0.633   9.605  10.163 -0.1157  0.9688  0.7879
   88MOL0     C11807   0.743   9.718  10.174 -0.5122 -0.1817  0.3287
   88MOL0     C11808   0.672   9.848  10.184 -0.2404  0.3422 -0.4649
   88MOL0     C11809   0.622   9.954  10.155 -0.0828 -0.3221  0.6467
   88MOL0     C11810   0.501   9.194   9.850 -0.0587  0.3796  1.0273
   88MOL0     C11811   0.446   9.074   9.799 -0.7017  0.1683  0.0237
   88MOL0     C11812   0.527   8.985   9.698  0.5410 -0.4000  0.7491
   88MOL0     H11813  -0.155   8.973   9.750 -0.3014  1.6593 -0.6513
   88MOL0     H11814  -0.296   8.782   9.617  1.5691 -0.6587  1.3652
   88MOL0     H11815  -0.311   8.770   9.254 -3.2653 -0.6939  1.7743
   88MOL0     H11816  -0.156   8.695   9.226 -1.0877  0.6236  0.4639
   88MOL0     H11817  -0.283   8.469   9.244 -1.8129  0.0192  5.1189
   88MOL0     H11818  -0.341   8.592   9.115 -2.0797  0.2746 -0.1298
   88MOL0     H11819  -0.530   8.645   9.289  3.9905  2.7641 -2.4825
   88MOL0     H11820  -0.469   8.490   9.376  0.2952  0.2896  1.5802
   88MOL0     H11821  -0.526   8.452   9.098 -0.0951 -3.0760  0.1323
   88MOL0     H11822  -0.523   8.347   9.242  0.7808  0.6309  1.1542
   88MOL0     H11823  -0.732   8.462   9.330  1.6601  3.3503 -0.0578
   88MOL0     H11824  -0.748   8.561   9.184 -1.0777  1.2881  1.6438
   88MOL0     H11825  -0.762   8.351   9.036  0.5372  0.1535 -0.4540
   88MOL0     H11826  -0.724   8.252   9.182 -3.7194 -1.9532 -1.0193
   88MOL0     H11827  -0.959   8.438   9.142 -2.3972 -0.8232 -1.1864
   88MOL0     H11828  -0.923   8.310   9.268  0.0674  0.6371 -0.0344
   88MOL0     H11829  -1.098   8.231   9.119 -0.1234  1.3911 -0.2424
   88MOL0     H11830  -0.997   8.257   8.973  0.3439  2.1293  0.0550
   88MOL0     H11831  -0.966   8.034   9.310 -1.0013 -0.8394 -0.3243
   88MOL0     H11832  -0.946   7.769   9.279 -0.5449  1.0210 -1.1828
   88MOL0     H11833  -0.848   7.714   9.158  1.9640 -2.3313  3.0390
   88MOL0     H11834  -0.730   7.868   9.402  0.5039  1.7870 -4.6264
   88MOL0     H11835  -0.775   7.701   9.419  0.6868 -1.1399 -0.9447
   88MOL0     H11836  -0.618   7.672   9.205  1.3181 -1.9226  0.9026
   88MOL0     H11837  -0.541   7.693   9.352 -0.6550 -0.1581 -0.8635
   88MOL0     H11838  -0.511   7.948   9.291 -0.8445  0.1995 -1.1270
   88MOL0     H11839  -0.591   7.911   9.141  0.3613  0.9611 -0.7270
   88MOL0     H11840  -0.481   8.079   9.113 -0.7253 -0.0709 -0.4581
   88MOL0     H11841  -0.338   8.248   8.993  1.2077  0.9100 -1.3933
   88MOL0     H11842   0.007   8.329   8.682  0.2549  0.3979 -0.9623
   88MOL0     H11843   0.138   8.525   8.581 -0.7778  0.9314 -0.0520
   88MOL0     H11844   0.123   8.742   8.504 -0.5826  1.8497 -2.6431
   88MOL0     H11845   0.042   8.868   8.610  1.6281  0.6461  1.6289
   88MOL0     H11846   0.278   8.886   8.453 -0.1709 -0.2606  0.2968
   88MOL0     H11847   0.158   9.004   8.487 -2.3574 -1.1125  2.8394
   88MOL0     H11848   0.339   9.105   8.605  0.8453  0.2637 -0.3163
   88MOL0     H11849   0.285   8.998   8.731 -1.9585 -3.2467 -0.6963
   88MOL0     H11850   0.487   8.910   8.522  1.1485 -3.8241  0.7514
   88MOL0     H11851   0.417   8.811   8.652 -0.8543 -0.3316 -1.5822
   88MOL0     H11852   0.548   8.962   8.811 -3.7723 -0.8937 -0.2384
   88MOL0     H11853   0.576   9.080   8.675 -4.1508  0.2834 -0.7366
   88MOL0     H11854   0.736   8.970   8.573  3.4110  0.9347  1.3807
   88MOL0     H11855   0.781   8.946   8.738  0.9236 -2.4710 -1.2027
   88MOL0     H11856   0.646   8.725   8.575  1.6487  0.1555 -1.0090
   88MOL0     H11857   0.641   8.717   8.746 -2.2016 -1.6768 -1.6111
   88MOL0     H11858   0.822   8.587   8.678  0.2159 -1.1061 -2.7995
   88MOL0     H11859   0.897   8.719   8.584 -1.4995  1.0650 -0.7342
   88MOL0     H11860   0.133   8.737   8.940  2.1758 -0.0291 -2.5120
   88MOL0     H11861  -0.013   8.566   9.050  2.3949  0.9487  0.7936
   88MOL0     H11862  -0.004   7.967   9.019  0.1026 -0.5842 -3.9527
   88MOL0     H11863  -0.151   7.808   9.107 -2.2788 -0.6556  0.2144
   88MOL0     H11864   0.041   8.693   9.388  0.5065  1.5314 -0.2374
   88MOL0     H11865   0.180   8.812   9.528  1.2112  0.6012  3.2075
   88MOL0     H11866   0.142   9.112   9.943  0.8981 -4.7129 -0.9030
   88MOL0     H11867   0.250   9.295  10.051  0.7016  3.4169 -1.5866
   88MOL0     H11868   0.416   9.462  10.139  1.7816  3.4480  2.4906
   88MOL0     H11869   0.370   9.514   9.971  2.1376 -0.9244 -1.9940
   88MOL0     H11870   0.475   9.693  10.058 -1.5297 -0.0467  0.8843
   88MOL0     H11871   0.600   9.621   9.951 -1.2081 -0.6438 -0.4466
   88MOL0     H11872   0.674   9.504  10.163  1.6709  1.5909 -1.6970
   88MOL0     H11873   0.574   9.600  10.255 -3.5900 -1.3527 -1.3138
   88MOL0     H11874   0.817   9.700  10.252  0.4599  1.3191 -0.1921
   88MOL0     H11875   0.805   9.729  10.084  1.8513  5.9209  2.1604
   88MOL0     H11876   0.596  10.056  10.135 -1.1360 -0.5557  0.7705
   88MOL0     H11877   0.607   9.208   9.834 -0.4877  0.9447 -1.8418
   88MOL0     H11878   0.600   9.043   9.641  2.7487 -2.3230  1.4692
   88MOL0     H11879   0.585   8.906   9.747  0.9395 -0.7200 -0.2197
   88MOL0     H11880   0.456   8.940   9.627  0.3488  0.6495  0.2539
   89MOL0     O11881   8.669  11.173   0.567 -0.2668 -0.9929  0.2094
   89MOL0     C11882   8.565  11.224   0.539 -0.7370  0.3855 -0.2127
   89MOL0     O11883   8.440  11.152   0.515  0.2074 -0.2740 -0.7267
   89MOL0     C11884   8.458  11.017   0.498  0.7722  0.1625  0.7122
   89MOL0     C11885   8.440  10.914   0.587 -0.9553 -0.1504 -0.3730
   89MOL0     C11886   8.439  10.780   0.561 -0.3222  0.7640 -0.9899
   89MOL0     C11887   8.449  10.741   0.427 -0.9569 -0.8843 -0.0708
   89MOL0     O11888   8.437  10.614   0.375  0.4263  0.1531  0.2796
   89MOL0     C11889   8.403  10.493   0.440  0.0249 -0.3524 -0.2762
   89MOL0     C11890   8.345  10.385   0.349 -0.6968 -0.2951  0.7174
   89MOL0     C11891   8.405  10.367   0.208  0.1820 -0.5042 -0.3391
   89MOL0     C11892   8.344  10.251   0.129  0.4212  1.0830  0.9062
   89MOL0     C11893   8.294  10.297  -0.006  0.4262  0.0986 -0.9164
   89MOL0     C11894   8.268  10.183  -0.103  0.3365  0.0863 -0.3767
   89MOL0     C11895   8.168  10.236  -0.219 -0.6497  0.0239 -0.2825
   89MOL0     C11896   8.173  10.148  -0.354  0.9885 -0.7586 -0.7279
   89MOL0     N11897   8.115  10.013  -0.334 -0.5523  0.3144  0.9005
   89MOL0     C11898   8.009   9.962  -0.402 -0.3575 -0.1200  0.7925
   89MOL0     C11899   8.005   9.841  -0.352  0.0064  0.9983  1.5616
   89MOL0     C11900   7.908   9.738  -0.397  0.1794  0.5312 -0.6449
   89MOL0     C11901   7.796   9.734  -0.291  0.7553 -0.5061 -1.2238
   89MOL0     C11902   7.736   9.594  -0.301  0.9026  0.2804  0.0193
   89MOL0     C11903   7.666   9.550  -0.173  1.3650  0.0423 -0.6332
   89MOL0     O11904   7.763   9.466  -0.111 -0.0224 -0.8371 -0.0677
   89MOL0     C11905   7.737   9.399   0.002 -0.1411 -0.2025  0.5242
   89MOL0     C11906   7.834   9.316   0.047  0.1671  0.0219 -0.2587
   89MOL0     C11907   7.827   9.236   0.159  0.8510  0.3360 -0.9964
   89MOL0     C11908   7.710   9.251   0.233 -0.5445 -0.1597 -0.2338
   89MOL0     C11909   7.694   9.168   0.353  0.5499  0.0273 -0.8364
   89MOL0     O11910   7.601   9.209   0.448  0.3111  0.2713  0.0424
   89MOL0     C11911   7.562   9.129   0.553 -0.4873 -0.0951 -0.6089
   89MOL0     C11912   7.544   9.197   0.677  0.0157  0.1379 -0.2378
   89MOL0     C11913   7.505   9.115   0.791  0.1640 -0.4679 -0.2655
   89MOL0     C11914   7.475   8.972   0.775  0.1419 -1.3189 -0.0520
   89MOL0     O11915   7.440   8.884   0.875 -1.0024  0.2648  0.3119
   89MOL0     C11916   7.455   8.930   1.015  0.0860 -0.5834  0.2496
   89MOL0     C11917   7.444   8.802   1.098  0.8250 -0.2771  0.0289
   89MOL0     C11918   7.580   8.728   1.081  0.0462  0.0565  0.2959
   89MOL0     C11919   7.695   8.781   1.177  1.1300  0.3734  0.2549
   89MOL0     C11920   7.798   8.661   1.195 -0.3636 -0.9203 -0.4676
   89MOL0     C11921   7.936   8.692   1.268 -0.4760 -0.0816  0.1316
   89MOL0     C11922   7.925   8.652   1.427 -0.2834  0.0541  0.4386
   89MOL0     C11923   8.056   8.645   1.487 -0.3859 -0.7467 -0.5695
   89MOL0    Cl11924   8.132   8.793   1.529  0.0729  0.0192  0.1827
   89MOL0     C11925   7.489   8.919   0.649 -0.0423  0.3282  0.2640
   89MOL0     C11926   7.532   8.992   0.538  0.0769  0.5054 -0.1511
   89MOL0     O11927   7.772   9.075   0.372  0.1407  0.2371 -0.0499
   89MOL0     C11928   7.613   9.343   0.194 -0.1799 -0.6913  0.1806
   89MOL0     C11929   7.621   9.414   0.076  0.1893 -0.2795  0.3319
   89MOL0     N11930   8.095   9.818  -0.264  0.0301  0.6860  0.0962
   89MOL0     N11931   8.159   9.925  -0.243 -1.0936 -0.0500  0.6986
   89MOL0     C11932   8.473  10.834   0.326 -0.8844 -0.2973  0.0937
   89MOL0     C11933   8.472  10.971   0.364  1.0377 -0.2905  0.0718
   89MOL0     C11934   8.558  11.379   0.544 -0.6113  0.2035 -0.6206
   89MOL0     C11935   8.430  11.431   0.517 -0.1684 -0.3142 -0.1718
   89MOL0     C11936   8.407  11.565   0.517  0.3612  0.2818  0.2785
   89MOL0     C11937   8.512  11.656   0.556  0.1457 -0.8817  0.0034
   89MOL0     O11938   8.486  11.786   0.561 -0.1638 -0.5496 -0.4575
   89MOL0     C11939   8.408  11.842   0.455 -0.1170 -0.7744  0.0596
   89MOL0     C11940   8.262  11.880   0.494 -0.4246  0.4221  0.4775
   89MOL0     C11941   8.248  11.984   0.610 -0.5663  0.3895  0.1164
   89MOL0     C11942   8.105  11.995   0.656  0.4352 -1.1089 -1.3422
   89MOL0     C11943   8.100  12.067   0.793  1.1178  0.4172  0.6242
   89MOL0     C11944   8.086  12.110   0.912  0.0859  0.1299  0.0692
   89MOL0     C11945   8.630  11.603   0.594  1.4091  0.1409 -0.3860
   89MOL0     C11946   8.657  11.468   0.580  0.3468  0.3193 -0.3803
   89MOL0     C11947   8.793  11.431   0.611 -0.2235 -0.6364 -0.1237
   89MOL0     H11948   8.434  10.939   0.693 -0.1340 -3.7894  0.6629
   89MOL0     H11949   8.434  10.704   0.639 -0.0937  0.9658 -0.7775
   89MOL0     H11950   8.499  10.462   0.481 -0.5239 -1.2649  0.3547
   89MOL0     H11951   8.334  10.509   0.524 -0.5197  0.8201 -0.9170
   89MOL0     H11952   8.238  10.410   0.345 -0.1060  3.1172  2.3483
   89MOL0     H11953   8.359  10.289   0.399  0.4659 -0.4147  0.1986
   89MOL0     H11954   8.514  10.359   0.212  0.6864  2.1201 -3.7533
   89MOL0     H11955   8.395  10.464   0.158  1.3300 -0.6255 -0.8251
   89MOL0     H11956   8.423  10.177   0.120 -1.0768 -0.7754  2.1826
   89MOL0     H11957   8.264  10.193   0.176 -1.3501  0.6376 -2.3759
   89MOL0     H11958   8.199  10.344   0.022  0.0462 -1.3795  0.3595
   89MOL0     H11959   8.375  10.357  -0.049  0.1014  0.6096 -0.8321
   89MOL0     H11960   8.364  10.160  -0.150  1.4331  0.3597  1.6238
   89MOL0     H11961   8.236  10.094  -0.049 -0.5813 -0.8538 -2.3511
   89MOL0     H11962   8.189  10.339  -0.249  0.3478 -0.5336 -1.5816
   89MOL0     H11963   8.071  10.216  -0.172  0.3501  1.3496  2.6199
   89MOL0     H11964   8.125  10.204  -0.434 -0.0542  0.3765  0.6582
   89MOL0     H11965   8.277  10.150  -0.391  1.3031 -0.9896  0.1172
   89MOL0     H11966   7.938  10.011  -0.467 -0.4033 -2.6419 -1.1734
   89MOL0     H11967   7.859   9.774  -0.488 -0.3556  3.6669  0.7448
   89MOL0     H11968   7.970   9.648  -0.405 -0.7765 -0.3553  1.2941
   89MOL0     H11969   7.841   9.738  -0.192 -0.0795 -1.8805 -0.7503
   89MOL0     H11970   7.717   9.806  -0.312  0.0122 -1.9732 -4.1003
   89MOL0     H11971   7.807   9.514  -0.321  0.2982  0.1857 -1.9297
   89MOL0     H11972   7.657   9.580  -0.375 -1.2611  0.7063  2.0952
   89MOL0     H11973   7.571   9.497  -0.185  1.3864 -0.2801  0.5248
   89MOL0     H11974   7.640   9.641  -0.117 -1.7639 -0.9692 -0.2505
   89MOL0     H11975   7.920   9.307  -0.019 -0.3907 -2.4389 -0.7369
   89MOL0     H11976   7.908   9.166   0.177  0.1984 -0.9413 -2.7530
   89MOL0     H11977   7.549   9.305   0.683  3.2105  0.0157  1.0633
   89MOL0     H11978   7.485   9.174   0.880 -0.7742 -1.0414 -0.0859
   89MOL0     H11979   7.547   8.979   1.047  1.0759 -2.1374 -0.1285
   89MOL0     H11980   7.372   8.998   1.041  1.1425  1.4702 -1.4144
   89MOL0     H11981   7.424   8.806   1.206 -0.1892 -4.2725  0.1246
   89MOL0     H11982   7.354   8.757   1.056 -1.3754  1.7242  2.2221
   89MOL0     H11983   7.567   8.622   1.100 -1.4732  0.4816  1.8649
   89MOL0     H11984   7.616   8.743   0.979  1.0243 -0.3182  0.5794
   89MOL0     H11985   7.654   8.809   1.274 -0.6690  1.3033 -0.7181
   89MOL0     H11986   7.743   8.868   1.131 -1.6177  1.5613 -0.5575
   89MOL0     H11987   7.824   8.631   1.093 -0.1238 -3.4849  0.2699
   89MOL0     H11988   7.753   8.570   1.236  1.6578 -3.0527 -2.6442
   89MOL0     H11989   8.016   8.644   1.211 -0.4824  0.7537 -0.6027
   89MOL0     H11990   7.939   8.800   1.253 -4.8622 -0.1961 -3.6972
   89MOL0     H11991   7.873   8.557   1.440 -0.4588  0.2480  1.1949
   89MOL0     H11992   7.870   8.733   1.477 -1.1418  0.7807 -1.5708
   89MOL0     H11993   8.041   8.585   1.576  1.6358  0.1713  0.4570
   89MOL0     H11994   8.132   8.589   1.432  0.1330 -0.1138 -0.5072
   89MOL0     H11995   7.479   8.814   0.623 -0.3277  0.6899 -1.1368
   89MOL0     H11996   7.550   8.947   0.441  0.8878  2.7927 -1.1527
   89MOL0     H11997   7.519   9.355   0.247  0.4118 -0.6159  1.2435
   89MOL0     H11998   7.540   9.482   0.052  0.0392 -0.5552  0.0646
   89MOL0     H11999   8.483  10.807   0.222 -0.3013 -2.8485  0.7487
   89MOL0     H12000   8.478  11.047   0.286  1.1108  0.8113  1.1229
   89MOL0     H12001   8.353  11.363   0.481 -1.0845 -0.4018  1.8084
   89MOL0     H12002   8.307  11.594   0.486  0.3071 -1.5038 -1.3796
   89MOL0     H12003   8.410  11.777   0.367  1.7848  0.4879 -0.8942
   89MOL0     H12004   8.460  11.932   0.421  1.5734 -1.7017  0.1173
   89MOL0     H12005   8.217  11.787   0.530 -4.1082  2.1947  0.9761
   89MOL0     H12006   8.209  11.907   0.402  2.6239 -1.6998 -2.1166
   89MOL0     H12007   8.274  12.085   0.580  1.1899  0.2563  1.0453
   89MOL0     H12008   8.318  11.965   0.692 -0.4853  3.0440  0.7316
   89MOL0     H12009   8.041  12.048   0.585 -0.2397 -2.1837 -1.5562
   89MOL0     H12010   8.056  11.898   0.669  1.1100 -1.4265 -1.1630
   89MOL0     H12011   8.053  12.135   1.011 -2.0655 -0.9223 -0.3270
   89MOL0     H12012   8.700  11.681   0.621  0.5487  1.5674 -2.0929
   89MOL0     H12013   8.865  11.513   0.623  0.7165 -1.7303  2.5357
   89MOL0     H12014   8.806  11.372   0.702  1.9081  2.5096  1.8413
   89MOL0     H12015   8.832  11.369   0.529  1.1824  0.7731 -0.5650
   90MOL0     O12016   9.447   3.522   8.535 -0.5574  0.5732 -0.0236
   90MOL0     C12017   9.386   3.579   8.443  0.1905 -0.1311 -0.5450
   90MOL0     O12018   9.346   3.510   8.332  0.2192  0.2784 -0.1515
   90MOL0     C12019   9.350   3.374   8.326 -0.2945  0.2550 -0.0307
   90MOL0     C12020   9.443   3.288   8.389  0.2354  0.2946  0.9912
   90MOL0     C12021   9.439   3.149   8.384 -0.3642 -0.6000 -0.1025
   90MOL0     C12022   9.337   3.085   8.315  0.9948  0.3835  0.0011
   90MOL0     O12023   9.337   2.948   8.321 -0.0794  0.0407  0.0706
   90MOL0     C12024   9.212   2.884   8.336 -0.6088  0.1463  0.2562
   90MOL0     C12025   9.214   2.734   8.312  0.8631 -0.4936 -0.6027
   90MOL0     C12026   9.350   2.674   8.355  0.1339  0.3246 -0.2431
   90MOL0     C12027   9.319   2.542   8.420  0.1733  0.2590 -0.3145
   90MOL0     C12028   9.324   2.543   8.576  0.1198  0.0259  0.7213
   90MOL0     C12029   9.202   2.588   8.657 -0.5550  0.0806 -0.6680
   90MOL0     C12030   9.226   2.729   8.715 -0.9454 -0.2664  1.1526
   90MOL0     C12031   9.098   2.786   8.774  0.5203  0.4427  0.1217
   90MOL0     N12032   9.129   2.917   8.819  0.0552 -0.4367 -0.4623
   90MOL0     C12033   9.144   3.033   8.749 -0.6565  0.4740 -0.3530
   90MOL0     C12034   9.189   3.120   8.840 -0.0111  0.7527  0.6325
   90MOL0     C12035   9.234   3.259   8.808 -1.2257  0.5881  0.9201
   90MOL0     C12036   9.105   3.341   8.808  1.3436 -0.1054 -0.1189
   90MOL0     C12037   9.119   3.476   8.737 -0.0133  0.6682 -0.5205
   90MOL0     C12038   9.019   3.572   8.793  0.8265 -0.0944  0.5518
   90MOL0     O12039   9.023   3.701   8.717  0.8392  0.5632  0.1213
   90MOL0     C12040   8.901   3.774   8.732 -0.3197 -0.6314  0.2861
   90MOL0     C12041   8.875   3.865   8.629 -0.1931 -0.4236  0.2161
   90MOL0     C12042   8.759   3.935   8.620  0.6603  0.6571 -0.4537
   90MOL0     C12043   8.655   3.907   8.711 -0.0585 -0.4578  0.2740
   90MOL0     C12044   8.518   3.956   8.682 -0.4934 -0.5374 -0.2376
   90MOL0     O12045   8.420   3.928   8.774 -0.2039  0.7467  0.6075
   90MOL0     C12046   8.297   3.910   8.713  0.5536  0.3478 -1.6544
   90MOL0     C12047   8.207   4.011   8.699  0.3602 -0.9526 -0.4007
   90MOL0     C12048   8.095   3.997   8.614 -1.0308 -0.4376  0.2496
   90MOL0     C12049   8.075   3.870   8.554 -0.4174  0.2160  0.8154
   90MOL0     O12050   7.975   3.831   8.461  0.0622 -0.5526  0.3684
   90MOL0     C12051   7.909   3.941   8.387 -0.8153 -0.2370 -0.1307
   90MOL0     C12052   7.808   3.891   8.283 -0.3548 -0.2730 -0.5821
   90MOL0     C12053   7.677   3.839   8.343 -1.0330 -0.5091  0.2320
   90MOL0     C12054   7.559   3.935   8.340  0.4574  0.2504 -0.5324
   90MOL0     C12055   7.418   3.883   8.375 -0.0736 -0.2853 -0.4613
   90MOL0     C12056   7.339   3.788   8.283 -0.5483  0.3878  0.8447
   90MOL0     C12057   7.187   3.801   8.309 -0.2269 -0.3408  0.1694
   90MOL0     C12058   7.104   3.710   8.227  0.1631 -0.0087  0.2420
   90MOL0    Cl12059   7.135   3.543   8.274 -0.0970 -0.2855  0.1778
   90MOL0     C12060   8.158   3.763   8.576 -0.3315 -0.4557  0.8001
   90MOL0     C12061   8.272   3.791   8.651  1.0682  0.3525 -0.4987
   90MOL0     O12062   8.489   3.995   8.570 -0.5190 -0.3331 -0.5739
   90MOL0     C12063   8.672   3.809   8.815  0.8650  0.4319 -0.4303
   90MOL0     C12064   8.800   3.748   8.829 -0.5192 -0.4217 -0.8872
   90MOL0     N12065   9.192   3.058   8.964 -0.2320 -0.4066 -0.0131
   90MOL0     N12066   9.164   2.933   8.949 -0.2245 -0.4844  0.5475
   90MOL0     C12067   9.240   3.160   8.248 -0.1739 -0.5614 -0.9892
   90MOL0     C12068   9.250   3.307   8.252  0.8945  0.2568  0.7493
   90MOL0     C12069   9.354   3.721   8.469 -0.8376 -0.3858 -0.7760
   90MOL0     C12070   9.440   3.811   8.552  0.9519  0.5973 -0.8009
   90MOL0     C12071   9.408   3.941   8.578 -0.0292  0.1847 -0.6056
   90MOL0     C12072   9.287   3.994   8.544  0.3695 -0.6013  1.2422
   90MOL0     O12073   9.267   4.130   8.561 -0.6062  0.4699 -1.0506
   90MOL0     C12074   9.139   4.183   8.576 -0.7126 -0.5562  0.0221
   90MOL0     C12075   9.162   4.330   8.615 -0.3317 -0.0527  0.6225
   90MOL0     C12076   9.217   4.351   8.756  0.3055 -0.4004  1.3226
   90MOL0     C12077   9.269   4.498   8.768 -0.6188 -0.3702 -0.5077
   90MOL0     C12078   9.239   4.542   8.908  0.5430  0.6834  0.0148
   90MOL0     C12079   9.218   4.592   9.019 -0.6079 -0.9322  0.9089
   90MOL0     C12080   9.209   3.913   8.462 -0.9192 -0.1010  0.5841
   90MOL0     C12081   9.243   3.793   8.419  0.6576  0.3474 -0.5941
   90MOL0     C12082   9.136   3.745   8.326 -0.1837  1.4899 -0.6475
   90MOL0     H12083   9.524   3.335   8.444  2.0594  0.5251 -1.7210
   90MOL0     H12084   9.513   3.091   8.439  1.5683  1.2561 -0.6432
   90MOL0     H12085   9.182   2.910   8.438  0.2740  5.2469 -0.5206
   90MOL0     H12086   9.130   2.920   8.273 -1.2637 -0.4986  0.7113
   90MOL0     H12087   9.205   2.699   8.208 -3.0390 -1.3774 -0.1241
   90MOL0     H12088   9.133   2.693   8.374  3.3768  1.1222  4.2764
   90MOL0     H12089   9.388   2.738   8.435 -1.4329 -1.7385  2.3044
   90MOL0     H12090   9.419   2.649   8.274  1.6267 -1.5292  1.4845
   90MOL0     H12091   9.225   2.493   8.390  2.1118 -1.9269 -3.4313
   90MOL0     H12092   9.404   2.485   8.381  0.6694  1.0415 -0.3963
   90MOL0     H12093   9.358   2.444   8.607  0.3665  0.2203  1.0747
   90MOL0     H12094   9.398   2.618   8.604 -1.8832  2.1098  0.7608
   90MOL0     H12095   9.114   2.580   8.593  0.2338  0.7740 -1.8675
   90MOL0     H12096   9.193   2.516   8.739  3.6650  0.7810  0.6402
   90MOL0     H12097   9.258   2.796   8.634 -1.1652 -2.1769 -0.6150
   90MOL0     H12098   9.301   2.723   8.794  1.0679  4.0461 -0.1265
   90MOL0     H12099   9.027   2.789   8.692  0.9424  0.2787 -0.2561
   90MOL0     H12100   9.044   2.734   8.854  1.0653  2.9107  2.2542
   90MOL0     H12101   9.118   3.046   8.644 -2.0766 -2.4662 -0.4799
   90MOL0     H12102   9.305   3.300   8.880  0.2252  0.9887 -0.6942
   90MOL0     H12103   9.295   3.259   8.718 -0.9873 -1.4375  1.0371
   90MOL0     H12104   9.021   3.285   8.766 -1.0693 -0.9024  4.9697
   90MOL0     H12105   9.079   3.352   8.914  1.2411  0.3211 -0.1858
   90MOL0     H12106   9.124   3.465   8.629  1.3473 -1.3668 -0.3056
   90MOL0     H12107   9.218   3.507   8.773  0.1980 -2.6196  2.2705
   90MOL0     H12108   9.048   3.592   8.896 -0.4175 -0.8481  1.0728
   90MOL0     H12109   8.916   3.538   8.808  0.5906  0.5690  0.4595
   90MOL0     H12110   8.953   3.879   8.556  3.4634  0.4058  3.8948
   90MOL0     H12111   8.732   3.995   8.534 -0.7672 -0.4798 -0.8429
   90MOL0     H12112   8.229   4.099   8.759  2.2897 -1.8361  0.2786
   90MOL0     H12113   8.012   4.067   8.608 -1.8118 -1.3901 -0.6442
   90MOL0     H12114   7.854   3.983   8.471  1.5315 -0.4361  1.6204
   90MOL0     H12115   7.979   4.011   8.342  1.4595 -0.7201  2.3833
   90MOL0     H12116   7.795   3.965   8.204  0.2240 -0.0124 -0.4352
   90MOL0     H12117   7.846   3.801   8.234  0.2118  0.1695 -0.9562
   90MOL0     H12118   7.649   3.744   8.297  3.9826 -1.8859 -0.6459
   90MOL0     H12119   7.695   3.809   8.447 -1.4127  1.9062  1.0577
   90MOL0     H12120   7.557   3.960   8.233 -1.6988 -2.0845 -1.1477
   90MOL0     H12121   7.584   4.015   8.410  2.1854 -2.7959  2.5760
   90MOL0     H12122   7.360   3.975   8.378  0.1765 -0.1499  0.7873
   90MOL0     H12123   7.422   3.841   8.476  1.8334  0.1966 -0.2874
   90MOL0     H12124   7.367   3.819   8.182 -1.8320 -0.5250  0.1769
   90MOL0     H12125   7.377   3.687   8.300  2.5548  1.3769  0.4683
   90MOL0     H12126   7.159   3.906   8.306  0.9860  0.0084  0.6259
   90MOL0     H12127   7.171   3.774   8.414  4.0143 -1.7770  0.6266
   90MOL0     H12128   7.000   3.734   8.251  0.0851 -1.5946  1.7163
   90MOL0     H12129   7.121   3.719   8.119  0.0291 -0.5470  0.1760
   90MOL0     H12130   8.136   3.669   8.527  1.4635  1.2691 -3.8216
   90MOL0     H12131   8.340   3.708   8.663  1.7058  0.7821 -1.0640
   90MOL0     H12132   8.590   3.777   8.879  0.8774  0.5439 -0.3597
   90MOL0     H12133   8.826   3.688   8.915 -0.2262  1.3487  0.3256
   90MOL0     H12134   9.154   3.123   8.192 -0.7713  0.2449 -0.6284
   90MOL0     H12135   9.178   3.362   8.193  0.4476 -0.3616  0.7074
   90MOL0     H12136   9.528   3.766   8.596 -1.0748 -1.5801  1.2713
   90MOL0     H12137   9.484   3.995   8.634 -0.5858  2.4055 -1.8476
   90MOL0     H12138   9.086   4.133   8.658  0.4601  0.8758  1.7339
   90MOL0     H12139   9.077   4.176   8.487  0.7442 -1.0331 -0.9998
   90MOL0     H12140   9.063   4.375   8.603  0.3837  1.2362 -0.8941
   90MOL0     H12141   9.231   4.365   8.537 -0.3397 -0.0992  0.5940
   90MOL0     H12142   9.304   4.285   8.755  1.0547  0.4596 -1.7899
   90MOL0     H12143   9.137   4.330   8.827 -1.2557  3.2455  0.8680
   90MOL0     H12144   9.375   4.500   8.742 -1.2229  1.6048 -3.2634
   90MOL0     H12145   9.220   4.569   8.701  1.6739 -0.7219 -2.6981
   90MOL0     H12146   9.213   4.637   9.116  0.4139 -4.8414  2.9999
   90MOL0     H12147   9.121   3.959   8.417  0.5865 -0.7151 -3.3430
   90MOL0     H12148   9.076   3.825   8.282 -2.6718  1.0247  1.6137
   90MOL0     H12149   9.167   3.679   8.244  0.1063  1.9058 -0.8779
   90MOL0     H12150   9.082   3.676   8.391  4.8137 -2.1532  0.2702
   91MOL0     O12151   5.431   0.946   7.564 -0.1115  0.2872 -0.4483
   91MOL0     C12152   5.343   1.010   7.629 -0.1527  0.3088  0.8190
   91MOL0     O12153   5.358   1.077   7.746 -0.2783  0.2218 -0.4757
   91MOL0     C12154   5.483   1.092   7.803 -0.4853  0.0319  0.3027
   91MOL0     C12155   5.503   1.057   7.938 -0.4071 -0.3047 -0.3681
   91MOL0     C12156   5.626   1.074   8.001 -0.3701 -0.0918 -0.1582
   91MOL0     C12157   5.734   1.143   7.939 -0.8211  0.5745  0.7855
   91MOL0     O12158   5.850   1.159   8.012  0.4140 -0.1058  0.3543
   91MOL0     C12159   5.938   1.268   7.975 -0.9106  0.4574  0.1818
   91MOL0     C12160   6.053   1.299   8.073  0.1853 -1.0763 -0.4503
   91MOL0     C12161   5.994   1.344   8.214  0.7124  1.1884  0.1974
   91MOL0     C12162   5.986   1.227   8.310 -0.2817 -0.0572  1.3482
   91MOL0     C12163   5.915   1.250   8.442 -0.8378  0.1608 -0.5787
   91MOL0     C12164   5.764   1.276   8.428 -0.3362  0.7384  0.6439
   91MOL0     C12165   5.708   1.305   8.571  0.0797 -0.0334 -0.1261
   91MOL0     C12166   5.571   1.352   8.540  0.3355  0.3151 -0.0769
   91MOL0     N12167   5.513   1.406   8.659 -0.4167 -0.1186 -0.2858
   91MOL0     C12168   5.382   1.423   8.682  0.0528 -0.3214  1.5493
   91MOL0     C12169   5.364   1.440   8.808  0.0476  0.6359  0.6962
   91MOL0     C12170   5.234   1.481   8.878  0.4326 -1.1047 -0.3020
   91MOL0     C12171   5.184   1.611   8.819  0.1223 -0.3628  0.7326
   91MOL0     C12172   5.040   1.640   8.872 -0.3774  0.1533  0.4514
   91MOL0     C12173   4.934   1.533   8.851 -0.3809 -1.2877  0.1883
   91MOL0     O12174   4.948   1.466   8.724  0.3459  0.1757  0.0910
   91MOL0     C12175   4.868   1.356   8.696 -0.0379 -0.1933 -0.3356
   91MOL0     C12176   4.727   1.346   8.735 -0.9961 -0.5887 -0.4356
   91MOL0     C12177   4.648   1.238   8.701  0.2441 -0.5502 -0.1940
   91MOL0     C12178   4.696   1.141   8.615 -0.3335  0.5401  0.5333
   91MOL0     C12179   4.619   1.033   8.553  1.0808  0.7869  0.1850
   91MOL0     O12180   4.495   0.999   8.609  0.2068 -0.7090 -0.3119
   91MOL0     C12181   4.452   0.873   8.574 -0.0561 -0.2025  0.3667
   91MOL0     C12182   4.364   0.855   8.467 -0.2068  0.4309 -0.2811
   91MOL0     C12183   4.314   0.729   8.428 -0.4562 -0.3719  0.7411
   91MOL0     C12184   4.366   0.612   8.483 -1.2958  0.5388  0.3202
   91MOL0     O12185   4.316   0.488   8.450  0.5343  0.2215  0.0361
   91MOL0     C12186   4.242   0.473   8.325 -0.3813  0.3669  0.1054
   91MOL0     C12187   4.231   0.318   8.280  0.3787 -0.2781 -0.1240
   91MOL0     C12188   4.371   0.266   8.278 -0.1543  0.0629  0.5816
   91MOL0     C12189   4.372   0.135   8.211 -0.1758  0.6722 -0.4384
   91MOL0     C12190   4.521   0.088   8.206 -0.3892  0.5173  0.8025
   91MOL0     C12191   4.580   0.047   8.336 -0.1701  0.0025 -0.1327
   91MOL0     C12192   4.694  -0.055   8.305  0.6425 -0.4431  0.0720
   91MOL0     C12193   4.819   0.010   8.250 -0.2037  0.5654 -1.0541
   91MOL0    Cl12194   4.926  -0.123   8.242  0.0002 -0.2629  0.4224
   91MOL0     C12195   4.466   0.633   8.582  0.7601  0.1045 -1.0179
   91MOL0     C12196   4.503   0.760   8.637  0.4997 -0.3022 -1.0391
   91MOL0     O12197   4.662   0.988   8.446  0.8740  0.2191 -0.4292
   91MOL0     C12198   4.832   1.150   8.578 -0.2792  0.0004 -1.2283
   91MOL0     C12199   4.919   1.249   8.626  1.1261  0.1149  0.0912
   91MOL0     N12200   5.483   1.427   8.876  0.0384 -0.5654  0.8924
   91MOL0     N12201   5.575   1.414   8.783 -0.4161 -0.3353 -0.7929
   91MOL0     C12202   5.723   1.175   7.798  0.8034  1.2000 -0.5179
   91MOL0     C12203   5.596   1.151   7.734 -0.8840 -0.2366 -0.3248
   91MOL0     C12204   5.203   0.975   7.586 -0.2206 -0.1085  0.0355
   91MOL0     C12205   5.182   0.869   7.497  0.0818 -0.4322 -0.5746
   91MOL0     C12206   5.058   0.846   7.446 -0.6905  0.0680  0.0173
   91MOL0     C12207   4.939   0.900   7.492 -0.7178 -0.5141  0.1141
   91MOL0     O12208   4.824   0.863   7.427  0.1906 -1.0850  0.3323
   91MOL0     C12209   4.695   0.897   7.494  0.3871 -0.2362 -0.2622
   91MOL0     C12210   4.574   0.840   7.400 -0.6211  1.0308 -0.4082
   91MOL0     C12211   4.537   0.689   7.428 -0.1669 -0.5259  0.2285
   91MOL0     C12212   4.478   0.659   7.563 -1.0469 -0.8498  0.1445
   91MOL0     C12213   4.355   0.734   7.607 -1.1370 -0.7233 -0.7333
   91MOL0     C12214   4.240   0.769   7.611  0.0316  0.0891  0.5486
   91MOL0     C12215   4.958   1.000   7.595  0.8374  0.4034  0.3717
   91MOL0     C12216   5.080   1.040   7.641 -0.0013  0.0244 -0.0580
   91MOL0     C12217   5.077   1.146   7.749 -0.1923 -0.6420 -0.5754
   91MOL0     H12218   5.426   1.012   8.000  0.8953 -0.0446  1.5029
   91MOL0     H12219   5.643   1.045   8.104  0.1059  0.5565 -0.0490
   91MOL0     H12220   5.986   1.224   7.887  2.3017 -2.3459  3.0197
   91MOL0     H12221   5.882   1.355   7.941 -1.4056 -0.6312 -1.9135
   91MOL0     H12222   6.119   1.382   8.047  1.3082 -0.8680  2.6888
   91MOL0     H12223   6.117   1.213   8.093 -1.7477 -2.6981 -0.9190
   91MOL0     H12224   5.896   1.393   8.205  1.6265  3.8546  2.9367
   91MOL0     H12225   6.063   1.424   8.243  2.4787 -0.4113  0.6169
   91MOL0     H12226   5.943   1.144   8.252  2.2531 -1.6227  1.5750
   91MOL0     H12227   6.085   1.204   8.349 -0.7008  2.5445  4.4159
   91MOL0     H12228   5.924   1.160   8.504 -2.2212 -0.0461 -0.6494
   91MOL0     H12229   5.962   1.339   8.485  1.2195 -1.6222  1.0861
   91MOL0     H12230   5.754   1.359   8.358  0.9633  0.3019 -0.1058
   91MOL0     H12231   5.726   1.191   8.370 -0.9127  3.2113 -2.9082
   91MOL0     H12232   5.760   1.390   8.616 -3.3135  0.4718  3.3782
   91MOL0     H12233   5.705   1.220   8.639  0.1722 -1.1185 -1.4498
   91MOL0     H12234   5.561   1.431   8.465  1.2645 -0.4629 -1.0580
   91MOL0     H12235   5.513   1.264   8.511  1.7319 -0.8421  0.5460
   91MOL0     H12236   5.301   1.421   8.609 -0.6060 -0.4922  2.2703
   91MOL0     H12237   5.160   1.400   8.873 -3.9069  2.5225 -0.5265
   91MOL0     H12238   5.252   1.496   8.984  2.3139  3.9883 -1.0421
   91MOL0     H12239   5.261   1.683   8.850 -0.3081 -0.7472  2.8034
   91MOL0     H12240   5.190   1.610   8.710 -1.5573 -3.6030  0.5615
   91MOL0     H12241   4.997   1.733   8.833 -3.1781 -0.6523  1.4224
   91MOL0     H12242   5.042   1.658   8.980 -0.1022 -2.1118  0.8592
   91MOL0     H12243   4.843   1.591   8.866  0.1355 -0.4371  0.1435
   91MOL0     H12244   4.932   1.456   8.928  0.5432 -0.8420  0.6763
   91MOL0     H12245   4.678   1.426   8.790 -0.9380  0.7484 -2.2169
   91MOL0     H12246   4.544   1.232   8.732  0.3935  1.0131  0.7392
   91MOL0     H12247   4.317   0.943   8.425 -1.4670 -0.9246 -1.8845
   91MOL0     H12248   4.246   0.729   8.343 -0.0757 -1.9951  0.3939
   91MOL0     H12249   4.143   0.520   8.331 -0.3119  0.6484 -0.8045
   91MOL0     H12250   4.290   0.528   8.244 -2.2024  1.9070 -0.0041
   91MOL0     H12251   4.169   0.271   8.356 -2.3909 -0.1708 -2.1455
   91MOL0     H12252   4.193   0.286   8.182  1.7390 -0.1664 -0.7187
   91MOL0     H12253   4.432   0.346   8.234 -0.2369  0.3882  1.0439
   91MOL0     H12254   4.414   0.258   8.378 -0.9746 -2.1886  0.7993
   91MOL0     H12255   4.345   0.135   8.105 -2.1692 -0.0060  0.0325
   91MOL0     H12256   4.306   0.061   8.258 -0.3395 -0.1866 -1.9612
   91MOL0     H12257   4.577   0.170   8.160  0.4329  0.4686  1.6784
   91MOL0     H12258   4.521   0.018   8.122 -0.8677  0.3929  0.9054
   91MOL0     H12259   4.629   0.120   8.401  0.8572 -1.8013  1.2100
   91MOL0     H12260   4.505  -0.012   8.390 -1.0201  0.8626 -0.3550
   91MOL0     H12261   4.659  -0.130   8.234 -0.9540  0.0725  0.2691
   91MOL0     H12262   4.713  -0.102   8.402  1.4769 -0.0179  0.1213
   91MOL0     H12263   4.803   0.068   8.159 -0.9388  1.2442 -0.5058
   91MOL0     H12264   4.864   0.072   8.327  1.2889 -3.6680  1.8730
   91MOL0     H12265   4.494   0.545   8.638 -1.8530 -0.5211 -0.5653
   91MOL0     H12266   4.583   0.766   8.710  0.2714  1.5107 -0.8905
   91MOL0     H12267   4.877   1.070   8.520 -1.9680 -1.8136 -0.1341
   91MOL0     H12268   5.020   1.222   8.600  0.6241 -2.0315  0.1658
   91MOL0     H12269   5.808   1.211   7.742  1.2515 -0.5173 -1.0060
   91MOL0     H12270   5.578   1.192   7.635 -0.7978  2.2546  0.6278
   91MOL0     H12271   5.271   0.817   7.462  1.9448  0.3751  2.5473
   91MOL0     H12272   5.057   0.765   7.374 -0.8252 -1.2103  1.3991
   91MOL0     H12273   4.694   1.001   7.525  3.2358 -0.4125  0.6911
   91MOL0     H12274   4.698   0.852   7.594  1.3427 -1.5435 -0.8537
   91MOL0     H12275   4.600   0.845   7.294  1.0126  0.0291 -0.0944
   91MOL0     H12276   4.481   0.896   7.414 -0.8301  0.4596  0.6466
   91MOL0     H12277   4.625   0.628   7.403 -1.5406 -3.4656  1.9747
   91MOL0     H12278   4.465   0.652   7.354  1.7187  0.4141 -2.2365
   91MOL0     H12279   4.464   0.551   7.568  3.5668 -1.6227  0.1625
   91MOL0     H12280   4.555   0.682   7.636  1.0812 -0.7772 -2.0093
   91MOL0     H12281   4.146   0.819   7.610  1.6456  3.4139  0.4578
   91MOL0     H12282   4.876   1.055   7.639  0.9322  2.3862 -1.7516
   91MOL0     H12283   5.156   1.220   7.732 -0.3744  0.0190  1.2144
   91MOL0     H12284   4.980   1.196   7.743  0.8052  1.4545  0.1309
   91MOL0     H12285   5.092   1.104   7.849  3.2109 -0.9720 -1.1002
   92MOL0     O12286   1.284   0.433   5.173 -0.1756 -0.2183  0.2459
   92MOL0     C12287   1.199   0.426   5.258  1.0586  0.4317 -0.0369
   92MOL0     O12288   1.171   0.529   5.348 -0.0240 -0.3131  0.2610
   92MOL0     C12289   1.237   0.646   5.331  0.6679  0.5211  0.6631
   92MOL0     C12290   1.198   0.726   5.220 -0.5104  0.1618  0.4555
   92MOL0     C12291   1.269   0.848   5.201  0.1744  0.7941 -0.0966
   92MOL0     C12292   1.369   0.893   5.287 -0.1406 -0.0921  0.2622
   92MOL0     O12293   1.423   1.024   5.278 -0.5019  0.4810  0.3255
   92MOL0     C12294   1.369   1.124   5.194  0.4566 -0.1090 -0.2884
   92MOL0     C12295   1.466   1.247   5.216 -0.6050  0.0548 -0.4231
   92MOL0     C12296   1.425   1.337   5.327  0.4099  0.1362  0.0781
   92MOL0     C12297   1.530   1.449   5.353  0.2133  0.5407 -0.5361
   92MOL0     C12298   1.504   1.545   5.464  0.8625 -0.6311  0.0151
   92MOL0     C12299   1.619   1.648   5.455  0.2994  0.6776 -0.4719
   92MOL0     C12300   1.654   1.706   5.589 -0.4275  0.5314 -0.5701
   92MOL0     C12301   1.532   1.792   5.627  0.5048 -0.1970  0.3031
   92MOL0     N12302   1.518   1.793   5.771  0.6652  0.7763  0.1853
   92MOL0     C12303   1.596   1.868   5.840  0.8323 -1.2578 -0.6461
   92MOL0     C12304   1.556   1.856   5.969  0.4790 -0.9008  1.3182
   92MOL0     C12305   1.611   1.931   6.086  0.0252 -1.1861 -0.4983
   92MOL0     C12306   1.566   2.082   6.086  0.0117  0.3904 -0.0702
   92MOL0     C12307   1.651   2.169   6.172 -0.6761  0.4034  0.2332
   92MOL0     C12308   1.570   2.293   6.175  0.7630 -0.5775 -1.3767
   92MOL0     O12309   1.628   2.392   6.261 -0.0378 -0.4488  0.2773
   92MOL0     C12310   1.655   2.358   6.391 -0.8559 -0.7964  0.3828
   92MOL0     C12311   1.785   2.378   6.434 -0.3646 -0.5736 -0.8957
   92MOL0     C12312   1.816   2.359   6.569 -0.5263  0.3749 -0.0350
   92MOL0     C12313   1.716   2.295   6.653 -0.0681 -1.7129 -0.2475
   92MOL0     C12314   1.749   2.235   6.787  0.7823  0.1824  0.3903
   92MOL0     O12315   1.657   2.157   6.855  0.0809 -0.3331 -0.4463
   92MOL0     C12316   1.690   2.069   6.957  0.1861  0.4013 -0.4954
   92MOL0     C12317   1.584   2.038   7.047 -0.7695  0.6744 -0.1461
   92MOL0     C12318   1.611   1.944   7.150  0.2724 -0.3290  0.3281
   92MOL0     C12319   1.739   1.889   7.165  0.3244  0.1000  0.5000
   92MOL0     O12320   1.779   1.805   7.270 -0.2375 -0.4260  0.7649
   92MOL0     C12321   1.707   1.778   7.399 -0.6303  0.1417 -0.2115
   92MOL0     C12322   1.796   1.846   7.503  0.4588 -0.0048  0.0112
   92MOL0     C12323   1.812   1.996   7.486 -1.1949 -0.4760 -1.0141
   92MOL0     C12324   1.868   2.065   7.606  0.1607 -1.0129 -0.8567
   92MOL0     C12325   1.762   2.076   7.721 -0.1716  0.3409  0.3117
   92MOL0     C12326   1.824   2.104   7.852 -0.3323 -0.9379  1.0534
   92MOL0     C12327   1.889   2.240   7.847  0.4550  0.2500 -0.6640
   92MOL0     C12328   1.805   2.360   7.834 -0.2356 -0.1292  0.3226
   92MOL0    Cl12329   1.704   2.361   7.984  0.4077  0.2773  0.2880
   92MOL0     C12330   1.842   1.917   7.075 -0.5716 -0.2857  0.6921
   92MOL0     C12331   1.808   2.004   6.967 -1.2529 -0.6400  0.6486
   92MOL0     O12332   1.858   2.266   6.828  0.1776  0.6956  0.8936
   92MOL0     C12333   1.581   2.291   6.610  0.1667 -0.2974 -0.6932
   92MOL0     C12334   1.551   2.320   6.474 -0.3534  0.8007 -1.4309
   92MOL0     N12335   1.452   1.771   5.975  0.7227 -0.8578 -0.3593
   92MOL0     N12336   1.430   1.739   5.852  0.8259 -0.3358 -0.3128
   92MOL0     C12337   1.400   0.807   5.399  0.0027 -0.3097 -0.3968
   92MOL0     C12338   1.342   0.676   5.414  0.3154 -0.4803  0.4073
   92MOL0     C12339   1.124   0.299   5.286  0.3516 -0.4102  0.4416
   92MOL0     C12340   1.064   0.284   5.416  1.2557  0.1277  0.6235
   92MOL0     C12341   0.996   0.159   5.446 -0.2196 -0.4443 -0.0619
   92MOL0     C12342   0.972   0.067   5.344  0.1730  1.5202 -0.4843
   92MOL0     O12343   0.897  -0.042   5.388 -0.4824  0.7365  0.5442
   92MOL0     C12344   0.800  -0.084   5.293 -0.1148  0.2609  0.0199
   92MOL0     C12345   0.679  -0.011   5.340 -0.1385  0.2745 -1.2239
   92MOL0     C12346   0.584  -0.110   5.409 -1.3214 -0.2905 -0.0043
   92MOL0     C12347   0.480  -0.047   5.493  0.3302 -1.0084  0.5835
   92MOL0     C12348   0.543  -0.004   5.620 -0.0253  0.4190  0.6507
   92MOL0     C12349   0.580   0.040   5.724  0.3989  0.2967  0.1015
   92MOL0     C12350   1.025   0.085   5.218 -0.7927  0.8205  0.3255
   92MOL0     C12351   1.106   0.194   5.189  0.7789 -0.8674 -0.5003
   92MOL0     C12352   1.175   0.189   5.057  0.0659  0.1459 -1.5627
   92MOL0     H12353   1.117   0.695   5.154  0.9566 -0.6695 -1.0195
   92MOL0     H12354   1.230   0.893   5.109  0.6344 -2.0119 -1.7656
   92MOL0     H12355   1.384   1.097   5.089  0.6568  2.2190 -0.9213
   92MOL0     H12356   1.265   1.139   5.223  0.3577 -1.8810  0.4239
   92MOL0     H12357   1.473   1.299   5.119 -0.6166  2.4957  0.7935
   92MOL0     H12358   1.568   1.215   5.238  0.7916  2.6867 -2.3866
   92MOL0     H12359   1.396   1.270   5.410  1.6884 -3.2726 -2.0069
   92MOL0     H12360   1.330   1.385   5.305  0.0435 -1.0564 -1.0754
   92MOL0     H12361   1.627   1.400   5.367 -0.2977  0.5071  5.1020
   92MOL0     H12362   1.538   1.507   5.261  2.3989 -0.8575 -1.3102
   92MOL0     H12363   1.407   1.595   5.457  0.7229 -0.9340 -0.2907
   92MOL0     H12364   1.523   1.492   5.558 -0.4334 -1.3801 -0.1191
   92MOL0     H12365   1.702   1.583   5.426  0.3242  1.6595 -2.8394
   92MOL0     H12366   1.596   1.718   5.374  0.0431  0.7129 -0.3683
   92MOL0     H12367   1.751   1.757   5.589  1.0477 -2.0650  1.2163
   92MOL0     H12368   1.664   1.624   5.660 -3.8179 -0.4512 -1.0410
   92MOL0     H12369   1.557   1.889   5.584  3.7364 -1.3538 -0.7458
   92MOL0     H12370   1.438   1.761   5.580  1.2696  0.1240 -1.5039
   92MOL0     H12371   1.675   1.927   5.794 -0.0956 -1.1065 -2.1188
   92MOL0     H12372   1.583   1.881   6.179 -0.6032 -1.3903 -0.7867
   92MOL0     H12373   1.719   1.911   6.085  0.2371 -0.0998 -1.7274
   92MOL0     H12374   1.577   2.109   5.981  3.8084  1.8058  0.5365
   92MOL0     H12375   1.465   2.072   6.127  1.1220 -0.2194  2.7941
   92MOL0     H12376   1.749   2.186   6.128 -0.4997  2.1799  1.2049
   92MOL0     H12377   1.666   2.129   6.273 -0.5782 -0.9087 -0.2846
   92MOL0     H12378   1.464   2.276   6.192  0.6985  0.2586 -0.8692
   92MOL0     H12379   1.570   2.348   6.081 -0.7768  0.1876 -0.9619
   92MOL0     H12380   1.853   2.423   6.362 -4.3856  4.2224 -2.2754
   92MOL0     H12381   1.915   2.370   6.611 -0.9365 -1.4691  1.5561
   92MOL0     H12382   1.486   2.083   7.045 -0.9117  0.3737 -1.9235
   92MOL0     H12383   1.539   1.932   7.231  1.5912 -0.1566  1.5725
   92MOL0     H12384   1.609   1.827   7.393 -0.3698  0.8011  0.6449
   92MOL0     H12385   1.690   1.671   7.414  1.4816 -0.3595 -1.0417
   92MOL0     H12386   1.761   1.825   7.605  1.5286 -0.8038  0.2317
   92MOL0     H12387   1.894   1.806   7.477 -0.6066 -1.0428 -2.7974
   92MOL0     H12388   1.884   2.011   7.405  0.4840  2.8334  0.8878
   92MOL0     H12389   1.719   2.050   7.463 -2.2730 -1.7642  0.1836
   92MOL0     H12390   1.904   2.163   7.573  1.3403 -1.6072 -1.3925
   92MOL0     H12391   1.956   2.007   7.635  1.3553  2.1305  2.4377
   92MOL0     H12392   1.712   1.979   7.735  1.4754 -0.6252 -0.2288
   92MOL0     H12393   1.686   2.152   7.699  0.1115 -0.0542 -2.3678
   92MOL0     H12394   1.742   2.105   7.925 -1.9961 -0.0815 -0.7256
   92MOL0     H12395   1.905   2.036   7.879  1.1087  0.4362  0.3591
   92MOL0     H12396   1.967   2.254   7.771  0.4758 -2.6610 -1.3022
   92MOL0     H12397   1.931   2.252   7.947 -1.1608 -3.0455  0.5594
   92MOL0     H12398   1.868   2.449   7.835 -0.2637 -0.0949 -0.5257
   92MOL0     H12399   1.749   2.361   7.740  3.3944 -1.0048 -2.0553
   92MOL0     H12400   1.940   1.872   7.068  0.0390  0.9718  1.0133
   92MOL0     H12401   1.885   2.014   6.891  0.4267 -0.1574  2.3242
   92MOL0     H12402   1.507   2.266   6.686  0.5858 -0.6247 -0.3869
   92MOL0     H12403   1.448   2.325   6.438 -1.8143  0.7814  2.2668
   92MOL0     H12404   1.478   0.836   5.469  2.1317 -0.6193 -2.5364
   92MOL0     H12405   1.385   0.607   5.486  1.4179 -2.0302 -1.6295
   92MOL0     H12406   1.080   0.357   5.495  0.2221  2.8774 -1.5225
   92MOL0     H12407   0.977   0.145   5.552  1.6570 -1.4526  0.1736
   92MOL0     H12408   0.791  -0.193   5.298  0.5707  0.1939 -0.1113
   92MOL0     H12409   0.811  -0.058   5.188 -1.9496 -0.5154 -0.4175
   92MOL0     H12410   0.624   0.030   5.254 -0.7705  0.7868 -0.5887
   92MOL0     H12411   0.703   0.067   5.413 -0.5751 -1.6690  1.1314
   92MOL0     H12412   0.649  -0.168   5.476  0.0420  0.7807 -0.3337
   92MOL0     H12413   0.546  -0.181   5.336  2.3856 -1.2947 -1.2104
   92MOL0     H12414   0.451   0.046   5.443  5.7638 -1.0670 -3.5514
   92MOL0     H12415   0.400  -0.119   5.511 -0.1905 -0.9081 -1.1818
   92MOL0     H12416   0.606   0.060   5.826  0.8185 -2.8096  0.7068
   92MOL0     H12417   1.021   0.000   5.150 -2.8696  2.0026 -1.1416
   92MOL0     H12418   1.283   0.172   5.060  0.0340  0.1472  0.3637
   92MOL0     H12419   1.125   0.110   5.000  2.1267 -0.7830 -2.1982
   92MOL0     H12420   1.154   0.280   4.999 -0.0020  1.3127  0.2283
   93MOL0     O12421   2.039   6.483   6.125  0.4896  0.4676  1.0141
   93MOL0     C12422   1.929   6.520   6.088 -0.0161  0.7387 -0.7334
   93MOL0     O12423   1.811   6.492   6.155  0.4424  0.6841  0.2139
   93MOL0     C12424   1.819   6.408   6.264 -0.0054  0.6648  0.4076
   93MOL0     C12425   1.878   6.445   6.381  0.3762  0.1568 -0.2878
   93MOL0     C12426   1.885   6.363   6.497 -0.3060  0.1118  0.0203
   93MOL0     C12427   1.824   6.237   6.491  0.1099 -0.8724  0.5935
   93MOL0     O12428   1.841   6.147   6.588 -0.4516  1.0051 -0.9169
   93MOL0     C12429   1.729   6.056   6.613 -0.5230 -0.4732 -0.0834
   93MOL0     C12430   1.734   5.982   6.749 -0.8226  0.5464 -0.5789
   93MOL0     C12431   1.717   6.072   6.872  0.6023  0.1369 -1.0458
   93MOL0     C12432   1.572   6.116   6.877  0.0553  1.0453 -0.0083
   93MOL0     C12433   1.530   6.167   7.012  0.1513  0.0114 -0.8184
   93MOL0     C12434   1.389   6.231   7.001 -0.8217  0.3978  1.0750
   93MOL0     C12435   1.268   6.130   7.004  0.0950  0.5892  0.0049
   93MOL0     C12436   1.152   6.173   6.906 -0.0450  0.4506 -0.4612
   93MOL0     N12437   1.180   6.145   6.769  0.2021 -0.2875  0.0030
   93MOL0     C12438   1.252   6.042   6.709  0.2731 -0.4564  0.0072
   93MOL0     C12439   1.265   6.072   6.576 -0.3441 -0.2202 -0.6466
   93MOL0     C12440   1.327   5.985   6.467 -0.2212  0.2784 -0.1779
   93MOL0     C12441   1.351   6.066   6.340 -0.6461 -0.1267 -0.5172
   93MOL0     C12442   1.383   5.969   6.223 -0.4854  0.3575 -0.0605
   93MOL0     C12443   1.381   6.048   6.088  0.9176 -0.0993 -0.2764
   93MOL0     O12444   1.466   6.168   6.109 -0.4845 -0.2640  0.2977
   93MOL0     C12445   1.453   6.265   6.012 -0.4318  0.4562  0.0324
   93MOL0     C12446   1.472   6.400   6.049 -0.9135 -0.4794  0.9126
   93MOL0     C12447   1.467   6.512   5.953  0.0374  0.9324 -1.2447
   93MOL0     C12448   1.430   6.474   5.827  0.4005 -0.2299 -0.4291
   93MOL0     C12449   1.391   6.586   5.734 -0.7887 -1.0249  0.0640
   93MOL0     O12450   1.320   6.548   5.622 -0.0838  0.1248 -0.5050
   93MOL0     C12451   1.251   6.639   5.544 -0.2244 -0.4634  0.1660
   93MOL0     C12452   1.138   6.705   5.587 -0.1914 -0.9798  0.1025
   93MOL0     C12453   1.077   6.794   5.499  0.1657 -0.4576  0.6210
   93MOL0     C12454   1.131   6.810   5.374 -0.2880 -0.8385  0.7209
   93MOL0     O12455   1.075   6.909   5.288  0.5800  0.5474 -0.5399
   93MOL0     C12456   1.156   7.033   5.297  0.7194  0.2628 -0.1057
   93MOL0     C12457   1.112   7.121   5.180 -0.4547  0.0853 -0.5310
   93MOL0     C12458   0.981   7.201   5.203  0.1274  0.1082 -0.7644
   93MOL0     C12459   0.986   7.355   5.183  0.7187  0.5162  0.4706
   93MOL0     C12460   0.880   7.438   5.244 -0.3710  0.2378  0.0469
   93MOL0     C12461   0.866   7.580   5.169  0.0882  0.0855 -1.1137
   93MOL0     C12462   0.761   7.655   5.238 -0.8168 -0.7340 -0.5420
   93MOL0     C12463   0.780   7.815   5.210 -0.2390  0.2801 -0.6708
   93MOL0    Cl12464   0.685   7.897   5.339  0.3309 -0.2195  0.4802
   93MOL0     C12465   1.251   6.742   5.329  0.0833 -0.8726  0.3462
   93MOL0     C12466   1.314   6.663   5.420 -0.2741  0.5640  0.1201
   93MOL0     O12467   1.431   6.700   5.766  0.3165 -0.2786 -0.9063
   93MOL0     C12468   1.419   6.337   5.793 -0.2686 -1.0055  0.0541
   93MOL0     C12469   1.429   6.234   5.881 -0.0886 -0.0677  0.3209
   93MOL0     N12470   1.219   6.204   6.566 -0.6842 -0.6888 -0.7453
   93MOL0     N12471   1.161   6.243   6.675  0.3224  0.2388 -0.5798
   93MOL0     C12472   1.750   6.208   6.371 -0.2721  0.9336 -0.7247
   93MOL0     C12473   1.750   6.288   6.257  0.7647 -0.5286  0.4340
   93MOL0     C12474   1.921   6.590   5.953  0.0172 -0.5345  0.1498
   93MOL0     C12475   1.816   6.531   5.865 -0.7296 -0.2998  0.5453
   93MOL0     C12476   1.795   6.588   5.736 -0.3800  0.0779 -0.7057
   93MOL0     C12477   1.892   6.691   5.689  0.8666  0.9928  0.2303
   93MOL0     O12478   1.872   6.752   5.566  0.0880  0.2595  0.2436
   93MOL0     C12479   1.935   6.866   5.521 -0.2416  0.0139 -0.1488
   93MOL0     C12480   1.866   6.925   5.404 -0.3396  0.1361  0.2925
   93MOL0     C12481   1.716   6.934   5.412  0.4922 -0.4251  0.5544
   93MOL0     C12482   1.686   7.033   5.514  0.4055  0.0622 -0.8502
   93MOL0     C12483   1.559   7.104   5.495  0.0539 -0.3193 -0.1099
   93MOL0     C12484   1.454   7.163   5.481 -0.5951 -0.6060 -0.1824
   93MOL0     C12485   1.991   6.740   5.778 -0.6656  0.4583 -0.2102
   93MOL0     C12486   2.012   6.692   5.907 -0.2105  0.2509 -0.2164
   93MOL0     C12487   2.116   6.757   5.987 -0.2586  0.3471 -0.1708
   93MOL0     H12488   1.925   6.542   6.384 -2.1897  1.5234 -1.4821
   93MOL0     H12489   1.933   6.391   6.590 -1.0054  3.4038 -0.4615
   93MOL0     H12490   1.638   6.115   6.603  0.4672  0.6354 -5.3995
   93MOL0     H12491   1.739   5.974   6.541  0.8276 -1.5039  1.2105
   93MOL0     H12492   1.828   5.932   6.774 -0.5593  2.4745  3.0159
   93MOL0     H12493   1.656   5.907   6.744 -1.3475  0.7564  2.3982
   93MOL0     H12494   1.786   6.157   6.870  0.0674  0.6733  0.6811
   93MOL0     H12495   1.735   6.002   6.954  1.1491 -1.6023 -2.5897
   93MOL0     H12496   1.557   6.194   6.802  0.4984  0.8337 -0.3177
   93MOL0     H12497   1.503   6.033   6.856 -1.8549  2.5130  0.2455
   93MOL0     H12498   1.533   6.090   7.090  2.7235 -0.7251 -1.5610
   93MOL0     H12499   1.610   6.236   7.038  0.2924 -0.7105  0.7527
   93MOL0     H12500   1.374   6.305   7.079  1.1668  2.1830 -0.1502
   93MOL0     H12501   1.380   6.280   6.904 -2.8646  0.1206  1.0783
   93MOL0     H12502   1.228   6.123   7.106 -1.3376  0.6459 -0.5241
   93MOL0     H12503   1.316   6.033   6.991  3.3459  1.5873  2.9480
   93MOL0     H12504   1.058   6.123   6.931  0.7193 -1.7293 -1.6707
   93MOL0     H12505   1.135   6.281   6.916 -3.0380 -0.0942  1.8446
   93MOL0     H12506   1.283   5.951   6.760 -0.8003  0.7479  3.1073
   93MOL0     H12507   1.417   5.943   6.514 -0.0111  0.6078 -0.2843
   93MOL0     H12508   1.251   5.909   6.444 -0.0735  0.1941 -0.3909
   93MOL0     H12509   1.253   6.106   6.311  0.2219  0.8878 -2.1401
   93MOL0     H12510   1.422   6.147   6.358 -0.8325 -0.4021  1.8401
   93MOL0     H12511   1.296   5.904   6.217 -1.8473  1.9030  1.7169
   93MOL0     H12512   1.470   5.902   6.231 -0.2771  0.4776 -1.0945
   93MOL0     H12513   1.278   6.080   6.075  0.8244  1.0004  2.4021
   93MOL0     H12514   1.417   5.976   6.014  2.5154 -1.7509  1.9490
   93MOL0     H12515   1.484   6.433   6.152 -1.2181  1.2120  0.4358
   93MOL0     H12516   1.466   6.614   5.990 -3.7214  0.3265  0.8386
   93MOL0     H12517   1.092   6.679   5.681 -1.7703  5.3747  1.5868
   93MOL0     H12518   0.981   6.838   5.523  0.5530  0.3804  0.6657
   93MOL0     H12519   1.140   7.088   5.390 -3.5255 -1.8100  0.6406
   93MOL0     H12520   1.264   7.020   5.286  0.8976 -1.7551  2.8620
   93MOL0     H12521   1.198   7.187   5.166  1.7805 -2.0850  1.8401
   93MOL0     H12522   1.089   7.062   5.091  0.2013 -3.2323  1.3468
   93MOL0     H12523   0.894   7.164   5.148  0.5693  2.8858 -3.5796
   93MOL0     H12524   0.964   7.187   5.310 -1.0696 -0.8521 -1.0577
   93MOL0     H12525   0.968   7.377   5.078  0.8738  0.2535  0.3861
   93MOL0     H12526   1.086   7.398   5.193  0.6772  0.4391  1.3723
   93MOL0     H12527   0.910   7.467   5.345  1.2319  2.3837 -0.9480
   93MOL0     H12528   0.784   7.387   5.250  0.3554 -1.2754 -0.6008
   93MOL0     H12529   0.961   7.635   5.163 -1.8889  4.0712  0.2352
   93MOL0     H12530   0.829   7.555   5.069  0.1673 -0.4742 -1.0046
   93MOL0     H12531   0.767   7.635   5.346 -0.4345  2.5348  0.1352
   93MOL0     H12532   0.663   7.622   5.202 -2.0341  1.8017  0.2383
   93MOL0     H12533   0.885   7.832   5.237 -0.0211  2.8971 -2.6688
   93MOL0     H12534   0.764   7.862   5.112 -0.4533  1.2018 -0.2065
   93MOL0     H12535   1.290   6.778   5.234 -1.7073 -1.7153 -0.7657
   93MOL0     H12536   1.410   6.613   5.407 -0.3696 -0.6703  3.2088
   93MOL0     H12537   1.384   6.307   5.694 -0.8403 -2.0201  0.5518
   93MOL0     H12538   1.420   6.129   5.855 -1.3190  0.1960 -0.3535
   93MOL0     H12539   1.704   6.110   6.368 -0.9461  1.0524  2.1914
   93MOL0     H12540   1.696   6.251   6.170  1.2773  0.8895 -0.5306
   93MOL0     H12541   1.746   6.451   5.890 -0.9841 -0.2053  0.1497
   93MOL0     H12542   1.713   6.555   5.674  0.7336 -0.1991 -2.0789
   93MOL0     H12543   2.037   6.831   5.501  0.1889 -0.1350  2.0320
   93MOL0     H12544   1.944   6.947   5.594 -2.7921  0.0854  0.1645
   93MOL0     H12545   1.896   6.861   5.321  0.8364  1.0155  0.0229
   93MOL0     H12546   1.911   7.025   5.404 -1.2609  0.5737  1.0006
   93MOL0     H12547   1.686   6.832   5.439  3.1565 -1.7737 -1.1099
   93MOL0     H12548   1.679   6.965   5.314  1.4372 -2.0063 -0.3409
   93MOL0     H12549   1.689   6.993   5.616  2.4896 -1.2310 -1.3542
   93MOL0     H12550   1.758   7.115   5.506  0.3724  0.6801  3.1289
   93MOL0     H12551   1.371   7.228   5.462  0.9300  1.1626 -1.1157
   93MOL0     H12552   2.068   6.811   5.749 -0.4136 -0.7957 -2.8648
   93MOL0     H12553   2.215   6.723   5.953 -0.1207  2.5953 -2.2233
   93MOL0     H12554   2.108   6.866   5.980  3.1757  0.7552  0.0984
   93MOL0     H12555   2.102   6.744   6.095  2.0109 -0.2860  0.1138
   94MOL0     O12556   2.869   3.338   7.442  0.4339 -0.0716  0.1614
   94MOL0     C12557   2.921   3.297   7.338 -0.5870 -0.1996 -0.6534
   94MOL0     O12558   3.045   3.337   7.285 -0.1375 -0.6457 -0.6724
   94MOL0     C12559   3.154   3.377   7.364  0.9862  0.2292 -0.1307
   94MOL0     C12560   3.157   3.339   7.499  0.1836  0.9583  1.0113
   94MOL0     C12561   3.267   3.367   7.577  0.0545 -0.0665  0.2218
   94MOL0     C12562   3.368   3.452   7.523  0.3571  0.6476  0.5193
   94MOL0     O12563   3.466   3.513   7.594 -0.3663  0.1570  0.3270
   94MOL0     C12564   3.494   3.472   7.726 -0.0538  0.2195 -0.3843
   94MOL0     C12565   3.632   3.512   7.778 -0.4382  1.6162  0.8755
   94MOL0     C12566   3.653   3.666   7.772  0.2853  0.9141  0.2531
   94MOL0     C12567   3.786   3.700   7.824 -0.0529 -1.2121  0.0904
   94MOL0     C12568   3.798   3.852   7.845 -0.4173 -0.0224  0.2810
   94MOL0     C12569   3.932   3.894   7.905 -0.4234  0.7726 -0.3789
   94MOL0     C12570   3.937   4.045   7.939 -0.1358 -1.0180  0.4248
   94MOL0     C12571   3.823   4.095   8.030 -0.0036 -0.2609  0.0665
   94MOL0     N12572   3.812   4.016   8.151  0.2883 -0.3354  0.2425
   94MOL0     C12573   3.719   3.919   8.169  0.5986 -0.5889  0.4888
   94MOL0     C12574   3.748   3.852   8.283  0.9242 -0.3993 -0.8745
   94MOL0     C12575   3.692   3.714   8.330  0.3253  0.4143  0.0131
   94MOL0     C12576   3.564   3.722   8.414  0.4159 -0.3713  0.3724
   94MOL0     C12577   3.433   3.791   8.351 -0.5455  0.4117  0.2922
   94MOL0     C12578   3.395   3.730   8.216  0.2016  1.5492  0.3441
   94MOL0     O12579   3.375   3.587   8.226  0.4666  0.1674 -0.5692
   94MOL0     C12580   3.293   3.510   8.147  0.2505  0.4419 -0.2923
   94MOL0     C12581   3.171   3.558   8.103 -0.5352  0.1440  0.1752
   94MOL0     C12582   3.075   3.472   8.041  0.2756 -0.5475 -1.1511
   94MOL0     C12583   3.116   3.350   7.996 -0.3862 -0.8468  0.8085
   94MOL0     C12584   3.018   3.268   7.919  0.2502 -0.1425 -0.7742
   94MOL0     O12585   2.895   3.254   7.976  0.3468  0.2230  0.2597
   94MOL0     C12586   2.800   3.179   7.912 -1.0404 -0.2704 -0.2004
   94MOL0     C12587   2.727   3.071   7.971 -0.7176  0.2826  0.2424
   94MOL0     C12588   2.630   3.007   7.893 -0.0499  0.3245 -0.5719
   94MOL0     C12589   2.609   3.039   7.756 -0.8851  0.0292 -0.2462
   94MOL0     O12590   2.498   2.993   7.683 -0.1350  0.0283  1.0200
   94MOL0     C12591   2.445   2.863   7.702 -0.7814 -0.3892  1.0003
   94MOL0     C12592   2.329   2.821   7.605 -0.1692 -0.9020  0.8980
   94MOL0     C12593   2.383   2.769   7.466 -0.2757  0.2343  0.6073
   94MOL0     C12594   2.279   2.766   7.348 -0.1269 -0.7465 -0.2949
   94MOL0     C12595   2.175   2.650   7.353 -0.6808  0.3189  0.0890
   94MOL0     C12596   2.100   2.627   7.221 -0.1082  0.2289 -0.0496
   94MOL0     C12597   1.998   2.732   7.208  0.6823 -0.2320  0.1232
   94MOL0     C12598   1.897   2.715   7.086 -0.0814  0.3666  0.0830
   94MOL0    Cl12599   1.780   2.865   7.092  0.0433  0.2113  0.2481
   94MOL0     C12600   2.681   3.142   7.702 -0.6247 -0.5244 -0.1686
   94MOL0     C12601   2.779   3.211   7.779 -0.1166  0.0054  0.8133
   94MOL0     O12602   3.057   3.218   7.815 -0.2939  0.6837  0.8612
   94MOL0     C12603   3.251   3.307   8.031  0.8385  0.2654 -1.1120
   94MOL0     C12604   3.329   3.384   8.109  0.1568 -0.7167 -0.5634
   94MOL0     N12605   3.852   3.918   8.336  0.0741 -0.5458 -0.3735
   94MOL0     N12606   3.893   4.013   8.262  0.4874 -0.0582 -0.4788
   94MOL0     C12607   3.362   3.497   7.390 -0.3340  0.4799 -0.9158
   94MOL0     C12608   3.250   3.462   7.315  0.0964  1.4153  0.0018
   94MOL0     C12609   2.852   3.187   7.266 -0.5855 -0.2207  1.0085
   94MOL0     C12610   2.931   3.092   7.200 -0.0279  0.4533 -0.4418
   94MOL0     C12611   2.875   2.984   7.141 -0.0908  0.2997 -1.0415
   94MOL0     C12612   2.742   2.964   7.135 -0.0006 -0.1102 -0.8533
   94MOL0     O12613   2.702   2.851   7.058 -0.5253 -0.2811 -0.1703
   94MOL0     C12614   2.570   2.830   7.014  0.7524 -0.1047  0.2845
   94MOL0     C12615   2.553   2.696   6.944  0.6332  0.4251  0.7522
   94MOL0     C12616   2.400   2.675   6.919  0.0703 -0.6766 -0.4163
   94MOL0     C12617   2.359   2.532   6.934 -0.0548 -0.0777  0.0889
   94MOL0     C12618   2.219   2.517   6.889 -0.2682  0.8201 -0.2010
   94MOL0     C12619   2.115   2.509   6.831 -0.6699 -0.3459  0.6108
   94MOL0     C12620   2.660   3.068   7.186 -0.7184  0.0300  0.1549
   94MOL0     C12621   2.710   3.174   7.254 -0.3991  0.5213 -0.4648
   94MOL0     C12622   2.616   3.279   7.312 -0.2727  0.4373  0.4250
   94MOL0     H12623   3.083   3.276   7.548  0.7562  0.2010  0.9134
   94MOL0     H12624   3.273   3.329   7.678  0.4888 -2.3109 -0.5839
   94MOL0     H12625   3.415   3.517   7.789  1.4073 -0.6468  2.2179
   94MOL0     H12626   3.489   3.368   7.759 -0.3787  1.0049  2.3485
   94MOL0     H12627   3.698   3.467   7.703 -3.2175 -3.3651  0.9443
   94MOL0     H12628   3.650   3.467   7.876 -1.9005 -0.1881  0.3896
   94MOL0     H12629   3.569   3.700   7.834 -0.4261 -1.6342  0.8112
   94MOL0     H12630   3.638   3.711   7.673 -0.5610  1.1265  0.4675
   94MOL0     H12631   3.792   3.659   7.925 -0.3728  2.6696  1.8748
   94MOL0     H12632   3.871   3.664   7.765  1.4311 -0.4207  1.6861
   94MOL0     H12633   3.787   3.901   7.748  4.1975  0.0040 -0.4321
   94MOL0     H12634   3.705   3.874   7.898 -0.2101  1.0039  0.2425
   94MOL0     H12635   3.953   3.847   8.002  2.6862  2.5069 -0.0759
   94MOL0     H12636   4.016   3.878   7.837 -0.4098 -0.1540 -0.1653
   94MOL0     H12637   3.925   4.107   7.850  1.8115 -2.3173 -0.8427
   94MOL0     H12638   4.035   4.077   7.975 -1.1596  0.8517  1.6773
   94MOL0     H12639   3.839   4.203   8.040  0.9894 -0.2777 -1.1153
   94MOL0     H12640   3.731   4.092   7.970 -0.8250  3.0554  0.9926
   94MOL0     H12641   3.637   3.906   8.100  0.4932  0.9551  0.2818
   94MOL0     H12642   3.675   3.659   8.237  1.5752  0.2177 -0.1174
   94MOL0     H12643   3.758   3.649   8.388 -1.7740  0.0269  2.1074
   94MOL0     H12644   3.530   3.626   8.454  0.4925  0.9948  4.0570
   94MOL0     H12645   3.590   3.787   8.497  1.3340  0.2017 -0.3448
   94MOL0     H12646   3.454   3.898   8.345 -3.0538  0.9959  0.6221
   94MOL0     H12647   3.344   3.789   8.415 -1.2562  2.4040 -0.5607
   94MOL0     H12648   3.476   3.741   8.142 -0.4287  0.4041 -0.5456
   94MOL0     H12649   3.311   3.782   8.169 -0.3007  0.5799  0.1439
   94MOL0     H12650   3.139   3.658   8.130 -0.2341 -0.3227  2.4692
   94MOL0     H12651   2.978   3.517   8.028  0.0184  0.4499  2.9115
   94MOL0     H12652   2.746   3.037   8.072  1.6695  6.8254  2.5068
   94MOL0     H12653   2.559   2.935   7.932 -2.5509  2.0380 -1.5985
   94MOL0     H12654   2.532   2.800   7.684 -0.7986 -0.2615  0.4709
   94MOL0     H12655   2.414   2.875   7.806 -0.2280  6.5873  0.8633
   94MOL0     H12656   2.273   2.739   7.650 -2.0207  0.2608  0.8139
   94MOL0     H12657   2.253   2.896   7.583  1.1142 -0.0175 -0.7564
   94MOL0     H12658   2.468   2.826   7.427  1.8620 -2.9709  0.1702
   94MOL0     H12659   2.427   2.672   7.489  0.0644  0.4427  0.8495
   94MOL0     H12660   2.324   2.760   7.249  1.1302  0.4575  0.1748
   94MOL0     H12661   2.221   2.859   7.343  0.6264 -0.3366 -2.5786
   94MOL0     H12662   2.105   2.660   7.437 -0.4991  0.1311  0.2628
   94MOL0     H12663   2.237   2.561   7.368  0.0136  1.0620  1.9036
   94MOL0     H12664   2.177   2.639   7.144 -0.7258 -1.0158 -0.9092
   94MOL0     H12665   2.052   2.529   7.207  2.0892 -0.7966 -0.8458
   94MOL0     H12666   2.039   2.834   7.206 -0.1377  0.1044 -1.3693
   94MOL0     H12667   1.935   2.734   7.298 -0.3622  2.0466 -0.5683
   94MOL0     H12668   1.957   2.709   6.995  0.5604  0.3089  0.4974
   94MOL0     H12669   1.840   2.623   7.100  3.3860 -2.0868 -0.6490
   94MOL0     H12670   2.654   3.189   7.609 -2.1658 -0.4622  0.2765
   94MOL0     H12671   2.835   3.288   7.727 -2.8628  0.4476 -1.7907
   94MOL0     H12672   3.286   3.206   8.016 -2.3113 -1.0956 -0.0352
   94MOL0     H12673   3.426   3.352   8.145  0.9752  2.7614  0.7433
   94MOL0     H12674   3.446   3.558   7.357 -0.5316 -0.4675 -3.4586
   94MOL0     H12675   3.245   3.487   7.209 -0.8284  0.1008 -0.2896
   94MOL0     H12676   3.039   3.104   7.206  0.1225 -1.1902  0.9448
   94MOL0     H12677   2.938   2.911   7.090 -0.6436  0.7730 -2.4313
   94MOL0     H12678   2.550   2.908   6.940  3.1864 -0.3032 -0.6826
   94MOL0     H12679   2.495   2.840   7.092  0.9164  1.4883  0.2662
   94MOL0     H12680   2.592   2.612   7.003  0.9405 -1.7949 -2.3889
   94MOL0     H12681   2.600   2.690   6.846 -2.2708 -0.1456 -0.6893
   94MOL0     H12682   2.391   2.711   6.816 -1.6923  1.0700  0.2800
   94MOL0     H12683   2.340   2.747   6.976  0.1056 -1.0145  0.0500
   94MOL0     H12684   2.429   2.469   6.879  0.2210  1.4063 -1.3412
   94MOL0     H12685   2.356   2.513   7.042  1.9303 -4.1486 -0.3854
   94MOL0     H12686   2.029   2.520   6.768 -0.7484 -4.4022 -0.2575
   94MOL0     H12687   2.551   3.067   7.178 -0.6402 -1.2030 -1.5167
   94MOL0     H12688   2.641   3.381   7.281  0.4165  1.9079  5.0757
   94MOL0     H12689   2.509   3.258   7.296 -0.1830  0.5959 -0.4187
   94MOL0     H12690   2.611   3.270   7.421  1.8045 -0.2872  0.4974
   95MOL0     O12691   4.361   7.369  10.145  0.2841  0.0251 -0.4109
   95MOL0     C12692   4.451   7.420  10.213 -0.2846  0.0981  1.0756
   95MOL0     O12693   4.542   7.507  10.160  0.0993  0.6965  0.9224
   95MOL0     C12694   4.522   7.542  10.032 -0.5065 -0.2780 -0.5414
   95MOL0     C12695   4.583   7.466   9.924 -0.3496 -0.6800 -0.7861
   95MOL0     C12696   4.545   7.484   9.796  0.6954 -0.4564  0.1510
   95MOL0     C12697   4.453   7.586   9.771  0.2461 -0.1068 -0.0371
   95MOL0     O12698   4.400   7.600   9.639 -0.3480  0.6518 -0.3154
   95MOL0     C12699   4.442   7.720   9.566 -0.3185 -0.2513  0.4328
   95MOL0     C12700   4.396   7.713   9.425  0.4698 -0.2632  0.5573
   95MOL0     C12701   4.248   7.694   9.412  0.3281  0.7677 -0.4005
   95MOL0     C12702   4.216   7.678   9.267 -0.8668  1.0934 -0.1996
   95MOL0     C12703   4.191   7.802   9.177 -0.5846  0.3553 -0.9166
   95MOL0     C12704   4.177   7.757   9.031  0.2192 -0.0514  0.1120
   95MOL0     C12705   4.119   7.879   8.966 -0.5933 -0.0880  0.2657
   95MOL0     C12706   4.115   7.870   8.815 -0.3440 -0.1479  0.3816
   95MOL0     N12707   4.043   7.753   8.764  0.1831  0.4115  0.2226
   95MOL0     C12708   3.906   7.733   8.780 -0.4381 -1.2254  0.0234
   95MOL0     C12709   3.887   7.623   8.702 -0.2869 -0.0870 -0.3175
   95MOL0     C12710   3.742   7.575   8.670 -0.5222  0.1933 -0.1590
   95MOL0     C12711   3.729   7.484   8.539 -0.3800 -0.2602  0.0678
   95MOL0     C12712   3.811   7.540   8.421 -0.3728 -0.4479 -0.3792
   95MOL0     C12713   3.762   7.496   8.281 -0.3739 -0.1559 -0.7891
   95MOL0     O12714   3.832   7.556   8.177 -0.3136 -0.4329 -0.3965
   95MOL0     C12715   3.763   7.573   8.061  0.2272  0.6585 -1.0947
   95MOL0     C12716   3.646   7.498   8.020  0.5064  0.0418  0.3001
   95MOL0     C12717   3.605   7.512   7.886  0.0121  0.1324 -0.4706
   95MOL0     C12718   3.648   7.614   7.797  0.9775  0.5638  0.5570
   95MOL0     C12719   3.602   7.631   7.658  0.2250 -0.8446  0.3769
   95MOL0     O12720   3.510   7.528   7.635 -0.3543 -0.7676 -0.6190
   95MOL0     C12721   3.447   7.546   7.513 -0.2218  0.1274  0.1545
   95MOL0     C12722   3.322   7.603   7.493  0.3192 -0.8027  0.0613
   95MOL0     C12723   3.257   7.613   7.371  0.0705 -0.3214 -1.2221
   95MOL0     C12724   3.315   7.554   7.257 -0.7125  0.3204  1.0140
   95MOL0     O12725   3.270   7.567   7.135 -0.0942  0.8241  0.1097
   95MOL0     C12726   3.131   7.614   7.104 -0.0463 -0.6573 -0.0050
   95MOL0     C12727   3.149   7.740   7.004 -0.4310  0.2917 -0.4127
   95MOL0     C12728   3.268   7.847   7.027  0.6333  0.5313 -0.5519
   95MOL0     C12729   3.294   7.928   6.909 -0.9870  0.0267 -0.0271
   95MOL0     C12730   3.414   8.016   6.941  0.1488 -0.2326  0.0258
   95MOL0     C12731   3.483   8.071   6.818 -0.0471 -0.9506  1.6378
   95MOL0     C12732   3.609   8.155   6.863  0.5619  1.0285  0.9838
   95MOL0     C12733   3.680   8.186   6.736  0.2621 -0.6794  0.5566
   95MOL0    Cl12734   3.829   8.278   6.791 -0.5679  0.0399 -0.9641
   95MOL0     C12735   3.434   7.488   7.280 -0.4643  0.0866 -0.9077
   95MOL0     C12736   3.495   7.474   7.405  0.4638  0.0143 -0.3455
   95MOL0     O12737   3.638   7.715   7.574 -0.1327  0.3828 -0.1056
   95MOL0     C12738   3.749   7.699   7.850 -0.4617 -0.3501 -0.3216
   95MOL0     C12739   3.809   7.669   7.980 -0.1193  0.0295  0.2775
   95MOL0     N12740   4.009   7.568   8.671 -0.0144  0.0875  0.4457
   95MOL0     N12741   4.099   7.655   8.701 -1.3275  0.7577  1.0999
   95MOL0     C12742   4.401   7.669   9.870 -0.8545 -0.9404  0.1223
   95MOL0     C12743   4.444   7.655  10.004  0.9315 -0.5574 -0.6641
   95MOL0     C12744   4.451   7.361  10.351 -0.3439 -0.4932 -0.8430
   95MOL0     C12745   4.348   7.289  10.400  0.1190 -0.0192  0.3915
   95MOL0     C12746   4.350   7.228  10.528 -0.6842 -0.2838 -0.8402
   95MOL0     C12747   4.471   7.228  10.607 -0.0309 -0.6120  0.3062
   95MOL0     O12748   4.466   7.154  10.715  0.1106 -0.1414 -0.3311
   95MOL0     C12749   4.587   7.133  10.786  0.0530 -0.4837  0.0431
   95MOL0     C12750   4.582   7.033  10.910  0.1051  0.9050  0.0373
   95MOL0     C12751   4.476   7.071  11.019  0.1172 -0.4792 -0.4583
   95MOL0     C12752   4.526   7.186  11.117 -0.2677  0.3851  0.0878
   95MOL0     C12753   4.660   7.166  11.167  0.3268 -0.3850 -0.1876
   95MOL0     C12754   4.762   7.139  11.232  0.8162 -1.1811  0.8512
   95MOL0     C12755   4.572   7.306  10.558  0.4730  0.3052 -0.6536
   95MOL0     C12756   4.569   7.367  10.433 -0.7832 -0.6226  0.5914
   95MOL0     C12757   4.706   7.435  10.392  0.3193 -0.0534  0.7834
   95MOL0     H12758   4.655   7.388   9.946  2.3965  1.8561 -0.0017
   95MOL0     H12759   4.573   7.433   9.705 -0.9877 -1.6394  0.2449
   95MOL0     H12760   4.388   7.800   9.618 -0.0342 -0.8462  1.7030
   95MOL0     H12761   4.551   7.732   9.567 -0.3732  0.4496 -0.9059
   95MOL0     H12762   4.434   7.629   9.368 -0.8527  1.8215 -3.7952
   95MOL0     H12763   4.423   7.807   9.377  0.8459 -1.3772 -1.5136
   95MOL0     H12764   4.196   7.785   9.443  0.6642  0.7042  0.3847
   95MOL0     H12765   4.203   7.612   9.469 -0.1028  0.6479 -0.9119
   95MOL0     H12766   4.300   7.625   9.220  1.3620  3.4017  0.9764
   95MOL0     H12767   4.130   7.612   9.252 -0.9180  1.2883 -0.8055
   95MOL0     H12768   4.094   7.844   9.207 -0.8654 -0.0911 -1.1702
   95MOL0     H12769   4.273   7.873   9.184 -0.9801  0.8710 -1.4224
   95MOL0     H12770   4.278   7.735   8.997 -0.4612 -3.4231 -0.0722
   95MOL0     H12771   4.104   7.675   9.032  0.2636 -0.0970  0.9472
   95MOL0     H12772   4.182   7.965   8.992  1.2087 -1.3110  0.1001
   95MOL0     H12773   4.019   7.892   9.008  0.6427  3.6246  2.5563
   95MOL0     H12774   4.081   7.968   8.779 -0.5528 -0.3450  0.0344
   95MOL0     H12775   4.215   7.863   8.772 -0.7998 -1.5973 -0.5163
   95MOL0     H12776   3.839   7.801   8.833  0.2577  0.7020 -1.4413
   95MOL0     H12777   3.715   7.522   8.762  3.4396 -0.1678  0.9568
   95MOL0     H12778   3.668   7.654   8.660  0.6573  1.1904 -1.4768
   95MOL0     H12779   3.744   7.378   8.560 -3.6368 -0.9619 -0.5976
   95MOL0     H12780   3.624   7.477   8.511 -0.0766 -2.1975 -0.7868
   95MOL0     H12781   3.912   7.500   8.438  0.3028  0.9491 -0.8703
   95MOL0     H12782   3.834   7.646   8.437  0.4379 -0.6601 -0.0378
   95MOL0     H12783   3.659   7.533   8.283 -0.4918 -0.5104  0.0266
   95MOL0     H12784   3.752   7.388   8.272  1.0011 -0.1575 -2.7351
   95MOL0     H12785   3.595   7.421   8.076 -0.5312 -0.8064 -1.7079
   95MOL0     H12786   3.534   7.439   7.849  1.0607 -1.7803  1.0344
   95MOL0     H12787   3.276   7.636   7.586 -0.7145 -1.9177 -0.0331
   95MOL0     H12788   3.162   7.662   7.385  1.2237  1.2728  2.1392
   95MOL0     H12789   3.077   7.539   7.046 -1.5539  2.7183 -3.4373
   95MOL0     H12790   3.071   7.641   7.192  0.0945  0.1893 -0.1535
   95MOL0     H12791   3.184   7.709   6.905  1.3097 -0.7872  0.4819
   95MOL0     H12792   3.055   7.796   7.005 -1.0972 -0.8164  0.0843
   95MOL0     H12793   3.235   7.907   7.112  0.1868 -0.6336  0.1182
   95MOL0     H12794   3.354   7.783   7.047 -1.1217 -1.5678  0.7674
   95MOL0     H12795   3.208   7.988   6.877  1.0251  2.8642 -0.5033
   95MOL0     H12796   3.332   7.865   6.827  1.2411  0.0917  0.9033
   95MOL0     H12797   3.488   7.949   6.986 -0.3997 -1.4769 -0.8589
   95MOL0     H12798   3.397   8.097   7.012 -3.1256 -3.5248  3.4772
   95MOL0     H12799   3.511   7.991   6.749 -3.5361  0.5634 -1.8748
   95MOL0     H12800   3.410   8.129   6.761  2.6678  2.7022  1.5265
   95MOL0     H12801   3.669   8.083   6.919  2.5529  0.8570 -1.2183
   95MOL0     H12802   3.585   8.240   6.927 -2.1561  1.0823  0.0174
   95MOL0     H12803   3.691   8.097   6.672 -0.2939 -1.2880  1.2875
   95MOL0     H12804   3.620   8.255   6.675  1.3078 -3.0057 -3.5142
   95MOL0     H12805   3.471   7.426   7.199  2.5505 -1.4399  1.4431
   95MOL0     H12806   3.593   7.426   7.408  1.3971  1.8411 -0.4527
   95MOL0     H12807   3.799   7.770   7.785  1.9595 -2.2172 -0.6684
   95MOL0     H12808   3.892   7.736   8.002 -0.5386  1.2960 -1.7281
   95MOL0     H12809   4.318   7.734   9.845 -0.2307 -1.3784 -3.5984
   95MOL0     H12810   4.393   7.711  10.082 -5.2466 -4.3835 -1.2945
   95MOL0     H12811   4.250   7.288  10.352 -0.4691  3.8627  1.1612
   95MOL0     H12812   4.270   7.170  10.572 -2.6586  3.1112  0.3755
   95MOL0     H12813   4.624   7.234  10.805  1.1887 -0.5402 -1.6768
   95MOL0     H12814   4.657   7.084  10.718  0.0124 -0.3523 -0.0946
   95MOL0     H12815   4.674   7.009  10.965 -0.4730  1.8153  1.4549
   95MOL0     H12816   4.549   6.937  10.871 -0.7774  0.5361  1.5947
   95MOL0     H12817   4.455   6.983  11.080  3.4593 -0.5230  0.8562
   95MOL0     H12818   4.383   7.104  10.973  0.5248  1.9212  0.2944
   95MOL0     H12819   4.526   7.277  11.056  3.5377  0.1363 -0.5427
   95MOL0     H12820   4.455   7.201  11.198  0.4278  1.8175  0.4774
   95MOL0     H12821   4.851   7.128  11.291 -1.1455  2.9060  5.1109
   95MOL0     H12822   4.669   7.312  10.607  1.2927 -3.1712 -1.5571
   95MOL0     H12823   4.758   7.366  10.325  3.6365 -0.1950  3.2596
   95MOL0     H12824   4.686   7.531  10.343 -0.2979  0.3306  1.7656
   95MOL0     H12825   4.762   7.455  10.483  0.0352  0.7074  0.8011
   96MOL0     O12826   6.628   2.916   4.436  0.3877 -0.2984 -0.3379
   96MOL0     C12827   6.575   2.933   4.543 -0.5991 -1.5252 -0.4422
   96MOL0     O12828   6.608   2.863   4.664  0.5665  0.2321  0.6890
   96MOL0     C12829   6.733   2.798   4.672  1.0425  0.0345 -0.7533
   96MOL0     C12830   6.827   2.826   4.768  0.1138  0.1028  0.6758
   96MOL0     C12831   6.937   2.745   4.787  0.2061 -0.5872  0.5575
   96MOL0     C12832   6.950   2.621   4.722 -1.0658 -0.8481  0.2399
   96MOL0     O12833   7.054   2.551   4.758  0.4088  0.9939 -0.0932
   96MOL0     C12834   7.078   2.422   4.691  0.2427 -0.6086 -0.8196
   96MOL0     C12835   7.227   2.385   4.723 -1.0992 -0.5100 -0.4110
   96MOL0     C12836   7.313   2.489   4.655  0.1989  0.4334 -0.1342
   96MOL0     C12837   7.460   2.466   4.697 -0.3247  0.1739 -0.3121
   96MOL0     C12838   7.563   2.580   4.660 -1.0934  0.3092  0.3103
   96MOL0     C12839   7.550   2.626   4.525  1.0856  0.1413  0.4474
   96MOL0     C12840   7.662   2.723   4.469  1.3718 -0.1697 -0.4238
   96MOL0     C12841   7.800   2.666   4.484 -0.5358 -0.4589 -0.4077
   96MOL0     N12842   7.891   2.753   4.397  0.5088  1.0376 -0.2148
   96MOL0     C12843   7.975   2.702   4.302 -0.0366  0.1512  1.0359
   96MOL0     C12844   8.038   2.809   4.245  0.1767 -0.3352 -0.4541
   96MOL0     C12845   8.126   2.815   4.122 -0.1283  0.5254  0.6839
   96MOL0     C12846   8.234   2.700   4.111 -0.5969  0.3716  0.2954
   96MOL0     C12847   8.306   2.713   3.975  0.5899 -0.4784 -0.2701
   96MOL0     C12848   8.220   2.658   3.858 -0.2511  0.0840 -0.3399
   96MOL0     O12849   8.310   2.649   3.746  0.2111 -0.2784  0.5307
   96MOL0     C12850   8.254   2.638   3.622  0.3330 -0.2706  0.2448
   96MOL0     C12851   8.330   2.677   3.510 -0.3190 -0.1036 -0.4609
   96MOL0     C12852   8.276   2.678   3.386 -0.2781 -0.5004  0.4161
   96MOL0     C12853   8.147   2.635   3.357 -0.8254  0.6429  1.1640
   96MOL0     C12854   8.085   2.638   3.223  0.6376  0.5667  0.0462
   96MOL0     O12855   8.169   2.692   3.122  0.4768  0.2400  0.8935
   96MOL0     C12856   8.124   2.675   2.984 -0.2677  0.4893  0.1058
   96MOL0     C12857   8.223   2.607   2.898 -0.5233  0.2761  0.0680
   96MOL0     C12858   8.191   2.566   2.773  0.0644  0.5231  0.0694
   96MOL0     C12859   8.063   2.578   2.718 -0.2001  0.2896  0.8235
   96MOL0     O12860   8.024   2.507   2.610  0.0868 -0.2092  0.0909
   96MOL0     C12861   8.059   2.369   2.612  0.0322  0.7840 -0.1208
   96MOL0     C12862   7.983   2.316   2.488  0.7216 -1.3222  0.2001
   96MOL0     C12863   7.996   2.168   2.459 -0.2750 -0.0284  0.0030
   96MOL0     C12864   8.122   2.128   2.375  0.2115  0.3163  0.1622
   96MOL0     C12865   8.103   1.975   2.350  0.0159  0.4114  0.5816
   96MOL0     C12866   8.247   1.899   2.329 -0.0791  0.2508 -0.2123
   96MOL0     C12867   8.266   1.864   2.175 -0.4423  0.6549 -0.5986
   96MOL0     C12868   8.414   1.821   2.143 -0.3521 -0.2894  0.1003
   96MOL0    Cl12869   8.485   1.702   2.260  0.1801 -0.0927  0.3349
   96MOL0     C12870   7.969   2.654   2.792  0.5939 -0.3650 -0.5854
   96MOL0     C12871   7.998   2.704   2.921 -0.2831  1.1836  0.5396
   96MOL0     O12872   7.980   2.578   3.208  0.1192  0.6475 -0.2584
   96MOL0     C12873   8.077   2.587   3.464 -0.5148 -0.3008 -0.6656
   96MOL0     C12874   8.125   2.586   3.598  0.0587  0.5209  1.0071
   96MOL0     N12875   7.971   2.923   4.296 -0.3432 -0.2308  0.0434
   96MOL0     N12876   7.895   2.887   4.388 -0.2362 -0.0749 -0.5089
   96MOL0     C12877   6.851   2.588   4.625  0.1039  0.4260 -0.3079
   96MOL0     C12878   6.746   2.677   4.599 -0.0115  0.4111  0.2743
   96MOL0     C12879   6.465   3.031   4.545  1.2464  0.9083 -0.1139
   96MOL0     C12880   6.473   3.141   4.464 -0.2991  0.3176  0.1509
   96MOL0     C12881   6.373   3.231   4.465 -0.4289  0.8320  0.3108
   96MOL0     C12882   6.266   3.222   4.554 -0.7609 -0.5267  1.0615
   96MOL0     O12883   6.161   3.306   4.568  0.0271 -0.2359  0.2182
   96MOL0     C12884   6.163   3.431   4.502  0.2852  0.0305 -0.2843
   96MOL0     C12885   6.065   3.528   4.569 -0.2069 -1.0219  0.1354
   96MOL0     C12886   6.092   3.557   4.719  0.4998 -0.4220  0.9392
   96MOL0     C12887   6.217   3.637   4.745 -0.1160  0.4614 -0.1943
   96MOL0     C12888   6.233   3.685   4.882  0.2148  0.4258  1.2689
   96MOL0     C12889   6.241   3.715   4.999  0.0765  0.2039  0.1393
   96MOL0     C12890   6.261   3.120   4.644 -0.2536 -0.0028  0.2914
   96MOL0     C12891   6.355   3.015   4.634 -0.0801 -0.0254 -0.7195
   96MOL0     C12892   6.323   2.898   4.714 -0.1820 -0.4119  0.0350
   96MOL0     H12893   6.809   2.917   4.825  0.3331 -0.3126  1.4091
   96MOL0     H12894   7.009   2.771   4.865 -0.9157  3.5579  0.4966
   96MOL0     H12895   7.007   2.346   4.723 -1.1865 -0.3349 -3.1202
   96MOL0     H12896   7.070   2.434   4.582 -0.7078 -0.5871 -0.7560
   96MOL0     H12897   7.252   2.288   4.679 -1.6544 -1.9446  2.2611
   96MOL0     H12898   7.252   2.371   4.829  0.4946 -3.2123 -1.0426
   96MOL0     H12899   7.295   2.595   4.675  3.5793  1.6809 -2.6412
   96MOL0     H12900   7.304   2.489   4.546  1.0677  1.5953 -0.2248
   96MOL0     H12901   7.473   2.432   4.800 -1.1781 -0.8642 -0.5315
   96MOL0     H12902   7.501   2.385   4.636  0.4284  2.8140 -3.6400
   96MOL0     H12903   7.556   2.661   4.733 -0.5358 -0.6503  1.4731
   96MOL0     H12904   7.665   2.548   4.683 -0.7884  0.6388 -0.5560
   96MOL0     H12905   7.574   2.533   4.472  3.5034  0.3492  1.0365
   96MOL0     H12906   7.454   2.659   4.486  1.0131 -1.5939 -1.0129
   96MOL0     H12907   7.650   2.824   4.509 -1.2169  0.0635 -1.5770
   96MOL0     H12908   7.643   2.746   4.363 -1.3207  0.8484  0.2033
   96MOL0     H12909   7.817   2.682   4.591  1.4581  2.3867 -1.0265
   96MOL0     H12910   7.807   2.564   4.443  1.4672 -0.0131 -1.2924
   96MOL0     H12911   7.974   2.597   4.275  1.3211  0.5178 -0.6790
   96MOL0     H12912   8.057   2.815   4.037 -1.5672 -4.4782  1.5051
   96MOL0     H12913   8.183   2.908   4.129  0.1418  0.2461  3.0934
   96MOL0     H12914   8.305   2.728   4.190 -1.1626  2.4353  0.1463
   96MOL0     H12915   8.211   2.593   4.109  1.1351 -0.0866 -3.3170
   96MOL0     H12916   8.403   2.664   3.988  1.2452  0.6371 -0.7821
   96MOL0     H12917   8.318   2.821   3.959 -0.5618 -0.0030  1.7465
   96MOL0     H12918   8.140   2.729   3.832  1.2668  1.3073 -1.8839
   96MOL0     H12919   8.178   2.564   3.894 -1.7148  0.5127 -0.8271
   96MOL0     H12920   8.434   2.702   3.526 -0.1015 -2.2534  2.2580
   96MOL0     H12921   8.339   2.711   3.304 -2.6482  1.2131 -0.8406
   96MOL0     H12922   8.309   2.567   2.950 -0.6094 -2.9924 -2.0365
   96MOL0     H12923   8.274   2.508   2.732 -2.4622 -0.9024 -3.4784
   96MOL0     H12924   8.165   2.346   2.604 -0.0591 -0.6461  2.0939
   96MOL0     H12925   8.023   2.315   2.700 -2.4259  1.8653 -0.3646
   96MOL0     H12926   7.878   2.343   2.505  1.2919  1.4463 -0.2419
   96MOL0     H12927   8.015   2.369   2.398  3.6106 -3.1864 -0.0003
   96MOL0     H12928   7.987   2.108   2.550  0.9389  2.4316  1.8492
   96MOL0     H12929   7.905   2.140   2.405 -1.0974 -0.5698  1.6135
   96MOL0     H12930   8.213   2.148   2.432 -0.2340 -2.9427  2.2963
   96MOL0     H12931   8.117   2.176   2.277 -0.3716  0.1295  0.0939
   96MOL0     H12932   8.036   1.958   2.266 -0.6090 -0.0714  1.1618
   96MOL0     H12933   8.057   1.927   2.437 -1.7565 -0.8605 -0.9900
   96MOL0     H12934   8.325   1.957   2.380  1.5081  0.6516 -2.8886
   96MOL0     H12935   8.252   1.803   2.381  2.6929  0.1980 -0.4259
   96MOL0     H12936   8.241   1.954   2.118 -2.4584 -0.0647 -0.9345
   96MOL0     H12937   8.195   1.788   2.143 -0.0151  0.5521 -1.3119
   96MOL0     H12938   8.429   1.779   2.043  4.4384  0.6122  0.1940
   96MOL0     H12939   8.478   1.909   2.154  0.3299 -0.9091  1.3669
   96MOL0     H12940   7.873   2.686   2.751  0.6807 -0.2772 -0.7252
   96MOL0     H12941   7.923   2.756   2.979  0.7471  0.3371  2.7057
   96MOL0     H12942   7.973   2.557   3.453 -0.6526 -0.6556  1.1696
   96MOL0     H12943   8.064   2.536   3.672 -0.2439  1.1614  1.2008
   96MOL0     H12944   6.852   2.498   4.564 -4.3552 -0.3428  0.3445
   96MOL0     H12945   6.683   2.666   4.511 -1.0786  2.7141  0.6877
   96MOL0     H12946   6.557   3.147   4.395 -0.8112  0.4411 -0.4690
   96MOL0     H12947   6.375   3.315   4.396  1.3287  1.3287  0.9005
   96MOL0     H12948   6.134   3.423   4.397 -1.3550  1.8012 -0.0033
   96MOL0     H12949   6.265   3.470   4.511 -0.3305  1.4866  0.4900
   96MOL0     H12950   5.961   3.495   4.560 -0.3238 -1.5179  2.6197
   96MOL0     H12951   6.064   3.624   4.517  0.8873 -1.8197 -1.4501
   96MOL0     H12952   6.092   3.460   4.771 -3.0774 -1.0659  0.0061
   96MOL0     H12953   6.006   3.601   4.770 -1.5859 -1.9239 -1.0604
   96MOL0     H12954   6.299   3.566   4.736 -1.2492 -0.9856  0.5811
   96MOL0     H12955   6.212   3.720   4.673 -2.1003  1.4552  0.9866
   96MOL0     H12956   6.251   3.740   5.102 -4.4699  0.3566  0.7381
   96MOL0     H12957   6.189   3.129   4.725  0.1558  2.6297  0.4320
   96MOL0     H12958   6.392   2.880   4.797 -0.4915 -4.3588 -0.4038
   96MOL0     H12959   6.218   2.910   4.742 -1.0226  3.0102 -3.5775
   96MOL0     H12960   6.333   2.812   4.649 -1.4439  1.0084 -2.1453
   97MOL0     O12961   1.574   7.974   0.225  0.0950 -0.0409  0.1474
   97MOL0     C12962   1.639   8.079   0.237  0.7003 -0.5573 -0.1895
   97MOL0     O12963   1.588   8.203   0.261 -0.0220 -0.0893 -0.0349
   97MOL0     C12964   1.452   8.211   0.239 -0.5831  0.5926 -0.4949
   97MOL0     C12965   1.405   8.274   0.122  0.3265  0.6323  0.0842
   97MOL0     C12966   1.270   8.268   0.085 -0.4544 -0.1282 -0.4927
   97MOL0     C12967   1.175   8.221   0.180  1.3559  0.2666 -0.1039
   97MOL0     O12968   1.042   8.235   0.152  0.5188  0.6469  0.2233
   97MOL0     C12969   0.952   8.145   0.219  0.1888 -0.3629  0.3341
   97MOL0     C12970   0.811   8.193   0.178  0.7462 -0.7262 -1.1837
   97MOL0     C12971   0.805   8.223   0.030  0.7668 -0.2985 -0.6558
   97MOL0     C12972   0.661   8.242  -0.016 -0.6417 -0.0447  0.6536
   97MOL0     C12973   0.571   8.121  -0.031  0.5811 -0.1871 -0.4699
   97MOL0     C12974   0.588   8.047  -0.163 -0.0590  0.4418  0.5360
   97MOL0     C12975   0.490   7.922  -0.183 -0.3224 -0.3422  0.0480
   97MOL0     C12976   0.485   7.877  -0.328  0.7364 -0.1150  0.5594
   97MOL0     N12977   0.490   7.981  -0.439 -0.2492 -0.7937 -0.2133
   97MOL0     C12978   0.415   8.097  -0.458 -0.2223 -0.1860  0.7533
   97MOL0     C12979   0.433   8.138  -0.586  0.2076  0.9450  0.6111
   97MOL0     C12980   0.368   8.257  -0.652 -0.2601  0.2603  0.0068
   97MOL0     C12981   0.470   8.349  -0.714 -0.2901  0.0500 -0.0039
   97MOL0     C12982   0.486   8.326  -0.868 -0.3072  0.2948  0.5850
   97MOL0     C12983   0.606   8.407  -0.921 -0.7566  0.3419  0.8294
   97MOL0     O12984   0.626   8.390  -1.065  0.3497  0.0341 -0.8205
   97MOL0     C12985   0.730   8.306  -1.112 -0.0490 -0.0507  0.2230
   97MOL0     C12986   0.783   8.340  -1.237  0.1960 -0.7868 -0.1690
   97MOL0     C12987   0.873   8.249  -1.296  0.6379  0.2448 -0.6959
   97MOL0     C12988   0.912   8.133  -1.234  0.1169  0.3551  0.4502
   97MOL0     C12989   1.025   8.054  -1.294  0.4251 -0.1243 -0.9068
   97MOL0     O12990   1.071   8.078  -1.423 -0.2869 -0.1922 -0.6182
   97MOL0     C12991   1.154   7.995  -1.484 -0.6076  1.3356  0.0234
   97MOL0     C12992   1.269   8.050  -1.551  0.0010 -0.5460  0.2513
   97MOL0     C12993   1.359   7.956  -1.603  0.7654 -0.5553 -0.7669
   97MOL0     C12994   1.340   7.815  -1.597  0.8400 -0.8926 -0.5710
   97MOL0     O12995   1.431   7.717  -1.641 -0.4829  0.4953  0.7056
   97MOL0     C12996   1.539   7.769  -1.728 -0.3232 -0.0321 -0.4284
   97MOL0     C12997   1.480   7.797  -1.864 -0.5039  0.0905  0.4642
   97MOL0     C12998   1.562   7.879  -1.966  1.0581  0.6047 -0.3524
   97MOL0     C12999   1.579   8.022  -1.928 -0.9211 -0.4989 -0.5333
   97MOL0     C13000   1.662   8.109  -2.021  0.2974 -0.0680  0.0737
   97MOL0     C13001   1.648   8.077  -2.176  0.4384 -0.8803 -0.4049
   97MOL0     C13002   1.742   8.156  -2.266  0.2559  0.1092  1.3524
   97MOL0     C13003   1.699   8.309  -2.286 -0.3912 -0.1845 -0.5162
   97MOL0    Cl13004   1.541   8.329  -2.382 -0.1273  0.4185  0.0261
   97MOL0     C13005   1.226   7.767  -1.531 -0.6133  1.2471  0.4588
   97MOL0     C13006   1.126   7.854  -1.489 -0.7423 -0.9868  0.5545
   97MOL0     O13007   1.047   7.949  -1.228 -0.7552  0.2815  0.7555
   97MOL0     C13008   0.867   8.108  -1.111  0.4846 -0.4421  0.2884
   97MOL0     C13009   0.778   8.192  -1.045  0.5358  0.4272 -0.1276
   97MOL0     N13010   0.532   8.052  -0.638 -0.5516 -0.5155 -0.5717
   97MOL0     N13011   0.571   7.973  -0.542 -0.5042 -0.5639  0.1519
   97MOL0     C13012   1.220   8.166   0.300  0.2270 -0.2090 -0.1833
   97MOL0     C13013   1.355   8.151   0.327 -0.9020 -0.3391 -0.1027
   97MOL0     C13014   1.789   8.069   0.234  0.7510  0.3415 -0.7886
   97MOL0     C13015   1.856   8.183   0.202  0.0940 -0.7988 -0.4200
   97MOL0     C13016   1.995   8.189   0.185  0.9235  0.2073 -0.4739
   97MOL0     C13017   2.064   8.078   0.236  0.6382 -0.6959 -0.9185
   97MOL0     O13018   2.203   8.073   0.253 -0.3779  0.1746 -0.3295
   97MOL0     C13019   2.286   8.194   0.239 -0.1504 -0.1202  0.4638
   97MOL0     C13020   2.323   8.226   0.090 -0.3638  0.0736 -0.1990
   97MOL0     C13021   2.433   8.126   0.038 -0.2183  0.6853 -0.8502
   97MOL0     C13022   2.490   8.173  -0.092  0.1056  0.1701 -0.2623
   97MOL0     C13023   2.631   8.228  -0.088  0.6060  0.2552  0.7264
   97MOL0     C13024   2.739   8.288  -0.087 -0.3107 -0.0101  0.5718
   97MOL0     C13025   2.001   7.957   0.267 -0.1197 -0.3797 -0.2754
   97MOL0     C13026   1.862   7.949   0.265 -0.8555 -0.7372  0.5819
   97MOL0     C13027   1.803   7.812   0.303  0.3791  0.1525  0.2946
   97MOL0     H13028   1.483   8.324   0.066  2.7988 -0.4081  2.3666
   97MOL0     H13029   1.237   8.297  -0.015 -0.2684  1.2351 -0.1698
   97MOL0     H13030   0.963   8.038   0.198 -2.2565 -0.4944 -0.6540
   97MOL0     H13031   0.946   8.155   0.328 -0.0879  0.3545  0.2543
   97MOL0     H13032   0.781   8.279   0.240 -2.6162 -2.0033 -0.8448
   97MOL0     H13033   0.737   8.120   0.212  0.9480  0.6664  2.8573
   97MOL0     H13034   0.842   8.144  -0.037  1.6123 -2.3985  2.0795
   97MOL0     H13035   0.867   8.312   0.016  3.2556 -1.5093  1.7291
   97MOL0     H13036   0.627   8.322   0.050  1.1042  1.7808 -0.5523
   97MOL0     H13037   0.666   8.298  -0.109 -3.2268 -0.1740  0.3642
   97MOL0     H13038   0.589   8.039   0.038  0.1791  0.1978  0.1049
   97MOL0     H13039   0.469   8.159  -0.028  0.5303 -0.3203  2.6120
   97MOL0     H13040   0.565   8.124  -0.237 -0.8752 -1.2474 -1.0398
   97MOL0     H13041   0.689   8.007  -0.175 -0.5922 -0.3548 -1.8468
   97MOL0     H13042   0.395   7.958  -0.145  1.1808  1.7943  2.0845
   97MOL0     H13043   0.510   7.837  -0.118 -4.9809 -3.8923 -2.5090
   97MOL0     H13044   0.573   7.816  -0.352 -0.4346 -0.7829 -2.4232
   97MOL0     H13045   0.404   7.808  -0.351  0.8687  0.1240 -0.7083
   97MOL0     H13046   0.338   8.137  -0.393  1.1260 -2.2984  3.9089
   97MOL0     H13047   0.302   8.208  -0.725  0.2992 -1.5790  0.6858
   97MOL0     H13048   0.300   8.315  -0.588 -0.6201 -0.9734  0.7715
   97MOL0     H13049   0.441   8.454  -0.710 -0.8384 -0.0263 -1.4115
   97MOL0     H13050   0.569   8.337  -0.668  0.0587 -0.0954 -0.7762
   97MOL0     H13051   0.399   8.363  -0.923  1.1273  0.0485 -2.0235
   97MOL0     H13052   0.499   8.218  -0.879 -0.4735  0.3639 -0.3648
   97MOL0     H13053   0.696   8.379  -0.865 -0.4894  1.5532  1.0227
   97MOL0     H13054   0.589   8.514  -0.914  0.5426  0.4523  3.2497
   97MOL0     H13055   0.740   8.427  -1.286 -0.4779 -1.0831 -0.1219
   97MOL0     H13056   0.911   8.273  -1.395  1.4848 -0.2109 -0.4906
   97MOL0     H13057   1.270   8.158  -1.561  1.7254 -0.5628 -0.0217
   97MOL0     H13058   1.445   8.001  -1.652  0.2772 -1.4008 -2.4731
   97MOL0     H13059   1.585   7.859  -1.686  2.0404 -2.2485  2.1167
   97MOL0     H13060   1.620   7.697  -1.744 -0.9108  0.0581 -5.3607
   97MOL0     H13061   1.463   7.702  -1.916 -3.3759  1.2781 -1.0189
   97MOL0     H13062   1.389   7.857  -1.856  0.5444  2.5661 -3.2188
   97MOL0     H13063   1.659   7.833  -1.987  1.5342  1.3969  0.0268
   97MOL0     H13064   1.504   7.878  -2.059 -0.4010  0.7400  0.5326
   97MOL0     H13065   1.630   8.035  -1.832 -0.8884  0.9718 -0.7266
   97MOL0     H13066   1.476   8.061  -1.924 -0.2774  1.6149 -2.6392
   97MOL0     H13067   1.767   8.087  -2.002  0.9558  4.2882  2.9116
   97MOL0     H13068   1.635   8.213  -2.000 -0.9169 -0.2509 -0.5049
   97MOL0     H13069   1.677   7.972  -2.183  0.4577 -0.8081 -1.4828
   97MOL0     H13070   1.548   8.086  -2.220  1.2372 -2.0362 -2.5984
   97MOL0     H13071   1.736   8.106  -2.364  2.1746 -0.8925  1.7025
   97MOL0     H13072   1.849   8.151  -2.245  0.5874  1.1544  0.0853
   97MOL0     H13073   1.681   8.355  -2.189 -1.0216 -0.8578 -0.3063
   97MOL0     H13074   1.780   8.367  -2.332 -1.3141  2.4142  0.9136
   97MOL0     H13075   1.199   7.662  -1.534  0.1942  1.0206  0.7949
   97MOL0     H13076   1.037   7.820  -1.437 -2.2661  1.1152 -0.5317
   97MOL0     H13077   0.893   8.030  -1.040 -3.0013  0.3877  2.7470
   97MOL0     H13078   0.738   8.168  -0.947  1.5664  1.8909  0.6969
   97MOL0     H13079   1.144   8.137   0.372 -1.7314  3.8566 -0.3262
   97MOL0     H13080   1.400   8.102   0.413 -0.7374  1.1118  0.6849
   97MOL0     H13081   1.799   8.272   0.179  2.5616  0.2079 -3.3784
   97MOL0     H13082   2.048   8.279   0.157  1.7345  0.0768  0.5841
   97MOL0     H13083   2.378   8.176   0.295 -1.4296 -0.3615  2.6002
   97MOL0     H13084   2.242   8.278   0.293 -1.0373 -0.7378  0.7326
   97MOL0     H13085   2.369   8.325   0.080 -2.4171  1.1390  0.3453
   97MOL0     H13086   2.233   8.222   0.028 -2.1605 -3.7080  2.3144
   97MOL0     H13087   2.399   8.023   0.036  2.8397 -0.5888  2.1416
   97MOL0     H13088   2.513   8.122   0.112 -0.7819  3.9281  0.1109
   97MOL0     H13089   2.491   8.086  -0.157  2.1105  0.2480 -0.3754
   97MOL0     H13090   2.429   8.251  -0.139 -1.3959 -1.1871 -0.6475
   97MOL0     H13091   2.835   8.334  -0.084  1.0399 -2.5679  4.2436
   97MOL0     H13092   2.065   7.872   0.286 -0.3912 -0.2903  1.1291
   97MOL0     H13093   1.781   7.756   0.212 -2.9516 -0.4392  1.3494
   97MOL0     H13094   1.876   7.758   0.366 -1.2750 -4.1201 -1.0569
   97MOL0     H13095   1.711   7.826   0.359  0.7535 -1.0283  1.2557
   98MOL0     O13096  10.875   0.259   1.316  0.4943 -0.2204 -0.2427
   98MOL0     C13097  10.896   0.365   1.263  0.5658 -0.1621 -0.0749
   98MOL0     O13098  10.957   0.466   1.325  0.2281 -0.0859  0.4668
   98MOL0     C13099  10.972   0.454   1.461 -0.8564  0.9861 -0.2999
   98MOL0     C13100  10.861   0.475   1.555  0.8274 -0.2138 -0.0241
   98MOL0     C13101  10.886   0.477   1.691  0.3960 -0.2693 -0.6232
   98MOL0     C13102  11.012   0.450   1.740  0.2758 -0.1090 -0.2352
   98MOL0     O13103  11.027   0.441   1.875  0.3569 -0.5508  0.5133
   98MOL0     C13104  11.148   0.380   1.927  0.3941  0.4119 -1.1378
   98MOL0     C13105  11.134   0.359   2.078 -0.0994 -0.5450  0.4500
   98MOL0     C13106  11.264   0.288   2.121 -0.3330 -0.0386 -0.5733
   98MOL0     C13107  11.271   0.133   2.093 -1.4814 -0.0008  0.5535
   98MOL0     C13108  11.412   0.086   2.131 -0.2588  0.0670 -0.9045
   98MOL0     C13109  11.452  -0.048   2.062 -0.1905  0.5307 -0.0709
   98MOL0     C13110  11.367  -0.161   2.112  0.3345 -0.1535 -0.5051
   98MOL0     C13111  11.441  -0.290   2.074 -0.0728 -0.2061  0.5437
   98MOL0     N13112  11.480  -0.313   1.933 -0.8463 -0.0972  0.9159
   98MOL0     C13113  11.394  -0.329   1.823 -0.0138 -0.3965  0.5189
   98MOL0     C13114  11.474  -0.344   1.719  0.1513 -0.2760  0.7285
   98MOL0     C13115  11.424  -0.339   1.571 -0.0103  0.2737 -0.9654
   98MOL0     C13116  11.383  -0.474   1.526 -0.8499 -0.3520  0.3957
   98MOL0     C13117  11.507  -0.565   1.503 -0.6841  0.2928  0.6795
   98MOL0     C13118  11.472  -0.707   1.436 -0.0484  0.1198  0.1675
   98MOL0     O13119  11.365  -0.777   1.514  0.9831 -0.8742 -0.4476
   98MOL0     C13120  11.409  -0.887   1.581  0.1034  0.3166 -0.4654
   98MOL0     C13121  11.503  -0.982   1.528 -0.0222  0.2239  0.2235
   98MOL0     C13122  11.538  -1.089   1.604 -0.5312  0.4076 -0.1483
   98MOL0     C13123  11.476  -1.126   1.725 -0.4878  0.0550  0.7708
   98MOL0     C13124  11.512  -1.244   1.801  0.2377  0.5179 -0.1110
   98MOL0     O13125  11.436  -1.269   1.910 -0.5473  0.0590 -0.4872
   98MOL0     C13126  11.447  -1.389   1.969  0.3973 -0.9674  0.3684
   98MOL0     C13127  11.388  -1.499   1.915  0.2920 -0.3429 -0.0201
   98MOL0     C13128  11.407  -1.635   1.962 -0.1180 -0.5413  0.1679
   98MOL0     C13129  11.490  -1.644   2.072 -0.1739  0.1488  0.2800
   98MOL0     O13130  11.507  -1.778   2.099  0.1107 -0.0810 -0.4727
   98MOL0     C13131  11.586  -1.827   2.212  0.3147 -0.8822 -0.3090
   98MOL0     C13132  11.581  -1.978   2.237  1.1257 -0.1986 -0.2129
   98MOL0     C13133  11.678  -2.030   2.346  0.1310  0.2384  0.5460
   98MOL0     C13134  11.702  -2.183   2.338 -0.2117  0.0813  0.7303
   98MOL0     C13135  11.826  -2.234   2.411 -0.3455 -0.8589 -0.4911
   98MOL0     C13136  11.945  -2.141   2.414 -0.5061  0.4716  0.5908
   98MOL0     C13137  12.070  -2.220   2.463  0.2290 -0.8655  0.1424
   98MOL0     C13138  12.182  -2.107   2.461 -0.4207  1.3914 -0.8176
   98MOL0    Cl13139  12.346  -2.183   2.459 -0.1776  0.1162  0.4107
   98MOL0     C13140  11.540  -1.534   2.136  0.6579 -0.2036  0.2731
   98MOL0     C13141  11.525  -1.408   2.091  0.3877 -1.5385 -0.3447
   98MOL0     O13142  11.606  -1.315   1.769  0.2203 -0.0018  0.2441
   98MOL0     C13143  11.369  -1.038   1.766  0.6449  0.6514  0.4620
   98MOL0     C13144  11.342  -0.915   1.698  0.5720 -0.1462  0.3892
   98MOL0     N13145  11.609  -0.351   1.754  0.3658 -0.3742 -0.3767
   98MOL0     N13146  11.608  -0.326   1.883 -0.7138 -0.0973  0.0623
   98MOL0     C13147  11.115   0.429   1.646  0.0625 -0.2617 -0.1496
   98MOL0     C13148  11.093   0.416   1.510  0.6107 -0.1385  0.0968
   98MOL0     C13149  10.844   0.391   1.136  0.1081  0.0240 -0.1364
   98MOL0     C13150  10.805   0.525   1.121  0.3332 -1.5342 -0.4879
   98MOL0     C13151  10.763   0.575   0.995 -0.4590 -0.7730 -0.8081
   98MOL0     C13152  10.745   0.485   0.890 -1.0366 -0.1471 -0.5062
   98MOL0     O13153  10.680   0.534   0.783  0.3964  0.5200 -0.3476
   98MOL0     C13154  10.612   0.450   0.690 -0.0715 -0.3170 -0.4577
   98MOL0     C13155  10.571   0.522   0.562  0.4161  0.1550  0.4821
   98MOL0     C13156  10.492   0.644   0.575 -0.5352  0.2455  0.7745
   98MOL0     C13157  10.360   0.621   0.642 -0.4315 -0.0604 -0.4076
   98MOL0     C13158  10.301   0.499   0.607 -0.3456  0.1268  0.8279
   98MOL0     C13159  10.247   0.394   0.568 -0.0958  0.3966 -0.9535
   98MOL0     C13160  10.801   0.351   0.910 -0.3546  0.0769 -0.4343
   98MOL0     C13161  10.853   0.307   1.027 -0.3010  0.1946 -0.2727
   98MOL0     C13162  10.909   0.168   1.046 -0.4313  0.0516 -0.1719
   98MOL0     H13163  10.769   0.504   1.505 -1.2112 -1.5913  2.6869
   98MOL0     H13164  10.810   0.506   1.763  1.8075 -0.9171  1.1947
   98MOL0     H13165  11.159   0.277   1.890 -1.5599 -1.8387  3.6754
   98MOL0     H13166  11.232   0.446   1.907  0.1596  0.6936 -1.1899
   98MOL0     H13167  11.039   0.312   2.106 -1.1325  0.3848 -1.3621
   98MOL0     H13168  11.125   0.455   2.129 -3.4104 -0.7562  0.4693
   98MOL0     H13169  11.278   0.305   2.228 -0.7937  1.6322 -0.7579
   98MOL0     H13170  11.352   0.333   2.075 -0.5689  2.0320  0.8407
   98MOL0     H13171  11.198   0.072   2.147 -2.8709  0.7015 -0.4516
   98MOL0     H13172  11.246   0.115   1.988 -0.6164 -2.6347  0.7397
   98MOL0     H13173  11.486   0.158   2.096 -0.2637  0.7580  0.4142
   98MOL0     H13174  11.433   0.075   2.238  1.4683  1.2153 -1.0818
   98MOL0     H13175  11.460  -0.018   1.958  1.3112  3.5128  0.7919
   98MOL0     H13176  11.556  -0.070   2.090 -0.4360  1.7460  1.9982
   98MOL0     H13177  11.269  -0.155   2.064  1.0350  2.8957 -1.7738
   98MOL0     H13178  11.349  -0.161   2.220 -1.2147 -0.0795 -0.7344
   98MOL0     H13179  11.522  -0.288   2.148 -1.4763  1.9197  2.1421
   98MOL0     H13180  11.373  -0.374   2.091 -0.9969  0.6183  0.9550
   98MOL0     H13181  11.288  -0.303   1.821  0.1457  0.2371 -0.0310
   98MOL0     H13182  11.331  -0.280   1.570  0.4491  1.0911 -3.7032
   98MOL0     H13183  11.498  -0.284   1.513  0.6064 -0.2971 -0.7283
   98MOL0     H13184  11.310  -0.522   1.592 -1.2400 -0.4979 -0.1376
   98MOL0     H13185  11.319  -0.463   1.438 -2.6990 -2.5037  1.3835
   98MOL0     H13186  11.554  -0.590   1.598 -0.9970 -0.2636  0.6877
   98MOL0     H13187  11.576  -0.510   1.438  2.3586 -0.7008  2.8707
   98MOL0     H13188  11.561  -0.767   1.419 -0.8468 -0.1487 -4.2166
   98MOL0     H13189  11.423  -0.675   1.344 -1.8222 -1.9759  0.3036
   98MOL0     H13190  11.556  -0.964   1.435 -1.6508  4.0370 -0.1766
   98MOL0     H13191  11.611  -1.163   1.571 -1.0862 -2.1992  3.7049
   98MOL0     H13192  11.332  -1.471   1.827  0.2393 -1.0437 -0.2137
   98MOL0     H13193  11.362  -1.722   1.917  0.6420 -1.2405  0.7441
   98MOL0     H13194  11.688  -1.795   2.191  0.7002 -0.3027  2.0708
   98MOL0     H13195  11.568  -1.768   2.303  0.2837  0.0533 -0.9150
   98MOL0     H13196  11.478  -2.010   2.256  1.0379  0.9106  1.4384
   98MOL0     H13197  11.609  -2.025   2.143  0.6704 -2.2256  0.6022
   98MOL0     H13198  11.767  -1.971   2.322  1.6556 -2.0999  0.1110
   98MOL0     H13199  11.654  -1.994   2.446  3.2484  3.2694  0.3571
   98MOL0     H13200  11.722  -2.194   2.231  0.4995  1.4615  0.6994
   98MOL0     H13201  11.612  -2.242   2.358  0.1860  0.1297  2.8599
   98MOL0     H13202  11.856  -2.336   2.385 -0.1252 -1.2100  1.0278
   98MOL0     H13203  11.804  -2.242   2.518  2.2425  0.8565  0.2634
   98MOL0     H13204  11.965  -2.104   2.313  1.8575 -3.0299 -0.4120
   98MOL0     H13205  11.917  -2.050   2.469 -1.7318  0.7020 -0.3611
   98MOL0     H13206  12.087  -2.295   2.385 -2.9442 -1.7756  0.1797
   98MOL0     H13207  12.046  -2.264   2.560 -1.0667 -0.5046  0.0022
   98MOL0     H13208  12.179  -2.034   2.379 -1.7301  1.1294 -1.0231
   98MOL0     H13209  12.174  -2.035   2.543 -0.4001 -0.4375  0.8591
   98MOL0     H13210  11.605  -1.553   2.221  1.0328  1.3575  0.3699
   98MOL0     H13211  11.569  -1.319   2.135 -1.8138 -2.0632  3.4611
   98MOL0     H13212  11.311  -1.055   1.856 -0.4481  2.3186  0.1049
   98MOL0     H13213  11.257  -0.860   1.735 -1.6848 -1.2024 -2.8604
   98MOL0     H13214  11.213   0.410   1.687 -1.4653 -2.0386  3.1391
   98MOL0     H13215  11.169   0.393   1.436  2.7337  3.8588  0.7992
   98MOL0     H13216  10.802   0.602   1.197  1.2471 -1.9589 -0.0048
   98MOL0     H13217  10.721   0.673   0.971 -0.0501 -1.3447 -4.5350
   98MOL0     H13218  10.529   0.410   0.748  0.6895  0.4185  1.2072
   98MOL0     H13219  10.659   0.357   0.658  0.1342 -0.6423  0.7550
   98MOL0     H13220  10.525   0.449   0.495 -1.3265 -0.3340  2.1612
   98MOL0     H13221  10.659   0.557   0.505  2.2193 -0.0775  2.9585
   98MOL0     H13222  10.474   0.689   0.477  0.6834 -0.2919  0.2867
   98MOL0     H13223  10.540   0.724   0.632  0.6176 -0.4625  0.8343
   98MOL0     H13224  10.373   0.625   0.750  5.2774 -1.5381 -0.7125
   98MOL0     H13225  10.302   0.704   0.600 -0.5420 -0.6633 -1.4907
   98MOL0     H13226  10.202   0.302   0.535  1.3235 -0.7699  0.1940
   98MOL0     H13227  10.812   0.293   0.818 -0.0314  0.4327 -0.6245
   98MOL0     H13228  11.002   0.169   1.103 -1.2372  2.5441  1.2711
   98MOL0     H13229  10.838   0.104   1.100 -0.0541  2.0248  2.9349
   98MOL0     H13230  10.929   0.136   0.944  0.8432  1.1820 -0.2911
   99MOL0     O13231  10.605  11.355  10.580 -0.0729  0.2453  0.4682
   99MOL0     C13232  10.504  11.312  10.624 -0.3087  0.6622 -1.3104
   99MOL0     O13233  10.382  11.379  10.638  0.0556  0.1659 -0.1921
   99MOL0     C13234  10.379  11.516  10.627  0.5797 -0.9562  0.3128
   99MOL0     C13235  10.485  11.609  10.641 -0.2817  0.0204  0.5270
   99MOL0     C13236  10.474  11.750  10.609  0.3007 -0.5553  0.0787
   99MOL0     C13237  10.359  11.807  10.576  0.0813  0.3109  1.2821
   99MOL0     O13238  10.337  11.945  10.550  0.0568  0.2302  0.2836
   99MOL0     C13239  10.451  12.031  10.559 -0.1356 -0.5498 -1.0448
   99MOL0     C13240  10.397  12.172  10.601  0.0113 -0.4285  0.9194
   99MOL0     C13241  10.343  12.232  10.473  0.3299 -0.0783 -0.1695
   99MOL0     C13242  10.228  12.338  10.503  0.5193 -0.5805  0.3879
   99MOL0     C13243  10.186  12.431  10.393  0.5196 -0.0256 -0.0710
   99MOL0     C13244  10.114  12.570  10.428 -0.5786  0.4719  0.4362
   99MOL0     C13245  10.005  12.567  10.524  0.0819  0.2242 -0.4598
   99MOL0     C13246   9.976  12.709  10.556 -0.3681 -0.6855  0.2369
   99MOL0     N13247   9.887  12.729  10.675 -0.7415 -0.6543 -0.0247
   99MOL0     C13248   9.913  12.681  10.799  0.5413  0.6135 -0.7443
   99MOL0     C13249   9.802  12.716  10.868  0.0831  0.5896  0.4658
   99MOL0     C13250   9.776  12.705  11.011  0.3514 -0.4509 -0.2690
   99MOL0     C13251   9.630  12.679  11.038  0.7084 -1.0861 -0.6780
   99MOL0     C13252   9.598  12.583  11.164 -0.4376 -0.4845  0.4888
   99MOL0     C13253   9.632  12.659  11.292 -0.1995  0.9736  0.3319
   99MOL0     O13254   9.773  12.632  11.315  0.1481  0.4434  0.2260
   99MOL0     C13255   9.804  12.543  11.419  1.5796 -0.1643 -0.5291
   99MOL0     C13256   9.710  12.454  11.481 -1.0048  0.3493 -0.9041
   99MOL0     C13257   9.751  12.384  11.603  1.2981 -0.2838  0.9468
   99MOL0     C13258   9.883  12.388  11.650  0.5237 -0.3704  0.7715
   99MOL0     C13259   9.930  12.327  11.774  0.0695 -0.2296  0.2237
   99MOL0     O13260   9.840  12.244  11.834  0.3630 -0.0286  0.0181
   99MOL0     C13261   9.868  12.172  11.946 -0.6548  0.3168  0.0685
   99MOL0     C13262   9.847  12.032  11.955  0.2120 -0.4472  0.7138
   99MOL0     C13263   9.874  11.952  12.066 -0.5533 -0.0759 -0.1201
   99MOL0     C13264   9.949  12.009  12.172  0.3922 -0.2248 -0.5959
   99MOL0     O13265   9.964  11.934  12.291  0.2076 -0.0690  0.5109
   99MOL0     C13266  10.058  11.972  12.385 -1.2088  0.3386 -0.2989
   99MOL0     C13267  10.112  11.846  12.453  0.8071  1.0160  0.1436
   99MOL0     C13268  10.208  11.887  12.557 -1.2744 -0.3893 -1.5349
   99MOL0     C13269  10.331  11.795  12.550 -0.2928  0.7223  0.0323
   99MOL0     C13270  10.429  11.812  12.670 -1.1371 -0.3734 -0.5692
   99MOL0     C13271  10.392  11.733  12.802  0.3158  0.4007  0.3922
   99MOL0     C13272  10.509  11.731  12.910  0.1289  0.1191 -0.5000
   99MOL0     C13273  10.614  11.620  12.860  0.2200 -0.2592 -0.3808
   99MOL0    Cl13274  10.517  11.466  12.893  0.2128  0.4293 -0.2736
   99MOL0     C13275   9.985  12.142  12.163 -0.2801  0.2155  0.6117
   99MOL0     C13276   9.942  12.224  12.059 -0.4171 -0.6200  0.7826
   99MOL0     O13277  10.047  12.341  11.804 -0.7905  0.1046 -0.4996
   99MOL0     C13278   9.973  12.471  11.578 -0.0488  0.1904  0.1595
   99MOL0     C13279   9.935  12.546  11.470 -0.5288 -0.5864  0.2945
   99MOL0     N13280   9.727  12.801  10.791  1.0811  0.2797 -0.4957
   99MOL0     N13281   9.785  12.814  10.678 -0.0306  0.1959  0.2451
   99MOL0     C13282  10.251  11.714  10.564 -0.0245 -0.3834  0.1447
   99MOL0     C13283  10.260  11.574  10.579 -0.3385  0.1495  0.9190
   99MOL0     C13284  10.499  11.161  10.643 -0.2091 -0.4220  0.2952
   99MOL0     C13285  10.398  11.101  10.719  0.2124 -0.9006  0.2393
   99MOL0     C13286  10.396  10.962  10.745  0.8457 -0.1879 -0.3332
   99MOL0     C13287  10.503  10.879  10.703  0.3274  0.4514  0.2133
   99MOL0     O13288  10.505  10.745  10.730  0.0345  0.0502  0.1429
   99MOL0     C13289  10.410  10.686  10.813  0.1053 -0.5803 -0.5067
   99MOL0     C13290  10.470  10.566  10.868 -0.1023  0.0973  0.0770
   99MOL0     C13291  10.492  10.456  10.766  0.2562  0.6075  0.5054
   99MOL0     C13292  10.548  10.329  10.831 -0.0318  0.1058  0.1370
   99MOL0     C13293  10.437  10.253  10.895 -0.0111 -0.6623  0.8745
   99MOL0     C13294  10.361  10.201  10.966  0.1475  0.2058 -0.1679
   99MOL0     C13295  10.598  10.938  10.632 -0.3793  0.5181 -0.1526
   99MOL0     C13296  10.601  11.074  10.598 -0.1570 -0.7610 -0.6530
   99MOL0     C13297  10.733  11.108  10.520  0.2725 -0.4047 -1.1219
   99MOL0     H13298  10.584  11.569  10.659 -0.7037 -0.8808  0.9556
   99MOL0     H13299  10.571  11.799  10.609  1.4510 -2.6792  1.2608
   99MOL0     H13300  10.519  12.008  10.642  0.1911  0.4659 -1.0191
   99MOL0     H13301  10.513  12.044  10.469  2.9658  1.4839  1.1538
   99MOL0     H13302  10.465  12.242  10.651 -1.6210  3.3849 -1.7651
   99MOL0     H13303  10.318  12.155  10.674 -2.7267 -0.0006 -1.7714
   99MOL0     H13304  10.285  12.157  10.419  1.2727 -0.2188 -1.0320
   99MOL0     H13305  10.419  12.279  10.410  0.5615  0.6376  0.6129
   99MOL0     H13306  10.144  12.286  10.549 -0.4299  0.3944 -0.1966
   99MOL0     H13307  10.270  12.395  10.587  0.8892 -0.7857  0.3432
   99MOL0     H13308  10.276  12.466  10.342  0.5902  2.2936  1.4690
   99MOL0     H13309  10.134  12.366  10.322  1.2258 -3.4788  2.2907
   99MOL0     H13310  10.190  12.634  10.472 -1.4319  1.7343  0.1038
   99MOL0     H13311  10.079  12.607  10.331  1.5129  1.0109 -0.1704
   99MOL0     H13312  10.048  12.528  10.617 -1.6432 -3.2193 -0.9291
   99MOL0     H13313   9.918  12.505  10.501  0.9369 -1.6851  1.0731
   99MOL0     H13314  10.070  12.756  10.586  0.6029 -2.8859  0.8216
   99MOL0     H13315   9.946  12.765  10.467  1.3681 -1.9169 -1.2008
   99MOL0     H13316   9.976  12.602  10.838 -1.6697 -0.7897  0.1877
   99MOL0     H13317   9.818  12.611  11.048 -2.4345 -2.7670 -2.5569
   99MOL0     H13318   9.823  12.783  11.073  2.5482 -1.3350 -0.7325
   99MOL0     H13319   9.587  12.779  11.049  6.1936  1.7833 -2.0763
   99MOL0     H13320   9.592  12.623  10.953  1.0096 -0.0605 -1.5032
   99MOL0     H13321   9.639  12.482  11.156 -0.4186 -0.3367 -2.1401
   99MOL0     H13322   9.490  12.563  11.163 -0.3037 -1.3418  1.3576
   99MOL0     H13323   9.566  12.630  11.374 -0.2253  0.4319  0.1248
   99MOL0     H13324   9.627  12.767  11.279  2.4442  1.2673  1.0992
   99MOL0     H13325   9.611  12.447  11.436 -1.0274 -0.8292 -0.7019
   99MOL0     H13326   9.686  12.320  11.663  0.9924 -0.4816  0.4110
   99MOL0     H13327   9.801  11.983  11.869  3.7930  1.8207 -2.8084
   99MOL0     H13328   9.850  11.847  12.058  0.7778 -0.6547  2.5537
   99MOL0     H13329  10.138  12.021  12.330  0.7559 -0.7581  1.4478
   99MOL0     H13330  10.019  12.045  12.457 -0.5481  0.1989  0.2118
   99MOL0     H13331  10.025  11.799  12.500 -0.1304  3.0121  0.5192
   99MOL0     H13332  10.153  11.782  12.375 -3.0360  2.1976 -3.1998
   99MOL0     H13333  10.235  11.993  12.553 -1.6614  0.0162  2.1871
   99MOL0     H13334  10.154  11.877  12.652  0.8265  3.9735  0.4387
   99MOL0     H13335  10.380  11.828  12.458  0.2767  0.4304  0.2245
   99MOL0     H13336  10.295  11.693  12.533 -3.5917  1.4721  1.7959
   99MOL0     H13337  10.439  11.919  12.688 -0.9987 -0.6478  1.1984
   99MOL0     H13338  10.527  11.769  12.646 -0.8075 -2.2006  3.2804
   99MOL0     H13339  10.318  11.797  12.852 -0.6497  1.2524 -1.9600
   99MOL0     H13340  10.357  11.632  12.779 -0.5299  0.7606  0.0578
   99MOL0     H13341  10.464  11.717  13.009  2.0754  0.6635  0.5247
   99MOL0     H13342  10.564  11.825  12.918  2.2570 -0.9790 -1.4211
   99MOL0     H13343  10.626  11.635  12.752 -2.9160 -0.4863 -0.8576
   99MOL0     H13344  10.707  11.623  12.917  0.0248  4.3875  0.1112
   99MOL0     H13345  10.022  12.195  12.250  0.4440 -1.8143  1.5997
   99MOL0     H13346   9.971  12.328  12.067  2.4587 -1.1268 -1.5739
   99MOL0     H13347  10.077  12.460  11.606 -0.8763 -2.9547  2.6492
   99MOL0     H13348  10.012  12.603  11.418  0.3252 -1.2312  0.8363
   99MOL0     H13349  10.153  11.757  10.544 -1.1455 -2.0426  1.7696
   99MOL0     H13350  10.164  11.528  10.558 -1.9296  3.6739 -0.2833
   99MOL0     H13351  10.308  11.160  10.733  0.4409 -0.7470  1.1107
   99MOL0     H13352  10.310  10.931  10.803  0.0793  2.9694  0.4195
   99MOL0     H13353  10.326  10.663  10.746  0.4794  2.1427 -2.1000
   99MOL0     H13354  10.369  10.747  10.894  0.3520 -2.4661  1.0894
   99MOL0     H13355  10.404  10.538  10.950  0.1966 -2.0536 -0.3355
   99MOL0     H13356  10.564  10.603  10.909 -0.0232  0.0285 -0.0396
   99MOL0     H13357  10.545  10.487  10.675 -0.8783 -2.6368 -1.4190
   99MOL0     H13358  10.390  10.431  10.738  1.6087 -2.6782 -2.1571
   99MOL0     H13359  10.589  10.258  10.758 -0.8850 -0.9213  0.6251
   99MOL0     H13360  10.635  10.332  10.897 -0.8028 -4.7956  1.8152
   99MOL0     H13361  10.298  10.144  11.031 -0.7027  0.1258 -1.0360
   99MOL0     H13362  10.673  10.877  10.584 -2.6284 -1.0909 -1.8727
   99MOL0     H13363  10.717  11.185  10.444 -0.3179  2.8707  2.0373
   99MOL0     H13364  10.803  11.156  10.589 -1.4749  2.8307 -1.4106
   99MOL0     H13365  10.783  11.025  10.469  3.9838 -0.6258  2.3305
  100MOL0     O13366   2.747   8.717   6.907  0.1527  0.1003 -0.2143
  100MOL0     C13367   2.774   8.748   7.017 -0.4464 -0.0012 -0.7976
  100MOL0     O13368   2.902   8.760   7.065 -0.7060 -0.1211  0.2944
  100MOL0     C13369   2.998   8.740   6.968  0.3478 -0.7462 -0.5887
  100MOL0     C13370   3.031   8.836   6.868 -1.6680 -0.4534 -0.2594
  100MOL0     C13371   3.151   8.826   6.796  0.1803 -0.0770 -0.0121
  100MOL0     C13372   3.251   8.731   6.823 -0.0060  0.0261  0.0280
  100MOL0     O13373   3.358   8.718   6.744 -0.2706  0.1410 -0.6249
  100MOL0     C13374   3.452   8.628   6.786  1.1591  0.2181  0.6117
  100MOL0     C13375   3.577   8.646   6.708 -0.0532 -0.3390 -0.4586
  100MOL0     C13376   3.580   8.592   6.563 -0.1597 -0.2804  0.1927
  100MOL0     C13377   3.699   8.627   6.471 -0.3290 -0.1894  0.1466
  100MOL0     C13378   3.664   8.574   6.325 -0.9764  0.7215  0.2213
  100MOL0     C13379   3.774   8.609   6.217  0.5845 -0.2245 -0.1596
  100MOL0     C13380   3.774   8.527   6.085  0.2104  0.5082 -0.8687
  100MOL0     C13381   3.842   8.589   5.967 -0.2258 -0.0058  0.5249
  100MOL0     N13382   3.989   8.613   5.987  0.0191  0.1511  0.1998
  100MOL0     C13383   4.044   8.736   6.000 -0.1479 -0.8632  0.0405
  100MOL0     C13384   4.175   8.707   6.018  0.4336 -0.7403  0.5754
  100MOL0     C13385   4.272   8.813   6.047 -0.5141  0.1510  0.2893
  100MOL0     C13386   4.359   8.862   5.926 -1.2721  0.6670 -1.2612
  100MOL0     C13387   4.410   8.998   5.946 -0.4900  0.9351 -0.5621
  100MOL0     C13388   4.520   9.011   6.056 -0.6806 -0.0929  0.6598
  100MOL0     O13389   4.555   9.149   6.096 -0.8800  1.0357 -0.6425
  100MOL0     C13390   4.625   9.212   5.999 -0.0522 -0.7571  0.2281
  100MOL0     C13391   4.727   9.150   5.918  0.1295 -0.0658  0.7199
  100MOL0     C13392   4.794   9.226   5.822  0.3878  0.1609 -0.1285
  100MOL0     C13393   4.773   9.361   5.797  0.0449 -0.2159 -0.2519
  100MOL0     C13394   4.843   9.436   5.689 -0.3294  0.6366 -0.5826
  100MOL0     O13395   4.961   9.379   5.660 -0.3647 -0.2613 -0.1623
  100MOL0     C13396   5.075   9.459   5.628  0.0326  0.7232 -0.9465
  100MOL0     C13397   5.192   9.389   5.624 -1.0838 -0.2364  0.8018
  100MOL0     C13398   5.314   9.453   5.601 -0.2672 -0.3309 -0.3892
  100MOL0     C13399   5.323   9.591   5.589 -0.2645 -0.1502  0.6881
  100MOL0     O13400   5.444   9.662   5.563 -0.5518 -0.8938 -0.6093
  100MOL0     C13401   5.532   9.602   5.463  0.2656  0.4209 -0.2819
  100MOL0     C13402   5.653   9.691   5.409  0.7948 -0.2759  0.0062
  100MOL0     C13403   5.767   9.690   5.515 -0.6338  0.2758  0.2709
  100MOL0     C13404   5.890   9.763   5.461 -0.4828  1.2598  0.0116
  100MOL0     C13405   5.998   9.778   5.573  0.2758 -0.3206  0.0090
  100MOL0     C13406   6.074   9.651   5.606  0.1038 -0.1710  0.6009
  100MOL0     C13407   6.082   9.639   5.751  0.5301  0.3450  0.4727
  100MOL0     C13408   6.160   9.511   5.783  0.2652  0.2316 -0.4328
  100MOL0    Cl13409   6.331   9.499   5.716 -0.6316  0.6567  0.3942
  100MOL0     C13410   5.207   9.665   5.602  0.0309 -0.3446  0.1963
  100MOL0     C13411   5.079   9.599   5.619 -0.9084 -0.2960  0.9899
  100MOL0     O13412   4.788   9.526   5.627 -0.4251 -0.3098 -0.5577
  100MOL0     C13413   4.670   9.422   5.873  0.7265 -0.4422  0.4165
  100MOL0     C13414   4.607   9.349   5.971 -0.2540  0.6064 -0.4949
  100MOL0     N13415   4.202   8.578   6.003  0.3224  0.3414  0.5188
  100MOL0     N13416   4.085   8.518   5.986 -0.0142 -0.3893 -0.0554
  100MOL0     C13417   3.224   8.641   6.931  0.4442  0.0547  0.2311
  100MOL0     C13418   3.099   8.649   7.004 -0.4362  0.5137  0.2018
  100MOL0     C13419   2.669   8.792   7.113  0.5951  0.3191 -0.6992
  100MOL0     C13420   2.627   8.925   7.111  0.0620 -0.3060  0.8621
  100MOL0     C13421   2.530   8.975   7.186  0.3162  0.9443 -0.1462
  100MOL0     C13422   2.462   8.887   7.270  0.1283 -0.5430  0.6466
  100MOL0     O13423   2.362   8.938   7.342  1.0872  0.3219  0.4921
  100MOL0     C13424   2.297   8.868   7.442  0.0188  0.0550 -0.5829
  100MOL0     C13425   2.176   8.947   7.505 -0.4403 -0.1123  0.0074
  100MOL0     C13426   2.061   8.981   7.403  0.2938 -0.8144  0.6266
  100MOL0     C13427   2.000   8.872   7.325  0.3415  0.8539 -0.3424
  100MOL0     C13428   1.908   8.925   7.225 -0.1802  0.1774  0.3864
  100MOL0     C13429   1.840   8.988   7.145 -0.5183  0.3053  0.9570
  100MOL0     C13430   2.504   8.752   7.282  0.5409 -0.3086  0.3689
  100MOL0     C13431   2.609   8.707   7.201  0.3111  0.9594  0.5150
  100MOL0     C13432   2.666   8.564   7.208  0.4785  0.3165  0.3348
  100MOL0     H13433   2.956   8.914   6.857 -1.0287  0.1214 -0.6345
  100MOL0     H13434   3.176   8.902   6.723  0.1024  0.9261  0.9748
  100MOL0     H13435   3.471   8.638   6.893  1.9309 -0.7626  0.5848
  100MOL0     H13436   3.414   8.528   6.763 -1.0327 -0.1267  4.7681
  100MOL0     H13437   3.659   8.605   6.768 -1.1332 -1.1601  0.4975
  100MOL0     H13438   3.599   8.753   6.697 -0.5618 -0.4324 -2.9813
  100MOL0     H13439   3.498   8.632   6.502  2.9791  0.3135 -4.0716
  100MOL0     H13440   3.570   8.483   6.571  0.4652 -0.2913  0.9544
  100MOL0     H13441   3.698   8.737   6.472 -0.7310 -0.0412 -3.5585
  100MOL0     H13442   3.791   8.583   6.509  0.3306 -2.5273 -3.7033
  100MOL0     H13443   3.660   8.466   6.336 -2.1067  0.8962  1.9157
  100MOL0     H13444   3.568   8.611   6.287 -0.8647  1.4659  0.6335
  100MOL0     H13445   3.776   8.716   6.196  3.6143  0.5451  3.1060
  100MOL0     H13446   3.871   8.582   6.258  1.4584  1.8637 -0.7045
  100MOL0     H13447   3.669   8.506   6.064 -0.2437  0.1949  1.4119
  100MOL0     H13448   3.823   8.431   6.101  3.0447  2.0670  0.6619
  100MOL0     H13449   3.827   8.531   5.876  1.6624 -1.3491  1.0052
  100MOL0     H13450   3.791   8.686   5.954 -0.0459 -0.1473 -1.7671
  100MOL0     H13451   3.992   8.831   5.991 -1.0219 -1.4338 -1.3121
  100MOL0     H13452   4.219   8.898   6.092 -0.7802 -0.6465  1.5070
  100MOL0     H13453   4.350   8.784   6.118  0.1079  0.9427 -0.0567
  100MOL0     H13454   4.447   8.800   5.908  0.7758  2.9060  0.3968
  100MOL0     H13455   4.291   8.858   5.840 -1.9599  1.4874 -0.7685
  100MOL0     H13456   4.329   9.072   5.955 -0.8296  0.8943 -2.6721
  100MOL0     H13457   4.451   9.031   5.850  3.2157  1.2417  0.9873
  100MOL0     H13458   4.604   8.941   6.048 -0.2268  0.0424  3.3046
  100MOL0     H13459   4.483   8.971   6.150 -0.6036  1.3404  1.3192
  100MOL0     H13460   4.750   9.047   5.941 -3.0051 -1.2095 -0.6323
  100MOL0     H13461   4.858   9.182   5.745 -2.6306 -0.6073 -2.3953
  100MOL0     H13462   5.185   9.281   5.626 -2.3357 -0.2245 -0.7929
  100MOL0     H13463   5.393   9.378   5.606  0.4425  0.4817  2.1595
  100MOL0     H13464   5.578   9.506   5.489 -3.1563 -2.2935 -3.1717
  100MOL0     H13465   5.473   9.576   5.375  0.3729 -1.1574  0.0767
  100MOL0     H13466   5.684   9.653   5.312  2.7110  0.4353  0.2853
  100MOL0     H13467   5.608   9.791   5.402  0.6850 -0.4515 -3.4510
  100MOL0     H13468   5.728   9.732   5.608 -1.2952 -0.2521  0.2417
  100MOL0     H13469   5.795   9.586   5.536 -2.0296 -0.4265 -1.0956
  100MOL0     H13470   5.868   9.862   5.420 -0.0921  0.7597 -1.4559
  100MOL0     H13471   5.939   9.716   5.375  2.2543  0.6594  1.7881
  100MOL0     H13472   5.942   9.812   5.661  0.7282 -0.8143  0.4867
  100MOL0     H13473   6.069   9.857   5.546 -1.1521  3.0604  4.7162
  100MOL0     H13474   6.013   9.578   5.552 -0.9717  0.2045  1.2638
  100MOL0     H13475   6.176   9.648   5.567  0.7566  0.5181  2.1534
  100MOL0     H13476   5.985   9.638   5.803  0.9259  2.2268  1.3178
  100MOL0     H13477   6.137   9.726   5.787  1.4852  0.2145 -0.6245
  100MOL0     H13478   6.168   9.515   5.892 -2.2653  1.2137 -0.2224
  100MOL0     H13479   6.114   9.424   5.737  0.4583  0.8841 -1.9058
  100MOL0     H13480   5.213   9.769   5.573  0.0950 -1.0998 -2.8392
  100MOL0     H13481   4.992   9.663   5.620 -2.1235 -1.7832 -1.1722
  100MOL0     H13482   4.638   9.524   5.853 -1.6520 -1.1653  0.1755
  100MOL0     H13483   4.517   9.388   6.016 -0.8791 -2.3385  1.0980
  100MOL0     H13484   3.288   8.560   6.964  1.2463  0.2757 -0.7378
  100MOL0     H13485   3.079   8.580   7.086 -2.0749 -0.0754 -0.6356
  100MOL0     H13486   2.682   8.985   7.039 -1.3386 -2.7334 -2.5183
  100MOL0     H13487   2.501   9.079   7.175 -3.9974 -0.2137 -1.9971
  100MOL0     H13488   2.369   8.845   7.521  2.7276  0.5882 -2.7656
  100MOL0     H13489   2.256   8.773   7.405  0.0258 -0.3010  0.2734
  100MOL0     H13490   2.204   9.046   7.542  0.6213 -0.3952 -0.0092
  100MOL0     H13491   2.142   8.893   7.594  1.4565 -0.4889  0.5373
  100MOL0     H13492   2.105   9.042   7.324  0.8363  2.0179  2.9445
  100MOL0     H13493   1.984   9.038   7.455  1.1301 -0.7501  1.8436
  100MOL0     H13494   2.075   8.810   7.276 -1.0636 -2.2495  1.1607
  100MOL0     H13495   1.949   8.813   7.402 -0.4044  0.6032 -1.0135
  100MOL0     H13496   1.764   9.035   7.086 -1.9938 -1.8993  0.9887
  100MOL0     H13497   2.461   8.683   7.354  0.2251  0.1525  0.6274
  100MOL0     H13498   2.646   8.510   7.302  1.0450 -2.1224 -0.8431
  100MOL0     H13499   2.627   8.504   7.125 -1.0566  2.1014 -0.3097
  100MOL0     H13500   2.774   8.571   7.190  0.1817  0.1810 -1.7500
  101MOL0     O13501   7.896   6.800  11.153  0.3782 -0.1809  0.5403
  101MOL0     C13502   7.772   6.803  11.130 -0.5637 -0.9415  0.3028
  101MOL0     O13503   7.712   6.794  11.006 -0.3677 -0.1157 -0.0982
  101MOL0     C13504   7.799   6.758  10.898  0.5222 -0.5257 -0.1710
  101MOL0     C13505   7.846   6.628  10.897 -0.0571  0.0610  0.5738
  101MOL0     C13506   7.941   6.570  10.806  0.2531 -0.7261 -0.2104
  101MOL0     C13507   7.980   6.658  10.699  0.4653 -0.1648 -0.2031
  101MOL0     O13508   8.074   6.626  10.606  0.2349 -0.7745  0.0785
  101MOL0     C13509   8.120   6.496  10.588 -0.4258  0.3636  0.1166
  101MOL0     C13510   8.216   6.484  10.464 -0.0384 -1.0848  0.3596
  101MOL0     C13511   8.228   6.336  10.420 -0.3346  0.0087  0.9666
  101MOL0     C13512   8.321   6.247  10.510  0.8887  0.1656  0.1208
  101MOL0     C13513   8.314   6.103  10.464 -0.1106  0.3643 -0.1548
  101MOL0     C13514   8.363   5.998  10.563  0.7843 -0.0807 -0.0613
  101MOL0     C13515   8.328   5.860  10.512  0.0851  0.1446  0.2486
  101MOL0     C13516   8.409   5.762  10.604 -0.0318  0.8838  0.1292
  101MOL0     N13517   8.412   5.625  10.550 -0.0851  0.0704 -0.1027
  101MOL0     C13518   8.484   5.597  10.433  0.5557 -0.4757 -0.4045
  101MOL0     C13519   8.465   5.462  10.415 -0.1367  0.2824 -0.0115
  101MOL0     C13520   8.528   5.360  10.322 -0.5376 -0.2792  0.0151
  101MOL0     C13521   8.425   5.254  10.278 -0.9459 -0.8777 -0.2712
  101MOL0     C13522   8.461   5.116  10.325  0.6699 -0.1046  0.1407
  101MOL0     C13523   8.340   5.015  10.321 -0.0815  0.5256  0.0425
  101MOL0     O13524   8.256   5.012  10.438 -0.4566  0.2200 -0.2730
  101MOL0     C13525   8.134   5.066  10.430 -0.8201  0.0617 -0.2655
  101MOL0     C13526   8.134   5.190  10.497  0.4210 -0.2985  0.1614
  101MOL0     C13527   8.016   5.266  10.496  1.3471  0.5553  0.7777
  101MOL0     C13528   7.904   5.227  10.420 -0.9442  0.0166  0.3491
  101MOL0     C13529   7.780   5.316  10.412 -1.1476  0.6179  0.6820
  101MOL0     O13530   7.660   5.256  10.377  0.0958 -0.7201  1.0037
  101MOL0     C13531   7.554   5.334  10.415  0.9098  0.4147  0.2103
  101MOL0     C13532   7.485   5.317  10.537  0.9984 -0.3039  0.3388
  101MOL0     C13533   7.359   5.378  10.558 -0.6196 -0.8976 -0.3905
  101MOL0     C13534   7.300   5.463  10.457  0.3242  0.8894 -0.0119
  101MOL0     O13535   7.170   5.509  10.476  0.0579 -0.0404 -0.4085
  101MOL0     C13536   7.081   5.455  10.381  0.6876 -0.4047 -0.4846
  101MOL0     C13537   7.097   5.305  10.352  0.1433 -0.5818  0.5506
  101MOL0     C13538   6.993   5.244  10.268  0.5694 -0.0895  0.4177
  101MOL0     C13539   6.986   5.309  10.130  0.5814 -0.3385  1.3234
  101MOL0     C13540   6.942   5.222  10.017  0.5355  0.2780 -0.1474
  101MOL0     C13541   6.809   5.136  10.056 -0.0697 -0.6518  0.1068
  101MOL0     C13542   6.760   5.057   9.943  0.5543 -0.0159 -0.0540
  101MOL0     C13543   6.743   5.133   9.802  1.0675  0.3009 -0.1811
  101MOL0    Cl13544   6.638   5.041   9.691  0.2686  0.4764 -0.3865
  101MOL0     C13545   7.371   5.474  10.333 -0.4973 -0.0817 -1.1878
  101MOL0     C13546   7.499   5.412  10.319 -0.5086 -0.1617  1.2233
  101MOL0     O13547   7.793   5.434  10.438  0.1244  0.5960 -0.5608
  101MOL0     C13548   7.913   5.103  10.355  0.8636 -0.2044 -0.4478
  101MOL0     C13549   8.023   5.019  10.361 -0.3171 -0.6544 -0.1059
  101MOL0     N13550   8.385   5.422  10.518  0.8664  0.4130  1.5460
  101MOL0     N13551   8.346   5.521  10.594 -0.1487  0.1886  0.1499
  101MOL0     C13552   7.927   6.793  10.695 -0.8096  0.3658  0.2977
  101MOL0     C13553   7.833   6.840  10.792  0.2133 -0.1266  0.6642
  101MOL0     C13554   7.683   6.818  11.252 -0.0969 -1.0259  0.3353
  101MOL0     C13555   7.742   6.876  11.367 -0.3482  0.4475 -0.1648
  101MOL0     C13556   7.664   6.904  11.482  0.0488  0.2635  0.1084
  101MOL0     C13557   7.522   6.893  11.490  0.3680  0.6515  1.1446
  101MOL0     O13558   7.449   6.922  11.601  0.3301 -0.6918 -0.8070
  101MOL0     C13559   7.340   6.833  11.630  0.0968 -0.1503 -0.1635
  101MOL0     C13560   7.404   6.701  11.672 -0.2562 -0.3101 -0.4763
  101MOL0     C13561   7.300   6.604  11.754 -0.0843 -0.5149  0.0078
  101MOL0     C13562   7.374   6.540  11.866  0.2497 -0.3290  0.6681
  101MOL0     C13563   7.337   6.631  11.971 -0.2832  1.1098  0.4690
  101MOL0     C13564   7.312   6.692  12.068 -0.4160  0.4052 -1.0528
  101MOL0     C13565   7.470   6.843  11.365  0.6289  0.4232  0.7613
  101MOL0     C13566   7.548   6.804  11.253  0.6833  0.6141 -0.4149
  101MOL0     C13567   7.478   6.739  11.132 -0.4970  0.3589 -0.4486
  101MOL0     H13568   7.806   6.562  10.973 -0.3676  0.0888  0.4396
  101MOL0     H13569   7.973   6.471  10.835 -0.5162 -0.2657  2.5474
  101MOL0     H13570   8.174   6.479  10.681 -3.3130  1.9048  2.2211
  101MOL0     H13571   8.038   6.424  10.587 -0.0375 -0.0848  0.1729
  101MOL0     H13572   8.318   6.516  10.483  0.5504 -1.8195 -1.3673
  101MOL0     H13573   8.171   6.541  10.382  1.1460 -0.5094  0.0881
  101MOL0     H13574   8.260   6.326  10.316 -1.7270  0.3659  0.4801
  101MOL0     H13575   8.124   6.300  10.419 -1.2248  2.2892  2.2138
  101MOL0     H13576   8.425   6.279  10.516  1.8447 -2.2605 -1.7969
  101MOL0     H13577   8.277   6.244  10.610 -1.3519 -0.4864 -0.8166
  101MOL0     H13578   8.210   6.077  10.440 -1.7258  1.8704  4.2483
  101MOL0     H13579   8.368   6.098  10.369 -3.4246 -0.2918 -2.1848
  101MOL0     H13580   8.471   6.009  10.568  0.6642  2.2114 -1.2172
  101MOL0     H13581   8.312   5.998  10.660 -1.0512 -1.9872 -0.9530
  101MOL0     H13582   8.352   5.849  10.407 -1.6659  2.7038 -0.5376
  101MOL0     H13583   8.220   5.840  10.517 -0.0273  0.0302 -1.8143
  101MOL0     H13584   8.514   5.791  10.600 -0.6874  3.3438 -1.9019
  101MOL0     H13585   8.363   5.784  10.701  1.5337  2.2096  0.6151
  101MOL0     H13586   8.553   5.658  10.374  2.2220 -0.0411  1.8869
  101MOL0     H13587   8.574   5.400  10.232 -0.2105  0.9889  0.7166
  101MOL0     H13588   8.610   5.315  10.380  1.1208 -0.1746 -2.1262
  101MOL0     H13589   8.325   5.271  10.318 -1.3974 -0.7844 -1.4066
  101MOL0     H13590   8.417   5.248  10.169 -2.5416 -1.8287 -0.1396
  101MOL0     H13591   8.493   5.117  10.429  0.1595  0.2823  0.2947
  101MOL0     H13592   8.544   5.071  10.269 -0.5030 -1.2475 -0.7458
  101MOL0     H13593   8.377   4.919  10.283  1.0946  0.1418  2.0260
  101MOL0     H13594   8.268   5.045  10.244 -1.5884  2.6168  2.1064
  101MOL0     H13595   8.224   5.230  10.543  2.0321 -2.7383 -0.6838
  101MOL0     H13596   8.014   5.360  10.550 -2.4546 -0.1603  2.1969
  101MOL0     H13597   7.529   5.245  10.606  0.5340 -1.8919 -0.9820
  101MOL0     H13598   7.313   5.375  10.656 -2.5716 -0.5330 -1.2353
  101MOL0     H13599   6.975   5.475  10.403  0.9133  1.3258 -0.8339
  101MOL0     H13600   7.099   5.512  10.289  1.6005  1.6766  0.8959
  101MOL0     H13601   7.198   5.275  10.321  0.3996  0.6349  0.1225
  101MOL0     H13602   7.086   5.257  10.450 -0.7230 -1.0342  0.2353
  101MOL0     H13603   7.025   5.139  10.263 -0.4376 -0.5869  2.9241
  101MOL0     H13604   6.897   5.237  10.320  0.2035 -1.7497 -0.3979
  101MOL0     H13605   7.076   5.358  10.093 -0.6726  1.3340  0.3618
  101MOL0     H13606   6.914   5.391  10.142 -0.5236 -1.4117  2.4285
  101MOL0     H13607   7.028   5.163   9.985  1.6494  2.0912 -0.6328
  101MOL0     H13608   6.917   5.284   9.930 -1.0776 -1.7789 -1.2368
  101MOL0     H13609   6.831   5.057  10.128 -0.7837 -0.3857  0.6390
  101MOL0     H13610   6.729   5.200  10.096 -2.9992 -3.9971  0.1443
  101MOL0     H13611   6.656   5.032   9.967 -0.0265  3.9638  2.5164
  101MOL0     H13612   6.833   4.979   9.923 -1.2634 -1.5740 -0.9107
  101MOL0     H13613   6.692   5.230   9.808 -3.0900 -1.7031  0.1378
  101MOL0     H13614   6.839   5.150   9.752  1.0693  0.8586 -0.0007
  101MOL0     H13615   7.324   5.533  10.255 -2.9011  1.1904  1.0767
  101MOL0     H13616   7.552   5.422  10.224 -3.4351  0.6396 -0.4357
  101MOL0     H13617   7.838   5.075  10.283 -1.1638  1.3546  0.9457
  101MOL0     H13618   8.026   4.922  10.314 -0.3518 -0.2312 -1.0160
  101MOL0     H13619   7.962   6.854  10.613 -0.5344 -0.5885 -0.3054
  101MOL0     H13620   7.800   6.942  10.773  0.4472 -0.6020 -3.0617
  101MOL0     H13621   7.850   6.888  11.368  0.7789 -5.8976  3.1470
  101MOL0     H13622   7.718   6.941  11.568 -2.2477 -2.0595  2.7199
  101MOL0     H13623   7.276   6.822  11.542 -1.5358  2.0617  0.6566
  101MOL0     H13624   7.275   6.881  11.703 -0.6566  2.0283 -2.1720
  101MOL0     H13625   7.486   6.731  11.738  1.0016 -0.7039 -1.8207
  101MOL0     H13626   7.450   6.647  11.589 -1.2528 -2.7258  0.4507
  101MOL0     H13627   7.269   6.522  11.689 -0.2293 -0.1013 -0.4447
  101MOL0     H13628   7.210   6.661  11.780 -0.9532 -1.8823  0.0848
  101MOL0     H13629   7.350   6.435  11.888 -0.3349  0.1719  2.6052
  101MOL0     H13630   7.483   6.537  11.858  0.3039  0.4114  1.0852
  101MOL0     H13631   7.302   6.777  12.133 -1.0691  1.6092 -2.6704
  101MOL0     H13632   7.371   6.800  11.351  0.8030  0.4694 -0.8539
  101MOL0     H13633   7.464   6.802  11.044 -0.9352  1.0793  0.1154
  101MOL0     H13634   7.543   6.656  11.104 -0.8617  0.8519 -3.0390
  101MOL0     H13635   7.380   6.698  11.160 -0.3507  0.4140  0.1590
  102MOL0     O13636  11.380   9.698  11.335 -0.1872  0.6890  0.8955
  102MOL0     C13637  11.375   9.577  11.314 -0.0139  0.2354  0.0074
  102MOL0     O13638  11.387   9.481  11.409  0.2811 -0.0903  0.6276
  102MOL0     C13639  11.326   9.512  11.529 -1.1251  0.0015  0.6644
  102MOL0     C13640  11.198   9.467  11.549  0.1906  0.0713 -0.5595
  102MOL0     C13641  11.123   9.497  11.661 -0.1681 -0.1492 -0.1979
  102MOL0     C13642  11.178   9.573  11.768 -0.1688 -0.4226  0.3235
  102MOL0     O13643  11.121   9.611  11.893 -0.4001 -0.5629 -0.0800
  102MOL0     C13644  10.990   9.567  11.920 -0.6063  0.0298  0.2292
  102MOL0     C13645  10.953   9.599  12.070  0.5759 -0.2738  0.3229
  102MOL0     C13646  11.025   9.507  12.170 -0.0093  1.1737 -0.6906
  102MOL0     C13647  11.015   9.572  12.312 -0.1007 -0.3660 -0.4152
  102MOL0     C13648  11.026   9.486  12.437  0.7380  0.1016 -0.5279
  102MOL0     C13649  10.994   9.560  12.563  0.3138  0.2500  0.0274
  102MOL0     C13650  11.094   9.547  12.679 -0.3967  0.7551 -0.3774
  102MOL0     C13651  11.231   9.612  12.659  0.4170  0.4146  0.6449
  102MOL0     N13652  11.300   9.632  12.790  0.4090  0.7376  0.0596
  102MOL0     C13653  11.310   9.538  12.889  0.4743 -0.7962  0.6252
  102MOL0     C13654  11.361   9.600  13.001 -0.4121 -0.1685 -0.7288
  102MOL0     C13655  11.405   9.529  13.128  1.6429  0.4260  0.4685
  102MOL0     C13656  11.538   9.465  13.123  0.3529 -0.1930  1.0337
  102MOL0     C13657  11.558   9.409  13.266 -0.1783 -0.6578  0.3955
  102MOL0     C13658  11.694   9.349  13.299  0.1765 -0.0641 -1.2682
  102MOL0     O13659  11.695   9.274  13.424 -0.0183  0.0822  0.3215
  102MOL0     C13660  11.819   9.236  13.459  0.3382  0.1093 -0.2955
  102MOL0     C13661  11.915   9.319  13.513 -0.1032 -1.7368 -0.2146
  102MOL0     C13662  12.041   9.287  13.544  0.4826 -0.0204  0.0700
  102MOL0     C13663  12.092   9.154  13.530 -0.0479  0.1954  1.0855
  102MOL0     C13664  12.232   9.110  13.550  0.2556  0.5777  0.4410
  102MOL0     O13665  12.258   8.975  13.581  0.7111  0.3161  0.7926
  102MOL0     C13666  12.387   8.936  13.609  0.5383  0.0166  0.7917
  102MOL0     C13667  12.461   8.990  13.716 -1.6861  0.0053  0.4234
  102MOL0     C13668  12.599   8.943  13.741  0.9183  0.1988  0.3150
  102MOL0     C13669  12.648   8.847  13.660 -0.2911  0.4673 -0.2510
  102MOL0     O13670  12.773   8.791  13.667  0.2803 -0.2766 -0.9071
  102MOL0     C13671  12.878   8.867  13.730 -1.0382 -0.1624 -0.0131
  102MOL0     C13672  13.028   8.844  13.679 -0.5106  0.2878 -0.2086
  102MOL0     C13673  13.129   8.917  13.771  0.6471  0.5633 -0.5245
  102MOL0     C13674  13.248   8.970  13.698  1.2238  0.1048 -0.1801
  102MOL0     C13675  13.326   9.064  13.788  0.2453  0.7957 -0.0351
  102MOL0     C13676  13.456   9.123  13.721  0.7071 -1.2283 -1.2298
  102MOL0     C13677  13.510   9.245  13.813  0.1593  0.4810 -0.0583
  102MOL0     C13678  13.656   9.272  13.801 -0.9505 -0.2463 -0.3497
  102MOL0    Cl13679  13.691   9.427  13.879  0.3603 -0.0238  0.1932
  102MOL0     C13680  12.578   8.793  13.549 -0.1418 -0.2948 -1.0272
  102MOL0     C13681  12.445   8.841  13.528 -0.2202  0.5957  0.8114
  102MOL0     O13682  12.321   9.194  13.539  0.8536 -0.4428  0.3549
  102MOL0     C13683  11.996   9.058  13.486 -0.1772  0.4627  0.2472
  102MOL0     C13684  11.861   9.098  13.443 -0.0567  0.1876  0.3441
  102MOL0     N13685  11.394   9.732  12.957  0.2704  0.5577  0.1189
  102MOL0     N13686  11.359   9.745  12.828 -0.3243 -0.2770 -0.5311
  102MOL0     C13687  11.312   9.608  11.757 -0.3529 -0.7347 -0.3373
  102MOL0     C13688  11.384   9.573  11.643 -0.4464 -1.0924 -0.8336
  102MOL0     C13689  11.353   9.539  11.176  0.2560  0.4927 -0.0581
  102MOL0     C13690  11.305   9.412  11.154 -0.5356 -0.8445 -0.8373
  102MOL0     C13691  11.284   9.364  11.028  0.0957  0.6784 -0.4620
  102MOL0     C13692  11.282   9.452  10.924  0.5322 -0.5010  0.1216
  102MOL0     O13693  11.236   9.405  10.810 -0.3297 -0.3038  0.8274
  102MOL0     C13694  11.234   9.488  10.694 -0.0714  0.4456  0.2224
  102MOL0     C13695  11.109   9.583  10.682 -0.4727  0.4863 -0.7622
  102MOL0     C13696  11.073   9.608  10.539  0.3930  0.4757 -0.8482
  102MOL0     C13697  10.948   9.700  10.531 -0.5184 -0.6967  0.2625
  102MOL0     C13698  10.916   9.715  10.388  0.0741 -0.4584 -0.5248
  102MOL0     C13699  10.891   9.753  10.276  0.8091 -0.0608 -0.7174
  102MOL0     C13700  11.348   9.575  10.940  0.6545 -0.2093 -1.2397
  102MOL0     C13701  11.374   9.624  11.068  0.2664  0.0042 -0.0622
  102MOL0     C13702  11.428   9.768  11.078 -0.3551  0.1266  0.2515
  102MOL0     H13703  11.150   9.406  11.474 -0.7116 -0.9867  0.8207
  102MOL0     H13704  11.018   9.473  11.672 -0.3750  0.3766 -0.9291
  102MOL0     H13705  10.923   9.623  11.855 -0.9914  0.7713  1.2324
  102MOL0     H13706  10.982   9.459  11.901  1.8273 -1.0865  4.2465
  102MOL0     H13707  10.845   9.584  12.073  0.4611  0.2179 -0.8831
  102MOL0     H13708  10.975   9.702  12.099 -1.9781  1.0055 -1.8341
  102MOL0     H13709  11.132   9.506  12.149 -0.1135  1.9556 -1.2927
  102MOL0     H13710  10.985   9.406  12.171  2.5067  0.1064  0.4901
  102MOL0     H13711  11.084   9.657  12.320 -1.4477  0.7616 -0.3436
  102MOL0     H13712  10.913   9.609  12.324  1.0861  2.1016  4.2480
  102MOL0     H13713  10.957   9.400  12.436  1.0994 -0.2090 -2.3648
  102MOL0     H13714  11.125   9.440  12.443  1.3506  1.4259 -0.2389
  102MOL0     H13715  10.991   9.668  12.545  1.0431  0.9261  3.3429
  102MOL0     H13716  10.894   9.529  12.591  0.7602 -0.4417  0.8981
  102MOL0     H13717  11.119   9.448  12.719  0.8624  2.3214  3.1664
  102MOL0     H13718  11.045   9.598  12.763  1.5028  1.8672  0.1158
  102MOL0     H13719  11.297   9.542  12.606  0.7100  0.5032  0.8888
  102MOL0     H13720  11.219   9.705  12.603 -2.7259 -0.3971 -0.2204
  102MOL0     H13721  11.308   9.430  12.883  2.1372 -0.8725  0.8954
  102MOL0     H13722  11.394   9.596  13.214 -3.5967  1.3731 -0.6134
  102MOL0     H13723  11.326   9.453  13.124  1.2356  0.8871 -0.7624
  102MOL0     H13724  11.529   9.392  13.042 -0.9525  0.3371  0.6743
  102MOL0     H13725  11.612   9.539  13.094 -1.8114  2.4819  1.9166
  102MOL0     H13726  11.487   9.325  13.270 -2.0706  0.9067  0.7966
  102MOL0     H13727  11.525   9.477  13.345 -3.8821 -2.7931  0.9346
  102MOL0     H13728  11.767   9.430  13.301  1.1252 -0.8994  0.6840
  102MOL0     H13729  11.718   9.278  13.219  2.0763 -1.4941  0.4586
  102MOL0     H13730  11.910   9.425  13.540  0.8479 -1.7890  0.1849
  102MOL0     H13731  12.099   9.362  13.598 -3.7458  1.3144  3.2859
  102MOL0     H13732  12.427   9.073  13.777  1.3358  0.2394  2.0238
  102MOL0     H13733  12.657   8.996  13.816  1.1948  0.1412  0.1405
  102MOL0     H13734  12.868   8.976  13.723  1.5870  0.2914  1.6619
  102MOL0     H13735  12.878   8.850  13.838  0.1821  1.7415  0.3430
  102MOL0     H13736  13.059   8.740  13.667  0.1663  0.4577  0.0049
  102MOL0     H13737  13.042   8.872  13.574  0.6656 -0.3452 -0.2423
  102MOL0     H13738  13.070   8.998  13.815  1.5313  0.3312  1.2162
  102MOL0     H13739  13.154   8.848  13.852  0.6089  0.4893 -0.5754
  102MOL0     H13740  13.214   9.031  13.614 -0.0952 -0.1134  0.1797
  102MOL0     H13741  13.307   8.888  13.656 -2.4745 -1.0111 -3.7967
  102MOL0     H13742  13.360   8.997  13.867  1.2763  0.7140 -0.5323
  102MOL0     H13743  13.271   9.150  13.827 -0.7616  1.1534 -2.1124
  102MOL0     H13744  13.544   9.058  13.720  1.5126 -0.2391  0.7000
  102MOL0     H13745  13.442   9.162  13.620  0.8663  3.4157  0.3079
  102MOL0     H13746  13.485   9.234  13.919  2.8666  0.0604  0.6069
  102MOL0     H13747  13.461   9.340  13.790 -1.2847 -0.2562 -0.1130
  102MOL0     H13748  13.710   9.192  13.851  1.4617  2.0923  1.0662
  102MOL0     H13749  13.686   9.291  13.697 -3.3660  0.8891 -0.9171
  102MOL0     H13750  12.633   8.730  13.480  0.9520  0.3040 -0.7460
  102MOL0     H13751  12.391   8.796  13.445 -1.0309 -0.1674  1.7296
  102MOL0     H13752  12.027   8.956  13.466  0.4465  0.7984 -0.5896
  102MOL0     H13753  11.802   9.026  13.387  1.0486 -0.8378  0.4572
  102MOL0     H13754  11.363   9.664  11.835  0.4870 -1.7830 -0.1181
  102MOL0     H13755  11.483   9.613  11.627 -0.6116  1.1832  2.7225
  102MOL0     H13756  11.294   9.352  11.244 -0.2037  2.8878  1.9871
  102MOL0     H13757  11.240   9.266  11.009 -3.5171  2.5434 -3.2148
  102MOL0     H13758  11.213   9.411  10.618 -2.7144 -0.5368  1.8125
  102MOL0     H13759  11.327   9.539  10.669  2.0761 -3.6299 -1.0353
  102MOL0     H13760  11.135   9.671  10.742  2.8742  0.4823 -1.9842
  102MOL0     H13761  11.026   9.526  10.723  1.5107 -0.6998  1.9405
  102MOL0     H13762  11.043   9.511  10.500  0.8831 -0.1153  0.2155
  102MOL0     H13763  11.152   9.654  10.480  0.0729 -0.2236 -1.8416
  102MOL0     H13764  10.858   9.660  10.578 -2.6782  4.5745  1.3140
  102MOL0     H13765  10.966   9.798  10.577 -0.1042 -0.2613 -0.7937
  102MOL0     H13766  10.861   9.792  10.181  3.2093  0.0528 -1.4740
  102MOL0     H13767  11.373   9.648  10.863  3.8448 -1.8936 -1.9747
  102MOL0     H13768  11.364   9.839  11.130  1.1962  0.2357  2.1223
  102MOL0     H13769  11.521   9.766  11.135 -0.5144 -0.6655  0.4997
  102MOL0     H13770  11.444   9.804  10.976 -1.8825  1.1064  0.3244
  103MOL0     O13771   4.727   4.055   9.691 -0.0819 -0.4773  0.5390
  103MOL0     C13772   4.760   4.029   9.805 -0.6925 -0.4588  0.3257
  103MOL0     O13773   4.690   3.963   9.895 -0.5233  0.1527  0.6895
  103MOL0     C13774   4.556   3.947   9.881  0.0588 -0.2897 -0.5343
  103MOL0     C13775   4.502   3.832   9.953  1.0417  0.1550  0.7135
  103MOL0     C13776   4.358   3.800   9.944 -0.0480  0.0571  0.0429
  103MOL0     C13777   4.280   3.899   9.886  0.3089  0.1396  1.1348
  103MOL0     O13778   4.144   3.873   9.881  0.0472  0.1890 -0.0637
  103MOL0     C13779   4.050   3.980   9.906 -0.1000 -0.2862  0.0385
  103MOL0     C13780   3.914   3.922   9.891 -0.1806 -0.2881  0.2811
  103MOL0     C13781   3.897   3.823   9.771  0.1954  0.4294 -0.2262
  103MOL0     C13782   3.923   3.884   9.633 -0.4693 -1.0222 -0.5251
  103MOL0     C13783   3.802   3.945   9.571  0.6905 -0.5603 -0.4602
  103MOL0     C13784   3.842   4.009   9.434 -0.2747 -0.0216 -0.4443
  103MOL0     C13785   3.945   3.937   9.347 -0.0824 -0.4127 -0.0090
  103MOL0     C13786   3.971   4.006   9.211 -1.0282 -0.8683  0.4092
  103MOL0     N13787   4.040   4.138   9.224  0.0791 -0.2636  0.1250
  103MOL0     C13788   4.101   4.179   9.339 -0.0025 -0.5023  0.7052
  103MOL0     C13789   4.151   4.306   9.314 -0.1989 -0.5412  0.6029
  103MOL0     C13790   4.227   4.403   9.399 -0.0451  0.5503  0.2148
  103MOL0     C13791   4.385   4.393   9.394 -0.6353 -0.0031 -0.1119
  103MOL0     C13792   4.450   4.484   9.500  0.7674  0.7357  1.0285
  103MOL0     C13793   4.607   4.458   9.484 -0.5533 -0.7194  0.2636
  103MOL0     O13794   4.699   4.525   9.573 -0.1897 -0.6357  0.6743
  103MOL0     C13795   4.834   4.513   9.557 -1.1779  0.0458 -0.4741
  103MOL0     C13796   4.916   4.604   9.631 -0.9699 -1.3580 -0.0805
  103MOL0     C13797   5.056   4.594   9.634 -0.7237  0.9150 -0.7552
  103MOL0     C13798   5.129   4.494   9.560  0.4001  0.1841 -0.5114
  103MOL0     C13799   5.281   4.490   9.550  0.4602 -0.0446 -0.1887
  103MOL0     O13800   5.338   4.545   9.669  0.1837 -0.0894 -0.3823
  103MOL0     C13801   5.469   4.518   9.695  0.2886 -0.4733  0.1907
  103MOL0     C13802   5.491   4.466   9.824 -0.4118 -0.6443  0.7424
  103MOL0     C13803   5.623   4.440   9.872  0.4661  0.1610  0.6302
  103MOL0     C13804   5.727   4.468   9.788 -1.0015  0.1672  0.2993
  103MOL0     O13805   5.844   4.440   9.849 -0.2969 -0.2850 -0.0906
  103MOL0     C13806   5.956   4.385   9.778 -0.4525  0.5287  1.3902
  103MOL0     C13807   6.085   4.406   9.863 -0.3181  0.5595 -0.5533
  103MOL0     C13808   6.194   4.322   9.803 -0.2876  0.2458 -0.0624
  103MOL0     C13809   6.324   4.377   9.848 -0.6201 -0.0414 -0.3795
  103MOL0     C13810   6.459   4.305   9.796  0.4608 -0.8370  0.8640
  103MOL0     C13811   6.462   4.309   9.637 -0.1860  0.4218 -0.3389
  103MOL0     C13812   6.597   4.240   9.608 -0.4327 -0.4546  0.6825
  103MOL0     C13813   6.626   4.240   9.455  0.6184 -0.1737 -0.6951
  103MOL0    Cl13814   6.641   4.399   9.393 -0.4366 -0.4757  0.1179
  103MOL0     C13815   5.706   4.508   9.650  0.7731  0.2045 -0.7626
  103MOL0     C13816   5.571   4.522   9.607 -0.4166 -0.0734  0.0874
  103MOL0     O13817   5.344   4.408   9.472  0.0069 -0.3282 -0.4966
  103MOL0     C13818   5.047   4.406   9.491 -0.3968 -0.6625  0.3271
  103MOL0     C13819   4.907   4.409   9.490 -0.0248 -1.1137 -1.2935
  103MOL0     N13820   4.120   4.334   9.180  0.4347  0.7592 -0.0634
  103MOL0     N13821   4.048   4.237   9.125 -0.1847  0.4534 -0.5884
  103MOL0     C13822   4.332   4.006   9.813  0.7865 -0.5867 -0.2671
  103MOL0     C13823   4.466   4.029   9.806  0.3965  0.7845  0.0948
  103MOL0     C13824   4.885   4.089   9.853 -0.3053 -0.7824  0.0534
  103MOL0     C13825   4.905   4.223   9.834  0.1206 -0.1191  0.6661
  103MOL0     C13826   4.991   4.300   9.910 -0.7437  0.8177 -0.2663
  103MOL0     C13827   5.070   4.235  10.005  0.1789  0.4309  0.2451
  103MOL0     O13828   5.156   4.290  10.097 -0.1721  0.5781  0.3172
  103MOL0     C13829   5.168   4.432  10.091  0.5009 -0.6364 -0.5071
  103MOL0     C13830   5.263   4.482  10.204 -0.7812  0.6412 -0.0206
  103MOL0     C13831   5.233   4.635  10.222 -0.5732  0.8171  0.0892
  103MOL0     C13832   5.274   4.694  10.355 -0.3073  1.0381  0.1294
  103MOL0     C13833   5.422   4.673  10.370 -0.3835 -0.0878  0.0222
  103MOL0     C13834   5.546   4.667  10.373  0.0033 -0.1578 -0.9620
  103MOL0     C13835   5.055   4.096  10.021  0.1036 -0.7309  1.0007
  103MOL0     C13836   4.976   4.023   9.940  0.0637  0.9978  0.3892
  103MOL0     C13837   4.990   3.874   9.945  0.4787  0.0634 -0.5406
  103MOL0     H13838   4.562   3.765  10.015  0.8289  0.9067  1.7700
  103MOL0     H13839   4.333   3.702   9.982  2.6945 -0.3213  1.1267
  103MOL0     H13840   4.077   4.019  10.005 -0.3742 -0.0835  0.0347
  103MOL0     H13841   4.063   4.065   9.839  4.9108  1.6071  2.8322
  103MOL0     H13842   3.846   4.003   9.864 -1.2518 -1.4617 -0.6291
  103MOL0     H13843   3.892   3.865   9.982  0.4297 -0.1075  0.5491
  103MOL0     H13844   3.794   3.788   9.775  1.1518 -2.7064  0.5664
  103MOL0     H13845   3.960   3.733   9.767 -0.6991 -0.2219 -0.0968
  103MOL0     H13846   4.002   3.957   9.644 -0.2530 -1.3550  0.1740
  103MOL0     H13847   3.962   3.813   9.559  0.4416  1.2380 -2.3024
  103MOL0     H13848   3.725   3.870   9.550  2.3374 -1.8245 -2.2026
  103MOL0     H13849   3.760   4.017   9.642  1.7650 -0.9773  0.6298
  103MOL0     H13850   3.750   4.005   9.375 -0.1735 -0.4209 -0.5753
  103MOL0     H13851   3.867   4.115   9.449  3.4390 -0.5299 -1.9375
  103MOL0     H13852   3.895   3.842   9.328 -4.9360  1.5892  1.0029
  103MOL0     H13853   4.041   3.916   9.395  0.1100 -0.3965 -0.3809
  103MOL0     H13854   4.041   3.961   9.139  1.5288  3.0042  0.2033
  103MOL0     H13855   3.874   4.015   9.160 -1.7153 -1.6730  1.5353
  103MOL0     H13856   4.117   4.115   9.426 -1.2078 -1.4208  0.2937
  103MOL0     H13857   4.199   4.501   9.358  0.4000  0.3146 -0.6996
  103MOL0     H13858   4.191   4.387   9.501 -1.0133  0.2059 -0.1700
  103MOL0     H13859   4.411   4.289   9.416  1.2788 -0.0186 -2.0602
  103MOL0     H13860   4.421   4.405   9.292  3.5497  0.7424  1.2463
  103MOL0     H13861   4.413   4.463   9.600  0.4225  1.9143  1.1674
  103MOL0     H13862   4.414   4.585   9.479  2.2642  0.9165 -0.9912
  103MOL0     H13863   4.630   4.483   9.380 -1.2536 -0.1746  0.2270
  103MOL0     H13864   4.613   4.349   9.491 -1.2926 -0.7096  1.4916
  103MOL0     H13865   4.878   4.671   9.706  2.4534 -0.3569  0.9562
  103MOL0     H13866   5.104   4.667   9.698  0.3422 -0.1451 -0.3142
  103MOL0     H13867   5.396   4.434   9.865 -1.5112 -0.5237 -1.5648
  103MOL0     H13868   5.618   4.388   9.967 -2.6192  0.1876  0.5867
  103MOL0     H13869   5.939   4.277   9.769  1.8254  0.2027  0.2480
  103MOL0     H13870   5.975   4.415   9.674  0.3847 -0.3830  1.2675
  103MOL0     H13871   6.109   4.512   9.872 -0.7874  0.4987  3.0606
  103MOL0     H13872   6.071   4.377   9.968 -0.0220 -2.3546 -1.2111
  103MOL0     H13873   6.193   4.217   9.835  1.5262  0.7818  2.0148
  103MOL0     H13874   6.194   4.343   9.696  0.1793 -0.3425 -0.1862
  103MOL0     H13875   6.334   4.367   9.957  2.0739 -0.2422 -0.5771
  103MOL0     H13876   6.334   4.484   9.827 -1.5287  0.2451  0.5618
  103MOL0     H13877   6.460   4.203   9.834  0.5284 -0.7746  1.0315
  103MOL0     H13878   6.535   4.370   9.841 -0.4729  1.5179 -0.7497
  103MOL0     H13879   6.378   4.246   9.607  0.1755 -1.6036  2.4770
  103MOL0     H13880   6.459   4.412   9.599  2.2119 -0.0839 -2.1213
  103MOL0     H13881   6.605   4.142   9.654 -3.2835 -0.7119  0.8049
  103MOL0     H13882   6.675   4.297   9.660  1.0200 -0.2862 -1.5409
  103MOL0     H13883   6.723   4.196   9.429  1.1114  0.0677  0.6295
  103MOL0     H13884   6.544   4.193   9.401  2.7996 -1.3958 -3.1774
  103MOL0     H13885   5.787   4.522   9.579  1.2749 -2.5674 -0.8732
  103MOL0     H13886   5.548   4.551   9.505  0.3610  1.7902  0.3944
  103MOL0     H13887   5.098   4.333   9.429 -0.7123  0.1574 -0.9387
  103MOL0     H13888   4.857   4.340   9.424  0.1154 -0.8853 -1.6394
  103MOL0     H13889   4.253   4.074   9.781  0.6615  0.8837  2.8733
  103MOL0     H13890   4.505   4.119   9.759 -2.7738  0.9905 -2.4654
  103MOL0     H13891   4.834   4.278   9.774  1.4883  0.8174 -0.1699
  103MOL0     H13892   4.995   4.408   9.901  2.0864  0.8971  0.7928
  103MOL0     H13893   5.068   4.472  10.109  0.9382  0.8286 -1.1980
  103MOL0     H13894   5.194   4.473   9.993  1.7215  1.1553  0.5031
  103MOL0     H13895   5.367   4.454  10.183 -1.2692 -0.4472 -1.0732
  103MOL0     H13896   5.235   4.425  10.293  1.3127  2.3262  1.8438
  103MOL0     H13897   5.132   4.660  10.191 -2.1362 -2.1117  2.2720
  103MOL0     H13898   5.301   4.675  10.147  0.7527 -0.9874  0.2597
  103MOL0     H13899   5.262   4.800  10.375 -0.7093  0.5735  2.8054
  103MOL0     H13900   5.209   4.657  10.435 -2.2434  2.4515 -0.7130
  103MOL0     H13901   5.653   4.666  10.374  0.0473  1.7451  0.0985
  103MOL0     H13902   5.105   4.050  10.105  0.4421 -0.9516  0.6795
  103MOL0     H13903   4.911   3.819   9.996 -0.0200  1.7142  0.5397
  103MOL0     H13904   4.993   3.822   9.849 -0.3166 -4.2768  1.5234
  103MOL0     H13905   5.090   3.849   9.982  1.2832 -0.3780 -2.8055
  104MOL0     O13906   5.784   8.411   6.284  0.0323  0.5264  0.4026
  104MOL0     C13907   5.909   8.419   6.303  0.7648  0.0287  0.0534
  104MOL0     O13908   5.980   8.538   6.303 -0.2261  1.0012  0.9604
  104MOL0     C13909   5.917   8.653   6.325 -0.5473  0.0046  0.0968
  104MOL0     C13910   5.982   8.765   6.270 -0.0635 -0.1765 -0.3306
  104MOL0     C13911   5.947   8.896   6.300 -0.2554 -1.1589 -0.1330
  104MOL0     C13912   5.845   8.917   6.400 -0.4235  0.7066 -0.2212
  104MOL0     O13913   5.812   9.035   6.452  1.0574 -0.2195 -0.5393
  104MOL0     C13914   5.843   9.150   6.377  0.0784 -0.5792  0.0526
  104MOL0     C13915   5.743   9.250   6.443  0.0465 -0.5315  0.2045
  104MOL0     C13916   5.755   9.396   6.379  0.1955  0.6001  0.1749
  104MOL0     C13917   5.629   9.469   6.374  1.2817  1.0015 -0.1668
  104MOL0     C13918   5.641   9.599   6.301 -1.2112  0.4994 -0.1548
  104MOL0     C13919   5.515   9.689   6.316 -0.2667  0.2186  0.3347
  104MOL0     C13920   5.393   9.634   6.242 -0.0247 -0.0080 -0.1055
  104MOL0     C13921   5.287   9.749   6.235  0.1492  0.0487  0.6192
  104MOL0     N13922   5.239   9.783   6.368 -0.5525 -0.6454  0.7954
  104MOL0     C13923   5.142   9.708   6.436 -0.1217  1.0536  0.1354
  104MOL0     C13924   5.100   9.775   6.546 -1.0545  0.7785 -0.3856
  104MOL0     C13925   4.987   9.730   6.636  1.0482  0.3685  0.3528
  104MOL0     C13926   4.933   9.843   6.715  0.0599 -0.4406  0.0590
  104MOL0     C13927   4.812   9.810   6.807 -0.4831  0.6695  0.3576
  104MOL0     C13928   4.849   9.845   6.956 -0.6713 -0.7473 -1.1883
  104MOL0     O13929   4.894   9.982   6.965  0.1541 -0.6947  0.1553
  104MOL0     C13930   4.905  10.046   7.085  0.3397  0.2267 -0.5110
  104MOL0     C13931   4.886  10.183   7.089  0.4094 -0.1963 -0.2663
  104MOL0     C13932   4.885  10.258   7.213 -0.6780 -0.0280  0.1286
  104MOL0     C13933   4.925  10.192   7.327 -0.5837 -0.9048  0.3096
  104MOL0     C13934   4.949  10.265   7.448  0.1871  0.1306 -1.2602
  104MOL0     O13935   4.870  10.227   7.549  0.2110  0.2367 -0.0971
  104MOL0     C13936   4.884  10.281   7.679 -0.9422 -0.7006  0.0737
  104MOL0     C13937   4.772  10.299   7.762  0.5366  0.0244 -0.1735
  104MOL0     C13938   4.783  10.351   7.895  0.7463 -0.2971 -0.7756
  104MOL0     C13939   4.910  10.391   7.951  0.0822  1.1064  0.2271
  104MOL0     O13940   4.936  10.445   8.078 -0.3326 -0.0419  0.6837
  104MOL0     C13941   4.822  10.497   8.156 -0.1111  0.2511  0.7071
  104MOL0     C13942   4.893  10.574   8.262 -0.2117 -0.0094 -0.3357
  104MOL0     C13943   4.947  10.711   8.200  0.5846  0.2866  1.1051
  104MOL0     C13944   5.033  10.776   8.303  0.8281 -0.0421 -1.0756
  104MOL0     C13945   5.128  10.874   8.240  1.2267  0.5073  0.6317
  104MOL0     C13946   5.201  10.943   8.355 -0.0190  0.7489  0.0290
  104MOL0     C13947   5.274  11.047   8.276  0.0040 -0.2210  0.0149
  104MOL0     C13948   5.393  11.108   8.353  0.4074  0.9082  0.3121
  104MOL0    Cl13949   5.480  11.226   8.241 -0.3943  0.3294 -0.1358
  104MOL0     C13950   5.018  10.379   7.866  0.2857  0.7720  0.3459
  104MOL0     C13951   5.011  10.305   7.740  0.0791 -1.3567 -0.2954
  104MOL0     O13952   5.035  10.347   7.452  0.0103  0.5156  0.3004
  104MOL0     C13953   4.949  10.055   7.320  0.3788  0.2661  0.0185
  104MOL0     C13954   4.926   9.981   7.203 -0.2741 -0.0849  0.7431
  104MOL0     N13955   5.191   9.871   6.558  0.1574 -0.0212  0.5419
  104MOL0     N13956   5.275   9.882   6.453 -0.4746 -0.8018 -0.8143
  104MOL0     C13957   5.777   8.800   6.450  1.0993 -0.5850  0.6838
  104MOL0     C13958   5.810   8.672   6.421 -1.0787  0.2685 -0.2141
  104MOL0     C13959   5.987   8.293   6.302 -0.4983  0.9094  0.6654
  104MOL0     C13960   5.910   8.176   6.295 -0.0515  0.9301 -0.0311
  104MOL0     C13961   5.974   8.044   6.274 -0.8817  0.4222  0.3396
  104MOL0     C13962   6.114   8.045   6.265  0.3583  0.3526  0.9206
  104MOL0     O13963   6.185   7.929   6.234 -0.8789 -0.1278  0.5524
  104MOL0     C13964   6.150   7.798   6.262  0.4424 -0.5867  0.4713
  104MOL0     C13965   6.270   7.711   6.248  0.3885  0.4181 -0.3931
  104MOL0     C13966   6.354   7.695   6.379 -0.1531 -0.4249  0.4768
  104MOL0     C13967   6.338   7.559   6.439  0.1896 -0.1936 -0.2684
  104MOL0     C13968   6.208   7.554   6.500  0.3761  0.4242 -0.2487
  104MOL0     C13969   6.097   7.543   6.546 -0.2545  0.2327 -0.6278
  104MOL0     C13970   6.188   8.156   6.281 -0.2946  0.1333 -0.9716
  104MOL0     C13971   6.128   8.284   6.293  0.0890  1.2549 -0.4477
  104MOL0     C13972   6.218   8.403   6.303  0.5686  0.0654  0.8170
  104MOL0     H13973   6.064   8.733   6.207 -1.2532 -2.2406 -0.9419
  104MOL0     H13974   5.997   8.979   6.251  0.5212 -1.7299 -0.3216
  104MOL0     H13975   5.943   9.191   6.396  0.3865 -0.6735 -1.2540
  104MOL0     H13976   5.830   9.145   6.269  0.5268  2.2597 -0.2067
  104MOL0     H13977   5.775   9.279   6.544 -0.9324 -2.3659  1.0931
  104MOL0     H13978   5.640   9.215   6.442 -0.1093 -0.0758 -1.0149
  104MOL0     H13979   5.808   9.386   6.284 -0.6760 -2.7699 -0.1089
  104MOL0     H13980   5.821   9.455   6.443  0.8069 -1.7124  1.8276
  104MOL0     H13981   5.568   9.402   6.314  1.8028  1.3195 -1.0755
  104MOL0     H13982   5.601   9.493   6.477 -0.7121  0.0676 -0.4542
  104MOL0     H13983   5.724   9.655   6.344 -0.8847  1.9994 -2.5326
  104MOL0     H13984   5.658   9.569   6.197 -0.3691 -1.0231  0.3938
  104MOL0     H13985   5.479   9.703   6.418 -1.8345 -0.6892 -0.0529
  104MOL0     H13986   5.541   9.787   6.276 -0.6292  0.9805  1.9164
  104MOL0     H13987   5.345   9.544   6.282 -1.7005  0.2164 -1.4741
  104MOL0     H13988   5.412   9.634   6.134  1.5184  1.5478  0.1189
  104MOL0     H13989   5.341   9.830   6.186  2.7743 -1.4810  0.8245
  104MOL0     H13990   5.208   9.720   6.164  1.7506 -0.8538 -0.8549
  104MOL0     H13991   5.101   9.612   6.409  0.1572  1.4561 -1.8512
  104MOL0     H13992   4.908   9.697   6.568  1.8416  2.7621 -1.8933
  104MOL0     H13993   5.009   9.639   6.692 -3.5596 -2.1560 -1.4223
  104MOL0     H13994   5.017   9.888   6.768  1.1573 -1.2242 -0.9809
  104MOL0     H13995   4.901   9.920   6.644 -0.4807 -1.3915 -0.7603
  104MOL0     H13996   4.772   9.709   6.791  1.5480  0.3205 -4.0076
  104MOL0     H13997   4.737   9.883   6.775  1.3834  3.2725  1.5476
  104MOL0     H13998   4.935   9.785   6.989  0.6858  0.5834 -2.1871
  104MOL0     H13999   4.768   9.819   7.024  0.7768  0.7141  1.2515
  104MOL0     H14000   4.880  10.235   6.993 -0.0434 -0.8225 -0.5827
  104MOL0     H14001   4.875  10.366   7.203  1.6207  0.0359 -2.6338
  104MOL0     H14002   4.670  10.285   7.726  1.7522 -0.5031 -3.7881
  104MOL0     H14003   4.696  10.364   7.960  1.3271 -1.9452  0.3839
  104MOL0     H14004   4.756  10.558   8.094  0.5058  0.1820 -0.0358
  104MOL0     H14005   4.751  10.426   8.200 -0.8542  1.8100  2.1227
  104MOL0     H14006   4.820  10.586   8.343  1.3889  0.2844  1.1299
  104MOL0     H14007   4.975  10.515   8.304  1.4013 -0.0449 -3.2488
  104MOL0     H14008   5.010  10.692   8.113 -1.3622 -0.1026 -0.2897
  104MOL0     H14009   4.874  10.781   8.157 -0.5876 -1.3596  0.2918
  104MOL0     H14010   5.098  10.693   8.335  1.0159  0.4195 -0.2346
  104MOL0     H14011   4.968  10.812   8.383  1.4803  2.3401 -1.5446
  104MOL0     H14012   5.073  10.947   8.181 -1.3774 -1.0287  0.9851
  104MOL0     H14013   5.200  10.836   8.168  2.0375  3.4501 -0.2079
  104MOL0     H14014   5.130  10.998   8.418  1.2849  3.2903 -0.5963
  104MOL0     H14015   5.269  10.880   8.413  0.0659  0.3177 -0.5386
  104MOL0     H14016   5.208  11.130   8.251  0.0682  0.0409  0.7098
  104MOL0     H14017   5.323  11.011   8.185 -1.6136 -1.1116 -0.5595
  104MOL0     H14018   5.341  11.143   8.443 -0.5460 -1.1383  0.6112
  104MOL0     H14019   5.459  11.028   8.385 -2.3802 -2.7530 -2.2802
  104MOL0     H14020   5.109  10.412   7.914 -0.8900  4.0374  0.5570
  104MOL0     H14021   5.101  10.271   7.689  1.4901 -0.8929  1.7647
  104MOL0     H14022   4.962  10.001   7.413 -1.3392  1.3210  0.9285
  104MOL0     H14023   4.934   9.873   7.204 -0.1814 -0.1137 -0.8417
  104MOL0     H14024   5.705   8.834   6.524  3.2347  2.1064  1.6952
  104MOL0     H14025   5.755   8.594   6.473  1.7639  0.6199  3.7610
  104MOL0     H14026   5.804   8.182   6.319 -0.2874 -1.3470 -0.2313
  104MOL0     H14027   5.920   7.952   6.259  0.4147 -0.2421 -0.3897
  104MOL0     H14028   6.074   7.784   6.184 -0.5485 -1.1912  1.5011
  104MOL0     H14029   6.100   7.787   6.359 -1.3046  0.2295 -0.2840
  104MOL0     H14030   6.327   7.755   6.166  2.0700  0.3251  0.6711
  104MOL0     H14031   6.235   7.614   6.211  4.8824 -1.9137  0.6860
  104MOL0     H14032   6.331   7.778   6.446  2.0780 -0.1979  1.0647
  104MOL0     H14033   6.457   7.706   6.341 -0.8164  1.3586 -0.9888
  104MOL0     H14034   6.347   7.484   6.361  1.8736  0.9353 -1.2273
  104MOL0     H14035   6.417   7.556   6.515 -0.7832  0.1350  0.7736
  104MOL0     H14036   6.001   7.552   6.591  0.6789  3.6669  0.9689
  104MOL0     H14037   6.293   8.135   6.270 -0.3410 -1.4719  0.9821
  104MOL0     H14038   6.321   8.382   6.272  0.1924  0.4749 -0.7984
  104MOL0     H14039   6.190   8.473   6.224  1.4782 -0.1754  0.2684
  104MOL0     H14040   6.221   8.449   6.402  2.9191 -0.2140  0.9312
  105MOL0     O14041   6.808   5.661   0.736  0.3939  0.3861  0.1335
  105MOL0     C14042   6.754   5.767   0.722 -0.7528 -0.9277 -0.3314
  105MOL0     O14043   6.669   5.800   0.612  0.3463 -0.3043 -0.3165
  105MOL0     C14044   6.598   5.686   0.566 -0.0456 -0.5337 -0.3062
  105MOL0     C14045   6.471   5.655   0.618 -0.2622  0.5205 -0.1071
  105MOL0     C14046   6.398   5.556   0.568 -0.1009 -0.4053 -0.1601
  105MOL0     C14047   6.454   5.466   0.482  0.1938  0.2624  0.5267
  105MOL0     O14048   6.392   5.350   0.440 -0.4722  0.3493 -0.4870
  105MOL0     C14049   6.261   5.311   0.487 -0.1849 -0.8421 -0.2733
  105MOL0     C14050   6.243   5.167   0.447 -0.4552  1.0558  0.5793
  105MOL0     C14051   6.102   5.118   0.476  0.7858  0.7864  0.2695
  105MOL0     C14052   6.075   4.974   0.426  0.0395  0.6754 -0.1574
  105MOL0     C14053   5.945   4.914   0.477  0.3532 -0.0041  1.1202
  105MOL0     C14054   5.818   5.001   0.447 -0.7556 -0.4222  0.4990
  105MOL0     C14055   5.697   4.916   0.494  0.1338 -0.0804  0.0822
  105MOL0     C14056   5.687   4.929   0.647 -0.1100  0.0753  0.0928
  105MOL0     N14057   5.632   4.797   0.707 -0.5733 -0.3645  0.2804
  105MOL0     C14058   5.619   4.787   0.839 -0.5013  0.4480 -0.2027
  105MOL0     C14059   5.543   4.676   0.864 -0.5406  0.1070  0.6845
  105MOL0     C14060   5.497   4.606   0.995  0.0287 -0.8038 -0.1895
  105MOL0     C14061   5.358   4.648   1.048  0.1547  0.3641 -0.9066
  105MOL0     C14062   5.251   4.602   0.957 -0.2474 -0.5732 -0.5358
  105MOL0     C14063   5.123   4.637   1.025  0.0738 -0.3557  0.7208
  105MOL0     O14064   5.107   4.775   1.043  0.3572 -0.6350  0.1569
  105MOL0     C14065   5.071   4.820   1.170 -0.0529  0.0401  0.7046
  105MOL0     C14066   5.021   4.740   1.282  0.5322  0.3517  0.2821
  105MOL0     C14067   4.948   4.804   1.385 -0.6557 -0.6804  0.5516
  105MOL0     C14068   4.945   4.950   1.396  0.3848  1.1714  0.8144
  105MOL0     C14069   4.881   5.012   1.513 -0.9055  0.5819 -0.1023
  105MOL0     O14070   4.891   5.151   1.510  0.3132  0.2112  0.6465
  105MOL0     C14071   4.802   5.225   1.593 -0.5666 -0.5839 -0.2200
  105MOL0     C14072   4.806   5.204   1.725  0.9612 -0.6260 -0.1449
  105MOL0     C14073   4.705   5.256   1.809  0.3520  0.3393  1.0211
  105MOL0     C14074   4.616   5.353   1.765  0.8714  0.4317  0.5133
  105MOL0     O14075   4.520   5.405   1.842 -0.1479 -0.8430 -0.0578
  105MOL0     C14076   4.572   5.473   1.954  1.3820 -0.3559 -0.1779
  105MOL0     C14077   4.496   5.455   2.087 -0.1787  0.3405 -0.5075
  105MOL0     C14078   4.583   5.489   2.217  0.1265  0.6826  0.3670
  105MOL0     C14079   4.567   5.640   2.244  0.4576 -0.1957 -0.1842
  105MOL0     C14080   4.604   5.677   2.397  0.2572  1.0776  0.2268
  105MOL0     C14081   4.540   5.803   2.431 -0.3134 -0.1213 -0.4742
  105MOL0     C14082   4.574   5.864   2.575  0.2704 -0.2403  0.1752
  105MOL0     C14083   4.476   5.960   2.637 -0.8557 -0.1779 -0.0608
  105MOL0    Cl14084   4.550   5.993   2.792  0.2932 -0.4356  0.3921
  105MOL0     C14085   4.630   5.388   1.634 -0.1688  0.8639 -0.0988
  105MOL0     C14086   4.715   5.304   1.543  0.1282 -1.0204 -0.3744
  105MOL0     O14087   4.829   4.937   1.595 -0.2890  0.0973 -0.0927
  105MOL0     C14088   5.000   5.021   1.289  0.2498 -0.6100  0.2444
  105MOL0     C14089   5.069   4.961   1.185 -0.3799  0.6862 -0.1042
  105MOL0     N14090   5.513   4.624   0.737  0.4620  0.7526 -0.2474
  105MOL0     N14091   5.570   4.696   0.646  0.1236 -0.3858  0.5401
  105MOL0     C14092   6.581   5.492   0.431  0.2228  0.2688  0.5322
  105MOL0     C14093   6.651   5.596   0.480  0.8807 -1.8641  0.0874
  105MOL0     C14094   6.796   5.872   0.821  0.0961 -0.2599 -0.4026
  105MOL0     C14095   6.844   5.833   0.951  0.4433 -0.1715  0.6427
  105MOL0     C14096   6.882   5.919   1.053  0.2362 -0.6365  0.3099
  105MOL0     C14097   6.867   6.059   1.034 -0.7218 -0.5850  0.0630
  105MOL0     O14098   6.881   6.163   1.125  0.7686  0.0445 -0.5227
  105MOL0     C14099   6.934   6.128   1.258  0.0764 -0.9455  0.5362
  105MOL0     C14100   6.829   6.077   1.364  0.7426  0.7267 -0.5626
  105MOL0     C14101   6.746   6.194   1.422  0.4996  0.3032 -0.2903
  105MOL0     C14102   6.676   6.135   1.548 -1.2869  0.1537  0.3673
  105MOL0     C14103   6.560   6.217   1.584 -0.2534 -0.0552  0.2257
  105MOL0     C14104   6.460   6.281   1.609 -0.1543  1.3484  0.5060
  105MOL0     C14105   6.827   6.094   0.903 -1.1817 -0.4188 -1.0491
  105MOL0     C14106   6.782   6.009   0.798  0.2948  0.3064  0.5043
  105MOL0     C14107   6.746   6.072   0.660  0.3396  0.5325 -0.1282
  105MOL0     H14108   6.427   5.723   0.690 -1.4811 -0.3734  0.0284
  105MOL0     H14109   6.294   5.536   0.594  0.5419 -1.7722  1.4895
  105MOL0     H14110   6.250   5.322   0.595 -1.5269 -0.4510 -0.4282
  105MOL0     H14111   6.189   5.379   0.440  2.1222  2.3204  0.4706
  105MOL0     H14112   6.316   5.106   0.501  1.3394  0.6100 -2.1160
  105MOL0     H14113   6.247   5.154   0.338  1.0118  3.6627  0.2445
  105MOL0     H14114   6.032   5.196   0.444  3.5599  2.2541 -2.7573
  105MOL0     H14115   6.096   5.102   0.584 -2.0576 -1.5370 -0.1022
  105MOL0     H14116   6.063   4.978   0.318 -1.4079 -0.5536 -0.0879
  105MOL0     H14117   6.151   4.902   0.456  0.2859  0.4252 -1.3425
  105MOL0     H14118   5.944   4.813   0.434  4.5844  1.2762 -2.7576
  105MOL0     H14119   5.943   4.900   0.586  0.0878 -2.0359  0.9010
  105MOL0     H14120   5.823   5.092   0.508  1.4355 -1.9378  2.7905
  105MOL0     H14121   5.806   5.018   0.340 -1.7620  0.3373  0.7184
  105MOL0     H14122   5.697   4.816   0.450  2.5782 -0.2985  0.4573
  105MOL0     H14123   5.610   4.965   0.449  2.0669  1.4728 -2.2790
  105MOL0     H14124   5.779   4.965   0.694  0.1873 -1.7404  1.0050
  105MOL0     H14125   5.612   5.009   0.649 -1.3983 -0.9465 -2.6620
  105MOL0     H14126   5.674   4.837   0.918  2.6407  0.6998 -2.3393
  105MOL0     H14127   5.501   4.497   0.988  2.1620 -0.9683  2.0441
  105MOL0     H14128   5.567   4.637   1.074 -0.0007  3.5523 -1.5930
  105MOL0     H14129   5.346   4.611   1.151 -1.3660  2.1000 -0.4023
  105MOL0     H14130   5.346   4.756   1.063 -1.0236  0.5056 -2.6800
  105MOL0     H14131   5.262   4.501   0.917 -0.6584 -0.9633  0.3142
  105MOL0     H14132   5.249   4.674   0.874 -1.4631 -0.4323 -0.4059
  105MOL0     H14133   5.125   4.579   1.118  0.2306 -1.8300 -0.1652
  105MOL0     H14134   5.043   4.591   0.967 -0.5497  1.2971  0.2260
  105MOL0     H14135   5.023   4.632   1.286  1.4544  0.2651 -1.4179
  105MOL0     H14136   4.908   4.734   1.458 -1.5736 -1.2414 -0.4763
  105MOL0     H14137   4.874   5.138   1.778 -2.1642 -3.3012  0.8840
  105MOL0     H14138   4.690   5.224   1.912 -2.3773  2.5405  1.4485
  105MOL0     H14139   4.672   5.435   1.977  1.3692  0.5776  1.6190
  105MOL0     H14140   4.581   5.581   1.945 -1.9565  0.1571  1.0676
  105MOL0     H14141   4.403   5.513   2.092 -0.9656 -0.9303  0.2470
  105MOL0     H14142   4.467   5.350   2.101  1.9630 -0.1301  0.7826
  105MOL0     H14143   4.543   5.421   2.292 -4.2181  0.9991 -1.3863
  105MOL0     H14144   4.680   5.444   2.196 -0.1643 -0.9534  2.2125
  105MOL0     H14145   4.465   5.678   2.234  0.5838  2.2302  4.7921
  105MOL0     H14146   4.634   5.702   2.183 -0.0529 -0.3932 -0.9593
  105MOL0     H14147   4.713   5.678   2.401  0.5725 -4.1582  0.0301
  105MOL0     H14148   4.551   5.600   2.454  1.9966  1.9573  3.2606
  105MOL0     H14149   4.572   5.881   2.361 -4.3264  0.5237 -1.8194
  105MOL0     H14150   4.434   5.779   2.425 -0.5451 -0.1098  2.4123
  105MOL0     H14151   4.670   5.916   2.568 -0.6133  1.5975  1.1359
  105MOL0     H14152   4.582   5.784   2.650  1.9913 -0.0874  0.2055
  105MOL0     H14153   4.463   6.050   2.575  2.3766 -0.9338 -2.0761
  105MOL0     H14154   4.386   5.899   2.652  0.0953 -1.7933 -0.7427
  105MOL0     H14155   4.563   5.459   1.587  1.4031  1.4415 -1.6134
  105MOL0     H14156   4.716   5.306   1.434  0.7578 -0.8026 -0.3672
  105MOL0     H14157   4.993   5.129   1.283  1.7353 -0.5282 -0.6217
  105MOL0     H14158   5.122   5.030   1.119  1.6137  0.2511  0.9591
  105MOL0     H14159   6.617   5.416   0.362 -1.6008 -2.1124  2.0222
  105MOL0     H14160   6.750   5.612   0.439 -0.5003 -0.5405 -3.1046
  105MOL0     H14161   6.853   5.727   0.976  0.0348  0.7792  6.1449
  105MOL0     H14162   6.910   5.872   1.147  1.5335  1.9347  1.3029
  105MOL0     H14163   6.971   6.218   1.308 -0.3708 -1.4682  1.8488
  105MOL0     H14164   7.025   6.067   1.250  0.6967 -0.1238  1.1376
  105MOL0     H14165   6.883   6.028   1.446  1.8592  1.5838 -0.7606
  105MOL0     H14166   6.759   6.011   1.311 -2.6316  1.5273  2.4917
  105MOL0     H14167   6.674   6.231   1.350  0.1977 -0.1111 -0.2034
  105MOL0     H14168   6.817   6.275   1.446 -0.1976  1.6868 -2.6257
  105MOL0     H14169   6.650   6.029   1.555  0.3406 -0.2283  1.1404
  105MOL0     H14170   6.749   6.137   1.629 -0.0134 -1.2922 -0.6823
  105MOL0     H14171   6.372   6.335   1.637 -0.7912  0.4383  0.3024
  105MOL0     H14172   6.826   6.201   0.884  2.5981 -0.0829 -0.1198
  105MOL0     H14173   6.809   6.035   0.578 -0.5537  2.4428 -1.7651
  105MOL0     H14174   6.648   6.031   0.636  0.4219 -1.8603  3.0066
  105MOL0     H14175   6.746   6.181   0.654  0.7454  0.4784 -1.5690
  106MOL0     O14176   6.578   0.775   1.729  0.5757 -0.0274 -0.2596
  106MOL0     C14177   6.573   0.748   1.852 -0.5016  0.0375  0.3861
  106MOL0     O14178   6.686   0.728   1.933  0.0877 -0.4801  0.0074
  106MOL0     C14179   6.810   0.733   1.883 -1.0774 -0.8552 -0.1360
  106MOL0     C14180   6.844   0.662   1.765 -0.0543  0.9101 -0.1039
  106MOL0     C14181   6.974   0.668   1.723  0.6869  0.7388 -0.7593
  106MOL0     C14182   7.077   0.729   1.789 -0.4388 -0.2748  0.0361
  106MOL0     O14183   7.212   0.730   1.742  0.6859 -0.1407 -1.2764
  106MOL0     C14184   7.221   0.799   1.616 -0.2825 -0.9971 -0.5167
  106MOL0     C14185   7.194   0.948   1.628  0.5483 -0.7161  0.6121
  106MOL0     C14186   7.305   1.008   1.717 -0.7594 -0.3010 -0.2720
  106MOL0     C14187   7.245   1.113   1.803  0.6165 -0.4340 -0.1903
  106MOL0     C14188   7.342   1.227   1.846  0.4983  0.3390 -0.5899
  106MOL0     C14189   7.460   1.174   1.926 -0.7610  0.3979 -0.5309
  106MOL0     C14190   7.543   1.294   1.962 -1.0598  0.2856 -0.8776
  106MOL0     C14191   7.668   1.256   2.046 -0.1351 -0.7974  0.1640
  106MOL0     N14192   7.708   1.388   2.104  0.6576 -0.3184  0.3514
  106MOL0     C14193   7.776   1.487   2.046 -0.3818  0.4629  0.2983
  106MOL0     C14194   7.804   1.575   2.153 -0.4354  0.0132  0.3064
  106MOL0     C14195   7.885   1.695   2.131 -0.1446  0.7795  0.4403
  106MOL0     C14196   7.812   1.797   2.037  0.1122  0.4737  0.0366
  106MOL0     C14197   7.894   1.907   1.969  0.2631 -0.0056 -0.1455
  106MOL0     C14198   7.817   1.978   1.871  1.0048 -0.3342 -0.7463
  106MOL0     O14199   7.739   2.084   1.929  0.3307 -0.1193 -0.8321
  106MOL0     C14200   7.786   2.210   1.958 -0.4894 -0.2257 -0.2991
  106MOL0     C14201   7.693   2.285   2.025 -0.0690 -0.2112 -0.1462
  106MOL0     C14202   7.713   2.414   2.073  0.4370  0.2762 -0.0363
  106MOL0     C14203   7.831   2.484   2.054 -1.2536  0.4146 -0.2654
  106MOL0     C14204   7.865   2.611   2.115 -0.7895 -0.2025  0.6947
  106MOL0     O14205   8.000   2.646   2.129 -0.1867  0.0645 -1.5775
  106MOL0     C14206   8.024   2.748   2.221  0.1624  0.2798 -0.5870
  106MOL0     C14207   8.032   2.724   2.365  0.5814 -0.4075  0.1402
  106MOL0     C14208   8.043   2.826   2.458  0.9299  0.0614 -0.2962
  106MOL0     C14209   8.038   2.960   2.413  0.2908 -0.0529  0.3766
  106MOL0     O14210   8.037   3.078   2.486 -0.0513 -0.2558  0.3941
  106MOL0     C14211   7.949   3.076   2.601 -0.0094 -0.0668 -0.5315
  106MOL0     C14212   7.946   3.202   2.685  0.6224  0.8897  0.0184
  106MOL0     C14213   7.838   3.286   2.621 -0.0933  0.7212 -0.0458
  106MOL0     C14214   7.767   3.370   2.728 -0.2435 -0.6390 -0.6632
  106MOL0     C14215   7.668   3.464   2.656  0.2945 -0.4926 -1.2907
  106MOL0     C14216   7.639   3.591   2.750 -0.3784  0.8368  0.6903
  106MOL0     C14217   7.518   3.677   2.714  0.3115  0.2820 -0.7223
  106MOL0     C14218   7.512   3.817   2.783  0.3410 -0.7177 -0.6992
  106MOL0    Cl14219   7.365   3.903   2.710  0.0826 -0.0923  0.0805
  106MOL0     C14220   8.042   2.980   2.270 -0.3577 -0.8458 -0.0324
  106MOL0     C14221   8.031   2.878   2.182  0.5398 -0.5790 -0.2184
  106MOL0     O14222   7.770   2.685   2.141  0.2475  0.0381 -0.4942
  106MOL0     C14223   7.935   2.416   1.979 -0.4943  0.0614 -0.6917
  106MOL0     C14224   7.915   2.275   1.935 -0.3468 -0.4502  0.0640
  106MOL0     N14225   7.752   1.516   2.271 -0.4462  0.6142 -0.3396
  106MOL0     N14226   7.703   1.396   2.240 -0.1197  0.5930 -0.0679
  106MOL0     C14227   7.053   0.804   1.905  0.5134 -0.4632 -0.7870
  106MOL0     C14228   6.915   0.803   1.947 -0.5602 -0.3265  1.0118
  106MOL0     C14229   6.442   0.749   1.931  0.3495 -0.3013  0.0703
  106MOL0     C14230   6.446   0.690   2.058  1.0921 -0.7209  0.0929
  106MOL0     C14231   6.339   0.684   2.138  0.0425  0.1804 -0.1143
  106MOL0     C14232   6.223   0.745   2.100  0.3645  0.4760 -0.3329
  106MOL0     O14233   6.130   0.755   2.197  0.1919  0.2256 -0.4764
  106MOL0     C14234   5.996   0.797   2.159 -1.0888 -0.6673 -0.0546
  106MOL0     C14235   5.902   0.785   2.282  0.1822 -0.1187  0.5977
  106MOL0     C14236   5.754   0.814   2.250  0.5456 -0.9763  0.0588
  106MOL0     C14237   5.667   0.793   2.375  0.0961 -0.4312  0.6066
  106MOL0     C14238   5.715   0.860   2.496 -0.0058 -0.3248  0.8116
  106MOL0     C14239   5.758   0.920   2.591 -0.1996 -0.1104  0.9386
  106MOL0     C14240   6.215   0.799   1.971  1.2409  0.4211 -0.3957
  106MOL0     C14241   6.323   0.801   1.883 -0.2128 -0.1840  0.3763
  106MOL0     C14242   6.302   0.868   1.746  1.0885  0.4749 -0.0755
  106MOL0     H14243   6.771   0.594   1.723  1.8205 -1.8466  0.8774
  106MOL0     H14244   6.990   0.616   1.629  0.0189  1.3602 -1.2318
  106MOL0     H14245   7.325   0.787   1.585  0.1824 -3.1637  1.5457
  106MOL0     H14246   7.163   0.745   1.540 -0.4049  1.1949 -2.0643
  106MOL0     H14247   7.095   0.966   1.670  1.4186  0.0886  2.4296
  106MOL0     H14248   7.204   1.005   1.534 -3.0682  0.1759  0.6047
  106MOL0     H14249   7.389   1.047   1.659  1.7559 -2.4687  1.6410
  106MOL0     H14250   7.360   0.932   1.774 -0.9085 -0.5788 -0.4955
  106MOL0     H14251   7.171   1.158   1.738  0.9905 -0.3025 -0.5285
  106MOL0     H14252   7.186   1.067   1.883  1.4651 -0.5760  0.3711
  106MOL0     H14253   7.390   1.269   1.758  3.2596 -1.1510  0.0925
  106MOL0     H14254   7.289   1.310   1.893 -0.9615 -0.5530 -0.5813
  106MOL0     H14255   7.419   1.111   2.005 -1.8036 -0.6366 -1.8623
  106MOL0     H14256   7.523   1.116   1.858  2.0649  2.5973 -0.0046
  106MOL0     H14257   7.473   1.366   2.006 -2.9615 -1.7647 -0.3752
  106MOL0     H14258   7.578   1.343   1.871  1.6948  2.7281  1.2843
  106MOL0     H14259   7.645   1.184   2.126 -1.9950 -1.5968 -1.0100
  106MOL0     H14260   7.745   1.199   1.993 -0.9088 -0.9770 -0.7982
  106MOL0     H14261   7.805   1.495   1.942 -2.0944  0.8381 -0.1844
  106MOL0     H14262   7.886   1.750   2.225 -4.0861 -0.4896  1.4005
  106MOL0     H14263   7.980   1.649   2.102 -2.3404 -3.1807 -1.2374
  106MOL0     H14264   7.777   1.733   1.956 -2.4412 -1.9285  2.7828
  106MOL0     H14265   7.726   1.829   2.097 -0.8167 -1.9192  0.0959
  106MOL0     H14266   7.975   1.853   1.919 -2.6319 -2.9398 -2.1024
  106MOL0     H14267   7.933   1.981   2.040  0.0767  0.9704 -1.0232
  106MOL0     H14268   7.764   1.903   1.813  3.3044  0.5606 -4.3767
  106MOL0     H14269   7.876   2.031   1.796 -1.6986  1.4970 -1.7124
  106MOL0     H14270   7.592   2.250   2.044 -1.1839  2.7724 -0.1227
  106MOL0     H14271   7.635   2.459   2.133  0.6000  2.8496 -1.6369
  106MOL0     H14272   8.008   2.627   2.406 -1.2968 -0.1692 -0.2893
  106MOL0     H14273   8.040   2.803   2.564  2.0937 -2.2561 -0.6994
  106MOL0     H14274   7.846   3.049   2.575 -0.7598  2.5376 -0.4859
  106MOL0     H14275   7.992   2.994   2.659  2.4912 -0.3924 -2.6520
  106MOL0     H14276   7.914   3.170   2.784 -0.5889  0.7281 -0.4112
  106MOL0     H14277   8.036   3.264   2.681 -0.2506  2.4912  2.7140
  106MOL0     H14278   7.889   3.343   2.543  0.7779  1.5527  1.0996
  106MOL0     H14279   7.750   3.229   2.587 -0.2418  1.1892 -0.4581
  106MOL0     H14280   7.840   3.428   2.785 -1.9760 -0.1338  1.1645
  106MOL0     H14281   7.718   3.304   2.800  0.1586 -0.5658 -0.3143
  106MOL0     H14282   7.576   3.408   2.641 -0.1866  0.6413 -2.7450
  106MOL0     H14283   7.713   3.517   2.571  1.8961  0.4320  0.0384
  106MOL0     H14284   7.652   3.562   2.855  1.1592  0.3400  0.3895
  106MOL0     H14285   7.730   3.648   2.730  0.8878 -0.4940  2.3287
  106MOL0     H14286   7.426   3.618   2.716  0.2466  0.3495 -1.4071
  106MOL0     H14287   7.533   3.709   2.610 -1.8958  4.2594 -0.0348
  106MOL0     H14288   7.503   3.814   2.892 -0.9482 -3.9937 -0.7976
  106MOL0     H14289   7.597   3.877   2.749 -0.2712 -0.6234 -2.1548
  106MOL0     H14290   8.048   3.081   2.232  1.2358 -2.0682 -3.4537
  106MOL0     H14291   8.011   2.899   2.077 -0.6645 -0.2696  0.0553
  106MOL0     H14292   8.028   2.473   1.976 -0.5818  0.2933  0.3649
  106MOL0     H14293   7.982   2.218   1.871  0.6536  0.5199  0.2237
  106MOL0     H14294   7.133   0.856   1.957 -0.5582  1.0405 -0.5638
  106MOL0     H14295   6.890   0.855   2.039 -2.7550 -2.2598  1.5892
  106MOL0     H14296   6.532   0.631   2.089  2.0554 -2.7793 -5.3171
  106MOL0     H14297   6.352   0.644   2.239  2.0403 -1.2079 -0.8509
  106MOL0     H14298   5.960   0.734   2.076  0.5968 -2.6395  0.6166
  106MOL0     H14299   5.989   0.896   2.113  0.4425 -0.5657 -0.1360
  106MOL0     H14300   5.945   0.845   2.363  1.2582 -1.6000  1.1617
  106MOL0     H14301   5.902   0.680   2.313  0.6627 -1.1446 -2.5972
  106MOL0     H14302   5.702   0.755   2.174  0.6677  0.2852 -1.0439
  106MOL0     H14303   5.759   0.917   2.214  2.0450 -0.3743  1.8198
  106MOL0     H14304   5.572   0.842   2.351  2.8396  4.8115 -1.2855
  106MOL0     H14305   5.668   0.684   2.379  1.5400 -0.4155  1.2469
  106MOL0     H14306   5.807   0.989   2.657  2.2071  0.9221 -1.6925
  106MOL0     H14307   6.119   0.843   1.948 -1.8125 -4.2281  1.9515
  106MOL0     H14308   6.284   0.789   1.673 -1.4473  0.2988  0.6415
  106MOL0     H14309   6.211   0.929   1.747  0.3478 -0.5893  1.8434
  106MOL0     H14310   6.387   0.932   1.718  0.9171 -0.7421 -3.9043
  107MOL0     O14311   5.529   1.524   1.189 -0.8423  0.4095  0.0863
  107MOL0     C14312   5.536   1.422   1.123 -0.4967  0.4785 -0.4185
  107MOL0     O14313   5.599   1.306   1.156  0.2054 -0.7383 -0.6660
  107MOL0     C14314   5.666   1.309   1.281  0.7288 -0.8913 -0.5437
  107MOL0     C14315   5.607   1.260   1.394 -0.4098  0.5797 -0.0567
  107MOL0     C14316   5.673   1.264   1.518  0.0921 -0.5404  0.6781
  107MOL0     C14317   5.794   1.333   1.529  1.2118  0.0972  0.5387
  107MOL0     O14318   5.847   1.365   1.651  0.5479 -0.1722  0.0876
  107MOL0     C14319   5.908   1.258   1.718  0.4408  0.4235 -0.7877
  107MOL0     C14320   6.055   1.233   1.695  0.1805 -0.1006 -0.3881
  107MOL0     C14321   6.138   1.360   1.705 -0.9891 -0.3561 -0.5845
  107MOL0     C14322   6.282   1.349   1.678  0.0623 -0.4138  0.1019
  107MOL0     C14323   6.374   1.463   1.728 -0.1554 -0.0074  0.2860
  107MOL0     C14324   6.339   1.603   1.665  0.1583 -0.3935 -0.4517
  107MOL0     C14325   6.431   1.717   1.706 -0.2207  0.1448 -1.0293
  107MOL0     C14326   6.395   1.843   1.633 -0.1080  0.2184 -0.1035
  107MOL0     N14327   6.470   1.947   1.700 -0.2018 -0.2300 -0.4483
  107MOL0     C14328   6.597   1.947   1.760 -0.4637  0.5146 -0.2382
  107MOL0     C14329   6.637   2.077   1.776  0.8514  0.1564 -0.1075
  107MOL0     C14330   6.766   2.122   1.856  0.3165  0.1270  0.4236
  107MOL0     C14331   6.742   2.146   2.004 -0.1739  0.4543  0.2277
  107MOL0     C14332   6.649   2.256   2.041 -0.3139  0.4048  0.0096
  107MOL0     C14333   6.623   2.254   2.190 -0.8262  0.1733 -0.0731
  107MOL0     O14334   6.743   2.300   2.253 -0.1778  0.4561 -0.4275
  107MOL0     C14335   6.784   2.261   2.376 -0.1910  0.0770 -0.1487
  107MOL0     C14336   6.713   2.191   2.472  0.0427 -0.8534  0.3900
  107MOL0     C14337   6.766   2.170   2.605 -0.8575  0.1373  0.6532
  107MOL0     C14338   6.890   2.212   2.642 -0.9363  0.5936 -0.7063
  107MOL0     C14339   6.946   2.186   2.782  0.3965  0.1202  0.3515
  107MOL0     O14340   7.042   2.266   2.835 -0.3769  0.7222 -0.3325
  107MOL0     C14341   7.082   2.232   2.963 -0.0316 -0.2200 -0.0287
  107MOL0     C14342   6.994   2.233   3.074 -0.1922 -0.7256 -0.7022
  107MOL0     C14343   7.042   2.209   3.199  0.2946  0.6627 -0.1819
  107MOL0     C14344   7.175   2.193   3.233 -0.0015  0.1749 -0.4640
  107MOL0     O14345   7.218   2.178   3.364 -0.4558 -0.1148  0.3832
  107MOL0     C14346   7.152   2.266   3.464 -0.1268 -0.2430 -0.1651
  107MOL0     C14347   7.251   2.341   3.558 -0.3154  1.1594 -0.0143
  107MOL0     C14348   7.268   2.258   3.693 -0.4211  0.3950 -0.7526
  107MOL0     C14349   7.313   2.116   3.657  0.2606  0.1309 -0.8595
  107MOL0     C14350   7.363   2.044   3.781  1.0226 -0.9818 -0.7841
  107MOL0     C14351   7.287   1.915   3.816 -0.1505  0.1429 -0.1609
  107MOL0     C14352   7.289   1.817   3.700  0.4046  0.5229  0.5896
  107MOL0     C14353   7.415   1.804   3.617 -0.0348  0.4809 -0.3371
  107MOL0    Cl14354   7.560   1.755   3.721 -0.2256 -0.3264 -0.2658
  107MOL0     C14355   7.258   2.180   3.123 -0.3577 -0.4402 -0.9073
  107MOL0     C14356   7.215   2.203   2.988 -0.9145 -0.1799 -0.2040
  107MOL0     O14357   6.897   2.087   2.830  0.3370  0.0409  0.1063
  107MOL0     C14358   6.969   2.275   2.537  0.3165  0.0613  0.2434
  107MOL0     C14359   6.911   2.306   2.412 -0.2356  1.4624  0.2140
  107MOL0     N14360   6.548   2.158   1.709  0.2299  0.1643 -0.5272
  107MOL0     N14361   6.450   2.075   1.671  0.7637 -0.1653  0.0202
  107MOL0     C14362   5.850   1.391   1.415  0.4652  0.2589 -0.8459
  107MOL0     C14363   5.789   1.380   1.290  0.5922  0.1918  0.7597
  107MOL0     C14364   5.491   1.441   0.989 -0.9555  0.0829 -0.2841
  107MOL0     C14365   5.359   1.473   0.972  0.0613  0.1716 -0.0829
  107MOL0     C14366   5.313   1.501   0.841 -0.4492 -0.2484 -0.4342
  107MOL0     C14367   5.394   1.505   0.730 -0.0323 -0.1701  0.1416
  107MOL0     O14368   5.352   1.529   0.607  0.6801  0.0102 -0.0533
  107MOL0     C14369   5.228   1.598   0.585  0.4637 -0.5131 -0.2945
  107MOL0     C14370   5.248   1.662   0.452  0.0686  0.5059  0.4204
  107MOL0     C14371   5.123   1.753   0.420  0.3647  0.1298 -1.2270
  107MOL0     C14372   5.115   1.811   0.271  0.1791 -0.2713  0.0217
  107MOL0     C14373   5.075   1.714   0.167 -1.1275 -0.1551 -0.5267
  107MOL0     C14374   5.068   1.633   0.072 -0.5773 -0.9399  0.8813
  107MOL0     C14375   5.527   1.489   0.751 -0.5791 -0.0276 -0.4932
  107MOL0     C14376   5.571   1.448   0.876 -0.1368  0.8559 -0.1784
  107MOL0     C14377   5.717   1.413   0.888  0.2460 -0.3996  0.4901
  107MOL0     H14378   5.510   1.215   1.374 -0.8439  1.7558 -0.7249
  107MOL0     H14379   5.636   1.214   1.607  2.1703 -1.1859  1.2438
  107MOL0     H14380   5.892   1.269   1.826  0.2143  0.1041 -0.7885
  107MOL0     H14381   5.855   1.164   1.699 -1.7892  2.0460 -3.3194
  107MOL0     H14382   6.054   1.199   1.591 -1.9579 -0.1999 -0.3847
  107MOL0     H14383   6.092   1.159   1.766 -0.4836  0.2369  0.3139
  107MOL0     H14384   6.115   1.418   1.795 -2.5225 -0.5354 -0.8218
  107MOL0     H14385   6.098   1.423   1.625 -1.2015 -0.6228 -0.6919
  107MOL0     H14386   6.324   1.263   1.731  2.0485 -2.1191 -3.8001
  107MOL0     H14387   6.295   1.338   1.570  0.5307  3.1155 -0.3113
  107MOL0     H14388   6.355   1.475   1.835 -1.0459  0.5237  0.0845
  107MOL0     H14389   6.478   1.437   1.709 -0.1122 -0.8246  1.5628
  107MOL0     H14390   6.343   1.585   1.558  0.9729  3.8255 -1.2880
  107MOL0     H14391   6.240   1.635   1.699  1.1245  0.5926  1.6162
  107MOL0     H14392   6.533   1.684   1.684 -0.8639 -2.0411 -0.9865
  107MOL0     H14393   6.449   1.737   1.813  2.0142 -0.2900 -1.2708
  107MOL0     H14394   6.418   1.845   1.526 -2.1895  3.2371 -0.6196
  107MOL0     H14395   6.287   1.861   1.640  0.0953  0.9039  1.7438
  107MOL0     H14396   6.634   1.860   1.813 -2.7256 -0.5701 -0.2938
  107MOL0     H14397   6.840   2.046   1.827 -1.6250 -1.0471 -1.7145
  107MOL0     H14398   6.802   2.219   1.821 -2.7424  0.6236 -1.7395
  107MOL0     H14399   6.699   2.053   2.042  1.2163  1.0648  3.6307
  107MOL0     H14400   6.839   2.154   2.052 -0.7667  1.9276  1.2677
  107MOL0     H14401   6.558   2.249   1.981 -0.2306 -0.1586 -0.0598
  107MOL0     H14402   6.693   2.350   2.005  0.4783 -0.9008 -2.6498
  107MOL0     H14403   6.589   2.153   2.214  3.6997 -1.6190 -0.2714
  107MOL0     H14404   6.554   2.331   2.227  0.8847  1.1308  1.3274
  107MOL0     H14405   6.625   2.143   2.431  0.1272 -0.1831 -0.6041
  107MOL0     H14406   6.716   2.103   2.674  1.7204 -0.4517  2.0435
  107MOL0     H14407   6.887   2.238   3.059 -0.0372 -2.1463 -2.7342
  107MOL0     H14408   6.967   2.200   3.276 -1.1050 -2.1203 -1.7031
  107MOL0     H14409   7.106   2.353   3.416  1.1024 -0.0463 -1.0432
  107MOL0     H14410   7.074   2.212   3.518  2.0161 -1.7133  1.6241
  107MOL0     H14411   7.349   2.345   3.510  0.4373 -0.7891  1.2632
  107MOL0     H14412   7.215   2.442   3.583  1.1713  1.5570  0.6546
  107MOL0     H14413   7.342   2.306   3.757 -2.0263  1.6005  0.2740
  107MOL0     H14414   7.176   2.265   3.752 -0.3054  2.4144 -0.7470
  107MOL0     H14415   7.390   2.115   3.579 -0.1465 -0.1214 -1.2673
  107MOL0     H14416   7.226   2.063   3.615 -0.2005  0.8482 -0.8259
  107MOL0     H14417   7.363   2.105   3.871 -1.3893 -4.3979  1.7989
  107MOL0     H14418   7.469   2.019   3.767  1.4735  0.2342  0.2950
  107MOL0     H14419   7.332   1.881   3.910 -0.5745 -0.3029 -0.1170
  107MOL0     H14420   7.182   1.943   3.830 -0.2607  1.0841 -2.4655
  107MOL0     H14421   7.196   1.839   3.647 -0.3682 -0.1175  1.6586
  107MOL0     H14422   7.257   1.729   3.755  1.3309  1.0386  2.0145
  107MOL0     H14423   7.397   1.723   3.545  0.1481 -1.2374  1.4808
  107MOL0     H14424   7.433   1.896   3.559 -1.2601 -2.0357 -5.3069
  107MOL0     H14425   7.360   2.144   3.129  0.3569  1.5404 -0.2584
  107MOL0     H14426   7.291   2.196   2.910 -0.8207  1.0746 -0.2477
  107MOL0     H14427   7.072   2.306   2.550  0.4319 -0.9340  1.9763
  107MOL0     H14428   6.960   2.367   2.337 -1.0415  1.1720 -0.5594
  107MOL0     H14429   5.948   1.438   1.418 -0.0751  1.3885 -0.2407
  107MOL0     H14430   5.833   1.421   1.199 -1.8901  3.5118  0.8736
  107MOL0     H14431   5.290   1.472   1.056  2.1253 -0.9485  1.6772
  107MOL0     H14432   5.207   1.521   0.835 -0.2918  2.4166  2.7742
  107MOL0     H14433   5.217   1.679   0.659 -0.4071 -0.9389  0.0516
  107MOL0     H14434   5.140   1.533   0.580 -0.0391  0.2744 -2.8485
  107MOL0     H14435   5.263   1.580   0.382 -1.4425  0.5766 -0.0206
  107MOL0     H14436   5.332   1.732   0.455 -0.5566  1.3535 -0.9917
  107MOL0     H14437   5.128   1.837   0.489  0.0504 -0.5515 -0.3548
  107MOL0     H14438   5.041   1.686   0.446  1.7009 -0.9266  0.5404
  107MOL0     H14439   5.041   1.891   0.275 -1.1308 -1.3535 -1.4982
  107MOL0     H14440   5.211   1.854   0.239  1.4888 -2.9164  0.1157
  107MOL0     H14441   5.054   1.568  -0.012  1.3839 -0.6539  0.2751
  107MOL0     H14442   5.589   1.498   0.663 -1.1801  0.9371 -0.8298
  107MOL0     H14443   5.774   1.458   0.807 -0.9084  0.0737 -0.0826
  107MOL0     H14444   5.762   1.440   0.984 -0.7921 -0.9186  1.1498
  107MOL0     H14445   5.729   1.304   0.893 -2.0526 -0.6762  2.7091
  108MOL0     O14446   0.267   7.686  11.440  0.0623  0.5002  0.4463
  108MOL0     C14447   0.282   7.591  11.515 -0.1491  0.4804 -0.7072
  108MOL0     O14448   0.347   7.593  11.633  0.0999  0.2375 -0.0452
  108MOL0     C14449   0.364   7.719  11.679  0.2500 -0.4797 -0.7737
  108MOL0     C14450   0.490   7.772  11.691 -0.4482  0.6878  0.1003
  108MOL0     C14451   0.507   7.898  11.746 -0.0640  0.3913 -0.6558
  108MOL0     C14452   0.399   7.986  11.772 -0.2052 -0.6988  0.4371
  108MOL0     O14453   0.434   8.106  11.812  0.0003 -0.2483 -0.3485
  108MOL0     C14454   0.335   8.202  11.852  0.1848 -0.5818 -0.1721
  108MOL0     C14455   0.402   8.305  11.944 -0.7230 -0.4503  0.1170
  108MOL0     C14456   0.443   8.249  12.084  0.0715 -0.0089 -0.0485
  108MOL0     C14457   0.512   8.352  12.167  0.5277  0.9742  0.2298
  108MOL0     C14458   0.574   8.285  12.288 -0.3363 -0.6341  0.1134
  108MOL0     C14459   0.488   8.206  12.385 -0.3207  0.0492 -0.7382
  108MOL0     C14460   0.559   8.191  12.521  0.2287  0.4897 -0.2953
  108MOL0     C14461   0.663   8.078  12.528  0.4116 -0.7742 -0.0302
  108MOL0     N14462   0.721   8.065  12.662  0.2645 -1.0170  0.2042
  108MOL0     C14463   0.651   8.048  12.781  0.4570  0.7730  0.5821
  108MOL0     C14464   0.744   8.007  12.870 -0.1099 -0.8642  0.3314
  108MOL0     C14465   0.705   7.949  12.998 -0.2522 -0.4350 -0.1942
  108MOL0     C14466   0.781   7.813  13.029 -0.3346 -0.2083  0.2757
  108MOL0     C14467   0.772   7.779  13.181  0.1290 -0.8572 -0.5809
  108MOL0     C14468   0.622   7.752  13.227 -0.4409  0.1977 -0.3515
  108MOL0     O14469   0.622   7.668  13.347  0.0647 -0.7424  0.4663
  108MOL0     C14470   0.616   7.739  13.470  0.8006 -0.4129 -0.5314
  108MOL0     C14471   0.593   7.656  13.590  0.0785  0.0238  0.6077
  108MOL0     C14472   0.598   7.714  13.720 -0.9077 -0.4035  0.0933
  108MOL0     C14473   0.634   7.850  13.730 -0.2854  0.4952 -0.5936
  108MOL0     C14474   0.648   7.907  13.869  0.3897  0.6232  0.2855
  108MOL0     O14475   0.583   7.844  13.966  0.2408  0.7194 -0.2099
  108MOL0     C14476   0.555   7.918  14.087 -0.9104  0.8666  0.2309
  108MOL0     C14477   0.504   8.045  14.086  0.0384  0.2295  0.8669
  108MOL0     C14478   0.453   8.114  14.183  0.4602  0.0742 -1.7067
  108MOL0     C14479   0.458   8.060  14.317 -0.5457  0.2195  0.0376
  108MOL0     O14480   0.402   8.133  14.417 -0.4532  0.1309  0.9932
  108MOL0     C14481   0.492   8.237  14.461  0.0469  0.4653 -0.8343
  108MOL0     C14482   0.417   8.321  14.574 -0.9136 -0.8287  0.0144
  108MOL0     C14483   0.350   8.237  14.687 -0.2457 -0.0053 -0.0301
  108MOL0     C14484   0.470   8.193  14.777 -0.8754 -0.3941  0.3461
  108MOL0     C14485   0.444   8.072  14.857 -0.8899 -0.0437 -0.1697
  108MOL0     C14486   0.466   7.949  14.780  0.1621  0.5552  0.9535
  108MOL0     C14487   0.466   7.823  14.861 -0.0848 -0.1637 -0.1256
  108MOL0     C14488   0.497   7.701  14.761  0.1755 -0.1418 -0.4282
  108MOL0    Cl14489   0.556   7.556  14.849 -0.0197  0.1887 -0.1570
  108MOL0     C14490   0.528   7.941  14.330 -1.0968 -0.5222 -0.2107
  108MOL0     C14491   0.577   7.866  14.219  0.3299  0.9709  0.2204
  108MOL0     O14492   0.720   8.001  13.883 -0.2197  0.7136 -0.5553
  108MOL0     C14493   0.658   7.926  13.614  0.8980 -0.1427 -0.3612
  108MOL0     C14494   0.644   7.868  13.485 -0.5743 -0.7829 -0.7733
  108MOL0     N14495   0.868   8.012  12.801  0.8742  1.4546 -0.2964
  108MOL0     N14496   0.859   8.056  12.681  0.2292  0.3739  0.2832
  108MOL0     C14497   0.268   7.934  11.761 -0.3991  0.6913 -0.2108
  108MOL0     C14498   0.255   7.798  11.716 -0.3818  0.0476  0.2172
  108MOL0     C14499   0.227   7.456  11.495 -0.2026  0.2754  0.5630
  108MOL0     C14500   0.247   7.346  11.593  0.2110 -0.5790  1.0488
  108MOL0     C14501   0.189   7.223  11.577  0.3500 -0.1870 -0.5409
  108MOL0     C14502   0.116   7.206  11.460  0.0106  0.3606 -0.2190
  108MOL0     O14503   0.076   7.075  11.471  0.5204 -0.0952 -0.1238
  108MOL0     C14504  -0.010   7.015  11.369 -0.1338 -0.4704 -0.2651
  108MOL0     C14505   0.070   6.973  11.242 -0.8466 -0.3824 -0.7126
  108MOL0     C14506  -0.020   6.909  11.127 -0.2249 -0.2976  0.0331
  108MOL0     C14507   0.071   6.886  11.004  0.3929 -0.1528  0.5174
  108MOL0     C14508  -0.003   6.852  10.879  0.1035 -0.1130 -0.8019
  108MOL0     C14509  -0.054   6.824  10.774 -0.0563 -0.7522  0.3720
  108MOL0     C14510   0.100   7.298  11.357  0.1201  0.2151 -0.2522
  108MOL0     C14511   0.153   7.427  11.373  0.1417  0.2005  0.1558
  108MOL0     C14512   0.130   7.518  11.255 -0.3915 -0.6852  0.8961
  108MOL0     H14513   0.572   7.709  11.658 -0.9363 -0.2850  0.7044
  108MOL0     H14514   0.610   7.934  11.745 -0.0260  0.5027  1.5344
  108MOL0     H14515   0.293   8.255  11.766 -1.5984 -1.9860 -0.2365
  108MOL0     H14516   0.262   8.158  11.920  0.1971  0.4093  0.5029
  108MOL0     H14517   0.331   8.387  11.959  0.0489  0.7525 -2.2819
  108MOL0     H14518   0.486   8.355  11.896  1.6410 -2.1572  2.2495
  108MOL0     H14519   0.511   8.165  12.070  1.8184  1.0833  1.4970
  108MOL0     H14520   0.348   8.210  12.123 -0.2265  0.8974  0.1597
  108MOL0     H14521   0.584   8.410  12.109  3.0457 -3.2778 -1.3475
  108MOL0     H14522   0.446   8.428  12.210 -0.7469  0.1459 -0.2046
  108MOL0     H14523   0.649   8.223  12.239 -0.6878  1.4889 -3.4907
  108MOL0     H14524   0.635   8.364  12.332  1.3370 -0.7784 -1.7990
  108MOL0     H14525   0.395   8.261  12.406  1.2438  1.6446  2.6343
  108MOL0     H14526   0.460   8.112  12.337  2.6627 -1.6936  0.6757
  108MOL0     H14527   0.484   8.164  12.595 -1.0030  0.5321 -1.4897
  108MOL0     H14528   0.600   8.288  12.549 -2.5558  1.5797  0.2801
  108MOL0     H14529   0.612   7.983  12.514  2.3092 -1.7816 -0.3683
  108MOL0     H14530   0.744   8.073  12.456 -0.5345 -1.4835 -1.0767
  108MOL0     H14531   0.544   8.047  12.799  0.3974 -1.5890  0.4463
  108MOL0     H14532   0.747   8.022  13.068  0.3843 -0.4152 -0.5889
  108MOL0     H14533   0.598   7.940  13.020 -0.0352  1.1248  1.8815
  108MOL0     H14534   0.738   7.730  12.971  0.5420  1.3344 -2.7585
  108MOL0     H14535   0.888   7.816  13.009  0.3911 -3.2705  2.8496
  108MOL0     H14536   0.826   7.861  13.229 -0.5204 -1.5841  1.4702
  108MOL0     H14537   0.836   7.693  13.203  1.8314  0.1409 -1.4106
  108MOL0     H14538   0.577   7.685  13.154 -2.8829 -0.5088  1.6773
  108MOL0     H14539   0.569   7.848  13.229  0.6295  1.0488 -4.1334
  108MOL0     H14540   0.583   7.552  13.561 -1.8942  1.0696 -3.1832
  108MOL0     H14541   0.596   7.648  13.806 -0.5585 -0.1471  0.3036
  108MOL0     H14542   0.482   8.086  13.988 -0.7942  2.1450  1.7971
  108MOL0     H14543   0.393   8.204  14.175  0.4021  0.3061  0.6260
  108MOL0     H14544   0.587   8.199  14.499  0.1505  1.0030 -0.5474
  108MOL0     H14545   0.512   8.323  14.396 -1.0840  1.4489  0.0722
  108MOL0     H14546   0.495   8.387  14.614  0.0675 -0.5751 -2.1621
  108MOL0     H14547   0.354   8.393  14.522  2.7179  1.8632 -1.0732
  108MOL0     H14548   0.265   8.291  14.730 -1.7408 -1.3628 -1.1467
  108MOL0     H14549   0.301   8.149  14.645 -2.4793 -0.5063  3.2858
  108MOL0     H14550   0.507   8.274  14.840  2.0096  0.2102 -1.8973
  108MOL0     H14551   0.565   8.171  14.728 -0.0815 -2.4824  2.6556
  108MOL0     H14552   0.344   8.070  14.900 -0.7055  1.9834  0.4698
  108MOL0     H14553   0.509   8.077  14.945  1.3129  0.0284 -1.7022
  108MOL0     H14554   0.395   7.951  14.697  0.3374  0.4736  0.7991
  108MOL0     H14555   0.563   7.947  14.729 -0.8120 -0.2932 -0.9583
  108MOL0     H14556   0.365   7.810  14.902  0.1836 -2.1349  0.0053
  108MOL0     H14557   0.531   7.827  14.949  0.5405  1.2318 -0.6207
  108MOL0     H14558   0.429   7.651  14.692  3.2370 -4.1388 -0.9084
  108MOL0     H14559   0.577   7.730  14.692  1.3742  1.0658  1.3677
  108MOL0     H14560   0.526   7.899  14.430  0.5480  0.3373  0.2162
  108MOL0     H14561   0.617   7.768  14.239  1.3393  1.1778 -0.6708
  108MOL0     H14562   0.689   8.030  13.619  1.0641 -0.2525  1.6251
  108MOL0     H14563   0.671   7.943  13.410  1.7913  0.6911  1.3574
  108MOL0     H14564   0.179   7.983  11.799 -1.6755 -1.9447  0.4598
  108MOL0     H14565   0.156   7.753  11.710 -0.0917 -1.0235  2.3969
  108MOL0     H14566   0.310   7.355  11.681  0.1771  1.2647  0.9182
  108MOL0     H14567   0.186   7.152  11.659 -2.5506 -0.4569 -0.7707
  108MOL0     H14568  -0.088   7.089  11.345  0.3625 -0.3757 -1.6793
  108MOL0     H14569  -0.064   6.932  11.416 -2.5000 -0.7805 -3.2313
  108MOL0     H14570   0.144   6.902  11.279  0.6643  1.0790 -0.8376
  108MOL0     H14571   0.128   7.059  11.207  0.3174 -0.3849  1.0812
  108MOL0     H14572  -0.116   6.954  11.101  0.8503  1.3700 -1.2510
  108MOL0     H14573  -0.038   6.804  11.153  1.4158 -0.3470  1.1073
  108MOL0     H14574   0.118   6.982  10.984 -0.0319 -0.2684 -1.1909
  108MOL0     H14575   0.144   6.805  11.011  0.1927 -0.3189  0.6762
  108MOL0     H14576  -0.091   6.788  10.680 -1.3415  2.4045 -0.4451
  108MOL0     H14577   0.047   7.264  11.269 -0.4973 -0.8295  0.5096
  108MOL0     H14578   0.062   7.590  11.301  0.6717  0.6962  0.4105
  108MOL0     H14579   0.218   7.559  11.204 -2.2402  0.1261 -1.8855
  108MOL0     H14580   0.074   7.464  11.178  2.7131 -4.1099  0.7779
  109MOL0     O14581   1.669   5.357   6.029  0.4775  0.5408  0.0318
  109MOL0     C14582   1.748   5.280   5.977  0.2976  0.5883 -0.3285
  109MOL0     O14583   1.831   5.205   6.054 -0.2920  0.3501  0.1577
  109MOL0     C14584   1.818   5.183   6.188 -0.1743  0.2409 -0.3048
  109MOL0     C14585   1.723   5.087   6.238 -1.1112  0.9178  1.0713
  109MOL0     C14586   1.690   5.077   6.365  0.1970 -0.1084  0.7871
  109MOL0     C14587   1.743   5.175   6.456  1.7846 -0.2849 -0.0980
  109MOL0     O14588   1.694   5.166   6.587  0.5301  0.0965 -0.2048
  109MOL0     C14589   1.674   5.288   6.669 -0.1891 -0.3497  0.7436
  109MOL0     C14590   1.737   5.238   6.806 -0.2510  0.1496  0.7657
  109MOL0     C14591   1.626   5.169   6.898 -0.0554 -0.1834  0.1407
  109MOL0     C14592   1.705   5.065   6.987 -1.1850 -0.0576  0.9012
  109MOL0     C14593   1.619   4.960   7.061 -0.7172  0.4742  0.2436
  109MOL0     C14594   1.555   4.865   6.953  1.0189 -1.2362 -0.1408
  109MOL0     C14595   1.659   4.803   6.866 -0.1552 -1.0088  0.3700
  109MOL0     C14596   1.605   4.682   6.773  0.1357  0.0089 -0.2848
  109MOL0     N14597   1.697   4.663   6.663  0.6191 -0.7182  0.0193
  109MOL0     C14598   1.730   4.771   6.575  0.3211  0.0382  0.2407
  109MOL0     C14599   1.832   4.716   6.497  0.1444 -0.4633  0.6329
  109MOL0     C14600   1.933   4.793   6.403  0.6447 -0.0218  0.6833
  109MOL0     C14601   1.904   4.778   6.252  0.5465 -0.3654  0.3681
  109MOL0     C14602   1.944   4.645   6.199  0.8137 -0.1961 -0.2360
  109MOL0     C14603   2.082   4.607   6.209  0.1457  1.1478  0.0659
  109MOL0     O14604   2.175   4.693   6.144  0.9679 -0.2998 -0.0314
  109MOL0     C14605   2.172   4.697   6.004 -0.6597  0.3148 -0.5437
  109MOL0     C14606   2.264   4.634   5.929  0.0718  0.4111 -0.9107
  109MOL0     C14607   2.260   4.627   5.790  0.1716  0.0192  0.2048
  109MOL0     C14608   2.165   4.701   5.719 -0.4800 -1.0509  0.3959
  109MOL0     C14609   2.172   4.720   5.579 -0.1055 -0.2247  0.5453
  109MOL0     O14610   2.266   4.637   5.516 -0.0270  0.4981  0.6437
  109MOL0     C14611   2.291   4.651   5.383 -0.0411  0.0268  0.2274
  109MOL0     C14612   2.419   4.688   5.337 -0.4480 -0.2933  0.0739
  109MOL0     C14613   2.439   4.718   5.198 -0.9563 -0.5911  0.2366
  109MOL0     C14614   2.337   4.695   5.108 -0.1730 -0.1918  0.6900
  109MOL0     O14615   2.367   4.715   4.978 -0.3617 -0.4466  0.1653
  109MOL0     C14616   2.260   4.690   4.883 -0.0527 -0.0747  0.1264
  109MOL0     C14617   2.318   4.725   4.745  0.2314  0.0262 -0.8194
  109MOL0     C14618   2.349   4.885   4.737  0.1437 -0.3535 -0.4025
  109MOL0     C14619   2.391   4.919   4.595  0.2396  0.6126  0.3352
  109MOL0     C14620   2.368   5.068   4.570  0.0284 -0.1435 -0.5963
  109MOL0     C14621   2.422   5.108   4.428  1.1956  1.0098 -0.2940
  109MOL0     C14622   2.332   5.062   4.308  0.6957 -0.5899 -0.0241
  109MOL0     C14623   2.387   5.094   4.171 -0.2348 -0.4233  1.0335
  109MOL0    Cl14624   2.543   5.022   4.121  0.2143 -0.1140 -0.3836
  109MOL0     C14625   2.205   4.663   5.159 -0.8227 -0.3646  0.5919
  109MOL0     C14626   2.188   4.639   5.293 -0.1874 -0.1181 -0.6021
  109MOL0     O14627   2.108   4.811   5.523 -0.1040 -0.4066  0.4584
  109MOL0     C14628   2.072   4.780   5.787 -0.0584 -0.1610 -0.3800
  109MOL0     C14629   2.071   4.759   5.934  0.6486  0.5434  0.2475
  109MOL0     N14630   1.863   4.588   6.546  0.1818 -0.0636  0.4098
  109MOL0     N14631   1.785   4.562   6.649 -0.4555  0.1626  0.8642
  109MOL0     C14632   1.841   5.253   6.415 -0.9401 -0.0357  0.1235
  109MOL0     C14633   1.876   5.263   6.279 -0.2509  0.6022 -0.3275
  109MOL0     C14634   1.734   5.263   5.833 -0.4714 -0.2454 -0.5104
  109MOL0     C14635   1.634   5.338   5.777  0.4834  0.3070  0.1559
  109MOL0     C14636   1.623   5.369   5.639 -0.6385  0.3800 -0.7487
  109MOL0     C14637   1.719   5.324   5.549  0.2424 -0.3120  0.6273
  109MOL0     O14638   1.697   5.360   5.419 -0.1492 -0.3750 -0.2393
  109MOL0     C14639   1.757   5.282   5.310  0.2143 -0.0512  0.3947
  109MOL0     C14640   1.686   5.317   5.177 -0.3031 -0.2591 -0.5751
  109MOL0     C14641   1.565   5.229   5.152  0.3832 -0.3344  0.3824
  109MOL0     C14642   1.549   5.225   5.001  0.4390 -0.5271 -0.1271
  109MOL0     C14643   1.536   5.348   4.938  0.5196 -0.1694  0.2245
  109MOL0     C14644   1.526   5.460   4.884 -0.6957  0.1595  0.6173
  109MOL0     C14645   1.831   5.260   5.597 -0.1575 -0.6352  0.1436
  109MOL0     C14646   1.838   5.220   5.736  1.3129  0.1148 -0.4193
  109MOL0     C14647   1.960   5.132   5.775 -0.2112 -0.5044  0.1908
  109MOL0     H14648   1.677   5.015   6.171 -0.9908  0.8258  1.0854
  109MOL0     H14649   1.624   4.997   6.396 -0.5782 -0.7235 -2.1230
  109MOL0     H14650   1.729   5.370   6.623  1.1792 -2.6727 -2.0707
  109MOL0     H14651   1.568   5.312   6.661 -0.3086 -1.2631 -1.1240
  109MOL0     H14652   1.789   5.316   6.862 -1.2143  0.1242  1.7257
  109MOL0     H14653   1.811   5.164   6.775 -1.2985 -1.0463  0.9931
  109MOL0     H14654   1.554   5.120   6.831  1.8416 -3.4353  0.2351
  109MOL0     H14655   1.576   5.235   6.969  1.8077  0.8416  0.5814
  109MOL0     H14656   1.788   5.026   6.928 -1.3229  1.2248 -0.1840
  109MOL0     H14657   1.753   5.116   7.071  0.4212 -0.2539  0.1281
  109MOL0     H14658   1.677   4.902   7.133 -1.6547  2.3260  2.6701
  109MOL0     H14659   1.539   5.012   7.116 -0.6714  1.5021 -0.6316
  109MOL0     H14660   1.503   4.789   7.011 -0.0919 -0.6341 -0.3204
  109MOL0     H14661   1.476   4.924   6.905 -0.0130  0.0789  2.9149
  109MOL0     H14662   1.745   4.779   6.929  0.8519  4.0356  1.3394
  109MOL0     H14663   1.690   4.884   6.800 -0.1371  1.7623  3.5233
  109MOL0     H14664   1.596   4.587   6.826  3.1296  1.0816  2.5475
  109MOL0     H14665   1.514   4.707   6.718 -0.0836 -0.2587 -0.0414
  109MOL0     H14666   1.684   4.869   6.568  0.4039  0.0288 -0.4502
  109MOL0     H14667   1.915   4.899   6.425 -1.1991 -0.2362  0.3246
  109MOL0     H14668   2.029   4.753   6.438  0.3180 -2.3823 -0.8945
  109MOL0     H14669   1.796   4.788   6.237  0.1655  0.2190  3.1065
  109MOL0     H14670   1.949   4.860   6.195 -0.9741  0.0932 -0.2213
  109MOL0     H14671   1.908   4.636   6.096  2.2082  0.1203 -0.7685
  109MOL0     H14672   1.899   4.569   6.263 -0.8793  1.1213  0.2307
  109MOL0     H14673   2.091   4.502   6.177  2.2950  0.1551  3.3620
  109MOL0     H14674   2.116   4.592   6.312 -0.3991 -0.6848  0.0235
  109MOL0     H14675   2.336   4.579   5.989 -1.8622 -3.6368 -1.9695
  109MOL0     H14676   2.336   4.574   5.734 -0.4034 -2.4447  1.6285
  109MOL0     H14677   2.499   4.691   5.410 -1.9190 -0.0676  1.7245
  109MOL0     H14678   2.538   4.739   5.160 -2.0422  1.7531 -1.5406
  109MOL0     H14679   2.224   4.587   4.888  2.4287 -0.9758  0.5792
  109MOL0     H14680   2.174   4.758   4.888 -0.6935 -0.5497 -2.5809
  109MOL0     H14681   2.405   4.666   4.717  1.1255  2.0390 -2.5840
  109MOL0     H14682   2.242   4.693   4.672  2.2692 -4.0873 -1.3920
  109MOL0     H14683   2.263   4.949   4.759 -0.2585 -0.2957 -2.0431
  109MOL0     H14684   2.416   4.917   4.817 -3.1425  3.5687  1.1214
  109MOL0     H14685   2.335   4.860   4.522  4.6768 -0.1816 -2.8715
  109MOL0     H14686   2.496   4.900   4.571 -0.2814  1.8798 -3.7645
  109MOL0     H14687   2.398   5.123   4.660 -2.0157  0.2029 -0.0925
  109MOL0     H14688   2.261   5.087   4.580 -0.5081 -3.2492  0.2876
  109MOL0     H14689   2.408   5.217   4.424 -1.3928  0.8176  1.3795
  109MOL0     H14690   2.528   5.091   4.406  2.1081  2.6007  2.4087
  109MOL0     H14691   2.238   5.117   4.315  1.9997  1.6492  0.7775
  109MOL0     H14692   2.303   4.956   4.313 -2.1607  0.0774 -0.4258
  109MOL0     H14693   2.318   5.074   4.088  0.5977  1.2129 -0.1059
  109MOL0     H14694   2.409   5.200   4.157  4.4372 -1.2472  0.5236
  109MOL0     H14695   2.113   4.658   5.101 -0.1318 -2.3206 -0.4312
  109MOL0     H14696   2.091   4.597   5.317  0.0883 -0.4313  0.0147
  109MOL0     H14697   2.002   4.851   5.744 -0.5590  0.2561  1.0584
  109MOL0     H14698   2.006   4.833   5.978 -0.8327  0.3477 -1.4466
  109MOL0     H14699   1.888   5.320   6.486  0.3829 -1.7842  0.9707
  109MOL0     H14700   1.945   5.342   6.254 -2.2204  1.9709 -1.7960
  109MOL0     H14701   1.556   5.387   5.836  1.8930  1.2423  1.3197
  109MOL0     H14702   1.536   5.418   5.596  1.5228  0.7983 -5.2178
  109MOL0     H14703   1.752   5.174   5.320  4.3768 -0.4886 -0.4628
  109MOL0     H14704   1.862   5.310   5.309  0.2650 -0.0591 -2.1325
  109MOL0     H14705   1.769   5.294   5.110  1.4168  0.1299  1.3046
  109MOL0     H14706   1.659   5.422   5.170 -1.3157 -0.2933  1.8323
  109MOL0     H14707   1.474   5.268   5.199 -0.8728  0.5226 -2.5207
  109MOL0     H14708   1.592   5.128   5.185  0.3693 -0.0270  1.3556
  109MOL0     H14709   1.635   5.171   4.962  0.0135 -0.1781 -1.5921
  109MOL0     H14710   1.456   5.171   4.979 -1.6346  2.9805 -0.8804
  109MOL0     H14711   1.524   5.563   4.854  1.7837 -0.1090 -0.7028
  109MOL0     H14712   1.909   5.222   5.532  0.1377 -0.6925  0.5281
  109MOL0     H14713   2.005   5.090   5.686 -0.2391  1.0634 -0.5982
  109MOL0     H14714   2.046   5.194   5.804  1.1709 -0.6559 -3.2131
  109MOL0     H14715   1.927   5.055   5.845  1.7263 -3.6265 -2.1030
  110MOL0     O14716   1.489   2.745   5.858 -0.4656  0.3201 -0.4991
  110MOL0     C14717   1.569   2.685   5.780 -0.4185  0.9476 -0.4610
  110MOL0     O14718   1.546   2.665   5.644  0.3457  0.7272  0.5468
  110MOL0     C14719   1.482   2.764   5.574 -0.2990 -0.4958  0.5893
  110MOL0     C14720   1.506   2.904   5.600  0.3543 -0.2482 -0.5053
  110MOL0     C14721   1.426   2.995   5.520  0.2104 -1.0149 -0.7502
  110MOL0     C14722   1.341   2.936   5.426  0.3701 -0.8419  0.9381
  110MOL0     O14723   1.247   3.008   5.355 -0.1566  0.3974  0.6661
  110MOL0     C14724   1.270   3.139   5.296  0.4457 -1.1507  0.2244
  110MOL0     C14725   1.125   3.202   5.301 -0.5793 -0.1037  0.0390
  110MOL0     C14726   1.152   3.354   5.277  0.3122 -0.6277 -0.6069
  110MOL0     C14727   1.022   3.433   5.296  0.9534 -0.0045 -0.0633
  110MOL0     C14728   1.023   3.571   5.236 -0.5235 -0.5537  0.8033
  110MOL0     C14729   0.910   3.670   5.293  0.2198  0.0059  0.8665
  110MOL0     C14730   0.770   3.610   5.283  0.0781  0.1818  0.2167
  110MOL0     C14731   0.666   3.718   5.337 -0.3146 -0.1535  0.1376
  110MOL0     N14732   0.645   3.715   5.476 -0.3442  0.5539 -0.4890
  110MOL0     C14733   0.585   3.619   5.552 -0.4694 -0.3210 -0.3874
  110MOL0     C14734   0.594   3.670   5.681  0.1868  0.5732  0.1291
  110MOL0     C14735   0.551   3.589   5.801 -0.4654  0.1031 -0.2561
  110MOL0     C14736   0.655   3.576   5.917  0.2805 -0.6664 -0.5863
  110MOL0     C14737   0.621   3.443   5.989  0.4649  0.5428  0.1365
  110MOL0     C14738   0.492   3.454   6.081  1.0012 -0.0737 -0.6993
  110MOL0     O14739   0.485   3.325   6.140  0.0530 -0.5763  0.8116
  110MOL0     C14740   0.403   3.316   6.257 -0.7409 -0.1383 -0.1500
  110MOL0     C14741   0.372   3.190   6.293 -0.0620 -0.3945 -1.0531
  110MOL0     C14742   0.296   3.176   6.408  0.7319 -0.2790  0.1747
  110MOL0     C14743   0.240   3.285   6.481 -0.5667  0.4101  0.6458
  110MOL0     C14744   0.157   3.261   6.602  0.4832 -0.7813  0.4123
  110MOL0     O14745   0.125   3.129   6.618  1.3431 -0.2827 -0.1174
  110MOL0     C14746   0.047   3.086   6.727 -0.5657  0.0682  0.8095
  110MOL0     C14747   0.094   3.093   6.856  0.4107 -0.8018 -0.1134
  110MOL0     C14748   0.012   3.056   6.959  0.2490  0.5235 -0.7160
  110MOL0     C14749  -0.116   3.001   6.942  1.1439 -0.4040  0.5025
  110MOL0     O14750  -0.186   2.954   7.050  0.3744 -0.5674  0.0713
  110MOL0     C14751  -0.189   2.818   7.086 -0.8596 -0.4789  0.7702
  110MOL0     C14752  -0.333   2.770   7.125 -0.3536  0.8391 -0.0280
  110MOL0     C14753  -0.327   2.628   7.182 -0.1055 -0.1432  0.0174
  110MOL0     C14754  -0.463   2.557   7.179 -0.0205  0.8699 -0.9144
  110MOL0     C14755  -0.464   2.425   7.252 -0.3134 -0.0867 -0.2993
  110MOL0     C14756  -0.388   2.307   7.178 -0.1857 -0.3920 -0.4212
  110MOL0     C14757  -0.476   2.253   7.067  0.4149 -1.3978 -0.4355
  110MOL0     C14758  -0.612   2.200   7.114 -0.8021 -0.3566  0.1042
  110MOL0    Cl14759  -0.685   2.086   6.998  0.4042 -0.0803  0.1761
  110MOL0     C14760  -0.166   2.996   6.811 -0.2936  0.2465  0.1668
  110MOL0     C14761  -0.079   3.029   6.702  0.0930  0.7511  0.0669
  110MOL0     O14762   0.131   3.355   6.677  0.6023 -0.3323 -0.1453
  110MOL0     C14763   0.272   3.411   6.447  0.5510 -0.9905  0.5121
  110MOL0     C14764   0.353   3.435   6.329  0.1781  0.8093 -0.0434
  110MOL0     N14765   0.654   3.787   5.669  0.5637 -0.2705  0.3146
  110MOL0     N14766   0.689   3.813   5.550 -0.3731 -0.0225  0.0498
  110MOL0     C14767   1.333   2.800   5.402 -0.6396  0.8177 -0.1419
  110MOL0     C14768   1.405   2.711   5.472  0.0339 -0.4030 -0.1627
  110MOL0     C14769   1.694   2.634   5.835 -0.2473 -1.4515  0.9241
  110MOL0     C14770   1.693   2.562   5.958 -0.6951 -1.3585  0.7408
  110MOL0     C14771   1.815   2.521   6.009 -0.1808 -0.8922  0.2795
  110MOL0     C14772   1.936   2.542   5.946  0.3706 -0.0070 -0.4978
  110MOL0     O14773   2.046   2.491   6.010  0.5792  0.6217  0.1526
  110MOL0     C14774   2.174   2.551   5.983 -0.1962 -0.3874  0.0040
  110MOL0     C14775   2.235   2.576   6.124  1.1218  0.0417  0.3551
  110MOL0     C14776   2.313   2.705   6.133  0.4877  0.4467 -0.7623
  110MOL0     C14777   2.464   2.696   6.109  0.7133 -0.3437  0.6524
  110MOL0     C14778   2.519   2.830   6.114 -0.2144  0.9968 -0.0861
  110MOL0     C14779   2.569   2.938   6.130 -0.1394 -0.1919  0.0716
  110MOL0     C14780   1.938   2.603   5.820 -0.0624 -0.7327  0.2315
  110MOL0     C14781   1.818   2.654   5.766  0.2727 -0.0712 -0.7391
  110MOL0     C14782   1.818   2.724   5.633  0.6194  0.1465 -0.1400
  110MOL0     H14783   1.572   2.940   5.678 -2.0288  0.8187  1.1535
  110MOL0     H14784   1.430   3.101   5.542  0.0300 -1.6884  3.3056
  110MOL0     H14785   1.331   3.201   5.363  0.9291  3.2367 -3.7922
  110MOL0     H14786   1.312   3.127   5.196 -0.1896  0.6907 -0.2962
  110MOL0     H14787   1.073   3.173   5.393 -3.8669 -0.0071 -1.6557
  110MOL0     H14788   1.069   3.163   5.216 -3.2327  1.3719  0.9727
  110MOL0     H14789   1.181   3.356   5.171  0.2704 -1.3788 -0.6341
  110MOL0     H14790   1.234   3.384   5.343  1.0364 -0.8229 -1.3936
  110MOL0     H14791   0.948   3.377   5.238  0.2079 -1.0967  1.8613
  110MOL0     H14792   0.993   3.451   5.400  0.6451 -0.4759 -0.0692
  110MOL0     H14793   1.124   3.612   5.246 -0.8028  0.1780  0.6649
  110MOL0     H14794   1.012   3.566   5.128  1.2744  0.1407  0.5638
  110MOL0     H14795   0.934   3.700   5.396 -0.5083  0.7132  0.8432
  110MOL0     H14796   0.903   3.760   5.230  2.1979 -0.9315 -0.8285
  110MOL0     H14797   0.755   3.519   5.341 -2.4152  1.0293  1.0766
  110MOL0     H14798   0.744   3.590   5.179  0.6835  2.5808 -0.4596
  110MOL0     H14799   0.697   3.817   5.301 -1.9654  0.6244  0.7358
  110MOL0     H14800   0.564   3.700   5.301 -0.0581  0.4676 -0.9599
  110MOL0     H14801   0.560   3.520   5.516  0.9618 -1.0323  0.4980
  110MOL0     H14802   0.461   3.635   5.844 -0.1687  2.3707 -1.8884
  110MOL0     H14803   0.515   3.488   5.778 -0.5772  0.2980 -0.9405
  110MOL0     H14804   0.749   3.571   5.862  0.1213  3.4314 -1.5891
  110MOL0     H14805   0.653   3.665   5.980  1.0829 -1.8942  1.2683
  110MOL0     H14806   0.707   3.419   6.053  1.7152  1.9582 -0.9298
  110MOL0     H14807   0.606   3.359   5.920  2.0325 -0.8039  1.3396
  110MOL0     H14808   0.406   3.481   6.019 -0.8039 -0.7128  1.4117
  110MOL0     H14809   0.501   3.537   6.152  1.2443 -1.0034  0.3944
  110MOL0     H14810   0.406   3.101   6.241 -0.2469 -1.0723 -0.0581
  110MOL0     H14811   0.267   3.074   6.430  4.2676 -1.3394  0.5355
  110MOL0     H14812   0.196   3.124   6.876 -0.9429  2.0086  3.8234
  110MOL0     H14813   0.062   3.070   7.055 -1.3854 -0.0524  0.2513
  110MOL0     H14814  -0.148   2.766   6.999 -1.5302 -1.6560  1.1484
  110MOL0     H14815  -0.117   2.799   7.166  1.7109 -2.1124 -1.7529
  110MOL0     H14816  -0.373   2.838   7.201  2.6481  0.4023  2.1218
  110MOL0     H14817  -0.406   2.767   7.043 -1.8992  0.8793  1.3074
  110MOL0     H14818  -0.259   2.563   7.127  1.5917  2.6602 -1.4383
  110MOL0     H14819  -0.279   2.632   7.280 -0.8903 -4.9084  0.7895
  110MOL0     H14820  -0.493   2.538   7.076 -1.4587 -0.9774 -0.2239
  110MOL0     H14821  -0.541   2.618   7.226  1.6456  3.1917 -0.9949
  110MOL0     H14822  -0.568   2.397   7.267  0.4772 -2.0810  2.0759
  110MOL0     H14823  -0.416   2.426   7.350  0.5512 -0.5118 -0.7066
  110MOL0     H14824  -0.294   2.350   7.144 -0.1401  2.5287  2.8450
  110MOL0     H14825  -0.369   2.221   7.243 -1.5979  0.6933  1.5519
  110MOL0     H14826  -0.415   2.171   7.027 -1.8916 -2.6478 -1.6136
  110MOL0     H14827  -0.509   2.333   7.000  0.8099  1.3388  2.3939
  110MOL0     H14828  -0.603   2.154   7.213  0.4921 -0.0135  0.1644
  110MOL0     H14829  -0.681   2.284   7.127 -0.6924 -0.4624  1.5004
  110MOL0     H14830  -0.265   2.957   6.788 -0.1287 -0.8901  1.2363
  110MOL0     H14831  -0.126   3.018   6.605  0.9980 -1.4269 -0.1892
  110MOL0     H14832   0.245   3.500   6.503  0.8894 -1.2165  1.0341
  110MOL0     H14833   0.376   3.540   6.315  1.3468  0.5661 -0.0623
  110MOL0     H14834   1.266   2.748   5.334 -1.0987 -0.7362  1.4297
  110MOL0     H14835   1.381   2.606   5.459 -3.0207  0.0729  0.7659
  110MOL0     H14836   1.601   2.561   6.016 -1.1153  2.9754  0.4728
  110MOL0     H14837   1.819   2.471   6.105 -1.2205  2.8742  2.5364
  110MOL0     H14838   2.179   2.631   5.908 -0.1856  1.3115  1.7371
  110MOL0     H14839   2.241   2.483   5.929 -0.9653 -0.6142 -0.6845
  110MOL0     H14840   2.295   2.485   6.136 -3.3996 -3.2532  0.6816
  110MOL0     H14841   2.152   2.574   6.195  1.0399 -1.9935  0.2686
  110MOL0     H14842   2.313   2.736   6.238 -0.1134 -2.7693  0.2962
  110MOL0     H14843   2.272   2.788   6.075  0.0397  1.3336  0.7697
  110MOL0     H14844   2.516   2.632   6.181  2.5951 -1.3169 -1.4141
  110MOL0     H14845   2.479   2.645   6.013 -0.2201 -1.8290  1.2663
  110MOL0     H14846   2.609   3.037   6.147  2.6632 -1.1923 -0.1634
  110MOL0     H14847   2.029   2.601   5.761  0.4605 -0.2446  0.9945
  110MOL0     H14848   1.915   2.773   5.622  0.6511 -0.0518 -0.7745
  110MOL0     H14849   1.806   2.649   5.554  0.4886  1.6807 -1.6243
  110MOL0     H14850   1.751   2.811   5.626 -1.6858 -1.6405 -1.8914
  111MOL0     O14851   1.671  10.693   2.120 -0.1285 -0.5310  0.2480
  111MOL0     C14852   1.618  10.741   2.015  0.4895  0.6414  0.3410
  111MOL0     O14853   1.500  10.827   2.026 -0.2941  0.9275 -0.7640
  111MOL0     C14854   1.443  10.859   2.150  0.2614  0.1686 -0.1243
  111MOL0     C14855   1.415  10.783   2.266  0.0966  0.7747  0.3381
  111MOL0     C14856   1.343  10.843   2.373  0.1666 -1.4390  0.6592
  111MOL0     C14857   1.312  10.981   2.370  0.5858  0.5326 -0.6051
  111MOL0     O14858   1.245  11.038   2.478  0.5861  0.0144 -0.1931
  111MOL0     C14859   1.333  11.130   2.541  0.9459  0.2910 -0.4196
  111MOL0     C14860   1.249  11.229   2.620  0.1004 -0.7463  0.2871
  111MOL0     C14861   1.337  11.335   2.688  0.0561 -0.7456 -0.1284
  111MOL0     C14862   1.258  11.446   2.744 -0.3147 -0.0189 -0.5599
  111MOL0     C14863   1.339  11.553   2.828  0.6316 -0.0749  0.1104
  111MOL0     C14864   1.247  11.662   2.885 -0.1197  0.6283 -0.5605
  111MOL0     C14865   1.338  11.745   2.970 -0.1139 -0.5229 -0.5178
  111MOL0     C14866   1.307  11.748   3.121 -0.3723  0.2878  0.1981
  111MOL0     N14867   1.345  11.621   3.197  0.4268 -0.3224  0.0826
  111MOL0     C14868   1.464  11.602   3.277  0.5141  0.5472  0.4227
  111MOL0     C14869   1.441  11.492   3.338 -0.7809  0.3391  0.7264
  111MOL0     C14870   1.542  11.427   3.427  1.0977  0.0359  0.4108
  111MOL0     C14871   1.518  11.274   3.442  0.0340  0.1261  0.1424
  111MOL0     C14872   1.564  11.192   3.318 -0.1549 -0.3482 -0.9070
  111MOL0     C14873   1.481  11.199   3.190 -0.0395 -0.7649  0.1795
  111MOL0     O14874   1.544  11.289   3.097 -0.0475  0.0670 -0.2952
  111MOL0     C14875   1.643  11.245   3.015  0.2738 -0.9454  0.3616
  111MOL0     C14876   1.665  11.116   2.979  0.1159  0.4197 -0.0535
  111MOL0     C14877   1.790  11.092   2.916 -0.3804 -0.4121 -0.5115
  111MOL0     C14878   1.880  11.199   2.879  0.5313 -0.1358 -0.5467
  111MOL0     C14879   2.003  11.163   2.798  0.3634  0.0043 -0.4184
  111MOL0     O14880   2.091  11.262   2.771 -0.2110 -0.9040 -0.4434
  111MOL0     C14881   2.204  11.225   2.696  0.0275 -0.3131  0.3952
  111MOL0     C14882   2.223  11.285   2.573  0.1896  0.6259 -0.0595
  111MOL0     C14883   2.332  11.248   2.495 -0.3663  0.0677 -1.2882
  111MOL0     C14884   2.432  11.168   2.549  0.0033  0.7829  0.1396
  111MOL0     O14885   2.554  11.142   2.480 -0.1533 -0.1649 -0.3704
  111MOL0     C14886   2.570  11.143   2.334  0.0151  0.2829  0.3922
  111MOL0     C14887   2.539  11.004   2.275  0.3567 -0.4093  0.2611
  111MOL0     C14888   2.491  11.006   2.119  0.6141  0.6380 -0.2966
  111MOL0     C14889   2.438  10.871   2.069  0.2170  0.4634  0.5834
  111MOL0     C14890   2.366  10.879   1.933  0.1650  0.0076  0.0984
  111MOL0     C14891   2.401  10.749   1.848  0.2889 -0.3427 -0.5255
  111MOL0     C14892   2.344  10.746   1.709 -0.3130 -0.0704  0.2515
  111MOL0     C14893   2.197  10.733   1.692 -0.1136 -0.3781 -0.5774
  111MOL0    Cl14894   2.110  10.598   1.774 -0.1675  0.4293  0.0126
  111MOL0     C14895   2.412  11.096   2.658 -0.0607 -0.1233 -0.8327
  111MOL0     C14896   2.300  11.130   2.739  0.3402 -1.1943 -0.2569
  111MOL0     O14897   2.001  11.059   2.735 -0.5275 -0.1147  0.1445
  111MOL0     C14898   1.847  11.329   2.910  0.1477  0.1189  0.0439
  111MOL0     C14899   1.732  11.350   2.980 -0.2681 -0.0572  0.4336
  111MOL0     N14900   1.307  11.444   3.312  0.1048 -0.6187 -0.0100
  111MOL0     N14901   1.257  11.522   3.218  0.7478  0.9174  0.1692
  111MOL0     C14902   1.339  11.055   2.257  0.1459  0.4668  0.8885
  111MOL0     C14903   1.396  10.988   2.153 -0.2281 -0.1591  0.7499
  111MOL0     C14904   1.657  10.708   1.876 -0.8983 -1.0569 -0.8382
  111MOL0     C14905   1.611  10.798   1.772 -0.2505 -0.2812 -0.2462
  111MOL0     C14906   1.644  10.780   1.637 -0.2801  0.6495  0.4232
  111MOL0     C14907   1.734  10.675   1.608 -0.4377 -0.0557  0.3719
  111MOL0     O14908   1.790  10.660   1.476 -0.1288  0.8561  0.1001
  111MOL0     C14909   1.765  10.750   1.366  0.3910 -0.6097 -0.3839
  111MOL0     C14910   1.884  10.733   1.258  0.5414  0.1005 -0.0085
  111MOL0     C14911   1.894  10.590   1.198 -0.9327 -0.5338 -0.9931
  111MOL0     C14912   2.000  10.571   1.096  0.2440 -1.0632  0.2116
  111MOL0     C14913   2.020  10.683   1.007  0.3814  0.0325  0.0470
  111MOL0     C14914   2.026  10.769   0.923  0.3415  0.1589  0.0910
  111MOL0     C14915   1.774  10.579   1.704 -0.6521 -0.5555 -0.2611
  111MOL0     C14916   1.733  10.596   1.835 -0.4516 -0.1012  0.0415
  111MOL0     C14917   1.771  10.485   1.930 -1.0409  1.2437  0.3945
  111MOL0     H14918   1.446  10.678   2.266 -3.5535 -0.4897  2.6321
  111MOL0     H14919   1.323  10.802   2.472 -0.4061 -0.2254  1.0620
  111MOL0     H14920   1.406  11.079   2.604  0.3685 -0.3537 -0.2684
  111MOL0     H14921   1.393  11.184   2.466  2.1268  3.0079  2.2714
  111MOL0     H14922   1.183  11.181   2.692 -2.1902  2.5316  0.6020
  111MOL0     H14923   1.180  11.283   2.554  0.2122 -0.1440  0.6476
  111MOL0     H14924   1.405  11.370   2.610  1.3118  0.7305  1.5466
  111MOL0     H14925   1.394  11.285   2.768 -1.3077 -0.5281  1.0084
  111MOL0     H14926   1.209  11.491   2.657 -0.5374 -0.1283 -0.4915
  111MOL0     H14927   1.185  11.389   2.802  0.9251 -1.5533 -0.4428
  111MOL0     H14928   1.390  11.512   2.916  0.7729 -0.1431 -0.0036
  111MOL0     H14929   1.403  11.600   2.754  1.1979 -0.7901  0.1328
  111MOL0     H14930   1.209  11.717   2.799  2.1831  2.3484 -0.5766
  111MOL0     H14931   1.161  11.616   2.935 -0.3726  3.0955  1.4583
  111MOL0     H14932   1.325  11.846   2.931 -2.5025 -0.4885  0.1780
  111MOL0     H14933   1.440  11.709   2.958 -0.1552 -1.5139  1.5654
  111MOL0     H14934   1.366  11.828   3.167  1.5412  0.4350 -2.2848
  111MOL0     H14935   1.202  11.770   3.140 -1.7076 -2.2484 -3.2432
  111MOL0     H14936   1.549  11.669   3.282  0.5522  0.8396 -2.5946
  111MOL0     H14937   1.646  11.439   3.394  0.5719  0.5163 -1.1291
  111MOL0     H14938   1.538  11.477   3.524  0.6000 -2.6129  1.8519
  111MOL0     H14939   1.572  11.247   3.533 -1.4487 -0.4521  0.8866
  111MOL0     H14940   1.412  11.263   3.463  0.1946 -0.9960  0.4302
  111MOL0     H14941   1.572  11.089   3.355  1.5724  0.0946  0.0235
  111MOL0     H14942   1.667  11.217   3.292 -0.4202  0.3279 -1.3443
  111MOL0     H14943   1.378  11.224   3.217  0.0201 -1.4710  1.0671
  111MOL0     H14944   1.473  11.094   3.159 -1.6944 -0.4607 -0.5607
  111MOL0     H14945   1.599  11.032   2.996 -1.8007  2.2399  2.0703
  111MOL0     H14946   1.798  10.985   2.897 -0.2851 -0.5744  0.3721
  111MOL0     H14947   2.164  11.362   2.525  3.4007  2.7058 -0.9884
  111MOL0     H14948   2.350  11.292   2.397 -1.9679 -2.0548 -2.6336
  111MOL0     H14949   2.500  11.207   2.280  1.4758 -1.8228 -4.5784
  111MOL0     H14950   2.675  11.167   2.313  1.3941 -4.1820  1.2431
  111MOL0     H14951   2.636  10.953   2.274  2.7635  3.2187  5.3698
  111MOL0     H14952   2.458  10.951   2.326 -0.9512  2.0812  0.9796
  111MOL0     H14953   2.411  11.080   2.107  0.8364  0.9526  0.1158
  111MOL0     H14954   2.577  11.034   2.058  2.4637  0.4532  2.0519
  111MOL0     H14955   2.365  10.833   2.142 -2.5976  2.0172 -1.2327
  111MOL0     H14956   2.517  10.795   2.072 -1.9012 -1.8463  2.0363
  111MOL0     H14957   2.387  10.966   1.871  3.9872 -1.4109 -0.8561
  111MOL0     H14958   2.259  10.888   1.956  0.4210  6.5294  0.4648
  111MOL0     H14959   2.508  10.746   1.828  0.3879  0.1399 -0.0934
  111MOL0     H14960   2.377  10.657   1.902  2.3580  0.3806  1.8670
  111MOL0     H14961   2.394  10.667   1.653 -2.6782  0.4890 -2.9539
  111MOL0     H14962   2.368  10.839   1.658 -2.2248 -0.0860 -0.7714
  111MOL0     H14963   2.152  10.823   1.736 -1.6403 -1.1496 -0.4962
  111MOL0     H14964   2.180  10.737   1.584  0.3831  1.8419 -0.6186
  111MOL0     H14965   2.484  11.024   2.698  1.1727  0.3347 -2.1244
  111MOL0     H14966   2.301  11.086   2.838  3.5769  0.8746  0.7698
  111MOL0     H14967   1.902  11.415   2.875 -1.6917  1.7382  0.9862
  111MOL0     H14968   1.695  11.441   3.026  0.4721 -0.2856  1.5142
  111MOL0     H14969   1.289  11.149   2.237  1.4991  1.0269  0.0322
  111MOL0     H14970   1.421  11.048   2.066  1.9474 -0.0980  1.3678
  111MOL0     H14971   1.543  10.880   1.793 -2.7331 -2.3431  0.3461
  111MOL0     H14972   1.608  10.864   1.578  2.7937  3.4727  2.2297
  111MOL0     H14973   1.748  10.855   1.393 -0.7348 -0.2574 -2.3383
  111MOL0     H14974   1.663  10.718   1.341  0.5912 -3.3765  1.7807
  111MOL0     H14975   1.980  10.759   1.304  0.5810 -1.0693  0.6074
  111MOL0     H14976   1.873  10.800   1.172 -1.9703 -2.2529 -1.7264
  111MOL0     H14977   1.794  10.567   1.162 -0.9926 -2.5979  0.2709
  111MOL0     H14978   1.922  10.515   1.273 -1.3493 -1.2677 -1.5612
  111MOL0     H14979   2.092  10.533   1.142  1.7035  0.9678 -0.9070
  111MOL0     H14980   1.964  10.488   1.034 -1.2507 -2.3939  2.6782
  111MOL0     H14981   2.043  10.855   0.861 -1.7270  0.7324  0.2257
  111MOL0     H14982   1.819  10.483   1.681 -0.8227 -1.0503  1.2948
  111MOL0     H14983   1.818  10.543   2.009  1.2269  1.7992 -1.2488
  111MOL0     H14984   1.683  10.434   1.970  0.4695 -2.6600 -0.8164
  111MOL0     H14985   1.844  10.424   1.875 -3.1842 -0.9125 -0.2427
  112MOL0     O14986   2.799  11.065   7.240 -0.3113  0.5270  0.2897
  112MOL0     C14987   2.887  10.986   7.216 -1.6162  0.0767  1.1334
  112MOL0     O14988   3.023  10.995   7.267 -0.1817  0.7015 -0.0673
  112MOL0     C14989   3.082  11.103   7.330 -0.8647  0.5222  0.7327
  112MOL0     C14990   3.196  11.082   7.418 -0.0092 -0.3397 -0.5514
  112MOL0     C14991   3.259  11.185   7.485  0.8661  0.0631  0.2782
  112MOL0     C14992   3.213  11.320   7.465 -0.0615  0.8271  0.2536
  112MOL0     O14993   3.284  11.413   7.528 -0.6110 -0.4134 -0.6307
  112MOL0     C14994   3.321  11.527   7.449 -0.1331 -0.0194  0.6705
  112MOL0     C14995   3.426  11.607   7.513 -0.0566 -0.5332 -0.1621
  112MOL0     C14996   3.389  11.700   7.628  0.3074  0.2361  1.0069
  112MOL0     C14997   3.500  11.797   7.671 -0.4587 -0.3656 -1.6172
  112MOL0     C14998   3.462  11.924   7.755 -1.1224 -0.0305  0.4844
  112MOL0     C14999   3.370  11.893   7.876  0.6982 -0.2407  0.7805
  112MOL0     C15000   3.353  12.006   7.976 -0.0655 -0.5012 -0.1907
  112MOL0     C15001   3.486  12.061   8.034 -0.7438  0.3105  0.3661
  112MOL0     N15002   3.488  12.191   8.098  0.1703 -0.1525  0.3143
  112MOL0     C15003   3.598  12.251   8.151  1.1926 -1.3764 -1.0319
  112MOL0     C15004   3.546  12.378   8.170 -0.0108 -0.2155  0.1122
  112MOL0     C15005   3.627  12.493   8.211 -0.4664  0.3353 -0.7731
  112MOL0     C15006   3.588  12.630   8.156  0.6608  0.4662 -1.3578
  112MOL0     C15007   3.611  12.633   8.011  0.2140  0.2486 -0.2813
  112MOL0     C15008   3.523  12.731   7.934 -0.5297 -0.4944  0.4847
  112MOL0     O15009   3.546  12.722   7.790 -0.1682  0.5957  0.3504
  112MOL0     C15010   3.475  12.628   7.730  0.4246  0.3402  0.3796
  112MOL0     C15011   3.400  12.517   7.786  0.7122 -0.2278  0.7401
  112MOL0     C15012   3.328  12.431   7.700  0.5718 -0.7991 -1.0097
  112MOL0     C15013   3.350  12.413   7.561  0.4111 -0.0490 -0.2376
  112MOL0     C15014   3.297  12.310   7.469 -0.0161  0.6073 -0.5622
  112MOL0     O15015   3.242  12.210   7.548 -0.0192 -0.2344  0.4592
  112MOL0     C15016   3.179  12.099   7.501  0.2854  1.0220 -0.0167
  112MOL0     C15017   3.129  12.019   7.609  0.3719 -0.7510  0.1977
  112MOL0     C15018   3.058  11.904   7.568 -0.5916  0.1412 -1.6950
  112MOL0     C15019   3.033  11.867   7.437 -0.7807 -0.4034  0.7321
  112MOL0     O15020   2.945  11.761   7.420 -0.3724 -0.4635  0.4123
  112MOL0     C15021   2.852  11.740   7.307 -0.3908 -0.4166 -0.5755
  112MOL0     C15022   2.761  11.628   7.364  0.1345  0.2900 -0.9639
  112MOL0     C15023   2.678  11.560   7.255 -0.6385  0.1342 -0.9672
  112MOL0     C15024   2.762  11.484   7.150  0.6910  0.1954  0.3394
  112MOL0     C15025   2.682  11.395   7.051 -1.1263 -0.4889 -0.0385
  112MOL0     C15026   2.609  11.502   6.958  0.8068  0.3690  0.6145
  112MOL0     C15027   2.553  11.427   6.844 -0.1855  0.2801 -0.4902
  112MOL0     C15028   2.469  11.527   6.773 -0.2570  0.2818 -0.1463
  112MOL0    Cl15029   2.309  11.509   6.858  0.7462 -0.7292 -0.1352
  112MOL0     C15030   3.084  11.943   7.337  0.5854  1.1601  0.0255
  112MOL0     C15031   3.162  12.054   7.370 -0.6855 -0.5931 -0.6477
  112MOL0     O15032   3.334  12.297   7.359  0.2747  1.2003  1.2623
  112MOL0     C15033   3.426  12.520   7.506 -0.4974 -0.7136 -0.0423
  112MOL0     C15034   3.482  12.622   7.590 -0.2021  0.0274 -0.8377
  112MOL0     N15035   3.421  12.382   8.126  0.4797 -0.0572 -0.0200
  112MOL0     N15036   3.381  12.266   8.089 -0.4863 -0.0220  0.6768
  112MOL0     C15037   3.101  11.344   7.386 -0.4240 -0.0385  0.9125
  112MOL0     C15038   3.030  11.237   7.319  0.5470 -0.6894 -0.5851
  112MOL0     C15039   2.872  10.875   7.121  0.4800  0.2042 -0.4911
  112MOL0     C15040   2.762  10.799   7.134 -0.9852  0.2712 -0.1324
  112MOL0     C15041   2.740  10.687   7.046  0.1990  0.6939  0.0579
  112MOL0     C15042   2.830  10.634   6.956 -0.3209 -0.7029  0.2264
  112MOL0     O15043   2.801  10.527   6.872  0.5908 -0.0304 -0.3776
  112MOL0     C15044   2.691  10.451   6.899 -0.1677  0.1430 -0.1970
  112MOL0     C15045   2.683  10.356   6.778  0.1825  0.0141  0.7172
  112MOL0     C15046   2.629  10.443   6.656 -0.2397 -0.0133 -1.0255
  112MOL0     C15047   2.475  10.441   6.641  0.5490  0.4792  0.2205
  112MOL0     C15048   2.444  10.489   6.504  0.6602  0.5372 -0.4310
  112MOL0     C15049   2.420  10.515   6.382  0.7177  0.0068 -0.7005
  112MOL0     C15050   2.945  10.710   6.947 -0.3080 -0.5744 -0.6902
  112MOL0     C15051   2.972  10.832   7.020  0.8422 -0.7771 -0.0487
  112MOL0     C15052   3.098  10.908   6.997 -0.4760 -0.0639  0.3403
  112MOL0     H15053   3.219  10.978   7.440 -1.6938 -0.9434 -1.4495
  112MOL0     H15054   3.347  11.177   7.549  3.7603  0.2713 -3.3661
  112MOL0     H15055   3.349  11.494   7.348  2.0067  2.7676  0.2475
  112MOL0     H15056   3.233  11.592   7.439 -0.3692 -0.3759  0.4116
  112MOL0     H15057   3.460  11.678   7.437 -1.2129 -0.7830 -0.9583
  112MOL0     H15058   3.504  11.537   7.542  0.9083  0.7302  0.3853
  112MOL0     H15059   3.365  11.637   7.714  0.7722  2.1826  2.6469
  112MOL0     H15060   3.311  11.767   7.592  0.6730 -0.6479 -1.7020
  112MOL0     H15061   3.575  11.752   7.737  0.1837  2.5052 -0.2132
  112MOL0     H15062   3.559  11.832   7.585 -0.4678  6.1176  0.4702
  112MOL0     H15063   3.559  11.964   7.787 -1.1101  0.1418  0.2380
  112MOL0     H15064   3.424  12.004   7.692  3.0892  0.0055 -2.4102
  112MOL0     H15065   3.273  11.850   7.852  0.5967  1.7998 -3.2186
  112MOL0     H15066   3.419  11.813   7.933 -2.4987 -2.1944  1.0011
  112MOL0     H15067   3.288  11.980   8.060  0.3585 -0.4604  0.1520
  112MOL0     H15068   3.293  12.086   7.932 -3.1472 -1.5015  1.8783
  112MOL0     H15069   3.511  11.970   8.089 -0.4086 -1.0916 -1.9767
  112MOL0     H15070   3.568  12.072   7.961  1.0024  3.8268  2.5857
  112MOL0     H15071   3.698  12.211   8.165  0.5295 -2.3423  1.4648
  112MOL0     H15072   3.626  12.496   8.321 -0.6438  0.5281 -0.7800
  112MOL0     H15073   3.734  12.479   8.195 -0.5356 -0.7051 -0.4332
  112MOL0     H15074   3.481  12.643   8.175  0.7150  0.7214 -1.2229
  112MOL0     H15075   3.646  12.712   8.200  0.1105 -0.6711  1.7762
  112MOL0     H15076   3.606  12.532   7.969  2.0370 -0.6654  1.5577
  112MOL0     H15077   3.712  12.675   8.009 -0.0925  1.1088  1.0643
  112MOL0     H15078   3.536  12.837   7.958 -4.7263  0.3881 -0.3437
  112MOL0     H15079   3.419  12.712   7.963 -0.7155 -2.7258 -1.3329
  112MOL0     H15080   3.398  12.511   7.894 -2.1889  0.5518  0.8024
  112MOL0     H15081   3.265  12.364   7.757  0.1851  1.0610  0.8818
  112MOL0     H15082   3.158  12.039   7.712  3.3676 -1.2860 -0.4283
  112MOL0     H15083   3.018  11.832   7.638  1.0026  2.6926  2.1644
  112MOL0     H15084   2.790  11.825   7.279 -1.6322 -0.7854  0.8907
  112MOL0     H15085   2.902  11.707   7.215  0.2390  0.3594 -0.5164
  112MOL0     H15086   2.824  11.548   7.404 -1.5002 -2.1375 -2.9264
  112MOL0     H15087   2.698  11.673   7.441  0.8778  1.6970 -1.1438
  112MOL0     H15088   2.596  11.494   7.286 -0.6652  0.0802 -1.1491
  112MOL0     H15089   2.625  11.638   7.199  1.6848 -0.6862 -4.6638
  112MOL0     H15090   2.834  11.424   7.206 -1.2583 -0.8303  1.8567
  112MOL0     H15091   2.824  11.551   7.089  0.3057  1.0260  0.8434
  112MOL0     H15092   2.619  11.321   7.100  0.5589 -3.5792 -2.1656
  112MOL0     H15093   2.756  11.338   6.993 -1.3445  0.7065 -1.5575
  112MOL0     H15094   2.531  11.551   7.016 -1.8088 -1.1295 -1.4189
  112MOL0     H15095   2.688  11.563   6.913  2.9929 -3.3367 -1.0737
  112MOL0     H15096   2.488  11.348   6.883 -0.7633  1.0811  0.2085
  112MOL0     H15097   2.630  11.388   6.777  0.0528 -0.3436  0.1407
  112MOL0     H15098   2.513  11.628   6.771  0.6999 -0.1097 -2.0499
  112MOL0     H15099   2.468  11.496   6.668  1.1927 -2.6285  0.6054
  112MOL0     H15100   3.072  11.917   7.233 -0.7252  0.4250  0.3311
  112MOL0     H15101   3.205  12.108   7.286  0.5475 -1.9447 -0.9381
  112MOL0     H15102   3.450  12.522   7.400  1.0374  2.9945  0.2272
  112MOL0     H15103   3.551  12.696   7.549  1.3878  1.2108  3.3806
  112MOL0     H15104   3.068  11.447   7.380  0.1794  0.1458  0.7333
  112MOL0     H15105   2.956  11.249   7.240  0.9164 -2.6457 -1.2748
  112MOL0     H15106   2.691  10.842   7.204  0.6095  1.3039  0.8927
  112MOL0     H15107   2.642  10.640   7.050 -1.1114  3.1902 -0.9905
  112MOL0     H15108   2.605  10.518   6.899 -0.6479 -0.4554  0.3239
  112MOL0     H15109   2.705  10.398   6.994  0.9290  1.1522  0.2324
  112MOL0     H15110   2.612  10.275   6.797 -0.0991  0.0787 -0.0295
  112MOL0     H15111   2.776  10.304   6.754 -0.1265 -0.4689  0.5540
  112MOL0     H15112   2.681  10.395   6.572  1.6115  0.9752 -0.4853
  112MOL0     H15113   2.676  10.541   6.663  3.3327 -1.6033 -0.0824
  112MOL0     H15114   2.428  10.343   6.657  1.6794 -0.4037 -1.6217
  112MOL0     H15115   2.441  10.510   6.719  3.0220  0.3564  1.5178
  112MOL0     H15116   2.375  10.521   6.285 -0.6992 -1.4051 -0.1733
  112MOL0     H15117   3.024  10.688   6.875  1.6223 -1.6091  1.6168
  112MOL0     H15118   3.170  10.885   7.076 -1.4862  0.7121  1.5137
  112MOL0     H15119   3.143  10.890   6.899 -2.4043  0.4851 -0.7148
  112MOL0     H15120   3.081  11.017   6.998 -2.7833 -0.3696 -0.4929
  113MOL0     O15121   0.381   0.086   5.988  0.4770  0.7507  0.3228
  113MOL0     C15122   0.285   0.090   6.067  0.2806 -0.4679  0.4598
  113MOL0     O15123   0.190  -0.012   6.089 -0.1873 -0.4539  1.0208
  113MOL0     C15124   0.198  -0.130   6.006  0.7071  0.2441 -1.2533
  113MOL0     C15125   0.254  -0.248   6.055  0.2260  0.3642  0.3325
  113MOL0     C15126   0.287  -0.353   5.980 -0.6999  0.7329 -0.1359
  113MOL0     C15127   0.269  -0.342   5.842 -0.0512 -0.1661  0.1594
  113MOL0     O15128   0.311  -0.452   5.765  0.7343 -0.5979  0.4776
  113MOL0     C15129   0.334  -0.434   5.624  0.4004  0.9854  0.2578
  113MOL0     C15130   0.402  -0.561   5.579  0.2976  0.1320  0.0214
  113MOL0     C15131   0.436  -0.534   5.434 -1.5616  0.5240  0.5691
  113MOL0     C15132   0.558  -0.610   5.381 -0.7192  0.4878 -0.6475
  113MOL0     C15133   0.619  -0.552   5.251 -0.3053 -0.2301  1.2072
  113MOL0     C15134   0.711  -0.646   5.174  0.3677 -0.4310 -0.4391
  113MOL0     C15135   0.804  -0.561   5.083  1.1230 -0.1889  0.1391
  113MOL0     C15136   0.912  -0.652   5.018  1.3390  0.0195 -0.0279
  113MOL0     N15137   1.009  -0.582   4.935 -1.3413  0.7305 -0.1212
  113MOL0     C15138   1.109  -0.642   4.857 -0.1410 -0.0551 -0.1129
  113MOL0     C15139   1.155  -0.543   4.784 -0.7732 -0.7951 -0.3317
  113MOL0     C15140   1.275  -0.561   4.692  0.9316  0.1380  0.2886
  113MOL0     C15141   1.251  -0.671   4.597  0.0442 -0.0655 -0.5224
  113MOL0     C15142   1.180  -0.638   4.468  0.8452 -0.0146 -0.0345
  113MOL0     C15143   1.032  -0.664   4.463 -0.2744 -0.7191  0.6009
  113MOL0     O15144   0.997  -0.766   4.546 -0.0819  0.0781 -0.0734
  113MOL0     C15145   0.873  -0.782   4.601 -0.4038 -0.5665 -1.2175
  113MOL0     C15146   0.851  -0.889   4.684 -0.4863  0.6609 -0.8270
  113MOL0     C15147   0.733  -0.914   4.761  0.3799  0.6046  0.8660
  113MOL0     C15148   0.624  -0.819   4.744  0.7261  0.2074  0.3788
  113MOL0     C15149   0.496  -0.840   4.810  0.6775 -0.1017  1.2782
  113MOL0     O15150   0.413  -0.739   4.811  0.2039 -0.4255  0.5224
  113MOL0     C15151   0.294  -0.747   4.872  0.4830 -0.0449 -0.8104
  113MOL0     C15152   0.193  -0.838   4.828 -0.1735  0.1274  0.3590
  113MOL0     C15153   0.061  -0.835   4.898  0.2427 -0.0430 -0.3302
  113MOL0     C15154   0.052  -0.752   5.009  0.0518  0.6687  0.0446
  113MOL0     O15155  -0.053  -0.754   5.093  0.2050 -0.0294  0.5081
  113MOL0     C15156  -0.182  -0.785   5.038  0.3254  0.2391 -0.8389
  113MOL0     C15157  -0.282  -0.805   5.142  0.5093 -1.1100  0.4556
  113MOL0     C15158  -0.249  -0.906   5.250 -0.5325  0.5982  0.5945
  113MOL0     C15159  -0.212  -0.849   5.382 -0.2676  0.6363  0.7788
  113MOL0     C15160  -0.316  -0.892   5.492 -0.2911  0.2436  0.4226
  113MOL0     C15161  -0.271  -1.018   5.568  0.1283 -1.2194 -0.3648
  113MOL0     C15162  -0.386  -1.064   5.658 -0.4272 -0.2642 -0.3461
  113MOL0     C15163  -0.365  -1.208   5.711 -0.8865  0.1340  0.0568
  113MOL0    Cl15164  -0.261  -1.225   5.852 -0.2146 -0.2932  0.1004
  113MOL0     C15165   0.157  -0.680   5.057 -0.2255 -0.0938  0.5062
  113MOL0     C15166   0.277  -0.676   4.986  0.2682  0.1551  0.1793
  113MOL0     O15167   0.472  -0.952   4.855 -0.0620 -0.2609 -0.1039
  113MOL0     C15168   0.640  -0.709   4.652  0.5600  0.9244  0.9520
  113MOL0     C15169   0.770  -0.690   4.595  0.7246  0.1587 -0.1711
  113MOL0     N15170   1.085  -0.430   4.819 -0.1296 -0.0375  0.4437
  113MOL0     N15171   0.999  -0.453   4.901  0.9939 -1.0330  0.6731
  113MOL0     C15172   0.217  -0.221   5.787 -0.0573 -0.4618 -0.5806
  113MOL0     C15173   0.182  -0.122   5.874  0.0916  0.1725 -0.0776
  113MOL0     C15174   0.267   0.204   6.154  0.1946  0.6616 -0.2784
  113MOL0     C15175   0.152   0.286   6.139  0.1510 -0.4491  0.1282
  113MOL0     C15176   0.131   0.397   6.219 -0.4438 -0.4561 -0.1627
  113MOL0     C15177   0.221   0.426   6.319  0.5525 -0.1639 -0.6816
  113MOL0     O15178   0.225   0.541   6.401  0.4717 -0.7649 -0.4259
  113MOL0     C15179   0.120   0.637   6.388  0.0498 -0.3603 -0.3005
  113MOL0     C15180  -0.011   0.591   6.448 -0.0237 -0.2334  0.3722
  113MOL0     C15181  -0.012   0.597   6.600 -0.1446 -0.3128 -0.4294
  113MOL0     C15182  -0.072   0.730   6.660 -0.4447  0.0021 -0.8297
  113MOL0     C15183  -0.220   0.723   6.649  0.2133  0.6371 -0.0307
  113MOL0     C15184  -0.341   0.712   6.638 -1.0734 -0.8940 -0.0359
  113MOL0     C15185   0.332   0.353   6.342  0.2342 -0.6911  0.7543
  113MOL0     C15186   0.350   0.240   6.259  0.6936 -0.2509 -0.7005
  113MOL0     C15187   0.469   0.156   6.301 -0.3895  0.3400  0.1558
  113MOL0     H15188   0.264  -0.261   6.162 -2.2027 -2.1024  0.3590
  113MOL0     H15189   0.322  -0.450   6.013  1.4893  1.3899 -0.3781
  113MOL0     H15190   0.243  -0.410   5.567  2.3027  2.8418 -2.2373
  113MOL0     H15191   0.407  -0.353   5.617  2.9948 -1.2681 -0.6157
  113MOL0     H15192   0.342  -0.650   5.600  0.1248  0.3713  0.5839
  113MOL0     H15193   0.488  -0.573   5.645  0.3670 -0.8860 -0.2387
  113MOL0     H15194   0.444  -0.428   5.411 -0.6740  0.1490 -1.0420
  113MOL0     H15195   0.350  -0.570   5.376 -2.4984  2.5978  0.6018
  113MOL0     H15196   0.634  -0.636   5.455 -0.8896  0.5680 -0.4433
  113MOL0     H15197   0.526  -0.709   5.349  0.2375  0.8871 -3.0830
  113MOL0     H15198   0.531  -0.522   5.195  1.7037  0.0051 -2.0911
  113MOL0     H15199   0.672  -0.461   5.284 -0.8670  1.7714 -2.8316
  113MOL0     H15200   0.775  -0.703   5.243  0.2706 -1.6273 -1.3119
  113MOL0     H15201   0.652  -0.712   5.109 -0.7002 -1.2274  1.2723
  113MOL0     H15202   0.855  -0.492   5.150 -0.4415  1.9087 -0.7046
  113MOL0     H15203   0.747  -0.503   5.009  0.9204  0.3710  0.7276
  113MOL0     H15204   0.977  -0.695   5.095  1.9625  1.5131  0.3235
  113MOL0     H15205   0.869  -0.731   4.956  2.5867  0.3916 -1.3986
  113MOL0     H15206   1.154  -0.740   4.874 -1.7645 -0.5567  1.7879
  113MOL0     H15207   1.290  -0.462   4.649  3.1852 -1.1514 -2.2013
  113MOL0     H15208   1.361  -0.591   4.753  1.9112  1.3256 -0.4581
  113MOL0     H15209   1.354  -0.696   4.570  0.5656 -0.0313  1.3044
  113MOL0     H15210   1.207  -0.755   4.652 -3.5664  2.4375  0.7975
  113MOL0     H15211   1.232  -0.707   4.401  4.5173  2.1570  0.3207
  113MOL0     H15212   1.210  -0.540   4.431 -2.6768 -0.3662 -4.8236
  113MOL0     H15213   0.992  -0.663   4.361 -2.7537 -1.8091  1.4942
  113MOL0     H15214   0.988  -0.570   4.496  1.6789  0.7027 -0.5818
  113MOL0     H15215   0.923  -0.970   4.690  0.0017  1.1398 -0.0433
  113MOL0     H15216   0.714  -1.004   4.818  1.5299 -0.9100 -1.0164
  113MOL0     H15217   0.211  -0.892   4.736  0.7788  1.1982 -0.1237
  113MOL0     H15218  -0.023  -0.894   4.864  0.9684 -2.2642  1.4566
  113MOL0     H15219  -0.205  -0.702   4.972  2.2614  1.5380  0.0003
  113MOL0     H15220  -0.176  -0.884   4.991  3.4088 -0.1330  0.0488
  113MOL0     H15221  -0.307  -0.708   5.186  1.1810 -1.3565  1.3923
  113MOL0     H15222  -0.371  -0.837   5.086  1.4932  1.5771 -3.0301
  113MOL0     H15223  -0.341  -0.965   5.253  0.4583 -1.1922 -1.3055
  113MOL0     H15224  -0.175  -0.976   5.208  1.3235  2.3793  0.7213
  113MOL0     H15225  -0.203  -0.740   5.379  2.5348  0.4480 -0.5460
  113MOL0     H15226  -0.121  -0.896   5.418 -0.6437 -1.3127 -0.6708
  113MOL0     H15227  -0.415  -0.908   5.448  0.8781 -0.7236 -2.0873
  113MOL0     H15228  -0.324  -0.807   5.560 -0.5631  0.4255  0.1648
  113MOL0     H15229  -0.244  -1.099   5.500  1.3820  1.1608 -2.9211
  113MOL0     H15230  -0.182  -1.001   5.630  0.1843  0.6694 -0.8984
  113MOL0     H15231  -0.476  -1.073   5.597 -0.9265 -3.1122  0.6716
  113MOL0     H15232  -0.414  -0.992   5.736 -1.7966 -0.6713 -0.4250
  113MOL0     H15233  -0.458  -1.254   5.748  0.9389 -2.2026  2.0807
  113MOL0     H15234  -0.319  -1.268   5.632 -0.3178 -1.3548  1.4689
  113MOL0     H15235   0.151  -0.624   5.150 -4.4375  0.5902  0.0549
  113MOL0     H15236   0.358  -0.615   5.025  1.4069  1.5023 -3.8042
  113MOL0     H15237   0.569  -0.629   4.632 -0.9109 -0.0239  2.1033
  113MOL0     H15238   0.784  -0.601   4.534 -0.3241  0.5149  0.0759
  113MOL0     H15239   0.211  -0.203   5.680  2.3022  0.9848 -0.5220
  113MOL0     H15240   0.156  -0.023   5.838 -3.1041 -0.9421 -1.1466
  113MOL0     H15241   0.084   0.283   6.055  0.7083  0.3165 -0.3570
  113MOL0     H15242   0.048   0.462   6.192 -0.4388 -0.8012 -1.0332
  113MOL0     H15243   0.104   0.659   6.282  0.2303  0.3760 -0.1815
  113MOL0     H15244   0.144   0.736   6.428  0.7956  0.0429 -1.6836
  113MOL0     H15245  -0.024   0.489   6.411  0.6250  1.0885 -4.0276
  113MOL0     H15246  -0.098   0.646   6.412 -0.3383 -1.0530 -0.1695
  113MOL0     H15247   0.093   0.583   6.629  0.5027  1.1395 -1.8889
  113MOL0     H15248  -0.056   0.511   6.649  2.9629 -2.0773 -0.4438
  113MOL0     H15249  -0.047   0.749   6.765 -2.7067  0.7516 -0.3621
  113MOL0     H15250  -0.028   0.805   6.594  0.7361 -0.0780 -0.1528
  113MOL0     H15251  -0.448   0.707   6.639 -1.0219 -2.6526  0.1977
  113MOL0     H15252   0.402   0.374   6.422  1.8968 -2.4215 -0.1691
  113MOL0     H15253   0.479   0.063   6.244 -1.4569  2.1628 -3.3410
  113MOL0     H15254   0.558   0.214   6.273  3.1736 -3.6863  1.8943
  113MOL0     H15255   0.460   0.139   6.408 -0.6490 -0.9897 -0.0652
  114MOL0     O15256   2.727   1.392   3.900 -0.2183  0.6605  0.0641
  114MOL0     C15257   2.840   1.363   3.856 -0.2949 -0.6751  0.4527
  114MOL0     O15258   2.952   1.443   3.853  0.3900  0.1819  0.1475
  114MOL0     C15259   2.956   1.583   3.879 -0.3409 -0.6252 -0.0653
  114MOL0     C15260   3.060   1.651   3.817  0.5360 -0.4077  0.4984
  114MOL0     C15261   3.078   1.790   3.827 -0.0195  0.4573 -0.1160
  114MOL0     C15262   2.993   1.863   3.908 -0.8371 -0.1185  0.2161
  114MOL0     O15263   3.027   1.993   3.925  0.9672 -0.1309  0.1461
  114MOL0     C15264   2.930   2.073   3.990 -0.0920 -0.4361  0.3959
  114MOL0     C15265   2.971   2.221   3.984  0.0901  0.3996 -0.2498
  114MOL0     C15266   2.902   2.300   4.102 -0.7134  0.1659 -0.8411
  114MOL0     C15267   2.929   2.451   4.067 -0.3053 -0.4326  0.2171
  114MOL0     C15268   2.891   2.549   4.183  0.0464 -0.4661  0.1220
  114MOL0     C15269   2.874   2.684   4.119 -0.3794  0.1021  0.3921
  114MOL0     C15270   2.813   2.784   4.212  0.5144  0.5609 -0.2518
  114MOL0     C15271   2.893   2.818   4.333  0.7064 -0.4421 -0.6726
  114MOL0     N15272   3.004   2.910   4.320 -0.1552 -0.2209 -0.0886
  114MOL0     C15273   3.025   3.014   4.241 -0.5266  0.5245 -0.1916
  114MOL0     C15274   3.143   3.075   4.262 -0.7434 -0.4568  0.3352
  114MOL0     C15275   3.218   3.173   4.180 -0.2132  0.4410  0.1377
  114MOL0     C15276   3.195   3.324   4.213  0.6669 -0.6030  0.4180
  114MOL0     C15277   3.201   3.352   4.358 -0.2479  0.3907 -0.6705
  114MOL0     C15278   3.342   3.362   4.427  0.4563 -0.1417 -0.1867
  114MOL0     O15279   3.430   3.268   4.376 -0.3049 -0.0385  0.2012
  114MOL0     C15280   3.540   3.301   4.301 -0.3702 -0.3043  0.3772
  114MOL0     C15281   3.646   3.206   4.302 -0.6275 -0.3419  0.1395
  114MOL0     C15282   3.751   3.218   4.211  0.6936  0.5518 -0.1947
  114MOL0     C15283   3.760   3.333   4.135 -0.1618 -0.7193 -0.1287
  114MOL0     C15284   3.862   3.346   4.030 -0.3716  0.9921  0.5413
  114MOL0     O15285   3.907   3.462   3.993  0.0036  0.3734 -0.1488
  114MOL0     C15286   3.971   3.476   3.880 -0.3414 -1.4955  0.2998
  114MOL0     C15287   4.111   3.454   3.881 -0.0760  0.1653  0.3207
  114MOL0     C15288   4.170   3.451   3.760 -0.2234 -0.1280  0.5866
  114MOL0     C15289   4.109   3.486   3.640  0.2166 -0.0271 -0.3926
  114MOL0     O15290   4.173   3.497   3.522 -0.3668  0.5426  0.0687
  114MOL0     C15291   4.219   3.389   3.440  0.2170  0.1798 -0.0667
  114MOL0     C15292   4.343   3.423   3.363  0.0235 -0.3040 -0.2616
  114MOL0     C15293   4.369   3.308   3.259 -0.6845 -0.8819 -0.3674
  114MOL0     C15294   4.501   3.333   3.191 -0.6854 -0.1841  0.4385
  114MOL0     C15295   4.545   3.215   3.106 -0.8330  1.1958  0.1497
  114MOL0     C15296   4.656   3.235   3.007  0.5082 -0.1176  0.7319
  114MOL0     C15297   4.784   3.278   3.078 -0.7309  0.1967 -0.3225
  114MOL0     C15298   4.900   3.302   2.977  0.2828 -0.5902 -0.1455
  114MOL0    Cl15299   4.933   3.148   2.877  0.2303 -0.3065 -0.6749
  114MOL0     C15300   3.980   3.526   3.643 -1.1304 -0.9302  0.6234
  114MOL0     C15301   3.906   3.520   3.765  0.0974  0.1552  0.5439
  114MOL0     O15302   3.911   3.241   3.986  0.1665  0.7791  0.0854
  114MOL0     C15303   3.665   3.438   4.149 -0.7982 -0.5970 -0.0016
  114MOL0     C15304   3.541   3.414   4.213 -0.2051 -0.5134  0.0616
  114MOL0     N15305   3.199   2.999   4.366 -0.7187 -0.3813  0.0354
  114MOL0     N15306   3.123   2.900   4.387 -1.0720  0.2691 -0.4533
  114MOL0     C15307   2.900   1.789   3.981  0.1146  0.0092  0.6503
  114MOL0     C15308   2.872   1.659   3.956  0.1749 -0.2539 -0.3790
  114MOL0     C15309   2.860   1.227   3.800  0.9945  0.6334 -0.9629
  114MOL0     C15310   2.994   1.181   3.803  0.9487 -0.9249  0.5190
  114MOL0     C15311   3.031   1.060   3.743  0.2004  0.3512  0.2308
  114MOL0     C15312   2.938   0.985   3.672 -0.0889 -1.3727 -0.1130
  114MOL0     O15313   2.972   0.871   3.609 -0.4551 -0.0424  0.7751
  114MOL0     C15314   2.968   0.759   3.700 -0.4260 -0.5032  0.0024
  114MOL0     C15315   2.905   0.647   3.625  0.8021 -0.8467 -0.3708
  114MOL0     C15316   2.891   0.530   3.718 -0.6094 -0.1175 -0.8030
  114MOL0     C15317   2.906   0.395   3.646  0.6238 -0.0552 -0.6040
  114MOL0     C15318   2.798   0.394   3.543 -0.6285  0.2442  0.7821
  114MOL0     C15319   2.717   0.398   3.454 -0.9817  0.2454  0.5640
  114MOL0     C15320   2.801   1.030   3.672  0.5421 -0.0032 -0.0382
  114MOL0     C15321   2.762   1.156   3.730  0.1825 -0.2734  0.3742
  114MOL0     C15322   2.620   1.199   3.691  0.1703  0.2814 -0.6937
  114MOL0     H15323   3.140   1.591   3.773  1.5457 -1.3535  3.4210
  114MOL0     H15324   3.159   1.845   3.780 -0.2069  2.1703  1.4252
  114MOL0     H15325   2.828   2.058   3.954 -0.1813 -1.1383  0.9253
  114MOL0     H15326   2.915   2.052   4.096 -0.0848 -0.2288  0.4394
  114MOL0     H15327   2.950   2.272   3.890 -0.8384 -3.0540 -2.0649
  114MOL0     H15328   3.080   2.221   3.994  0.0434 -1.6043  0.7559
  114MOL0     H15329   2.949   2.287   4.199  0.0355  2.6064 -0.7887
  114MOL0     H15330   2.795   2.291   4.121 -0.3923  1.1545  1.7468
  114MOL0     H15331   3.033   2.471   4.043  0.0140 -0.5112  1.4593
  114MOL0     H15332   2.876   2.471   3.974 -0.6978  0.2480  0.5749
  114MOL0     H15333   2.802   2.515   4.236  0.0905  0.5967  0.9062
  114MOL0     H15334   2.979   2.548   4.248  0.4248  0.0784 -0.3769
  114MOL0     H15335   2.971   2.727   4.091 -0.8158  1.0827  0.3417
  114MOL0     H15336   2.823   2.668   4.023  1.4370 -1.2055 -0.4041
  114MOL0     H15337   2.715   2.752   4.248  0.7335  2.0722  1.8536
  114MOL0     H15338   2.793   2.875   4.153 -2.2809 -0.3724 -0.9171
  114MOL0     H15339   2.823   2.859   4.405  0.5068 -0.2285 -0.9852
  114MOL0     H15340   2.927   2.727   4.383  5.4317  2.0887  1.4347
  114MOL0     H15341   2.965   3.041   4.155 -2.5850  2.0549  1.6139
  114MOL0     H15342   3.326   3.164   4.196 -0.1450  1.2350  0.1408
  114MOL0     H15343   3.196   3.160   4.074  0.5312 -1.1199  0.1532
  114MOL0     H15344   3.264   3.389   4.158  3.1922 -1.8997  1.8766
  114MOL0     H15345   3.092   3.337   4.180  1.1546 -0.4741 -1.1273
  114MOL0     H15346   3.154   3.280   4.425  1.7098 -3.0857 -2.7688
  114MOL0     H15347   3.146   3.444   4.383  0.1914 -0.1338  2.6491
  114MOL0     H15348   3.333   3.337   4.533  0.1670 -3.8787 -0.9784
  114MOL0     H15349   3.382   3.464   4.423  3.9762 -1.4239 -3.2276
  114MOL0     H15350   3.653   3.122   4.370  0.9879  1.4602  2.4106
  114MOL0     H15351   3.825   3.139   4.216  2.1547  1.9314  1.7520
  114MOL0     H15352   4.152   3.414   3.973  1.4617 -0.3657 -0.5654
  114MOL0     H15353   4.270   3.408   3.753 -0.0281  0.2972  0.7537
  114MOL0     H15354   4.222   3.292   3.491  0.4742 -0.9255 -2.0686
  114MOL0     H15355   4.138   3.375   3.367  2.2676 -1.2025 -2.2568
  114MOL0     H15356   4.338   3.519   3.311  2.1430 -0.5636 -1.0433
  114MOL0     H15357   4.419   3.425   3.442  0.4521  0.8060 -0.6870
  114MOL0     H15358   4.374   3.213   3.314 -1.5650 -0.8440 -0.2020
  114MOL0     H15359   4.286   3.305   3.187 -0.8153 -0.7723 -0.2215
  114MOL0     H15360   4.573   3.338   3.273 -2.4858 -1.8313  2.2508
  114MOL0     H15361   4.505   3.422   3.128 -0.1902 -0.6141 -0.1551
  114MOL0     H15362   4.458   3.179   3.050 -0.9811  1.2486  0.3466
  114MOL0     H15363   4.575   3.134   3.173  1.4505  0.3088 -1.7872
  114MOL0     H15364   4.659   3.136   2.960 -1.1933  0.7245 -1.3449
  114MOL0     H15365   4.625   3.314   2.938  0.6337 -1.1660 -0.5773
  114MOL0     H15366   4.812   3.194   3.142 -0.4305 -1.0682 -2.0340
  114MOL0     H15367   4.773   3.364   3.145  0.3169  1.5477 -1.8061
  114MOL0     H15368   4.874   3.382   2.908  2.7818  0.4219 -0.0095
  114MOL0     H15369   4.987   3.322   3.039  1.9820 -3.4051 -1.3882
  114MOL0     H15370   3.949   3.563   3.545  2.9980 -0.2563 -0.6000
  114MOL0     H15371   3.806   3.559   3.778  0.8600  1.4235  3.7791
  114MOL0     H15372   3.675   3.525   4.085 -2.7434  0.7412  1.3833
  114MOL0     H15373   3.468   3.494   4.210 -0.6125 -0.9081 -2.3205
  114MOL0     H15374   2.834   1.838   4.053 -4.0025  1.2088 -3.4142
  114MOL0     H15375   2.784   1.621   4.008 -0.0389  1.6213  0.7250
  114MOL0     H15376   3.079   1.241   3.834 -1.3152  2.3645  0.9091
  114MOL0     H15377   3.132   1.025   3.726  0.5744  1.9864 -1.3451
  114MOL0     H15378   2.918   0.780   3.795  1.3245 -0.8905  1.0631
  114MOL0     H15379   3.072   0.729   3.720 -0.2193  0.9241  1.2940
  114MOL0     H15380   2.969   0.615   3.542  1.1666 -2.1279  0.3646
  114MOL0     H15381   2.807   0.681   3.590  0.9683  0.3318  0.2524
  114MOL0     H15382   2.796   0.530   3.771 -0.7682 -1.9103 -1.0344
  114MOL0     H15383   2.971   0.528   3.793 -1.8652 -1.0053  0.5454
  114MOL0     H15384   3.000   0.385   3.590  1.2144 -1.1076  0.5200
  114MOL0     H15385   2.906   0.304   3.707  3.0066  0.7972  0.8097
  114MOL0     H15386   2.644   0.398   3.376  0.7365  0.8134 -1.1200
  114MOL0     H15387   2.728   0.974   3.614  0.7406  1.0024 -1.2877
  114MOL0     H15388   2.600   1.152   3.594  0.6379 -0.2844 -0.5239
  114MOL0     H15389   2.542   1.156   3.755 -1.8294 -2.2888 -4.4522
  114MOL0     H15390   2.608   1.306   3.675  1.7042  0.2461 -2.5019
  115MOL0     O15391   3.085   7.248   0.494  0.3951  0.1503  0.2194
  115MOL0     C15392   3.171   7.284   0.573  0.0112 -0.3319 -0.0570
  115MOL0     O15393   3.140   7.360   0.690 -0.0787  0.9133 -0.1552
  115MOL0     C15394   3.020   7.422   0.677  0.0036 -0.1580  0.9019
  115MOL0     C15395   2.914   7.357   0.740 -0.6980  0.4229  1.0906
  115MOL0     C15396   2.784   7.399   0.734 -0.6656  0.1575  0.1066
  115MOL0     C15397   2.754   7.518   0.666  0.1419  0.3694 -0.9560
  115MOL0     O15398   2.626   7.564   0.647  0.5400  0.4457  0.5417
  115MOL0     C15399   2.514   7.486   0.695 -0.7097 -0.3881  0.2500
  115MOL0     C15400   2.391   7.574   0.685  0.0849 -0.1840 -0.1824
  115MOL0     C15401   2.269   7.486   0.653 -0.5276 -0.1893  0.8309
  115MOL0     C15402   2.132   7.549   0.662  0.5212  0.6107 -0.5781
  115MOL0     C15403   2.013   7.461   0.616 -0.3945  0.7172  0.6731
  115MOL0     C15404   2.023   7.436   0.470 -0.3447 -0.3404  0.4041
  115MOL0     C15405   1.900   7.359   0.418 -0.6749  0.2195  0.4737
  115MOL0     C15406   1.931   7.311   0.276  0.1963 -0.2461  0.8691
  115MOL0     N15407   2.037   7.205   0.266 -0.0473 -0.2115  0.2759
  115MOL0     C15408   2.024   7.092   0.326  0.1396  0.7166 -0.2063
  115MOL0     C15409   2.132   7.018   0.290 -0.3384 -0.4898 -0.0450
  115MOL0     C15410   2.159   6.885   0.347  0.1377 -0.9102 -0.2520
  115MOL0     C15411   2.080   6.769   0.290 -0.0599 -0.9055 -0.3197
  115MOL0     C15412   2.064   6.760   0.136 -0.6316 -0.6721  0.0012
  115MOL0     C15413   1.996   6.634   0.084 -0.5891 -0.5855 -0.0790
  115MOL0     O15414   1.854   6.655   0.122 -0.1173  0.1197 -0.2762
  115MOL0     C15415   1.774   6.550   0.116 -0.4122  0.7543  0.9082
  115MOL0     C15416   1.823   6.419   0.089  0.1178  1.0123  0.3680
  115MOL0     C15417   1.731   6.311   0.081 -0.6025 -0.6249 -0.3548
  115MOL0     C15418   1.591   6.333   0.102  0.0977 -0.4091 -0.4246
  115MOL0     C15419   1.496   6.219   0.099 -0.5300 -0.1890 -0.5722
  115MOL0     O15420   1.545   6.093   0.079 -0.1338  1.0606 -0.0044
  115MOL0     C15421   1.476   5.972   0.102  0.7988 -0.4085 -0.0717
  115MOL0     C15422   1.342   5.947   0.071  0.7576  0.0697 -0.2713
  115MOL0     C15423   1.292   5.820   0.085 -0.3592 -0.0292 -0.2850
  115MOL0     C15424   1.372   5.712   0.138 -0.6377  0.0759  0.0598
  115MOL0     O15425   1.323   5.576   0.165  0.6340 -1.6122 -0.0184
  115MOL0     C15426   1.303   5.503   0.049 -0.1468  1.2510 -0.6273
  115MOL0     C15427   1.192   5.396   0.089  0.2442 -0.1564  0.3627
  115MOL0     C15428   1.233   5.295   0.197  0.6992  0.1674  0.7864
  115MOL0     C15429   1.139   5.175   0.213 -0.3996 -0.3386 -1.0037
  115MOL0     C15430   1.028   5.191   0.323  0.0339  0.8380 -0.5484
  115MOL0     C15431   0.963   5.057   0.368 -0.0529  0.2510  0.5890
  115MOL0     C15432   0.854   5.009   0.270 -0.5806  0.6889 -0.7132
  115MOL0     C15433   0.773   4.900   0.320  1.2534  0.1013 -1.1511
  115MOL0    Cl15434   0.686   4.955   0.470  0.1404  0.0003  0.0004
  115MOL0     C15435   1.505   5.744   0.173  0.3205  0.0840 -0.2352
  115MOL0     C15436   1.554   5.872   0.149  0.2968  0.4267  0.2268
  115MOL0     O15437   1.376   6.238   0.108  0.4730 -0.5333 -0.1212
  115MOL0     C15438   1.547   6.462   0.152  0.6724  0.2186 -0.9186
  115MOL0     C15439   1.635   6.564   0.154 -0.6286 -0.1566 -0.3902
  115MOL0     N15440   2.211   7.093   0.208  0.6423  0.7832 -0.3705
  115MOL0     N15441   2.150   7.213   0.204 -0.9599 -0.1969 -0.4450
  115MOL0     C15442   2.855   7.601   0.622 -0.3499  0.1280 -0.7694
  115MOL0     C15443   2.988   7.552   0.628 -0.3988 -0.1076  0.4910
  115MOL0     C15444   3.314   7.246   0.555  0.4490 -0.4540  0.7545
  115MOL0     C15445   3.407   7.311   0.638 -0.3850 -0.3492  0.1611
  115MOL0     C15446   3.549   7.293   0.627  0.3549  0.0111  0.5385
  115MOL0     C15447   3.603   7.203   0.533  0.6979 -0.1116 -0.7158
  115MOL0     O15448   3.735   7.169   0.540  0.4994  0.1444 -0.0480
  115MOL0     C15449   3.794   7.069   0.454  0.0244  0.6552  0.7911
  115MOL0     C15450   3.937   7.076   0.485 -0.1088 -0.1571 -0.1964
  115MOL0     C15451   3.991   7.216   0.435  0.0234  0.5251 -0.6624
  115MOL0     C15452   4.136   7.244   0.485  0.0664 -0.7192  0.4188
  115MOL0     C15453   4.227   7.138   0.514 -0.3154  0.2051  0.4988
  115MOL0     C15454   4.315   7.056   0.540  0.4534 -0.7201 -0.1272
  115MOL0     C15455   3.515   7.139   0.447  0.5563  0.5432  0.1706
  115MOL0     C15456   3.375   7.153   0.460 -0.0525  0.3931 -0.2396
  115MOL0     C15457   3.292   7.076   0.361  0.8459 -0.6987 -0.5650
  115MOL0     H15458   2.951   7.271   0.796  0.9207 -0.8413 -1.7429
  115MOL0     H15459   2.704   7.339   0.777 -0.1039 -1.4983 -1.0464
  115MOL0     H15460   2.505   7.390   0.643  0.3870  0.5443 -1.7258
  115MOL0     H15461   2.527   7.458   0.800 -1.0609  0.2802  0.4774
  115MOL0     H15462   2.406   7.657   0.616  0.5564 -0.1445 -0.0309
  115MOL0     H15463   2.371   7.618   0.783 -2.0519 -0.0579 -0.6265
  115MOL0     H15464   2.266   7.388   0.701  0.8730 -1.9511 -2.3586
  115MOL0     H15465   2.282   7.462   0.547  0.5623 -2.5761  1.4149
  115MOL0     H15466   2.108   7.568   0.767 -0.0967 -1.6864 -0.2445
  115MOL0     H15467   2.135   7.639   0.600  0.6855  0.4647 -0.7843
  115MOL0     H15468   2.025   7.365   0.668  2.8787 -0.4843 -1.9627
  115MOL0     H15469   1.919   7.514   0.635 -0.7220  1.7614 -3.0880
  115MOL0     H15470   2.016   7.535   0.424  3.3178 -0.1409 -0.0241
  115MOL0     H15471   2.113   7.377   0.450 -1.6808 -2.0509 -0.8868
  115MOL0     H15472   1.808   7.417   0.418 -0.0037  1.5122 -2.7263
  115MOL0     H15473   1.887   7.271   0.482  0.5532 -0.6262 -0.3852
  115MOL0     H15474   1.847   7.273   0.217  1.2065 -1.2686  0.0491
  115MOL0     H15475   1.960   7.397   0.216  1.7578 -1.9197 -0.9177
  115MOL0     H15476   1.938   7.053   0.379  0.0523  1.2088  0.0127
  115MOL0     H15477   2.265   6.859   0.352 -0.1422 -2.8848 -2.4424
  115MOL0     H15478   2.128   6.882   0.452  0.0189 -2.8552 -0.3026
  115MOL0     H15479   2.135   6.680   0.321  4.0053  1.4518  0.0413
  115MOL0     H15480   1.978   6.763   0.328 -0.8808 -0.0481 -2.2567
  115MOL0     H15481   2.165   6.761   0.094 -0.7692 -0.0251 -0.3405
  115MOL0     H15482   2.013   6.842   0.084  0.0415 -0.0039  0.3869
  115MOL0     H15483   2.047   6.550   0.133 -0.7207 -1.0174 -0.6731
  115MOL0     H15484   1.998   6.631  -0.025 -3.5063 -1.6333 -0.1931
  115MOL0     H15485   1.927   6.393   0.073  0.0128  1.0234 -0.4095
  115MOL0     H15486   1.764   6.209   0.062 -0.9794 -0.2904 -3.4250
  115MOL0     H15487   1.279   6.028   0.034 -1.8305 -0.9215  1.6482
  115MOL0     H15488   1.188   5.799   0.061 -0.6322 -1.1017  1.6036
  115MOL0     H15489   1.262   5.573  -0.024 -2.0229 -1.5464 -2.4452
  115MOL0     H15490   1.393   5.457   0.007 -1.4048 -2.5180  0.4985
  115MOL0     H15491   1.098   5.450   0.108  0.8892  0.9260  0.5271
  115MOL0     H15492   1.164   5.341  -0.001  0.3400  0.5252 -0.0938
  115MOL0     H15493   1.328   5.251   0.166  1.6863  2.3665  0.5001
  115MOL0     H15494   1.243   5.347   0.292  0.5356 -0.8909  1.3998
  115MOL0     H15495   1.200   5.087   0.232  0.6061  0.2451 -1.4420
  115MOL0     H15496   1.090   5.156   0.117  0.2646 -1.1937 -1.1864
  115MOL0     H15497   0.940   5.242   0.282 -1.0084 -0.0749  0.4958
  115MOL0     H15498   1.067   5.250   0.407  1.1117  0.8333 -1.0238
  115MOL0     H15499   1.043   4.982   0.361  0.6180  1.1203 -2.1893
  115MOL0     H15500   0.918   5.065   0.468  0.4015 -3.6105  1.2964
  115MOL0     H15501   0.900   4.979   0.175 -0.2579 -0.0599 -0.3298
  115MOL0     H15502   0.779   5.082   0.238 -1.4311 -0.0885 -0.5073
  115MOL0     H15503   0.701   4.885   0.239  0.3411 -0.7842 -0.1988
  115MOL0     H15504   0.819   4.803   0.338 -4.8697 -3.3768 -1.3648
  115MOL0     H15505   1.574   5.674   0.219  2.9257  3.8095  2.1387
  115MOL0     H15506   1.658   5.887   0.177  0.0176 -0.3545  1.7447
  115MOL0     H15507   1.447   6.482   0.187  1.1249  0.6614  0.1767
  115MOL0     H15508   1.600   6.663   0.182  1.5693  0.3749  0.6867
  115MOL0     H15509   2.839   7.697   0.574  1.0286  2.2255  2.5525
  115MOL0     H15510   3.075   7.612   0.603 -1.9354  3.0326  2.1222
  115MOL0     H15511   3.378   7.383   0.714  2.6161  0.1453  0.9681
  115MOL0     H15512   3.607   7.352   0.697 -1.3033  1.1865  0.9819
  115MOL0     H15513   3.780   7.087   0.347  1.6380  2.8789  0.8799
  115MOL0     H15514   3.750   6.974   0.486 -0.8775  0.3556 -1.1496
  115MOL0     H15515   3.983   6.999   0.422 -2.5705 -0.6986 -1.4817
  115MOL0     H15516   3.955   7.070   0.592  1.1549  3.8917 -0.0137
  115MOL0     H15517   3.931   7.300   0.470  4.5411  2.8226  2.5864
  115MOL0     H15518   3.986   7.216   0.326 -1.0889 -2.3275 -0.7060
  115MOL0     H15519   4.189   7.308   0.413  1.5708 -2.5753 -0.2213
  115MOL0     H15520   4.127   7.307   0.574 -3.0759 -2.1564  1.2614
  115MOL0     H15521   4.394   6.990   0.569  0.7507  0.0986  1.0007
  115MOL0     H15522   3.550   7.064   0.376 -1.4895 -0.7399  0.4276
  115MOL0     H15523   3.242   7.149   0.296  2.2525  2.5937  1.7190
  115MOL0     H15524   3.351   7.013   0.295  1.5007  0.4880 -1.1601
  115MOL0     H15525   3.217   7.020   0.417 -1.1121  1.5979 -0.7117
  116MOL0     O15526   1.944   4.720   4.916 -0.4745  0.1802  0.3536
  116MOL0     C15527   1.841   4.764   4.874 -0.4880 -0.9606  1.0114
  116MOL0     O15528   1.729   4.777   4.947 -0.1487  0.1130  0.0932
  116MOL0     C15529   1.726   4.773   5.078 -0.0709  0.3003  0.4039
  116MOL0     C15530   1.828   4.835   5.154  0.3450 -0.1480 -0.1906
  116MOL0     C15531   1.818   4.853   5.296 -0.8900  0.3423  0.3328
  116MOL0     C15532   1.698   4.806   5.349  0.5887 -0.4963 -1.0822
  116MOL0     O15533   1.666   4.808   5.489 -0.1422  0.2305  0.0377
  116MOL0     C15534   1.737   4.898   5.572  0.6731 -0.0517  0.2773
  116MOL0     C15535   1.653   4.915   5.696 -0.8466 -0.3736  0.3058
  116MOL0     C15536   1.520   4.996   5.673  0.6288 -0.3263 -0.0537
  116MOL0     C15537   1.442   5.028   5.802 -0.4803  0.9100  0.2417
  116MOL0     C15538   1.330   5.120   5.766 -0.4102 -0.9127 -0.2329
  116MOL0     C15539   1.293   5.200   5.888 -0.1009 -0.0381  0.2695
  116MOL0     C15540   1.205   5.313   5.845  0.7636  0.4584  0.8794
  116MOL0     C15541   1.150   5.417   5.960  0.1211  0.0547  0.2493
  116MOL0     N15542   1.259   5.514   5.976  0.0639 -1.2178  0.0915
  116MOL0     C15543   1.378   5.488   6.035 -0.1537 -1.4480 -0.0820
  116MOL0     C15544   1.451   5.606   6.025 -0.0351 -0.4782  0.2926
  116MOL0     C15545   1.587   5.656   6.072 -0.1261  0.0541 -0.7642
  116MOL0     C15546   1.631   5.597   6.210  0.3240  0.7011  0.8573
  116MOL0     C15547   1.581   5.674   6.329  0.8987  0.5378 -0.2595
  116MOL0     C15548   1.606   5.604   6.463 -0.5430  0.4478 -0.4541
  116MOL0     O15549   1.562   5.678   6.582  0.3830 -0.6653  0.7800
  116MOL0     C15550   1.585   5.627   6.708  0.3041 -0.1865 -0.1857
  116MOL0     C15551   1.721   5.610   6.759  0.1752 -1.1847  0.1192
  116MOL0     C15552   1.748   5.574   6.896  0.2331  0.9559 -0.7784
  116MOL0     C15553   1.637   5.551   6.979  0.5042 -0.1948  0.4079
  116MOL0     C15554   1.650   5.502   7.118 -0.8574  0.1340 -0.2186
  116MOL0     O15555   1.560   5.416   7.167  0.0344 -0.5366  0.1243
  116MOL0     C15556   1.568   5.367   7.298 -0.3542  0.7591  1.2173
  116MOL0     C15557   1.588   5.444   7.418 -0.5903  0.4700  0.7760
  116MOL0     C15558   1.598   5.387   7.548  0.4830  0.2983 -0.3075
  116MOL0     C15559   1.597   5.250   7.555  0.1969 -0.3165  0.2754
  116MOL0     O15560   1.624   5.189   7.678 -0.2370 -0.3044  0.3104
  116MOL0     C15561   1.542   5.235   7.789  0.2894  0.5765 -0.1099
  116MOL0     C15562   1.526   5.117   7.881 -0.3289  0.4090 -0.9934
  116MOL0     C15563   1.452   5.161   8.008 -0.0254 -0.8746 -0.3601
  116MOL0     C15564   1.433   5.063   8.112 -0.1781 -0.5499  0.0156
  116MOL0     C15565   1.298   5.081   8.186  0.5700 -0.7227 -0.8336
  116MOL0     C15566   1.296   5.003   8.314 -0.4208 -0.4903  0.2071
  116MOL0     C15567   1.160   5.018   8.387  1.2619 -0.0916 -0.1996
  116MOL0     C15568   1.142   4.925   8.509 -0.1627 -0.1364 -0.3135
  116MOL0    Cl15569   0.964   4.889   8.529 -0.4631 -0.0526 -0.0425
  116MOL0     C15570   1.581   5.174   7.440 -0.5584 -0.0100 -0.0082
  116MOL0     C15571   1.558   5.231   7.321  0.3211 -0.4698 -0.6165
  116MOL0     O15572   1.748   5.537   7.176  1.0860  0.8531 -0.7386
  116MOL0     C15573   1.511   5.555   6.925  0.7711  0.1694 -0.0373
  116MOL0     C15574   1.474   5.598   6.797 -0.1179  0.2533  0.1708
  116MOL0     N15575   1.370   5.699   5.963  0.0127  0.9540  0.2475
  116MOL0     N15576   1.257   5.647   5.926 -0.1852  0.3637 -0.1915
  116MOL0     C15577   1.602   4.734   5.277  0.0439  0.3140  0.3711
  116MOL0     C15578   1.621   4.708   5.146 -0.2744  0.4685  0.6568
  116MOL0     C15579   1.817   4.788   4.730  0.9759 -0.0053 -0.4251
  116MOL0     C15580   1.925   4.752   4.644  0.6569  0.5114  0.0928
  116MOL0     C15581   1.911   4.777   4.507 -0.8007 -0.4166  0.4316
  116MOL0     C15582   1.800   4.841   4.455 -0.3745 -0.0342  0.5107
  116MOL0     O15583   1.804   4.890   4.323  0.5535  0.0561 -0.4927
  116MOL0     C15584   1.731   4.999   4.281  0.6830 -0.4498  0.0022
  116MOL0     C15585   1.781   5.124   4.346 -1.4844  0.8168 -0.0293
  116MOL0     C15586   1.716   5.248   4.280  0.5626  0.0269 -0.5262
  116MOL0     C15587   1.565   5.258   4.320  0.2509 -0.2019  0.0320
  116MOL0     C15588   1.557   5.288   4.466 -0.4462 -0.1240  0.5953
  116MOL0     C15589   1.532   5.267   4.581  0.0137  0.8335  0.6398
  116MOL0     C15590   1.691   4.862   4.535  0.0018 -0.2083 -0.4395
  116MOL0     C15591   1.697   4.842   4.677  0.6474 -0.0967 -0.7877
  116MOL0     C15592   1.564   4.890   4.756 -0.4684  0.7671 -0.0631
  116MOL0     H15593   1.918   4.874   5.109  1.9263 -1.6330  1.5512
  116MOL0     H15594   1.900   4.896   5.353 -0.1512 -1.1817  0.4471
  116MOL0     H15595   1.837   4.857   5.588  2.1912  3.0708 -0.4037
  116MOL0     H15596   1.758   4.998   5.533 -1.4138  0.0425 -0.7677
  116MOL0     H15597   1.715   4.977   5.761  0.1553 -3.1864  2.2209
  116MOL0     H15598   1.638   4.816   5.740 -1.8796 -0.2127  0.3339
  116MOL0     H15599   1.455   4.947   5.600 -0.0937  0.0061  0.3520
  116MOL0     H15600   1.543   5.097   5.640 -2.3058  0.3245 -0.3811
  116MOL0     H15601   1.409   4.935   5.849 -0.2615  0.7188  0.0237
  116MOL0     H15602   1.511   5.071   5.875 -0.1107 -0.0389  0.4786
  116MOL0     H15603   1.362   5.187   5.686 -0.6199  1.0078  1.2259
  116MOL0     H15604   1.237   5.070   5.735 -2.1189  2.5139 -1.2102
  116MOL0     H15605   1.235   5.140   5.959 -1.1145  0.0387 -0.4794
  116MOL0     H15606   1.386   5.240   5.928  1.6273 -0.9475 -2.5518
  116MOL0     H15607   1.111   5.273   5.807  1.0823  0.2358  0.3228
  116MOL0     H15608   1.250   5.364   5.759  2.3146  0.0025  1.3904
  116MOL0     H15609   1.059   5.466   5.923  0.5420  0.3115 -0.4838
  116MOL0     H15610   1.136   5.373   6.059 -1.8786 -0.2005 -0.1080
  116MOL0     H15611   1.423   5.403   6.086  3.3553  0.2535 -0.0658
  116MOL0     H15612   1.665   5.639   5.997 -1.0841  2.6939 -2.4694
  116MOL0     H15613   1.579   5.765   6.073  0.3151  0.0952 -1.2158
  116MOL0     H15614   1.586   5.498   6.220  1.2987 -0.4871 -3.8122
  116MOL0     H15615   1.739   5.583   6.221  0.8216  1.4430 -2.1212
  116MOL0     H15616   1.474   5.695   6.329  1.0567  2.3002 -4.1802
  116MOL0     H15617   1.633   5.771   6.333  2.9112 -0.5241  0.6089
  116MOL0     H15618   1.715   5.606   6.466 -0.5637  1.6024  0.0833
  116MOL0     H15619   1.561   5.504   6.467 -1.6671  0.9522  0.1220
  116MOL0     H15620   1.804   5.629   6.692 -1.3547  2.0390 -1.0745
  116MOL0     H15621   1.849   5.571   6.937  0.6591 -0.0049 -1.8524
  116MOL0     H15622   1.600   5.551   7.405  1.5250  0.0295 -1.8300
  116MOL0     H15623   1.607   5.450   7.636 -1.8810 -1.3815  1.2325
  116MOL0     H15624   1.587   5.319   7.842 -0.0573  0.8117 -0.1774
  116MOL0     H15625   1.438   5.266   7.773  0.5108  1.5509  0.2437
  116MOL0     H15626   1.481   5.032   7.829 -1.5037 -0.7526  1.7574
  116MOL0     H15627   1.625   5.084   7.914 -1.1734 -0.3525  0.9191
  116MOL0     H15628   1.509   5.243   8.054  0.5864 -1.0322 -0.8290
  116MOL0     H15629   1.355   5.205   7.981  0.4459  0.4446  0.0030
  116MOL0     H15630   1.515   5.082   8.181  1.1602  0.0630 -1.6673
  116MOL0     H15631   1.459   4.965   8.072  2.2488 -0.0726  0.2753
  116MOL0     H15632   1.222   5.034   8.122 -0.4000  3.7395 -3.3842
  116MOL0     H15633   1.265   5.183   8.205  0.0860 -1.4828  3.0979
  116MOL0     H15634   1.324   4.899   8.296  3.0753  0.3916 -0.2993
  116MOL0     H15635   1.378   5.040   8.376  1.1657 -5.6696  1.6490
  116MOL0     H15636   1.090   4.984   8.310  3.0026  0.3616 -2.0956
  116MOL0     H15637   1.139   5.119   8.425 -2.7178 -1.3684  1.5694
  116MOL0     H15638   1.190   4.827   8.502 -0.5105 -0.2925 -0.5681
  116MOL0     H15639   1.190   4.976   8.593  4.6544  0.5167 -3.0930
  116MOL0     H15640   1.573   5.066   7.444  0.5798 -0.2549 -2.3750
  116MOL0     H15641   1.537   5.165   7.238 -1.8439 -1.4846  0.6407
  116MOL0     H15642   1.421   5.523   6.977 -0.4826  0.7129 -1.7684
  116MOL0     H15643   1.374   5.598   6.755 -1.5468  0.6576  3.2238
  116MOL0     H15644   1.511   4.702   5.327  0.0186 -5.1639 -2.4311
  116MOL0     H15645   1.549   4.659   5.082 -2.4072  0.0431  3.2065
  116MOL0     H15646   2.016   4.705   4.679  0.4957  0.9152  1.0953
  116MOL0     H15647   1.991   4.745   4.441  0.2974 -1.3609  2.1156
  116MOL0     H15648   1.624   4.983   4.296  0.7514 -1.1541 -0.2557
  116MOL0     H15649   1.752   5.017   4.175 -1.1833 -0.9513 -0.4829
  116MOL0     H15650   1.887   5.133   4.321 -1.4294  2.5383  0.6951
  116MOL0     H15651   1.769   5.129   4.454 -2.7469  4.4779 -0.2186
  116MOL0     H15652   1.718   5.241   4.171  0.3915 -0.9897 -0.4778
  116MOL0     H15653   1.766   5.336   4.320  0.4528 -0.7355  1.4119
  116MOL0     H15654   1.525   5.349   4.274 -0.4377  0.6728  2.2365
  116MOL0     H15655   1.514   5.168   4.284 -1.8913  0.4699  1.2231
  116MOL0     H15656   1.493   5.241   4.678  0.3833  1.2324  0.8979
  116MOL0     H15657   1.598   4.905   4.499  0.4695  0.8003 -0.4686
  116MOL0     H15658   1.571   4.982   4.816  0.6313  1.5183 -1.2750
  116MOL0     H15659   1.481   4.911   4.689  0.2430 -0.3043 -1.3217
  116MOL0     H15660   1.543   4.812   4.830  2.3994  1.2920  1.4718
  117MOL0     O15661   6.666   3.949   4.323 -0.1661 -0.3965 -0.0494
  117MOL0     C15662   6.657   3.905   4.434 -0.7144 -0.4557 -0.7828
  117MOL0     O15663   6.555   3.838   4.490  0.6276 -0.5548  0.1012
  117MOL0     C15664   6.446   3.816   4.409  0.3287  0.1877 -0.5756
  117MOL0     C15665   6.445   3.694   4.341  0.3960  0.4748 -0.0539
  117MOL0     C15666   6.356   3.670   4.237  0.4102  1.0657 -0.0100
  117MOL0     C15667   6.265   3.770   4.202 -0.1096 -0.8325 -1.1408
  117MOL0     O15668   6.176   3.736   4.101  0.1489 -0.7097 -0.3377
  117MOL0     C15669   6.070   3.820   4.056  0.7311  0.4151  0.4363
  117MOL0     C15670   5.993   3.769   3.928 -0.6817 -0.0675 -0.1261
  117MOL0     C15671   5.973   3.612   3.931  0.6749  0.0303  0.1788
  117MOL0     C15672   5.877   3.573   4.062  0.4593  0.4078  0.2615
  117MOL0     C15673   5.829   3.427   4.050  0.4401 -0.2797 -1.3191
  117MOL0     C15674   5.753   3.387   4.180  0.2903 -0.1046  0.3687
  117MOL0     C15675   5.847   3.352   4.299  0.2655  0.4227  0.1104
  117MOL0     C15676   5.916   3.211   4.296  1.2087 -0.1330  0.1005
  117MOL0     N15677   5.827   3.096   4.313 -0.3057  0.3988  0.3124
  117MOL0     C15678   5.759   3.065   4.432 -0.4210  0.3789  0.4076
  117MOL0     C15679   5.705   2.945   4.414  0.1960  0.3119  0.7015
  117MOL0     C15680   5.602   2.878   4.511 -0.1025  0.1786  0.7019
  117MOL0     C15681   5.495   2.796   4.447  0.0739 -0.3834 -1.1130
  117MOL0     C15682   5.399   2.755   4.557  0.4128  0.1550 -0.5281
  117MOL0     C15683   5.299   2.651   4.508  0.0546  0.9065  0.3065
  117MOL0     O15684   5.368   2.528   4.487 -0.0376  0.0982 -0.4266
  117MOL0     C15685   5.288   2.417   4.498  0.3088 -0.3290 -0.2191
  117MOL0     C15686   5.229   2.380   4.380 -0.2238 -0.3761 -0.2965
  117MOL0     C15687   5.146   2.270   4.362  0.5162 -0.4759 -0.1899
  117MOL0     C15688   5.134   2.181   4.475 -0.2233 -0.3149  0.1601
  117MOL0     C15689   5.064   2.053   4.467 -0.0321  0.1646  0.1075
  117MOL0     O15690   4.982   2.038   4.353  0.7124  0.2991 -0.4899
  117MOL0     C15691   4.892   1.939   4.334  0.0358 -0.0918  0.6008
  117MOL0     C15692   4.895   1.877   4.212  0.0976 -0.3124  0.6917
  117MOL0     C15693   4.790   1.785   4.184  0.2434 -0.8656  0.4344
  117MOL0     C15694   4.693   1.757   4.279 -0.0791  0.5653 -0.1676
  117MOL0     O15695   4.593   1.666   4.242 -0.4209 -0.7972  0.3323
  117MOL0     C15696   4.456   1.685   4.297 -0.3171 -0.0773 -0.3620
  117MOL0     C15697   4.335   1.627   4.215  0.8532 -0.1552  0.4166
  117MOL0     C15698   4.371   1.526   4.109  0.4318  1.4560  0.1894
  117MOL0     C15699   4.418   1.394   4.174  0.2685  0.0932  0.6356
  117MOL0     C15700   4.460   1.297   4.063  0.0363  0.7186 -0.7255
  117MOL0     C15701   4.482   1.160   4.132 -0.0412 -0.6003  0.3398
  117MOL0     C15702   4.515   1.047   4.030  0.1854  0.1470 -0.3997
  117MOL0     C15703   4.664   1.030   3.988 -1.0672  0.1942  0.8028
  117MOL0    Cl15704   4.764   1.003   4.138  0.1779  0.5186  0.4362
  117MOL0     C15705   4.702   1.813   4.406  0.1742  0.3140  1.2028
  117MOL0     C15706   4.793   1.909   4.431 -0.0740 -0.3975  0.0796
  117MOL0     O15707   5.082   1.968   4.556 -0.0789  0.3840 -0.1309
  117MOL0     C15708   5.205   2.212   4.594  0.1150 -0.1043  0.6305
  117MOL0     C15709   5.282   2.325   4.604 -0.2305  0.4286 -1.4673
  117MOL0     N15710   5.753   2.890   4.300  0.5444 -0.1711  0.3392
  117MOL0     N15711   5.828   2.978   4.240  0.0038 -0.0037  0.6807
  117MOL0     C15712   6.260   3.889   4.273  0.9038  0.5012 -0.2519
  117MOL0     C15713   6.348   3.913   4.384  0.9692  0.2372  0.5072
  117MOL0     C15714   6.787   3.891   4.509 -0.0641  0.2743  0.6009
  117MOL0     C15715   6.807   3.754   4.535  0.6887  0.3098  0.4431
  117MOL0     C15716   6.940   3.725   4.576 -0.2150  0.2107 -1.2486
  117MOL0     C15717   7.032   3.817   4.614  0.3207 -0.4474  0.0488
  117MOL0     O15718   7.145   3.779   4.664 -0.5671  0.4673  0.2053
  117MOL0     C15719   7.245   3.876   4.711 -0.0851  0.6771 -0.0249
  117MOL0     C15720   7.362   3.794   4.751 -0.8835 -0.0921  0.3739
  117MOL0     C15721   7.437   3.860   4.872  0.0886  0.4006 -0.8173
  117MOL0     C15722   7.594   3.824   4.879  0.0336  0.1551  0.2116
  117MOL0     C15723   7.600   3.680   4.924  0.5949 -0.5130  0.5857
  117MOL0     C15724   7.613   3.561   4.956 -0.7532  0.1764  0.2639
  117MOL0     C15725   6.996   3.952   4.596 -0.4920  1.4039  1.8554
  117MOL0     C15726   6.879   3.991   4.541  0.4184 -0.2410 -0.6641
  117MOL0     C15727   6.867   4.135   4.502  0.2892  0.5525 -0.1623
  117MOL0     H15728   6.506   3.613   4.381 -3.2825 -2.0925  0.8032
  117MOL0     H15729   6.346   3.571   4.193 -3.4223 -0.7606  4.1012
  117MOL0     H15730   6.006   3.811   4.144 -0.3454 -0.6783 -0.4217
  117MOL0     H15731   6.097   3.926   4.050 -0.5993  0.7568  0.0143
  117MOL0     H15732   6.061   3.800   3.847  2.4982  0.2777  2.4560
  117MOL0     H15733   5.899   3.822   3.917  0.2888  1.7499 -0.0560
  117MOL0     H15734   6.069   3.565   3.958  0.7907  0.4154  0.4544
  117MOL0     H15735   5.918   3.588   3.840  0.1706  0.9301  0.2349
  117MOL0     H15736   5.931   3.612   4.149  0.5356  1.3277 -0.1829
  117MOL0     H15737   5.784   3.629   4.055  1.3250  2.7891  4.2383
  117MOL0     H15738   5.746   3.430   3.979 -3.4656  1.4366  2.8069
  117MOL0     H15739   5.906   3.356   4.018  0.5704 -1.1591  0.7559
  117MOL0     H15740   5.682   3.467   4.204 -1.4870 -1.0976 -1.3011
  117MOL0     H15741   5.693   3.299   4.158  0.7955  0.0811 -1.9582
  117MOL0     H15742   5.790   3.361   4.392  2.3478  0.9612  1.4127
  117MOL0     H15743   5.922   3.431   4.308  0.9278 -0.2990  1.1385
  117MOL0     H15744   5.972   3.200   4.203  1.2305  0.6825  0.0102
  117MOL0     H15745   5.982   3.206   4.383  1.3800 -1.0103 -0.0725
  117MOL0     H15746   5.772   3.129   4.519  4.6731  0.2292  0.0513
  117MOL0     H15747   5.648   2.811   4.584  2.4971 -2.5255 -3.0000
  117MOL0     H15748   5.545   2.956   4.562  0.1627 -1.2351  3.3385
  117MOL0     H15749   5.443   2.856   4.372 -0.7930  0.0909 -0.1571
  117MOL0     H15750   5.540   2.706   4.404  2.1358 -0.4737  1.0195
  117MOL0     H15751   5.338   2.838   4.595 -1.1317 -0.9948 -0.3953
  117MOL0     H15752   5.458   2.709   4.636  4.0454  2.7226 -1.4939
  117MOL0     H15753   5.270   2.697   4.413 -0.3133  0.1482  0.0424
  117MOL0     H15754   5.212   2.633   4.571 -1.6805 -0.6616 -2.3325
  117MOL0     H15755   5.246   2.449   4.297  1.2809  1.9903  1.8395
  117MOL0     H15756   5.097   2.245   4.269  0.0878 -0.4745  0.0335
  117MOL0     H15757   4.969   1.895   4.135 -1.6018  1.9689 -0.5272
  117MOL0     H15758   4.783   1.721   4.096  1.1890  0.1674 -0.4173
  117MOL0     H15759   4.455   1.638   4.396  0.5783 -0.4108 -0.5035
  117MOL0     H15760   4.436   1.792   4.303 -0.2773 -0.1139  0.8136
  117MOL0     H15761   4.254   1.588   4.278  0.8172  0.7288  0.9328
  117MOL0     H15762   4.300   1.720   4.170  2.4396  1.2606  1.9458
  117MOL0     H15763   4.282   1.501   4.050  2.0158 -4.7828 -0.2377
  117MOL0     H15764   4.451   1.552   4.039 -3.1044  0.8027 -4.6277
  117MOL0     H15765   4.330   1.369   4.233 -2.4232  2.2248 -2.1773
  117MOL0     H15766   4.511   1.422   4.226  1.7016 -1.0634 -1.1552
  117MOL0     H15767   4.551   1.340   4.022  0.0787  0.6487 -0.7060
  117MOL0     H15768   4.383   1.292   3.986 -1.5332  3.4662  0.5186
  117MOL0     H15769   4.561   1.167   4.206 -1.7557 -0.3873  2.2413
  117MOL0     H15770   4.386   1.133   4.177 -0.7587  0.5046 -0.4507
  117MOL0     H15771   4.453   1.057   3.941  0.0499 -0.4158 -0.3714
  117MOL0     H15772   4.488   0.953   4.078  0.3811  0.9151  1.2897
  117MOL0     H15773   4.693   0.958   3.910 -2.0849 -0.1612  0.7402
  117MOL0     H15774   4.699   1.116   3.931  0.9222 -0.5381  0.8359
  117MOL0     H15775   4.638   1.788   4.490  2.3743 -1.0064  2.5976
  117MOL0     H15776   4.800   1.960   4.526  0.8653  2.9304 -1.6500
  117MOL0     H15777   5.197   2.142   4.677 -1.7328 -0.2320  0.3865
  117MOL0     H15778   5.329   2.334   4.702 -1.5962 -0.2484 -0.7075
  117MOL0     H15779   6.175   3.957   4.264  0.5120 -0.1980 -2.1031
  117MOL0     H15780   6.344   4.008   4.437 -0.1392  0.8092 -0.5686
  117MOL0     H15781   6.735   3.675   4.518  0.0898 -0.0553  3.9368
  117MOL0     H15782   6.976   3.630   4.614  0.0226  1.3071  1.4995
  117MOL0     H15783   7.211   3.943   4.791 -1.7887  0.8180 -0.8094
  117MOL0     H15784   7.276   3.941   4.628 -1.7058 -2.3834 -3.3116
  117MOL0     H15785   7.421   3.783   4.660 -2.5346  0.6122 -0.8179
  117MOL0     H15786   7.337   3.690   4.775 -1.3462  0.5741  3.1005
  117MOL0     H15787   7.381   3.826   4.959  0.0298 -0.0169 -1.0135
  117MOL0     H15788   7.432   3.969   4.870 -2.8157  0.3877  0.6279
  117MOL0     H15789   7.636   3.827   4.778  0.0113 -1.0504  0.1427
  117MOL0     H15790   7.652   3.884   4.949  2.4391 -1.1698 -0.5241
  117MOL0     H15791   7.605   3.456   4.977  2.5167  0.5837  5.4449
  117MOL0     H15792   7.072   4.027   4.611  0.6312  0.3753  1.4830
  117MOL0     H15793   6.953   4.192   4.538  0.7847  0.6550 -1.4418
  117MOL0     H15794   6.857   4.127   4.393 -0.1427 -1.9982 -0.0128
  117MOL0     H15795   6.775   4.173   4.546 -0.3892 -0.7624 -0.3940
  118MOL0     O15796   9.881   5.744   0.757 -0.8162 -0.4586 -0.1479
  118MOL0     C15797   9.761   5.748   0.746 -0.9415  0.6368  0.0522
  118MOL0     O15798   9.691   5.774   0.636  0.1107 -0.0541 -0.4764
  118MOL0     C15799   9.763   5.835   0.535  0.1501 -0.6824 -0.2095
  118MOL0     C15800   9.794   5.975   0.536 -0.2934  1.1141 -0.9957
  118MOL0     C15801   9.864   6.027   0.432 -0.5566 -0.1561  0.1460
  118MOL0     C15802   9.908   5.954   0.319 -0.0299  0.8236  0.3953
  118MOL0     O15803   9.971   6.011   0.214  0.3321 -0.4538  0.7374
  118MOL0     C15804   9.993   6.149   0.218  0.4383  0.9796 -0.0336
  118MOL0     C15805  10.027   6.180   0.072  0.2987  0.3663  0.1829
  118MOL0     C15806  10.163   6.132   0.024  0.3973 -0.5666  0.0458
  118MOL0     C15807  10.176   5.984   0.003 -0.0716  0.8593 -0.7742
  118MOL0     C15808  10.140   5.947  -0.140  0.1567 -0.0193  0.5002
  118MOL0     C15809  10.195   5.825  -0.209 -0.5839  1.3432  0.3669
  118MOL0     C15810  10.350   5.795  -0.212 -0.6230 -0.3765 -0.6026
  118MOL0     C15811  10.437   5.916  -0.256 -0.0216  0.0464 -0.4353
  118MOL0     N15812  10.405   5.958  -0.387 -0.2582 -0.5522  0.3901
  118MOL0     C15813  10.372   5.884  -0.500 -0.6095 -0.0067  0.4726
  118MOL0     C15814  10.378   5.973  -0.604  1.4092  0.2099  0.7914
  118MOL0     C15815  10.351   5.944  -0.753 -0.7624 -1.0936 -0.7183
  118MOL0     C15816  10.362   6.070  -0.843  0.1058 -0.3858 -0.5490
  118MOL0     C15817  10.343   6.026  -0.993 -0.0752 -0.1067  0.1891
  118MOL0     C15818  10.380   6.139  -1.089 -0.5722  0.3590  0.5822
  118MOL0     O15819  10.373   6.099  -1.229 -0.4337  0.2756 -0.3156
  118MOL0     C15820  10.418   6.189  -1.318 -0.2444 -0.8526 -0.6631
  118MOL0     C15821  10.435   6.146  -1.449 -0.0212  0.7303  0.0607
  118MOL0     C15822  10.489   6.228  -1.548 -0.5329  0.3328  0.4790
  118MOL0     C15823  10.531   6.359  -1.522 -0.1165  0.2117 -0.6843
  118MOL0     C15824  10.570   6.446  -1.631 -0.3724 -1.0868 -0.7303
  118MOL0     O15825  10.617   6.384  -1.744  0.1820 -0.6642 -0.3808
  118MOL0     C15826  10.670   6.458  -1.843  0.8804  0.3198  0.5033
  118MOL0     C15827  10.665   6.399  -1.967 -0.1798 -0.7669  0.3830
  118MOL0     C15828  10.709   6.464  -2.086  0.0522  0.7524  0.2101
  118MOL0     C15829  10.774   6.581  -2.073 -0.3296 -0.4366 -0.0112
  118MOL0     O15830  10.815   6.635  -2.189 -0.5771  0.1390  0.1671
  118MOL0     C15831  10.777   6.774  -2.209 -0.8672  0.1745 -0.8963
  118MOL0     C15832  10.823   6.820  -2.342 -0.1354  0.9437  1.4946
  118MOL0     C15833  10.960   6.889  -2.334  0.0834 -0.2074 -0.6853
  118MOL0     C15834  10.989   6.948  -2.479  0.0478  0.6615 -0.0131
  118MOL0     C15835  10.912   7.075  -2.506  0.1407 -0.0484  0.0103
  118MOL0     C15836  10.975   7.159  -2.619 -0.1254 -0.0286 -0.4373
  118MOL0     C15837  11.122   7.185  -2.621  0.0047  0.0947  0.5032
  118MOL0     C15838  11.135   7.297  -2.724 -0.2057 -0.4228  0.1367
  118MOL0    Cl15839  11.188   7.232  -2.883 -0.0597 -0.3526 -0.1759
  118MOL0     C15840  10.795   6.639  -1.943  0.1834  0.0398  0.9590
  118MOL0     C15841  10.745   6.572  -1.831  0.4123  0.2775 -0.1079
  118MOL0     O15842  10.566   6.570  -1.606 -0.3708  0.6909 -0.2737
  118MOL0     C15843  10.506   6.405  -1.397  0.4116  0.6340 -0.1770
  118MOL0     C15844  10.466   6.321  -1.293  0.6122  0.0859 -0.7572
  118MOL0     N15845  10.385   6.097  -0.550  0.6108 -0.3241  0.5390
  118MOL0     N15846  10.396   6.089  -0.418 -0.7287 -0.1844  0.5169
  118MOL0     C15847   9.878   5.812   0.319 -0.0249  0.1955  0.3771
  118MOL0     C15848   9.800   5.752   0.425 -1.2692  0.1282  0.1890
  118MOL0     C15849   9.679   5.713   0.859  0.4392 -0.1832  0.0566
  118MOL0     C15850   9.556   5.642   0.840 -0.5218 -0.4082 -0.2252
  118MOL0     C15851   9.478   5.601   0.948 -0.6347 -0.7771  0.4532
  118MOL0     C15852   9.512   5.636   1.079 -0.3425  0.3644 -1.6463
  118MOL0     O15853   9.442   5.606   1.193 -0.3212  0.4890  0.2619
  118MOL0     C15854   9.299   5.561   1.188 -0.9637 -0.3224  0.3225
  118MOL0     C15855   9.200   5.671   1.204  0.7767 -0.7490  0.6114
  118MOL0     C15856   9.194   5.740   1.346  0.2761  0.3733 -0.9358
  118MOL0     C15857   9.207   5.638   1.462  1.0911  0.6122 -0.9636
  118MOL0     C15858   9.097   5.539   1.468  0.0952 -0.7602  0.8212
  118MOL0     C15859   9.004   5.467   1.494 -0.9844  0.2719 -0.8973
  118MOL0     C15860   9.632   5.714   1.097  0.1797  0.6299  0.1499
  118MOL0     C15861   9.720   5.741   0.997  0.2160 -0.4209  0.7242
  118MOL0     C15862   9.840   5.825   1.034  0.9462  0.4304 -0.6141
  118MOL0     H15863   9.764   6.040   0.619 -3.1867  0.1042 -1.1492
  118MOL0     H15864   9.898   6.129   0.443 -0.3705 -0.3472  1.5295
  118MOL0     H15865   9.909   6.213   0.246 -1.8278  1.2877 -6.0279
  118MOL0     H15866  10.085   6.171   0.273  2.1761  1.6394 -2.9681
  118MOL0     H15867  10.008   6.288   0.079 -2.2083 -0.0956  2.0707
  118MOL0     H15868   9.952   6.140   0.003  1.7531 -2.1662 -0.0513
  118MOL0     H15869  10.238   6.144   0.103  2.2162  0.0535 -1.6807
  118MOL0     H15870  10.193   6.192  -0.063  2.4558 -3.2792 -1.2734
  118MOL0     H15871  10.283   5.965   0.015  0.1579  3.0236  1.7637
  118MOL0     H15872  10.125   5.922   0.077  1.1805  1.9666  1.1149
  118MOL0     H15873  10.031   5.944  -0.130 -0.0318 -0.1688 -1.2716
  118MOL0     H15874  10.169   6.024  -0.212 -2.0533 -0.6157 -1.1580
  118MOL0     H15875  10.152   5.741  -0.154 -0.8982  1.1673 -0.1396
  118MOL0     H15876  10.162   5.813  -0.313  1.4212 -1.4350 -0.0499
  118MOL0     H15877  10.375   5.700  -0.261 -2.1763 -1.7631  1.1727
  118MOL0     H15878  10.382   5.774  -0.110 -1.8834 -1.8932 -0.4904
  118MOL0     H15879  10.399   5.998  -0.194 -1.1778  1.8968 -3.3715
  118MOL0     H15880  10.545   5.907  -0.244 -0.1173  1.1593  1.9067
  118MOL0     H15881  10.355   5.779  -0.522  0.0483  0.3792 -2.3334
  118MOL0     H15882  10.423   5.868  -0.784  2.3440  1.1821  0.4048
  118MOL0     H15883  10.255   5.901  -0.784  0.8238 -2.1123 -4.8974
  118MOL0     H15884  10.285   6.138  -0.807  0.8326  1.0234 -1.5679
  118MOL0     H15885  10.462   6.113  -0.829  1.3634 -2.6611 -1.8700
  118MOL0     H15886  10.244   5.987  -1.016 -0.7766  0.3152  2.2947
  118MOL0     H15887  10.407   5.938  -1.005 -0.2715 -0.3221  0.7073
  118MOL0     H15888  10.485   6.163  -1.066 -0.2854 -0.6108  0.3342
  118MOL0     H15889  10.306   6.219  -1.083 -2.6416 -1.3465 -0.8778
  118MOL0     H15890  10.388   6.050  -1.471  1.2949  0.3195 -1.1403
  118MOL0     H15891  10.479   6.184  -1.647 -2.2645  3.3954 -0.8303
  118MOL0     H15892  10.638   6.294  -1.964  2.3002 -1.5172 -0.8468
  118MOL0     H15893  10.690   6.422  -2.185 -2.1496  0.3269  0.7479
  118MOL0     H15894  10.669   6.786  -2.197 -1.1186 -3.7173  3.2817
  118MOL0     H15895  10.823   6.834  -2.131 -0.0772  1.1880 -2.0972
  118MOL0     H15896  10.830   6.741  -2.417 -1.0058 -0.2944  2.6746
  118MOL0     H15897  10.745   6.889  -2.375  1.1120  0.6311 -2.7193
  118MOL0     H15898  10.978   6.970  -2.263  1.5826 -1.1199  0.0240
  118MOL0     H15899  11.029   6.805  -2.323  0.7367 -0.0161 -2.9008
  118MOL0     H15900  10.978   6.874  -2.559  0.5532  2.9289 -2.3163
  118MOL0     H15901  11.097   6.958  -2.471  0.2652 -0.2568 -1.3638
  118MOL0     H15902  10.927   7.124  -2.409  2.4802  0.1940 -0.4175
  118MOL0     H15903  10.804   7.063  -2.525  0.4675 -0.4228 -1.8039
  118MOL0     H15904  10.944   7.108  -2.711  0.8300  1.0680 -1.3886
  118MOL0     H15905  10.922   7.254  -2.629 -2.4859 -1.3817 -1.6601
  118MOL0     H15906  11.165   7.089  -2.648 -2.7452 -1.2210  0.4860
  118MOL0     H15907  11.155   7.216  -2.521 -0.0135 -0.8158  0.7943
  118MOL0     H15908  11.051   7.367  -2.725  2.6863  3.4254 -1.3604
  118MOL0     H15909  11.224   7.359  -2.705  0.7995 -1.9372  0.5586
  118MOL0     H15910  10.856   6.728  -1.955 -0.8524  0.6459 -0.0612
  118MOL0     H15911  10.763   6.621  -1.736 -0.6280  0.9558 -0.2418
  118MOL0     H15912  10.525   6.507  -1.366  0.9152  0.5464 -0.1817
  118MOL0     H15913  10.461   6.381  -1.202 -0.3847 -0.0154 -0.7316
  118MOL0     H15914   9.930   5.749   0.247  1.1881 -1.0120  2.2086
  118MOL0     H15915   9.790   5.646   0.442  1.3574 -0.1714  0.2509
  118MOL0     H15916   9.539   5.608   0.739  0.3032  0.1233 -0.5521
  118MOL0     H15917   9.391   5.537   0.936 -0.4654 -0.9091 -0.0905
  118MOL0     H15918   9.295   5.484   1.267  1.4739  0.1518  0.9708
  118MOL0     H15919   9.276   5.499   1.101  2.4573  0.6834 -1.4760
  118MOL0     H15920   9.112   5.609   1.183  0.7676 -0.5096 -0.0649
  118MOL0     H15921   9.227   5.733   1.118  1.5147 -0.9355  0.7055
  118MOL0     H15922   9.097   5.788   1.357 -0.4280 -1.4809  1.9956
  118MOL0     H15923   9.267   5.821   1.352 -2.5293  3.1372  5.4139
  118MOL0     H15924   9.302   5.584   1.452  0.3489 -0.6196 -1.7216
  118MOL0     H15925   9.206   5.683   1.562  2.5291 -2.8063  0.7503
  118MOL0     H15926   8.917   5.408   1.515 -0.5535  0.3059  1.1115
  118MOL0     H15927   9.662   5.745   1.197 -2.1377  1.8201  0.5603
  118MOL0     H15928   9.829   5.874   1.132  0.6819 -0.5213 -0.1516
  118MOL0     H15929   9.933   5.767   1.044 -0.4308 -2.1072 -1.6522
  118MOL0     H15930   9.866   5.901   0.961  1.4929  1.5629  0.7144
  119MOL0     O15931   6.559   8.652   2.604  0.3466  0.5691  0.4359
  119MOL0     C15932   6.555   8.529   2.632  0.3204 -0.5847  0.0721
  119MOL0     O15933   6.634   8.466   2.708  0.5993  0.1084 -0.0308
  119MOL0     C15934   6.760   8.523   2.743 -0.1635  0.5383  0.1912
  119MOL0     C15935   6.782   8.589   2.861  0.5778 -0.5910 -0.1837
  119MOL0     C15936   6.914   8.625   2.893 -0.1441  0.4000  0.0193
  119MOL0     C15937   7.015   8.599   2.814  0.0603  0.7060 -0.6291
  119MOL0     O15938   7.144   8.621   2.849  0.1162 -0.3223 -0.2930
  119MOL0     C15939   7.191   8.755   2.885  0.5415  0.3500 -0.0916
  119MOL0     C15940   7.310   8.804   2.796  0.2673 -0.2090  0.1317
  119MOL0     C15941   7.440   8.725   2.821 -0.6108 -0.2191 -0.0934
  119MOL0     C15942   7.537   8.739   2.702 -0.6796 -0.0947  0.1698
  119MOL0     C15943   7.661   8.651   2.709  0.9167 -1.1711 -1.4650
  119MOL0     C15944   7.731   8.685   2.843  0.4385 -0.0000 -0.7317
  119MOL0     C15945   7.867   8.613   2.850 -0.0922 -0.4780 -0.3834
  119MOL0     C15946   7.952   8.640   2.971 -0.6564 -1.3596 -0.5583
  119MOL0     N15947   8.068   8.553   2.967  0.7624 -0.1270  0.1041
  119MOL0     C15948   8.081   8.426   2.981  0.4615  0.3784  0.5148
  119MOL0     C15949   8.207   8.395   2.976 -1.4286 -0.7952 -0.6043
  119MOL0     C15950   8.258   8.254   3.002  0.1851 -0.8070 -0.1397
  119MOL0     C15951   8.413   8.235   2.980  0.9358  0.8301  0.5967
  119MOL0     C15952   8.489   8.236   3.108 -0.0181  0.6129  0.4121
  119MOL0     C15953   8.542   8.374   3.141  0.2935  0.0315 -0.0709
  119MOL0     O15954   8.643   8.356   3.240 -0.1253  0.0029  0.1437
  119MOL0     C15955   8.724   8.466   3.275 -0.0940 -0.6631  1.0272
  119MOL0     C15956   8.705   8.587   3.214  0.8393  0.4733  0.5644
  119MOL0     C15957   8.791   8.693   3.240  0.4074 -0.2474  0.2670
  119MOL0     C15958   8.881   8.687   3.346 -1.5273  0.4054  1.0160
  119MOL0     C15959   8.969   8.793   3.382  0.0170  0.7694  0.4836
  119MOL0     O15960   8.988   8.898   3.292  0.1675  0.9470  0.7528
  119MOL0     C15961   9.048   9.011   3.334 -0.2066 -0.2861 -0.5200
  119MOL0     C15962   9.185   9.032   3.325 -0.0672  0.2231 -0.2439
  119MOL0     C15963   9.242   9.155   3.360 -1.0836 -0.5650 -0.9575
  119MOL0     C15964   9.163   9.267   3.386  0.0180  1.2823  0.1732
  119MOL0     O15965   9.207   9.396   3.405 -0.6703 -0.8729 -0.2024
  119MOL0     C15966   9.349   9.424   3.437  0.7645 -0.3916 -0.1318
  119MOL0     C15967   9.392   9.567   3.400  0.5686 -0.4775 -0.4891
  119MOL0     C15968   9.537   9.604   3.447 -0.3025 -1.1997 -0.3246
  119MOL0     C15969   9.561   9.750   3.397  0.0224 -1.0853 -0.3849
  119MOL0     C15970   9.701   9.799   3.396  0.2097  0.4596  0.1676
  119MOL0     C15971   9.780   9.771   3.525  0.8959 -0.5695  0.4470
  119MOL0     C15972   9.918   9.815   3.505 -0.2578 -1.2357  0.1147
  119MOL0     C15973  10.006   9.790   3.625  0.2314  0.5239 -0.2212
  119MOL0    Cl15974  10.182   9.816   3.572  0.1260  0.2509  0.2533
  119MOL0     C15975   9.023   9.249   3.386  0.0444 -0.3260  0.0353
  119MOL0     C15976   8.962   9.124   3.356 -0.3052 -0.3941 -0.7655
  119MOL0     O15977   9.021   8.784   3.491 -0.4085  0.0397  1.0772
  119MOL0     C15978   8.895   8.564   3.411 -0.0996 -0.5864 -0.1549
  119MOL0     C15979   8.817   8.452   3.375 -0.0026 -0.2074 -0.9289
  119MOL0     N15980   8.284   8.511   2.975 -0.6187 -0.4582 -0.6492
  119MOL0     N15981   8.196   8.607   2.960 -0.2069 -0.1412  0.1579
  119MOL0     C15982   6.991   8.555   2.690 -0.4301  0.7244  0.4362
  119MOL0     C15983   6.868   8.500   2.663  0.7634  0.0067  0.9352
  119MOL0     C15984   6.465   8.439   2.554  0.1777 -0.5599 -0.6898
  119MOL0     C15985   6.504   8.303   2.535 -0.7015 -0.2376  0.0366
  119MOL0     C15986   6.419   8.203   2.465 -0.9118 -0.7184 -0.7611
  119MOL0     C15987   6.291   8.250   2.419 -0.1878  0.3797  0.2643
  119MOL0     O15988   6.200   8.163   2.367 -0.8347  0.4989 -0.4025
  119MOL0     C15989   6.211   8.019   2.396  0.3539  0.4163 -0.2293
  119MOL0     C15990   6.093   7.956   2.324  0.5096 -0.0069 -0.7680
  119MOL0     C15991   6.102   7.960   2.165 -0.0770 -0.3242 -0.6095
  119MOL0     C15992   6.050   8.081   2.094 -0.1548  0.5694 -0.3351
  119MOL0     C15993   6.050   8.054   1.947  0.0967  0.3926  0.9824
  119MOL0     C15994   6.036   8.045   1.826  0.3957  0.8395 -0.0586
  119MOL0     C15995   6.248   8.377   2.444 -0.3348  1.3799 -0.0426
  119MOL0     C15996   6.334   8.476   2.501 -0.0980  0.4249 -0.1675
  119MOL0     C15997   6.280   8.620   2.499 -0.2598 -0.1870  0.3226
  119MOL0     H15998   6.709   8.614   2.937  2.1967 -0.0336  1.2572
  119MOL0     H15999   6.937   8.673   2.988 -2.4873  2.1311 -0.2034
  119MOL0     H16000   7.112   8.827   2.864 -0.7224  0.2655  3.7230
  119MOL0     H16001   7.221   8.770   2.989 -0.5986  0.3613  0.2496
  119MOL0     H16002   7.324   8.911   2.816  1.2229  0.0044 -1.4622
  119MOL0     H16003   7.279   8.791   2.692  1.8336  2.3047 -0.7634
  119MOL0     H16004   7.418   8.618   2.824 -0.4606 -0.4089 -3.0077
  119MOL0     H16005   7.478   8.751   2.920  0.4353 -0.9139 -0.2947
  119MOL0     H16006   7.489   8.726   2.605 -0.2494 -0.7611  0.0439
  119MOL0     H16007   7.571   8.843   2.709 -1.1001  0.1394 -1.0264
  119MOL0     H16008   7.644   8.543   2.707  1.2082 -1.2577 -0.0064
  119MOL0     H16009   7.732   8.668   2.627  1.6533  0.5731 -0.5259
  119MOL0     H16010   7.738   8.793   2.859 -0.3744  0.2537 -1.9723
  119MOL0     H16011   7.676   8.656   2.933  2.4019  1.5642  1.0700
  119MOL0     H16012   7.925   8.650   2.765  1.4935  1.2077  1.3109
  119MOL0     H16013   7.846   8.507   2.834 -0.3628 -0.3856 -0.6287
  119MOL0     H16014   7.971   8.747   2.968 -0.9938 -1.2994 -0.5250
  119MOL0     H16015   7.898   8.614   3.063  0.7994 -1.3868  0.3195
  119MOL0     H16016   8.007   8.347   2.989  1.0363 -0.0328  2.0755
  119MOL0     H16017   8.227   8.222   3.102 -2.0400 -1.2129 -0.8913
  119MOL0     H16018   8.201   8.185   2.938  0.4870 -0.2684 -1.0054
  119MOL0     H16019   8.428   8.138   2.931  0.9773  0.6869  0.8933
  119MOL0     H16020   8.453   8.308   2.909  0.0947  0.9624  0.2478
  119MOL0     H16021   8.570   8.163   3.101  0.8642  1.6308 -0.2984
  119MOL0     H16022   8.416   8.206   3.184 -3.6721  3.3150 -1.7152
  119MOL0     H16023   8.457   8.440   3.161  0.5930 -0.0886  1.7716
  119MOL0     H16024   8.586   8.414   3.049  0.5582  0.8674  0.4030
  119MOL0     H16025   8.628   8.618   3.144  0.6086  0.1219  0.6575
  119MOL0     H16026   8.770   8.783   3.182 -3.3059  1.3889  3.7213
  119MOL0     H16027   9.244   8.951   3.283 -0.9241  0.6650 -2.4717
  119MOL0     H16028   9.351   9.149   3.358 -1.0347 -0.2912  0.1515
  119MOL0     H16029   9.369   9.409   3.543  0.6795  1.3594  0.1621
  119MOL0     H16030   9.414   9.358   3.379  0.0444  0.2989 -1.8113
  119MOL0     H16031   9.381   9.598   3.296 -2.0271  1.3668  0.2224
  119MOL0     H16032   9.320   9.636   3.446 -0.1446 -0.4037 -1.6735
  119MOL0     H16033   9.546   9.594   3.556 -0.3197 -2.5954 -0.4294
  119MOL0     H16034   9.607   9.548   3.384 -2.2474 -1.7063 -2.1359
  119MOL0     H16035   9.501   9.820   3.455  2.2126 -0.5967  1.3873
  119MOL0     H16036   9.520   9.768   3.297  2.7633  1.7160 -1.1583
  119MOL0     H16037   9.698   9.905   3.370 -0.2334  0.4874  0.3345
  119MOL0     H16038   9.754   9.745   3.317 -0.5508 -1.3575  0.8465
  119MOL0     H16039   9.757   9.842   3.604 -0.2751 -0.3657 -0.0586
  119MOL0     H16040   9.780   9.666   3.556  2.9070 -1.6612 -2.7178
  119MOL0     H16041   9.928   9.920   3.475  2.4414 -1.9670 -1.9299
  119MOL0     H16042   9.953   9.747   3.428  0.9047  1.0128 -1.4467
  119MOL0     H16043   9.975   9.833   3.720 -0.0562  1.0224 -0.5396
  119MOL0     H16044   9.999   9.684   3.653  1.5367  0.7097  0.9183
  119MOL0     H16045   8.961   9.336   3.404  1.2428  0.7875 -0.9942
  119MOL0     H16046   8.855   9.112   3.362 -0.1214 -1.5893  0.6806
  119MOL0     H16047   8.963   8.559   3.495  0.4680  1.3753 -0.4534
  119MOL0     H16048   8.827   8.357   3.426  1.2563 -0.4217 -1.5431
  119MOL0     H16049   7.073   8.552   2.618 -0.9166 -0.2032 -0.0903
  119MOL0     H16050   6.836   8.456   2.570 -1.3721  0.2235  1.5067
  119MOL0     H16051   6.598   8.260   2.568  0.1812 -0.4050 -2.4965
  119MOL0     H16052   6.452   8.101   2.448 -0.8289 -0.5022 -1.9685
  119MOL0     H16053   6.202   7.994   2.502  2.7985  1.0571  0.1861
  119MOL0     H16054   6.306   7.975   2.362 -0.1216  0.8005 -2.1719
  119MOL0     H16055   6.001   8.005   2.358  0.8893  0.4679 -0.3974
  119MOL0     H16056   6.084   7.852   2.356 -3.9821 -0.4661 -2.8383
  119MOL0     H16057   6.043   7.870   2.142 -0.1895 -0.4935  0.3206
  119MOL0     H16058   6.207   7.947   2.139  0.5717  1.3684  1.0144
  119MOL0     H16059   5.947   8.095   2.128 -1.7601 -1.6742 -3.6799
  119MOL0     H16060   6.101   8.176   2.114 -3.9177  3.8565 -4.3298
  119MOL0     H16061   6.040   8.030   1.720  3.9032  0.1627  0.0467
  119MOL0     H16062   6.149   8.403   2.410 -0.4378 -0.4093 -1.2326
  119MOL0     H16063   6.178   8.610   2.459 -0.2398 -1.5904  0.5603
  119MOL0     H16064   6.281   8.655   2.603 -3.2468 -5.3332  2.5087
  119MOL0     H16065   6.346   8.677   2.433 -1.9502 -0.6004 -1.8423
  120MOL0     O16066  10.654   6.214   1.369 -0.2533 -0.3863  0.2355
  120MOL0     C16067  10.680   6.209   1.249 -0.0067  0.8623  0.1254
  120MOL0     O16068  10.747   6.106   1.194  0.7058  0.0506  0.5010
  120MOL0     C16069  10.780   6.005   1.276  0.3158  0.2033 -0.6320
  120MOL0     C16070  10.885   6.024   1.366 -0.9119  0.3064 -0.6337
  120MOL0     C16071  10.916   5.935   1.463  0.1958  0.2794 -1.1314
  120MOL0     C16072  10.843   5.808   1.465  0.4948  0.1174  0.5078
  120MOL0     O16073  10.859   5.702   1.541 -0.4789  0.8788  0.2741
  120MOL0     C16074  10.963   5.692   1.643  0.5667 -0.2447 -0.1244
  120MOL0     C16075  11.069   5.592   1.611  1.2897  0.8095 -0.0610
  120MOL0     C16076  11.166   5.644   1.504 -0.3320 -0.2642  0.1758
  120MOL0     C16077  11.297   5.574   1.543 -1.5290  0.7588 -0.0079
  120MOL0     C16078  11.407   5.607   1.437 -0.0978 -0.4003 -0.5807
  120MOL0     C16079  11.468   5.752   1.440 -0.5754  0.0769 -0.0487
  120MOL0     C16080  11.541   5.763   1.302 -0.5687 -0.6862  0.3799
  120MOL0     C16081  11.640   5.884   1.315 -0.3243  0.0355 -1.0953
  120MOL0     N16082  11.581   6.016   1.325 -0.0804  0.6721 -0.5913
  120MOL0     C16083  11.499   6.068   1.233  0.8149 -1.1741 -0.1187
  120MOL0     C16084  11.472   6.191   1.263 -0.1050 -0.3969  0.1715
  120MOL0     C16085  11.394   6.296   1.202 -0.0941 -0.1197 -0.1010
  120MOL0     C16086  11.388   6.301   1.047 -0.9620  0.8437 -0.3524
  120MOL0     C16087  11.241   6.306   1.004 -0.2565 -0.7240  0.5303
  120MOL0     C16088  11.163   6.179   1.045  0.2589  0.3907  0.8892
  120MOL0     O16089  11.199   6.077   0.948  0.0617  1.0059  0.4192
  120MOL0     C16090  11.170   5.944   0.983  0.4207  0.2836  0.6788
  120MOL0     C16091  11.082   5.910   1.086 -0.0193  0.4593 -0.2973
  120MOL0     C16092  11.070   5.780   1.129  1.8428 -0.5137  1.5152
  120MOL0     C16093  11.138   5.676   1.064 -1.0210 -0.6566  0.2442
  120MOL0     C16094  11.117   5.536   1.106  0.4052  0.5856  0.6225
  120MOL0     O16095  11.003   5.516   1.177 -0.0971 -0.2110 -0.1968
  120MOL0     C16096  10.966   5.386   1.207 -0.1122  0.6571  0.5249
  120MOL0     C16097  10.903   5.371   1.325 -0.3737 -0.4318 -0.6049
  120MOL0     C16098  10.857   5.244   1.377 -0.3782 -0.0197 -0.1926
  120MOL0     C16099  10.872   5.132   1.299  0.5262  0.1892  0.5983
  120MOL0     O16100  10.826   5.012   1.343  0.9940 -0.0563  0.0346
  120MOL0     C16101  10.844   4.979   1.482  0.0034  0.2069 -0.2285
  120MOL0     C16102  10.901   4.831   1.505  0.4904 -0.0691  0.3615
  120MOL0     C16103  10.803   4.717   1.468 -0.0951  0.4595  0.0424
  120MOL0     C16104  10.865   4.578   1.493 -0.0331  0.3480 -0.4142
  120MOL0     C16105  10.759   4.464   1.483 -0.1157  0.4660 -1.0451
  120MOL0     C16106  10.818   4.332   1.533  0.5687 -0.3330  0.7988
  120MOL0     C16107  10.832   4.339   1.688 -0.5819 -0.0634  0.0407
  120MOL0     C16108  10.890   4.224   1.754  0.4210  0.4492 -0.6556
  120MOL0    Cl16109  11.063   4.199   1.736 -0.1686 -0.0090  0.1323
  120MOL0     C16110  10.911   5.153   1.164  0.4504 -0.8297  0.2130
  120MOL0     C16111  10.965   5.275   1.123 -0.9065 -0.4548  0.1287
  120MOL0     O16112  11.195   5.452   1.062 -0.5251  0.0698 -0.6200
  120MOL0     C16113  11.220   5.716   0.948 -0.5664  0.3136 -0.9274
  120MOL0     C16114  11.233   5.840   0.909  0.1678 -0.8913  0.8166
  120MOL0     N16115  11.553   6.213   1.374  0.3377 -0.6260 -0.6493
  120MOL0     N16116  11.618   6.114   1.409  0.0825 -0.9781  0.6536
  120MOL0     C16117  10.738   5.792   1.377 -0.1265 -0.0385  0.6772
  120MOL0     C16118  10.701   5.890   1.287  0.2981  0.1031 -0.2628
  120MOL0     C16119  10.623   6.315   1.171 -0.0406 -0.5428  0.1110
  120MOL0     C16120  10.650   6.318   1.030  0.0500  0.4069 -0.3064
  120MOL0     C16121  10.625   6.432   0.955  0.2469  1.0555  0.4758
  120MOL0     C16122  10.558   6.540   1.007 -0.2223  0.7502  0.6189
  120MOL0     O16123  10.522   6.650   0.937  0.2754  0.7174  0.3686
  120MOL0     C16124  10.526   6.651   0.792 -0.0720  0.2616 -0.0779
  120MOL0     C16125  10.468   6.777   0.732 -0.3278  0.9749 -0.1683
  120MOL0     C16126  10.339   6.817   0.802 -0.2737  0.4603  0.1277
  120MOL0     C16127  10.226   6.716   0.800  0.0523 -0.5685 -0.1949
  120MOL0     C16128  10.177   6.678   0.664 -0.2252 -1.0087 -0.4678
  120MOL0     C16129  10.148   6.638   0.556 -0.2245 -0.2460 -0.0363
  120MOL0     C16130  10.510   6.534   1.138  0.3759 -1.3784 -0.4350
  120MOL0     C16131  10.556   6.429   1.217  0.0145  0.2601 -0.4688
  120MOL0     C16132  10.520   6.457   1.364 -0.6344 -0.3195  0.8304
  120MOL0     H16133  10.941   6.113   1.342  0.5414 -0.3651  0.0984
  120MOL0     H16134  10.992   5.955   1.538 -1.6385 -0.1921  0.9746
  120MOL0     H16135  11.010   5.789   1.659  1.5594 -0.5415 -1.1023
  120MOL0     H16136  10.909   5.663   1.734 -2.4788  1.9719 -1.0449
  120MOL0     H16137  11.026   5.497   1.578  3.6742 -1.2575  2.2778
  120MOL0     H16138  11.119   5.574   1.707  1.9564  3.2953  0.1199
  120MOL0     H16139  11.163   5.753   1.510  0.8237 -0.3102  2.4312
  120MOL0     H16140  11.137   5.622   1.401  0.1264 -1.3799  0.2665
  120MOL0     H16141  11.334   5.610   1.640 -2.7578  1.3115  0.2812
  120MOL0     H16142  11.285   5.465   1.537  1.7078  0.3386 -0.6224
  120MOL0     H16143  11.484   5.530   1.454 -2.0317 -2.0147  1.6527
  120MOL0     H16144  11.382   5.576   1.336  0.1331 -1.4459 -0.3400
  120MOL0     H16145  11.402   5.840   1.442 -0.3770  0.3896 -3.0959
  120MOL0     H16146  11.546   5.762   1.516 -0.3792 -0.4745 -0.1761
  120MOL0     H16147  11.468   5.775   1.222  4.3009  1.6055 -4.3833
  120MOL0     H16148  11.598   5.669   1.296  0.4745 -0.0880  0.6051
  120MOL0     H16149  11.698   5.865   1.406 -0.4287 -3.5578 -1.6345
  120MOL0     H16150  11.712   5.875   1.232  0.7351  1.3994 -0.3757
  120MOL0     H16151  11.436   6.024   1.156 -1.0108  1.5120 -0.2833
  120MOL0     H16152  11.297   6.295   1.253  0.5729 -1.7456  1.2248
  120MOL0     H16153  11.436   6.393   1.229  1.2811 -0.5789 -0.4985
  120MOL0     H16154  11.452   6.380   1.007  1.4802 -0.7984  0.0831
  120MOL0     H16155  11.435   6.208   1.012 -0.3361  2.1076 -3.1554
  120MOL0     H16156  11.232   6.322   0.896  0.9385  2.0608  0.7551
  120MOL0     H16157  11.193   6.396   1.044  0.0180  0.1235 -0.9485
  120MOL0     H16158  11.055   6.197   1.043  0.6343  3.0982 -0.9813
  120MOL0     H16159  11.186   6.144   1.146  0.0232 -0.2679  0.7146
  120MOL0     H16160  11.019   5.974   1.148  0.4057  0.4614  0.1424
  120MOL0     H16161  10.997   5.749   1.204  1.0654  2.0576  1.9166
  120MOL0     H16162  10.889   5.459   1.386  1.3191  1.1014 -2.3176
  120MOL0     H16163  10.792   5.264   1.462  0.0337  4.0086 -0.6253
  120MOL0     H16164  10.903   5.054   1.536 -2.0768  0.6840  1.5046
  120MOL0     H16165  10.745   4.985   1.527  0.0614 -0.6810  0.0527
  120MOL0     H16166  10.992   4.827   1.446 -1.2812  3.3658 -3.0289
  120MOL0     H16167  10.927   4.816   1.610  1.0944  1.3146  0.4240
  120MOL0     H16168  10.719   4.730   1.537 -0.1986  1.2770 -0.2224
  120MOL0     H16169  10.758   4.720   1.368  1.3089  0.7546 -0.6064
  120MOL0     H16170  10.918   4.570   1.588  1.0208  1.2948 -0.8895
  120MOL0     H16171  10.941   4.568   1.414  2.1230  0.5378  1.5278
  120MOL0     H16172  10.729   4.453   1.379 -2.7864  1.4318 -0.4432
  120MOL0     H16173  10.673   4.496   1.542 -0.1472  0.6647 -1.1998
  120MOL0     H16174  10.744   4.261   1.494 -0.1065  0.6221  0.2935
  120MOL0     H16175  10.916   4.322   1.485  2.6352 -3.1208  4.9683
  120MOL0     H16176  10.740   4.369   1.738 -0.7204 -0.3783 -0.0185
  120MOL0     H16177  10.900   4.420   1.715 -1.3804 -0.5777  4.1884
  120MOL0     H16178  10.871   4.221   1.861  1.8887  3.7981 -0.1900
  120MOL0     H16179  10.844   4.141   1.698 -0.0909  1.5597 -1.9471
  120MOL0     H16180  10.890   5.068   1.100 -0.4550 -0.6243  0.2251
  120MOL0     H16181  10.983   5.302   1.020 -0.6916  2.1247  0.7678
  120MOL0     H16182  11.279   5.642   0.895  0.6023 -0.1078  0.8518
  120MOL0     H16183  11.306   5.856   0.831  1.6446 -0.1823  2.2678
  120MOL0     H16184  10.695   5.693   1.375 -0.1622 -0.0329 -2.0974
  120MOL0     H16185  10.623   5.885   1.211  1.3648  1.4878 -1.5077
  120MOL0     H16186  10.691   6.230   0.982  2.4595  1.0790  0.3570
  120MOL0     H16187  10.666   6.433   0.854 -1.2785 -0.6994 -0.2191
  120MOL0     H16188  10.469   6.561   0.769  0.4254 -0.8144  2.4990
  120MOL0     H16189  10.621   6.633   0.740 -0.8463 -1.0290 -1.1022
  120MOL0     H16190  10.447   6.753   0.628  1.0499  3.5131 -1.1241
  120MOL0     H16191  10.538   6.861   0.740  3.2258 -1.6524 -1.5816
  120MOL0     H16192  10.315   6.910   0.750 -1.8056 -1.4963 -2.9738
  120MOL0     H16193  10.358   6.851   0.904  1.7887  2.4465 -0.8466
  120MOL0     H16194  10.258   6.626   0.852 -0.3814 -1.9619 -2.2136
  120MOL0     H16195  10.138   6.758   0.850  0.5810  0.6610 -0.2639
  120MOL0     H16196  10.109   6.600   0.463 -2.5394  1.4691  0.1391
  120MOL0     H16197  10.448   6.618   1.168 -0.9176 -2.7707  0.9517
  120MOL0     H16198  10.445   6.389   1.406 -3.1368  1.9769  0.3752
  120MOL0     H16199  10.601   6.463   1.438 -0.3317 -1.4112  0.6026
  120MOL0     H16200  10.491   6.563   1.373  1.2778  0.1527  2.0842
  121MOL0     O16201   2.348   8.537   0.269  0.3488  0.0172  0.0303
  121MOL0     C16202   2.386   8.652   0.271  0.6913  0.0862  0.2007
  121MOL0     O16203   2.344   8.754   0.184 -0.2012  0.0126 -0.4462
  121MOL0     C16204   2.267   8.731   0.071 -0.2667 -0.8333  0.2675
  121MOL0     C16205   2.304   8.627  -0.016  0.5975 -0.2904 -0.3883
  121MOL0     C16206   2.225   8.590  -0.119 -0.0357  0.5441 -1.3215
  121MOL0     C16207   2.103   8.657  -0.143  0.3788 -0.4059 -0.1523
  121MOL0     O16208   2.020   8.626  -0.246 -0.5094  1.3696  0.0751
  121MOL0     C16209   1.988   8.482  -0.262 -0.6519 -0.1426 -0.4608
  121MOL0     C16210   1.834   8.482  -0.242 -0.0276 -0.2298  0.2041
  121MOL0     C16211   1.762   8.345  -0.273  0.1878  0.3904 -0.0040
  121MOL0     C16212   1.790   8.235  -0.180 -0.6956 -0.9163 -0.4570
  121MOL0     C16213   1.693   8.116  -0.218  0.3246  0.8339  0.0778
  121MOL0     C16214   1.691   8.008  -0.112  0.9009  0.4213  0.0969
  121MOL0     C16215   1.822   7.928  -0.081  0.0917  1.0178  0.5467
  121MOL0     C16216   1.857   7.823  -0.186 -0.0708  0.2965  0.1293
  121MOL0     N16217   1.922   7.711  -0.112 -0.1944 -0.0789 -0.4016
  121MOL0     C16218   2.054   7.729  -0.067  0.0396 -0.2325 -0.5622
  121MOL0     C16219   2.094   7.597  -0.041 -0.6584 -0.5105 -0.1470
  121MOL0     C16220   2.235   7.549   0.002 -0.3963 -0.0933 -0.4112
  121MOL0     C16221   2.317   7.657   0.070  0.4683 -0.2439  0.4314
  121MOL0     C16222   2.427   7.604   0.155  0.3909  0.3664  0.3307
  121MOL0     C16223   2.400   7.618   0.312 -0.0654  1.0275  0.5485
  121MOL0     O16224   2.394   7.756   0.351  0.0556 -0.1362 -0.2529
  121MOL0     C16225   2.510   7.817   0.386  0.1459  0.8658 -1.0667
  121MOL0     C16226   2.496   7.944   0.459 -0.2137  0.4354 -0.6108
  121MOL0     C16227   2.607   8.022   0.499 -0.5003 -0.6911 -0.2720
  121MOL0     C16228   2.735   7.974   0.476 -1.0399  0.1878 -0.2057
  121MOL0     C16229   2.856   8.045   0.518  0.1084 -0.5314 -1.0820
  121MOL0     O16230   2.836   8.186   0.547  0.0171  0.0448  0.2516
  121MOL0     C16231   2.950   8.265   0.566 -0.2390 -0.2623  0.0415
  121MOL0     C16232   2.946   8.344   0.675  0.2646 -0.1671 -0.7338
  121MOL0     C16233   3.016   8.459   0.684 -0.4664  1.2075  0.4615
  121MOL0     C16234   3.104   8.492   0.579  0.4451 -0.0411  0.0324
  121MOL0     O16235   3.163   8.613   0.608  0.2186  0.6088  0.2069
  121MOL0     C16236   3.210   8.692   0.495 -0.2639 -0.1338  0.2507
  121MOL0     C16237   3.295   8.810   0.550  0.2673  0.0133  0.0435
  121MOL0     C16238   3.439   8.770   0.575  0.4849 -0.2397  0.4331
  121MOL0     C16239   3.521   8.886   0.629 -0.8492 -0.2858 -0.6200
  121MOL0     C16240   3.658   8.829   0.685  0.3235  0.5829 -0.3265
  121MOL0     C16241   3.728   8.947   0.761 -0.5627  1.0049  0.2778
  121MOL0     C16242   3.664   8.996   0.894  0.0949 -0.0243 -0.1240
  121MOL0     C16243   3.753   9.098   0.970  0.4205 -0.3868 -0.5364
  121MOL0    Cl16244   3.780   9.246   0.862  0.1113 -0.0611  0.1778
  121MOL0     C16245   3.134   8.400   0.472  0.8342 -0.3800  1.1548
  121MOL0     C16246   3.045   8.289   0.463  0.2863 -1.2341 -0.8074
  121MOL0     O16247   2.957   7.986   0.519 -0.0957 -0.7049 -0.4292
  121MOL0     C16248   2.746   7.860   0.388  0.2291  0.6509 -0.6656
  121MOL0     C16249   2.639   7.774   0.357 -0.1032  0.6921 -0.4371
  121MOL0     N16250   1.991   7.501  -0.059  0.2137 -0.6572  0.6236
  121MOL0     N16251   1.891   7.571  -0.110  0.6083  0.3752  0.0970
  121MOL0     C16252   2.069   8.768  -0.061  0.0523  0.0706 -0.4483
  121MOL0     C16253   2.152   8.804   0.051  1.2267  0.2261 -0.1500
  121MOL0     C16254   2.484   8.691   0.375 -0.4053  0.2804 -0.0795
  121MOL0     C16255   2.508   8.826   0.389 -0.0319  0.8773  0.3283
  121MOL0     C16256   2.588   8.878   0.486  0.1669 -0.4212  0.3535
  121MOL0     C16257   2.657   8.798   0.579 -1.4492  0.5698  0.4970
  121MOL0     O16258   2.718   8.864   0.683  0.7491 -0.5704 -0.7424
  121MOL0     C16259   2.804   8.797   0.783 -0.1599  0.1468  0.0073
  121MOL0     C16260   2.893   8.907   0.849  0.2130  0.2277  1.2579
  121MOL0     C16261   2.897   8.900   1.000  0.2420 -0.4373 -0.3103
  121MOL0     C16262   3.014   8.973   1.070  0.2071 -0.0596 -0.8502
  121MOL0     C16263   3.139   8.938   1.006  1.1760 -0.8255  1.0435
  121MOL0     C16264   3.237   8.918   0.941 -0.3651 -0.2403  0.0385
  121MOL0     C16265   2.638   8.655   0.567  1.1415  0.2986  0.8875
  121MOL0     C16266   2.548   8.604   0.476  0.3454  0.7169  0.2658
  121MOL0     C16267   2.540   8.449   0.475  0.2456 -0.0510  0.6773
  121MOL0     H16268   2.395   8.573   0.006  0.9172  0.0448 -0.8767
  121MOL0     H16269   2.273   8.520  -0.186 -1.4454 -1.3132 -0.4589
  121MOL0     H16270   2.016   8.443  -0.360  0.0565  0.2834 -0.4317
  121MOL0     H16271   2.028   8.426  -0.176 -0.8357  1.0747  0.4449
  121MOL0     H16272   1.795   8.565  -0.302  1.5082  1.1711  1.0360
  121MOL0     H16273   1.810   8.512  -0.139 -1.5212  1.0608 -0.4781
  121MOL0     H16274   1.773   8.313  -0.377 -2.1128  2.5225 -1.0219
  121MOL0     H16275   1.654   8.366  -0.268 -0.3311 -2.2028  1.2691
  121MOL0     H16276   1.895   8.209  -0.193 -0.6075 -0.2398 -1.1441
  121MOL0     H16277   1.779   8.271  -0.078  0.5304  2.9880 -1.5476
  121MOL0     H16278   1.594   8.157  -0.242  1.8122  3.0967 -3.0086
  121MOL0     H16279   1.722   8.066  -0.311 -0.0810 -3.5152  2.0812
  121MOL0     H16280   1.652   8.051  -0.019  1.9954  1.8919 -0.0822
  121MOL0     H16281   1.631   7.923  -0.146  1.4883 -0.3409  0.9051
  121MOL0     H16282   1.800   7.873   0.011  1.7448 -0.8114 -0.0790
  121MOL0     H16283   1.905   7.997  -0.063 -1.0312  1.9461  2.5800
  121MOL0     H16284   1.768   7.784  -0.237 -1.4730  3.1245  0.2331
  121MOL0     H16285   1.922   7.858  -0.266 -2.6454  1.6379 -1.5179
  121MOL0     H16286   2.118   7.816  -0.057 -0.0568 -0.3837  1.9746
  121MOL0     H16287   2.217   7.467   0.073  1.0220  1.6299  2.1034
  121MOL0     H16288   2.279   7.505  -0.087 -0.9018 -2.2576  0.3395
  121MOL0     H16289   2.345   7.726  -0.010 -1.1781 -0.1134 -0.0736
  121MOL0     H16290   2.243   7.710   0.131 -2.4204 -0.9269 -2.2390
  121MOL0     H16291   2.524   7.645   0.125 -0.4392 -0.1004 -3.5502
  121MOL0     H16292   2.443   7.498   0.132 -1.6262 -0.0420  0.6300
  121MOL0     H16293   2.484   7.564   0.356 -1.1321 -2.8120 -1.6421
  121MOL0     H16294   2.310   7.568   0.351 -0.2235 -0.0976 -1.1333
  121MOL0     H16295   2.394   7.980   0.443 -0.6263 -0.1846  0.5174
  121MOL0     H16296   2.593   8.119   0.543 -1.6401 -1.3890  0.9571
  121MOL0     H16297   2.869   8.329   0.749 -2.0026 -1.1517 -3.1344
  121MOL0     H16298   3.009   8.523   0.771 -0.6908  1.2335  0.4264
  121MOL0     H16299   3.284   8.639   0.435  1.5978  3.6825 -1.1061
  121MOL0     H16300   3.132   8.726   0.426 -0.7431  0.6782  1.1633
  121MOL0     H16301   3.294   8.892   0.478  0.2787  1.5909  1.7641
  121MOL0     H16302   3.249   8.851   0.641  0.4927 -2.3838  1.3063
  121MOL0     H16303   3.434   8.689   0.648 -0.9561  0.3155  0.9818
  121MOL0     H16304   3.482   8.729   0.483  0.9884  1.2573 -0.0343
  121MOL0     H16305   3.470   8.945   0.706 -0.6504 -2.2872  1.1274
  121MOL0     H16306   3.531   8.959   0.548 -2.6142 -1.1418 -1.6572
  121MOL0     H16307   3.716   8.796   0.599 -1.4058 -0.4036 -1.1474
  121MOL0     H16308   3.657   8.753   0.764  2.3715 -0.9018 -1.6368
  121MOL0     H16309   3.830   8.909   0.776 -1.0284  0.2060  1.5505
  121MOL0     H16310   3.730   9.031   0.690  3.3882 -0.2873 -1.4891
  121MOL0     H16311   3.651   8.917   0.969  1.2693  1.2252  1.4854
  121MOL0     H16312   3.563   9.036   0.881 -1.0068 -2.5306  0.1770
  121MOL0     H16313   3.704   9.130   1.063  0.3021 -0.3931 -0.5970
  121MOL0     H16314   3.846   9.046   0.991  1.6659  2.2183  0.8889
  121MOL0     H16315   3.219   8.418   0.407  2.4021  2.2498  3.7138
  121MOL0     H16316   3.043   8.229   0.373 -3.1710 -1.3187 -0.7885
  121MOL0     H16317   2.847   7.846   0.350 -0.2847 -0.0811 -1.8178
  121MOL0     H16318   2.666   7.681   0.308 -0.9223  0.2992 -0.1578
  121MOL0     H16319   1.984   8.834  -0.075  3.0381  4.2362 -0.5263
  121MOL0     H16320   2.110   8.886   0.109  1.6065 -0.4920  1.1895
  121MOL0     H16321   2.467   8.900   0.321 -0.3175 -0.0814 -0.5646
  121MOL0     H16322   2.595   8.987   0.483  1.6619 -0.5167 -1.4865
  121MOL0     H16323   2.871   8.720   0.744  1.1580  0.3225  1.8243
  121MOL0     H16324   2.735   8.754   0.856  0.4695 -3.7521 -1.4331
  121MOL0     H16325   2.850   9.004   0.824  0.2677 -0.1518 -0.4044
  121MOL0     H16326   2.987   8.898   0.793 -2.3302  0.9180 -3.6481
  121MOL0     H16327   2.903   8.793   1.025 -0.1568 -0.0101  1.7933
  121MOL0     H16328   2.800   8.926   1.044  0.4759 -0.3995  0.1937
  121MOL0     H16329   2.972   9.074   1.081 -1.4217 -0.9445  2.2204
  121MOL0     H16330   3.033   8.932   1.170  2.9261 -1.1897 -1.7524
  121MOL0     H16331   3.318   8.900   0.873 -0.2849  0.8868 -0.1850
  121MOL0     H16332   2.689   8.589   0.637  2.0391  0.0963  0.0696
  121MOL0     H16333   2.616   8.403   0.539  1.2721  0.6931  0.0280
  121MOL0     H16334   2.446   8.436   0.530  1.5440  0.4057  3.1810
  121MOL0     H16335   2.540   8.403   0.376  1.3970 -0.1827  0.7263
  122MOL0     O16336  10.620   0.012  10.071 -0.2924 -0.2879 -0.7963
  122MOL0     C16337  10.557   0.014  10.172 -0.2464  1.6728 -1.4024
  122MOL0     O16338  10.561   0.114  10.267 -0.9941  0.7462 -0.3153
  122MOL0     C16339  10.547   0.243  10.233 -0.2600  0.3147 -0.2599
  122MOL0     C16340  10.659   0.322  10.250  0.1607 -0.3217 -0.8979
  122MOL0     C16341  10.653   0.457  10.214 -0.5795  0.6132 -1.0886
  122MOL0     C16342  10.540   0.513  10.163 -0.8264 -0.4001  0.6829
  122MOL0     O16343  10.556   0.645  10.136 -0.2347  0.0608 -0.3050
  122MOL0     C16344  10.441   0.717  10.093  0.1301  0.3861 -0.5575
  122MOL0     C16345  10.477   0.862  10.075  0.5425 -0.9810  0.6756
  122MOL0     C16346  10.351   0.928  10.025 -0.5385 -0.0375  1.2837
  122MOL0     C16347  10.367   1.079  10.004  0.0938 -0.3833 -0.2787
  122MOL0     C16348  10.232   1.145   9.982 -0.7260 -0.0944  0.7623
  122MOL0     C16349  10.253   1.299   9.994 -0.3153  1.0368  0.1864
  122MOL0     C16350  10.112   1.358   9.995  1.0813 -0.1873  0.6673
  122MOL0     C16351  10.062   1.379  10.139 -0.1282 -0.6936  0.3638
  122MOL0     N16352   9.921   1.425  10.147  0.1404 -0.5352 -1.1854
  122MOL0     C16353   9.812   1.333  10.152 -0.5714 -0.1963  0.2779
  122MOL0     C16354   9.702   1.405  10.183 -0.1534 -0.2747  0.5125
  122MOL0     C16355   9.565   1.354  10.178  0.9750 -0.3841  0.2720
  122MOL0     C16356   9.526   1.341  10.029 -0.2659 -0.5530 -0.5276
  122MOL0     C16357   9.415   1.244  10.021  0.4964 -0.4885  0.1058
  122MOL0     C16358   9.373   1.227   9.871 -0.8277  0.6029  0.8076
  122MOL0     O16359   9.469   1.177   9.786 -0.1369 -0.7295  0.5438
  122MOL0     C16360   9.420   1.138   9.656 -0.0898 -0.2385  0.3571
  122MOL0     C16361   9.449   1.006   9.621  0.0726  0.8864  1.0040
  122MOL0     C16362   9.416   0.954   9.492 -0.6010 -0.1640 -0.3966
  122MOL0     C16363   9.356   1.040   9.398  0.3448 -0.3953  0.0012
  122MOL0     C16364   9.327   0.983   9.266 -0.8368 -0.0170 -0.4901
  122MOL0     O16365   9.348   0.847   9.253 -0.2047 -0.2601 -0.7990
  122MOL0     C16366   9.351   0.799   9.116  0.2907 -0.4327 -0.8313
  122MOL0     C16367   9.448   0.835   9.038 -0.3017 -0.4143  0.2443
  122MOL0     C16368   9.446   0.788   8.905 -0.1023  0.6066 -0.0472
  122MOL0     C16369   9.357   0.682   8.865  0.8139 -0.4244  0.4654
  122MOL0     O16370   9.362   0.603   8.752 -0.2766 -0.1885  0.0311
  122MOL0     C16371   9.490   0.608   8.687 -0.0450  0.4993  0.4894
  122MOL0     C16372   9.505   0.491   8.592 -0.2807  0.2194 -0.2384
  122MOL0     C16373   9.531   0.346   8.660 -0.2254 -0.1041 -0.5677
  122MOL0     C16374   9.464   0.224   8.580 -0.3586 -1.0984 -1.0852
  122MOL0     C16375   9.523   0.196   8.448  0.8614  0.4335  0.8390
  122MOL0     C16376   9.450   0.078   8.379 -0.6637  0.4939 -0.0131
  122MOL0     C16377   9.485   0.081   8.227  0.2908  0.1265  0.0697
  122MOL0     C16378   9.414  -0.032   8.160  0.3670  0.3189 -0.5718
  122MOL0    Cl16379   9.445  -0.040   7.986  0.5672  0.0283  0.5564
  122MOL0     C16380   9.249   0.659   8.953  0.8104  0.4889  0.2782
  122MOL0     C16381   9.247   0.719   9.078 -0.6311  0.1684 -0.2984
  122MOL0     O16382   9.302   1.064   9.176 -0.4349 -0.9499 -0.4839
  122MOL0     C16383   9.337   1.174   9.429 -1.5065 -0.1620  1.0386
  122MOL0     C16384   9.361   1.218   9.563  0.2735  0.2023  1.7918
  122MOL0     N16385   9.746   1.531  10.201  1.2639 -0.2291  0.0929
  122MOL0     N16386   9.877   1.546  10.198 -0.3223  0.2286  0.8702
  122MOL0     C16387  10.427   0.438  10.137 -0.7999 -0.4698 -0.6984
  122MOL0     C16388  10.431   0.299  10.180  1.2125  0.3839  0.0200
  122MOL0     C16389  10.463  -0.106  10.207 -0.5532  0.3332  0.0486
  122MOL0     C16390  10.374  -0.100  10.321  0.2544 -0.4074 -0.1860
  122MOL0     C16391  10.296  -0.202  10.360  1.2835  1.2500 -0.4905
  122MOL0     C16392  10.291  -0.324  10.281  0.0862 -0.0302  0.6043
  122MOL0     O16393  10.216  -0.434  10.296 -0.4216 -0.2469  0.1032
  122MOL0     C16394  10.147  -0.463  10.417 -0.0615 -0.3261  0.4553
  122MOL0     C16395  10.081  -0.600  10.403 -0.1956  0.9095  0.7480
  122MOL0     C16396  10.032  -0.656  10.545  1.1892 -0.7770 -0.7411
  122MOL0     C16397   9.916  -0.562  10.606 -0.3192  1.9769 -0.0461
  122MOL0     C16398   9.972  -0.499  10.722 -0.4386  0.3023  0.3546
  122MOL0     C16399  10.010  -0.453  10.826  0.2093 -0.2319  0.1522
  122MOL0     C16400  10.370  -0.330  10.168  0.4782 -0.6420 -0.3911
  122MOL0     C16401  10.462  -0.233  10.139 -0.3131  0.2369 -0.8011
  122MOL0     C16402  10.555  -0.254  10.022  0.3458 -0.0298 -0.0202
  122MOL0     H16403  10.753   0.278  10.280  0.2298  1.4016  1.7456
  122MOL0     H16404  10.738   0.522  10.230 -0.1393 -0.4648  1.5712
  122MOL0     H16405  10.389   0.692  10.000 -1.4542  6.6597 -1.8286
  122MOL0     H16406  10.365   0.716  10.171 -1.1565 -0.3178 -1.7658
  122MOL0     H16407  10.557   0.871  10.001  0.6735  3.1160  1.1110
  122MOL0     H16408  10.511   0.907  10.169 -1.9729  1.3769  0.5830
  122MOL0     H16409  10.274   0.921  10.102  0.3632  0.0255  2.2036
  122MOL0     H16410  10.327   0.875   9.932  2.7655 -0.0824  0.3172
  122MOL0     H16411  10.408   1.127  10.094 -3.0360  3.5820 -0.6365
  122MOL0     H16412  10.434   1.100   9.921  2.2311  2.0634  1.8821
  122MOL0     H16413  10.183   1.116   9.889  0.6689 -0.1311  0.0081
  122MOL0     H16414  10.160   1.103  10.054 -0.6624 -0.2949  0.7117
  122MOL0     H16415  10.315   1.326  10.080 -1.2513  1.4273  0.7479
  122MOL0     H16416  10.313   1.338   9.911  3.7441 -2.2875  1.1785
  122MOL0     H16417  10.039   1.297   9.942  0.6810  0.7456  0.1175
  122MOL0     H16418  10.110   1.450   9.936  1.3089 -0.4735  0.2072
  122MOL0     H16419  10.082   1.293  10.202 -0.8855 -0.2773  1.2012
  122MOL0     H16420  10.117   1.460  10.189 -0.0328  0.4960 -1.5753
  122MOL0     H16421   9.814   1.233  10.111  0.3972 -0.1329  0.1441
  122MOL0     H16422   9.562   1.259  10.231  0.6413 -1.5667 -1.7611
  122MOL0     H16423   9.496   1.426  10.222  1.0634  0.7216 -1.3178
  122MOL0     H16424   9.484   1.439  10.007  0.8888  0.9998  3.2412
  122MOL0     H16425   9.606   1.314   9.960  0.6238  0.7651 -0.0502
  122MOL0     H16426   9.329   1.275  10.081 -1.0024 -5.2170  0.8622
  122MOL0     H16427   9.452   1.147  10.057 -0.5548 -1.1618 -0.5880
  122MOL0     H16428   9.319   1.313   9.831  0.8768  1.7866  0.9199
  122MOL0     H16429   9.305   1.142   9.876 -1.0373  0.7811  0.9937
  122MOL0     H16430   9.486   0.932   9.691 -1.2539  0.4059  1.2230
  122MOL0     H16431   9.436   0.849   9.469  1.5903 -0.4367  2.2484
  122MOL0     H16432   9.517   0.911   9.073 -0.4374 -0.2772  0.2190
  122MOL0     H16433   9.515   0.832   8.834 -0.2449 -1.3535 -1.4714
  122MOL0     H16434   9.489   0.689   8.613 -1.1033 -1.7395 -2.1243
  122MOL0     H16435   9.583   0.613   8.744  1.8685  0.1721 -2.4131
  122MOL0     H16436   9.408   0.488   8.542  0.0443  1.4415 -1.0033
  122MOL0     H16437   9.586   0.507   8.520  1.9974 -1.5813  1.7653
  122MOL0     H16438   9.640   0.339   8.666  0.0698 -0.0692 -4.1161
  122MOL0     H16439   9.488   0.354   8.761  2.4084 -2.4932  0.8751
  122MOL0     H16440   9.360   0.250   8.560 -0.1028 -0.3079 -1.4361
  122MOL0     H16441   9.467   0.137   8.647  0.7035  0.0308  0.4019
  122MOL0     H16442   9.632   0.196   8.440  1.0070 -2.6949  1.4890
  122MOL0     H16443   9.498   0.283   8.387  2.0661 -0.0638 -0.4224
  122MOL0     H16444   9.497  -0.006   8.430 -1.3102  1.8661  3.0514
  122MOL0     H16445   9.345   0.077   8.410 -0.0979 -0.5152  1.9989
  122MOL0     H16446   9.593   0.065   8.227  0.3526  0.5054  0.7587
  122MOL0     H16447   9.457   0.180   8.189  1.0615  0.1890 -0.3471
  122MOL0     H16448   9.426  -0.131   8.205 -1.4607  0.2314 -0.2215
  122MOL0     H16449   9.306  -0.017   8.172  0.5321  1.6829 -0.5748
  122MOL0     H16450   9.175   0.585   8.922 -0.9523  1.9518  0.8368
  122MOL0     H16451   9.171   0.681   9.146  2.5166 -4.2141  1.2835
  122MOL0     H16452   9.311   1.251   9.357  1.9975  0.8918  0.7027
  122MOL0     H16453   9.370   1.322   9.592  2.1708  0.3056  0.9823
  122MOL0     H16454  10.335   0.480  10.100 -1.2931  1.5653  2.4244
  122MOL0     H16455  10.337   0.246  10.181 -0.1099  2.4894 -2.1407
  122MOL0     H16456  10.376  -0.002  10.369 -1.3635  0.6939 -2.1972
  122MOL0     H16457  10.239  -0.196  10.452 -1.4392 -1.1238 -1.8608
  122MOL0     H16458  10.074  -0.385  10.442 -1.3461 -0.2750 -2.9034
  122MOL0     H16459  10.216  -0.472  10.501 -0.8891 -1.2171  1.0628
  122MOL0     H16460  10.162  -0.663  10.365 -1.0813  1.8307 -3.0826
  122MOL0     H16461  10.011  -0.612  10.319  1.0991 -3.3833  0.0136
  122MOL0     H16462  10.112  -0.666  10.620  1.3550 -0.6873 -0.9054
  122MOL0     H16463   9.995  -0.757  10.526  0.4029 -0.4238 -1.0909
  122MOL0     H16464   9.896  -0.487  10.529  1.8739  0.7569 -1.9366
  122MOL0     H16465   9.829  -0.614  10.645  0.0535  1.9891  0.8159
  122MOL0     H16466  10.031  -0.406  10.920  0.4540  0.9154 -0.4612
  122MOL0     H16467  10.374  -0.420  10.108  1.9007 -0.8204 -0.0569
  122MOL0     H16468  10.541  -0.183   9.940  3.0127 -1.9548 -2.3033
  122MOL0     H16469  10.658  -0.249  10.058  0.7580  1.3897 -1.2957
  122MOL0     H16470  10.546  -0.353   9.977  1.8562 -0.4437  0.5340
  123MOL0     O16471   2.911   6.362   8.795  0.3664 -0.5257 -0.0317
  123MOL0     C16472   2.866   6.471   8.829  0.3183 -0.4068 -0.4953
  123MOL0     O16473   2.805   6.487   8.950  0.0475 -0.4635  0.1454
  123MOL0     C16474   2.829   6.601   9.023  0.0215 -0.1419 -0.2711
  123MOL0     C16475   2.726   6.646   9.103 -0.9190  0.6166  0.9035
  123MOL0     C16476   2.750   6.759   9.181 -0.0798 -0.9606  0.2460
  123MOL0     C16477   2.884   6.817   9.185 -0.1714 -0.2486 -0.6117
  123MOL0     O16478   2.901   6.924   9.267 -0.1458 -0.4880 -0.0333
  123MOL0     C16479   3.028   6.948   9.342  1.0193  0.0756 -0.3279
  123MOL0     C16480   3.018   7.026   9.487  0.5139 -0.0717  0.0725
  123MOL0     C16481   2.909   6.968   9.575  1.2810  0.2955 -0.8217
  123MOL0     C16482   2.953   6.943   9.720 -0.3091 -0.0996 -0.1017
  123MOL0     C16483   2.971   7.074   9.795  0.4273  0.1725  0.2480
  123MOL0     C16484   2.959   7.065   9.939  0.2567 -0.0403 -1.1055
  123MOL0     C16485   2.905   7.192  10.010 -0.8618 -0.1575  0.2897
  123MOL0     C16486   2.882   7.187  10.163 -0.0660  0.9148  1.0311
  123MOL0     N16487   2.996   7.135  10.250 -0.4750 -0.0836 -0.4388
  123MOL0     C16488   3.114   7.205  10.274 -0.0484 -0.5348 -0.3651
  123MOL0     C16489   3.176   7.139  10.380  0.7548  0.7417 -0.1854
  123MOL0     C16490   3.313   7.168  10.438 -0.7374  0.2632 -0.3242
  123MOL0     C16491   3.342   7.139  10.586  0.3518  0.2264 -0.7722
  123MOL0     C16492   3.481   7.170  10.637  0.6176  0.1396  0.6259
  123MOL0     C16493   3.490   7.310  10.670 -0.3481 -0.3348 -0.0916
  123MOL0     O16494   3.621   7.338  10.709  0.2358  0.3884 -0.2776
  123MOL0     C16495   3.632   7.466  10.760 -1.0659 -0.1937 -0.4029
  123MOL0     C16496   3.753   7.492  10.819  0.2084  0.7804  0.0186
  123MOL0     C16497   3.785   7.615  10.872  0.1266 -0.2588 -1.0569
  123MOL0     C16498   3.686   7.710  10.881 -0.0497 -0.3807 -0.1557
  123MOL0     C16499   3.712   7.838  10.950  0.1011 -0.1954  0.3342
  123MOL0     O16500   3.603   7.910  10.969  0.9346 -0.2531  0.2057
  123MOL0     C16501   3.608   8.023  11.045  0.0180  0.0340 -0.5786
  123MOL0     C16502   3.725   8.107  11.043  0.6895 -0.2299 -0.3925
  123MOL0     C16503   3.724   8.223  11.118  0.4638 -0.0842  0.8580
  123MOL0     C16504   3.612   8.259  11.190 -0.2596  0.0163 -1.5246
  123MOL0     O16505   3.608   8.372  11.267 -0.1529 -0.7814 -0.3699
  123MOL0     C16506   3.731   8.455  11.286  0.0620 -0.8183  0.0124
  123MOL0     C16507   3.808   8.421  11.421 -0.9340 -0.0827 -0.4053
  123MOL0     C16508   3.929   8.513  11.436  1.0277  0.2600  0.1428
  123MOL0     C16509   4.037   8.491  11.331  0.9741 -0.8567 -0.3286
  123MOL0     C16510   4.183   8.511  11.375 -0.6002 -0.8001 -0.4743
  123MOL0     C16511   4.285   8.529  11.260  0.9334  0.9145 -0.6464
  123MOL0     C16512   4.421   8.526  11.324 -1.0650  0.3849  0.7729
  123MOL0     C16513   4.541   8.525  11.227  0.9260 -0.3025  0.1490
  123MOL0    Cl16514   4.514   8.652  11.095 -0.8402 -0.4849 -0.3147
  123MOL0     C16515   3.504   8.175  11.207  0.2011  0.6950  0.1622
  123MOL0     C16516   3.501   8.065  11.117  0.0047  0.2047  0.1908
  123MOL0     O16517   3.828   7.867  10.996 -0.5848 -0.3687 -0.4643
  123MOL0     C16518   3.574   7.696  10.813  1.4215 -0.6008  1.3829
  123MOL0     C16519   3.546   7.576  10.746  0.2075  0.3176  0.0218
  123MOL0     N16520   3.091   7.030  10.416  0.0248 -0.0393  0.7749
  123MOL0     N16521   2.986   7.026  10.335 -0.1627  0.1760  0.5947
  123MOL0     C16522   2.987   6.769   9.100  0.3503 -0.0845  0.1650
  123MOL0     C16523   2.956   6.659   9.021 -0.2433 -0.0450  0.0186
  123MOL0     C16524   2.880   6.584   8.723  0.3324  0.7585 -0.7651
  123MOL0     C16525   2.771   6.672   8.700 -0.0645  0.0729 -0.0167
  123MOL0     C16526   2.786   6.788   8.625 -0.5184 -0.2811 -1.2391
  123MOL0     C16527   2.902   6.811   8.553 -1.2074 -0.2171  0.7028
  123MOL0     O16528   2.924   6.917   8.475  0.5452 -0.1244  0.0195
  123MOL0     C16529   2.815   7.006   8.450 -0.3663  0.3475  0.4973
  123MOL0     C16530   2.857   7.089   8.321 -0.5158 -0.0375 -1.1475
  123MOL0     C16531   2.865   7.022   8.188  0.9345  0.8373  0.8147
  123MOL0     C16532   3.002   6.951   8.152  0.6680 -0.1074 -0.0864
  123MOL0     C16533   3.011   6.941   8.010 -0.4399  0.8779  0.3182
  123MOL0     C16534   3.025   6.943   7.890 -0.0813 -0.2637 -0.1412
  123MOL0     C16535   3.004   6.714   8.565  1.0607  0.0887  0.8127
  123MOL0     C16536   3.000   6.611   8.655 -0.4501 -0.0115 -0.1019
  123MOL0     C16537   3.126   6.522   8.672  1.8268  0.2339 -0.2144
  123MOL0     H16538   2.629   6.597   9.095 -2.7019  3.7351  1.5110
  123MOL0     H16539   2.679   6.805   9.248 -1.7088  2.4526 -3.4056
  123MOL0     H16540   3.067   6.848   9.364 -0.7566 -0.8233 -1.1300
  123MOL0     H16541   3.093   7.006   9.276  0.4348  1.6247  0.3994
  123MOL0     H16542   3.011   7.131   9.459  3.8931 -0.2701 -2.0363
  123MOL0     H16543   3.121   7.019   9.524  1.1133  1.9973 -1.0830
  123MOL0     H16544   2.874   6.871   9.540 -1.5688 -0.2834  2.9631
  123MOL0     H16545   2.820   7.032   9.578 -0.3688 -1.6151 -4.0653
  123MOL0     H16546   2.880   6.878   9.769  0.2494 -1.4591 -1.0134
  123MOL0     H16547   3.051   6.896   9.732 -0.6390 -0.4583  1.4308
  123MOL0     H16548   3.073   7.108   9.776  0.1548  1.5287  1.1166
  123MOL0     H16549   2.907   7.155   9.759  0.3406  0.4705  1.0396
  123MOL0     H16550   2.883   6.990   9.961 -0.0843  0.6887  0.3616
  123MOL0     H16551   3.049   7.023   9.986 -1.1287  0.0018  1.8136
  123MOL0     H16552   2.808   7.227   9.973 -1.3141  0.1843  1.7351
  123MOL0     H16553   2.984   7.261   9.980  0.0117 -2.2305 -2.6100
  123MOL0     H16554   2.853   7.282  10.209 -0.3553 -0.0228  2.9223
  123MOL0     H16555   2.794   7.123  10.177 -1.4109  2.4793  0.0792
  123MOL0     H16556   3.158   7.297  10.236  1.3548 -1.7741 -1.8959
  123MOL0     H16557   3.384   7.121  10.370  0.4213 -1.0690  1.6939
  123MOL0     H16558   3.337   7.275  10.438  2.4085 -0.3438  0.7207
  123MOL0     H16559   3.271   7.200  10.642 -0.0079  0.3953 -1.3950
  123MOL0     H16560   3.313   7.037  10.611  2.1884 -0.1770 -0.1206
  123MOL0     H16561   3.552   7.147  10.557  0.0117  0.2632  0.0462
  123MOL0     H16562   3.515   7.106  10.719 -0.7797 -2.9124 -1.0226
  123MOL0     H16563   3.409   7.337  10.738 -0.8920 -1.3745 -0.2967
  123MOL0     H16564   3.477   7.370  10.579  0.6971  2.7552  1.6597
  123MOL0     H16565   3.818   7.405  10.827 -0.1335  0.4827 -0.3737
  123MOL0     H16566   3.878   7.629  10.927 -1.9061  1.9289  2.1453
  123MOL0     H16567   3.817   8.088  10.988  1.5917  3.1923 -0.3001
  123MOL0     H16568   3.810   8.287  11.105  0.6590 -0.4850  0.0543
  123MOL0     H16569   3.807   8.454  11.208  1.5091  2.7280  1.1770
  123MOL0     H16570   3.698   8.559  11.295  1.3678 -0.4999  1.5328
  123MOL0     H16571   3.741   8.432  11.506  0.0174  1.6947  0.1682
  123MOL0     H16572   3.840   8.317  11.427  2.6316  0.8996  0.6244
  123MOL0     H16573   3.901   8.619  11.439 -2.6060 -0.5931  1.2566
  123MOL0     H16574   3.962   8.487  11.538 -1.0473  0.2164  0.8580
  123MOL0     H16575   4.023   8.572  11.260  1.4351 -1.9076 -1.6517
  123MOL0     H16576   4.027   8.391  11.288  1.1446 -0.4399 -1.3666
  123MOL0     H16577   4.205   8.434  11.450 -0.4219 -1.4996 -1.2248
  123MOL0     H16578   4.190   8.610  11.420 -2.3362 -0.4844 -0.8047
  123MOL0     H16579   4.271   8.448  11.188 -0.8495  0.0294  0.6148
  123MOL0     H16580   4.265   8.624  11.208  1.6837 -0.5324 -3.8708
  123MOL0     H16581   4.438   8.442  11.392 -0.5196  0.7087  1.0474
  123MOL0     H16582   4.423   8.617  11.385 -3.3385  0.2745  1.0923
  123MOL0     H16583   4.631   8.546  11.284  0.2351 -1.5441  1.7706
  123MOL0     H16584   4.556   8.428  11.179 -1.3959 -2.1950  2.9137
  123MOL0     H16585   3.411   8.209  11.251 -0.8200  0.3034 -1.5891
  123MOL0     H16586   3.427   7.986  11.109  1.5026 -1.1530 -0.7426
  123MOL0     H16587   3.507   7.781  10.804  0.2103 -1.1418  4.1336
  123MOL0     H16588   3.448   7.559  10.702 -1.4894 -1.9654  4.0819
  123MOL0     H16589   3.091   6.799   9.093  0.5057 -0.3739  1.1608
  123MOL0     H16590   3.040   6.610   8.974  2.0979 -0.5692  4.2567
  123MOL0     H16591   2.676   6.653   8.748  0.4707 -2.1139  0.2430
  123MOL0     H16592   2.707   6.862   8.624  2.1564  2.7664 -0.2565
  123MOL0     H16593   2.800   7.074   8.535  0.0647 -1.4923  2.1082
  123MOL0     H16594   2.723   6.949   8.433  0.6444 -0.4757 -2.9874
  123MOL0     H16595   2.951   7.143   8.335 -0.9571  0.9803 -1.9985
  123MOL0     H16596   2.784   7.170   8.310 -2.2975 -1.1709  1.3555
  123MOL0     H16597   2.847   7.096   8.109 -1.3611 -0.1010  0.3885
  123MOL0     H16598   2.780   6.955   8.176  0.2480  1.6674  0.9378
  123MOL0     H16599   3.081   7.019   8.182  0.2412  0.2828  0.1745
  123MOL0     H16600   3.018   6.854   8.200 -1.8568  0.0148  1.1930
  123MOL0     H16601   3.024   6.956   7.784 -3.6946 -0.1699 -0.2193
  123MOL0     H16602   3.095   6.731   8.507 -0.9488  0.9790 -2.3316
  123MOL0     H16603   3.099   6.419   8.646  0.2536  0.8334 -1.0897
  123MOL0     H16604   3.207   6.548   8.604  0.9018 -1.1517 -1.9210
  123MOL0     H16605   3.151   6.526   8.779  0.4514 -0.5308  0.1600
  124MOL0     O16606   2.161  11.335   4.079  0.1069 -0.1435  0.2512
  124MOL0     C16607   2.162  11.438   4.142  0.7702 -0.0724  0.4180
  124MOL0     O16608   2.043  11.511   4.152  0.3214  0.9794 -0.1577
  124MOL0     C16609   1.938  11.480   4.077  0.4011 -0.5037  0.3743
  124MOL0     C16610   1.937  11.477   3.940 -0.5489 -0.0340  0.8234
  124MOL0     C16611   1.815  11.499   3.878  0.1308  0.1346  0.5104
  124MOL0     C16612   1.694  11.516   3.947 -1.0061 -0.1182 -0.3794
  124MOL0     O16613   1.580  11.528   3.879 -0.1780  0.3999 -0.2151
  124MOL0     C16614   1.446  11.525   3.940  0.4357 -0.1518 -0.6750
  124MOL0     C16615   1.349  11.565   3.824 -0.0336 -0.3020  0.2843
  124MOL0     C16616   1.220  11.589   3.884  0.6987  0.4343 -0.5048
  124MOL0     C16617   1.099  11.625   3.787  0.1351 -1.0043  0.1281
  124MOL0     C16618   1.083  11.530   3.661  0.5236 -0.3331  0.0220
  124MOL0     C16619   1.043  11.384   3.686  0.3162 -0.1885  0.1998
  124MOL0     C16620   0.911  11.372   3.765 -0.7261 -0.4076 -0.4360
  124MOL0     C16621   0.853  11.235   3.747  0.7935  0.3526  0.1670
  124MOL0     N16622   0.790  11.210   3.617 -0.3398 -0.4254 -0.0906
  124MOL0     C16623   0.857  11.163   3.508 -0.2617  0.9443  0.4044
  124MOL0     C16624   0.774  11.188   3.402  0.4858  0.0178 -0.8043
  124MOL0     C16625   0.796  11.152   3.256  0.2656  0.3980  0.0589
  124MOL0     C16626   0.819  11.272   3.168 -0.2985  0.1196  0.6938
  124MOL0     C16627   0.926  11.374   3.187 -0.4874  0.1625 -0.0296
  124MOL0     C16628   0.921  11.489   3.081 -0.9753  0.3093  0.0816
  124MOL0     O16629   0.937  11.457   2.943  0.6395  0.6734  0.5693
  124MOL0     C16630   0.894  11.555   2.860 -0.4780  0.4988 -0.5742
  124MOL0     C16631   0.857  11.502   2.739  0.5668 -0.0373 -0.3850
  124MOL0     C16632   0.819  11.590   2.642 -0.1995 -0.2279 -0.1491
  124MOL0     C16633   0.808  11.733   2.663 -0.6442 -0.2330  0.1854
  124MOL0     C16634   0.764  11.819   2.555 -0.6382 -0.9322  0.1693
  124MOL0     O16635   0.698  11.767   2.448 -0.2851  0.1711  0.4355
  124MOL0     C16636   0.646  11.864   2.362 -0.2318  0.2759  0.3810
  124MOL0     C16637   0.540  11.946   2.393  0.0675 -0.8147 -0.8531
  124MOL0     C16638   0.485  12.040   2.304  1.3315 -0.9881  1.1064
  124MOL0     C16639   0.528  12.046   2.169  0.0330  0.3513  0.0829
  124MOL0     O16640   0.467  12.117   2.065  0.3488  0.5441 -0.2257
  124MOL0     C16641   0.343  12.186   2.091  0.5914  0.1824  0.4445
  124MOL0     C16642   0.341  12.311   2.004  1.1701 -0.2943  0.8242
  124MOL0     C16643   0.267  12.439   2.059  0.4236  0.4245  0.4697
  124MOL0     C16644   0.314  12.489   2.194  0.2962  1.2151  0.2928
  124MOL0     C16645   0.261  12.622   2.231  0.6104 -0.3116 -0.0315
  124MOL0     C16646   0.308  12.663   2.379  0.3592 -0.2477 -0.0132
  124MOL0     C16647   0.224  12.784   2.404  0.6377 -0.1221 -0.3132
  124MOL0     C16648   0.255  12.851   2.535  0.8201  0.0778 -0.1415
  124MOL0    Cl16649   0.434  12.900   2.534 -0.3906 -0.0842 -0.0137
  124MOL0     C16650   0.651  11.974   2.141 -0.1629 -0.0054  0.1676
  124MOL0     C16651   0.695  11.878   2.232 -0.4131 -0.6036 -0.9500
  124MOL0     O16652   0.802  11.934   2.564 -0.2642 -0.4449 -0.4021
  124MOL0     C16653   0.852  11.782   2.790  0.3944 -0.3988 -0.1423
  124MOL0     C16654   0.889  11.694   2.888  0.2708  0.2025  0.0451
  124MOL0     N16655   0.656  11.250   3.452  0.7319  0.8014  0.2125
  124MOL0     N16656   0.674  11.268   3.577  0.0187  0.5102  0.4139
  124MOL0     C16657   1.701  11.505   4.089 -0.3463 -0.9750  0.6112
  124MOL0     C16658   1.819  11.478   4.151 -1.2044 -0.6602 -0.2893
  124MOL0     C16659   2.268  11.470   4.244  0.7239 -0.4275  0.4232
  124MOL0     C16660   2.237  11.504   4.373  0.3272  0.5313 -0.8389
  124MOL0     C16661   2.340  11.517   4.473  0.1488 -0.1413 -0.1582
  124MOL0     C16662   2.474  11.522   4.439  0.3592 -1.7167  0.1697
  124MOL0     O16663   2.581  11.556   4.526  0.0364  0.6159 -0.5540
  124MOL0     C16664   2.546  11.630   4.645  0.4168  0.5626  0.0698
  124MOL0     C16665   2.684  11.679   4.700  0.0859 -0.5997  0.6975
  124MOL0     C16666   2.788  11.568   4.717  0.0655 -0.5698 -0.1313
  124MOL0     C16667   2.731  11.437   4.771  0.4388  0.4935  0.0290
  124MOL0     C16668   2.694  11.435   4.917 -0.2997  0.6075  0.3236
  124MOL0     C16669   2.679  11.422   5.035  0.1500 -0.3698  0.2075
  124MOL0     C16670   2.502  11.509   4.302  0.0420 -0.4525 -0.5726
  124MOL0     C16671   2.408  11.482   4.204 -0.0595  0.6494 -0.3076
  124MOL0     C16672   2.460  11.478   4.058  0.3808  0.2229  0.2567
  124MOL0     H16673   2.026  11.471   3.879 -1.2979  1.1528 -0.4377
  124MOL0     H16674   1.807  11.500   3.770  2.4200  3.8665  0.1746
  124MOL0     H16675   1.433  11.420   3.968 -0.7289  0.5609  1.6661
  124MOL0     H16676   1.456  11.582   4.032  3.8883 -2.3127  0.4997
  124MOL0     H16677   1.339  11.493   3.742 -2.8798  4.2699 -3.9243
  124MOL0     H16678   1.376  11.659   3.776 -0.3648 -0.3757 -0.0443
  124MOL0     H16679   1.239  11.659   3.966  3.0076 -0.4678 -0.1750
  124MOL0     H16680   1.189  11.497   3.934  0.7109  1.0023  0.5737
  124MOL0     H16681   1.009  11.628   3.849  1.5880  0.8358  2.2833
  124MOL0     H16682   1.121  11.725   3.748 -0.0756 -0.4027  1.5177
  124MOL0     H16683   1.017  11.579   3.588 -0.8155 -0.8083  0.8704
  124MOL0     H16684   1.173  11.525   3.599 -1.4027  0.5607 -3.1474
  124MOL0     H16685   1.037  11.340   3.586 -1.0103 -2.6801  1.2914
  124MOL0     H16686   1.123  11.336   3.742 -0.6896  0.0891  1.9370
  124MOL0     H16687   0.846  11.445   3.716  1.1481  0.2588 -2.0705
  124MOL0     H16688   0.931  11.382   3.872  0.4427 -0.8823 -0.5996
  124MOL0     H16689   0.931  11.158   3.750 -0.7018 -1.2820 -0.6213
  124MOL0     H16690   0.776  11.212   3.821 -0.4101  1.5431 -0.6662
  124MOL0     H16691   0.960  11.130   3.516 -1.1408 -2.2791  0.0253
  124MOL0     H16692   0.884  11.088   3.253  0.4882  0.7067 -0.2199
  124MOL0     H16693   0.709  11.104   3.212 -0.7557  1.2951  1.0562
  124MOL0     H16694   0.831  11.233   3.066  2.4786 -4.1479  2.4014
  124MOL0     H16695   0.723  11.325   3.167 -1.1981 -1.4568  0.3739
  124MOL0     H16696   1.029  11.337   3.184  0.3642  2.3527 -0.0079
  124MOL0     H16697   0.904  11.428   3.280 -3.3779  0.6360 -0.8968
  124MOL0     H16698   0.997  11.561   3.111  1.6955 -0.6370 -3.6133
  124MOL0     H16699   0.818  11.526   3.079 -1.2598 -0.3249 -3.1352
  124MOL0     H16700   0.872  11.396   2.717  0.7395 -0.2937  0.8675
  124MOL0     H16701   0.793  11.546   2.546  0.8489  2.2383 -1.6433
  124MOL0     H16702   0.506  11.932   2.496 -3.1621 -2.5419 -2.0133
  124MOL0     H16703   0.405  12.106   2.335  1.1211  0.1162 -1.5119
  124MOL0     H16704   0.266  12.119   2.050  1.6703  0.1553 -1.6934
  124MOL0     H16705   0.317  12.215   2.193  2.5994  0.1100  1.0290
  124MOL0     H16706   0.442  12.348   1.985  0.4782  0.3811 -2.2582
  124MOL0     H16707   0.294  12.283   1.909 -0.0796  1.8397  0.7426
  124MOL0     H16708   0.288  12.518   1.986 -1.3805 -0.4757 -1.0935
  124MOL0     H16709   0.161  12.419   2.072  1.0940 -4.4259  0.3644
  124MOL0     H16710   0.423  12.490   2.199  0.6516 -0.8301 -3.5130
  124MOL0     H16711   0.273  12.418   2.267  1.1016 -1.0895 -1.3755
  124MOL0     H16712   0.152  12.626   2.227  0.6705  1.7157 -0.4301
  124MOL0     H16713   0.306  12.691   2.160 -0.4790 -0.0479 -0.4826
  124MOL0     H16714   0.292  12.592   2.460  0.9302 -1.4235 -0.9045
  124MOL0     H16715   0.413  12.693   2.373  0.5413 -1.0157 -1.0721
  124MOL0     H16716   0.119  12.755   2.403  1.2953 -2.7452  0.2132
  124MOL0     H16717   0.247  12.859   2.328 -3.2830 -0.2592 -1.8854
  124MOL0     H16718   0.196  12.941   2.553 -0.3819 -0.7384  0.1396
  124MOL0     H16719   0.230  12.775   2.611 -0.3276 -0.4728 -1.0444
  124MOL0     H16720   0.697  11.981   2.043  0.3662 -3.4566  0.0415
  124MOL0     H16721   0.776  11.812   2.201  0.1055  0.0320 -0.9891
  124MOL0     H16722   0.858  11.890   2.800 -2.2634 -0.1126 -0.9038
  124MOL0     H16723   0.917  11.738   2.984  3.0533  0.3095 -0.7224
  124MOL0     H16724   1.613  11.517   4.152 -0.1438  0.0053  0.7267
  124MOL0     H16725   1.828  11.480   4.259  4.2069  3.4223 -0.3536
  124MOL0     H16726   2.134  11.492   4.402  0.1250  1.6061 -1.0561
  124MOL0     H16727   2.297  11.516   4.572  0.0651 -0.1863 -0.1946
  124MOL0     H16728   2.480  11.572   4.710 -1.0314  0.4199 -1.4793
  124MOL0     H16729   2.490  11.721   4.622 -1.2322  0.0450  1.7615
  124MOL0     H16730   2.665  11.714   4.802 -1.3283  0.4174  0.1174
  124MOL0     H16731   2.723  11.762   4.640  3.0682 -0.0834  3.1017
  124MOL0     H16732   2.858  11.614   4.787 -1.8923  2.0005  0.2791
  124MOL0     H16733   2.843  11.551   4.624  2.1125 -1.7316  1.1937
  124MOL0     H16734   2.646  11.396   4.716 -1.4905  1.3647  2.1842
  124MOL0     H16735   2.816  11.369   4.761  1.3415  1.0745  2.8813
  124MOL0     H16736   2.643  11.415   5.136 -0.8910 -1.1551 -0.1970
  124MOL0     H16737   2.608  11.515   4.280 -0.1602 -0.8080 -1.7241
  124MOL0     H16738   2.484  11.580   4.026 -1.8928  0.8536  0.4038
  124MOL0     H16739   2.550  11.417   4.045  0.1821  0.3527 -2.0647
  124MOL0     H16740   2.392  11.420   3.996 -1.5946  0.3556  2.1789
  125MOL0     O16741   5.948  10.800   0.859  0.2481  0.0409  0.0404
  125MOL0     C16742   5.975  10.688   0.908 -1.0908 -0.4047  0.1410
  125MOL0     O16743   6.025  10.586   0.838  0.4527  0.2033 -1.1093
  125MOL0     C16744   6.099  10.622   0.734  0.6715 -0.0938  0.0326
  125MOL0     C16745   6.232  10.655   0.750  0.1872 -0.2938  0.0557
  125MOL0     C16746   6.307  10.674   0.634 -0.0316  0.8641  0.2866
  125MOL0     C16747   6.261  10.641   0.505  0.4042 -0.2182  0.3940
  125MOL0     O16748   6.353  10.644   0.402 -0.1043 -0.4281 -0.1089
  125MOL0     C16749   6.323  10.580   0.274 -0.2588 -0.1955 -0.3426
  125MOL0     C16750   6.303  10.431   0.285 -0.0509 -0.0979 -0.7061
  125MOL0     C16751   6.425  10.340   0.297  0.8534 -0.6100 -0.1305
  125MOL0     C16752   6.519  10.364   0.174  0.0541 -0.1803 -0.4741
  125MOL0     C16753   6.628  10.266   0.167  0.1860  1.1222  0.3625
  125MOL0     C16754   6.720  10.271   0.280 -0.3959  0.2466  0.2634
  125MOL0     C16755   6.847  10.186   0.269 -0.2841  0.1150 -0.8568
  125MOL0     C16756   6.919  10.178   0.404  0.4128  0.6511  0.0628
  125MOL0     N16757   7.062  10.137   0.385 -0.8260 -0.3317 -0.0709
  125MOL0     C16758   7.145  10.198   0.291 -0.1487 -0.0121 -0.1218
  125MOL0     C16759   7.273  10.150   0.326 -0.2765  0.3891  0.2395
  125MOL0     C16760   7.403  10.191   0.255  1.2485  0.2557 -0.0067
  125MOL0     C16761   7.442  10.339   0.292 -0.5602  0.2581 -0.2105
  125MOL0     C16762   7.596  10.364   0.284  0.0318 -0.6488 -0.1769
  125MOL0     C16763   7.667  10.376   0.152 -0.8625  0.8405  0.4610
  125MOL0     O16764   7.644  10.509   0.106  0.3311 -0.4958  0.0848
  125MOL0     C16765   7.751  10.588   0.077  0.2758 -0.6876  0.1288
  125MOL0     C16766   7.860  10.543  -0.004  0.5679 -0.5354 -0.3025
  125MOL0     C16767   7.968  10.624  -0.020 -0.1230  0.1933  0.6525
  125MOL0     C16768   7.967  10.752   0.019  0.2731 -0.0078  0.0588
  125MOL0     C16769   8.074  10.849  -0.028  0.7729  0.0337  0.6649
  125MOL0     O16770   8.207  10.814  -0.020  0.7915 -0.0474 -0.4761
  125MOL0     C16771   8.290  10.909  -0.077  0.9768  0.4843  0.3443
  125MOL0     C16772   8.293  10.891  -0.215 -0.5497 -0.6124  0.7772
  125MOL0     C16773   8.369  10.987  -0.280 -0.4881  0.3594  0.0529
  125MOL0     C16774   8.445  11.087  -0.216  0.4058  0.8749 -0.6411
  125MOL0     O16775   8.512  11.170  -0.286  0.1215  0.2118 -0.1463
  125MOL0     C16776   8.629  11.121  -0.351  0.1347 -0.1968  0.5080
  125MOL0     C16777   8.749  11.114  -0.258 -0.2508 -0.3808  0.0825
  125MOL0     C16778   8.875  11.081  -0.345  0.8269 -0.0377  0.3825
  125MOL0     C16779   9.013  11.080  -0.278 -0.5209  0.3040  0.0802
  125MOL0     C16780   9.061  11.214  -0.202  0.5232 -1.0706 -0.6600
  125MOL0     C16781   9.172  11.208  -0.102  0.7359  0.1690  0.2438
  125MOL0     C16782   9.248  11.335  -0.085 -0.1909 -0.4221 -0.3679
  125MOL0     C16783   9.389  11.321  -0.019  0.9813  1.0538  0.4126
  125MOL0    Cl16784   9.380  11.220   0.132 -0.0248  0.0753 -0.2296
  125MOL0     C16785   8.440  11.104  -0.078 -1.0765 -0.1974 -0.3876
  125MOL0     C16786   8.352  11.020  -0.006 -0.2312  0.0843  0.6907
  125MOL0     O16787   8.022  10.949  -0.082 -1.0690 -0.4391  0.2808
  125MOL0     C16788   7.857  10.800   0.105 -0.7540  0.1113 -0.9655
  125MOL0     C16789   7.754  10.713   0.142  0.0004  0.2788  0.1022
  125MOL0     N16790   7.257  10.054   0.421  0.4488 -0.4176 -0.4990
  125MOL0     N16791   7.132  10.054   0.470  0.4226  0.9011 -0.3739
  125MOL0     C16792   6.117  10.606   0.497 -0.0729  0.0887  0.4247
  125MOL0     C16793   6.046  10.587   0.613 -0.1173 -0.2723 -0.9014
  125MOL0     C16794   5.961  10.681   1.055 -0.2429 -0.3210 -0.3489
  125MOL0     C16795   5.914  10.796   1.123 -0.4633  0.2812 -0.6215
  125MOL0     C16796   5.889  10.804   1.258 -0.4416  1.0063 -0.2434
  125MOL0     C16797   5.907  10.693   1.343 -1.5772  0.2975 -0.2337
  125MOL0     O16798   5.854  10.688   1.472 -0.3423  0.0366  0.1066
  125MOL0     C16799   5.905  10.592   1.576 -0.8814  0.5353 -0.1459
  125MOL0     C16800   5.851  10.460   1.570  0.3966  0.3386  0.4889
  125MOL0     C16801   5.698  10.459   1.551 -0.2154 -0.3351  0.5809
  125MOL0     C16802   5.625  10.325   1.593  0.7879 -1.1383 -0.2584
  125MOL0     C16803   5.479  10.348   1.611  0.1558  0.7034  0.5127
  125MOL0     C16804   5.358  10.350   1.630 -0.3776 -0.4926 -1.4449
  125MOL0     C16805   5.989  10.588   1.289  0.0119 -0.3847 -0.4553
  125MOL0     C16806   6.006  10.587   1.143 -1.0012  0.5526 -0.1740
  125MOL0     C16807   6.074  10.461   1.086  0.6081 -0.6661 -0.1560
  125MOL0     H16808   6.272  10.680   0.848  1.8278 -2.8718  0.1427
  125MOL0     H16809   6.408  10.706   0.656  0.8475 -2.2304  1.2745
  125MOL0     H16810   6.227  10.626   0.247 -0.5717  0.5800  1.8493
  125MOL0     H16811   6.405  10.593   0.203  0.2573 -3.3986 -0.4648
  125MOL0     H16812   6.254  10.395   0.194 -1.3143 -1.4954  0.4736
  125MOL0     H16813   6.243  10.423   0.377  1.6022 -0.0286  0.4150
  125MOL0     H16814   6.388  10.238   0.290 -1.5103  0.2636 -1.2466
  125MOL0     H16815   6.487  10.354   0.387  2.3836  0.9868 -1.3485
  125MOL0     H16816   6.460  10.351   0.083  1.4456 -0.8066 -1.2957
  125MOL0     H16817   6.559  10.466   0.173  2.5840 -1.1160 -1.0759
  125MOL0     H16818   6.574  10.172   0.160  3.5817 -0.9558 -0.1500
  125MOL0     H16819   6.684  10.270   0.073  0.1292  0.9284  0.3205
  125MOL0     H16820   6.731  10.375   0.311 -0.6680  0.0958  0.8933
  125MOL0     H16821   6.665  10.223   0.362  1.5036  0.2981  1.6341
  125MOL0     H16822   6.917  10.225   0.194  3.1694  0.5307  2.2863
  125MOL0     H16823   6.814  10.085   0.244 -1.1334  0.2843 -0.4588
  125MOL0     H16824   6.907  10.275   0.455  0.7325  0.0172  1.4067
  125MOL0     H16825   6.871  10.094   0.455  0.1812  1.0208  0.4603
  125MOL0     H16826   7.121  10.274   0.217  1.9615  0.1649 -0.6825
  125MOL0     H16827   7.475  10.122   0.298  1.2586  0.1359 -0.2203
  125MOL0     H16828   7.399  10.176   0.147  2.0222 -1.0720  0.1370
  125MOL0     H16829   7.399  10.412   0.223 -1.1427  0.0652 -0.0593
  125MOL0     H16830   7.417  10.366   0.395 -0.9534 -1.4136  0.1563
  125MOL0     H16831   7.647  10.287   0.344 -1.2242 -0.4527  1.1889
  125MOL0     H16832   7.607  10.453   0.346 -0.8082 -0.8037  0.1995
  125MOL0     H16833   7.623  10.293   0.095 -1.1014  1.6175 -0.5226
  125MOL0     H16834   7.774  10.367   0.172 -1.0219  2.4047  2.3351
  125MOL0     H16835   7.850  10.445  -0.048 -0.3403  0.1610 -1.7022
  125MOL0     H16836   8.044  10.576  -0.080  1.2594  0.0172  2.4469
  125MOL0     H16837   8.242  10.808  -0.264 -3.2938  0.6322  1.3074
  125MOL0     H16838   8.359  10.985  -0.388 -0.6532 -2.8336  0.0149
  125MOL0     H16839   8.603  11.023  -0.390 -0.5259  1.6405 -4.2760
  125MOL0     H16840   8.654  11.184  -0.437  1.5372  2.4149  2.6678
  125MOL0     H16841   8.767  11.206  -0.203 -0.9436 -1.4755  2.2464
  125MOL0     H16842   8.726  11.033  -0.188  1.1288 -0.0938  0.9058
  125MOL0     H16843   8.862  10.983  -0.390  1.0008  0.1130 -0.0010
  125MOL0     H16844   8.864  11.156  -0.424  0.2478 -1.5426 -0.9940
  125MOL0     H16845   9.089  11.062  -0.355  0.4670  3.3253  0.2025
  125MOL0     H16846   9.027  10.991  -0.215  0.7403  0.0985 -0.4597
  125MOL0     H16847   8.974  11.259  -0.153  0.8190  0.3081 -1.3724
  125MOL0     H16848   9.074  11.287  -0.283 -2.1070  0.7866  0.4426
  125MOL0     H16849   9.124  11.170  -0.012 -1.4164 -3.5035 -2.1807
  125MOL0     H16850   9.242  11.131  -0.132  2.7313  0.9023  2.6759
  125MOL0     H16851   9.200  11.397  -0.008  2.9294  0.2742  1.1800
  125MOL0     H16852   9.250  11.388  -0.181 -3.2650 -1.8958 -1.3739
  125MOL0     H16853   9.446  11.277  -0.101 -1.7450 -0.8410 -0.6092
  125MOL0     H16854   9.424  11.419   0.014 -1.8148  2.2304  0.2237
  125MOL0     H16855   8.490  11.191  -0.037  4.0197 -1.1555 -3.6222
  125MOL0     H16856   8.332  11.004   0.099 -2.9935 -5.8148 -0.3452
  125MOL0     H16857   7.848  10.906   0.127  1.7615 -0.0011  1.0613
  125MOL0     H16858   7.666  10.747   0.196  0.2606  1.2904 -0.0835
  125MOL0     H16859   6.058  10.575   0.412  0.5862 -1.6390  0.5625
  125MOL0     H16860   5.954  10.530   0.609  0.9019 -2.1199  0.3701
  125MOL0     H16861   5.886  10.886   1.069 -1.3884  0.1685 -0.3381
  125MOL0     H16862   5.835  10.896   1.278 -0.2130  1.8997 -3.3127
  125MOL0     H16863   5.889  10.632   1.677 -0.6106  0.7515 -0.1875
  125MOL0     H16864   6.009  10.573   1.548 -0.2736  1.4697  1.3429
  125MOL0     H16865   5.887  10.405   1.657 -0.1681  0.0934  0.5721
  125MOL0     H16866   5.891  10.391   1.495 -3.2094 -2.8972  1.1867
  125MOL0     H16867   5.672  10.463   1.445 -0.8702 -1.7895  0.6561
  125MOL0     H16868   5.646  10.541   1.600 -2.8575  0.5711 -3.2446
  125MOL0     H16869   5.623  10.247   1.516 -0.5935  1.0530 -2.6286
  125MOL0     H16870   5.666  10.291   1.688 -0.9145 -0.9438  0.5933
  125MOL0     H16871   5.258  10.362   1.665 -0.0043  4.9736 -1.4369
  125MOL0     H16872   6.014  10.498   1.344  0.5580 -0.0014 -0.0687
  125MOL0     H16873   6.016  10.411   1.008 -0.2503  2.4645 -1.6541
  125MOL0     H16874   6.171  10.496   1.050  1.2607 -1.5618  0.6414
  125MOL0     H16875   6.094  10.383   1.161 -1.4171  1.1019  2.4135
  126MOL0     O16876   7.786   7.690  10.467  0.1892 -0.0054  0.6730
  126MOL0     C16877   7.790   7.698  10.587 -0.8043  0.4821 -0.1404
  126MOL0     O16878   7.774   7.591  10.666  0.2054  0.4439 -0.5569
  126MOL0     C16879   7.764   7.458  10.618 -0.4174 -0.7845 -0.8257
  126MOL0     C16880   7.867   7.396  10.553 -0.3639 -0.0302  0.2166
  126MOL0     C16881   7.851   7.266  10.510 -0.6209 -0.5021 -0.2000
  126MOL0     C16882   7.731   7.199  10.518  0.2189 -0.2257 -0.0211
  126MOL0     O16883   7.718   7.068  10.485 -0.2760  0.6667 -0.4731
  126MOL0     C16884   7.807   7.037  10.377 -0.4599 -0.0684  0.0954
  126MOL0     C16885   7.757   6.923  10.292 -0.5544 -0.4613 -0.0372
  126MOL0     C16886   7.793   6.807  10.377  0.7901  0.0363  0.5875
  126MOL0     C16887   7.726   6.669  10.341  0.5321  1.3664  0.1070
  126MOL0     C16888   7.787   6.548  10.396 -1.3321  0.4162  0.7309
  126MOL0     C16889   7.727   6.414  10.337 -0.5696 -0.3410 -0.3066
  126MOL0     C16890   7.794   6.295  10.409  0.0887 -0.0289 -0.2903
  126MOL0     C16891   7.747   6.256  10.552 -0.0284 -0.3648  0.4939
  126MOL0     N16892   7.821   6.152  10.611  0.6252 -0.2007  0.5230
  126MOL0     C16893   7.807   6.024  10.577  0.7031  0.0954  0.5264
  126MOL0     C16894   7.898   5.958  10.660  0.9531 -0.1345  0.0988
  126MOL0     C16895   7.927   5.814  10.667 -0.3534  0.4067  0.3928
  126MOL0     C16896   7.936   5.776  10.816 -0.2237  0.5714 -0.5049
  126MOL0     C16897   7.960   5.619  10.826  0.5835  0.6208  0.7769
  126MOL0     C16898   7.961   5.568  10.967 -0.8037 -0.0717 -0.8129
  126MOL0     O16899   8.000   5.429  10.989 -0.2853  0.2279  0.1632
  126MOL0     C16900   7.918   5.337  10.929  0.6927  0.5172 -0.2987
  126MOL0     C16901   7.972   5.243  10.830  0.4507 -0.0031  0.2908
  126MOL0     C16902   7.891   5.136  10.781  0.0721  0.2375  0.1366
  126MOL0     C16903   7.763   5.122  10.831  0.1953 -0.3080 -0.3507
  126MOL0     C16904   7.676   5.016  10.780 -0.0487  0.6210  0.3527
  126MOL0     O16905   7.690   4.981  10.642  0.5348  0.0993  0.0067
  126MOL0     C16906   7.626   4.873  10.590 -0.2360  0.2290  0.2482
  126MOL0     C16907   7.576   4.759  10.653 -0.1630  0.7272  0.0622
  126MOL0     C16908   7.521   4.647  10.579 -1.2221  0.5612  0.1453
  126MOL0     C16909   7.535   4.650  10.440 -0.8216  0.2266  0.2978
  126MOL0     O16910   7.499   4.541  10.378  0.3718  0.1386  0.5674
  126MOL0     C16911   7.587   4.494  10.275  0.0977  0.2830  0.1420
  126MOL0     C16912   7.713   4.421  10.314  0.3970 -0.0772  0.1272
  126MOL0     C16913   7.791   4.354  10.205 -0.6294  0.4906 -0.1285
  126MOL0     C16914   7.855   4.224  10.256 -0.4656  0.5796  0.3105
  126MOL0     C16915   7.954   4.172  10.144 -0.0083 -0.0710  0.1066
  126MOL0     C16916   7.965   4.022  10.155 -0.4781  0.0441 -0.4896
  126MOL0     C16917   7.859   3.941  10.087 -0.4567 -0.5228 -0.7091
  126MOL0     C16918   7.908   3.797  10.050 -0.1472 -0.2770  0.1627
  126MOL0    Cl16919   7.808   3.718   9.921  0.1745 -0.0458  0.1089
  126MOL0     C16920   7.589   4.769  10.376  0.0213  0.2344 -0.3059
  126MOL0     C16921   7.624   4.872  10.450 -0.2214 -0.1428  0.1759
  126MOL0     O16922   7.591   4.981  10.857  0.2138 -0.3801  0.3559
  126MOL0     C16923   7.712   5.213  10.929 -0.4963 -0.5437  0.0391
  126MOL0     C16924   7.791   5.315  10.977  0.0793  0.3863 -0.7062
  126MOL0     N16925   7.952   6.054  10.740 -0.6661  0.3842  0.3577
  126MOL0     N16926   7.915   6.174  10.707  0.6834  0.8036  0.5116
  126MOL0     C16927   7.624   7.257  10.575 -0.0984  0.1213 -0.6514
  126MOL0     C16928   7.640   7.385  10.635  0.1186 -0.1878  0.8780
  126MOL0     C16929   7.786   7.840  10.658  0.3157  1.4140  0.2401
  126MOL0     C16930   7.809   7.845  10.797  0.9291 -0.2191  0.7205
  126MOL0     C16931   7.800   7.967  10.861  0.1476 -0.0708  0.3444
  126MOL0     C16932   7.792   8.082  10.795  1.1290  0.7886 -0.2604
  126MOL0     O16933   7.799   8.202  10.867 -0.0914  0.4987 -0.9497
  126MOL0     C16934   7.786   8.329  10.806 -0.0548 -0.1985 -0.5294
  126MOL0     C16935   7.807   8.440  10.914  0.0951  0.4591  0.4834
  126MOL0     C16936   7.947   8.453  10.964 -0.7893  0.0091 -0.4309
  126MOL0     C16937   7.964   8.573  11.070  0.5597  0.1403  0.7999
  126MOL0     C16938   7.876   8.571  11.170  0.1029  0.6008 -1.1999
  126MOL0     C16939   7.789   8.591  11.253  0.4194  0.2085  0.2807
  126MOL0     C16940   7.774   8.086  10.659  0.8559  0.1867 -0.4417
  126MOL0     C16941   7.763   7.960  10.586  0.1589  1.1688  0.1313
  126MOL0     C16942   7.712   7.972  10.442 -0.2097  0.5068 -0.7778
  126MOL0     H16943   7.963   7.439  10.526 -1.1584  0.1720 -2.6382
  126MOL0     H16944   7.940   7.224  10.464 -2.1209  0.0797 -3.9959
  126MOL0     H16945   7.809   7.123  10.310  1.1776 -0.5067 -0.4547
  126MOL0     H16946   7.906   7.017  10.418  0.4961  1.5773 -1.3255
  126MOL0     H16947   7.798   6.918  10.191 -0.6172  1.2918 -0.1891
  126MOL0     H16948   7.648   6.919  10.284 -0.6875 -0.2281  1.3349
  126MOL0     H16949   7.769   6.824  10.482  1.4607 -1.5711  1.0377
  126MOL0     H16950   7.901   6.794  10.369  0.7325  0.3696 -0.9758
  126MOL0     H16951   7.619   6.675  10.363  0.5452  1.5364  0.1283
  126MOL0     H16952   7.727   6.639  10.236 -0.0139  0.2100  0.4165
  126MOL0     H16953   7.890   6.544  10.361 -1.9228  3.3396 -1.7012
  126MOL0     H16954   7.773   6.551  10.504  0.3422  1.0370  0.9658
  126MOL0     H16955   7.619   6.418  10.356 -1.1858 -0.0222 -3.3241
  126MOL0     H16956   7.742   6.405  10.229  0.1689  0.9446 -0.3293
  126MOL0     H16957   7.900   6.316  10.395 -0.1786  2.1840  0.7266
  126MOL0     H16958   7.767   6.203  10.355 -2.0472  0.2909  0.1693
  126MOL0     H16959   7.729   6.333  10.628 -0.1146 -3.4709  3.9030
  126MOL0     H16960   7.648   6.218  10.529  0.2058 -1.7809  1.6772
  126MOL0     H16961   7.731   5.975  10.517 -2.3240  0.0880  4.0037
  126MOL0     H16962   7.847   5.769  10.607 -0.2345  1.6960 -0.7687
  126MOL0     H16963   8.024   5.796  10.621 -0.6021 -2.3786  0.7909
  126MOL0     H16964   8.024   5.823  10.862  0.5182  0.8875 -2.1830
  126MOL0     H16965   7.845   5.807  10.868 -1.8510  1.1527 -3.4751
  126MOL0     H16966   8.059   5.606  10.781  0.7847 -1.5319  1.7171
  126MOL0     H16967   7.879   5.569  10.773  2.8122 -2.4634  0.0079
  126MOL0     H16968   7.860   5.581  11.005  0.8759  1.6860  3.7284
  126MOL0     H16969   8.031   5.626  11.029 -1.5129 -0.4194  0.3280
  126MOL0     H16970   8.075   5.258  10.799  0.0507 -0.1519 -1.1991
  126MOL0     H16971   7.934   5.068  10.708 -0.3956 -1.6453  1.5167
  126MOL0     H16972   7.559   4.746  10.759  0.1625 -2.0153 -0.1309
  126MOL0     H16973   7.471   4.559  10.618  3.6124 -2.5646  0.1298
  126MOL0     H16974   7.526   4.423  10.219 -2.8386  2.5485  0.2104
  126MOL0     H16975   7.610   4.575  10.205 -0.4118 -1.7049 -2.4687
  126MOL0     H16976   7.781   4.494  10.359 -0.1417  0.5459 -0.0565
  126MOL0     H16977   7.684   4.342  10.384  0.1258  0.7210  0.9332
  126MOL0     H16978   7.724   4.349  10.120  0.6421  2.0499 -1.2819
  126MOL0     H16979   7.874   4.418  10.172 -0.5454  0.3573 -0.1751
  126MOL0     H16980   7.779   4.153  10.289  0.1237  0.7799  2.2308
  126MOL0     H16981   7.911   4.254  10.346 -0.3314  1.1394  0.0447
  126MOL0     H16982   8.043   4.236  10.149 -1.2127  1.6091  1.3968
  126MOL0     H16983   7.903   4.189  10.049 -2.8939 -0.0045  1.5597
  126MOL0     H16984   8.054   4.002  10.095  0.7405 -0.1538  1.3230
  126MOL0     H16985   7.982   3.987  10.257 -0.1662 -0.3455 -0.6732
  126MOL0     H16986   7.824   3.999  10.001 -0.0524 -0.7567 -1.0380
  126MOL0     H16987   7.769   3.919  10.146  0.9598  0.0554  1.8497
  126MOL0     H16988   8.010   3.805  10.013 -0.1341 -4.5480 -1.2832
  126MOL0     H16989   7.916   3.722  10.128  3.1617  0.9093  1.1220
  126MOL0     H16990   7.600   4.767  10.268 -0.6428  1.5379 -0.4181
  126MOL0     H16991   7.648   4.965  10.401 -0.9766 -0.5546 -1.0444
  126MOL0     H16992   7.612   5.195  10.967  0.4933 -1.8308  2.2301
  126MOL0     H16993   7.757   5.370  11.064  3.5426 -0.2578  1.2645
  126MOL0     H16994   7.536   7.194  10.576 -0.6238  0.8281  0.3804
  126MOL0     H16995   7.555   7.438  10.676 -1.0564  2.3048 -3.9388
  126MOL0     H16996   7.822   7.753  10.854 -1.6413 -0.8652  0.3895
  126MOL0     H16997   7.803   7.961  10.969  1.3482 -1.9612  0.2470
  126MOL0     H16998   7.683   8.326  10.769  0.0622 -0.7070 -0.8234
  126MOL0     H16999   7.862   8.347  10.730  0.0953  1.7921  0.0549
  126MOL0     H17000   7.745   8.397  10.993  2.4065  1.1721  2.8000
  126MOL0     H17001   7.763   8.538  10.890  1.2777  0.7943 -0.4562
  126MOL0     H17002   8.023   8.467  10.887 -1.5464 -0.5888 -1.3103
  126MOL0     H17003   7.975   8.364  11.021  3.6867  0.4517 -1.5572
  126MOL0     H17004   8.061   8.559  11.118 -1.1259 -3.0418  3.6679
  126MOL0     H17005   7.958   8.669  11.016 -2.4203  1.4111  3.1363
  126MOL0     H17006   7.707   8.625  11.313  1.1957 -0.6635  1.8996
  126MOL0     H17007   7.763   8.184  10.613 -0.8082 -0.9385 -2.6036
  126MOL0     H17008   7.793   7.942  10.377 -0.7134 -1.5968 -0.5056
  126MOL0     H17009   7.631   7.899  10.433 -0.2026  0.2294  1.0117
  126MOL0     H17010   7.663   8.069  10.426 -0.8404  0.3622  0.1744
  127MOL0     O17011   4.010   5.118   9.591  0.1958 -0.2708  0.0839
  127MOL0     C17012   4.129   5.070   9.583 -0.5834 -0.5943  0.0180
  127MOL0     O17013   4.176   4.977   9.500  0.2214 -0.6225 -0.2659
  127MOL0     C17014   4.096   4.914   9.411 -0.3719  0.8509  0.1331
  127MOL0     C17015   4.042   4.789   9.434 -0.7858  0.1956  0.0727
  127MOL0     C17016   3.960   4.735   9.340 -0.6252 -0.2513 -0.3988
  127MOL0     C17017   3.927   4.806   9.225 -0.0426 -0.0200  0.0005
  127MOL0     O17018   3.846   4.761   9.125 -0.0438 -0.0644 -0.3298
  127MOL0     C17019   3.859   4.622   9.091  0.8281  0.4992  0.3159
  127MOL0     C17020   3.773   4.594   8.973  0.1945  0.1185 -0.8623
  127MOL0     C17021   3.787   4.443   8.956 -0.0943 -0.1405 -0.6014
  127MOL0     C17022   3.714   4.404   8.829  0.7780  0.6912  0.2385
  127MOL0     C17023   3.700   4.249   8.799  1.2230 -0.4360  0.2266
  127MOL0     C17024   3.820   4.198   8.730  0.2892  0.1067  1.2042
  127MOL0     C17025   3.834   4.041   8.737 -0.4833  0.3802  0.7428
  127MOL0     C17026   3.937   3.985   8.637  0.3407 -0.7890  0.2164
  127MOL0     N17027   4.075   3.970   8.693  0.1500  0.5756  0.1102
  127MOL0     C17028   4.176   4.052   8.677 -0.2707 -0.7275 -0.2394
  127MOL0     C17029   4.283   4.001   8.752 -0.3257  0.1536 -0.3613
  127MOL0     C17030   4.412   4.065   8.768  0.2486 -0.3441  0.2357
  127MOL0     C17031   4.472   4.121   8.639  0.6129 -0.6507  0.1377
  127MOL0     C17032   4.619   4.147   8.640  0.5804 -0.2530  0.1770
  127MOL0     C17033   4.653   4.247   8.754 -0.1452 -0.1144  0.6491
  127MOL0     O17034   4.786   4.298   8.737  0.1264  0.1536  0.0763
  127MOL0     C17035   4.895   4.247   8.800  0.4428  1.2318  0.6787
  127MOL0     C17036   4.894   4.127   8.878  0.6594 -0.8312 -0.3483
  127MOL0     C17037   5.012   4.066   8.916  0.5453 -0.7014 -0.5547
  127MOL0     C17038   5.135   4.130   8.889 -0.1231 -0.2805  0.3854
  127MOL0     C17039   5.263   4.066   8.944 -0.4806  0.7107  0.4881
  127MOL0     O17040   5.381   4.130   8.912 -0.8213  0.6105 -0.8197
  127MOL0     C17041   5.491   4.061   8.963 -0.8128  0.2226 -0.3578
  127MOL0     C17042   5.536   3.945   8.887 -0.4176 -1.6384 -0.1381
  127MOL0     C17043   5.650   3.873   8.928 -0.9180  0.1943 -1.0500
  127MOL0     C17044   5.723   3.899   9.046  0.0916 -0.9197  0.3663
  127MOL0     O17045   5.834   3.824   9.065 -0.3423  0.2289  0.3209
  127MOL0     C17046   5.861   3.779   9.200  0.4190  0.6346 -1.3102
  127MOL0     C17047   5.986   3.854   9.239 -0.2525  0.0072 -0.9980
  127MOL0     C17048   6.050   3.791   9.376  0.4380 -1.2106  0.1030
  127MOL0     C17049   6.110   3.646   9.353 -0.6609  0.0665  0.7627
  127MOL0     C17050   6.172   3.601   9.481 -0.0514  0.3741 -0.4706
  127MOL0     C17051   6.298   3.510   9.464 -1.4112  0.2810  0.0186
  127MOL0     C17052   6.382   3.490   9.591 -0.0935 -0.2838 -0.9962
  127MOL0     C17053   6.532   3.466   9.558 -0.6779  0.3898 -0.3753
  127MOL0    Cl17054   6.536   3.323   9.454  0.0290  0.3772 -0.2395
  127MOL0     C17055   5.673   4.005   9.120 -0.2229  1.1733 -0.3783
  127MOL0     C17056   5.558   4.078   9.084 -0.0018 -0.2292 -0.6686
  127MOL0     O17057   5.252   3.974   9.024  0.0477  0.7426  0.7311
  127MOL0     C17058   5.141   4.266   8.841  1.2307 -0.1158  0.8492
  127MOL0     C17059   5.016   4.318   8.793 -0.9082  0.2155 -0.4012
  127MOL0     N17060   4.246   3.881   8.811 -0.2826 -0.4843 -0.5135
  127MOL0     N17061   4.123   3.864   8.772 -0.4555 -0.0636 -0.6055
  127MOL0     C17062   3.991   4.924   9.191 -0.7538  0.3112 -0.1978
  127MOL0     C17063   4.075   4.980   9.288  0.7537  0.3908 -0.7445
  127MOL0     C17064   4.236   5.138   9.670  0.5104  0.1782  0.6769
  127MOL0     C17065   4.188   5.193   9.794 -1.1108  0.0817 -0.4166
  127MOL0     C17066   4.267   5.267   9.875 -1.4503 -0.1291 -0.3802
  127MOL0     C17067   4.404   5.285   9.844 -0.0665 -0.8467 -0.8129
  127MOL0     O17068   4.478   5.346   9.947 -0.1695 -0.9038  0.8037
  127MOL0     C17069   4.609   5.406   9.914  1.0275 -0.1108  0.6571
  127MOL0     C17070   4.593   5.558   9.897  0.2686 -0.4301 -1.0313
  127MOL0     C17071   4.497   5.619   9.792 -0.6206 -0.1061  0.0645
  127MOL0     C17072   4.512   5.778   9.768  0.0204  0.1738  0.8532
  127MOL0     C17073   4.527   5.861   9.888 -0.4569 -0.0164  0.5004
  127MOL0     C17074   4.530   5.935   9.988 -1.0119 -0.2424 -1.0492
  127MOL0     C17075   4.449   5.241   9.726 -0.2823  0.3898 -0.3015
  127MOL0     C17076   4.369   5.169   9.633  0.4005 -0.9078 -0.5975
  127MOL0     C17077   4.431   5.135   9.506 -0.2055 -0.6627 -0.2164
  127MOL0     H17078   4.069   4.735   9.524  0.4549 -1.3656 -1.1745
  127MOL0     H17079   3.921   4.635   9.351  2.0080 -1.3695 -0.5186
  127MOL0     H17080   3.962   4.606   9.059  0.6142  0.4905 -0.4060
  127MOL0     H17081   3.835   4.562   9.179  0.4581 -1.9913 -1.3888
  127MOL0     H17082   3.812   4.641   8.882  0.8435 -0.2534 -0.7856
  127MOL0     H17083   3.666   4.614   8.984 -0.5306 -0.8991 -4.6814
  127MOL0     H17084   3.728   4.388   9.029 -1.4543 -0.7817 -2.1189
  127MOL0     H17085   3.891   4.408   8.953 -1.0145 -3.1300 -0.2827
  127MOL0     H17086   3.610   4.436   8.838  0.5661  0.0007  0.2683
  127MOL0     H17087   3.761   4.456   8.745 -0.1074  0.0671 -0.6611
  127MOL0     H17088   3.687   4.202   8.897 -1.6181  0.2181  0.2532
  127MOL0     H17089   3.619   4.227   8.730  1.2072  2.3337 -0.7788
  127MOL0     H17090   3.821   4.228   8.625 -0.9018  0.3290  1.2390
  127MOL0     H17091   3.907   4.245   8.775  2.1504 -0.7745 -1.2743
  127MOL0     H17092   3.735   4.003   8.710  0.8190 -0.8689 -2.8706
  127MOL0     H17093   3.851   4.026   8.844  1.5489 -0.6593  0.3031
  127MOL0     H17094   3.894   3.898   8.587 -0.9674  0.5342 -1.1161
  127MOL0     H17095   3.947   4.061   8.559 -0.0186  2.0803  2.7835
  127MOL0     H17096   4.179   4.145   8.620 -1.8177 -1.3197 -1.3385
  127MOL0     H17097   4.410   4.147   8.840 -1.3952  1.6218 -1.8859
  127MOL0     H17098   4.478   3.980   8.792  1.5357  0.0887 -1.5799
  127MOL0     H17099   4.455   4.058   8.552  0.1078 -2.3628  1.4355
  127MOL0     H17100   4.430   4.220   8.622  4.3788  1.0583 -0.3711
  127MOL0     H17101   4.649   4.198   8.549 -1.4873 -0.1371 -0.5075
  127MOL0     H17102   4.673   4.053   8.651 -0.7972 -0.9739  1.2277
  127MOL0     H17103   4.638   4.202   8.853  1.4040  0.7112  1.2864
  127MOL0     H17104   4.578   4.326   8.761 -1.0269 -1.0236  2.1378
  127MOL0     H17105   4.809   4.070   8.911 -0.3705  1.0086  0.3468
  127MOL0     H17106   5.001   3.968   8.962  1.5493 -1.7554 -2.4196
  127MOL0     H17107   5.474   3.909   8.806 -2.2841  0.7039  0.1346
  127MOL0     H17108   5.672   3.779   8.877  0.0373 -1.7202  2.5148
  127MOL0     H17109   5.781   3.800   9.272  0.2614  1.7585 -1.7918
  127MOL0     H17110   5.880   3.671   9.196  0.4669  0.5936 -0.3518
  127MOL0     H17111   6.069   3.853   9.169 -0.1999 -3.1502 -1.0250
  127MOL0     H17112   5.961   3.960   9.251 -1.4660 -0.3445 -0.2146
  127MOL0     H17113   6.128   3.860   9.410  0.7160 -1.4912  0.0399
  127MOL0     H17114   5.971   3.781   9.451 -1.8648 -2.7702 -2.3531
  127MOL0     H17115   6.175   3.636   9.265 -0.7143  0.4989  0.6744
  127MOL0     H17116   6.029   3.579   9.324  1.1463 -1.6477 -0.7027
  127MOL0     H17117   6.097   3.555   9.545 -1.7102  1.5872 -1.4685
  127MOL0     H17118   6.195   3.693   9.536 -2.9762 -0.1273  1.8290
  127MOL0     H17119   6.273   3.411   9.426  2.6232 -1.1152  0.5563
  127MOL0     H17120   6.360   3.559   9.388 -1.4269 -1.8216 -1.4418
  127MOL0     H17121   6.340   3.410   9.653  0.3272 -0.0708 -0.4329
  127MOL0     H17122   6.355   3.582   9.644  0.3376 -1.7298  1.8894
  127MOL0     H17123   6.583   3.550   9.511 -0.8740  1.7072  1.6476
  127MOL0     H17124   6.585   3.447   9.652 -0.9757  0.7394 -0.1344
  127MOL0     H17125   5.727   4.013   9.214  1.3533 -2.4107 -0.8017
  127MOL0     H17126   5.533   4.159   9.152 -2.0776  0.2560 -1.9231
  127MOL0     H17127   5.230   4.326   8.825  1.5784 -0.8324  0.0358
  127MOL0     H17128   5.023   4.413   8.741  1.3475  0.2878 -0.0595
  127MOL0     H17129   3.966   4.959   9.091  0.3077 -0.4279 -0.7434
  127MOL0     H17130   4.130   5.072   9.269 -2.3219  2.6377  0.4025
  127MOL0     H17131   4.089   5.178   9.835 -2.1564  1.3131 -2.3169
  127MOL0     H17132   4.224   5.319   9.960 -0.4573  0.0400  0.0248
  127MOL0     H17133   4.661   5.354   9.834  0.8126 -0.7890  0.9528
  127MOL0     H17134   4.663   5.374  10.004  0.0258 -2.9111  0.3639
  127MOL0     H17135   4.693   5.599   9.884  0.7732 -0.7804  1.3543
  127MOL0     H17136   4.558   5.593   9.995  2.7458 -0.2132 -0.1704
  127MOL0     H17137   4.395   5.604   9.826 -0.9460 -1.3985 -1.3873
  127MOL0     H17138   4.514   5.576   9.693  1.6198  0.3360  0.1957
  127MOL0     H17139   4.608   5.790   9.717 -0.1967 -0.2589  0.3332
  127MOL0     H17140   4.432   5.822   9.708 -0.5782  0.4938  1.8620
  127MOL0     H17141   4.538   5.981  10.084 -2.9935  0.4654 -1.1951
  127MOL0     H17142   4.549   5.259   9.687 -0.5249  0.4725 -0.8987
  127MOL0     H17143   4.450   5.028   9.506  4.6090 -0.0885 -1.6769
  127MOL0     H17144   4.373   5.173   9.421 -3.4159 -2.3397  1.0823
  127MOL0     H17145   4.528   5.185   9.494 -0.3760 -0.9524 -4.3851
  128MOL0     O17146   3.180   4.152   4.367  0.1281 -0.6617 -0.1064
  128MOL0     C17147   3.133   4.046   4.420  0.3978  0.0199  0.2682
  128MOL0     O17148   3.167   3.922   4.386 -0.6277  0.3042  0.2900
  128MOL0     C17149   3.283   3.892   4.325 -0.0624 -0.1693  0.1901
  128MOL0     C17150   3.366   3.790   4.378 -0.7468  0.1018  0.0818
  128MOL0     C17151   3.493   3.759   4.314  0.3249 -0.5867  0.9992
  128MOL0     C17152   3.529   3.820   4.196  0.0726 -0.0454 -0.4799
  128MOL0     O17153   3.639   3.765   4.133 -0.4037  0.5426 -0.0611
  128MOL0     C17154   3.705   3.847   4.040  0.2087  0.2406 -0.5202
  128MOL0     C17155   3.654   3.840   3.894  0.0282  0.0909  0.3274
  128MOL0     C17156   3.764   3.888   3.795  0.0066 -0.0050 -0.3088
  128MOL0     C17157   3.719   3.860   3.655 -0.4463  0.4708 -0.5822
  128MOL0     C17158   3.826   3.886   3.544 -0.1114  0.7553 -0.2203
  128MOL0     C17159   3.891   4.025   3.550  0.1389  1.0597 -0.0575
  128MOL0     C17160   3.980   4.040   3.426  0.2020 -0.1248 -0.5712
  128MOL0     C17161   4.115   4.117   3.452 -0.1943  0.3165  0.0402
  128MOL0     N17162   4.201   4.048   3.557  0.1803  0.2171 -0.4853
  128MOL0     C17163   4.210   3.915   3.577  0.0756 -0.0937 -0.5692
  128MOL0     C17164   4.310   3.902   3.669 -0.3600 -0.0215 -1.0850
  128MOL0     C17165   4.367   3.771   3.714 -0.4922 -0.1265  0.6506
  128MOL0     C17166   4.475   3.719   3.614  0.2249  0.2954 -0.4517
  128MOL0     C17167   4.556   3.821   3.538  0.0103  0.2498 -0.0371
  128MOL0     C17168   4.636   3.756   3.430  0.3549  0.1487 -0.3730
  128MOL0     O17169   4.548   3.728   3.318  0.9967 -0.5121  0.3538
  128MOL0     C17170   4.595   3.704   3.192  0.3464 -1.0636 -0.4085
  128MOL0     C17171   4.715   3.660   3.166 -0.6544  0.7407 -0.4041
  128MOL0     C17172   4.748   3.611   3.033 -0.7963 -1.1427 -0.1938
  128MOL0     C17173   4.675   3.663   2.920 -1.2888 -0.0790  0.1310
  128MOL0     C17174   4.732   3.643   2.786 -0.5989 -1.0826 -0.2879
  128MOL0     O17175   4.678   3.719   2.684  0.7755  0.3651  0.1131
  128MOL0     C17176   4.712   3.693   2.544  0.8746 -0.4559 -1.0740
  128MOL0     C17177   4.658   3.577   2.493 -0.2389  0.4774  0.0414
  128MOL0     C17178   4.679   3.532   2.364  0.0995  0.1690  0.5534
  128MOL0     C17179   4.754   3.617   2.278  0.1294 -0.0952  0.5446
  128MOL0     O17180   4.801   3.574   2.151 -0.2129  0.4760 -0.7565
  128MOL0     C17181   4.727   3.462   2.089  0.0801 -0.0770 -0.1544
  128MOL0     C17182   4.796   3.417   1.955  0.0103  0.1146 -1.2173
  128MOL0     C17183   4.756   3.270   1.926 -0.5085 -0.4550 -0.4116
  128MOL0     C17184   4.798   3.236   1.786  0.4046  0.4386  1.0025
  128MOL0     C17185   4.744   3.106   1.723  0.7293  1.6778  0.0789
  128MOL0     C17186   4.819   2.987   1.775  0.2096  0.5969  0.1462
  128MOL0     C17187   4.736   2.865   1.740  0.1905 -0.2026  0.4858
  128MOL0     C17188   4.824   2.740   1.740  0.0504 -0.5366 -0.0007
  128MOL0    Cl17189   4.729   2.607   1.672 -0.3212 -0.0242 -0.0138
  128MOL0     C17190   4.804   3.736   2.321 -0.4610 -0.4819  0.8832
  128MOL0     C17191   4.787   3.775   2.454  0.0408 -1.2810 -0.4953
  128MOL0     O17192   4.836   3.573   2.772  1.0241  0.4692  0.0112
  128MOL0     C17193   4.561   3.728   2.954 -0.4735  0.0024 -0.4145
  128MOL0     C17194   4.517   3.744   3.078  0.5996 -0.2671 -0.6659
  128MOL0     N17195   4.359   4.029   3.705  0.6836 -0.2142 -0.2467
  128MOL0     N17196   4.290   4.113   3.630 -0.3892  0.2491 -1.1218
  128MOL0     C17197   3.447   3.922   4.143 -1.0035  0.3383  0.6084
  128MOL0     C17198   3.324   3.950   4.198  0.3781 -0.5465 -0.4297
  128MOL0     C17199   3.024   4.073   4.527 -0.1877 -0.1064 -0.0576
  128MOL0     C17200   2.954   3.959   4.581 -0.1564 -0.1321 -0.8763
  128MOL0     C17201   2.855   3.981   4.680 -0.6633 -0.1266  0.1714
  128MOL0     C17202   2.822   4.103   4.733 -0.7825  0.2276  0.2682
  128MOL0     O17203   2.725   4.133   4.827 -0.3483  0.6715 -0.5455
  128MOL0     C17204   2.616   4.050   4.848 -0.2263 -0.0450 -1.0383
  128MOL0     C17205   2.545   4.098   4.973 -0.2533  1.5067 -0.6989
  128MOL0     C17206   2.420   4.007   4.996  1.4856 -0.0927  0.1020
  128MOL0     C17207   2.355   4.015   5.136 -0.2923  0.5251 -0.0490
  128MOL0     C17208   2.365   4.156   5.187  0.0432 -1.4422 -0.8333
  128MOL0     C17209   2.379   4.281   5.208  0.0131  0.3483  0.2309
  128MOL0     C17210   2.893   4.211   4.678 -0.0777  0.3668  0.7976
  128MOL0     C17211   2.998   4.202   4.587  0.1883  0.6007  0.1805
  128MOL0     C17212   3.083   4.332   4.574  0.2034  0.2664  1.1789
  128MOL0     H17213   3.339   3.752   4.476 -1.7882  0.8309  0.0950
  128MOL0     H17214   3.557   3.680   4.351  1.6353  0.2215  0.5447
  128MOL0     H17215   3.707   3.950   4.076 -0.1256  0.1307 -0.1878
  128MOL0     H17216   3.809   3.813   4.041  0.3876  0.7841 -0.7028
  128MOL0     H17217   3.561   3.896   3.879  0.8285  1.3119 -0.2357
  128MOL0     H17218   3.645   3.732   3.875  0.2262  0.0905  0.2281
  128MOL0     H17219   3.864   3.853   3.822 -0.8845 -2.1856  0.4518
  128MOL0     H17220   3.765   3.995   3.814 -2.2806  0.0303 -0.0466
  128MOL0     H17221   3.693   3.754   3.658 -0.5514  0.4169  4.2538
  128MOL0     H17222   3.626   3.916   3.642  0.1958  1.6290 -0.2815
  128MOL0     H17223   3.898   3.803   3.545 -1.8895 -0.8859 -0.7291
  128MOL0     H17224   3.778   3.875   3.446  0.0130 -1.0475 -0.1283
  128MOL0     H17225   3.810   4.099   3.552 -1.1054 -0.2852  1.1919
  128MOL0     H17226   3.952   4.036   3.640 -0.4113 -2.9112  0.9881
  128MOL0     H17227   3.917   4.075   3.344 -2.3247  2.5225  2.2370
  128MOL0     H17228   3.995   3.934   3.403  2.2764 -0.3904  1.6338
  128MOL0     H17229   4.173   4.127   3.360  1.6367 -1.2428  0.9623
  128MOL0     H17230   4.103   4.218   3.493  1.9752 -0.0119  1.6189
  128MOL0     H17231   4.166   3.826   3.532  2.4928 -3.1954  2.6282
  128MOL0     H17232   4.414   3.785   3.812 -2.4858 -0.0769  1.6728
  128MOL0     H17233   4.287   3.695   3.717 -2.5497  1.9183  0.4512
  128MOL0     H17234   4.545   3.656   3.670 -0.7891 -2.0829 -1.6956
  128MOL0     H17235   4.419   3.660   3.541  1.0528 -1.7154  0.4663
  128MOL0     H17236   4.615   3.883   3.605 -1.5981  1.6484  0.1529
  128MOL0     H17237   4.490   3.885   3.479 -1.6009 -2.4224 -1.3482
  128MOL0     H17238   4.684   3.666   3.470  1.5048  2.1143  3.0154
  128MOL0     H17239   4.716   3.821   3.395 -0.8535 -0.4773 -5.0752
  128MOL0     H17240   4.775   3.634   3.252  0.7116  0.4654 -1.4078
  128MOL0     H17241   4.837   3.550   3.018 -0.0037  0.3417 -1.9896
  128MOL0     H17242   4.602   3.526   2.570  0.8227  0.2623  0.6836
  128MOL0     H17243   4.637   3.437   2.333 -2.0276  0.4542  2.2786
  128MOL0     H17244   4.728   3.374   2.155 -0.0620 -1.7771 -2.3117
  128MOL0     H17245   4.629   3.500   2.060  0.6819  1.0079 -0.8086
  128MOL0     H17246   4.757   3.474   1.870 -1.8934 -3.0378 -2.6312
  128MOL0     H17247   4.902   3.434   1.932  0.4447 -2.6113 -1.5076
  128MOL0     H17248   4.802   3.200   1.996  4.2156  1.2735 -1.3784
  128MOL0     H17249   4.648   3.258   1.933 -1.0485  1.2727 -3.6550
  128MOL0     H17250   4.906   3.225   1.795  0.9604  0.9725 -3.0861
  128MOL0     H17251   4.768   3.317   1.718 -0.5310 -0.5877  0.1489
  128MOL0     H17252   4.771   3.112   1.617  1.6144  2.1725  0.3193
  128MOL0     H17253   4.636   3.088   1.730  0.9774  0.6132  1.6595
  128MOL0     H17254   4.917   2.987   1.726  0.1630  2.3687 -0.0376
  128MOL0     H17255   4.837   3.004   1.882 -2.4848  1.3407  0.5418
  128MOL0     H17256   4.690   2.882   1.643  0.3701  0.6115  0.5430
  128MOL0     H17257   4.650   2.851   1.806 -0.9584 -0.8991 -1.0899
  128MOL0     H17258   4.916   2.756   1.683 -0.1421  2.1935  0.3303
  128MOL0     H17259   4.843   2.712   1.844  0.5703  3.3791  1.1156
  128MOL0     H17260   4.872   3.797   2.263  2.1713 -0.9961  3.2197
  128MOL0     H17261   4.833   3.860   2.503  1.2314 -1.9592 -0.4021
  128MOL0     H17262   4.518   3.780   2.869 -0.4830 -1.1791 -1.1609
  128MOL0     H17263   4.421   3.790   3.100  0.7821  0.4277 -1.2827
  128MOL0     H17264   3.465   3.968   4.047  0.9342  0.3137  0.9161
  128MOL0     H17265   3.263   4.029   4.156 -1.8923 -0.6347  2.4164
  128MOL0     H17266   2.972   3.860   4.540  0.3195  0.1549 -1.3711
  128MOL0     H17267   2.786   3.902   4.706 -1.3606 -0.3510 -2.0752
  128MOL0     H17268   2.648   3.950   4.878 -0.4929  0.4039  0.8562
  128MOL0     H17269   2.545   4.038   4.766 -0.7175 -2.8439 -0.3220
  128MOL0     H17270   2.508   4.200   4.957 -1.7994  0.9551 -0.7567
  128MOL0     H17271   2.611   4.086   5.060 -0.7849  1.3292 -0.3129
  128MOL0     H17272   2.441   3.901   4.978 -3.3462 -1.4029  0.6764
  128MOL0     H17273   2.355   4.030   4.911  1.9740 -1.1092 -0.5709
  128MOL0     H17274   2.252   3.977   5.134 -0.3939  0.7516 -3.4549
  128MOL0     H17275   2.419   3.953   5.200 -1.9294 -0.3502  0.8322
  128MOL0     H17276   2.379   4.386   5.231  0.1223  0.2813  0.5479
  128MOL0     H17277   2.871   4.311   4.712 -1.1548 -0.1562  1.6886
  128MOL0     H17278   3.131   4.358   4.479 -2.3227 -0.1162 -0.2900
  128MOL0     H17279   3.018   4.419   4.586  1.7004  1.7211 -0.5160
  128MOL0     H17280   3.166   4.324   4.645  0.3802 -1.8833  0.7969
  129MOL0     O17281   8.799   0.500   8.774 -0.3411  0.0516 -0.1327
  129MOL0     C17282   8.747   0.569   8.684  0.7929  0.5638 -0.1543
  129MOL0     O17283   8.709   0.525   8.568 -0.3233  0.0734 -0.1671
  129MOL0     C17284   8.700   0.390   8.543 -1.0003  0.1213 -0.1362
  129MOL0     C17285   8.734   0.352   8.404  0.5651  0.5901 -0.7996
  129MOL0     C17286   8.767   0.223   8.377  0.8090  0.4819 -0.0119
  129MOL0     C17287   8.750   0.120   8.469 -0.2556 -0.2243 -0.7450
  129MOL0     O17288   8.762  -0.015   8.439  0.3841 -0.3731  0.2906
  129MOL0     C17289   8.853  -0.049   8.338  0.2850  0.7370 -0.8066
  129MOL0     C17290   8.889  -0.194   8.353 -0.4065  0.4829  0.4225
  129MOL0     C17291   8.989  -0.233   8.241  1.0027 -0.2347 -0.2269
  129MOL0     C17292   8.906  -0.320   8.150  1.3776 -0.4897 -0.0106
  129MOL0     C17293   8.989  -0.380   8.036 -0.8686 -0.0831 -0.1946
  129MOL0     C17294   8.902  -0.438   7.923 -1.0134  0.4043 -0.1578
  129MOL0     C17295   8.790  -0.538   7.969 -0.0615 -0.3032  0.0770
  129MOL0     C17296   8.861  -0.670   8.004 -0.7723  0.9114 -0.3787
  129MOL0     N17297   8.932  -0.754   7.904  0.0670  0.7917 -0.3291
  129MOL0     C17298   9.068  -0.777   7.904 -0.6267 -0.2865 -0.0407
  129MOL0     C17299   9.091  -0.852   7.791 -0.9079  0.0979  0.5819
  129MOL0     C17300   9.218  -0.905   7.735 -0.5629 -0.1072  0.8026
  129MOL0     C17301   9.298  -0.792   7.662 -0.1624  0.5327  0.8305
  129MOL0     C17302   9.373  -0.841   7.543  0.0309 -0.4239 -0.0866
  129MOL0     C17303   9.438  -0.732   7.462 -0.2142 -0.4446  0.2422
  129MOL0     O17304   9.340  -0.658   7.396  0.1081  0.3825 -0.0297
  129MOL0     C17305   9.317  -0.660   7.267  0.3164  0.1195  0.1224
  129MOL0     C17306   9.410  -0.669   7.169  1.0725  0.2014  0.1524
  129MOL0     C17307   9.357  -0.668   7.036 -0.0352  1.4239  0.5253
  129MOL0     C17308   9.231  -0.641   7.003 -0.3618  0.4065 -0.2387
  129MOL0     C17309   9.181  -0.631   6.862  0.4983 -0.0262 -0.0061
  129MOL0     O17310   9.264  -0.612   6.757  0.4055  0.4777 -0.2396
  129MOL0     C17311   9.202  -0.590   6.631 -1.1059  0.2849  0.1661
  129MOL0     C17312   9.102  -0.662   6.571  0.0193 -0.3406 -1.0732
  129MOL0     C17313   9.048  -0.619   6.447 -0.5378 -0.6506 -0.0488
  129MOL0     C17314   9.111  -0.520   6.363 -0.3547  0.3140 -0.4130
  129MOL0     O17315   9.053  -0.468   6.251 -0.5565 -1.1568 -0.9778
  129MOL0     C17316   8.933  -0.537   6.202  1.1458  0.2462 -0.2169
  129MOL0     C17317   8.860  -0.436   6.097  0.1134  0.5988 -0.1499
  129MOL0     C17318   8.733  -0.510   6.030  0.1307  0.6407  0.4421
  129MOL0     C17319   8.775  -0.617   5.926  0.1539  0.3791 -0.0996
  129MOL0     C17320   8.650  -0.669   5.847 -0.2272  0.2141 -0.2014
  129MOL0     C17321   8.651  -0.814   5.791  0.4050 -1.0361  0.7659
  129MOL0     C17322   8.758  -0.847   5.683 -0.4527 -0.7990 -0.0663
  129MOL0     C17323   8.727  -0.988   5.643 -0.3984  0.1841 -0.3244
  129MOL0    Cl17324   8.577  -0.995   5.534 -0.3983  0.2356 -0.1887
  129MOL0     C17325   9.220  -0.459   6.419  0.3344 -0.4010  0.3504
  129MOL0     C17326   9.261  -0.488   6.549  0.1849  0.9012  0.6441
  129MOL0     O17327   9.062  -0.609   6.856  0.1465 -0.3115  0.5485
  129MOL0     C17328   9.139  -0.624   7.112 -0.9286  0.2848  1.0789
  129MOL0     C17329   9.182  -0.640   7.240  1.0787  0.4383 -0.4433
  129MOL0     N17330   8.965  -0.871   7.735  0.6157  0.0657  0.6854
  129MOL0     N17331   8.869  -0.812   7.801  0.2243  0.9313 -0.4183
  129MOL0     C17332   8.696   0.144   8.591  0.4064 -0.3556 -0.1754
  129MOL0     C17333   8.673   0.280   8.635 -0.5335 -0.6802 -0.4712
  129MOL0     C17334   8.725   0.712   8.701  0.5970 -0.4022 -0.2268
  129MOL0     C17335   8.837   0.795   8.730 -1.1060 -0.3880  0.1941
  129MOL0     C17336   8.826   0.934   8.755  0.5568  0.3889 -0.6207
  129MOL0     C17337   8.698   0.997   8.760 -0.6983 -0.1681  0.7027
  129MOL0     O17338   8.699   1.131   8.777 -0.3722 -0.0752  0.7581
  129MOL0     C17339   8.691   1.215   8.658 -0.4608 -0.0666 -0.5372
  129MOL0     C17340   8.830   1.268   8.596 -1.0739 -0.3108  0.3979
  129MOL0     C17341   8.890   1.348   8.706 -1.1032 -0.1739 -0.6106
  129MOL0     C17342   8.900   1.497   8.664 -0.0605 -0.0881  0.3403
  129MOL0     C17343   8.979   1.532   8.540 -1.1226  0.3367  0.1562
  129MOL0     C17344   9.063   1.541   8.451  1.0321  0.3430 -0.2071
  129MOL0     C17345   8.587   0.924   8.729 -0.2189  0.5354 -0.2430
  129MOL0     C17346   8.598   0.777   8.708  0.4920 -0.1727 -0.3152
  129MOL0     C17347   8.459   0.708   8.720 -0.9723  0.2961 -0.3437
  129MOL0     H17348   8.740   0.433   8.331 -2.0011  1.3471 -0.2876
  129MOL0     H17349   8.810   0.194   8.282 -1.0156 -1.9554 -0.1821
  129MOL0     H17350   8.810  -0.039   8.238  1.9680  0.4056 -1.6082
  129MOL0     H17351   8.943   0.012   8.329  0.7499  0.2380  0.3388
  129MOL0     H17352   8.795  -0.248   8.364 -1.3982  2.2783  1.1684
  129MOL0     H17353   8.955  -0.220   8.435  2.0880 -1.7262 -2.0714
  129MOL0     H17354   9.078  -0.277   8.286  1.4740  0.8306 -0.0685
  129MOL0     H17355   9.031  -0.149   8.186  1.8631  0.4776  1.4233
  129MOL0     H17356   8.852  -0.401   8.201  1.8042 -2.5770 -2.6125
  129MOL0     H17357   8.826  -0.258   8.109 -1.0285 -2.9900  0.5744
  129MOL0     H17358   9.061  -0.307   7.998 -2.7299  1.3141 -1.1982
  129MOL0     H17359   9.055  -0.462   8.067  0.8655  0.7803 -1.4061
  129MOL0     H17360   8.848  -0.362   7.866  1.0321  2.0325 -0.0557
  129MOL0     H17361   8.970  -0.478   7.848  0.0099 -1.5083  1.6890
  129MOL0     H17362   8.716  -0.564   7.893  1.4815 -3.8031 -0.4221
  129MOL0     H17363   8.737  -0.499   8.056 -0.7495 -1.4839  0.2028
  129MOL0     H17364   8.932  -0.654   8.085  1.3451 -2.2100 -1.3912
  129MOL0     H17365   8.793  -0.744   8.047 -1.4808 -0.9165 -4.1437
  129MOL0     H17366   9.135  -0.737   7.979  0.8789  1.3215 -2.1491
  129MOL0     H17367   9.274  -0.950   7.818  0.0100 -1.7788 -0.4193
  129MOL0     H17368   9.193  -0.987   7.667 -1.0423  2.0861 -1.8395
  129MOL0     H17369   9.222  -0.719   7.631 -3.1493 -2.9906 -1.0168
  129MOL0     H17370   9.364  -0.742   7.733 -1.9614  2.6315  1.1584
  129MOL0     H17371   9.296  -0.886   7.480 -2.5431  0.2946  2.3166
  129MOL0     H17372   9.445  -0.916   7.577 -1.8318 -3.2315 -1.9347
  129MOL0     H17373   9.506  -0.776   7.388  0.4325  2.5532 -1.0919
  129MOL0     H17374   9.499  -0.663   7.521 -1.0821  2.2672 -1.8202
  129MOL0     H17375   9.514  -0.682   7.197  0.7459 -0.6481  1.0202
  129MOL0     H17376   9.424  -0.675   6.951 -2.1023  2.7373 -1.3123
  129MOL0     H17377   9.071  -0.751   6.625  0.7744  1.1188  2.0246
  129MOL0     H17378   8.963  -0.671   6.404  0.9030 -2.5667 -0.6906
  129MOL0     H17379   8.950  -0.632   6.151 -0.5742 -1.9448  2.9687
  129MOL0     H17380   8.867  -0.559   6.286  2.1421 -1.6304  0.1309
  129MOL0     H17381   8.838  -0.348   6.158 -0.1543 -0.2239  0.9684
  129MOL0     H17382   8.926  -0.404   6.015  0.3631 -3.5474 -1.8190
  129MOL0     H17383   8.673  -0.554   6.110 -1.0510  2.3090  0.5235
  129MOL0     H17384   8.668  -0.444   5.972 -0.2592 -0.1618 -0.0496
  129MOL0     H17385   8.819  -0.690   5.995  0.0907 -0.5406 -1.0036
  129MOL0     H17386   8.850  -0.584   5.853 -1.0745  2.2545 -0.6041
  129MOL0     H17387   8.625  -0.599   5.767 -3.0691 -0.9472 -0.4494
  129MOL0     H17388   8.572  -0.675   5.924  2.7528 -1.4503  2.9960
  129MOL0     H17389   8.669  -0.878   5.878  0.5329  3.0997  4.0621
  129MOL0     H17390   8.552  -0.828   5.748 -0.1054  1.9746  0.7633
  129MOL0     H17391   8.860  -0.839   5.721 -1.0969  1.3236  1.4352
  129MOL0     H17392   8.742  -0.780   5.599  2.3722  0.1096  0.0388
  129MOL0     H17393   8.816  -1.033   5.598  0.3798  0.1336  1.1777
  129MOL0     H17394   8.698  -1.058   5.722  2.6435 -2.2603 -1.1946
  129MOL0     H17395   9.258  -0.371   6.367 -4.6257  1.5186 -0.5893
  129MOL0     H17396   9.342  -0.445   6.606 -1.0552  2.4179  1.3480
  129MOL0     H17397   9.032  -0.615   7.097 -0.9340 -2.7063 -1.7831
  129MOL0     H17398   9.110  -0.621   7.320  3.3156 -0.7810  2.0291
  129MOL0     H17399   8.663   0.058   8.648 -1.8214 -0.5359 -1.6622
  129MOL0     H17400   8.628   0.303   8.732 -1.2733 -0.1497 -0.9284
  129MOL0     H17401   8.935   0.748   8.730 -0.7711  0.2982  0.1338
  129MOL0     H17402   8.914   0.997   8.747  0.2061  0.6528 -4.1138
  129MOL0     H17403   8.628   1.298   8.690 -1.9132 -1.2757 -0.1639
  129MOL0     H17404   8.635   1.176   8.573 -1.8282  0.3548  0.1493
  129MOL0     H17405   8.801   1.335   8.515 -2.9932 -3.2315 -1.5288
  129MOL0     H17406   8.897   1.191   8.556  1.0089  2.3405 -1.5770
  129MOL0     H17407   8.995   1.318   8.709 -1.1263 -0.1852  1.4660
  129MOL0     H17408   8.856   1.338   8.809  2.5926  4.5965  1.4688
  129MOL0     H17409   8.798   1.534   8.648  0.3956  0.8467 -0.5568
  129MOL0     H17410   8.936   1.552   8.751  4.0247 -2.2975  0.2629
  129MOL0     H17411   9.134   1.540   8.371  1.5992  2.0112  0.2132
  129MOL0     H17412   8.488   0.967   8.724  1.4495  4.7667 -3.2806
  129MOL0     H17413   8.452   0.605   8.684 -1.9452  1.0997 -2.6479
  129MOL0     H17414   8.443   0.701   8.828  0.1536  0.1119 -0.1819
  129MOL0     H17415   8.369   0.759   8.683 -2.9006 -2.1117  0.7700
  130MOL0     O17416  10.504   2.727   9.467 -0.6263  0.1074 -0.3536
  130MOL0     C17417  10.394   2.774   9.459  1.0442  0.3877  0.8150
  130MOL0     O17418  10.277   2.703   9.486  0.2841  0.4091 -0.7395
  130MOL0     C17419  10.287   2.572   9.521 -0.3169  0.7819 -0.0019
  130MOL0     C17420  10.371   2.525   9.625  0.4187 -1.1948  0.0824
  130MOL0     C17421  10.375   2.392   9.667 -0.2400  0.2216 -0.7310
  130MOL0     C17422  10.305   2.294   9.596 -0.1828 -0.3488  0.3636
  130MOL0     O17423  10.305   2.162   9.622 -0.4452  0.2178  0.4335
  130MOL0     C17424  10.184   2.083   9.593  0.4635 -0.2619  0.0525
  130MOL0     C17425  10.228   1.981   9.485  0.8160 -0.3795 -0.2926
  130MOL0     C17426  10.325   1.881   9.550 -0.1242  0.1015 -0.0759
  130MOL0     C17427  10.376   1.768   9.439  0.2120 -1.0402 -0.4170
  130MOL0     C17428  10.437   1.650   9.514  0.6515  0.8539  0.1290
  130MOL0     C17429  10.532   1.569   9.414  0.5180 -0.4313  0.2015
  130MOL0     C17430  10.646   1.471   9.463  0.1970  0.2543  0.2012
  130MOL0     C17431  10.731   1.416   9.345 -0.1445 -0.6327 -0.1552
  130MOL0     N17432  10.846   1.342   9.391 -0.3482  1.0089 -0.1792
  130MOL0     C17433  10.971   1.355   9.354 -0.3554 -0.2648  0.8062
  130MOL0     C17434  11.038   1.240   9.373 -0.7625  0.2818  0.5079
  130MOL0     C17435  11.186   1.230   9.347  0.4664 -0.2262 -0.5419
  130MOL0     C17436  11.228   1.218   9.207 -0.2395  0.8465  0.0767
  130MOL0     C17437  11.174   1.100   9.131  0.2397 -0.7328  0.0657
  130MOL0     C17438  11.214   0.964   9.190 -0.9458 -0.6150 -0.4181
  130MOL0     O17439  11.346   0.965   9.227  0.3310  0.4152 -0.1003
  130MOL0     C17440  11.394   0.867   9.319  0.1452 -1.0905 -0.0225
  130MOL0     C17441  11.467   0.896   9.428  0.1008 -0.9288 -0.5414
  130MOL0     C17442  11.528   0.805   9.514  0.8430  0.4141  0.7652
  130MOL0     C17443  11.514   0.660   9.476  0.4138 -0.5026  0.2700
  130MOL0     C17444  11.576   0.574   9.571 -1.0302  0.2818  0.7348
  130MOL0     O17445  11.592   0.439   9.529  0.0219 -0.4079 -0.3357
  130MOL0     C17446  11.654   0.346   9.614 -0.7383  0.1316  0.8341
  130MOL0     C17447  11.600   0.219   9.606  0.7027  0.1087 -0.4084
  130MOL0     C17448  11.645   0.116   9.672  0.1922  0.4282 -0.8977
  130MOL0     C17449  11.761   0.132   9.751  0.1765 -0.0460 -0.2850
  130MOL0     O17450  11.817   0.023   9.801 -0.2992 -0.0645  0.0041
  130MOL0     C17451  11.873   0.037   9.935  0.2644  0.3616  0.0738
  130MOL0     C17452  11.795  -0.070  10.015  0.1011  0.3444  0.8204
  130MOL0     C17453  11.811  -0.042  10.168  0.7893  0.5599  1.2112
  130MOL0     C17454  11.701   0.042  10.234 -0.4556  0.9156  1.0372
  130MOL0     C17455  11.709   0.068  10.379 -0.0647  1.0185 -0.7406
  130MOL0     C17456  11.826   0.158  10.409 -1.0731 -0.2725  0.2210
  130MOL0     C17457  11.828   0.202  10.554 -0.1622 -0.4869  0.0906
  130MOL0     C17458  11.910   0.116  10.650 -0.1616  0.6142  0.1939
  130MOL0    Cl17459  11.839  -0.048  10.680 -0.2863 -0.3210  0.4873
  130MOL0     C17460  11.826   0.259   9.756  0.7024 -0.9758  0.4921
  130MOL0     C17461  11.763   0.368   9.696 -0.1423  0.0435 -0.3151
  130MOL0     O17462  11.590   0.613   9.683 -0.5035 -0.4516  0.2578
  130MOL0     C17463  11.455   0.628   9.353 -0.1554 -0.6826 -0.1999
  130MOL0     C17464  11.401   0.731   9.281 -0.0475 -0.8549 -0.1742
  130MOL0     N17465  10.956   1.161   9.451  0.7097  0.2013  0.7412
  130MOL0     N17466  10.840   1.217   9.447  0.6762  0.0846 -0.2073
  130MOL0     C17467  10.243   2.339   9.479  1.2602  0.2917 -0.1452
  130MOL0     C17468  10.229   2.475   9.453  0.3356 -0.3839  0.0832
  130MOL0     C17469  10.379   2.921   9.440  0.1495  0.0776 -0.1448
  130MOL0     C17470  10.275   2.987   9.512  0.4376  0.4652 -0.1164
  130MOL0     C17471  10.268   3.133   9.501  0.0244  0.4485  0.0333
  130MOL0     C17472  10.348   3.210   9.425 -0.0529  0.0344 -0.2880
  130MOL0     O17473  10.366   3.353   9.423 -0.0638  0.3995 -0.2613
  130MOL0     C17474  10.328   3.424   9.539  0.6858 -0.1575 -0.4451
  130MOL0     C17475  10.461   3.454   9.611  0.4950  0.0522  0.1237
  130MOL0     C17476  10.436   3.560   9.721  0.3708  0.9510 -0.3505
  130MOL0     C17477  10.432   3.703   9.678 -0.0008 -0.0970  0.8869
  130MOL0     C17478  10.565   3.745   9.625 -0.0038  0.2929 -0.0002
  130MOL0     C17479  10.675   3.770   9.576  0.7878  0.2549 -0.6064
  130MOL0     C17480  10.446   3.143   9.355  0.1701  0.4557 -0.0891
  130MOL0     C17481  10.463   3.005   9.362 -0.9462  0.5972  0.5790
  130MOL0     C17482  10.569   2.940   9.286  0.5433  0.2913  0.2949
  130MOL0     H17483  10.438   2.588   9.684  2.0631 -2.2018 -0.6453
  130MOL0     H17484  10.443   2.355   9.743  1.4006 -0.3469 -2.4169
  130MOL0     H17485  10.151   2.027   9.681 -3.7927 -0.1731 -1.2484
  130MOL0     H17486  10.094   2.136   9.560 -0.4374 -2.7506 -1.8038
  130MOL0     H17487  10.286   2.036   9.411 -0.7536  0.2745 -1.0864
  130MOL0     H17488  10.134   1.933   9.455  0.0600  0.3880  0.7795
  130MOL0     H17489  10.290   1.824   9.637  1.5555  0.1959  0.7052
  130MOL0     H17490  10.416   1.935   9.579 -0.0140  1.2639 -2.3848
  130MOL0     H17491  10.283   1.743   9.387 -0.7791 -1.4936  1.4808
  130MOL0     H17492  10.444   1.820   9.371 -1.7620  2.1128 -0.1911
  130MOL0     H17493  10.499   1.685   9.597 -0.7407 -0.1875  1.6560
  130MOL0     H17494  10.369   1.582   9.565  0.9496  1.2007  1.0030
  130MOL0     H17495  10.469   1.506   9.350 -2.2046  3.7049 -1.6299
  130MOL0     H17496  10.590   1.643   9.358 -0.8237 -0.3665 -1.1502
  130MOL0     H17497  10.605   1.384   9.514 -0.4664 -0.2270 -1.1126
  130MOL0     H17498  10.719   1.518   9.529 -3.5513  3.4227  2.5115
  130MOL0     H17499  10.682   1.347   9.275  2.0420 -3.5046  0.9402
  130MOL0     H17500  10.764   1.506   9.293  0.9196 -0.8721  0.0845
  130MOL0     H17501  11.016   1.442   9.308  2.3456  0.0025  3.6080
  130MOL0     H17502  11.239   1.311   9.399  2.2453 -0.9881 -1.0698
  130MOL0     H17503  11.222   1.141   9.400  2.3170 -0.8628 -2.6839
  130MOL0     H17504  11.196   1.306   9.151 -0.2998  0.1891 -0.9452
  130MOL0     H17505  11.336   1.204   9.204 -0.2275 -0.6645  3.1201
  130MOL0     H17506  11.213   1.107   9.029 -0.2140  2.1867  0.0241
  130MOL0     H17507  11.066   1.098   9.112  0.4272  2.2686 -2.0233
  130MOL0     H17508  11.209   0.882   9.117 -0.3340  1.5735 -3.0852
  130MOL0     H17509  11.140   0.953   9.270 -0.4412 -0.5790  0.0539
  130MOL0     H17510  11.464   1.001   9.457 -2.3359 -1.4855  1.5822
  130MOL0     H17511  11.580   0.837   9.604  0.1500  0.7396  1.0525
  130MOL0     H17512  11.510   0.216   9.546 -0.9080  0.7817  1.8575
  130MOL0     H17513  11.602   0.017   9.667  1.6681 -0.1733 -3.0224
  130MOL0     H17514  11.975  -0.001   9.922  1.0100  2.6240 -1.2332
  130MOL0     H17515  11.876   0.137   9.977  0.9954  0.4917 -0.2675
  130MOL0     H17516  11.689  -0.073   9.988  0.4458 -0.5690 -0.5202
  130MOL0     H17517  11.838  -0.167   9.990 -1.4499 -0.4529  1.1452
  130MOL0     H17518  11.822  -0.142  10.213  1.1847  0.1104  0.1476
  130MOL0     H17519  11.906   0.011  10.169  0.0703  1.9524 -0.4474
  130MOL0     H17520  11.610  -0.013  10.211  0.6975  0.0056 -1.8324
  130MOL0     H17521  11.692   0.139  10.183  2.5354  1.3581  1.1909
  130MOL0     H17522  11.728  -0.029  10.426 -3.8769  0.4547  0.0251
  130MOL0     H17523  11.618   0.103  10.431 -0.0531  1.1653 -0.8168
  130MOL0     H17524  11.923   0.116  10.381 -1.5683  0.6242 -3.3798
  130MOL0     H17525  11.808   0.245  10.346  0.5098  2.4851  3.2892
  130MOL0     H17526  11.728   0.193  10.597  0.3979  0.8110  1.7983
  130MOL0     H17527  11.858   0.306  10.568  0.7972 -1.1202  3.8439
  130MOL0     H17528  12.006   0.103  10.598 -0.5467  1.1703 -0.6742
  130MOL0     H17529  11.932   0.170  10.743  0.0741 -0.9685  1.1068
  130MOL0     H17530  11.922   0.291   9.795  1.3475 -1.0562 -0.9301
  130MOL0     H17531  11.799   0.469   9.709  3.1761 -0.9956 -0.4993
  130MOL0     H17532  11.445   0.524   9.323 -3.2693 -1.3684  2.5808
  130MOL0     H17533  11.351   0.705   9.188 -1.1509  1.1230 -0.1956
  130MOL0     H17534  10.192   2.266   9.417 -1.1016  1.9179 -0.2547
  130MOL0     H17535  10.166   2.513   9.373  2.0970  3.2684  0.2381
  130MOL0     H17536  10.205   2.947   9.585  1.3957 -1.5545 -0.2322
  130MOL0     H17537  10.193   3.178   9.566  0.0923  1.5798 -0.6554
  130MOL0     H17538  10.266   3.361   9.603  1.7465  0.2504  1.0359
  130MOL0     H17539  10.267   3.511   9.512  1.1265  0.2664 -0.0882
  130MOL0     H17540  10.539   3.495   9.546  1.7815 -1.9367  0.3303
  130MOL0     H17541  10.498   3.359   9.651 -3.0773 -1.2325  0.7691
  130MOL0     H17542  10.532   3.553   9.773  0.7583  3.0997 -0.6921
  130MOL0     H17543  10.354   3.536   9.789  2.2706 -0.7664  1.4873
  130MOL0     H17544  10.351   3.735   9.612  1.3159 -1.2271 -1.3668
  130MOL0     H17545  10.410   3.754   9.772  1.8864 -0.8562  1.7844
  130MOL0     H17546  10.765   3.794   9.524  0.3016  2.1982 -0.6362
  130MOL0     H17547  10.516   3.196   9.292 -1.5479 -0.7148 -3.2345
  130MOL0     H17548  10.522   2.859   9.230  1.6685 -0.6548  0.6678
  130MOL0     H17549  10.626   3.012   9.225  0.4316 -1.9059 -2.6227
  130MOL0     H17550  10.633   2.889   9.358  0.4172  0.6845  0.6884
  131MOL0     O17551   6.416   8.645   7.011 -0.6312 -0.8437 -0.2769
  131MOL0     C17552   6.326   8.730   7.022  0.4994 -0.2925  1.2072
  131MOL0     O17553   6.344   8.871   7.026 -0.7103  0.3824  0.3346
  131MOL0     C17554   6.473   8.907   7.066  0.1878  0.7330  0.0031
  131MOL0     C17555   6.489   8.977   7.189 -0.7996 -0.3659  0.5033
  131MOL0     C17556   6.619   9.014   7.232  0.1724  0.2660  0.5621
  131MOL0     C17557   6.724   8.991   7.151 -0.9307 -0.3929  0.2807
  131MOL0     O17558   6.848   9.037   7.205 -0.0308 -0.9517 -0.2114
  131MOL0     C17559   6.944   9.094   7.119 -0.6073 -0.1947 -0.0956
  131MOL0     C17560   7.022   9.187   7.202 -0.3934  0.9381  0.2666
  131MOL0     C17561   7.151   9.126   7.258  0.7828  0.2646 -0.1652
  131MOL0     C17562   7.134   8.988   7.339  0.2135  0.5063  0.9808
  131MOL0     C17563   7.255   8.952   7.424 -0.0975 -0.6052  0.5044
  131MOL0     C17564   7.260   9.022   7.572  0.4116  1.1224  0.5881
  131MOL0     C17565   7.312   9.166   7.582 -0.5371  0.4320  0.6149
  131MOL0     C17566   7.313   9.212   7.730 -0.0599  0.8819  0.4514
  131MOL0     N17567   7.444   9.182   7.801  0.3515  0.6930 -0.4975
  131MOL0     C17568   7.566   9.202   7.745  0.1199 -0.1532 -0.1736
  131MOL0     C17569   7.646   9.112   7.813  0.7862 -1.2441 -0.0164
  131MOL0     C17570   7.797   9.098   7.809 -0.5333  0.2787  0.5284
  131MOL0     C17571   7.846   8.959   7.766 -0.2846  0.9037  0.6617
  131MOL0     C17572   7.816   8.940   7.616 -0.5114 -0.4435 -0.0387
  131MOL0     C17573   7.907   9.029   7.537 -0.2375 -0.0518 -0.6839
  131MOL0     O17574   7.838   9.138   7.485 -0.1010 -0.2743  0.1587
  131MOL0     C17575   7.743   9.117   7.386  0.8063  1.3152 -0.1056
  131MOL0     C17576   7.724   8.991   7.319 -0.1607 -0.6220  0.3015
  131MOL0     C17577   7.637   8.979   7.210  0.0397  0.4845 -0.1271
  131MOL0     C17578   7.567   9.095   7.160  0.1447  0.4907 -0.0620
  131MOL0     C17579   7.481   9.089   7.041  0.3493 -0.7787  0.4325
  131MOL0     O17580   7.460   8.973   6.986  0.7448  0.5288 -0.6182
  131MOL0     C17581   7.350   8.945   6.915  0.2819  0.0704  0.0234
  131MOL0     C17582   7.318   9.012   6.800  0.7813 -0.2911  0.6242
  131MOL0     C17583   7.210   8.971   6.713 -0.4505 -1.4000 -0.3784
  131MOL0     C17584   7.145   8.855   6.744  0.7561 -0.5883 -0.3538
  131MOL0     O17585   7.051   8.813   6.656  0.0524 -0.1367 -0.2603
  131MOL0     C17586   6.916   8.794   6.710 -0.3071 -0.8148  0.3292
  131MOL0     C17587   6.830   8.717   6.616 -0.0241 -0.6247 -0.9691
  131MOL0     C17588   6.686   8.694   6.665  0.0283 -1.0697  0.6505
  131MOL0     C17589   6.607   8.585   6.578 -0.1220 -0.6775  0.0704
  131MOL0     C17590   6.459   8.559   6.626 -0.2049 -0.8014 -0.0606
  131MOL0     C17591   6.379   8.694   6.648 -0.1894 -0.4968  0.5348
  131MOL0     C17592   6.234   8.670   6.620  1.2374 -0.1361 -0.9473
  131MOL0     C17593   6.145   8.790   6.662 -0.5169 -0.0073  0.3043
  131MOL0    Cl17594   6.177   8.916   6.539  0.0052 -0.1795 -0.3696
  131MOL0     C17595   7.156   8.808   6.872  0.6489 -0.6021 -1.0800
  131MOL0     C17596   7.270   8.840   6.954 -0.7283 -0.0939  0.2675
  131MOL0     O17597   7.403   9.185   7.029 -0.0150  0.0140  0.6914
  131MOL0     C17598   7.587   9.212   7.228 -0.1364 -1.2378  0.6293
  131MOL0     C17599   7.667   9.222   7.339 -1.1288  0.1357 -0.1614
  131MOL0     N17600   7.571   9.052   7.914 -0.5427  0.3367 -0.1203
  131MOL0     N17601   7.446   9.088   7.901 -0.6555 -0.0304  0.1706
  131MOL0     C17602   6.709   8.938   7.018 -0.6751 -0.3284  0.6052
  131MOL0     C17603   6.582   8.897   6.978  0.0901  0.6303 -0.0734
  131MOL0     C17604   6.192   8.690   7.026 -0.3150  0.1468  1.1120
  131MOL0     C17605   6.092   8.791   7.040  0.0600  0.9899  0.5370
  131MOL0     C17606   5.956   8.768   7.048 -0.6508  0.3054 -0.1674
  131MOL0     C17607   5.910   8.635   7.047 -0.1081 -0.7955 -0.3798
  131MOL0     O17608   5.780   8.597   7.050  0.3826 -0.4564 -0.3524
  131MOL0     C17609   5.675   8.685   7.026  0.4849  0.0256 -0.5448
  131MOL0     C17610   5.662   8.730   6.884  0.7618 -0.0378 -0.2828
  131MOL0     C17611   5.699   8.617   6.784  0.8644 -0.9629  0.4364
  131MOL0     C17612   5.613   8.481   6.798 -0.5043  0.0540  0.2826
  131MOL0     C17613   5.577   8.422   6.666  0.2883 -0.5388  0.0292
  131MOL0     C17614   5.566   8.376   6.553 -0.3710 -0.6181 -0.5501
  131MOL0     C17615   6.004   8.535   7.043 -0.1614  1.1852  0.0294
  131MOL0     C17616   6.142   8.557   7.024 -0.4947  0.0540  1.1344
  131MOL0     C17617   6.230   8.432   7.006 -0.1083  0.8086  0.9245
  131MOL0     H17618   6.405   8.998   7.255 -0.5583  1.0610  0.3943
  131MOL0     H17619   6.625   9.068   7.326 -4.5839  0.0226  1.2642
  131MOL0     H17620   6.997   9.018   7.059  1.6381  1.9402 -0.9697
  131MOL0     H17621   6.884   9.151   7.048 -2.2726 -2.5181 -0.6855
  131MOL0     H17622   6.963   9.210   7.291  0.4813  4.6932  0.0385
  131MOL0     H17623   7.036   9.279   7.144 -0.7917 -0.1346 -1.6026
  131MOL0     H17624   7.203   9.195   7.325  0.4241  0.1324  0.2548
  131MOL0     H17625   7.211   9.106   7.169 -1.4264  1.9669 -2.1630
  131MOL0     H17626   7.045   8.997   7.402  1.0622  0.6800  2.2133
  131MOL0     H17627   7.116   8.907   7.268  1.7260  1.1757 -0.2063
  131MOL0     H17628   7.249   8.843   7.435  1.6047 -0.6572  1.2171
  131MOL0     H17629   7.357   8.958   7.385  0.7142 -1.9010  2.2796
  131MOL0     H17630   7.158   9.030   7.611  0.3337  0.6491  0.4887
  131MOL0     H17631   7.322   8.957   7.635  1.1412  1.2248 -0.0129
  131MOL0     H17632   7.255   9.245   7.532  4.3512  5.5166  2.0163
  131MOL0     H17633   7.411   9.164   7.537  0.0719 -2.0282  1.8931
  131MOL0     H17634   7.285   9.317   7.742 -0.4583  0.8711 -0.3632
  131MOL0     H17635   7.234   9.158   7.783  0.6132 -2.3004 -1.4901
  131MOL0     H17636   7.595   9.275   7.670  3.2692 -1.5938 -0.4976
  131MOL0     H17637   7.837   9.174   7.741  0.2162 -0.3950  0.2049
  131MOL0     H17638   7.822   9.139   7.907 -2.3608  2.2789  0.2422
  131MOL0     H17639   7.942   8.929   7.808 -0.8320  0.5215  1.6635
  131MOL0     H17640   7.786   8.888   7.823  2.6909 -2.1119  0.3611
  131MOL0     H17641   7.710   8.962   7.600 -0.7129 -1.7967 -0.7420
  131MOL0     H17642   7.840   8.837   7.589  1.8834 -0.8884  3.1168
  131MOL0     H17643   7.953   8.978   7.451  0.0222  0.2059 -0.6987
  131MOL0     H17644   7.993   9.073   7.588  1.8274 -1.4872 -2.6815
  131MOL0     H17645   7.764   8.903   7.368  1.2185  0.3981  1.0791
  131MOL0     H17646   7.610   8.880   7.174 -1.9743 -0.1807  2.7599
  131MOL0     H17647   7.380   9.100   6.783 -0.6496  1.2670  2.9392
  131MOL0     H17648   7.182   9.016   6.618  2.1769 -3.6809 -2.4024
  131MOL0     H17649   6.914   8.743   6.807  2.3545  0.6052  1.2309
  131MOL0     H17650   6.880   8.897   6.717  1.3428  0.0138 -1.9385
  131MOL0     H17651   6.823   8.786   6.532  1.0452  3.2746  1.8348
  131MOL0     H17652   6.870   8.619   6.589  0.8138 -0.5429 -0.1050
  131MOL0     H17653   6.696   8.666   6.770  2.8013 -4.1693 -0.3074
  131MOL0     H17654   6.632   8.788   6.645  0.8392 -1.0077 -1.4973
  131MOL0     H17655   6.674   8.499   6.582  0.9107 -0.1075 -2.6716
  131MOL0     H17656   6.604   8.607   6.471 -0.0828  0.5317  0.2986
  131MOL0     H17657   6.458   8.502   6.719 -0.3320 -1.0749 -0.2277
  131MOL0     H17658   6.418   8.504   6.540 -0.8050 -0.3861 -0.0454
  131MOL0     H17659   6.390   8.725   6.752 -2.1935  0.9961  0.3653
  131MOL0     H17660   6.415   8.772   6.581 -1.5186  0.7154  1.1630
  131MOL0     H17661   6.199   8.578   6.667  2.3141  0.4280  1.0522
  131MOL0     H17662   6.213   8.669   6.512  0.0213 -2.5867 -0.7524
  131MOL0     H17663   6.041   8.761   6.642  0.0723  0.0833 -3.6955
  131MOL0     H17664   6.161   8.825   6.765  1.6064  1.7040 -0.5369
  131MOL0     H17665   7.089   8.733   6.912  0.9788 -0.0352  0.6052
  131MOL0     H17666   7.294   8.786   7.045 -3.4649  2.1330  2.4758
  131MOL0     H17667   7.534   9.298   7.190 -1.0599 -1.8012  0.6098
  131MOL0     H17668   7.674   9.320   7.386 -0.9381 -0.6080  1.4162
  131MOL0     H17669   6.796   8.921   6.957 -1.2186  2.5505 -1.1609
  131MOL0     H17670   6.574   8.844   6.883 -0.8019 -0.2487  0.4739
  131MOL0     H17671   6.114   8.897   7.049 -1.0019  1.1422  1.7910
  131MOL0     H17672   5.891   8.855   7.050 -2.0027 -0.5219 -2.8414
  131MOL0     H17673   5.682   8.772   7.092 -1.4323  0.3918 -0.7842
  131MOL0     H17674   5.591   8.624   7.060  1.7411 -0.9251  1.0696
  131MOL0     H17675   5.727   8.817   6.870 -0.9773  1.9554  2.9114
  131MOL0     H17676   5.560   8.767   6.866  0.8325  0.1391 -0.3253
  131MOL0     H17677   5.804   8.590   6.792  1.1870  0.7324  2.9914
  131MOL0     H17678   5.679   8.662   6.686 -2.3494 -0.8304  1.0323
  131MOL0     H17679   5.677   8.408   6.849 -1.1553 -0.8089 -0.1047
  131MOL0     H17680   5.526   8.503   6.861 -0.8743  2.5423 -0.9864
  131MOL0     H17681   5.563   8.341   6.452  0.6011  2.2934 -1.6839
  131MOL0     H17682   5.979   8.430   7.040  2.1321  0.6129 -0.7363
  131MOL0     H17683   6.176   8.339   6.987  0.8858  0.8546 -2.8019
  131MOL0     H17684   6.294   8.435   6.918 -1.8282  0.7179 -0.3713
  131MOL0     H17685   6.297   8.427   7.092  0.0174  5.1831  1.3008
  132MOL0     O17686   8.765   1.228  10.965  1.1998  0.2688 -0.0365
  132MOL0     C17687   8.748   1.311  10.878 -0.0577  0.6023 -0.5535
  132MOL0     O17688   8.768   1.290  10.747 -0.0956  0.1366 -0.4605
  132MOL0     C17689   8.833   1.173  10.702 -0.2962 -0.1237 -0.3389
  132MOL0     C17690   8.755   1.060  10.673  0.8918 -0.2273 -0.2612
  132MOL0     C17691   8.805   0.942  10.618  0.5356 -0.5449  0.7645
  132MOL0     C17692   8.941   0.925  10.597  0.5442  0.5088 -0.1957
  132MOL0     O17693   8.985   0.802  10.565 -0.1140 -0.1671 -0.7097
  132MOL0     C17694   9.123   0.798  10.531  0.2651  0.1582 -0.1839
  132MOL0     C17695   9.167   0.666  10.472  0.1056 -0.2073 -0.5300
  132MOL0     C17696   9.101   0.644  10.335 -0.2901  0.1559 -0.9770
  132MOL0     C17697   9.183   0.541  10.251  0.0124  0.4915 -0.3844
  132MOL0     C17698   9.106   0.517  10.117 -1.0024  0.5833  1.4183
  132MOL0     C17699   9.085   0.642  10.026  0.1922  0.4039  0.0966
  132MOL0     C17700   9.044   0.596   9.880 -0.1859  0.3051  1.2983
  132MOL0     C17701   9.159   0.619   9.782  0.5375  0.0879  0.5118
  132MOL0     N17702   9.114   0.587   9.643 -0.9533 -0.1836 -0.4093
  132MOL0     C17703   9.048   0.476   9.606  0.1443 -0.2410  0.2093
  132MOL0     C17704   9.018   0.505   9.472  0.6158  0.6174 -0.6785
  132MOL0     C17705   8.924   0.419   9.390  0.1952  0.1913  0.5537
  132MOL0     C17706   8.976   0.424   9.244 -0.2017 -0.8980  0.7184
  132MOL0     C17707   8.901   0.311   9.166  0.3251 -0.9519 -0.3246
  132MOL0     C17708   8.901   0.322   9.008 -0.2738 -0.4093 -0.4001
  132MOL0     O17709   9.033   0.330   8.956  1.0175  0.0947 -0.6564
  132MOL0     C17710   9.064   0.228   8.870 -0.0353  0.1429 -0.0824
  132MOL0     C17711   9.155   0.124   8.906 -0.9057  0.1017  0.3212
  132MOL0     C17712   9.170   0.021   8.816 -0.1286  1.0542 -0.5355
  132MOL0     C17713   9.137   0.023   8.680 -0.4492  0.2730 -0.8551
  132MOL0     C17714   9.176  -0.077   8.583 -0.3691  0.7293  0.4293
  132MOL0     O17715   9.244  -0.186   8.641  0.5771  0.9423  0.1530
  132MOL0     C17716   9.256  -0.290   8.557 -0.8048  1.2941 -0.3032
  132MOL0     C17717   9.161  -0.390   8.570  0.3000  0.0228 -0.4334
  132MOL0     C17718   9.151  -0.496   8.484 -0.3007  1.1893  0.7282
  132MOL0     C17719   9.250  -0.521   8.381  0.2090  0.0603  0.6323
  132MOL0     O17720   9.232  -0.636   8.303  0.2783  1.2024 -0.8530
  132MOL0     C17721   9.346  -0.685   8.238 -0.7635  0.6399  0.6018
  132MOL0     C17722   9.348  -0.843   8.227 -0.2337  0.6617  0.2641
  132MOL0     C17723   9.485  -0.877   8.157  0.0274  0.2279 -0.4422
  132MOL0     C17724   9.542  -0.998   8.243 -0.3019  0.2590  0.7961
  132MOL0     C17725   9.675  -1.052   8.184  0.3723  0.2455  0.0461
  132MOL0     C17726   9.734  -1.161   8.279  0.2931 -0.0169 -0.5147
  132MOL0     C17727   9.865  -1.216   8.214 -0.4566  0.0316 -0.3275
  132MOL0     C17728   9.931  -1.331   8.279  0.4509  0.9194 -0.4646
  132MOL0    Cl17729   9.844  -1.482   8.270 -0.0774  0.1836  0.0665
  132MOL0     C17730   9.346  -0.419   8.363  0.2240  0.6036 -0.3213
  132MOL0     C17731   9.353  -0.314   8.452  0.6617 -1.5521  0.6360
  132MOL0     O17732   9.139  -0.063   8.462 -0.7736  0.1890 -0.8382
  132MOL0     C17733   9.079   0.150   8.639 -1.2719  0.2758 -0.0587
  132MOL0     C17734   9.028   0.238   8.736 -1.1909  0.3298 -0.0863
  132MOL0     N17735   9.079   0.618   9.432  0.2860 -0.8353 -0.2801
  132MOL0     N17736   9.132   0.673   9.535  0.0529 -0.2377  0.4935
  132MOL0     C17737   9.019   1.035  10.624  0.2285 -0.7101  0.2348
  132MOL0     C17738   8.972   1.159  10.675  0.2738  0.4558 -0.0075
  132MOL0     C17739   8.696   1.448  10.905 -0.7480  0.8145 -0.4624
  132MOL0     C17740   8.783   1.548  10.868 -0.3828  0.6605 -0.8198
  132MOL0     C17741   8.739   1.675  10.878 -0.1041 -0.5003 -0.1529
  132MOL0     C17742   8.614   1.712  10.947 -0.9364  0.0262  0.2234
  132MOL0     O17743   8.578   1.843  10.982  0.0659 -0.7869 -0.5244
  132MOL0     C17744   8.677   1.945  10.986 -1.3009  0.3202 -1.0744
  132MOL0     C17745   8.621   2.071  11.041  0.4802  0.1448 -0.6152
  132MOL0     C17746   8.497   2.113  10.967  0.0619  0.0877  0.8024
  132MOL0     C17747   8.438   2.255  11.014 -0.0621  0.0192  0.1690
  132MOL0     C17748   8.322   2.281  10.943 -0.2367 -0.4609 -0.3129
  132MOL0     C17749   8.206   2.309  10.907  0.7282  0.0945 -0.2930
  132MOL0     C17750   8.532   1.605  10.981  0.0156 -0.9789 -0.3730
  132MOL0     C17751   8.567   1.471  10.954 -0.1829 -0.5001  0.4047
  132MOL0     C17752   8.465   1.369  10.983 -0.3145 -0.1644  0.2164
  132MOL0     H17753   8.648   1.067  10.688  0.4798 -1.2205 -2.3143
  132MOL0     H17754   8.739   0.862  10.586  2.1434 -2.2042  1.4343
  132MOL0     H17755   9.148   0.881  10.465  1.6005  0.8075  1.0998
  132MOL0     H17756   9.184   0.818  10.619 -0.6456  2.3100 -0.0007
  132MOL0     H17757   9.136   0.587  10.541 -1.5668  0.5087 -0.4254
  132MOL0     H17758   9.276   0.675  10.460  0.0247  0.5180 -0.7644
  132MOL0     H17759   9.094   0.738  10.279  0.2518  0.6014 -0.3179
  132MOL0     H17760   8.998   0.608  10.341 -0.9417  1.9244 -1.1866
  132MOL0     H17761   9.278   0.587  10.221 -0.2789 -0.5832 -3.3411
  132MOL0     H17762   9.184   0.450  10.312 -0.5895  0.4276 -0.4643
  132MOL0     H17763   9.165   0.444  10.060 -2.4258 -1.8709  2.9058
  132MOL0     H17764   9.005   0.476  10.126 -1.9701  2.8381  1.5281
  132MOL0     H17765   9.009   0.704  10.074  1.6903  0.7568  2.1644
  132MOL0     H17766   9.178   0.700  10.025 -0.0286  0.7518 -0.5869
  132MOL0     H17767   8.949   0.638   9.848  0.2221  1.7128  1.8820
  132MOL0     H17768   9.033   0.487   9.887 -2.5474  0.4991  1.4266
  132MOL0     H17769   9.199   0.719   9.798  0.4302  0.1124  0.6219
  132MOL0     H17770   9.237   0.543   9.799 -0.2147 -0.9351 -0.4132
  132MOL0     H17771   9.021   0.394   9.671  1.4192 -1.9479 -1.3051
  132MOL0     H17772   8.938   0.319   9.431 -1.7824 -0.2701  0.1578
  132MOL0     H17773   8.821   0.450   9.407  0.3691  0.5404  1.0396
  132MOL0     H17774   8.970   0.522   9.196  1.5124 -1.0507  0.1506
  132MOL0     H17775   9.082   0.401   9.244 -0.2733 -1.7389 -2.4957
  132MOL0     H17776   8.796   0.327   9.195  1.0737  2.6205  0.9217
  132MOL0     H17777   8.937   0.210   9.188  1.4017 -0.5888 -0.3595
  132MOL0     H17778   8.849   0.414   8.979  0.6862 -0.3096 -1.8594
  132MOL0     H17779   8.852   0.236   8.962 -2.1743  1.7156 -2.6444
  132MOL0     H17780   9.206   0.129   9.001 -0.2221 -0.5919  0.0029
  132MOL0     H17781   9.221  -0.071   8.845 -0.9059  0.9022  0.4165
  132MOL0     H17782   9.093  -0.377   8.654  0.7334 -2.5019  0.3800
  132MOL0     H17783   9.076  -0.573   8.500  1.1580 -0.9073 -1.6597
  132MOL0     H17784   9.355  -0.642   8.138  0.1796 -1.4251 -0.2577
  132MOL0     H17785   9.438  -0.659   8.292 -1.0033  1.2524  0.7226
  132MOL0     H17786   9.341  -0.888   8.326 -0.4762 -0.8639 -0.4172
  132MOL0     H17787   9.263  -0.884   8.171 -0.5423  1.2044  0.3248
  132MOL0     H17788   9.468  -0.906   8.052  0.2957  1.4917 -0.8541
  132MOL0     H17789   9.555  -0.793   8.151 -2.1199  2.4077  2.2828
  132MOL0     H17790   9.465  -1.075   8.255 -1.2223  0.5984 -2.0836
  132MOL0     H17791   9.569  -0.956   8.340  0.1534  1.6036  0.1181
  132MOL0     H17792   9.745  -0.971   8.163 -0.6469  1.2193  0.2849
  132MOL0     H17793   9.659  -1.096   8.085  2.3953 -0.4134 -0.0294
  132MOL0     H17794   9.757  -1.124   8.379 -1.7488 -0.8067  0.3095
  132MOL0     H17795   9.655  -1.236   8.278  1.2186 -1.4176 -6.2602
  132MOL0     H17796   9.933  -1.131   8.220  0.9164 -1.1107  3.1604
  132MOL0     H17797   9.846  -1.236   8.109 -0.0391 -2.7265  0.0512
  132MOL0     H17798  10.029  -1.345   8.231 -1.1539 -1.6547 -3.3148
  132MOL0     H17799   9.943  -1.319   8.387  1.8669 -3.2717  0.0111
  132MOL0     H17800   9.417  -0.423   8.282  1.2784  2.0961  0.4925
  132MOL0     H17801   9.428  -0.237   8.436 -0.7349 -0.4594 -0.9365
  132MOL0     H17802   9.061   0.162   8.533  2.4892 -0.0560 -0.8898
  132MOL0     H17803   8.981   0.322   8.687 -1.3805 -0.7868 -1.8940
  132MOL0     H17804   9.124   1.043  10.596 -0.2808 -3.6560 -3.1940
  132MOL0     H17805   9.029   1.248  10.701  0.2224 -0.1377  2.2908
  132MOL0     H17806   8.882   1.532  10.825  0.6799  1.0953  1.3028
  132MOL0     H17807   8.810   1.746  10.835  1.5379 -1.8425  0.2224
  132MOL0     H17808   8.716   1.971  10.887 -4.4036  3.6763 -1.6348
  132MOL0     H17809   8.763   1.911  11.044 -1.3907 -0.2652 -1.2811
  132MOL0     H17810   8.697   2.149  11.052  1.1034 -0.7467  2.4006
  132MOL0     H17811   8.603   2.037  11.144  0.9438  1.8357  0.0718
  132MOL0     H17812   8.415   2.041  10.977 -1.4327  1.3828 -1.3955
  132MOL0     H17813   8.521   2.108  10.861  0.6270 -0.7237  0.9599
  132MOL0     H17814   8.427   2.255  11.123  0.8460  0.4369  0.2702
  132MOL0     H17815   8.511   2.331  10.984  2.1685 -2.2144 -0.4247
  132MOL0     H17816   8.103   2.334  10.896  0.9140  2.7005  2.5321
  132MOL0     H17817   8.436   1.618  11.030  0.2119 -0.3836 -0.1290
  132MOL0     H17818   8.365   1.381  10.941 -1.2323  0.1980  2.3715
  132MOL0     H17819   8.513   1.271  10.967  0.9854  0.4655  0.0975
  132MOL0     H17820   8.446   1.386  11.089 -0.7357 -0.8316  0.2541
  133MOL0     O17821   7.709   3.253   6.376 -0.0127 -0.4780  0.3521
  133MOL0     C17822   7.689   3.178   6.467  0.2134  0.2577 -0.7132
  133MOL0     O17823   7.564   3.154   6.519 -0.5102 -0.0978  0.4081
  133MOL0     C17824   7.459   3.239   6.489  0.2779  0.5199  1.3278
  133MOL0     C17825   7.394   3.232   6.368  0.8273 -0.1546 -0.0633
  133MOL0     C17826   7.287   3.320   6.336 -0.2807  0.6492  0.5131
  133MOL0     C17827   7.241   3.412   6.435  0.6767  0.9204 -0.0025
  133MOL0     O17828   7.127   3.489   6.426 -0.3852  0.0425  0.3916
  133MOL0     C17829   7.057   3.497   6.300 -0.1173  0.0423 -0.0589
  133MOL0     C17830   7.121   3.583   6.195  0.1895 -0.4272  0.2796
  133MOL0     C17831   7.175   3.724   6.232 -0.3279 -0.9127 -0.2993
  133MOL0     C17832   7.069   3.819   6.285  1.1186 -0.1248  0.5422
  133MOL0     C17833   7.136   3.942   6.354 -0.5447  0.0538 -0.3319
  133MOL0     C17834   7.046   4.074   6.356 -0.0658  1.1303  0.7902
  133MOL0     C17835   7.137   4.201   6.380 -0.2747  0.4139  0.6175
  133MOL0     C17836   7.061   4.328   6.368 -0.4841  0.1025 -0.0641
  133MOL0     N17837   6.986   4.361   6.487  0.5666 -0.5115 -0.4501
  133MOL0     C17838   7.020   4.469   6.563  0.5473 -0.5447 -0.6524
  133MOL0     C17839   6.930   4.472   6.663  0.8460 -0.6870  0.4823
  133MOL0     C17840   6.934   4.552   6.794 -0.4062  0.1670  0.2176
  133MOL0     C17841   7.001   4.463   6.897 -0.0475  0.3593 -0.2437
  133MOL0     C17842   7.062   4.540   7.017 -0.0386  0.1078  0.2798
  133MOL0     C17843   6.957   4.594   7.123 -0.4844  0.1464  0.7816
  133MOL0     O17844   6.907   4.723   7.083  0.0674  0.1606 -0.9202
  133MOL0     C17845   6.926   4.817   7.183 -0.2064 -0.8042  0.4814
  133MOL0     C17846   6.821   4.895   7.221 -0.1635  0.3503 -0.2277
  133MOL0     C17847   6.845   4.985   7.321 -0.0665 -0.4027  0.4281
  133MOL0     C17848   6.965   5.011   7.387  0.2161  0.5153  0.1516
  133MOL0     C17849   6.968   5.112   7.497 -0.5777  0.3494  0.2696
  133MOL0     O17850   7.075   5.118   7.583 -0.5045 -0.2681  0.0917
  133MOL0     C17851   7.091   5.230   7.664 -1.3829  0.0777  0.5379
  133MOL0     C17852   7.047   5.358   7.625 -1.2974  0.1360 -0.6964
  133MOL0     C17853   7.056   5.463   7.725  1.2873  0.6723 -0.3235
  133MOL0     C17854   7.110   5.451   7.853 -0.0263 -0.0698 -0.6938
  133MOL0     O17855   7.123   5.555   7.946  0.6524  0.6355  0.0289
  133MOL0     C17856   7.008   5.646   7.945  1.1574 -0.4665  0.0432
  133MOL0     C17857   7.019   5.744   8.069  0.6704  0.1131 -0.9687
  133MOL0     C17858   7.157   5.817   8.051 -0.7029 -0.2379  0.7922
  133MOL0     C17859   7.167   5.933   8.146  0.1358  0.3522 -0.3959
  133MOL0     C17860   7.259   6.038   8.094 -0.1216 -0.8501  0.4246
  133MOL0     C17861   7.290   6.151   8.191 -0.5709 -1.2781  0.2817
  133MOL0     C17862   7.176   6.252   8.225  1.2199 -0.1523  0.7412
  133MOL0     C17863   7.237   6.364   8.294  0.9553 -0.8027 -0.5194
  133MOL0    Cl17864   7.102   6.461   8.364 -0.2489 -0.0933  0.2582
  133MOL0     C17865   7.188   5.334   7.877  0.2178 -0.8040 -0.8284
  133MOL0     C17866   7.176   5.229   7.782  0.4072  0.7626  0.5862
  133MOL0     O17867   6.867   5.175   7.510 -0.2393 -0.7806 -0.5125
  133MOL0     C17868   7.074   4.924   7.347  0.2496 -1.5204  0.1802
  133MOL0     C17869   7.051   4.835   7.243  0.6474  1.4634 -0.2049
  133MOL0     N17870   6.836   4.368   6.637 -0.1389  0.6443  0.4229
  133MOL0     N17871   6.880   4.293   6.545 -0.9560 -0.9917 -0.5546
  133MOL0     C17872   7.311   3.424   6.558  0.0948 -0.1060  0.2592
  133MOL0     C17873   7.413   3.331   6.581 -0.2005  0.4686 -1.3186
  133MOL0     C17874   7.806   3.111   6.533 -0.6723  0.5860 -0.9049
  133MOL0     C17875   7.785   3.002   6.627  0.2372 -0.7469  1.1177
  133MOL0     C17876   7.894   2.924   6.679 -0.0150 -0.1238 -0.0662
  133MOL0     C17877   8.025   2.969   6.656  0.2413 -0.3682 -0.1230
  133MOL0     O17878   8.137   2.916   6.723 -0.0606  0.0956 -0.4710
  133MOL0     C17879   8.118   2.814   6.826  0.8305 -0.2177 -0.5467
  133MOL0     C17880   8.077   2.871   6.962 -0.3443  0.5099 -0.9535
  133MOL0     C17881   8.203   2.913   7.043 -0.3094  0.1145 -0.1313
  133MOL0     C17882   8.256   3.040   6.984 -0.3280 -0.2273  0.4032
  133MOL0     C17883   8.355   3.087   7.076 -0.6354 -0.1223 -0.0959
  133MOL0     C17884   8.444   3.125   7.142 -0.1038  0.1011  0.0115
  133MOL0     C17885   8.052   3.080   6.578  0.7867 -0.2003  0.2741
  133MOL0     C17886   7.945   3.145   6.510  0.3201 -0.5075  0.6283
  133MOL0     C17887   7.995   3.254   6.418 -0.3168  0.1756  0.3064
  133MOL0     H17888   7.426   3.159   6.294  0.1367 -1.3394  0.7733
  133MOL0     H17889   7.251   3.318   6.234 -0.1843 -1.6874  0.4633
  133MOL0     H17890   7.053   3.395   6.262  2.4015 -0.3474  0.5756
  133MOL0     H17891   6.962   3.535   6.339 -0.5413 -2.3806  1.4778
  133MOL0     H17892   7.059   3.595   6.107  0.0497 -0.0955  0.4200
  133MOL0     H17893   7.205   3.520   6.163 -1.1445 -2.1489  0.0614
  133MOL0     H17894   7.230   3.766   6.147 -1.4603 -1.3419 -1.2813
  133MOL0     H17895   7.244   3.719   6.317 -0.3057  4.4346  0.3922
  133MOL0     H17896   7.021   3.851   6.191 -1.6350  1.6611  2.3972
  133MOL0     H17897   7.004   3.758   6.348  1.2061 -1.2073 -0.3916
  133MOL0     H17898   7.165   3.918   6.456 -1.2552  0.9806  0.1092
  133MOL0     H17899   7.223   3.956   6.289 -0.1182 -2.6461 -0.4292
  133MOL0     H17900   6.995   4.079   6.260 -0.5347 -0.9030  0.8820
  133MOL0     H17901   6.968   4.067   6.432  0.2415 -3.1857  0.9862
  133MOL0     H17902   7.226   4.198   6.316 -0.9672 -2.3531 -0.3686
  133MOL0     H17903   7.190   4.196   6.476  0.3311 -0.6066  0.2445
  133MOL0     H17904   7.137   4.403   6.343  1.6215 -2.1370 -0.7737
  133MOL0     H17905   6.989   4.315   6.287 -1.6797 -1.3725  1.1778
  133MOL0     H17906   7.112   4.527   6.558  1.6380 -1.7043  2.9711
  133MOL0     H17907   6.977   4.652   6.792  0.0130  0.0082  1.1957
  133MOL0     H17908   6.828   4.569   6.818 -0.4950 -0.4765  0.2964
  133MOL0     H17909   6.929   4.394   6.942 -0.4470  1.7503  1.3469
  133MOL0     H17910   7.080   4.398   6.858  1.7633  1.3075  1.6057
  133MOL0     H17911   7.126   4.622   6.984  2.1706 -1.4234  0.5317
  133MOL0     H17912   7.135   4.472   7.061 -0.0166 -0.7135 -0.9762
  133MOL0     H17913   7.017   4.598   7.215  1.7132 -1.6165 -0.4653
  133MOL0     H17914   6.871   4.529   7.137 -0.7583  0.4936  0.7263
  133MOL0     H17915   6.725   4.898   7.170 -1.1658  2.2841  1.6204
  133MOL0     H17916   6.759   5.049   7.340  1.5048  2.8516 -2.2102
  133MOL0     H17917   7.000   5.389   7.533 -1.3985  0.4907 -0.5270
  133MOL0     H17918   7.019   5.563   7.704  2.5898  1.8003  2.3729
  133MOL0     H17919   7.004   5.705   7.852 -0.9197 -2.5345 -1.2840
  133MOL0     H17920   6.914   5.591   7.947  1.0222 -0.2118  1.3390
  133MOL0     H17921   6.933   5.811   8.083  1.0770  0.6903 -1.1960
  133MOL0     H17922   7.035   5.689   8.162  0.0316  0.3083 -0.7373
  133MOL0     H17923   7.246   5.753   8.053  0.1797  0.9117  0.0585
  133MOL0     H17924   7.159   5.860   7.950 -0.9765 -0.3076  0.7576
  133MOL0     H17925   7.201   5.907   8.246 -2.5518  1.0248  0.7840
  133MOL0     H17926   7.072   5.982   8.170  0.0762  0.6249 -1.1458
  133MOL0     H17927   7.206   6.084   8.010  1.7266 -2.2679 -1.6279
  133MOL0     H17928   7.358   6.004   8.062  0.9017  0.8004  1.6739
  133MOL0     H17929   7.323   6.098   8.280  0.2231 -0.9174  0.2127
  133MOL0     H17930   7.372   6.214   8.156 -0.7607  0.3680  2.5846
  133MOL0     H17931   7.109   6.194   8.291  2.5220 -2.3290  0.2591
  133MOL0     H17932   7.128   6.289   8.134 -0.6715  0.1964  1.8042
  133MOL0     H17933   7.303   6.331   8.374 -0.9978  2.1766  2.5970
  133MOL0     H17934   7.304   6.424   8.231 -0.0918  0.4873 -0.4581
  133MOL0     H17935   7.248   5.319   7.966  2.0733  2.9153 -1.2416
  133MOL0     H17936   7.230   5.136   7.798  1.4671  0.4981 -3.3957
  133MOL0     H17937   7.169   4.941   7.398 -0.1068 -1.5098  0.8444
  133MOL0     H17938   7.139   4.789   7.199  0.0825  2.6478 -2.7226
  133MOL0     H17939   7.286   3.486   6.644 -0.8343 -0.7356  0.4631
  133MOL0     H17940   7.475   3.353   6.667  1.6675  1.3580 -2.8174
  133MOL0     H17941   7.681   2.976   6.645  0.3223 -2.0858 -0.1995
  133MOL0     H17942   7.858   2.851   6.750 -0.6371 -1.9559 -2.1539
  133MOL0     H17943   8.218   2.770   6.829  0.3060 -1.3918  0.0640
  133MOL0     H17944   8.055   2.731   6.794 -2.9717  1.7729  1.1287
  133MOL0     H17945   8.038   2.788   7.022 -1.8647 -0.0504 -2.6396
  133MOL0     H17946   8.000   2.946   6.944 -1.2942 -0.4862 -1.1831
  133MOL0     H17947   8.271   2.828   7.053 -2.5410 -1.9351 -1.4260
  133MOL0     H17948   8.159   2.917   7.143  0.2593 -2.6314  0.2859
  133MOL0     H17949   8.305   3.030   6.886 -2.1309 -0.1250 -0.5385
  133MOL0     H17950   8.171   3.108   6.973 -1.7728 -2.0161  0.1869
  133MOL0     H17951   8.528   3.155   7.202  0.3734  0.2199 -0.6921
  133MOL0     H17952   8.153   3.117   6.564 -0.1601  1.6742 -2.3703
  133MOL0     H17953   8.096   3.282   6.449 -0.3571 -0.3915  0.9704
  133MOL0     H17954   8.015   3.202   6.324 -0.3007 -0.6319  0.7520
  133MOL0     H17955   7.934   3.343   6.399  1.0609  0.3594 -4.9298
  134MOL0     O17956   3.747   1.450  10.079  0.0783 -0.6169 -0.8013
  134MOL0     C17957   3.813   1.371  10.017 -0.4126 -0.1989  0.1500
  134MOL0     O17958   3.929   1.316  10.070 -0.2810 -0.0932 -0.0262
  134MOL0     C17959   3.976   1.348  10.196  0.5979  0.6405 -0.0105
  134MOL0     C17960   3.896   1.335  10.308  1.5661 -0.4832 -0.7571
  134MOL0     C17961   3.946   1.347  10.436  1.6834 -0.1103 -0.0271
  134MOL0     C17962   4.075   1.379  10.466  0.2979 -0.7598  0.5802
  134MOL0     O17963   4.147   1.384  10.587  0.2865 -0.9147  0.0787
  134MOL0     C17964   4.272   1.311  10.587 -0.3056  0.6254 -0.1491
  134MOL0     C17965   4.312   1.287  10.732  0.3509  0.4139 -0.3866
  134MOL0     C17966   4.329   1.417  10.817  0.1912 -0.2157  0.5006
  134MOL0     C17967   4.388   1.400  10.958 -1.1046 -0.1760  0.4136
  134MOL0     C17968   4.395   1.536  11.023  0.2696 -0.1106 -0.1758
  134MOL0     C17969   4.259   1.619  11.031  0.4476  0.8855  0.6991
  134MOL0     C17970   4.253   1.702  11.162 -0.0460  0.2859 -0.7003
  134MOL0     C17971   4.317   1.844  11.152 -0.6700  0.2571 -0.2605
  134MOL0     N17972   4.465   1.838  11.170  0.5224  0.1797  1.0901
  134MOL0     C17973   4.555   1.836  11.071  0.1366  0.2462  0.3880
  134MOL0     C17974   4.675   1.813  11.129  0.6121 -0.4291  0.6101
  134MOL0     C17975   4.808   1.796  11.063 -0.2761  0.5456 -0.2262
  134MOL0     C17976   4.898   1.684  11.111 -0.2690  0.0520  0.8219
  134MOL0     C17977   5.034   1.649  11.023 -0.3625 -0.7718  0.8061
  134MOL0     C17978   5.000   1.549  10.903 -0.1063  0.1786  0.0639
  134MOL0     O17979   5.112   1.496  10.833  0.1707 -0.3753  0.6249
  134MOL0     C17980   5.109   1.414  10.721 -0.3662 -0.1349 -0.6138
  134MOL0     C17981   4.989   1.372  10.658  0.4329 -0.4240 -0.2630
  134MOL0     C17982   4.980   1.305  10.540  0.0677 -0.0434  1.0119
  134MOL0     C17983   5.096   1.266  10.478 -0.5686  0.1259 -0.6615
  134MOL0     C17984   5.087   1.196  10.351 -1.0415 -0.0584  0.2161
  134MOL0     O17985   4.978   1.233  10.262 -0.0392 -0.2062  0.1261
  134MOL0     C17986   4.955   1.166  10.147 -0.2353 -0.3144  1.1448
  134MOL0     C17987   4.973   1.226  10.026 -0.0792 -0.5918  0.8927
  134MOL0     C17988   4.945   1.160   9.907 -0.1364  0.6041 -0.0529
  134MOL0     C17989   4.901   1.029   9.908 -1.2953  0.4372  0.5435
  134MOL0     O17990   4.862   0.959   9.795 -0.1313 -0.1344 -0.1248
  134MOL0     C17991   4.749   1.016   9.730 -0.0928 -1.8423  0.2150
  134MOL0     C17992   4.738   0.980   9.581 -0.2724 -0.3038  0.2391
  134MOL0     C17993   4.751   0.832   9.560 -0.4326  0.9018 -0.7713
  134MOL0     C17994   4.714   0.790   9.421  0.3819 -0.8378 -0.6575
  134MOL0     C17995   4.746   0.648   9.393 -0.1799 -0.1649 -0.4269
  134MOL0     C17996   4.673   0.586   9.268  0.1981  0.8016  0.8545
  134MOL0     C17997   4.728   0.655   9.137  0.9103 -0.7832  1.3053
  134MOL0     C17998   4.659   0.630   8.999  0.4497 -0.2875  0.2760
  134MOL0    Cl17999   4.665   0.448   8.976  0.5597  0.4161  0.1552
  134MOL0     C18000   4.902   0.964  10.033  0.1862 -0.1966  1.5911
  134MOL0     C18001   4.919   1.030  10.155 -0.7365 -0.8992  0.7095
  134MOL0     O18002   5.182   1.131  10.310  0.2459 -0.2028  0.2708
  134MOL0     C18003   5.220   1.283  10.541 -0.1087  0.6042 -0.0084
  134MOL0     C18004   5.223   1.362  10.659  0.0135 -0.7132  0.3158
  134MOL0     N18005   4.663   1.820  11.257 -0.2453  0.2574 -0.1765
  134MOL0     N18006   4.532   1.825  11.285  0.3287  0.5839  0.1837
  134MOL0     C18007   4.157   1.410  10.353 -0.9702  0.2035 -0.0651
  134MOL0     C18008   4.109   1.388  10.219  0.2555  0.0565 -0.1948
  134MOL0     C18009   3.770   1.325   9.882  0.0824 -0.0432 -0.5430
  134MOL0     C18010   3.644   1.375   9.838  0.4228 -0.0634 -0.3438
  134MOL0     C18011   3.600   1.362   9.708  0.0461  0.9056 -0.1686
  134MOL0     C18012   3.676   1.289   9.623 -0.7732  0.4735  0.6559
  134MOL0     O18013   3.642   1.237   9.494 -0.1623 -0.1439 -0.2861
  134MOL0     C18014   3.524   1.290   9.425 -0.5044 -0.3745 -0.2042
  134MOL0     C18015   3.541   1.298   9.279  0.8839 -0.1984  0.9030
  134MOL0     C18016   3.526   1.160   9.217 -0.5931  0.3798 -0.2794
  134MOL0     C18017   3.426   1.181   9.102 -0.1084  0.3022  0.8394
  134MOL0     C18018   3.441   1.068   9.002  1.3972 -0.3681 -0.7588
  134MOL0     C18019   3.451   0.982   8.922 -0.2537 -0.4593 -0.4201
  134MOL0     C18020   3.808   1.246   9.658  0.8208 -0.1255 -0.4815
  134MOL0     C18021   3.854   1.257   9.786 -0.3870 -0.2186 -0.1418
  134MOL0     C18022   4.001   1.233   9.802 -0.2428  0.8157  0.0334
  134MOL0     H18023   3.797   1.293  10.295  0.7230  1.8873 -2.8552
  134MOL0     H18024   3.884   1.312  10.518  1.3945 -1.8200 -0.9211
  134MOL0     H18025   4.264   1.214  10.537  5.0861 -1.3620  2.1152
  134MOL0     H18026   4.358   1.362  10.543  0.1359 -0.0219 -0.0530
  134MOL0     H18027   4.407   1.234  10.724  0.3406  0.5417 -1.4734
  134MOL0     H18028   4.242   1.216  10.778  2.4915 -0.6654  1.4232
  134MOL0     H18029   4.230   1.461  10.833  0.3749 -0.0166  1.1683
  134MOL0     H18030   4.397   1.486  10.765 -2.2178  2.1416  0.2742
  134MOL0     H18031   4.334   1.325  11.016 -2.0999 -0.6833 -1.0973
  134MOL0     H18032   4.488   1.357  10.961 -1.1716 -0.4110 -0.3668
  134MOL0     H18033   4.442   1.511  11.119  1.3450 -0.9008 -0.8936
  134MOL0     H18034   4.476   1.598  10.983 -0.4848  2.2305  1.6211
  134MOL0     H18035   4.247   1.694  10.952  2.4877 -0.0310 -0.5774
  134MOL0     H18036   4.171   1.555  11.039  1.7330 -1.1417 -0.4453
  134MOL0     H18037   4.291   1.644  11.246 -2.4621  0.8640  0.8917
  134MOL0     H18038   4.148   1.707  11.193 -0.3008  1.1364 -1.6518
  134MOL0     H18039   4.298   1.912  11.068  4.3994  5.2321  1.9503
  134MOL0     H18040   4.267   1.903  11.230 -0.7675 -0.1577 -0.0061
  134MOL0     H18041   4.539   1.854  10.965  3.7984 -1.3060 -0.5717
  134MOL0     H18042   4.789   1.781  10.956  1.5864 -1.4014 -0.3543
  134MOL0     H18043   4.868   1.887  11.066  0.7079 -0.0986  2.7940
  134MOL0     H18044   4.926   1.704  11.215  0.1423  0.0923  0.7029
  134MOL0     H18045   4.832   1.597  11.105 -0.6761  0.3816  0.4221
  134MOL0     H18046   5.107   1.610  11.095  2.8558 -0.5117 -2.0408
  134MOL0     H18047   5.063   1.744  10.978 -0.3813 -0.7622  0.8151
  134MOL0     H18048   4.942   1.618  10.841  0.2427  0.2169 -0.2184
  134MOL0     H18049   4.933   1.470  10.939 -0.0911  0.6915  1.2752
  134MOL0     H18050   4.906   1.390  10.726  0.2754 -1.2430 -0.2247
  134MOL0     H18051   4.882   1.274  10.503 -0.3253  1.9514  0.2671
  134MOL0     H18052   5.006   1.330  10.032 -0.0087 -0.3503 -2.0988
  134MOL0     H18053   4.951   1.213   9.812 -0.3751  1.4885  0.4176
  134MOL0     H18054   4.660   0.986   9.788 -0.7868  2.2453  1.5686
  134MOL0     H18055   4.743   1.125   9.738  0.3815 -1.8065  0.0861
  134MOL0     H18056   4.642   1.011   9.538 -1.2095 -2.6015  0.5035
  134MOL0     H18057   4.812   1.031   9.519 -2.0413  2.3500  0.1566
  134MOL0     H18058   4.857   0.807   9.576 -0.2941 -0.0805 -2.8709
  134MOL0     H18059   4.698   0.775   9.636  1.4490 -0.5982 -0.5012
  134MOL0     H18060   4.773   0.853   9.354 -3.0648  3.1178 -0.3915
  134MOL0     H18061   4.607   0.813   9.409  0.6483  0.7738 -0.1733
  134MOL0     H18062   4.717   0.583   9.476 -0.8802  0.3937 -0.2203
  134MOL0     H18063   4.853   0.646   9.373  0.0353  1.7963  0.3039
  134MOL0     H18064   4.685   0.477   9.268 -0.6838  0.6860 -0.2162
  134MOL0     H18065   4.564   0.590   9.274 -0.0616 -0.8288 -1.4797
  134MOL0     H18066   4.837   0.643   9.128  1.0746  1.3225 -0.5771
  134MOL0     H18067   4.713   0.763   9.148 -0.0870 -0.3771 -2.5247
  134MOL0     H18068   4.560   0.677   8.994  0.8023  0.4632 -4.1634
  134MOL0     H18069   4.713   0.677   8.916 -0.1163 -2.1342 -1.1982
  134MOL0     H18070   4.859   0.864  10.030  0.3209 -0.2284  0.1256
  134MOL0     H18071   4.903   0.988  10.253  0.6063  1.0031  1.8046
  134MOL0     H18072   5.310   1.227  10.519  0.4559  1.1444  0.8450
  134MOL0     H18073   5.321   1.387  10.698  0.8069 -2.8742 -0.1418
  134MOL0     H18074   4.257   1.447  10.374  0.3901 -3.6711  1.1547
  134MOL0     H18075   4.175   1.408  10.136  1.3799  1.0288  0.8875
  134MOL0     H18076   3.581   1.432   9.904 -1.1586 -1.7104 -0.3555
  134MOL0     H18077   3.504   1.406   9.687 -1.2497 -1.7227 -0.2189
  134MOL0     H18078   3.515   1.395   9.455 -0.3808 -0.1418 -0.9636
  134MOL0     H18079   3.445   1.224   9.462 -0.2844 -1.7587 -2.0545
  134MOL0     H18080   3.639   1.342   9.258  0.0311  1.7814  0.7859
  134MOL0     H18081   3.466   1.366   9.239  2.6539  0.4074 -1.6058
  134MOL0     H18082   3.504   1.092   9.300  0.4149  3.2726  2.5299
  134MOL0     H18083   3.626   1.136   9.180 -1.3155  0.5958 -2.5311
  134MOL0     H18084   3.320   1.190   9.129 -0.2356  1.5895  0.0093
  134MOL0     H18085   3.449   1.272   9.047 -2.4476 -0.2355 -1.2365
  134MOL0     H18086   3.468   0.902   8.854 -0.0648  0.1226 -1.0687
  134MOL0     H18087   3.848   1.172   9.589  0.0087 -0.9414 -0.0974
  134MOL0     H18088   4.060   1.313   9.846  1.3555 -0.0354 -0.5008
  134MOL0     H18089   4.001   1.144   9.866 -4.3893  0.8528  0.4113
  134MOL0     H18090   4.044   1.203   9.706  1.9438  0.5122  1.0684
  135MOL0     O18091   3.665   3.958  10.091 -0.1352  0.0778 -0.7071
  135MOL0     C18092   3.598   3.867  10.141 -0.2435  0.0277  0.4194
  135MOL0     O18093   3.631   3.738  10.138  0.3263 -0.1550 -0.6323
  135MOL0     C18094   3.644   3.681  10.010 -0.0992 -0.2618 -0.2526
  135MOL0     C18095   3.553   3.717   9.904  0.0565 -0.4702 -0.4858
  135MOL0     C18096   3.552   3.641   9.784  0.0128  0.3828  0.1977
  135MOL0     C18097   3.652   3.545   9.751 -0.3951 -0.0231 -0.2572
  135MOL0     O18098   3.664   3.504   9.619  0.8240 -0.1871 -0.2218
  135MOL0     C18099   3.770   3.417   9.583 -0.5646 -0.4909 -0.6574
  135MOL0     C18100   3.785   3.393   9.432 -0.5618  0.6319 -0.2308
  135MOL0     C18101   3.654   3.341   9.368 -0.1882 -0.2511 -0.0013
  135MOL0     C18102   3.578   3.462   9.305  0.5080 -0.3881  0.0474
  135MOL0     C18103   3.446   3.423   9.252 -0.2686  0.5233  0.7555
  135MOL0     C18104   3.455   3.319   9.133 -0.2641  0.8324  0.1118
  135MOL0     C18105   3.319   3.323   9.064 -0.0311 -0.5889 -0.2061
  135MOL0     C18106   3.201   3.242   9.134 -0.8694 -0.2028 -0.4312
  135MOL0     N18107   3.184   3.100   9.076 -0.9101 -0.9670  0.4725
  135MOL0     C18108   3.108   3.070   8.974 -0.0168  1.2138  0.8055
  135MOL0     C18109   3.159   2.946   8.939  0.1243 -0.1398 -0.0021
  135MOL0     C18110   3.116   2.851   8.829 -0.5254 -0.8657  0.3440
  135MOL0     C18111   3.175   2.913   8.703  0.7697  0.2366 -0.5066
  135MOL0     C18112   3.147   2.817   8.577  0.2145  0.1539  0.0598
  135MOL0     C18113   3.007   2.774   8.544  0.0525 -0.0339  0.2028
  135MOL0     O18114   3.008   2.724   8.408  0.1116  0.3769 -0.2237
  135MOL0     C18115   2.886   2.718   8.350 -0.1235  0.0646  0.5651
  135MOL0     C18116   2.887   2.713   8.207 -0.3950  0.9572 -0.2221
  135MOL0     C18117   2.769   2.719   8.140 -0.3439 -0.2901 -0.2394
  135MOL0     C18118   2.638   2.733   8.201  0.0119  0.2362  0.2974
  135MOL0     C18119   2.523   2.727   8.111 -0.2238  0.5243  1.3272
  135MOL0     O18120   2.395   2.733   8.177  0.1783 -0.5234 -0.5644
  135MOL0     C18121   2.287   2.733   8.091 -0.6219  1.3459  0.7335
  135MOL0     C18122   2.233   2.855   8.054  0.1720 -0.3052 -0.8426
  135MOL0     C18123   2.117   2.861   7.973 -0.5023  0.6280  0.4373
  135MOL0     C18124   2.055   2.740   7.922 -0.0638 -0.6733 -0.3524
  135MOL0     O18125   1.952   2.740   7.836  0.7154  0.3275 -0.2938
  135MOL0     C18126   1.886   2.861   7.825  0.6594 -0.2882  0.5114
  135MOL0     C18127   1.744   2.827   7.767 -0.3029  0.2814 -0.1004
  135MOL0     C18128   1.645   2.939   7.736  0.5106 -0.2793  0.0946
  135MOL0     C18129   1.543   2.961   7.847 -0.5742 -0.0944  0.3858
  135MOL0     C18130   1.480   3.102   7.842  1.2268 -0.4883  1.1438
  135MOL0     C18131   1.384   3.121   7.732 -0.5655 -0.5422  1.1586
  135MOL0     C18132   1.341   3.270   7.720 -0.6416  0.5894 -1.2222
  135MOL0     C18133   1.267   3.306   7.596  0.8957 -0.4301  0.1644
  135MOL0    Cl18134   1.151   3.172   7.571  0.2158  0.2367  0.4153
  135MOL0     C18135   2.125   2.619   7.941 -0.3949  0.0330  0.1495
  135MOL0     C18136   2.228   2.608   8.034  0.5897 -0.0495  0.0331
  135MOL0     O18137   2.536   2.690   7.993 -0.5356  0.4539 -0.1863
  135MOL0     C18138   2.642   2.745   8.339 -0.2741  0.6752  0.2005
  135MOL0     C18139   2.758   2.743   8.410 -0.3099  0.0314  0.0872
  135MOL0     N18140   3.267   2.912   9.021  0.7464  0.7690 -0.2849
  135MOL0     N18141   3.280   3.006   9.106  0.6719 -0.8359  0.0992
  135MOL0     C18142   3.732   3.501   9.859  0.1727 -0.9010  0.1163
  135MOL0     C18143   3.727   3.567   9.981 -0.4070 -0.4930 -0.0589
  135MOL0     C18144   3.509   3.900  10.254 -0.0932  0.3280  1.2745
  135MOL0     C18145   3.543   4.001  10.338  0.4324 -0.2676 -0.0997
  135MOL0     C18146   3.470   4.021  10.461 -1.2562 -0.0373  0.0901
  135MOL0     C18147   3.366   3.938  10.490 -0.9340 -0.0396 -1.0296
  135MOL0     O18148   3.325   3.968  10.616 -0.7806  0.3994 -0.6196
  135MOL0     C18149   3.189   3.929  10.645  0.3872  0.0915  0.0201
  135MOL0     C18150   3.149   3.969  10.784  0.8985  0.4453 -0.1041
  135MOL0     C18151   3.132   4.112  10.826 -0.2531  1.2819 -0.6396
  135MOL0     C18152   3.266   4.183  10.783  0.1500  0.1297  0.2275
  135MOL0     C18153   3.275   4.317  10.844 -0.0524  0.3125  0.1923
  135MOL0     C18154   3.295   4.425  10.895 -1.1557  0.5946 -0.3614
  135MOL0     C18155   3.323   3.844  10.400  0.3575  0.1175 -0.3337
  135MOL0     C18156   3.393   3.815  10.281  0.5635  0.4179  0.3207
  135MOL0     C18157   3.333   3.703  10.188 -0.0560  0.4228 -0.0934
  135MOL0     H18158   3.470   3.786   9.903 -2.8021 -3.6251  0.1429
  135MOL0     H18159   3.497   3.665   9.694  0.1375 -2.5592 -0.7865
  135MOL0     H18160   3.859   3.472   9.614 -1.5134  0.1962  0.9373
  135MOL0     H18161   3.757   3.328   9.645 -0.6496  0.6116  0.9436
  135MOL0     H18162   3.859   3.315   9.413 -1.6532 -1.1505  2.1989
  135MOL0     H18163   3.826   3.485   9.389  2.6426  0.0356  1.2869
  135MOL0     H18164   3.595   3.281   9.438  1.5549 -0.2174  1.5568
  135MOL0     H18165   3.679   3.273   9.286  1.1536 -1.2201  1.1655
  135MOL0     H18166   3.554   3.544   9.372  0.0856 -1.9116  1.8474
  135MOL0     H18167   3.638   3.498   9.221  0.8362  0.6894  0.7359
  135MOL0     H18168   3.390   3.375   9.333  1.7577 -0.1367  1.8532
  135MOL0     H18169   3.395   3.514   9.219  1.7961  2.2027  1.9261
  135MOL0     H18170   3.529   3.346   9.057  0.6631  0.1546  0.7593
  135MOL0     H18171   3.474   3.220   9.174 -1.8607  1.8934  3.7980
  135MOL0     H18172   3.342   3.271   8.970  0.2649 -1.2515  0.2205
  135MOL0     H18173   3.281   3.422   9.036 -0.7662 -1.8357 -4.3810
  135MOL0     H18174   3.227   3.228   9.239  2.2848  2.2952 -0.6985
  135MOL0     H18175   3.107   3.296   9.123 -0.6952  0.0957 -0.4668
  135MOL0     H18176   3.032   3.135   8.933  2.1531  2.6552 -1.2144
  135MOL0     H18177   3.149   2.747   8.840 -2.2388 -1.7330 -1.8160
  135MOL0     H18178   3.006   2.853   8.828 -0.6450 -2.2392  2.9844
  135MOL0     H18179   3.116   3.004   8.693  0.1080 -0.3147 -1.9477
  135MOL0     H18180   3.283   2.930   8.708  0.5359  1.4975  0.7535
  135MOL0     H18181   3.218   2.735   8.590 -0.4956 -0.5640 -0.4871
  135MOL0     H18182   3.180   2.871   8.489  0.6215 -0.4112 -0.1392
  135MOL0     H18183   2.936   2.857   8.552  0.1628  0.1347 -0.5161
  135MOL0     H18184   2.969   2.694   8.609 -1.0778  0.2032 -0.1426
  135MOL0     H18185   2.980   2.704   8.152 -0.6861 -2.3021 -0.3808
  135MOL0     H18186   2.782   2.715   8.032 -1.1264  0.1260 -0.3593
  135MOL0     H18187   2.281   2.941   8.101  0.3907 -2.6261  3.7098
  135MOL0     H18188   2.092   2.964   7.946  0.0518  0.3920 -1.0692
  135MOL0     H18189   1.862   2.920   7.914  1.7136  1.0158 -0.0204
  135MOL0     H18190   1.945   2.927   7.760 -1.4997  1.3932  0.1392
  135MOL0     H18191   1.758   2.767   7.677 -3.2537 -2.2398  0.9442
  135MOL0     H18192   1.699   2.760   7.841  1.3244 -0.3028  0.4138
  135MOL0     H18193   1.699   3.028   7.702  0.2189 -0.9316 -2.2476
  135MOL0     H18194   1.580   2.909   7.653 -0.7183 -2.1808  1.6721
  135MOL0     H18195   1.600   2.950   7.940  0.0177 -2.5925 -0.1870
  135MOL0     H18196   1.464   2.885   7.850 -0.4733 -0.4342 -2.6748
  135MOL0     H18197   1.558   3.179   7.839  0.4369  0.3181 -0.5372
  135MOL0     H18198   1.413   3.117   7.927 -1.4984  0.0977 -0.9607
  135MOL0     H18199   1.420   3.097   7.631 -0.6695 -0.0202  0.9906
  135MOL0     H18200   1.300   3.052   7.744  0.1957 -1.7881 -0.2475
  135MOL0     H18201   1.424   3.339   7.739 -2.0776  1.9060  0.7657
  135MOL0     H18202   1.282   3.308   7.805 -0.4276  1.1239 -1.3053
  135MOL0     H18203   1.212   3.400   7.608 -1.8677 -1.6845 -1.7158
  135MOL0     H18204   1.334   3.326   7.513 -1.6228  3.3827 -1.2331
  135MOL0     H18205   2.078   2.535   7.889 -2.1708  0.5354  0.8566
  135MOL0     H18206   2.268   2.510   8.059 -0.8175 -0.5330  0.4697
  135MOL0     H18207   2.550   2.744   8.396  0.2746  1.6815  1.1551
  135MOL0     H18208   2.737   2.760   8.515 -0.1120 -1.2675  0.3487
  135MOL0     H18209   3.813   3.430   9.841 -0.1821 -1.2715 -0.0318
  135MOL0     H18210   3.790   3.524  10.058 -0.6485  1.4939  1.3312
  135MOL0     H18211   3.626   4.067  10.312 -0.6524  0.3679 -2.2046
  135MOL0     H18212   3.505   4.090  10.536  0.5714 -0.9765  0.1464
  135MOL0     H18213   3.181   3.821  10.634  1.5012 -0.0239  0.2683
  135MOL0     H18214   3.114   3.982  10.585 -2.8441  0.0639  3.6306
  135MOL0     H18215   3.215   3.917  10.855 -0.5830  0.1230  1.0864
  135MOL0     H18216   3.051   3.922  10.794  0.8244  1.1093  3.7586
  135MOL0     H18217   3.128   4.116  10.935  0.1455 -0.5215 -0.5262
  135MOL0     H18218   3.041   4.155  10.784 -0.2734  1.8818  0.0013
  135MOL0     H18219   3.349   4.116  10.806 -0.6201 -1.7204 -1.9383
  135MOL0     H18220   3.264   4.207  10.676 -0.2145  1.3487  0.4880
  135MOL0     H18221   3.327   4.520  10.933 -1.9096  0.7040  0.0216
  135MOL0     H18222   3.233   3.790  10.426  0.9500 -0.6452  0.1760
  135MOL0     H18223   3.314   3.743  10.087  0.8437  0.2088 -0.3612
  135MOL0     H18224   3.411   3.630  10.162  1.7415  3.2599 -3.6893
  135MOL0     H18225   3.249   3.647  10.229  1.4749 -2.4682 -0.6532
  136MOL0     O18226   8.038   9.804   4.365  0.4768 -0.5303 -0.7330
  136MOL0     C18227   8.132   9.862   4.417  1.5114 -0.5962 -0.6355
  136MOL0     O18228   8.131   9.971   4.505  0.0331 -0.5933 -0.5150
  136MOL0     C18229   8.020  10.003   4.590  0.0011  0.1348  1.0436
  136MOL0     C18230   7.893   9.939   4.589  0.4552 -0.5037  0.2892
  136MOL0     C18231   7.794  10.008   4.665  0.6868  0.5622  0.6749
  136MOL0     C18232   7.817  10.109   4.759  0.7236  0.8530  0.2487
  136MOL0     O18233   7.720  10.161   4.842  0.5711 -1.1152 -0.0829
  136MOL0     C18234   7.586  10.098   4.850  0.1279 -0.3986  0.2322
  136MOL0     C18235   7.499  10.177   4.944 -0.1905  0.4563 -0.2071
  136MOL0     C18236   7.376  10.088   4.984  0.0443 -0.3038 -0.0820
  136MOL0     C18237   7.390  10.021   5.114 -0.0408 -0.2701 -0.0474
  136MOL0     C18238   7.287   9.910   5.122  1.0265  0.2906 -0.5919
  136MOL0     C18239   7.325   9.808   5.233 -0.2389 -0.5393 -1.3390
  136MOL0     C18240   7.316   9.873   5.368 -1.3350  0.1421  0.5154
  136MOL0     C18241   7.310   9.760   5.476  0.4138 -0.6316  0.3532
  136MOL0     N18242   7.430   9.677   5.467  0.2425  1.2498 -0.5085
  136MOL0     C18243   7.546   9.694   5.531 -0.8121 -0.0700  0.7820
  136MOL0     C18244   7.619   9.587   5.512 -0.6645  1.2808  1.1454
  136MOL0     C18245   7.749   9.548   5.567 -0.3759 -0.6685  0.3203
  136MOL0     C18246   7.754   9.431   5.656  1.1697 -0.7861  0.0485
  136MOL0     C18247   7.639   9.441   5.765  0.3005  0.1757  0.7301
  136MOL0     C18248   7.669   9.339   5.883  0.7007 -0.2142  0.2696
  136MOL0     O18249   7.641   9.208   5.828 -0.3541 -0.3689 -0.0948
  136MOL0     C18250   7.676   9.099   5.905 -0.1098  0.1906  0.8458
  136MOL0     C18251   7.708   8.974   5.847 -0.2325 -0.5663 -0.1986
  136MOL0     C18252   7.727   8.859   5.930 -0.0604 -0.5263  0.0123
  136MOL0     C18253   7.730   8.873   6.068  0.7782  0.1586  0.3918
  136MOL0     C18254   7.769   8.767   6.160 -0.2658  0.5852  0.2303
  136MOL0     O18255   7.688   8.741   6.266 -1.1743 -0.3179  0.0678
  136MOL0     C18256   7.733   8.640   6.352 -0.4696  1.0144 -0.6747
  136MOL0     C18257   7.843   8.649   6.441 -0.0538  0.7895 -0.7771
  136MOL0     C18258   7.869   8.546   6.536  0.1586  0.1115  0.5454
  136MOL0     C18259   7.782   8.434   6.546  0.2970  0.2700 -1.1116
  136MOL0     O18260   7.816   8.343   6.636 -0.3589 -0.1652  0.6850
  136MOL0     C18261   7.706   8.278   6.701 -0.1354 -0.5769  0.4029
  136MOL0     C18262   7.741   8.223   6.845 -0.0969  0.7495 -0.5852
  136MOL0     C18263   7.624   8.139   6.890  0.2129 -0.0957  0.0271
  136MOL0     C18264   7.514   8.222   6.949 -0.5440 -0.1264 -0.6745
  136MOL0     C18265   7.390   8.139   6.976  0.9891 -1.0050  0.3708
  136MOL0     C18266   7.262   8.172   6.892  0.6865 -1.5443 -0.3508
  136MOL0     C18267   7.218   8.320   6.896  0.1834 -1.1638  0.2688
  136MOL0     C18268   7.195   8.372   6.749 -0.2067  0.1702  0.5046
  136MOL0    Cl18269   7.328   8.332   6.631 -0.0406 -0.3068  0.1598
  136MOL0     C18270   7.663   8.431   6.467 -0.0714  0.6280 -1.1796
  136MOL0     C18271   7.653   8.526   6.371  0.4967 -0.2127  0.4940
  136MOL0     O18272   7.872   8.713   6.121  0.0862  0.3548 -0.0999
  136MOL0     C18273   7.686   8.992   6.124 -0.1903 -0.6774  0.0409
  136MOL0     C18274   7.663   9.102   6.049  0.4060  0.7278  0.3037
  136MOL0     N18275   7.542   9.502   5.428 -0.7564 -0.7268 -0.3443
  136MOL0     N18276   7.435   9.553   5.406  0.7046  0.1847  0.5816
  136MOL0     C18277   7.948  10.165   4.760  0.7919 -0.1388  0.4290
  136MOL0     C18278   8.045  10.102   4.681 -0.4667  0.8095 -0.8156
  136MOL0     C18279   8.263   9.839   4.368  0.2932  1.0332 -0.3093
  136MOL0     C18280   8.339   9.947   4.325  0.8703 -0.5600  0.9275
  136MOL0     C18281   8.462   9.943   4.260 -0.1120  0.0438 -0.5828
  136MOL0     C18282   8.520   9.814   4.260  0.1311 -0.4943 -0.0158
  136MOL0     O18283   8.649   9.796   4.213 -0.2976 -0.3218  0.4531
  136MOL0     C18284   8.749   9.781   4.319  0.6578 -0.9488 -0.2060
  136MOL0     C18285   8.797   9.915   4.373 -0.1876  0.3330  0.6993
  136MOL0     C18286   8.861  10.001   4.265  0.0588  0.2472 -0.0905
  136MOL0     C18287   8.821  10.150   4.272 -1.4413 -0.2757 -0.6927
  136MOL0     C18288   8.882  10.218   4.392  0.2802 -0.0673 -0.6466
  136MOL0     C18289   8.927  10.283   4.493 -0.6727  0.5022  0.5173
  136MOL0     C18290   8.447   9.701   4.304 -0.3641  0.4297  0.2416
  136MOL0     C18291   8.315   9.707   4.355 -0.1574 -0.5971  0.0309
  136MOL0     C18292   8.241   9.575   4.379 -0.1896 -0.2844 -0.0778
  136MOL0     H18293   7.866   9.866   4.513  0.1141  1.7335 -1.8456
  136MOL0     H18294   7.691   9.973   4.655  0.8782 -1.1709  3.4314
  136MOL0     H18295   7.536  10.109   4.753 -2.1852  0.0715  1.4315
  136MOL0     H18296   7.607   9.995   4.881  0.9974 -0.6589 -1.1254
  136MOL0     H18297   7.459  10.273   4.909  2.2481  2.3480  1.8052
  136MOL0     H18298   7.551  10.205   5.037  1.3212  0.0063 -0.8907
  136MOL0     H18299   7.347  10.008   4.915 -0.5122 -1.2265  1.1650
  136MOL0     H18300   7.293  10.157   5.003 -0.1885 -0.4072 -0.7207
  136MOL0     H18301   7.491   9.983   5.130 -0.8191 -1.5524  2.4558
  136MOL0     H18302   7.385  10.100   5.189  1.7587  2.3890 -2.5201
  136MOL0     H18303   7.189   9.957   5.138  0.2061 -0.6032 -2.6906
  136MOL0     H18304   7.279   9.858   5.026 -3.8329 -1.2302  0.3199
  136MOL0     H18305   7.258   9.722   5.244  1.5733 -1.8868 -0.3499
  136MOL0     H18306   7.423   9.762   5.217  0.3666  0.1511  0.2294
  136MOL0     H18307   7.228   9.937   5.381 -2.0856 -0.3080 -1.9468
  136MOL0     H18308   7.406   9.933   5.379 -1.0361  0.0760 -1.3494
  136MOL0     H18309   7.307   9.812   5.571 -3.6569  0.3844 -0.1673
  136MOL0     H18310   7.222   9.697   5.466 -0.9371  0.9922  1.5010
  136MOL0     H18311   7.559   9.779   5.597  0.6180  1.5517 -1.4556
  136MOL0     H18312   7.814   9.534   5.480 -2.0853  1.1207 -1.3930
  136MOL0     H18313   7.790   9.638   5.614 -1.7243 -0.7418  1.7218
  136MOL0     H18314   7.730   9.342   5.598 -3.3167 -0.6746  1.3624
  136MOL0     H18315   7.852   9.427   5.703  0.3852  0.4361  1.9218
  136MOL0     H18316   7.538   9.420   5.729  0.7970  1.6399 -1.8260
  136MOL0     H18317   7.649   9.546   5.795  0.6756  0.0345  1.1053
  136MOL0     H18318   7.600   9.358   5.966 -0.2029  1.5448 -0.8279
  136MOL0     H18319   7.775   9.348   5.910  1.5003 -0.3591 -2.4999
  136MOL0     H18320   7.721   8.974   5.739  1.0746 -1.4815 -0.0783
  136MOL0     H18321   7.775   8.770   5.891  0.1061 -1.9646  3.1879
  136MOL0     H18322   7.906   8.736   6.431 -0.8035  1.4611  0.1465
  136MOL0     H18323   7.954   8.560   6.601  1.2435 -3.1936  0.0564
  136MOL0     H18324   7.626   8.352   6.710  0.6860  0.7954 -2.4915
  136MOL0     H18325   7.679   8.194   6.636 -1.9935 -0.0362  0.4257
  136MOL0     H18326   7.833   8.167   6.824  1.0497  2.4535 -0.3941
  136MOL0     H18327   7.774   8.302   6.914  1.5089  0.4445 -0.9613
  136MOL0     H18328   7.588   8.074   6.809 -0.6299  2.3501 -1.6907
  136MOL0     H18329   7.649   8.068   6.969 -3.3625  1.2109  2.5954
  136MOL0     H18330   7.484   8.294   6.873 -0.3180 -1.3636 -1.9959
  136MOL0     H18331   7.554   8.266   7.041 -1.7315  3.0370 -1.5588
  136MOL0     H18332   7.363   8.162   7.080  1.9337  0.0513  0.4069
  136MOL0     H18333   7.414   8.032   6.977  1.7397 -0.8510  1.6814
  136MOL0     H18334   7.248   8.140   6.788 -2.9202  3.0060 -1.5940
  136MOL0     H18335   7.183   8.121   6.948  0.7161  0.7784  2.0453
  136MOL0     H18336   7.294   8.389   6.935  0.7901 -1.5991 -0.1149
  136MOL0     H18337   7.119   8.324   6.943 -1.1886 -2.0408 -2.3918
  136MOL0     H18338   7.118   8.312   6.698  0.7248 -0.5354 -0.0902
  136MOL0     H18339   7.169   8.478   6.745  0.5321  0.3494  0.3055
  136MOL0     H18340   7.602   8.341   6.477  3.3241 -1.6706  1.0919
  136MOL0     H18341   7.568   8.514   6.304 -1.4257  2.4463  2.2869
  136MOL0     H18342   7.688   9.015   6.230  0.7326 -0.9816  0.0988
  136MOL0     H18343   7.638   9.192   6.103  1.7862  1.2790  0.0735
  136MOL0     H18344   7.966  10.244   4.832 -0.9305  0.7955 -0.1134
  136MOL0     H18345   8.147  10.138   4.693 -0.0101  0.1308 -2.4381
  136MOL0     H18346   8.295  10.046   4.334  3.5238  1.1793 -2.5821
  136MOL0     H18347   8.517  10.027   4.219  1.0448 -0.1992  0.4109
  136MOL0     H18348   8.836   9.727   4.280  0.6352 -1.7659  0.8342
  136MOL0     H18349   8.716   9.713   4.398  0.0266 -2.2284 -1.5287
  136MOL0     H18350   8.867   9.878   4.448  1.7022 -0.8016 -1.5184
  136MOL0     H18351   8.710   9.958   4.424 -0.6699 -2.1270  2.1205
  136MOL0     H18352   8.840   9.966   4.163 -2.7439  0.2983  0.3926
  136MOL0     H18353   8.971  10.001   4.270  0.1367  2.6386 -0.4244
  136MOL0     H18354   8.861  10.195   4.181  0.0558 -1.3231 -0.5901
  136MOL0     H18355   8.712  10.157   4.266 -1.5868 -1.9347 -0.5956
  136MOL0     H18356   8.955  10.347   4.574  2.0513 -0.5555  0.5209
  136MOL0     H18357   8.501   9.611   4.276  2.2532  1.3523  2.0066
  136MOL0     H18358   8.270   9.545   4.480 -0.2848  0.2018  0.0964
  136MOL0     H18359   8.132   9.586   4.374 -0.2496  1.1845  2.4825
  136MOL0     H18360   8.271   9.501   4.304 -1.3596 -1.4206  0.5203
  137MOL0     O18361  10.808  10.757   8.236  0.8301  0.6493 -0.2222
  137MOL0     C18362  10.896  10.824   8.288  0.0558 -0.3952  0.5670
  137MOL0     O18363  10.897  10.845   8.421  0.1352 -0.0060  0.5475
  137MOL0     C18364  10.779  10.817   8.484 -0.7565  0.0899 -0.7035
  137MOL0     C18365  10.682  10.906   8.492 -0.3154  0.1780  0.4080
  137MOL0     C18366  10.564  10.882   8.560  0.4745 -0.2354 -0.3193
  137MOL0     C18367  10.549  10.764   8.629  0.2259  0.1726 -1.0012
  137MOL0     O18368  10.421  10.729   8.682 -0.9018  0.3198 -0.2260
  137MOL0     C18369  10.376  10.604   8.651  0.9560  0.2440  0.1105
  137MOL0     C18370  10.234  10.592   8.686 -0.8375  0.1323  0.6065
  137MOL0     C18371  10.166  10.467   8.644  0.2084  1.0568  0.3040
  137MOL0     C18372  10.224  10.346   8.723 -0.8554  0.9976  0.5638
  137MOL0     C18373  10.146  10.220   8.697 -0.0628 -0.4234  0.1768
  137MOL0     C18374  10.218  10.091   8.758  0.3103  0.1415 -0.1630
  137MOL0     C18375  10.234  10.101   8.904  0.3034  0.1115  0.1893
  137MOL0     C18376  10.274   9.967   8.965  0.2336 -0.1969  0.7072
  137MOL0     N18377  10.398   9.913   8.921  0.4719  0.3691  0.3830
  137MOL0     C18378  10.511   9.989   8.899  0.5079 -0.1947 -0.5303
  137MOL0     C18379  10.611   9.907   8.862  0.4604  0.4731 -0.2314
  137MOL0     C18380  10.743   9.931   8.816  0.0938 -0.4157  0.0736
  137MOL0     C18381  10.801  10.081   8.794  0.2805 -0.0637  0.2675
  137MOL0     C18382  10.718  10.153   8.685 -0.3456  0.7596 -0.6545
  137MOL0     C18383  10.727  10.301   8.677 -0.0112  0.4983 -0.0858
  137MOL0     O18384  10.730  10.358   8.550  0.6060  0.5263 -0.6099
  137MOL0     C18385  10.616  10.364   8.470 -0.7916 -0.2389  0.6992
  137MOL0     C18386  10.492  10.310   8.487 -0.4015 -0.3057 -0.0702
  137MOL0     C18387  10.395  10.318   8.380 -0.9540 -0.2143  0.3761
  137MOL0     C18388  10.421  10.390   8.265  0.4741 -0.6655  0.4659
  137MOL0     C18389  10.308  10.406   8.170 -0.3090  0.5453 -0.5013
  137MOL0     O18390  10.319  10.482   8.051  0.1424  0.4033  0.6377
  137MOL0     C18391  10.219  10.478   7.957 -0.1599  0.2150  0.0928
  137MOL0     C18392  10.083  10.498   7.988 -0.5491  0.6621  0.2092
  137MOL0     C18393   9.993  10.489   7.881  0.1667  0.6066  0.3251
  137MOL0     C18394  10.028  10.454   7.749  0.9171 -0.3324  0.6203
  137MOL0     O18395   9.934  10.471   7.651  0.0290 -0.6694  0.7843
  137MOL0     C18396   9.962  10.460   7.510 -0.1660 -0.0602 -0.0138
  137MOL0     C18397   9.839  10.484   7.423 -1.1804  0.1050 -0.4037
  137MOL0     C18398   9.814  10.630   7.388  0.1050  0.7049 -0.4148
  137MOL0     C18399   9.896  10.687   7.276  0.1492  0.2841  0.2548
  137MOL0     C18400   9.844  10.828   7.258  0.3217 -0.3778  0.6710
  137MOL0     C18401   9.886  10.889   7.120  0.1391 -0.0887  0.8153
  137MOL0     C18402   9.819  11.029   7.087 -0.3565  0.1457 -0.4674
  137MOL0     C18403   9.795  11.054   6.946 -0.5959  0.1295 -0.1224
  137MOL0    Cl18404   9.682  10.928   6.871 -0.1412 -0.1976  0.4628
  137MOL0     C18405  10.162  10.451   7.724 -0.7271  0.7006 -0.4072
  137MOL0     C18406  10.259  10.462   7.824  0.2535 -0.2823 -0.8085
  137MOL0     O18407  10.201  10.354   8.204  0.1521 -0.2468  0.2371
  137MOL0     C18408  10.533  10.466   8.257 -0.0992  0.6261 -0.1132
  137MOL0     C18409  10.638  10.442   8.355  0.3078 -0.2914  0.1119
  137MOL0     N18410  10.554   9.780   8.854 -0.1472  0.9357 -0.5795
  137MOL0     N18411  10.428   9.780   8.889 -0.2880 -0.2994 -0.5636
  137MOL0     C18412  10.653  10.666   8.631 -0.3408 -0.2382  1.1153
  137MOL0     C18413  10.768  10.694   8.555  1.0958  0.3177 -0.3386
  137MOL0     C18414  11.003  10.879   8.209  0.6520 -0.5426  0.7644
  137MOL0     C18415  11.102  10.955   8.280  0.3213  0.3859 -0.1414
  137MOL0     C18416  11.213  11.005   8.220  0.5455 -0.1738 -0.0225
  137MOL0     C18417  11.236  10.977   8.085 -0.3632 -0.2277 -0.6057
  137MOL0     O18418  11.360  11.017   8.034  0.2667 -0.0442  0.1600
  137MOL0     C18419  11.410  10.944   7.923  0.0819 -0.0804 -0.5549
  137MOL0     C18420  11.543  11.002   7.874 -0.1854  0.1873 -0.1588
  137MOL0     C18421  11.673  10.987   7.959 -0.4410 -0.2166  0.6353
  137MOL0     C18422  11.685  11.094   8.074 -0.4963  0.0495 -0.2037
  137MOL0     C18423  11.686  11.221   8.015 -0.0369 -0.4595  0.5745
  137MOL0     C18424  11.704  11.328   7.960  0.0943 -0.3239  0.7759
  137MOL0     C18425  11.130  10.919   8.012 -0.3493 -0.0519  0.2870
  137MOL0     C18426  11.022  10.856   8.071  0.1743  0.3604  0.5076
  137MOL0     C18427  10.938  10.764   7.979 -0.0284  0.2097 -0.1991
  137MOL0     H18428  10.702  10.996   8.435 -1.3841  0.1147 -0.0850
  137MOL0     H18429  10.485  10.957   8.552  1.8479  1.3539  0.3790
  137MOL0     H18430  10.395  10.594   8.543  1.6120 -0.8399  0.3145
  137MOL0     H18431  10.438  10.535   8.709  1.7633  1.1620  0.3519
  137MOL0     H18432  10.187  10.675   8.633 -1.2814  0.5395  1.5977
  137MOL0     H18433  10.219  10.613   8.793  1.7011 -0.3555  1.1114
  137MOL0     H18434  10.188  10.467   8.536  3.6907  1.5295  0.9161
  137MOL0     H18435  10.059  10.459   8.666  0.5228 -1.3985  1.3352
  137MOL0     H18436  10.328  10.348   8.690 -0.8412 -0.9694  0.3460
  137MOL0     H18437  10.217  10.367   8.830  0.2317  0.1699  0.8187
  137MOL0     H18438  10.044  10.232   8.735 -0.1606 -1.1845  0.1835
  137MOL0     H18439  10.148  10.206   8.589  3.6078 -2.2782  0.3398
  137MOL0     H18440  10.147  10.012   8.733 -0.3122  0.6001  0.1399
  137MOL0     H18441  10.319  10.078   8.716 -0.2162 -2.2659 -0.8534
  137MOL0     H18442  10.138  10.119   8.953  2.6259 -0.5755  5.7367
  137MOL0     H18443  10.301  10.183   8.933 -0.6106  0.1308  2.4153
  137MOL0     H18444  10.282   9.977   9.074  0.7479  0.4892  0.6124
  137MOL0     H18445  10.201   9.888   8.944  2.9156 -2.5226 -0.5762
  137MOL0     H18446  10.524  10.095   8.917  2.0664  0.4192 -4.1619
  137MOL0     H18447  10.807   9.887   8.893  1.5709 -0.8280 -1.3244
  137MOL0     H18448  10.757   9.887   8.717  1.6281  0.8257 -0.3020
  137MOL0     H18449  10.791  10.139   8.886  1.9296  1.0020 -0.1768
  137MOL0     H18450  10.907  10.088   8.767  0.3922 -0.6484  0.5426
  137MOL0     H18451  10.617  10.110   8.682  0.6270 -1.6317 -1.4713
  137MOL0     H18452  10.753  10.122   8.586  2.4813  0.5815  0.3161
  137MOL0     H18453  10.821  10.346   8.711  0.2118  1.4345 -1.8361
  137MOL0     H18454  10.652  10.347   8.743  1.3839 -1.1771  2.8763
  137MOL0     H18455  10.464  10.248   8.572 -0.6892 -0.4210 -0.2424
  137MOL0     H18456  10.295  10.284   8.405 -1.8280  1.6852 -0.3950
  137MOL0     H18457  10.045  10.523   8.087 -1.8752 -0.9952  0.1607
  137MOL0     H18458   9.893  10.510   7.917 -0.7391 -1.1376 -1.0281
  137MOL0     H18459  10.049  10.522   7.487  2.1113 -2.7649  0.7677
  137MOL0     H18460  10.002  10.358   7.503 -1.9910 -0.8044 -0.3626
  137MOL0     H18461   9.864  10.434   7.329  0.7920  1.1573 -0.4791
  137MOL0     H18462   9.755  10.429   7.468  1.1202 -0.7954  3.2019
  137MOL0     H18463   9.708  10.643   7.363 -0.2929  2.0885  1.6726
  137MOL0     H18464   9.827  10.694   7.476  3.9525 -1.6444  0.9563
  137MOL0     H18465   9.889  10.623   7.187  2.9341  1.2253 -0.7509
  137MOL0     H18466  10.002  10.691   7.303 -0.6247  1.4509  3.4759
  137MOL0     H18467   9.886  10.881   7.344 -1.2320 -0.9019  1.7900
  137MOL0     H18468   9.735  10.827   7.266  0.0251 -0.7488 -2.1370
  137MOL0     H18469   9.994  10.905   7.120 -0.1043  1.8782  0.5623
  137MOL0     H18470   9.855  10.818   7.044 -0.9432  1.2849 -0.0789
  137MOL0     H18471   9.883  11.108   7.129 -3.3549  2.0376  0.8416
  137MOL0     H18472   9.720  11.048   7.127 -0.5686 -0.6662 -0.5894
  137MOL0     H18473   9.748  11.152   6.931 -1.1504 -0.6122 -4.4299
  137MOL0     H18474   9.896  11.063   6.904  1.0235 -1.0277  3.1793
  137MOL0     H18475  10.193  10.409   7.629 -3.4495 -0.6272 -0.8257
  137MOL0     H18476  10.364  10.443   7.804 -0.3118 -0.7777 -3.8116
  137MOL0     H18477  10.547  10.546   8.185 -1.4751  1.9133  0.9564
  137MOL0     H18478  10.731  10.496   8.338 -0.3525 -0.0149 -3.1761
  137MOL0     H18479  10.644  10.576   8.691 -1.1018 -0.8708  0.0824
  137MOL0     H18480  10.848  10.622   8.559 -0.6195 -1.6504 -0.1242
  137MOL0     H18481  11.101  10.987   8.384  0.2809 -1.9522  0.6426
  137MOL0     H18482  11.270  11.080   8.274 -3.2147  5.0983 -2.3651
  137MOL0     H18483  11.333  10.943   7.846  0.6313 -1.4054 -1.1140
  137MOL0     H18484  11.429  10.839   7.944 -1.9515 -0.7437 -1.7565
  137MOL0     H18485  11.533  11.109   7.853  0.4229  0.8908  2.6904
  137MOL0     H18486  11.567  10.950   7.781 -0.6385 -1.6372  0.7131
  137MOL0     H18487  11.754  11.002   7.886 -0.2420  0.6841  1.0265
  137MOL0     H18488  11.702  10.886   7.987  1.8850  0.5061  1.0835
  137MOL0     H18489  11.606  11.085   8.149  0.2519  0.5844  0.6634
  137MOL0     H18490  11.778  11.079   8.130  0.8166  0.0954 -2.2628
  137MOL0     H18491  11.717  11.428   7.925 -1.5862  0.3210  1.8712
  137MOL0     H18492  11.119  10.908   7.905 -0.7123 -1.8885  0.4845
  137MOL0     H18493  10.837  10.803   7.965 -0.6806 -1.1690  0.5008
  137MOL0     H18494  10.985  10.752   7.881 -0.3586 -0.2695 -0.3010
  137MOL0     H18495  10.919  10.665   8.022  0.3756 -0.2272 -0.9981
  138MOL0     O18496  10.664  11.153  11.202  0.3104 -0.0817  0.6847
  138MOL0     C18497  10.566  11.123  11.130 -0.2301 -0.6156 -0.3631
  138MOL0     O18498  10.516  11.194  11.022  0.3292  0.2770 -0.3841
  138MOL0     C18499  10.574  11.312  10.983 -1.2943  1.0898 -0.4338
  138MOL0     C18500  10.689  11.308  10.907 -0.3221  0.1790 -0.0407
  138MOL0     C18501  10.745  11.422  10.856  0.3552  1.1568 -0.9999
  138MOL0     C18502  10.697  11.553  10.894 -0.0097  1.0672 -0.1813
  138MOL0     O18503  10.748  11.673  10.865  0.2023  0.9324  1.0347
  138MOL0     C18504  10.845  11.682  10.760 -0.4989  0.3434  0.0089
  138MOL0     C18505  10.890  11.830  10.718  0.5284  0.7667  0.5305
  138MOL0     C18506  10.929  11.853  10.576 -0.2274 -0.4075  1.1871
  138MOL0     C18507  10.968  12.006  10.550 -0.2259  0.0230 -0.8630
  138MOL0     C18508  10.995  12.016  10.401  0.4160  0.9190  0.4903
  138MOL0     C18509  11.139  11.975  10.354  0.5153  0.3723 -0.0277
  138MOL0     C18510  11.144  11.983  10.199  0.3800 -0.1462 -1.1342
  138MOL0     C18511  11.151  12.135  10.155  0.7112  0.7481 -0.5892
  138MOL0     N18512  11.040  12.169  10.057  0.8715 -0.1235  0.0304
  138MOL0     C18513  11.025  12.292  10.006  0.6139 -0.2914  0.2452
  138MOL0     C18514  10.926  12.281   9.911 -0.7290  0.4518 -0.0027
  138MOL0     C18515  10.875  12.387   9.813 -0.5138 -0.5014 -0.4292
  138MOL0     C18516  10.781  12.328   9.705  0.4762  0.0252  0.6725
  138MOL0     C18517  10.735  12.419   9.602 -0.1130 -0.4070  0.8061
  138MOL0     C18518  10.596  12.375   9.548 -0.1995  0.4699  0.1124
  138MOL0     O18519  10.472  12.414   9.622 -0.5163  0.0402 -0.2989
  138MOL0     C18520  10.399  12.527   9.589  0.2489 -0.5729  1.5162
  138MOL0     C18521  10.433  12.619   9.491  0.1510  0.4600 -0.1790
  138MOL0     C18522  10.358  12.733   9.473  0.1256  1.0243  0.0903
  138MOL0     C18523  10.241  12.755   9.543  0.3347  0.1622 -0.3243
  138MOL0     C18524  10.168  12.883   9.521 -0.5170 -0.3106  0.3285
  138MOL0     O18525  10.072  12.911   9.618 -0.4019 -0.6969  0.4371
  138MOL0     C18526  10.021  13.038   9.615  0.7576 -0.2170  0.0681
  138MOL0     C18527   9.918  13.076   9.525 -0.1666  0.2135  0.1048
  138MOL0     C18528   9.855  13.197   9.523  0.3862  1.1604 -0.0528
  138MOL0     C18529   9.888  13.290   9.623  0.4122 -0.4290 -0.0476
  138MOL0     O18530   9.813  13.397   9.656  0.0147 -0.9180 -0.0197
  138MOL0     C18531   9.793  13.482   9.544  0.8813 -0.7430 -0.2217
  138MOL0     C18532   9.742  13.621   9.598 -0.0302 -0.0905  0.9407
  138MOL0     C18533   9.853  13.696   9.689  1.0667  0.0465 -0.5355
  138MOL0     C18534   9.788  13.826   9.766 -1.1738 -0.4504 -0.4778
  138MOL0     C18535   9.883  13.923   9.829  0.2586 -0.6199  0.6555
  138MOL0     C18536   9.948  13.866   9.941 -0.2098  0.1141 -1.1627
  138MOL0     C18537  10.018  13.978  10.021 -0.3152 -0.6092  0.0239
  138MOL0     C18538  10.095  13.906  10.139 -0.1105  0.3170  0.5955
  138MOL0    Cl18539   9.983  13.885  10.266  0.0534  0.1630 -0.1715
  138MOL0     C18540   9.992  13.264   9.714 -0.0192 -0.0312 -0.2437
  138MOL0     C18541  10.074  13.148   9.700 -0.3992  0.3045 -1.0844
  138MOL0     O18542  10.196  12.953   9.419  0.2392 -0.8564  0.5027
  138MOL0     C18543  10.199  12.665   9.645 -0.8005 -0.1865  0.1004
  138MOL0     C18544  10.276  12.548   9.653 -0.5032  0.2674  0.2117
  138MOL0     N18545  10.879  12.149   9.913  0.3585 -0.1737 -0.6698
  138MOL0     N18546  10.953  12.087   9.999 -0.3157  0.3366 -0.6107
  138MOL0     C18547  10.583  11.555  10.979 -0.7972  0.2084  0.3339
  138MOL0     C18548  10.527  11.433  11.025 -0.7090 -0.0429  0.7259
  138MOL0     C18549  10.493  11.001  11.162  0.2010  0.4105 -0.5456
  138MOL0     C18550  10.359  11.015  11.162  1.0374  0.6593 -0.2455
  138MOL0     C18551  10.272  10.910  11.198 -0.5395  0.3066  0.1427
  138MOL0     C18552  10.332  10.780  11.215 -0.4646  0.0794 -0.3176
  138MOL0     O18553  10.252  10.676  11.239  0.2143 -0.2555  0.0528
  138MOL0     C18554  10.251  10.630  11.373 -0.6887 -0.6159 -0.1697
  138MOL0     C18555  10.144  10.525  11.386 -0.0925 -0.1480 -0.5873
  138MOL0     C18556  10.148  10.399  11.297  0.0931 -0.4182 -0.2205
  138MOL0     C18557  10.280  10.326  11.300  0.1759  0.3285 -0.1978
  138MOL0     C18558  10.303  10.247  11.423  0.5642  0.6071  0.4805
  138MOL0     C18559  10.316  10.187  11.529  0.1082  0.3308  1.2131
  138MOL0     C18560  10.468  10.763  11.206 -0.3644  0.1135  0.2468
  138MOL0     C18561  10.554  10.875  11.194  0.6817  0.1098  0.2956
  138MOL0     C18562  10.699  10.841  11.198 -0.7659  0.3608 -0.2066
  138MOL0     H18563  10.729  11.213  10.874 -0.8555 -0.3092  0.6697
  138MOL0     H18564  10.839  11.410  10.803  0.9992  2.8550 -0.2853
  138MOL0     H18565  10.933  11.622  10.784 -1.2503 -0.9271 -0.2591
  138MOL0     H18566  10.804  11.629  10.673  0.1077  0.0986 -0.1348
  138MOL0     H18567  10.970  11.872  10.779  0.2498  2.6034 -0.3038
  138MOL0     H18568  10.796  11.883  10.736  0.7512  1.4609 -0.3132
  138MOL0     H18569  10.854  11.829  10.499  2.9837  0.9355 -2.7221
  138MOL0     H18570  11.012  11.786  10.553 -0.8198 -1.0229  0.7776
  138MOL0     H18571  10.884  12.072  10.576 -2.4390 -3.0906  0.5640
  138MOL0     H18572  11.058  12.033  10.606  1.1148 -2.4565 -1.6434
  138MOL0     H18573  10.921  11.953  10.350  0.2931  3.4449 -2.7862
  138MOL0     H18574  10.979  12.116  10.361  0.9773 -0.0504 -2.3609
  138MOL0     H18575  11.211  12.043  10.399 -0.2457  0.2464  1.4385
  138MOL0     H18576  11.169  11.876  10.389 -0.3185  0.2077  0.2497
  138MOL0     H18577  11.069  11.926  10.143 -0.9640  1.3587 -0.9433
  138MOL0     H18578  11.245  11.959  10.164  0.9330  1.2971 -0.6312
  138MOL0     H18579  11.143  12.200  10.242 -1.5809  0.5493 -0.5990
  138MOL0     H18580  11.255  12.149  10.123  1.5375 -0.2256  1.5284
  138MOL0     H18581  11.072  12.389  10.023 -0.3069 -0.2048  2.7891
  138MOL0     H18582  10.828  12.468   9.869  1.3705  2.2412 -2.5322
  138MOL0     H18583  10.965  12.432   9.768  0.5651 -1.7456  0.4078
  138MOL0     H18584  10.826  12.241   9.656  0.6242  1.6972 -2.4026
  138MOL0     H18585  10.692  12.300   9.760 -1.0843  2.1084 -0.6391
  138MOL0     H18586  10.803  12.430   9.518 -1.3463  1.1366 -0.0521
  138MOL0     H18587  10.719  12.517   9.649  1.0192 -0.0749  0.5297
  138MOL0     H18588  10.606  12.267   9.534 -0.9678  0.2339  1.2385
  138MOL0     H18589  10.592  12.417   9.447  1.7572  5.4326  1.7426
  138MOL0     H18590  10.533  12.605   9.450  0.2548 -0.4079  0.3573
  138MOL0     H18591  10.382  12.803   9.394  0.6398 -0.8302 -1.4818
  138MOL0     H18592   9.887  13.003   9.451  1.6095 -0.9086  0.4145
  138MOL0     H18593   9.762  13.213   9.469  0.0499 -0.0418  0.1459
  138MOL0     H18594   9.892  13.498   9.500  1.7099 -0.0166  1.7811
  138MOL0     H18595   9.720  13.441   9.474 -1.1899  0.1014  1.3297
  138MOL0     H18596   9.714  13.686   9.515 -0.3215 -2.3784 -0.8906
  138MOL0     H18597   9.650  13.599   9.653  0.0561 -1.7692  0.4785
  138MOL0     H18598   9.896  13.634   9.768 -3.6238 -2.1592  0.6615
  138MOL0     H18599   9.935  13.729   9.625  1.1262  0.8344 -0.0768
  138MOL0     H18600   9.724  13.789   9.846  2.5001 -3.6876  1.3247
  138MOL0     H18601   9.730  13.874   9.686 -0.5004  1.2695  0.0274
  138MOL0     H18602   9.822  14.010   9.856  1.6315  0.7347 -0.3978
  138MOL0     H18603   9.962  13.955   9.761 -0.5218  2.3892  0.9913
  138MOL0     H18604   9.869  13.822  10.004 -1.7725 -2.3895 -4.5833
  138MOL0     H18605  10.023  13.793   9.911  0.2767 -0.1162  0.5189
  138MOL0     H18606   9.949  14.058  10.048 -1.9512 -0.9601 -2.7384
  138MOL0     H18607  10.092  14.018   9.952 -1.4844  0.8503 -0.4401
  138MOL0     H18608  10.137  13.812  10.104 -1.9419 -0.5925  0.6792
  138MOL0     H18609  10.172  13.974  10.177  0.6353  1.3065 -2.3976
  138MOL0     H18610  10.005  13.326   9.802  3.8594 -1.8608  0.7110
  138MOL0     H18611  10.170  13.140   9.750 -1.3848 -1.3750  0.6656
  138MOL0     H18612  10.109  12.685   9.701 -0.3212 -0.0744  0.8510
  138MOL0     H18613  10.256  12.469   9.725  0.1727 -0.5967 -0.5244
  138MOL0     H18614  10.547  11.654  11.006 -1.7036  0.1071 -0.4337
  138MOL0     H18615  10.423  11.434  11.057 -0.7469 -0.9613  0.6437
  138MOL0     H18616  10.314  11.114  11.159  0.6140  0.4638 -0.5353
  138MOL0     H18617  10.165  10.926  11.191 -0.8212 -0.4986  2.0288
  138MOL0     H18618  10.238  10.709  11.448  1.9173 -2.2429  2.1967
  138MOL0     H18619  10.350  10.595  11.405  0.1464  2.0428  0.3833
  138MOL0     H18620  10.047  10.574  11.372  0.0928  0.2456 -0.4995
  138MOL0     H18621  10.144  10.501  11.493  2.5167  0.8596 -0.2994
  138MOL0     H18622  10.134  10.442  11.198 -0.0187  0.5688  0.2181
  138MOL0     H18623  10.065  10.334  11.329  1.0933 -0.0037  3.7574
  138MOL0     H18624  10.269  10.261  11.212 -1.3912  0.3009 -0.0165
  138MOL0     H18625  10.359  10.396  11.273  0.4202  0.6525  1.3097
  138MOL0     H18626  10.322  10.141  11.626  0.0684  0.8152  1.4523
  138MOL0     H18627  10.509  10.662  11.204  1.7443  0.9098 -0.8255
  138MOL0     H18628  10.711  10.736  11.224 -0.9857  0.1358 -0.9945
  138MOL0     H18629  10.753  10.854  11.105  0.1864  2.7786  0.5876
  138MOL0     H18630  10.747  10.905  11.273 -0.0797  0.8915 -1.0785
  139MOL0     O18631   1.312   6.770   6.865  0.3305 -0.8437  0.9884
  139MOL0     C18632   1.243   6.688   6.805  0.2365  0.6432 -0.6397
  139MOL0     O18633   1.276   6.633   6.678 -0.8290  0.9220 -0.0856
  139MOL0     C18634   1.382   6.689   6.612 -0.7265  0.6276  0.5692
  139MOL0     C18635   1.441   6.813   6.610 -0.9886  0.6363 -0.0785
  139MOL0     C18636   1.556   6.847   6.544  0.3361  0.1317 -0.6145
  139MOL0     C18637   1.613   6.751   6.462  0.0127  0.4158 -0.5775
  139MOL0     O18638   1.714   6.777   6.368  0.2994  0.3920 -0.6313
  139MOL0     C18639   1.750   6.916   6.355 -0.7813  0.4353 -0.0784
  139MOL0     C18640   1.653   7.005   6.275  0.4047 -0.2171  0.6502
  139MOL0     C18641   1.635   6.962   6.126 -0.3411  0.2568 -0.3351
  139MOL0     C18642   1.544   7.052   6.050 -0.4576 -0.2003  0.2457
  139MOL0     C18643   1.624   7.165   5.976  0.1910  0.0020  0.4696
  139MOL0     C18644   1.524   7.258   5.888  0.3512  0.0196 -0.3429
  139MOL0     C18645   1.566   7.382   5.797 -1.1623  0.3282  0.1067
  139MOL0     C18646   1.452   7.448   5.719 -0.2152  0.0576 -0.3052
  139MOL0     N18647   1.502   7.539   5.613 -0.5205  1.0058 -0.4996
  139MOL0     C18648   1.580   7.508   5.503  0.5673  0.8424  0.2104
  139MOL0     C18649   1.601   7.620   5.435  0.1313  0.5108 -0.1552
  139MOL0     C18650   1.674   7.627   5.301 -0.4017 -0.5152  0.0097
  139MOL0     C18651   1.597   7.708   5.198  0.2335 -0.2511 -1.7986
  139MOL0     C18652   1.624   7.649   5.062  1.0351  0.3223  0.3184
  139MOL0     C18653   1.765   7.663   5.019  0.5454 -0.0002 -0.0948
  139MOL0     O18654   1.781   7.797   4.964  0.7218 -0.2358  0.5596
  139MOL0     C18655   1.914   7.828   4.913  0.2072  0.3587 -0.5264
  139MOL0     C18656   2.026   7.739   4.906  0.3112  0.1425  0.6842
  139MOL0     C18657   2.150   7.759   4.845  0.3262  1.5686  1.0082
  139MOL0     C18658   2.176   7.889   4.801 -0.1449 -0.2357  0.1079
  139MOL0     C18659   2.301   7.917   4.730  0.5901  0.4062  0.1903
  139MOL0     O18660   2.341   8.044   4.703 -1.2332 -0.1394  0.2843
  139MOL0     C18661   2.458   8.076   4.643 -0.5191  0.8778  0.3313
  139MOL0     C18662   2.515   8.204   4.674  0.2649  0.4342  0.1064
  139MOL0     C18663   2.638   8.227   4.619  0.8273 -0.1352 -0.2054
  139MOL0     C18664   2.711   8.131   4.540  0.8801  0.6584 -0.1341
  139MOL0     O18665   2.836   8.160   4.501 -0.2780 -0.1761  0.5534
  139MOL0     C18666   2.912   8.078   4.411  0.7380 -0.5643  1.4970
  139MOL0     C18667   3.045   8.135   4.363  0.1891  0.2881 -0.9035
  139MOL0     C18668   3.027   8.249   4.265  0.0929 -0.6003 -0.1844
  139MOL0     C18669   3.163   8.301   4.229  0.2454  0.4441  0.6161
  139MOL0     C18670   3.159   8.447   4.172 -0.6472  0.1694  0.0499
  139MOL0     C18671   3.283   8.530   4.206 -1.1987 -0.6933 -0.8280
  139MOL0     C18672   3.293   8.671   4.130  0.6292  0.1510  0.1401
  139MOL0     C18673   3.403   8.769   4.190  0.1394  0.6472  0.0233
  139MOL0    Cl18674   3.435   8.875   4.055 -0.2785  0.3060  0.3047
  139MOL0     C18675   2.646   8.017   4.497 -0.5503  0.3554  0.1890
  139MOL0     C18676   2.523   7.990   4.555 -0.4992  0.2874  0.0091
  139MOL0     O18677   2.373   7.817   4.722  0.4479 -0.2931  0.1276
  139MOL0     C18678   2.068   7.982   4.804  0.1399  0.1426 -0.6655
  139MOL0     C18679   1.948   7.957   4.862  0.8084  0.4270  0.4811
  139MOL0     N18680   1.551   7.725   5.508 -0.3285 -0.3371  0.0295
  139MOL0     N18681   1.495   7.677   5.608  0.1485 -0.6873  0.0383
  139MOL0     C18682   1.557   6.628   6.456 -0.7202 -0.5714  0.4168
  139MOL0     C18683   1.450   6.600   6.528  0.5242  0.6016  0.0629
  139MOL0     C18684   1.113   6.660   6.867  0.1567 -1.1502 -1.2539
  139MOL0     C18685   1.044   6.544   6.821 -0.4589 -1.0749  0.0042
  139MOL0     C18686   0.919   6.510   6.871  0.4483  0.4741  0.4525
  139MOL0     C18687   0.855   6.587   6.963 -0.6185 -0.7334 -0.5467
  139MOL0     O18688   0.736   6.565   7.027  0.3668  0.4293 -0.1177
  139MOL0     C18689   0.657   6.453   6.992  0.3089  0.8267 -0.2965
  139MOL0     C18690   0.607   6.451   6.844  1.3626  0.2472  0.2624
  139MOL0     C18691   0.510   6.335   6.838 -0.3037 -0.8305 -0.2363
  139MOL0     C18692   0.485   6.282   6.694 -0.3925 -0.1511 -0.6469
  139MOL0     C18693   0.384   6.363   6.629 -0.1507  0.7810  0.7082
  139MOL0     C18694   0.296   6.433   6.582 -0.1805  0.6997  0.3773
  139MOL0     C18695   0.921   6.697   7.019 -0.8028  0.5779  0.0113
  139MOL0     C18696   1.049   6.739   6.970 -0.2820 -0.0294  0.1859
  139MOL0     C18697   1.099   6.863   7.019 -0.4490 -0.1921  0.2897
  139MOL0     H18698   1.374   6.880   6.662 -0.8683 -0.2437  1.2747
  139MOL0     H18699   1.582   6.952   6.549 -1.2573  0.5663 -0.7419
  139MOL0     H18700   1.772   6.967   6.450 -0.1875 -0.2509  0.1620
  139MOL0     H18701   1.840   6.929   6.295 -0.5355  2.5582  0.6578
  139MOL0     H18702   1.690   7.108   6.280 -0.5043  0.1338  0.3825
  139MOL0     H18703   1.551   7.000   6.316  0.4466 -0.1438  0.7646
  139MOL0     H18704   1.599   6.859   6.117 -1.2546  0.3414  1.7714
  139MOL0     H18705   1.733   6.960   6.078  0.9258 -1.3237  2.0862
  139MOL0     H18706   1.503   6.983   5.975 -2.8959  0.1155  1.2080
  139MOL0     H18707   1.460   7.093   6.107 -1.5612 -1.2411 -0.5864
  139MOL0     H18708   1.670   7.231   6.050 -0.9902  1.3171  0.0750
  139MOL0     H18709   1.696   7.124   5.905 -0.8041 -1.5815  0.3380
  139MOL0     H18710   1.468   7.187   5.827 -2.2841  2.7917 -1.4234
  139MOL0     H18711   1.449   7.304   5.953  0.7952  3.1488 -1.8683
  139MOL0     H18712   1.640   7.344   5.725 -0.1345 -1.9437  2.2242
  139MOL0     H18713   1.619   7.460   5.852  0.3581 -0.8611  0.4125
  139MOL0     H18714   1.380   7.378   5.674 -1.9392 -0.9912  3.6068
  139MOL0     H18715   1.390   7.496   5.796  0.0026  1.7221 -1.1356
  139MOL0     H18716   1.586   7.405   5.469 -2.1724  0.5703  0.3532
  139MOL0     H18717   1.766   7.682   5.323 -0.9518  1.4359 -2.1832
  139MOL0     H18718   1.702   7.526   5.270 -0.7180 -1.4876  2.6176
  139MOL0     H18719   1.491   7.690   5.218  0.4023 -1.8534 -2.1729
  139MOL0     H18720   1.622   7.814   5.204 -0.8406 -0.0803  2.0530
  139MOL0     H18721   1.560   7.704   4.993  2.6080 -1.1221 -2.5022
  139MOL0     H18722   1.590   7.545   5.062 -1.5844  1.0587 -2.0513
  139MOL0     H18723   1.773   7.593   4.935 -0.8677  0.5777 -0.7356
  139MOL0     H18724   1.841   7.653   5.097  0.9777 -0.4228 -0.5621
  139MOL0     H18725   2.017   7.643   4.954 -0.0943 -0.0610  0.2138
  139MOL0     H18726   2.217   7.675   4.831 -0.7845  0.9978 -1.4651
  139MOL0     H18727   2.462   8.273   4.737  0.1475  2.3169 -1.9423
  139MOL0     H18728   2.687   8.322   4.637 -0.6781  0.8622 -1.1623
  139MOL0     H18729   2.933   7.979   4.453  1.8001 -1.9795 -2.0455
  139MOL0     H18730   2.855   8.047   4.324 -0.4868  2.3589  1.1425
  139MOL0     H18731   3.101   8.169   4.450 -0.1616 -0.6996 -0.2816
  139MOL0     H18732   3.103   8.052   4.322 -1.1933 -1.5353  0.6179
  139MOL0     H18733   2.981   8.221   4.171 -0.1826 -0.6082 -0.0470
  139MOL0     H18734   2.974   8.329   4.317  1.9331  0.1939  0.5499
  139MOL0     H18735   3.217   8.233   4.164  2.1493  2.2521  0.1938
  139MOL0     H18736   3.219   8.302   4.323  3.7780 -0.7978 -1.3241
  139MOL0     H18737   3.078   8.507   4.214  2.2028  3.0412  1.9020
  139MOL0     H18738   3.147   8.445   4.063  0.8366  1.2639 -0.1577
  139MOL0     H18739   3.277   8.554   4.313 -1.2000 -4.6060  0.2025
  139MOL0     H18740   3.379   8.479   4.189  0.2783  0.8378  2.0839
  139MOL0     H18741   3.199   8.726   4.143  0.7472  1.2386 -2.9234
  139MOL0     H18742   3.303   8.653   4.023  0.1386 -2.8289  0.4952
  139MOL0     H18743   3.365   8.819   4.280  0.5961  1.0971 -0.0294
  139MOL0     H18744   3.493   8.715   4.220 -1.6220 -2.2418  0.4669
  139MOL0     H18745   2.700   7.947   4.434 -4.8119 -2.9025 -0.3246
  139MOL0     H18746   2.466   7.903   4.525  1.3647 -0.1834 -2.5030
  139MOL0     H18747   2.083   8.083   4.765  2.4136  0.8606  1.8056
  139MOL0     H18748   1.873   8.035   4.871 -1.5166 -1.8974  2.8706
  139MOL0     H18749   1.600   6.549   6.395  0.5929  0.2815  0.2060
  139MOL0     H18750   1.408   6.500   6.528  0.0248  0.6319  4.4481
  139MOL0     H18751   1.100   6.490   6.745 -0.5519  2.0369 -2.4946
  139MOL0     H18752   0.872   6.420   6.834 -0.3850  1.1161 -0.1078
  139MOL0     H18753   0.575   6.458   7.064 -1.8687  1.2879 -2.6857
  139MOL0     H18754   0.717   6.364   7.015  0.8597  0.6182 -2.2937
  139MOL0     H18755   0.684   6.441   6.766 -0.4868 -0.1224 -1.6345
  139MOL0     H18756   0.546   6.535   6.811  1.0827 -0.2915 -0.6445
  139MOL0     H18757   0.414   6.357   6.887  0.7936 -1.3164  2.3017
  139MOL0     H18758   0.556   6.256   6.899  1.6830 -2.2074 -3.2587
  139MOL0     H18759   0.582   6.285   6.643  0.5528  0.4279  1.0931
  139MOL0     H18760   0.430   6.188   6.697 -1.7566  0.6416 -0.3765
  139MOL0     H18761   0.217   6.492   6.540 -0.9069 -0.7445 -0.3576
  139MOL0     H18762   0.871   6.750   7.100 -1.4923 -1.3104  0.8883
  139MOL0     H18763   1.192   6.840   7.071  0.4939  0.3508 -1.0881
  139MOL0     H18764   1.124   6.943   6.948  0.9993 -0.6422  0.2455
  139MOL0     H18765   1.028   6.908   7.088 -2.7579 -0.9369 -1.4742
  140MOL0     O18766   1.659  10.353   3.411  0.5865 -0.4302 -0.0948
  140MOL0     C18767   1.675  10.242   3.481 -0.2917 -1.3239 -0.4909
  140MOL0     O18768   1.754  10.232   3.583  0.7588  0.2976 -0.8170
  140MOL0     C18769   1.865  10.308   3.602  0.2852  0.4536 -0.5617
  140MOL0     C18770   1.945  10.350   3.500 -0.2370 -0.5504  0.8281
  140MOL0     C18771   2.055  10.428   3.525  1.3732 -0.4154  0.8939
  140MOL0     C18772   2.081  10.484   3.655  0.0090  0.7128  0.7079
  140MOL0     O18773   2.196  10.540   3.700 -0.3222  0.2121  0.1933
  140MOL0     C18774   2.302  10.572   3.602 -0.3439  0.1652  0.3827
  140MOL0     C18775   2.414  10.647   3.679 -0.3308 -0.4416  0.6881
  140MOL0     C18776   2.553  10.628   3.632  0.7206  0.1273 -0.1904
  140MOL0     C18777   2.652  10.733   3.670  0.1716  1.1204 -0.0383
  140MOL0     C18778   2.796  10.681   3.651 -0.3919 -0.3527 -0.3378
  140MOL0     C18779   2.898  10.786   3.697 -0.6885 -0.3271 -0.7706
  140MOL0     C18780   3.048  10.741   3.665  0.3320 -0.0856 -0.1587
  140MOL0     C18781   3.069  10.754   3.506 -0.4459 -0.2980  0.1151
  140MOL0     N18782   3.201  10.809   3.471 -0.3148 -0.6372 -0.2126
  140MOL0     C18783   3.222  10.899   3.365 -0.2138  0.1591 -0.2053
  140MOL0     C18784   3.355  10.922   3.364  0.1394 -0.6770  0.4138
  140MOL0     C18785   3.449  11.001   3.274  0.3044  0.4647  0.7589
  140MOL0     C18786   3.385  11.072   3.157  0.2376 -0.8753 -0.1893
  140MOL0     C18787   3.490  11.147   3.069  0.2486 -0.8608 -0.1190
  140MOL0     C18788   3.601  11.230   3.123  0.8086  0.3566 -0.4985
  140MOL0     O18789   3.557  11.336   3.209  0.0519 -0.5382  0.7990
  140MOL0     C18790   3.661  11.404   3.281 -0.0924  1.0366  0.3707
  140MOL0     C18791   3.786  11.443   3.221  0.8848  1.1911 -0.3319
  140MOL0     C18792   3.884  11.496   3.303 -0.3577 -0.6635 -0.3838
  140MOL0     C18793   3.857  11.543   3.437  0.2474 -0.2406 -0.1987
  140MOL0     C18794   3.963  11.611   3.504 -0.8708 -0.6193 -0.4667
  140MOL0     O18795   3.926  11.655   3.626  0.1794 -0.8323 -0.4959
  140MOL0     C18796   4.027  11.731   3.685  0.5398  0.0188 -0.4562
  140MOL0     C18797   4.031  11.869   3.681  0.1487  0.7866 -0.1069
  140MOL0     C18798   4.129  11.950   3.750  0.5683 -0.2926 -0.5176
  140MOL0     C18799   4.210  11.890   3.845  0.2711  0.4166 -0.2138
  140MOL0     O18800   4.290  11.957   3.919 -0.2728 -0.4252 -0.3688
  140MOL0     C18801   4.414  11.985   3.853 -0.4760  0.3072  0.0131
  140MOL0     C18802   4.509  12.086   3.924 -0.0265 -0.4408  0.2148
  140MOL0     C18803   4.596  12.024   4.035  0.6874 -0.1312 -0.4400
  140MOL0     C18804   4.661  12.128   4.128  0.1859  0.0017  0.1911
  140MOL0     C18805   4.767  12.072   4.217 -0.3027 -0.3603  0.0739
  140MOL0     C18806   4.704  12.004   4.335 -0.6281  0.8922 -0.3765
  140MOL0     C18807   4.820  11.970   4.429  0.4119 -0.3021 -0.2359
  140MOL0     C18808   4.778  11.876   4.548 -0.2958 -0.8267  0.8216
  140MOL0    Cl18809   4.768  11.711   4.502 -0.4082 -0.0122 -0.2292
  140MOL0     C18810   4.216  11.748   3.843  0.5884 -0.6108  0.2490
  140MOL0     C18811   4.125  11.671   3.764 -0.7753 -0.4606  0.2615
  140MOL0     O18812   4.072  11.625   3.453  0.1507 -0.1668 -0.0436
  140MOL0     C18813   3.729  11.517   3.488  0.6146  1.2124  0.0381
  140MOL0     C18814   3.640  11.434   3.413  0.3517 -0.6908  0.1876
  140MOL0     N18815   3.416  10.840   3.457  0.6771 -0.0793 -0.4022
  140MOL0     N18816   3.323  10.776   3.522 -1.0161 -1.3555  0.2676
  140MOL0     C18817   1.982  10.449   3.756 -0.1457 -1.1601 -0.4513
  140MOL0     C18818   1.879  10.370   3.724  0.1325  0.7864  0.3676
  140MOL0     C18819   1.601  10.120   3.438 -0.0884  0.8404  0.8326
  140MOL0     C18820   1.542  10.123   3.318 -0.2302  0.5939 -0.7775
  140MOL0     C18821   1.487  10.006   3.249 -0.9030  0.5729 -0.5225
  140MOL0     C18822   1.483   9.889   3.329 -0.1228 -0.3923  0.0131
  140MOL0     O18823   1.437   9.772   3.275  0.5715  0.0954  0.6578
  140MOL0     C18824   1.377   9.779   3.141 -0.2302 -0.3197  0.7401
  140MOL0     C18825   1.357   9.656   3.055 -0.0715  0.6651  0.2537
  140MOL0     C18826   1.233   9.665   2.964  0.0809  0.0159 -0.8794
  140MOL0     C18827   1.180   9.531   2.915  0.0560 -0.9687  0.5352
  140MOL0     C18828   1.045   9.532   2.850  0.7736 -0.6225 -0.6046
  140MOL0     C18829   0.935   9.528   2.798  0.0741 -0.8366 -0.2933
  140MOL0     C18830   1.524   9.892   3.461 -0.1940 -0.3835  1.0415
  140MOL0     C18831   1.576  10.007   3.519  0.5122  0.1050 -1.2628
  140MOL0     C18832   1.607   9.999   3.661  0.2041  0.3872  0.6782
  140MOL0     H18833   1.944  10.310   3.399 -1.2029  1.7544 -0.1536
  140MOL0     H18834   2.122  10.454   3.444  0.8281 -2.4593 -0.2810
  140MOL0     H18835   2.343  10.479   3.561  2.9331  2.3869 -1.8197
  140MOL0     H18836   2.268  10.628   3.515  2.0572  0.0834 -0.6663
  140MOL0     H18837   2.412  10.627   3.786  0.1929  3.0165  1.4525
  140MOL0     H18838   2.373  10.746   3.659 -0.4390 -0.7055 -0.5244
  140MOL0     H18839   2.537  10.626   3.523 -0.2463  2.2942 -0.1372
  140MOL0     H18840   2.587  10.529   3.664 -1.7050 -0.5404  0.5946
  140MOL0     H18841   2.639  10.820   3.605  1.6888  0.2362 -1.6027
  140MOL0     H18842   2.644  10.762   3.775  1.3476  2.0999 -0.2051
  140MOL0     H18843   2.807  10.597   3.720 -0.7013 -2.9094 -3.1899
  140MOL0     H18844   2.822  10.655   3.548  3.8311 -2.0143  0.9146
  140MOL0     H18845   2.891  10.883   3.647  2.1831 -0.9746 -2.6640
  140MOL0     H18846   2.894  10.796   3.806 -1.5789  0.4367 -0.8587
  140MOL0     H18847   3.076  10.639   3.690  2.1691 -0.2693 -2.5685
  140MOL0     H18848   3.125  10.801   3.714 -0.3170  1.1999 -0.6432
  140MOL0     H18849   3.068  10.653   3.462  3.5375 -1.6190  2.5733
  140MOL0     H18850   2.994  10.825   3.468  0.1446  0.2201 -0.0831
  140MOL0     H18851   3.141  10.925   3.298 -2.5522 -1.5107  1.8045
  140MOL0     H18852   3.501  11.071   3.339 -1.1717  0.4547  1.9943
  140MOL0     H18853   3.525  10.936   3.227 -0.5778 -0.5593  0.7019
  140MOL0     H18854   3.331  11.001   3.094 -0.4771  0.5558 -1.2459
  140MOL0     H18855   3.307  11.140   3.191  0.5688  0.6991 -2.4105
  140MOL0     H18856   3.445  11.211   2.992  0.0400  0.1093  0.7772
  140MOL0     H18857   3.535  11.071   3.004 -1.3289  0.4858 -3.0050
  140MOL0     H18858   3.653  11.271   3.036  0.8046  0.1103 -0.6189
  140MOL0     H18859   3.672  11.162   3.171 -0.2688 -0.3426  0.1449
  140MOL0     H18860   3.819  11.416   3.121  2.4886  0.0880  0.4451
  140MOL0     H18861   3.975  11.515   3.247  0.1137 -0.4848  0.4271
  140MOL0     H18862   3.956  11.913   3.617 -1.0964  1.5570  1.8039
  140MOL0     H18863   4.122  12.058   3.754 -0.6750 -0.3808  0.0298
  140MOL0     H18864   4.476  11.896   3.844  1.5119  1.6145  0.1647
  140MOL0     H18865   4.394  12.023   3.752  1.5126 -2.2518 -1.4760
  140MOL0     H18866   4.581  12.136   3.859  0.5328  2.0218  2.5092
  140MOL0     H18867   4.444  12.171   3.947 -1.5891 -0.2504 -4.0959
  140MOL0     H18868   4.541  11.956   4.101  1.5425 -1.0035 -0.5880
  140MOL0     H18869   4.663  11.953   3.986 -0.2234 -0.5163 -1.1502
  140MOL0     H18870   4.586  12.187   4.182  1.4786  0.8585  1.1162
  140MOL0     H18871   4.724  12.199   4.073  0.5880 -2.1485 -2.2882
  140MOL0     H18872   4.827  12.154   4.257  1.1031 -1.6399  0.7041
  140MOL0     H18873   4.836  12.003   4.166  0.8969  0.1446  0.9881
  140MOL0     H18874   4.640  12.075   4.387  1.6167 -0.0953  4.2573
  140MOL0     H18875   4.645  11.916   4.307  0.2416  0.1285  0.1312
  140MOL0     H18876   4.874  12.058   4.464  0.8511 -0.2207 -1.1067
  140MOL0     H18877   4.897  11.912   4.376  0.3994 -2.3067  1.7584
  140MOL0     H18878   4.855  11.883   4.626  2.1920  0.2502 -1.5464
  140MOL0     H18879   4.677  11.904   4.578 -1.2341 -1.5863 -1.4767
  140MOL0     H18880   4.287  11.691   3.903 -0.5194 -0.6586  1.5527
  140MOL0     H18881   4.135  11.564   3.778  0.9816 -0.8411 -3.0432
  140MOL0     H18882   3.701  11.556   3.585 -0.5360 -3.2787  1.7835
  140MOL0     H18883   3.542  11.413   3.455  0.8639  0.5235  2.0951
  140MOL0     H18884   1.996  10.497   3.852 -1.2236 -0.2582 -0.7288
  140MOL0     H18885   1.800  10.359   3.798 -1.7513  1.6071 -1.4338
  140MOL0     H18886   1.530  10.216   3.263 -0.5096  1.1815  0.2396
  140MOL0     H18887   1.447  10.032   3.152 -0.4498 -0.9581 -1.1507
  140MOL0     H18888   1.442   9.839   3.076 -0.9054 -3.6392 -3.4530
  140MOL0     H18889   1.287   9.840   3.150 -1.2763 -1.2947 -1.9659
  140MOL0     H18890   1.346   9.571   3.124  1.9251 -0.6238 -0.8951
  140MOL0     H18891   1.439   9.646   2.983  1.4301 -1.7569  2.1520
  140MOL0     H18892   1.250   9.729   2.876  1.8249  0.0442 -0.5597
  140MOL0     H18893   1.148   9.700   3.024 -0.3654 -1.3427 -0.6985
  140MOL0     H18894   1.244   9.501   2.832  0.0390 -5.1010  1.7867
  140MOL0     H18895   1.178   9.467   3.004  1.4094 -1.8977 -0.0695
  140MOL0     H18896   0.839   9.522   2.751  0.0363  2.1513 -0.8000
  140MOL0     H18897   1.534   9.798   3.515  2.0908 -3.1022 -3.5261
  140MOL0     H18898   1.712   9.979   3.684 -0.1397 -2.1974  0.2206
  140MOL0     H18899   1.592  10.098   3.705 -0.2308  0.1465  1.0709
  140MOL0     H18900   1.557   9.915   3.710  2.0695 -0.9241  0.4406
  141MOL0     O18901   2.099   3.083   1.845  1.0732  0.2240 -0.1052
  141MOL0     C18902   2.125   3.199   1.826 -0.0780  0.2870  0.6030
  141MOL0     O18903   2.228   3.244   1.747  0.0141 -0.4821  0.5006
  141MOL0     C18904   2.293   3.149   1.668 -0.3395 -0.0746 -1.0529
  141MOL0     C18905   2.391   3.072   1.722 -0.9800  0.5030  0.9112
  141MOL0     C18906   2.458   2.976   1.641 -0.4764  0.7065 -0.1521
  141MOL0     C18907   2.433   2.959   1.503 -0.1438  0.0050  0.0487
  141MOL0     O18908   2.497   2.846   1.436  0.3252  0.0986 -1.2447
  141MOL0     C18909   2.458   2.820   1.303 -1.2287  0.4311 -0.4988
  141MOL0     C18910   2.478   2.685   1.252  0.5004  0.8439 -0.3023
  141MOL0     C18911   2.381   2.586   1.325 -0.4230 -1.0614 -0.2090
  141MOL0     C18912   2.399   2.441   1.283  0.4899  0.6944 -0.5123
  141MOL0     C18913   2.301   2.349   1.357  0.8450 -0.1361 -0.0428
  141MOL0     C18914   2.345   2.201   1.366 -1.1658  0.4692  0.2109
  141MOL0     C18915   2.224   2.111   1.390 -0.9988 -0.2480 -0.0826
  141MOL0     C18916   2.264   1.981   1.458 -0.0642  0.4240  0.8837
  141MOL0     N18917   2.338   1.892   1.359  0.0133 -0.5053  0.9121
  141MOL0     C18918   2.276   1.787   1.292 -0.4285 -0.6148  0.1176
  141MOL0     C18919   2.377   1.731   1.224  1.0518 -0.2647 -0.3497
  141MOL0     C18920   2.366   1.610   1.139  0.5672 -0.0986  0.7029
  141MOL0     C18921   2.331   1.626   0.992  0.3197 -0.0439 -0.7726
  141MOL0     C18922   2.357   1.500   0.908  0.1380  0.0614  0.4379
  141MOL0     C18923   2.321   1.536   0.759 -0.6057 -0.0827  0.3272
  141MOL0     O18924   2.422   1.627   0.702  0.1899  0.6092  0.5165
  141MOL0     C18925   2.391   1.673   0.572 -0.3128  0.4543  0.5549
  141MOL0     C18926   2.500   1.732   0.511  0.1381  0.6274  1.1772
  141MOL0     C18927   2.490   1.776   0.369  0.0804 -0.8027 -0.8079
  141MOL0     C18928   2.363   1.788   0.309  0.6495 -1.0520 -0.9736
  141MOL0     C18929   2.341   1.864   0.178 -0.4520 -0.3505 -0.3239
  141MOL0     O18930   2.448   1.946   0.129  0.0185 -0.2039 -0.5392
  141MOL0     C18931   2.419   2.030   0.027  0.7624 -0.5241  1.4738
  141MOL0     C18932   2.524   2.065  -0.058  0.3484 -0.4660  0.1322
  141MOL0     C18933   2.505   2.154  -0.169 -0.7318 -0.2599 -0.2573
  141MOL0     C18934   2.393   2.235  -0.161  0.5151 -0.5497  0.2259
  141MOL0     O18935   2.355   2.339  -0.245 -0.2533 -0.0295 -0.5830
  141MOL0     C18936   2.334   2.473  -0.184 -0.0798 -0.4189 -0.0448
  141MOL0     C18937   2.197   2.539  -0.223 -0.4270 -0.0606 -0.2252
  141MOL0     C18938   2.187   2.678  -0.156 -0.5141  0.3650  0.7093
  141MOL0     C18939   2.095   2.782  -0.239  0.4443 -0.0274  0.4809
  141MOL0     C18940   2.173   2.884  -0.318  0.3641 -0.1343  0.4830
  141MOL0     C18941   2.093   3.006  -0.371 -0.4806 -0.6633 -0.9219
  141MOL0     C18942   1.998   2.964  -0.492  0.1354  0.0111  0.3401
  141MOL0     C18943   1.933   3.094  -0.536  0.7444  0.6917 -0.9299
  141MOL0    Cl18944   1.820   3.157  -0.405 -0.0991 -0.0236 -0.1251
  141MOL0     C18945   2.288   2.208  -0.070  0.3593  0.2942  0.6141
  141MOL0     C18946   2.304   2.109   0.018 -0.0101 -0.5345  0.2085
  141MOL0     O18947   2.230   1.860   0.132  0.0990  0.1218  0.1183
  141MOL0     C18948   2.255   1.728   0.372 -0.6388  0.3849  0.3090
  141MOL0     C18949   2.261   1.679   0.501 -0.4436 -0.1494 -0.4934
  141MOL0     N18950   2.504   1.793   1.257  0.3114  0.2278 -0.2235
  141MOL0     N18951   2.474   1.882   1.344 -0.2639  0.1328 -0.2723
  141MOL0     C18952   2.341   3.056   1.445  0.5635 -0.3334  0.6520
  141MOL0     C18953   2.271   3.149   1.529 -0.3277  0.2147  0.5945
  141MOL0     C18954   2.043   3.302   1.884  0.4520 -0.2421  0.5896
  141MOL0     C18955   2.105   3.426   1.924 -0.9197 -0.3206 -0.0046
  141MOL0     C18956   2.031   3.535   1.973 -1.0084  0.2025 -0.1400
  141MOL0     C18957   1.889   3.527   1.983 -0.1578 -0.2008 -0.3270
  141MOL0     O18958   1.805   3.626   2.007 -0.2571  0.6469  0.2530
  141MOL0     C18959   1.859   3.756   2.044 -0.9798 -0.4860  0.5833
  141MOL0     C18960   1.889   3.843   1.920 -1.0877  0.3528 -0.0211
  141MOL0     C18961   1.755   3.869   1.848  1.0660  0.5115  0.4576
  141MOL0     C18962   1.751   3.968   1.730 -0.5250  0.6843  0.1557
  141MOL0     C18963   1.826   3.911   1.618 -0.2036 -0.4990 -0.2337
  141MOL0     C18964   1.889   3.858   1.530  0.3002  0.0636 -0.7006
  141MOL0     C18965   1.830   3.407   1.947 -0.6102 -0.1958  0.9086
  141MOL0     C18966   1.902   3.294   1.893 -0.7053  0.2454 -0.5704
  141MOL0     C18967   1.820   3.175   1.836 -0.6312 -0.9731  0.1076
  141MOL0     H18968   2.419   3.076   1.827  2.3043 -2.5788  0.3342
  141MOL0     H18969   2.521   2.905   1.694 -1.1754 -0.1593 -0.4590
  141MOL0     H18970   2.352   2.845   1.291 -0.5322  4.0155 -0.2176
  141MOL0     H18971   2.508   2.890   1.236 -1.4605 -1.0548 -2.2906
  141MOL0     H18972   2.578   2.643   1.266  0.4708  0.8203 -0.1544
  141MOL0     H18973   2.452   2.683   1.146  0.9429 -1.8973 -0.4233
  141MOL0     H18974   2.282   2.616   1.289 -0.0319  1.3616  0.5554
  141MOL0     H18975   2.392   2.598   1.433  0.7300  4.3976 -0.6459
  141MOL0     H18976   2.376   2.421   1.178  0.0107 -0.7862 -0.1544
  141MOL0     H18977   2.498   2.404   1.313 -1.4389 -2.6793  2.5091
  141MOL0     H18978   2.280   2.377   1.461 -0.3814 -1.0610 -0.0145
  141MOL0     H18979   2.204   2.365   1.308 -1.0477 -0.1382  3.3713
  141MOL0     H18980   2.374   2.176   1.263 -1.7887  1.9542 -0.3597
  141MOL0     H18981   2.424   2.186   1.440 -1.8270 -0.9818  0.6737
  141MOL0     H18982   2.185   2.089   1.290 -0.6917  2.1873 -0.8051
  141MOL0     H18983   2.150   2.162   1.453 -0.6897 -1.8923  1.6767
  141MOL0     H18984   2.328   2.021   1.537 -2.4047  0.6654  2.7596
  141MOL0     H18985   2.183   1.931   1.511 -0.5282  0.2565  0.0290
  141MOL0     H18986   2.173   1.753   1.292 -0.6179 -0.1525 -2.2834
  141MOL0     H18987   2.453   1.543   1.142 -2.7077 -4.7623  2.7816
  141MOL0     H18988   2.289   1.553   1.191 -2.3371  1.8869 -1.1351
  141MOL0     H18989   2.224   1.648   0.993  0.1958 -0.5304  1.3962
  141MOL0     H18990   2.392   1.708   0.952 -2.0067  0.9300 -2.6187
  141MOL0     H18991   2.301   1.415   0.948  1.1383 -1.0616 -0.4573
  141MOL0     H18992   2.465   1.482   0.914  0.7119  2.8911  0.1207
  141MOL0     H18993   2.217   1.570   0.756 -0.0351  2.0822  2.5027
  141MOL0     H18994   2.322   1.444   0.700 -4.7242  0.4829 -0.9144
  141MOL0     H18995   2.596   1.720   0.560 -0.5167  0.7030  2.5481
  141MOL0     H18996   2.583   1.815   0.328  0.9945 -0.6445  1.2939
  141MOL0     H18997   2.616   2.008  -0.047  0.2828 -0.6070 -0.0415
  141MOL0     H18998   2.590   2.168  -0.234  0.2532 -3.7222  0.1298
  141MOL0     H18999   2.350   2.461  -0.076 -1.1023  0.9691  0.3000
  141MOL0     H19000   2.408   2.545  -0.220  1.7303 -0.1223  3.7957
  141MOL0     H19001   2.183   2.554  -0.330 -2.0977  0.0038 -0.0286
  141MOL0     H19002   2.109   2.482  -0.191  0.1381 -1.8445 -1.6904
  141MOL0     H19003   2.132   2.665  -0.063 -2.0912  0.0634 -0.2295
  141MOL0     H19004   2.289   2.716  -0.143 -0.3654 -0.5477  2.3460
  141MOL0     H19005   2.026   2.833  -0.171 -0.6788  0.8120 -1.2392
  141MOL0     H19006   2.036   2.716  -0.302 -1.8622  3.1355 -0.9113
  141MOL0     H19007   2.235   2.838  -0.395  0.3529 -0.9780  0.9567
  141MOL0     H19008   2.231   2.937  -0.242 -0.8894  2.2644 -0.1327
  141MOL0     H19009   2.038   3.058  -0.293  0.1855  0.6710 -1.3024
  141MOL0     H19010   2.160   3.086  -0.407 -1.3748  1.4592  1.8038
  141MOL0     H19011   1.918   2.904  -0.449  0.6515 -1.8731 -1.2095
  141MOL0     H19012   2.039   2.920  -0.583 -0.7410 -2.3338  1.0108
  141MOL0     H19013   2.012   3.168  -0.551  1.2841  0.4107  0.3768
  141MOL0     H19014   1.878   3.087  -0.630  2.1113 -1.7266 -1.6336
  141MOL0     H19015   2.192   2.259  -0.075 -0.7800 -1.8454 -0.3291
  141MOL0     H19016   2.231   2.094   0.098 -1.3223 -1.7627 -1.1581
  141MOL0     H19017   2.162   1.717   0.316 -1.6373 -1.6456  2.2231
  141MOL0     H19018   2.168   1.643   0.544  0.5374  0.4723  2.3402
  141MOL0     H19019   2.326   3.059   1.338 -0.9710  2.0802  0.8519
  141MOL0     H19020   2.213   3.231   1.489  1.1672  0.8549 -0.3161
  141MOL0     H19021   2.213   3.428   1.935 -1.1680  1.7428  4.2401
  141MOL0     H19022   2.088   3.625   1.991  0.4605 -1.1419  2.6045
  141MOL0     H19023   1.955   3.751   2.097  0.7803  4.7497 -1.5183
  141MOL0     H19024   1.788   3.818   2.100 -2.9044 -1.5442 -0.5615
  141MOL0     H19025   1.962   3.798   1.852 -1.4771 -0.3987  0.0379
  141MOL0     H19026   1.932   3.937   1.954  0.5424 -0.1433 -0.6197
  141MOL0     H19027   1.685   3.903   1.925  0.0171 -0.5166 -0.0167
  141MOL0     H19028   1.723   3.773   1.808 -2.7142  0.9620  2.0238
  141MOL0     H19029   1.647   3.996   1.709 -0.2078  0.6530 -1.6503
  141MOL0     H19030   1.797   4.063   1.760 -0.2531 -0.1095  2.4082
  141MOL0     H19031   1.953   3.835   1.448  2.1027 -1.0412  0.9187
  141MOL0     H19032   1.722   3.403   1.937 -0.3985 -0.6307 -2.5487
  141MOL0     H19033   1.714   3.202   1.844 -0.4552 -0.2085 -0.0687
  141MOL0     H19034   1.861   3.149   1.738  0.1024  2.9654 -0.8056
  141MOL0     H19035   1.829   3.087   1.900 -0.1472 -1.5431 -0.7223
  142MOL0     O19036   9.508   9.403  11.348 -0.7042 -0.4392  0.2496
  142MOL0     C19037   9.511   9.326  11.254 -0.0159  0.7582 -0.8690
  142MOL0     O19038   9.628   9.279  11.199 -0.8164 -0.5218 -0.0748
  142MOL0     C19039   9.745   9.351  11.224  0.5327 -0.4661  1.1519
  142MOL0     C19040   9.863   9.275  11.244  0.9300 -0.5035  0.6688
  142MOL0     C19041   9.982   9.345  11.270  0.8197  0.5090 -0.7444
  142MOL0     C19042   9.991   9.485  11.274 -0.1064  1.4260  0.3503
  142MOL0     O19043  10.113   9.538  11.318  0.1004  0.4136 -0.5683
  142MOL0     C19044  10.173   9.647  11.245 -0.6662  0.0923 -0.3512
  142MOL0     C19045  10.267   9.731  11.339  1.1455 -0.2706 -0.2225
  142MOL0     C19046  10.231   9.731  11.489  0.1486 -0.6493 -1.3662
  142MOL0     C19047  10.297   9.849  11.556  1.1259 -0.2332 -1.2032
  142MOL0     C19048  10.290   9.857  11.715  0.2049 -0.0984 -0.1141
  142MOL0     C19049  10.150   9.843  11.785 -0.2058  0.2408  0.2038
  142MOL0     C19050  10.151   9.885  11.924 -0.1822  0.0808 -0.3901
  142MOL0     C19051  10.017   9.860  11.988  0.4349  0.1425  0.7233
  142MOL0     N19052   9.937   9.979  11.985  0.1210 -0.3962 -1.0325
  142MOL0     C19053   9.863  10.027  11.875  1.0127  0.1082 -0.1366
  142MOL0     C19054   9.829  10.154  11.919  0.2378 -0.9098  0.5461
  142MOL0     C19055   9.736  10.245  11.841  0.2404 -0.1345  0.1404
  142MOL0     C19056   9.790  10.265  11.702 -0.5526  0.3650  0.0131
  142MOL0     C19057   9.940  10.297  11.700  0.5477 -0.1864  0.7578
  142MOL0     C19058   9.986  10.435  11.760 -0.5551  0.1929 -0.2663
  142MOL0     O19059  10.133  10.453  11.753  1.3409  0.7664 -0.9564
  142MOL0     C19060  10.188  10.576  11.748 -0.0782 -0.3479 -0.7176
  142MOL0     C19061  10.115  10.696  11.764  0.1399 -1.2474 -0.6899
  142MOL0     C19062  10.179  10.818  11.752  0.0280 -0.6972 -0.7949
  142MOL0     C19063  10.316  10.823  11.709  0.6620  0.4598  0.0423
  142MOL0     C19064  10.388  10.949  11.679  0.0027  0.1302  0.2671
  142MOL0     O19065  10.317  11.056  11.707 -0.3255 -0.1865  0.1127
  142MOL0     C19066  10.368  11.177  11.665  0.0011  0.6201  0.7993
  142MOL0     C19067  10.375  11.272  11.764  0.4245  0.0911  0.2671
  142MOL0     C19068  10.407  11.404  11.736 -1.2780 -0.4546 -0.3603
  142MOL0     C19069  10.435  11.451  11.607 -0.2863 -0.1597  0.0398
  142MOL0     O19070  10.494  11.577  11.587  0.8049  0.0361 -1.1429
  142MOL0     C19071  10.534  11.614  11.454  0.0228  0.8307 -0.1267
  142MOL0     C19072  10.626  11.744  11.453  0.0051  0.7094  0.3796
  142MOL0     C19073  10.571  11.850  11.558  0.4364 -0.4107  0.0414
  142MOL0     C19074  10.431  11.903  11.519 -0.0450  0.3276 -0.3432
  142MOL0     C19075  10.369  12.015  11.613  0.7781  0.7552  0.0292
  142MOL0     C19076  10.400  12.151  11.550  0.0992  0.5531  0.4722
  142MOL0     C19077  10.290  12.187  11.459 -0.8650 -0.2463  0.2162
  142MOL0     C19078  10.316  12.326  11.391  0.3849  0.4784 -0.0452
  142MOL0    Cl19079  10.413  12.289  11.245  0.1231  0.2501 -0.1874
  142MOL0     C19080  10.411  11.362  11.505  0.6110  0.2160  0.3228
  142MOL0     C19081  10.385  11.221  11.527  1.1664 -0.3088  0.7242
  142MOL0     O19082  10.505  10.946  11.646  0.2425  0.6444 -0.0062
  142MOL0     C19083  10.389  10.701  11.697 -0.3466  0.0123 -1.1424
  142MOL0     C19084  10.327  10.582  11.714  0.3106 -0.6920  0.6356
  142MOL0     N19085   9.889  10.181  12.036 -0.0564 -0.6749  0.1794
  142MOL0     N19086   9.960  10.086  12.080 -0.9526  0.0489  0.7644
  142MOL0     C19087   9.868   9.548  11.239  0.2782  0.2734  0.4789
  142MOL0     C19088   9.744   9.493  11.219 -0.0447 -0.0269  0.6951
  142MOL0     C19089   9.381   9.253  11.225 -0.0272 -0.6022 -1.0114
  142MOL0     C19090   9.376   9.187  11.103 -0.9246 -0.3784 -0.5822
  142MOL0     C19091   9.268   9.102  11.065  0.1408 -1.2037 -0.6695
  142MOL0     C19092   9.158   9.093  11.150  0.0019  0.1414  0.7948
  142MOL0     O19093   9.048   9.012  11.132  0.2911 -0.0018 -0.0774
  142MOL0     C19094   9.024   8.959  10.997  0.1945  0.0405  0.5139
  142MOL0     C19095   8.878   8.906  10.972 -0.8052 -0.7638 -0.3717
  142MOL0     C19096   8.848   8.777  11.065  0.0868 -1.3854  0.2745
  142MOL0     C19097   8.722   8.721  11.019  0.1431  0.3171  0.2972
  142MOL0     C19098   8.612   8.810  11.032  0.4011 -0.1724  0.1945
  142MOL0     C19099   8.521   8.883  11.066  0.1449  0.1039  0.0125
  142MOL0     C19100   9.163   9.164  11.270  1.0818 -0.8635  0.3889
  142MOL0     C19101   9.268   9.231  11.314 -1.0500 -0.6112 -0.0528
  142MOL0     C19102   9.254   9.286  11.458 -0.9200 -1.2114 -0.2350
  142MOL0     H19103   9.845   9.168  11.244 -2.6969 -0.0124 -0.1841
  142MOL0     H19104  10.064   9.283  11.305  1.4308  0.5922 -1.9514
  142MOL0     H19105  10.228   9.600  11.163  1.1855 -1.9328  1.8992
  142MOL0     H19106  10.101   9.716  11.199 -0.2349 -0.1076 -1.3658
  142MOL0     H19107  10.266   9.828  11.290 -0.3911  0.1712  0.6268
  142MOL0     H19108  10.371   9.698  11.324  1.2479 -0.3395  0.5728
  142MOL0     H19109  10.253   9.643  11.549 -0.6249 -0.0201 -0.1316
  142MOL0     H19110  10.123   9.746  11.500  0.4069  0.1545  0.3091
  142MOL0     H19111  10.404   9.839  11.538  1.4551 -0.7195  0.7573
  142MOL0     H19112  10.252   9.939  11.515  0.4406 -0.4651 -0.9827
  142MOL0     H19113  10.350   9.774  11.753 -0.9735 -1.7676 -1.6832
  142MOL0     H19114  10.339   9.950  11.743  1.9387 -1.1782  0.5921
  142MOL0     H19115  10.077   9.899  11.727  0.5128  1.9526  0.8935
  142MOL0     H19116  10.131   9.736  11.794  1.5780 -0.0530  0.8965
  142MOL0     H19117  10.163   9.992  11.944  2.0372 -0.7264  3.7552
  142MOL0     H19118  10.229   9.835  11.982 -0.1236 -0.2232 -0.7290
  142MOL0     H19119   9.951   9.789  11.936 -2.7403  2.9842  0.5582
  142MOL0     H19120  10.028   9.819  12.089  1.8260 -1.2647  0.0498
  142MOL0     H19121   9.836   9.984  11.779  0.2115  0.2260  0.0344
  142MOL0     H19122   9.633  10.211  11.858 -0.4356  1.1724 -1.1706
  142MOL0     H19123   9.737  10.336  11.902  2.1192 -2.0184  3.2512
  142MOL0     H19124   9.803  10.162  11.668  1.3681 -0.4769  2.8380
  142MOL0     H19125   9.732  10.321  11.628  1.7122  4.1551  0.8398
  142MOL0     H19126   9.964  10.308  11.593  0.7681 -1.2539  0.6780
  142MOL0     H19127  10.001  10.219  11.748 -2.1718 -2.0519  1.4014
  142MOL0     H19128   9.965  10.430  11.868  1.2907 -0.0743  0.1105
  142MOL0     H19129   9.930  10.518  11.716 -2.0567  0.5501  2.1173
  142MOL0     H19130  10.010  10.704  11.792  0.0898 -1.1793 -0.8937
  142MOL0     H19131  10.122  10.905  11.780  2.9560  0.7792  1.0667
  142MOL0     H19132  10.370  11.239  11.867  0.3235 -1.5156 -0.2255
  142MOL0     H19133  10.425  11.486  11.804 -2.9420  1.9502 -2.6105
  142MOL0     H19134  10.598  11.531  11.422  0.3240  0.2259  1.9247
  142MOL0     H19135  10.443  11.643  11.402  2.0756  3.2821 -2.7351
  142MOL0     H19136  10.725  11.708  11.482 -0.2466  0.3492  0.7944
  142MOL0     H19137  10.630  11.791  11.355 -0.3160  0.2472  0.1410
  142MOL0     H19138  10.563  11.802  11.656  1.7399 -2.2307 -0.6885
  142MOL0     H19139  10.640  11.934  11.573  2.2555 -2.1843  2.5917
  142MOL0     H19140  10.365  11.816  11.517  2.3679 -1.6372  0.8172
  142MOL0     H19141  10.440  11.954  11.422 -1.0879  3.9450  1.2663
  142MOL0     H19142  10.415  12.004  11.711  2.0443  2.3702 -0.3512
  142MOL0     H19143  10.259  12.013  11.614  0.7745  0.6011 -0.3303
  142MOL0     H19144  10.402  12.220  11.635 -1.0694  0.8897  0.2503
  142MOL0     H19145  10.495  12.150  11.497  0.1784  0.4720  0.6146
  142MOL0     H19146  10.199  12.203  11.516  0.7543  2.3690  2.2875
  142MOL0     H19147  10.278  12.105  11.387  0.5512 -0.5487  0.2842
  142MOL0     H19148  10.219  12.364  11.359 -1.4912 -2.3310  1.7949
  142MOL0     H19149  10.378  12.394  11.450 -0.3369  2.1792 -1.1799
  142MOL0     H19150  10.414  11.385  11.399 -0.9527 -2.3006 -0.3286
  142MOL0     H19151  10.367  11.154  11.444  4.1986  0.4874 -0.7199
  142MOL0     H19152  10.492  10.704  11.662  0.1191 -1.1566  0.0324
  142MOL0     H19153  10.381  10.490  11.694 -1.4951 -1.2637 -2.2351
  142MOL0     H19154   9.856   9.654  11.219 -5.2246 -0.5697 -2.9297
  142MOL0     H19155   9.657   9.547  11.181 -1.9767 -4.1469 -1.4264
  142MOL0     H19156   9.458   9.199  11.034 -0.3844  1.4341  0.3236
  142MOL0     H19157   9.276   9.053  10.969 -1.3860 -2.8192 -0.0137
  142MOL0     H19158   9.094   8.877  10.980 -1.9095 -1.9070  0.8080
  142MOL0     H19159   9.037   9.041  10.925 -0.1697  2.2917  2.8391
  142MOL0     H19160   8.877   8.876  10.867  3.4818  2.9275 -1.8129
  142MOL0     H19161   8.801   8.983  10.982  0.6509  0.4514  3.0758
  142MOL0     H19162   8.844   8.807  11.170  1.0220  0.0112 -0.0476
  142MOL0     H19163   8.929   8.706  11.076  0.5336 -0.6734  1.9229
  142MOL0     H19164   8.725   8.698  10.912 -2.2456  0.2341  0.2005
  142MOL0     H19165   8.695   8.630  11.073 -2.0291  0.6591 -0.1340
  142MOL0     H19166   8.446   8.951  11.099 -0.4803 -1.0274  0.9763
  142MOL0     H19167   9.083   9.134  11.337 -1.9972  0.4019 -2.4660
  142MOL0     H19168   9.150   9.294  11.491 -1.6967  1.6982 -2.9459
  142MOL0     H19169   9.317   9.227  11.526 -0.7521  0.3344  1.0046
  142MOL0     H19170   9.293   9.388  11.466 -1.0043 -0.7339 -4.1703
  143MOL0     O19171   6.211   4.651   1.117  0.5149  0.7632  0.7376
  143MOL0     C19172   6.316   4.634   1.056 -0.6210  0.6479  0.7438
  143MOL0     O19173   6.374   4.722   0.967 -0.2101  0.1909  0.1432
  143MOL0     C19174   6.319   4.848   0.964 -0.2396 -0.0317  1.6119
  143MOL0     C19175   6.364   4.938   1.061  0.7117  0.2301 -0.2165
  143MOL0     C19176   6.296   5.056   1.068 -0.0847 -0.6627  0.2621
  143MOL0     C19177   6.208   5.096   0.969  0.1625  0.2709  0.0935
  143MOL0     O19178   6.152   5.219   0.956 -0.3027  0.2261 -0.4075
  143MOL0     C19179   6.251   5.327   0.974  0.1926  0.9421  0.4845
  143MOL0     C19180   6.192   5.456   0.919  0.8973  0.1556 -0.8699
  143MOL0     C19181   6.137   5.553   1.024  0.7017  0.5736  0.0859
  143MOL0     C19182   6.039   5.494   1.122  0.1567 -1.0489  0.5808
  143MOL0     C19183   5.987   5.612   1.214  0.5236  0.3899  0.2445
  143MOL0     C19184   5.896   5.566   1.332  1.0124  0.4688  0.1572
  143MOL0     C19185   5.744   5.544   1.304 -0.7949 -0.3318  0.6079
  143MOL0     C19186   5.670   5.667   1.245 -0.0091 -0.0104 -0.1840
  143MOL0     N19187   5.525   5.648   1.256  0.4309 -0.6185 -1.0991
  143MOL0     C19188   5.431   5.727   1.319 -0.5317  0.5034 -0.2038
  143MOL0     C19189   5.313   5.658   1.314 -0.4635 -0.4724  0.3442
  143MOL0     C19190   5.179   5.685   1.371 -0.5204 -0.8433  0.4644
  143MOL0     C19191   5.144   5.581   1.466  0.1787  0.3020  0.5483
  143MOL0     C19192   5.002   5.605   1.531 -0.7506 -0.2243  0.2096
  143MOL0     C19193   4.995   5.716   1.627 -0.0566  0.4510  0.1633
  143MOL0     O19194   4.859   5.705   1.677 -0.2194 -0.2153 -0.3766
  143MOL0     C19195   4.808   5.813   1.754  0.0794  0.1064  0.1604
  143MOL0     C19196   4.875   5.908   1.822  0.6510  0.1842  0.8438
  143MOL0     C19197   4.813   6.013   1.891  0.8069  0.1795  0.0463
  143MOL0     C19198   4.666   6.017   1.893 -0.0950 -1.2441  0.2258
  143MOL0     C19199   4.605   6.129   1.958 -0.0579 -0.1086 -0.6525
  143MOL0     O19200   4.491   6.166   1.895 -0.6566 -0.3093  0.3451
  143MOL0     C19201   4.404   6.261   1.950 -1.2292  0.7083 -0.7051
  143MOL0     C19202   4.344   6.354   1.864  0.2895  0.5700 -0.5089
  143MOL0     C19203   4.256   6.456   1.918 -0.9053  0.0137  0.6251
  143MOL0     C19204   4.228   6.462   2.057 -0.1369  0.2453  0.2022
  143MOL0     O19205   4.130   6.548   2.103 -0.3492 -0.1618  0.1176
  143MOL0     C19206   4.042   6.518   2.213 -0.3005 -0.7542 -0.9666
  143MOL0     C19207   3.937   6.418   2.169 -0.1230 -0.4548 -0.2124
  143MOL0     C19208   3.832   6.386   2.284 -0.4999  0.6510 -0.1616
  143MOL0     C19209   3.745   6.257   2.270  0.0469  0.3540  0.4667
  143MOL0     C19210   3.671   6.251   2.402  0.5763  0.7661 -1.3206
  143MOL0     C19211   3.592   6.122   2.427  0.8888  0.2270  0.2389
  143MOL0     C19212   3.554   6.106   2.576 -1.1981 -0.5309 -0.0667
  143MOL0     C19213   3.484   5.975   2.612 -0.5000 -0.5088 -0.3554
  143MOL0    Cl19214   3.586   5.833   2.554 -0.1130 -0.3760  0.0510
  143MOL0     C19215   4.293   6.370   2.145  0.1837  0.5142 -0.4904
  143MOL0     C19216   4.384   6.278   2.091  0.2191 -0.6496  0.2569
  143MOL0     O19217   4.658   6.189   2.054  1.1887  0.3422 -0.1416
  143MOL0     C19218   4.599   5.921   1.831  0.3864  0.2716  1.1033
  143MOL0     C19219   4.666   5.816   1.769  0.2351 -0.3512 -0.1265
  143MOL0     N19220   5.334   5.549   1.232  0.0087  0.0715  0.1671
  143MOL0     N19221   5.460   5.540   1.199 -0.4492 -0.8687 -0.5885
  143MOL0     C19222   6.152   5.007   0.881  0.0463  0.0468  0.9384
  143MOL0     C19223   6.212   4.876   0.874 -0.5065  0.3964  0.2680
  143MOL0     C19224   6.397   4.502   1.073 -0.4523  0.1855 -0.6858
  143MOL0     C19225   6.525   4.482   1.008 -0.2930 -0.8567  0.3029
  143MOL0     C19226   6.590   4.364   1.013 -0.1808  0.6481  0.3182
  143MOL0     C19227   6.539   4.252   1.081  0.4553 -0.7005 -0.3951
  143MOL0     O19228   6.618   4.146   1.102  0.1411  0.6014 -0.3484
  143MOL0     C19229   6.655   4.113   1.238  0.3725 -0.2958  0.2659
  143MOL0     C19230   6.804   4.092   1.242 -1.1377 -0.1573 -0.4382
  143MOL0     C19231   6.851   4.063   1.384 -0.4945  1.4465 -0.1673
  143MOL0     C19232   6.930   4.173   1.462  0.0108  0.1616  0.2523
  143MOL0     C19233   6.854   4.298   1.468 -0.1374  0.4618 -0.5924
  143MOL0     C19234   6.806   4.405   1.492  0.8404 -0.3545  0.2590
  143MOL0     C19235   6.416   4.266   1.133  0.2498  0.0102  0.0360
  143MOL0     C19236   6.342   4.384   1.122 -0.5240  0.2109  0.0510
  143MOL0     C19237   6.195   4.387   1.168  0.6530  0.5828  0.4026
  143MOL0     H19238   6.430   4.915   1.145  1.2301  1.4127 -0.2757
  143MOL0     H19239   6.319   5.127   1.147 -4.0401  4.4393 -2.6263
  143MOL0     H19240   6.286   5.329   1.077 -0.1858 -1.9699  0.7298
  143MOL0     H19241   6.344   5.319   0.917 -0.4042 -1.0901 -0.2876
  143MOL0     H19242   6.120   5.434   0.840  3.0907 -0.5481 -2.7710
  143MOL0     H19243   6.270   5.515   0.871 -0.6266  1.9250 -1.2707
  143MOL0     H19244   6.077   5.621   0.963  0.4298 -0.5841 -0.9939
  143MOL0     H19245   6.224   5.600   1.070  0.7904 -0.1754  0.7036
  143MOL0     H19246   5.947   5.460   1.072 -0.6958  0.9197  0.7314
  143MOL0     H19247   6.084   5.415   1.183  3.8891  1.6454  1.6576
  143MOL0     H19248   6.078   5.647   1.262  0.5309  1.0418 -0.2327
  143MOL0     H19249   5.947   5.696   1.156 -0.4420  0.7963  1.4626
  143MOL0     H19250   5.943   5.471   1.361  1.5387  0.2019 -1.4422
  143MOL0     H19251   5.891   5.642   1.410 -0.0108  0.6235 -0.0520
  143MOL0     H19252   5.688   5.512   1.393  0.9243  0.2586  1.9683
  143MOL0     H19253   5.738   5.453   1.243  0.6702 -0.9932  1.3917
  143MOL0     H19254   5.689   5.762   1.296  0.1054  0.7856 -1.6704
  143MOL0     H19255   5.698   5.686   1.141  0.7490 -3.6908 -0.7876
  143MOL0     H19256   5.460   5.808   1.384 -2.6208  0.4677  0.8522
  143MOL0     H19257   5.187   5.789   1.404  1.7108  0.3679 -3.2962
  143MOL0     H19258   5.100   5.693   1.295 -1.0318 -0.7214  0.9965
  143MOL0     H19259   5.157   5.483   1.419  0.7342 -0.2001  1.6995
  143MOL0     H19260   5.217   5.594   1.547  1.5285 -0.2471 -0.5523
  143MOL0     H19261   4.985   5.511   1.584  1.2107 -0.3609  0.6876
  143MOL0     H19262   4.930   5.619   1.450  0.5435 -2.3081 -1.4073
  143MOL0     H19263   5.026   5.815   1.592  0.7081  1.2510  2.8532
  143MOL0     H19264   5.061   5.687   1.709  3.1838  0.2609 -2.3310
  143MOL0     H19265   4.980   5.908   1.794  1.8801  3.1253  4.6128
  143MOL0     H19266   4.870   6.086   1.947  1.5464  0.0957 -0.5952
  143MOL0     H19267   4.355   6.333   1.759 -2.2231 -0.7416 -0.5807
  143MOL0     H19268   4.209   6.524   1.847  0.4780  0.6000  0.2430
  143MOL0     H19269   4.099   6.475   2.296  6.0271  1.2321 -3.7328
  143MOL0     H19270   4.001   6.612   2.252  1.7038 -0.3395  0.2765
  143MOL0     H19271   3.879   6.457   2.085 -0.7186 -0.1469  0.3297
  143MOL0     H19272   3.986   6.330   2.126  0.9423  0.0674 -0.0800
  143MOL0     H19273   3.895   6.361   2.370 -0.7988 -2.1183 -0.6469
  143MOL0     H19274   3.771   6.475   2.300 -1.3425  0.2550 -1.0295
  143MOL0     H19275   3.804   6.167   2.252  1.4473  0.6879  3.0193
  143MOL0     H19276   3.677   6.264   2.184 -0.5305  0.9344  0.9602
  143MOL0     H19277   3.605   6.338   2.393 -0.3051 -0.0527 -3.3512
  143MOL0     H19278   3.729   6.276   2.491 -1.8791  0.1158  0.5762
  143MOL0     H19279   3.501   6.116   2.367  3.0564  2.3815 -3.6713
  143MOL0     H19280   3.662   6.043   2.397 -1.7369 -1.7187 -1.2220
  143MOL0     H19281   3.501   6.192   2.620  0.0230  2.3014 -3.6555
  143MOL0     H19282   3.639   6.089   2.643  1.1829  3.0104 -1.8643
  143MOL0     H19283   3.469   5.975   2.720  0.1805 -0.7613 -0.2589
  143MOL0     H19284   3.386   5.976   2.562 -0.8057  1.1147  0.2332
  143MOL0     H19285   4.273   6.375   2.252  3.4995  0.3621  0.2647
  143MOL0     H19286   4.433   6.201   2.150  1.4819 -0.4349 -0.4869
  143MOL0     H19287   4.492   5.924   1.816  0.5688  0.5068 -0.2992
  143MOL0     H19288   4.597   5.751   1.716  0.6196 -2.1516  1.4746
  143MOL0     H19289   6.076   5.037   0.811  0.6201 -2.8370 -1.1294
  143MOL0     H19290   6.182   4.800   0.803  1.9786 -1.9514  1.5441
  143MOL0     H19291   6.574   4.557   0.947 -0.7140 -1.4892 -0.8280
  143MOL0     H19292   6.689   4.360   0.970  0.5461  2.4059  1.6879
  143MOL0     H19293   6.595   4.032   1.281  1.4172 -0.5401  1.3261
  143MOL0     H19294   6.639   4.191   1.313 -0.2380 -0.7982  0.6718
  143MOL0     H19295   6.857   4.184   1.212 -1.2503  0.7951  2.0841
  143MOL0     H19296   6.812   4.008   1.172  0.2334 -1.1627  0.8506
  143MOL0     H19297   6.912   3.973   1.367 -0.1268  1.2473  1.9752
  143MOL0     H19298   6.769   4.029   1.448  0.9472 -3.4097 -0.4411
  143MOL0     H19299   6.945   4.133   1.563  2.4902 -0.3472 -0.2710
  143MOL0     H19300   7.029   4.193   1.421  1.1913 -3.2129  1.1069
  143MOL0     H19301   6.758   4.498   1.516 -1.1062 -1.5856  1.4012
  143MOL0     H19302   6.373   4.177   1.179 -1.6473  1.2201  0.7202
  143MOL0     H19303   6.134   4.422   1.084 -1.0148 -0.8827  0.9637
  143MOL0     H19304   6.180   4.280   1.188  1.6854  0.1313 -1.0184
  143MOL0     H19305   6.180   4.449   1.256 -0.7280 -0.3417  0.8425
  144MOL0     O19306   3.152   6.806   5.535  0.0522  0.5552  0.1345
  144MOL0     C19307   3.073   6.874   5.473  0.3939 -0.5667 -0.1744
  144MOL0     O19308   3.090   6.993   5.406 -0.0318  0.0360 -0.6911
  144MOL0     C19309   3.216   7.053   5.405 -0.1955 -0.2348 -0.1126
  144MOL0     C19310   3.336   6.986   5.380 -0.6569 -0.9924 -0.6490
  144MOL0     C19311   3.466   7.050   5.382 -0.6520  0.4194 -0.7576
  144MOL0     C19312   3.462   7.191   5.414  0.4281  0.7321  0.2545
  144MOL0     O19313   3.577   7.260   5.401 -0.8155 -0.0470 -0.3509
  144MOL0     C19314   3.623   7.351   5.510 -0.3832  0.9149  0.0025
  144MOL0     C19315   3.633   7.294   5.647 -0.6146 -0.3554  0.4356
  144MOL0     C19316   3.737   7.177   5.665  0.3482  0.1077 -0.5607
  144MOL0     C19317   3.882   7.227   5.633 -0.3845 -0.2099 -0.8965
  144MOL0     C19318   3.941   7.169   5.509 -0.7039  0.0281 -0.0051
  144MOL0     C19319   4.107   7.187   5.512  0.0750  0.1012  1.0792
  144MOL0     C19320   4.159   7.099   5.619  0.3180 -0.6362 -0.0293
  144MOL0     C19321   4.302   7.072   5.584 -0.3093  0.6604 -0.4257
  144MOL0     N19322   4.380   7.005   5.692 -0.2677 -0.0844  0.5033
  144MOL0     C19323   4.459   7.067   5.787 -0.1711 -0.1522  0.6025
  144MOL0     C19324   4.508   6.964   5.856 -0.2628 -0.5946  0.8619
  144MOL0     C19325   4.609   6.966   5.968 -0.0152  0.1116  0.0569
  144MOL0     C19326   4.740   7.046   5.967 -0.0353  0.0498 -0.3131
  144MOL0     C19327   4.817   7.022   5.835  0.0024 -0.0309 -0.2318
  144MOL0     C19328   4.842   6.877   5.806 -0.0903  0.8617  0.4474
  144MOL0     O19329   4.921   6.822   5.915  0.5029 -0.2486 -0.2300
  144MOL0     C19330   4.995   6.707   5.877 -0.4217  0.4194 -0.5724
  144MOL0     C19331   5.120   6.684   5.941 -0.3406  1.0161 -0.3243
  144MOL0     C19332   5.187   6.562   5.921 -0.8361  0.7128 -0.7322
  144MOL0     C19333   5.131   6.465   5.837 -0.5079  0.1400  0.1025
  144MOL0     C19334   5.198   6.335   5.804 -0.4727  0.0244 -0.0698
  144MOL0     O19335   5.117   6.228   5.781 -0.1700 -0.2683  0.0350
  144MOL0     C19336   5.187   6.110   5.754 -0.1935  0.3843 -0.6906
  144MOL0     C19337   5.262   6.043   5.845  0.1207  0.5531  0.6680
  144MOL0     C19338   5.339   5.930   5.815 -0.9153  0.4397  0.0515
  144MOL0     C19339   5.336   5.882   5.682  0.3188  0.1998 -1.3556
  144MOL0     O19340   5.416   5.787   5.639 -0.4767  0.2841  0.0360
  144MOL0     C19341   5.484   5.683   5.716 -0.3919 -0.8291  0.2473
  144MOL0     C19342   5.583   5.611   5.625  0.5291  0.1998 -0.3683
  144MOL0     C19343   5.725   5.679   5.618  1.1567  0.4786 -0.0442
  144MOL0     C19344   5.813   5.660   5.739 -0.4365  0.5571 -0.6585
  144MOL0     C19345   5.938   5.755   5.753 -0.4252  0.7506  0.2165
  144MOL0     C19346   6.048   5.714   5.846  0.4522 -0.1027 -0.0852
  144MOL0     C19347   6.106   5.570   5.824 -0.7850  0.2347 -0.4589
  144MOL0     C19348   6.152   5.537   5.686  0.4972  0.7212 -0.0190
  144MOL0    Cl19349   6.238   5.674   5.620 -0.6012 -0.0462 -0.1409
  144MOL0     C19350   5.256   5.948   5.588 -0.9797 -0.1401  0.7917
  144MOL0     C19351   5.185   6.059   5.628  0.0797 -0.7013  1.2627
  144MOL0     O19352   5.322   6.337   5.792 -0.6138  1.1267 -0.0744
  144MOL0     C19353   5.000   6.489   5.775 -0.0931 -0.3809 -0.4934
  144MOL0     C19354   4.935   6.612   5.795 -0.6087 -0.2685  0.0259
  144MOL0     N19355   4.468   6.850   5.801 -0.2973  0.3430  0.4369
  144MOL0     N19356   4.384   6.874   5.710  0.1986 -0.2994 -0.4066
  144MOL0     C19357   3.343   7.256   5.422  0.0114  0.1422 -1.2963
  144MOL0     C19358   3.217   7.193   5.417 -0.2195 -0.9409 -0.4103
  144MOL0     C19359   2.938   6.815   5.466 -0.7555 -0.3146  0.0831
  144MOL0     C19360   2.922   6.679   5.461  0.1367  1.3910  0.2380
  144MOL0     C19361   2.801   6.620   5.461  0.1807  0.6771  0.1501
  144MOL0     C19362   2.678   6.687   5.462 -0.3734  0.5329 -0.6548
  144MOL0     O19363   2.555   6.641   5.438  0.4588 -0.1990 -0.1054
  144MOL0     C19364   2.530   6.509   5.378 -0.3299  0.1674  0.0816
  144MOL0     C19365   2.380   6.494   5.354  0.1505  0.1956  0.1893
  144MOL0     C19366   2.313   6.351   5.361  0.0164 -0.0016  0.4568
  144MOL0     C19367   2.386   6.240   5.285 -0.8100  0.1964  0.7611
  144MOL0     C19368   2.445   6.134   5.376  0.9133 -0.0732 -0.1749
  144MOL0     C19369   2.488   6.047   5.447  0.8061  0.1761  0.1364
  144MOL0     C19370   2.687   6.824   5.481  0.0376 -0.3818  0.3688
  144MOL0     C19371   2.817   6.889   5.483 -0.3710 -0.1010 -0.2177
  144MOL0     C19372   2.807   7.039   5.505  0.4071  0.1175  1.1747
  144MOL0     H19373   3.335   6.880   5.355 -0.5374 -1.3087  0.6030
  144MOL0     H19374   3.556   6.995   5.360 -1.7436 -0.5646 -3.1266
  144MOL0     H19375   3.724   7.383   5.483 -0.7594  0.4423 -2.1532
  144MOL0     H19376   3.575   7.450   5.514 -1.7149  0.3636 -1.2150
  144MOL0     H19377   3.536   7.275   5.694  0.4109 -0.1493  2.7575
  144MOL0     H19378   3.657   7.383   5.706 -2.8312  0.2714  0.4917
  144MOL0     H19379   3.710   7.098   5.594 -0.4013 -1.4466  1.3715
  144MOL0     H19380   3.728   7.131   5.763 -5.7922 -0.9442 -1.1943
  144MOL0     H19381   3.886   7.336   5.626  3.5510 -0.2029 -1.1461
  144MOL0     H19382   3.946   7.196   5.716 -1.8610 -1.8367 -0.3201
  144MOL0     H19383   3.927   7.063   5.487  3.0243  0.0872 -4.1106
  144MOL0     H19384   3.904   7.228   5.424 -1.5996 -1.6531 -0.8384
  144MOL0     H19385   4.145   7.159   5.413 -0.9763  2.5953 -0.1024
  144MOL0     H19386   4.136   7.291   5.523  0.2097 -0.0752  2.5873
  144MOL0     H19387   4.098   7.009   5.620 -0.9017  0.1302 -1.1485
  144MOL0     H19388   4.164   7.152   5.715 -2.5731 -1.8599  0.9136
  144MOL0     H19389   4.307   7.003   5.499 -1.5295 -1.4266  1.0984
  144MOL0     H19390   4.340   7.170   5.556 -1.5348  0.9494 -1.1596
  144MOL0     H19391   4.484   7.172   5.794  2.7189 -0.8556  2.9281
  144MOL0     H19392   4.556   6.996   6.058 -0.2806  0.7681 -0.3122
  144MOL0     H19393   4.637   6.860   5.976 -2.1357 -0.9699 -3.7960
  144MOL0     H19394   4.715   7.149   5.993 -1.4364 -0.2352 -0.4875
  144MOL0     H19395   4.784   6.998   6.055 -1.3778  2.4905  1.8412
  144MOL0     H19396   4.912   7.077   5.836 -0.3346  0.5583  0.4289
  144MOL0     H19397   4.774   7.075   5.750 -0.5947  2.6196  1.5836
  144MOL0     H19398   4.886   6.861   5.707 -2.6625 -0.2575 -0.6153
  144MOL0     H19399   4.746   6.826   5.792 -0.2561  0.8163  1.6728
  144MOL0     H19400   5.147   6.768   6.004  1.7295  1.1797 -1.3620
  144MOL0     H19401   5.270   6.541   5.987 -3.1289 -0.1695  2.1270
  144MOL0     H19402   5.253   6.086   5.944  0.0833 -1.8329  1.7795
  144MOL0     H19403   5.397   5.871   5.885  2.2240  2.4640 -0.6407
  144MOL0     H19404   5.537   5.722   5.803 -0.9783 -2.3960  1.3543
  144MOL0     H19405   5.413   5.608   5.752 -2.3507  0.2124 -1.2575
  144MOL0     H19406   5.601   5.512   5.668 -0.4651 -0.2082 -0.8672
  144MOL0     H19407   5.542   5.596   5.525  1.6500 -0.3736 -0.7623
  144MOL0     H19408   5.761   5.635   5.525 -2.8517  0.4120 -1.7536
  144MOL0     H19409   5.691   5.783   5.623 -2.5088 -0.5847  0.5450
  144MOL0     H19410   5.848   5.557   5.734 -0.8740  0.0248  3.5564
  144MOL0     H19411   5.762   5.665   5.836 -1.9677  1.0575 -1.4610
  144MOL0     H19412   5.902   5.854   5.786 -0.4481  0.1056  2.3172
  144MOL0     H19413   5.968   5.765   5.649 -0.4149 -1.2873 -0.0086
  144MOL0     H19414   6.137   5.773   5.826  0.2982 -0.3450 -1.5983
  144MOL0     H19415   6.014   5.716   5.951  1.1337  2.5666  0.1689
  144MOL0     H19416   6.033   5.495   5.857  0.3645 -0.7911 -0.2039
  144MOL0     H19417   6.193   5.560   5.888 -1.8139  0.0352  0.9486
  144MOL0     H19418   6.220   5.452   5.672 -1.1274 -0.2844 -2.4219
  144MOL0     H19419   6.075   5.524   5.610 -0.3151  2.2802  0.4944
  144MOL0     H19420   5.234   5.923   5.484 -2.9887  2.0726  0.6039
  144MOL0     H19421   5.132   6.112   5.550  2.1271  3.4645  2.4170
  144MOL0     H19422   4.953   6.422   5.704 -4.6334  1.4403  0.4238
  144MOL0     H19423   4.833   6.616   5.759 -0.5058 -0.2322 -0.2688
  144MOL0     H19424   3.342   7.364   5.426  1.4768  0.3241 -3.7844
  144MOL0     H19425   3.119   7.240   5.425  1.2889  2.1375  2.7520
  144MOL0     H19426   3.008   6.613   5.464 -0.3077  0.5320 -2.4964
  144MOL0     H19427   2.795   6.513   5.450 -1.4308  0.7363  0.2026
  144MOL0     H19428   2.556   6.435   5.454  0.4789  0.1144 -0.2353
  144MOL0     H19429   2.585   6.496   5.285  2.2391 -2.3426  1.8068
  144MOL0     H19430   2.374   6.527   5.250  1.6593  1.5408  0.4886
  144MOL0     H19431   2.326   6.562   5.420  0.0625 -0.6071  0.9670
  144MOL0     H19432   2.212   6.379   5.330  1.4408  5.2028 -0.4959
  144MOL0     H19433   2.296   6.320   5.464  1.8210 -0.3150  0.7030
  144MOL0     H19434   2.330   6.200   5.200  3.0832 -3.0819 -0.6242
  144MOL0     H19435   2.467   6.294   5.236 -1.8000 -0.0593 -1.2734
  144MOL0     H19436   2.527   5.973   5.514  1.3520  1.0133  0.7570
  144MOL0     H19437   2.592   6.874   5.502 -0.6332 -1.9120  1.1726
  144MOL0     H19438   2.705   7.069   5.530  0.8198  2.5823  0.2002
  144MOL0     H19439   2.862   7.065   5.596  1.9631  3.5387 -0.5332
  144MOL0     H19440   2.833   7.102   5.419  0.2839 -0.6594  0.5585
  145MOL0     O19441   8.292  10.983   6.145 -0.3000 -0.2490  0.5896
  145MOL0     C19442   8.285  10.882   6.215  0.3824  0.3502 -0.3114
  145MOL0     O19443   8.216  10.873   6.327 -0.5591 -0.2683  0.3990
  145MOL0     C19444   8.186  10.983   6.401 -1.4405 -0.6492 -0.6204
  145MOL0     C19445   8.283  11.083   6.425 -0.3348 -0.9017  0.0883
  145MOL0     C19446   8.258  11.206   6.488 -0.7813  0.5095 -0.2416
  145MOL0     C19447   8.145  11.226   6.557 -0.7938  0.2808  0.3150
  145MOL0     O19448   8.091  11.332   6.632  0.6506  0.0982  0.0439
  145MOL0     C19449   8.184  11.429   6.674 -0.7709 -0.6283 -0.3022
  145MOL0     C19450   8.159  11.477   6.816  0.5252 -0.8266 -0.0418
  145MOL0     C19451   8.300  11.500   6.882 -0.0395 -0.6889  0.1364
  145MOL0     C19452   8.293  11.545   7.029  1.3691 -0.8371  0.3718
  145MOL0     C19453   8.429  11.524   7.097 -0.5030 -0.3683 -0.0456
  145MOL0     C19454   8.498  11.660   7.134 -0.1961  0.6407 -0.1425
  145MOL0     C19455   8.627  11.630   7.191  0.1270 -0.1173 -1.7198
  145MOL0     C19456   8.636  11.554   7.324  0.0223 -0.8780  0.0118
  145MOL0     N19457   8.763  11.588   7.391 -0.5546 -0.4687  0.8361
  145MOL0     C19458   8.890  11.537   7.366  0.2589  0.0250  1.0744
  145MOL0     C19459   8.971  11.596   7.446  0.6216 -0.2881 -0.5299
  145MOL0     C19460   9.122  11.579   7.454  0.4092 -0.1284 -1.2396
  145MOL0     C19461   9.193  11.512   7.337  1.2189  0.9564 -0.4701
  145MOL0     C19462   9.229  11.611   7.231 -0.3061 -0.9894 -0.6126
  145MOL0     C19463   9.127  11.660   7.131 -0.6831  1.0000 -0.1764
  145MOL0     O19464   9.109  11.561   7.039  0.2938  0.8289  0.8305
  145MOL0     C19465   9.003  11.569   6.948  0.9619 -0.0649 -0.0123
  145MOL0     C19466   8.933  11.453   6.915 -0.4269  0.2401 -0.4766
  145MOL0     C19467   8.814  11.450   6.837  0.5228  0.7714 -0.0714
  145MOL0     C19468   8.768  11.572   6.781 -0.8814 -0.9450 -0.6251
  145MOL0     C19469   8.636  11.580   6.710 -0.0079 -0.4077  0.5432
  145MOL0     O19470   8.611  11.699   6.645  0.5782  0.4939 -0.2964
  145MOL0     C19471   8.513  11.682   6.554  1.0391  0.3756  0.1381
  145MOL0     C19472   8.396  11.755   6.576  0.6021  0.2777 -0.4400
  145MOL0     C19473   8.291  11.755   6.485 -0.7528 -0.0385 -0.2813
  145MOL0     C19474   8.304  11.679   6.366  0.4314  0.4865 -0.0001
  145MOL0     O19475   8.203  11.676   6.273  0.4593 -0.0934  0.5329
  145MOL0     C19476   8.170  11.552   6.206  0.1037  0.2948 -0.0640
  145MOL0     C19477   8.056  11.564   6.100  0.1045 -0.4176 -0.7245
  145MOL0     C19478   7.968  11.433   6.091 -0.0440 -0.2982  0.0329
  145MOL0     C19479   8.055  11.298   6.082  0.5782  0.3011  0.1789
  145MOL0     C19480   7.976  11.200   6.003  0.9722  0.5721 -0.4479
  145MOL0     C19481   8.013  11.053   6.008 -0.2229 -0.8204 -0.2324
  145MOL0     C19482   7.917  10.957   5.941  0.3374 -0.4883 -0.2629
  145MOL0     C19483   7.860  10.832   6.028  0.6664 -0.1583  0.8353
  145MOL0    Cl19484   7.982  10.756   6.143  0.2439 -0.0286 -0.1163
  145MOL0     C19485   8.429  11.613   6.339  0.6401  1.5300  0.0891
  145MOL0     C19486   8.532  11.605   6.438 -0.1396  0.0590  0.6408
  145MOL0     O19487   8.581  11.476   6.693  0.1571  0.7721 -0.3766
  145MOL0     C19488   8.850  11.686   6.803  0.3553 -0.5264 -0.4789
  145MOL0     C19489   8.950  11.688   6.887  0.6011  0.1858 -0.4240
  145MOL0     N19490   8.891  11.677   7.531 -0.0555 -0.0480 -0.2966
  145MOL0     N19491   8.771  11.677   7.489  0.5979 -0.4767 -1.3146
  145MOL0     C19492   8.047  11.121   6.548 -0.0659  0.0336  0.6878
  145MOL0     C19493   8.074  11.002   6.471  0.1734 -0.8889  0.4300
  145MOL0     C19494   8.374  10.766   6.187  0.3528  0.7065 -0.1588
  145MOL0     C19495   8.467  10.734   6.291 -0.1009  0.0812 -0.0046
  145MOL0     C19496   8.547  10.621   6.288 -0.8042 -0.2872 -0.0802
  145MOL0     C19497   8.538  10.539   6.173  0.3862  0.1766 -0.5814
  145MOL0     O19498   8.605  10.423   6.166 -0.7274 -0.2193 -0.3983
  145MOL0     C19499   8.538  10.303   6.125 -0.6623  0.9124 -0.7861
  145MOL0     C19500   8.526  10.218   6.257  0.5577 -0.2223  0.1602
  145MOL0     C19501   8.429  10.285   6.356  0.7296  0.3068  0.2889
  145MOL0     C19502   8.409  10.218   6.490  0.9182 -0.4363 -0.0372
  145MOL0     C19503   8.520  10.137   6.542 -0.2215  0.1640 -0.3186
  145MOL0     C19504   8.606  10.072   6.596  0.0680  0.4911  0.0958
  145MOL0     C19505   8.462  10.584   6.069  0.0971  0.6512 -0.5750
  145MOL0     C19506   8.386  10.699   6.063  0.1566 -0.9922  0.8381
  145MOL0     C19507   8.292  10.716   5.944  0.3703  0.4429  0.1439
  145MOL0     H19508   8.386  11.064   6.399  0.4053  0.5013  1.7907
  145MOL0     H19509   8.338  11.279   6.497  0.1651 -0.2508 -2.0717
  145MOL0     H19510   8.281  11.379   6.666 -1.0403 -0.9050 -2.4784
  145MOL0     H19511   8.195  11.511   6.602 -0.6445  0.5140  0.9664
  145MOL0     H19512   8.109  11.401   6.876  0.8536  0.9623  2.6658
  145MOL0     H19513   8.094  11.565   6.824  0.7184 -0.8005  1.6135
  145MOL0     H19514   8.349  11.576   6.821  1.4723 -1.3675  0.4791
  145MOL0     H19515   8.357  11.406   6.881 -0.1407 -0.7760  1.3550
  145MOL0     H19516   8.266  11.651   7.043 -0.5507 -1.4746  2.0355
  145MOL0     H19517   8.211  11.495   7.082  3.7252 -3.1522  2.1137
  145MOL0     H19518   8.396  11.475   7.189 -0.3637 -2.1764 -0.9154
  145MOL0     H19519   8.490  11.449   7.046  0.2013 -1.2175  1.9455
  145MOL0     H19520   8.508  11.713   7.039 -0.4921 -1.8573 -1.6671
  145MOL0     H19521   8.445  11.737   7.190 -0.0738  1.9534 -1.7531
  145MOL0     H19522   8.681  11.724   7.205  0.7482 -0.8551  1.7346
  145MOL0     H19523   8.683  11.582   7.110 -1.5754 -2.1671 -1.7729
  145MOL0     H19524   8.557  11.572   7.397 -0.6087 -3.1851 -0.0099
  145MOL0     H19525   8.625  11.451   7.289 -1.2837 -0.5749 -0.5327
  145MOL0     H19526   8.916  11.462   7.292 -0.5136  0.3832  0.4295
  145MOL0     H19527   9.160  11.682   7.461  1.2165 -0.5022  0.1154
  145MOL0     H19528   9.142  11.517   7.542  1.7391 -1.2020 -2.2608
  145MOL0     H19529   9.288  11.474   7.374  0.9802  1.2630  0.4841
  145MOL0     H19530   9.130  11.433   7.295  0.9396  0.0259  1.5867
  145MOL0     H19531   9.320  11.576   7.181 -0.2243  0.4926 -1.5553
  145MOL0     H19532   9.272  11.695   7.285  0.1788 -0.1732 -2.2180
  145MOL0     H19533   9.151  11.758   7.088  1.0959  0.6429 -0.0798
  145MOL0     H19534   9.034  11.669   7.187  0.0864 -2.0930  1.8822
  145MOL0     H19535   8.962  11.357   6.955 -0.5572 -0.7293 -2.5936
  145MOL0     H19536   8.756  11.359   6.826 -0.2779  1.1989  0.4867
  145MOL0     H19537   8.381  11.807   6.670  0.3881  0.4332 -0.5590
  145MOL0     H19538   8.189  11.783   6.508 -0.3554  1.1912  0.0548
  145MOL0     H19539   8.255  11.522   6.145  1.5917  4.6558 -0.4413
  145MOL0     H19540   8.135  11.477   6.278 -0.4955  0.9091  0.3016
  145MOL0     H19541   8.004  11.658   6.121  3.0486  0.7634  2.1075
  145MOL0     H19542   8.101  11.586   6.003 -2.6166  4.0213 -1.2587
  145MOL0     H19543   7.894  11.431   6.172  1.6204 -1.0338  1.6194
  145MOL0     H19544   7.910  11.439   5.999  0.3174 -0.3201 -0.1961
  145MOL0     H19545   8.075  11.266   6.184 -2.4811 -2.6428  0.0202
  145MOL0     H19546   8.156  11.315   6.043  0.3683 -0.2621 -0.6333
  145MOL0     H19547   7.974  11.221   5.895  0.3266 -0.9462 -0.7646
  145MOL0     H19548   7.876  11.195   6.048 -0.5978 -3.2617 -3.6835
  145MOL0     H19549   8.105  11.027   5.954 -2.0692 -6.2070 -1.4333
  145MOL0     H19550   8.024  11.027   6.113 -2.0436  1.5978  0.6612
  145MOL0     H19551   7.967  10.913   5.854 -1.3835 -0.4009 -1.3330
  145MOL0     H19552   7.839  11.012   5.888 -0.1383 -0.2848  0.6251
  145MOL0     H19553   7.786  10.880   6.093  0.9975  1.6750 -0.0797
  145MOL0     H19554   7.805  10.763   5.963  1.7864 -0.3219  0.0329
  145MOL0     H19555   8.441  11.550   6.251  2.9955  1.0773  0.6857
  145MOL0     H19556   8.633  11.565   6.426  0.2907  0.6816  1.9861
  145MOL0     H19557   8.816  11.777   6.755 -0.7841 -0.8788 -0.3798
  145MOL0     H19558   9.009  11.779   6.887 -0.5119  0.9350  0.1241
  145MOL0     H19559   7.951  11.134   6.597  1.2906  0.6237  3.3638
  145MOL0     H19560   8.001  10.922   6.482  0.0079 -0.8879 -0.5654
  145MOL0     H19561   8.463  10.774   6.392  4.3997 -2.1754  1.3325
  145MOL0     H19562   8.618  10.586   6.362  0.2638 -0.8514 -1.3262
  145MOL0     H19563   8.604  10.258   6.052  1.4377 -2.4251  2.8103
  145MOL0     H19564   8.436  10.325   6.092 -0.8418  3.2568  0.9941
  145MOL0     H19565   8.619  10.208   6.313 -0.6491  0.8531  2.4844
  145MOL0     H19566   8.480  10.123   6.228  1.1244 -0.2997 -0.4970
  145MOL0     H19567   8.334  10.298   6.303  0.7464 -1.0564 -0.1169
  145MOL0     H19568   8.469  10.381   6.389 -0.3950  0.7931  0.2840
  145MOL0     H19569   8.376  10.300   6.556 -0.5055 -1.4696  0.5815
  145MOL0     H19570   8.318  10.158   6.486  0.1443  0.7198 -0.2409
  145MOL0     H19571   8.679  10.019   6.654  0.0725  1.8057  1.3437
  145MOL0     H19572   8.454  10.510   5.990 -2.1842 -0.8079  0.9128
  145MOL0     H19573   8.240  10.811   5.960  0.8603  0.6275  0.7050
  145MOL0     H19574   8.343  10.717   5.847  0.6033 -3.7715  0.0297
  145MOL0     H19575   8.214  10.640   5.940  1.8142 -1.2232  1.7885
  146MOL0     O19576  10.297   6.692   2.761  0.6726  0.0514  0.3589
  146MOL0     C19577  10.321   6.806   2.714  0.6859  0.0396  0.9078
  146MOL0     O19578  10.267   6.862   2.593 -0.1381 -0.7090  0.0824
  146MOL0     C19579  10.159   6.800   2.534  0.1894  0.2148  0.7525
  146MOL0     C19580  10.040   6.744   2.592  0.0974 -0.3002 -0.2784
  146MOL0     C19581   9.936   6.690   2.519  0.1577  0.2856 -0.4246
  146MOL0     C19582   9.944   6.687   2.382 -0.5538 -0.5506  0.7263
  146MOL0     O19583   9.854   6.624   2.300 -0.0492 -0.5821 -0.0228
  146MOL0     C19584   9.707   6.654   2.335 -1.2999 -0.6573  0.3238
  146MOL0     C19585   9.621   6.579   2.229 -0.4491 -1.1774 -0.0110
  146MOL0     C19586   9.479   6.623   2.257  0.1681  0.3699  0.6469
  146MOL0     C19587   9.370   6.533   2.190  0.0369 -0.1090 -1.1513
  146MOL0     C19588   9.237   6.529   2.269  0.3590 -0.7170 -0.2077
  146MOL0     C19589   9.158   6.407   2.210  0.8700  0.7119 -0.0377
  146MOL0     C19590   9.010   6.412   2.260 -0.6400  0.2860  0.4413
  146MOL0     C19591   8.920   6.521   2.199 -0.2458  0.1063  0.4545
  146MOL0     N19592   8.781   6.502   2.217 -0.2357  0.2216  0.5867
  146MOL0     C19593   8.692   6.425   2.142  0.4180 -0.3949 -0.2226
  146MOL0     C19594   8.564   6.458   2.194 -0.3062  0.3704  0.0624
  146MOL0     C19595   8.426   6.422   2.135 -0.4312  0.0579  0.0352
  146MOL0     C19596   8.404   6.274   2.112 -0.5533 -1.3129 -0.7570
  146MOL0     C19597   8.259   6.243   2.115  0.2027 -0.3290 -0.3297
  146MOL0     C19598   8.240   6.091   2.130  0.4315 -0.0282 -1.0550
  146MOL0     O19599   8.318   6.012   2.028  0.8653  0.0218  0.1952
  146MOL0     C19600   8.306   6.029   1.898 -0.5048 -0.3484  0.5139
  146MOL0     C19601   8.424   6.039   1.811  0.7227 -0.7079 -0.8030
  146MOL0     C19602   8.412   6.073   1.676  0.6565 -0.7378 -0.6762
  146MOL0     C19603   8.286   6.078   1.614  0.1061 -0.4094 -0.6582
  146MOL0     C19604   8.269   6.091   1.464 -0.4683 -0.9185  0.3862
  146MOL0     O19605   8.385   6.111   1.395  0.0403 -0.0435  0.1394
  146MOL0     C19606   8.393   6.112   1.254  0.4096  0.1953  0.2717
  146MOL0     C19607   8.528   6.138   1.210 -0.1039  0.1373 -1.2112
  146MOL0     C19608   8.566   6.144   1.083  0.3413 -0.3893  0.3790
  146MOL0     C19609   8.476   6.115   0.983 -0.5980  0.2981  0.3458
  146MOL0     O19610   8.537   6.104   0.854  0.2102 -0.6680  0.2340
  146MOL0     C19611   8.447   6.118   0.733 -0.3252  1.1946 -0.5540
  146MOL0     C19612   8.522   6.079   0.606  0.0684 -0.3059  0.0709
  146MOL0     C19613   8.660   6.149   0.590  0.1023  0.5313  0.3254
  146MOL0     C19614   8.664   6.284   0.520  0.1969 -0.3139 -0.5650
  146MOL0     C19615   8.784   6.367   0.586 -0.5178  0.4002  0.6289
  146MOL0     C19616   8.787   6.506   0.527 -0.0403  0.3394 -0.1916
  146MOL0     C19617   8.926   6.573   0.527 -0.2687  0.2253 -1.3922
  146MOL0     C19618   8.997   6.594   0.397 -0.1782  0.2468  0.3883
  146MOL0    Cl19619   9.022   6.446   0.297  0.1180 -0.1215  0.4147
  146MOL0     C19620   8.340   6.100   1.018  1.3768  0.0556 -0.8452
  146MOL0     C19621   8.299   6.103   1.150  1.1968 -0.2569  0.3182
  146MOL0     O19622   8.153   6.071   1.419  0.6996 -0.2373 -0.6079
  146MOL0     C19623   8.169   6.061   1.698  0.2262 -0.1950  0.3919
  146MOL0     C19624   8.179   6.041   1.834  0.6105  0.4206 -0.9740
  146MOL0     N19625   8.583   6.552   2.298 -0.7783  0.1381 -0.0056
  146MOL0     N19626   8.708   6.574   2.307 -0.8157  0.5194  0.1572
  146MOL0     C19627  10.059   6.727   2.316  0.5737 -0.4548  0.5871
  146MOL0     C19628  10.161   6.790   2.391  0.7048 -0.4560  0.5935
  146MOL0     C19629  10.405   6.905   2.786 -0.7877 -0.2773  0.4265
  146MOL0     C19630  10.444   7.031   2.722 -0.6849 -0.9348  0.1016
  146MOL0     C19631  10.534   7.123   2.773  0.3578 -0.2956 -0.9260
  146MOL0     C19632  10.597   7.099   2.898  0.5559 -0.2902  0.1484
  146MOL0     O19633  10.680   7.197   2.953  0.4388  0.0663 -0.4079
  146MOL0     C19634  10.817   7.152   2.969  0.5187  0.2990 -0.1192
  146MOL0     C19635  10.913   7.186   2.848  0.8412  0.0869 -0.2377
  146MOL0     C19636  11.060   7.140   2.873 -0.2510  0.0259  0.6468
  146MOL0     C19637  11.135   7.233   2.970 -0.4666  0.2746 -0.4824
  146MOL0     C19638  11.272   7.190   3.008  0.4100 -0.1156 -0.7119
  146MOL0     C19639  11.376   7.144   3.024 -0.9990 -0.3246  0.4218
  146MOL0     C19640  10.559   6.984   2.962 -0.9521 -0.0153 -0.3555
  146MOL0     C19641  10.474   6.888   2.908 -0.9694  0.4726 -0.2313
  146MOL0     C19642  10.443   6.770   3.000  0.8672  0.7170  0.4488
  146MOL0     H19643  10.027   6.751   2.699  1.3844  1.6040 -0.2108
  146MOL0     H19644   9.847   6.655   2.572  0.0403  0.3745 -0.5605
  146MOL0     H19645   9.679   6.620   2.435 -1.5726  0.4491  0.6420
  146MOL0     H19646   9.687   6.761   2.324 -1.1822 -0.9294 -3.8022
  146MOL0     H19647   9.642   6.473   2.248  1.2849 -0.6044  1.7009
  146MOL0     H19648   9.650   6.612   2.129  1.2954 -1.1149  0.4775
  146MOL0     H19649   9.456   6.725   2.224  0.9216  0.0293 -1.0277
  146MOL0     H19650   9.468   6.617   2.365  1.8459 -2.7873  0.7787
  146MOL0     H19651   9.357   6.571   2.088 -2.7856 -0.9402 -1.2017
  146MOL0     H19652   9.406   6.429   2.196  2.7301  0.7899 -0.3244
  146MOL0     H19653   9.258   6.524   2.376  0.1583  1.6941 -0.0045
  146MOL0     H19654   9.177   6.619   2.252 -1.5214 -2.2169 -1.8991
  146MOL0     H19655   9.154   6.414   2.101  0.3475  1.9657  0.0490
  146MOL0     H19656   9.215   6.315   2.230  0.1596 -0.1906 -1.8963
  146MOL0     H19657   9.014   6.434   2.367 -1.0560  1.6300  0.1975
  146MOL0     H19658   8.974   6.313   2.229  0.0504  0.7247 -2.0109
  146MOL0     H19659   8.945   6.626   2.220 -0.6686 -0.0873  2.0812
  146MOL0     H19660   8.949   6.528   2.094  3.4983 -0.4028  1.3332
  146MOL0     H19661   8.716   6.353   2.064  2.4543  1.3398 -1.2910
  146MOL0     H19662   8.351   6.466   2.201  1.1570  1.1672  1.1834
  146MOL0     H19663   8.426   6.469   2.036  1.5031 -3.2986 -1.7452
  146MOL0     H19664   8.451   6.250   2.016  0.5510 -1.4830 -0.1878
  146MOL0     H19665   8.456   6.215   2.187  1.3711  1.5525  0.3334
  146MOL0     H19666   8.226   6.261   2.013  0.9585 -3.9736 -1.3967
  146MOL0     H19667   8.206   6.289   2.199 -0.4012  1.1887 -1.4959
  146MOL0     H19668   8.134   6.064   2.128  0.7341 -1.3113 -1.1799
  146MOL0     H19669   8.274   6.065   2.230 -1.9959  1.0682  0.1279
  146MOL0     H19670   8.519   6.016   1.858  0.4942  1.2356  0.7710
  146MOL0     H19671   8.501   6.078   1.613  1.6016 -0.1466  0.6665
  146MOL0     H19672   8.611   6.148   1.280 -1.7703 -1.4556  1.1679
  146MOL0     H19673   8.671   6.156   1.060 -0.0177 -1.5794 -2.1622
  146MOL0     H19674   8.352   6.066   0.747  0.3150  0.2594  0.4347
  146MOL0     H19675   8.424   6.225   0.721  0.5401  1.2412 -2.1791
  146MOL0     H19676   8.550   5.973   0.612  0.5886 -0.6987 -4.8427
  146MOL0     H19677   8.456   6.091   0.519 -1.2335 -1.4455  0.8470
  146MOL0     H19678   8.702   6.164   0.690 -0.0225  2.9555  0.0640
  146MOL0     H19679   8.725   6.076   0.540  1.2326  2.4179 -1.1065
  146MOL0     H19680   8.571   6.340   0.529 -0.4162 -0.6136 -4.0223
  146MOL0     H19681   8.690   6.262   0.416  2.7053  1.1605 -0.3531
  146MOL0     H19682   8.884   6.322   0.575 -0.3899  0.5473  1.1511
  146MOL0     H19683   8.758   6.383   0.691 -3.0445  1.6489 -0.1124
  146MOL0     H19684   8.745   6.498   0.427 -0.9136 -4.5082  0.3357
  146MOL0     H19685   8.719   6.564   0.590  1.2576  0.4120  1.2045
  146MOL0     H19686   9.005   6.519   0.580 -1.8678  2.0679  3.4903
  146MOL0     H19687   8.911   6.665   0.584 -1.4514  0.7187 -2.4608
  146MOL0     H19688   8.932   6.662   0.340  0.3707  0.4903  0.0422
  146MOL0     H19689   9.088   6.652   0.413  0.1735  1.5117 -4.5035
  146MOL0     H19690   8.253   6.065   0.962  1.6064 -1.8712 -0.0500
  146MOL0     H19691   8.191   6.103   1.164  0.3667  1.0086 -4.3054
  146MOL0     H19692   8.069   6.054   1.657  1.4061  0.8270 -2.9853
  146MOL0     H19693   8.092   6.006   1.888  1.8763  0.3596  1.0967
  146MOL0     H19694  10.056   6.729   2.207 -0.3495  1.6067  0.5881
  146MOL0     H19695  10.248   6.829   2.339 -1.3577  1.7082 -1.5413
  146MOL0     H19696  10.395   7.056   2.629 -1.2114 -0.3616  0.5281
  146MOL0     H19697  10.555   7.215   2.719  1.8529  0.1807  0.4162
  146MOL0     H19698  10.812   7.043   2.969 -1.7563  0.3576  0.7031
  146MOL0     H19699  10.855   7.180   3.068 -0.5947 -1.4342  0.8509
  146MOL0     H19700  10.905   7.293   2.830 -0.7651  0.1807  0.8132
  146MOL0     H19701  10.869   7.140   2.760  1.8595 -0.6406 -0.3870
  146MOL0     H19702  11.112   7.132   2.777 -0.4409 -2.2666  0.6811
  146MOL0     H19703  11.056   7.042   2.922 -2.5922  0.1837  0.8644
  146MOL0     H19704  11.148   7.329   2.919 -0.5384 -0.4378 -1.8898
  146MOL0     H19705  11.079   7.260   3.061  0.7502  2.8914 -0.4239
  146MOL0     H19706  11.477   7.122   3.052  0.1463  2.6994 -0.9539
  146MOL0     H19707  10.599   6.956   3.059 -1.3975  1.5140  0.3019
  146MOL0     H19708  10.351   6.712   2.990  2.6339 -2.4088  0.9942
  146MOL0     H19709  10.519   6.691   2.994 -0.0773 -0.1313 -0.6658
  146MOL0     H19710  10.449   6.814   3.100  1.1400  1.3673  0.1547
  147MOL0     O19711   0.801   5.276   3.827 -0.0579  0.0047 -0.1176
  147MOL0     C19712   0.714   5.228   3.898  0.3883  0.3158  0.5425
  147MOL0     O19713   0.644   5.120   3.872  0.6841  0.6841 -0.0393
  147MOL0     C19714   0.668   5.057   3.751 -0.2381 -0.3479 -0.2055
  147MOL0     C19715   0.699   4.920   3.750 -1.0368 -0.7636 -0.6096
  147MOL0     C19716   0.697   4.858   3.625 -0.1497 -0.4938 -1.3622
  147MOL0     C19717   0.668   4.926   3.505 -0.7333 -0.3013 -0.4405
  147MOL0     O19718   0.674   4.863   3.387  0.1581  0.8332  0.8797
  147MOL0     C19719   0.792   4.787   3.346 -0.7704  0.0472  0.0943
  147MOL0     C19720   0.879   4.867   3.245 -0.0037  0.0026  0.0931
  147MOL0     C19721   0.970   4.767   3.170  0.2584 -0.3836 -1.1022
  147MOL0     C19722   1.098   4.817   3.102  0.0397 -0.2181 -0.9246
  147MOL0     C19723   1.165   4.723   3.004  0.3511  0.5153  0.4528
  147MOL0     C19724   1.315   4.756   2.991  0.6093  0.4998 -0.4068
  147MOL0     C19725   1.356   4.889   2.939  0.0390 -0.3769 -0.0736
  147MOL0     C19726   1.330   4.909   2.789 -0.4363  0.3827  0.5618
  147MOL0     N19727   1.397   5.033   2.728 -0.0753  0.5727  0.1682
  147MOL0     C19728   1.524   5.019   2.682  0.0770 -0.0956  0.3731
  147MOL0     C19729   1.565   5.147   2.651 -0.0770  0.9280 -0.5951
  147MOL0     C19730   1.706   5.183   2.615 -0.1169  1.1851 -0.3364
  147MOL0     C19731   1.752   5.149   2.472 -0.2194 -0.0815 -0.7378
  147MOL0     C19732   1.893   5.106   2.459 -0.4719 -0.0135 -0.6564
  147MOL0     C19733   1.989   5.196   2.533 -0.3751  0.1918  0.2588
  147MOL0     O19734   2.122   5.142   2.515  0.5159  0.5115  0.1048
  147MOL0     C19735   2.232   5.204   2.557 -0.4129  0.2414  0.5910
  147MOL0     C19736   2.360   5.180   2.498 -1.0048 -0.0716  0.1677
  147MOL0     C19737   2.475   5.257   2.527  0.5709  0.1679  0.7854
  147MOL0     C19738   2.463   5.355   2.624  0.0728 -0.9165 -0.3379
  147MOL0     C19739   2.576   5.445   2.659  0.1925  0.2647 -0.7882
  147MOL0     O19740   2.543   5.551   2.739 -0.1612 -0.0868  0.0349
  147MOL0     C19741   2.642   5.647   2.757 -0.1531  0.7548 -1.3505
  147MOL0     C19742   2.630   5.737   2.864 -0.6609 -0.0943  0.3467
  147MOL0     C19743   2.713   5.846   2.893 -0.5234  0.7209  0.3336
  147MOL0     C19744   2.830   5.867   2.816  0.7514  0.5180  0.4216
  147MOL0     O19745   2.915   5.968   2.844  0.1706 -0.2481  0.3536
  147MOL0     C19746   3.020   6.002   2.759  0.2884  0.7449  0.1540
  147MOL0     C19747   3.070   6.134   2.818  0.3239  0.5077  0.1167
  147MOL0     C19748   3.203   6.181   2.738 -0.6362  0.6801  0.0493
  147MOL0     C19749   3.281   6.302   2.802 -0.3819  0.3465 -0.0128
  147MOL0     C19750   3.362   6.252   2.922  0.7429 -0.3333 -0.5842
  147MOL0     C19751   3.379   6.347   3.044  1.4231 -0.3832  0.0556
  147MOL0     C19752   3.484   6.318   3.151  1.1729  0.0406 -0.1296
  147MOL0     C19753   3.488   6.440   3.239  1.0220 -0.1579  0.3312
  147MOL0    Cl19754   3.622   6.422   3.355  0.1175  0.1410  0.0380
  147MOL0     C19755   2.844   5.785   2.705 -0.2154 -0.4361  0.6773
  147MOL0     C19756   2.746   5.684   2.678  0.1445  0.6472  0.4276
  147MOL0     O19757   2.683   5.425   2.598 -0.2671  0.3354 -0.2267
  147MOL0     C19758   2.340   5.379   2.690 -0.1078  0.3608 -0.0404
  147MOL0     C19759   2.232   5.301   2.655 -0.4356  0.4344 -0.5304
  147MOL0     N19760   1.458   5.233   2.666  0.0482  0.2478 -1.0236
  147MOL0     N19761   1.347   5.164   2.708  0.2009  0.9578 -0.1583
  147MOL0     C19762   0.640   5.055   3.512 -0.8102 -0.2160 -0.3400
  147MOL0     C19763   0.639   5.128   3.632 -0.9955  0.1524 -0.2029
  147MOL0     C19764   0.674   5.288   4.030  0.6545 -0.0323 -0.8395
  147MOL0     C19765   0.655   5.211   4.148 -0.5753 -0.1277 -1.5489
  147MOL0     C19766   0.625   5.275   4.269  0.9176 -0.6173 -0.4947
  147MOL0     C19767   0.618   5.414   4.278 -0.8053 -0.1771 -0.2941
  147MOL0     O19768   0.599   5.479   4.398  0.2136  0.2930 -0.4984
  147MOL0     C19769   0.523   5.600   4.400  0.0535 -0.0875 -1.1043
  147MOL0     C19770   0.500   5.642   4.550  0.7812  0.4083  1.1342
  147MOL0     C19771   0.631   5.644   4.626  0.2526  0.1376 -0.3219
  147MOL0     C19772   0.736   5.746   4.591  0.5438  0.2538  0.7790
  147MOL0     C19773   0.694   5.871   4.652 -0.0617  0.1714  0.2130
  147MOL0     C19774   0.650   5.979   4.689 -0.0431 -0.2278 -1.1135
  147MOL0     C19775   0.641   5.485   4.162  0.2684 -0.2924  1.1806
  147MOL0     C19776   0.671   5.430   4.044  1.3921  1.0800  0.7556
  147MOL0     C19777   0.690   5.520   3.929 -0.1290 -0.4959  0.2422
  147MOL0     H19778   0.725   4.868   3.841  2.4962  1.3734 -0.2287
  147MOL0     H19779   0.716   4.751   3.618 -0.4467 -0.4411 -3.6910
  147MOL0     H19780   0.842   4.764   3.441 -2.3461  2.1394  1.5223
  147MOL0     H19781   0.763   4.693   3.298  1.9428 -0.6268 -0.3890
  147MOL0     H19782   0.946   4.938   3.295  1.5793 -1.5423  0.2846
  147MOL0     H19783   0.810   4.920   3.179 -1.2630  0.2532  1.5463
  147MOL0     H19784   0.917   4.719   3.088  0.4173  1.3980 -2.2903
  147MOL0     H19785   0.989   4.675   3.227  1.2046 -0.5275 -1.6361
  147MOL0     H19786   1.069   4.909   3.049 -0.5631 -0.0341 -0.3008
  147MOL0     H19787   1.164   4.863   3.176  0.5749 -0.7343 -1.0819
  147MOL0     H19788   1.159   4.619   3.037  0.4664  0.0965 -0.8060
  147MOL0     H19789   1.125   4.738   2.903  0.9309  1.4632  0.3483
  147MOL0     H19790   1.357   4.751   3.092 -1.2523  2.6076  0.5596
  147MOL0     H19791   1.363   4.678   2.931 -1.1147  1.6500 -3.5779
  147MOL0     H19792   1.465   4.892   2.953  0.3756 -0.2480 -2.4021
  147MOL0     H19793   1.318   4.974   2.997 -0.7356  0.2971 -1.5159
  147MOL0     H19794   1.357   4.815   2.739 -1.5480  1.2113 -1.7263
  147MOL0     H19795   1.222   4.918   2.772 -0.0657 -0.1566 -2.8031
  147MOL0     H19796   1.589   4.932   2.687 -0.2935 -0.3592  0.6268
  147MOL0     H19797   1.736   5.287   2.629 -1.3277  1.9566 -2.7178
  147MOL0     H19798   1.773   5.120   2.674 -0.4779 -0.3546 -1.4909
  147MOL0     H19799   1.693   5.061   2.443 -0.2220  0.4487 -2.4424
  147MOL0     H19800   1.737   5.238   2.409  0.7539  0.6994  0.0949
  147MOL0     H19801   1.930   5.101   2.356  1.0809 -0.4878 -0.0927
  147MOL0     H19802   1.901   5.007   2.504 -2.0840  0.6382  1.2421
  147MOL0     H19803   1.972   5.209   2.640  1.8205 -0.8268  0.7793
  147MOL0     H19804   1.988   5.296   2.488  2.0344 -0.3767 -1.2580
  147MOL0     H19805   2.367   5.095   2.431  0.8413  0.1876 -0.0307
  147MOL0     H19806   2.559   5.228   2.465 -0.0789 -3.6031  1.3704
  147MOL0     H19807   2.545   5.716   2.928 -1.3323 -0.8853 -0.7510
  147MOL0     H19808   2.686   5.916   2.971  1.5749  1.7130  0.2661
  147MOL0     H19809   3.096   5.924   2.758 -2.5370 -2.2182 -1.5966
  147MOL0     H19810   2.994   6.012   2.654 -0.8535  0.6288  0.4149
  147MOL0     H19811   2.986   6.204   2.810  0.7429  1.0624  0.4606
  147MOL0     H19812   3.084   6.117   2.925  0.9050  1.7903  0.2706
  147MOL0     H19813   3.262   6.089   2.737 -0.0071  1.0586  0.7792
  147MOL0     H19814   3.160   6.204   2.640 -4.5770  0.7888  1.6526
  147MOL0     H19815   3.196   6.361   2.840 -3.0038 -2.0975 -1.6464
  147MOL0     H19816   3.342   6.366   2.737 -1.8909  0.3298 -1.5328
  147MOL0     H19817   3.459   6.210   2.893 -0.1024 -0.1170 -4.2979
  147MOL0     H19818   3.319   6.164   2.970  0.2143  0.1873 -0.1015
  147MOL0     H19819   3.388   6.445   2.996  0.4736 -1.5922 -2.8624
  147MOL0     H19820   3.284   6.352   3.097  1.4833 -2.9192  0.5467
  147MOL0     H19821   3.586   6.309   3.114  0.9882  0.3958 -0.7328
  147MOL0     H19822   3.458   6.234   3.217 -0.4018  0.8311  0.3006
  147MOL0     H19823   3.499   6.535   3.185  2.6813 -1.1413 -1.1547
  147MOL0     H19824   3.396   6.448   3.299  1.8723  1.5761  1.4858
  147MOL0     H19825   2.927   5.803   2.638  0.8720 -0.5354  1.9605
  147MOL0     H19826   2.766   5.640   2.581 -0.4236  0.6576  0.2998
  147MOL0     H19827   2.311   5.455   2.762  0.7231 -1.0491  1.8733
  147MOL0     H19828   2.143   5.333   2.710  0.8470  0.1957  1.7892
  147MOL0     H19829   0.633   5.103   3.415  0.7930  1.2014  0.1950
  147MOL0     H19830   0.603   5.228   3.654 -0.4142 -0.0966  2.0773
  147MOL0     H19831   0.657   5.103   4.132 -0.8718 -0.1703 -1.3120
  147MOL0     H19832   0.605   5.212   4.355  1.0921  1.7584  1.3624
  147MOL0     H19833   0.425   5.566   4.364 -0.9148 -1.5615  2.5472
  147MOL0     H19834   0.568   5.680   4.339 -1.2623  0.7428 -1.0277
  147MOL0     H19835   0.435   5.566   4.592  0.4596  0.6187  1.0205
  147MOL0     H19836   0.442   5.733   4.567  1.7200  1.3869 -0.6274
  147MOL0     H19837   0.684   5.549   4.612 -0.5021 -0.0250 -2.3163
  147MOL0     H19838   0.616   5.649   4.734  1.2866 -0.5048 -0.1268
  147MOL0     H19839   0.834   5.718   4.629  1.0111 -1.4065 -1.4857
  147MOL0     H19840   0.748   5.777   4.487 -1.1810 -0.5373  0.3103
  147MOL0     H19841   0.599   6.070   4.713  0.3891  0.4540 -2.6922
  147MOL0     H19842   0.661   5.591   4.169 -3.3262  0.6999 -0.9594
  147MOL0     H19843   0.788   5.508   3.882  0.0231  1.1479  0.0866
  147MOL0     H19844   0.621   5.500   3.846 -0.1608 -2.4052  0.6687
  147MOL0     H19845   0.685   5.626   3.954 -0.2891 -0.0521 -1.5472
  148MOL0     O19846   3.021   4.972   3.749 -0.0642  0.0343  0.2733
  148MOL0     C19847   3.129   4.931   3.710  0.0065  0.6414  0.2583
  148MOL0     O19848   3.202   4.843   3.775  0.4010  0.9917 -0.5738
  148MOL0     C19849   3.166   4.805   3.910  0.0107  0.0925 -0.3855
  148MOL0     C19850   3.063   4.716   3.935  0.2410 -0.6795  0.2480
  148MOL0     C19851   3.009   4.700   4.064  1.0278  0.3017  0.4479
  148MOL0     C19852   3.067   4.779   4.171  0.4961 -0.6744 -0.2302
  148MOL0     O19853   3.015   4.781   4.302 -0.1324 -0.3984 -0.1041
  148MOL0     C19854   2.875   4.780   4.328  0.6102  0.4821 -0.1408
  148MOL0     C19855   2.828   4.632   4.331  0.1286  0.2164  0.4917
  148MOL0     C19856   2.827   4.568   4.474  0.3443 -0.2617 -0.0089
  148MOL0     C19857   2.707   4.611   4.539 -0.5060  0.3767 -0.6810
  148MOL0     C19858   2.708   4.560   4.693 -0.9407  0.3476  0.2034
  148MOL0     C19859   2.829   4.604   4.772 -0.3464 -0.2589 -0.5060
  148MOL0     C19860   2.807   4.632   4.926  0.4304 -0.9787 -0.5453
  148MOL0     C19861   2.787   4.501   4.999  0.2776 -0.5350  0.4104
  148MOL0     N19862   2.792   4.502   5.152  0.4984  0.1274  0.1649
  148MOL0     C19863   2.793   4.388   5.240  0.4147  0.7566  0.1541
  148MOL0     C19864   2.811   4.436   5.360  0.3195 -0.3611 -0.7019
  148MOL0     C19865   2.813   4.353   5.486 -0.7658 -0.3498  0.0011
  148MOL0     C19866   2.676   4.364   5.565 -0.4255 -0.0726  0.0946
  148MOL0     C19867   2.667   4.462   5.677  0.0557 -1.1374 -1.2071
  148MOL0     C19868   2.579   4.422   5.799 -0.0050  0.8253 -0.0238
  148MOL0     O19869   2.465   4.357   5.750  0.6065  0.0490 -0.9769
  148MOL0     C19870   2.377   4.311   5.837  0.1550  0.0548  0.0634
  148MOL0     C19871   2.245   4.289   5.780 -0.5096 -0.3531  0.1917
  148MOL0     C19872   2.140   4.274   5.870 -1.0395 -0.0439 -0.1988
  148MOL0     C19873   2.157   4.248   6.002 -0.3228 -0.2388  0.3609
  148MOL0     C19874   2.041   4.208   6.081 -0.3552 -0.1366  0.1419
  148MOL0     O19875   2.053   4.177   6.212  0.7442  0.1743 -0.2108
  148MOL0     C19876   1.946   4.155   6.290  0.4672  0.1568 -0.7760
  148MOL0     C19877   1.941   4.032   6.358  0.5143  0.7483 -0.0869
  148MOL0     C19878   1.834   4.003   6.448 -0.4631 -0.1269  0.0083
  148MOL0     C19879   1.737   4.103   6.472 -0.6026 -0.7433  0.3248
  148MOL0     O19880   1.633   4.093   6.558  0.6701 -0.1509  0.0235
  148MOL0     C19881   1.613   3.972   6.640 -0.2836 -0.8945 -0.2078
  148MOL0     C19882   1.476   4.006   6.703 -0.0363 -0.8340 -0.3269
  148MOL0     C19883   1.453   3.906   6.816  0.0486  0.3620  0.0300
  148MOL0     C19884   1.299   3.872   6.828 -0.6272 -0.1255  0.2296
  148MOL0     C19885   1.274   3.829   6.972 -0.3013  0.9050 -0.7985
  148MOL0     C19886   1.351   3.702   7.026  0.1830 -0.4664  0.1161
  148MOL0     C19887   1.329   3.687   7.179  0.3272 -1.2346  0.3507
  148MOL0     C19888   1.396   3.555   7.231  0.7608 -0.0942  0.6874
  148MOL0    Cl19889   1.572   3.588   7.244 -0.2507  0.3653  0.2514
  148MOL0     C19890   1.746   4.226   6.407  0.7840  0.0838  0.7511
  148MOL0     C19891   1.845   4.254   6.319 -0.2917  0.0883  0.7591
  148MOL0     O19892   1.938   4.210   6.014 -0.3763 -0.1719 -0.6704
  148MOL0     C19893   2.289   4.245   6.053  0.4176 -0.5884  0.1018
  148MOL0     C19894   2.395   4.280   5.973 -1.1243 -0.1404 -0.2309
  148MOL0     N19895   2.816   4.575   5.358  0.7533  0.3870 -0.1251
  148MOL0     N19896   2.805   4.608   5.235 -0.7098 -0.5982  0.6767
  148MOL0     C19897   3.170   4.868   4.141  0.9927 -1.1021  0.2075
  148MOL0     C19898   3.221   4.881   4.016 -0.2382 -0.2866  0.4970
  148MOL0     C19899   3.193   4.994   3.594  0.2503 -0.0831  0.3780
  148MOL0     C19900   3.288   4.913   3.526  0.0567  0.6624  0.4130
  148MOL0     C19901   3.361   4.957   3.419  0.7776 -0.1711 -0.4959
  148MOL0     C19902   3.321   5.078   3.355  0.2863 -0.2862 -0.1139
  148MOL0     O19903   3.363   5.108   3.214 -0.2286  0.2471  0.0961
  148MOL0     C19904   3.466   5.028   3.154 -1.0928  0.4736  0.8374
  148MOL0     C19905   3.508   5.080   3.010  0.0601  0.5316  1.3452
  148MOL0     C19906   3.396   5.090   2.911  0.1902  0.1202 -0.2274
  148MOL0     C19907   3.439   5.139   2.774  0.5233  0.1921  0.5653
  148MOL0     C19908   3.481   5.024   2.686  0.3345  0.1373  0.2487
  148MOL0     C19909   3.508   4.926   2.619 -0.6508  0.6447  0.6776
  148MOL0     C19910   3.217   5.158   3.413 -0.0369  0.0935 -0.9183
  148MOL0     C19911   3.166   5.126   3.541 -0.1677  0.1670 -0.4879
  148MOL0     C19912   3.090   5.226   3.618  0.0446  0.5527  0.5708
  148MOL0     H19913   3.030   4.662   3.847  4.6136 -1.4418 -1.1663
  148MOL0     H19914   2.914   4.647   4.068  0.9240  0.4117 -0.3612
  148MOL0     H19915   2.838   4.811   4.426 -2.2229 -0.8139 -0.6840
  148MOL0     H19916   2.822   4.840   4.253 -0.6055 -0.9186 -0.4563
  148MOL0     H19917   2.893   4.576   4.263 -3.1044 -2.2519 -0.8343
  148MOL0     H19918   2.723   4.627   4.301 -0.2581  1.4699  1.5434
  148MOL0     H19919   2.917   4.601   4.526  0.8669  0.7484 -1.4878
  148MOL0     H19920   2.827   4.459   4.467 -2.8811 -0.3255 -0.5179
  148MOL0     H19921   2.695   4.719   4.531  2.9249  0.8838 -0.7050
  148MOL0     H19922   2.624   4.565   4.485  0.3612 -0.7837 -1.0783
  148MOL0     H19923   2.615   4.612   4.719 -0.7544  2.3143 -2.6576
  148MOL0     H19924   2.704   4.451   4.707  4.2041 -0.1460 -0.3917
  148MOL0     H19925   2.912   4.535   4.756 -0.9242 -1.3023  0.8079
  148MOL0     H19926   2.850   4.701   4.726 -3.4351  1.4984  1.4638
  148MOL0     H19927   2.722   4.700   4.930  1.6498  0.5720  2.3869
  148MOL0     H19928   2.893   4.689   4.962 -1.5888  2.1612 -0.2847
  148MOL0     H19929   2.691   4.464   4.964 -1.7629  2.4113  2.4236
  148MOL0     H19930   2.866   4.430   4.973  2.5761  1.0623  2.5660
  148MOL0     H19931   2.766   4.287   5.213 -1.8820  0.0868  4.1326
  148MOL0     H19932   2.846   4.252   5.459  0.6915  0.4046 -1.2021
  148MOL0     H19933   2.900   4.384   5.545  0.0335 -0.4467 -1.0839
  148MOL0     H19934   2.594   4.372   5.493  1.5500  1.8879 -2.1291
  148MOL0     H19935   2.670   4.261   5.600 -2.4808 -0.7234 -1.9424
  148MOL0     H19936   2.620   4.549   5.631 -1.7222  0.1617  2.6529
  148MOL0     H19937   2.766   4.495   5.709 -0.6177  0.5720 -0.7855
  148MOL0     H19938   2.565   4.506   5.868 -0.9208  2.1017 -1.6982
  148MOL0     H19939   2.637   4.339   5.839 -2.4459 -1.5551 -1.1132
  148MOL0     H19940   2.227   4.299   5.674  0.9308 -2.1952 -0.2630
  148MOL0     H19941   2.043   4.267   5.822 -2.2810 -0.6008  2.2270
  148MOL0     H19942   2.028   3.969   6.340 -0.3876 -0.5296 -0.1682
  148MOL0     H19943   1.837   3.914   6.511 -2.1242 -2.1439 -2.5615
  148MOL0     H19944   1.592   3.878   6.588 -1.8349  1.1890 -3.6533
  148MOL0     H19945   1.694   3.953   6.712 -2.8839 -2.4908  2.5032
  148MOL0     H19946   1.465   4.110   6.734 -5.3374 -2.0681  3.2053
  148MOL0     H19947   1.396   3.983   6.632 -1.2424  0.5380  0.5498
  148MOL0     H19948   1.510   3.815   6.794 -1.0320  0.3957 -3.4183
  148MOL0     H19949   1.476   3.943   6.916  0.0296  0.7082 -0.0936
  148MOL0     H19950   1.270   3.794   6.758 -1.1544  0.6681 -0.4436
  148MOL0     H19951   1.253   3.968   6.806  1.0668  0.6891  0.0724
  148MOL0     H19952   1.167   3.815   6.986 -0.1906 -1.0052 -1.5872
  148MOL0     H19953   1.294   3.912   7.041 -0.6169 -0.1257  0.5652
  148MOL0     H19954   1.318   3.620   6.961 -2.1923  0.3355  0.1910
  148MOL0     H19955   1.457   3.718   7.002 -1.0062  4.5044 -3.4141
  148MOL0     H19956   1.223   3.675   7.205  0.0025 -0.9056 -0.7962
  148MOL0     H19957   1.384   3.768   7.228  1.0124 -0.7830 -1.1134
  148MOL0     H19958   1.358   3.534   7.331 -2.0500 -0.1194 -0.2962
  148MOL0     H19959   1.364   3.479   7.159 -2.0826  0.9789  0.6876
  148MOL0     H19960   1.683   4.306   6.445  2.7285  1.8842  0.3284
  148MOL0     H19961   1.871   4.352   6.281  1.9753 -0.6506  0.2844
  148MOL0     H19962   2.303   4.234   6.160 -3.8242  2.4508  1.2390
  148MOL0     H19963   2.492   4.287   6.021  1.0391  1.0553 -4.2370
  148MOL0     H19964   3.205   4.913   4.233  0.1184 -1.3663  0.6848
  148MOL0     H19965   3.294   4.956   3.988 -0.7175 -0.8388 -2.5369
  148MOL0     H19966   3.315   4.818   3.570 -0.7225 -0.2203 -0.9298
  148MOL0     H19967   3.439   4.896   3.373  0.0564 -0.8732 -0.8078
  148MOL0     H19968   3.427   4.926   3.148 -1.3170  0.5266  1.3224
  148MOL0     H19969   3.560   5.016   3.208  1.8223  0.2433 -3.7655
  148MOL0     H19970   3.585   5.014   2.971 -0.3806 -0.2888  1.8367
  148MOL0     H19971   3.554   5.179   3.016 -1.7617  1.4183  1.5803
  148MOL0     H19972   3.320   5.157   2.952  0.1397 -1.5394  2.6635
  148MOL0     H19973   3.342   4.997   2.892  0.3874  0.2161 -1.3186
  148MOL0     H19974   3.356   5.178   2.714  1.1202 -0.7426 -0.9318
  148MOL0     H19975   3.514   5.219   2.783  1.8911 -1.1482  1.4287
  148MOL0     H19976   3.511   4.837   2.559  0.2119 -0.1698  1.8821
  148MOL0     H19977   3.191   5.250   3.362  2.8158  2.4405  1.5099
  148MOL0     H19978   2.990   5.188   3.644  0.6648 -0.7714  1.0904
  148MOL0     H19979   3.142   5.242   3.713  1.5708 -4.5654  0.8502
  148MOL0     H19980   3.084   5.325   3.572 -3.0520  1.0790  1.8206
  149MOL0     O19981   6.727  11.095  10.335 -0.4453 -0.5324  0.3833
  149MOL0     C19982   6.831  11.094  10.263  0.3920  0.0527  0.0112
  149MOL0     O19983   6.923  11.192  10.253  0.7960 -0.5576  0.4274
  149MOL0     C19984   6.898  11.309  10.328  0.2357  0.9047  0.4911
  149MOL0     C19985   6.776  11.376  10.321 -0.7939 -0.1795  0.1715
  149MOL0     C19986   6.755  11.494  10.391  0.1100 -0.6023 -0.0513
  149MOL0     C19987   6.852  11.559  10.473  0.2766 -0.1295 -0.1259
  149MOL0     O19988   6.820  11.675  10.544 -0.6156 -0.7032  0.4289
  149MOL0     C19989   6.929  11.769  10.553 -0.5098  0.4243  0.2933
  149MOL0     C19990   6.887  11.901  10.606  0.3505 -1.0768  0.1005
  149MOL0     C19991   6.797  11.978  10.512  0.4987 -1.2193 -0.3689
  149MOL0     C19992   6.748  12.112  10.584  0.5985  1.0784 -0.0331
  149MOL0     C19993   6.671  12.205  10.501  0.3121 -0.4091 -0.0024
  149MOL0     C19994   6.775  12.308  10.451  0.1958  0.5617  0.8068
  149MOL0     C19995   6.727  12.386  10.334  0.1177 -0.0425 -0.3266
  149MOL0     C19996   6.820  12.518  10.300  0.5771  0.3358  0.4231
  149MOL0     N19997   6.843  12.599  10.412  0.1265 -0.7263  0.1364
  149MOL0     C19998   6.961  12.571  10.491  0.1444  0.0841  0.2215
  149MOL0     C19999   6.953  12.673  10.585 -0.6539  0.7508 -0.2550
  149MOL0     C20000   7.048  12.703  10.703 -0.5693  0.2427  0.3054
  149MOL0     C20001   7.170  12.787  10.671 -1.1013 -0.0332  0.1417
  149MOL0     C20002   7.285  12.726  10.591  0.1456 -0.0769 -0.1125
  149MOL0     C20003   7.404  12.824  10.592 -0.1628 -0.1731 -0.4196
  149MOL0     O20004   7.524  12.771  10.536 -0.0786  0.1897  0.3583
  149MOL0     C20005   7.573  12.663  10.597  0.8929  0.6843 -0.0257
  149MOL0     C20006   7.580  12.557  10.509  0.4508 -0.5560 -0.2345
  149MOL0     C20007   7.634  12.438  10.553 -0.1120 -0.2154 -0.5980
  149MOL0     C20008   7.671  12.427  10.689  0.1712  0.7292  0.2305
  149MOL0     C20009   7.747  12.309  10.733 -0.0667 -0.0889  1.0831
  149MOL0     O20010   7.800  12.234  10.638  0.4876 -0.5730  0.0061
  149MOL0     C20011   7.879  12.129  10.669  0.5450 -0.5839 -0.3893
  149MOL0     C20012   7.980  12.136  10.770 -0.0129 -0.6703 -0.3698
  149MOL0     C20013   8.038  12.019  10.804  0.1665  0.1192  0.5709
  149MOL0     C20014   8.027  11.895  10.732  0.2364 -1.1408  0.1139
  149MOL0     O20015   8.102  11.781  10.757  0.7661  0.4403 -0.3546
  149MOL0     C20016   8.204  11.793  10.859 -0.2438  0.7393 -0.3268
  149MOL0     C20017   8.277  11.666  10.878 -0.5952 -0.3127 -0.1591
  149MOL0     C20018   8.380  11.707  10.986 -0.3775  0.6861  0.4087
  149MOL0     C20019   8.492  11.596  10.990 -0.2063 -0.3393  0.4752
  149MOL0     C20020   8.592  11.629  11.093 -0.6465 -0.7259 -0.2463
  149MOL0     C20021   8.721  11.546  11.065  0.0059 -0.2461 -0.3547
  149MOL0     C20022   8.836  11.560  11.165 -0.5305  0.2533  0.7129
  149MOL0     C20023   8.788  11.528  11.312 -0.1906 -0.1988 -0.1312
  149MOL0    Cl20024   8.922  11.494  11.420  0.1942 -0.3651  0.3178
  149MOL0     C20025   7.924  11.890  10.634  0.9543  0.7569  0.1501
  149MOL0     C20026   7.847  12.008  10.606 -0.4921 -0.4692 -0.2585
  149MOL0     O20027   7.753  12.289  10.855  0.4040  1.0730  0.1769
  149MOL0     C20028   7.646  12.540  10.781 -0.5495  1.1322  0.1519
  149MOL0     C20029   7.599  12.658  10.732  0.3379 -0.6948 -0.4815
  149MOL0     N20030   6.852  12.763  10.546 -0.8044 -0.1377 -1.1568
  149MOL0     N20031   6.787  12.715  10.451  0.4655  0.2414  0.5691
  149MOL0     C20032   6.978  11.490  10.480  0.5037  0.3163  0.1878
  149MOL0     C20033   6.996  11.378  10.405  0.1790  0.0909  0.6955
  149MOL0     C20034   6.850  10.969  10.183 -1.1238 -0.3559  0.7754
  149MOL0     C20035   6.738  10.887  10.154  0.0496 -0.3753 -0.4509
  149MOL0     C20036   6.746  10.769  10.080  0.2608  1.1132  0.4351
  149MOL0     C20037   6.871  10.715  10.047 -0.6109 -0.4398  0.0489
  149MOL0     O20038   6.878  10.590   9.981 -0.5700 -0.5267 -0.4779
  149MOL0     C20039   7.004  10.546   9.932 -0.1858 -0.0653 -0.1088
  149MOL0     C20040   6.977  10.440   9.827 -1.1631  0.9772  0.4769
  149MOL0     C20041   7.116  10.376   9.794  0.5264  0.1729  0.6893
  149MOL0     C20042   7.173  10.271   9.897  0.6338 -0.8302 -0.4019
  149MOL0     C20043   7.284  10.191   9.856  0.1119 -0.0296 -0.1054
  149MOL0     C20044   7.386  10.134   9.828 -0.2859  0.2943 -0.7930
  149MOL0     C20045   6.988  10.797  10.074  0.1990 -0.3168  0.2432
  149MOL0     C20046   6.979  10.919  10.142 -0.5637 -0.0002  1.1814
  149MOL0     C20047   7.112  10.971  10.184 -0.7100 -0.8229  0.1583
  149MOL0     H20048   6.689  11.338  10.270 -1.0069 -0.3285  0.6371
  149MOL0     H20049   6.657  11.542  10.389  1.0359  1.3928 -1.3489
  149MOL0     H20050   6.999  11.724  10.624 -1.5448 -0.7637  0.5972
  149MOL0     H20051   6.982  11.773  10.457 -0.5220  0.1370  0.2741
  149MOL0     H20052   6.981  11.954  10.624 -0.4128  0.7067 -0.9086
  149MOL0     H20053   6.829  11.883  10.697 -2.0693 -2.3820 -1.5847
  149MOL0     H20054   6.703  11.927  10.491  1.7494 -4.0661  0.3991
  149MOL0     H20055   6.854  11.990  10.419 -0.2950 -0.0935 -0.7342
  149MOL0     H20056   6.676  12.077  10.659  2.4556  0.1313  1.3995
  149MOL0     H20057   6.829  12.149  10.647 -0.3144 -0.1620  1.9696
  149MOL0     H20058   6.632  12.154  10.413  0.4969 -3.2832  1.4487
  149MOL0     H20059   6.601  12.252  10.570 -0.6349 -1.4180 -0.2517
  149MOL0     H20060   6.791  12.383  10.529  0.6450  1.8222 -0.4265
  149MOL0     H20061   6.871  12.261  10.428 -0.1389  0.6831 -1.0056
  149MOL0     H20062   6.626  12.413  10.366  0.2060 -0.0422 -0.0422
  149MOL0     H20063   6.726  12.317  10.250  2.1611 -0.8851  0.2671
  149MOL0     H20064   6.914  12.477  10.264  0.2011 -0.7039  0.5815
  149MOL0     H20065   6.768  12.570  10.219 -0.5776  3.0042  2.7095
  149MOL0     H20066   7.040  12.500  10.468 -2.1993 -2.2189 -1.3195
  149MOL0     H20067   6.996  12.759  10.780 -1.4357  0.5164 -0.4611
  149MOL0     H20068   7.093  12.614  10.747  0.8265 -0.1527 -1.7477
  149MOL0     H20069   7.136  12.879  10.622 -1.0820  0.0927  0.3631
  149MOL0     H20070   7.210  12.817  10.768  3.5409 -0.1637 -1.4722
  149MOL0     H20071   7.249  12.684  10.496 -1.1599 -1.5988  1.0023
  149MOL0     H20072   7.314  12.635  10.644 -0.9403 -0.4160 -0.0720
  149MOL0     H20073   7.413  12.849  10.699 -1.6892 -1.7051  0.1242
  149MOL0     H20074   7.381  12.909  10.527  0.0522  1.6489  1.7357
  149MOL0     H20075   7.539  12.564  10.409 -1.3593  0.7656  0.5539
  149MOL0     H20076   7.645  12.352  10.488 -0.7192 -0.3735 -0.4969
  149MOL0     H20077   8.004  12.220  10.835  1.5115 -1.7531  0.5439
  149MOL0     H20078   8.102  12.019  10.892  1.3606  2.8579 -0.1797
  149MOL0     H20079   8.264  11.875  10.818  0.0741  0.7869  0.2127
  149MOL0     H20080   8.167  11.813  10.961  1.0907 -4.4765  1.4796
  149MOL0     H20081   8.204  11.597  10.921 -2.3338  0.8570 -1.0998
  149MOL0     H20082   8.319  11.623  10.787 -1.6609  1.8786 -1.7861
  149MOL0     H20083   8.422  11.808  10.983  0.5943  0.2879 -1.0643
  149MOL0     H20084   8.327  11.709  11.082  0.2427  1.3312  0.7470
  149MOL0     H20085   8.548  11.585  10.896  0.2231 -0.2933  0.7201
  149MOL0     H20086   8.447  11.498  11.007 -2.7049  0.5857 -0.3947
  149MOL0     H20087   8.549  11.618  11.193 -2.1197  0.8760 -0.6634
  149MOL0     H20088   8.613  11.736  11.083  0.1865 -0.8882 -0.3058
  149MOL0     H20089   8.692  11.441  11.078  0.9243 -0.4409  0.2066
  149MOL0     H20090   8.758  11.568  10.964 -0.0206 -1.3609 -0.6156
  149MOL0     H20091   8.869  11.664  11.171  0.7197  0.0220 -1.1587
  149MOL0     H20092   8.920  11.502  11.127 -2.0480  0.0412 -2.6907
  149MOL0     H20093   8.747  11.623  11.345  0.4574  0.0746 -0.0950
  149MOL0     H20094   8.717  11.445  11.318 -3.2584  2.1604 -1.4806
  149MOL0     H20095   7.905  11.792  10.592 -0.3101  0.7187  0.7448
  149MOL0     H20096   7.755  12.012  10.548 -1.0611 -0.0221  0.6506
  149MOL0     H20097   7.679  12.542  10.885  0.9549  3.5550 -0.3039
  149MOL0     H20098   7.586  12.751  10.788 -0.4046 -1.7601  1.1939
  149MOL0     H20099   7.075  11.509  10.525  1.2244 -3.4027  0.5194
  149MOL0     H20100   7.094  11.333  10.400 -0.8371 -2.2299 -3.5040
  149MOL0     H20101   6.643  10.930  10.183  0.8971 -0.4837  2.8684
  149MOL0     H20102   6.659  10.711  10.050  0.7665  0.1781  0.7235
  149MOL0     H20103   7.075  10.514  10.009 -0.5454 -0.2024  0.1706
  149MOL0     H20104   7.044  10.631   9.875 -3.4917  2.6414  1.2309
  149MOL0     H20105   6.932  10.472   9.733 -0.9194 -3.2279 -1.3310
  149MOL0     H20106   6.912  10.359   9.862  0.9787  0.4716  3.6951
  149MOL0     H20107   7.186  10.457   9.774  1.1004 -0.7608 -1.3011
  149MOL0     H20108   7.099  10.323   9.700  1.5573  4.6189 -2.3120
  149MOL0     H20109   7.178  10.319   9.995 -1.6708  0.0216 -0.6586
  149MOL0     H20110   7.086  10.206   9.900 -0.4381  0.4048 -2.5753
  149MOL0     H20111   7.477  10.082   9.804  1.0982  2.0677  0.3637
  149MOL0     H20112   7.088  10.774  10.039 -0.0745  0.8212 -1.3865
  149MOL0     H20113   7.134  11.066  10.133  0.9733  0.7034  3.3939
  149MOL0     H20114   7.119  10.993  10.291  1.1912 -2.6299  0.4742
  149MOL0     H20115   7.200  10.906  10.180  0.9138  1.2970 -0.9302
  150MOL0     O20116   9.917   4.013   7.431  0.0182  0.8436  0.6324
  150MOL0     C20117  10.006   3.946   7.381 -0.2148 -0.3583 -0.1718
  150MOL0     O20118   9.997   3.815   7.347  0.2007 -0.2019 -0.0405
  150MOL0     C20119   9.880   3.756   7.351  0.9808 -0.6902  0.3548
  150MOL0     C20120   9.799   3.761   7.230  0.8601  0.5385 -0.0741
  150MOL0     C20121   9.680   3.688   7.211 -0.1559 -0.5046  0.0836
  150MOL0     C20122   9.644   3.596   7.306  0.5885 -0.1393  0.5778
  150MOL0     O20123   9.539   3.520   7.281  0.5294  0.5522 -0.0809
  150MOL0     C20124   9.533   3.382   7.333  0.2622 -0.0819 -0.4429
  150MOL0     C20125   9.465   3.368   7.466  0.8474 -0.3322  0.1223
  150MOL0     C20126   9.427   3.221   7.495  0.2456 -0.0953  0.0395
  150MOL0     C20127   9.490   3.179   7.623 -1.3567  1.6214  0.1252
  150MOL0     C20128   9.440   3.042   7.677 -0.1278 -0.0006 -0.5590
  150MOL0     C20129   9.508   3.011   7.814  0.3224 -1.0882  0.0221
  150MOL0     C20130   9.478   2.876   7.872  0.1647  0.3509  0.0839
  150MOL0     C20131   9.521   2.869   8.019 -0.0217 -1.0357  0.6175
  150MOL0     N20132   9.655   2.902   8.045  0.0540 -0.8841  0.5351
  150MOL0     C20133   9.710   3.003   8.123 -0.0318  0.9747 -0.2878
  150MOL0     C20134   9.845   2.996   8.096 -0.2278  0.0386  0.5585
  150MOL0     C20135   9.948   3.067   8.174 -0.7782  0.2402  0.0925
  150MOL0     C20136  10.058   2.966   8.227 -0.1911  0.4917 -0.7351
  150MOL0     C20137  10.145   3.054   8.319 -0.1439  0.0111 -0.1178
  150MOL0     C20138  10.225   2.966   8.423 -0.3850 -0.0756  0.8126
  150MOL0     O20139  10.340   2.905   8.361  0.4833 -0.3102 -0.1475
  150MOL0     C20140  10.343   2.779   8.306 -0.1361  0.6255 -0.3647
  150MOL0     C20141  10.451   2.758   8.219  0.3581  0.6888  0.5872
  150MOL0     C20142  10.462   2.629   8.152 -0.1834 -0.4828  0.9956
  150MOL0     C20143  10.357   2.537   8.157  0.1560  0.5547 -0.9467
  150MOL0     C20144  10.378   2.403   8.100 -0.9554 -0.2593 -1.3318
  150MOL0     O20145  10.512   2.355   8.095  0.9240 -0.2114  0.7061
  150MOL0     C20146  10.539   2.239   8.028 -0.3884 -0.0409 -0.3410
  150MOL0     C20147  10.477   2.202   7.911  0.3241  0.0812  0.7846
  150MOL0     C20148  10.504   2.077   7.855 -0.0555 -0.9690 -0.7694
  150MOL0     C20149  10.594   1.983   7.919  0.6613 -1.3652  0.3836
  150MOL0     O20150  10.597   1.860   7.866 -0.8693  0.3199 -0.4675
  150MOL0     C20151  10.687   1.770   7.911 -0.3203  0.5511 -0.1822
  150MOL0     C20152  10.682   1.651   7.809 -0.4934 -0.5295  0.0949
  150MOL0     C20153  10.544   1.576   7.791  0.1339  0.3892 -0.5880
  150MOL0     C20154  10.572   1.428   7.765  0.0823 -0.0250  0.2452
  150MOL0     C20155  10.441   1.357   7.718  0.6193 -0.2607  1.3011
  150MOL0     C20156  10.383   1.404   7.583  0.2368  0.4559 -1.2692
  150MOL0     C20157  10.254   1.338   7.553  0.5730 -0.5037 -0.7226
  150MOL0     C20158  10.196   1.393   7.424  0.6281  0.1934  0.1834
  150MOL0    Cl20159  10.026   1.342   7.418 -0.1586 -0.3857 -0.1339
  150MOL0     C20160  10.673   2.028   8.033  0.0120  0.7237  0.3673
  150MOL0     C20161  10.642   2.158   8.086 -0.6008  0.5521  0.0697
  150MOL0     O20162  10.278   2.333   8.080 -0.5167 -0.0375 -0.4417
  150MOL0     C20163  10.236   2.563   8.224 -0.5442 -1.1532 -0.5996
  150MOL0     C20164  10.230   2.688   8.301 -0.0107 -0.6134  0.4143
  150MOL0     N20165   9.879   2.899   8.013 -0.5164  0.1463  0.2268
  150MOL0     N20166   9.771   2.836   7.985 -0.4087  0.4604 -0.4206
  150MOL0     C20167   9.717   3.588   7.430 -0.5837  0.0928  0.2524
  150MOL0     C20168   9.836   3.670   7.452 -0.2236 -1.0601  0.1165
  150MOL0     C20169  10.145   3.992   7.391  0.4406  0.1664  1.0899
  150MOL0     C20170  10.243   3.900   7.365  0.3695 -0.6175 -0.0631
  150MOL0     C20171  10.374   3.919   7.342 -0.1473 -0.7146 -0.3521
  150MOL0     C20172  10.417   4.056   7.349  0.2288  0.3201  1.0738
  150MOL0     O20173  10.542   4.117   7.324  0.0021 -0.2094  0.4008
  150MOL0     C20174  10.642   4.047   7.244  1.1195 -0.6068  0.1745
  150MOL0     C20175  10.790   4.057   7.298 -0.1976 -0.1850  0.6063
  150MOL0     C20176  10.807   4.210   7.344  1.3448 -0.1015 -1.1793
  150MOL0     C20177  10.937   4.231   7.420  0.4537  0.4003  0.4039
  150MOL0     C20178  11.057   4.220   7.332 -0.0739  0.1846 -0.9528
  150MOL0     C20179  11.171   4.235   7.294  0.5053 -0.5320  0.0016
  150MOL0     C20180  10.324   4.147   7.377 -0.6651  0.4641  0.1722
  150MOL0     C20181  10.191   4.128   7.400  0.2116  0.4974 -0.1711
  150MOL0     C20182  10.106   4.255   7.420  0.0291  0.2591 -0.9597
  150MOL0     H20183   9.833   3.830   7.154  0.5701 -1.3868 -2.0476
  150MOL0     H20184   9.630   3.692   7.115  1.3856  7.4322 -1.0830
  150MOL0     H20185   9.485   3.322   7.255 -0.5882  0.1123 -0.0895
  150MOL0     H20186   9.629   3.337   7.357  0.1254  0.5315  1.4288
  150MOL0     H20187   9.373   3.426   7.471  0.6194 -0.8114  1.9951
  150MOL0     H20188   9.523   3.418   7.543 -2.5168  1.7277  1.5446
  150MOL0     H20189   9.451   3.148   7.418  3.0513  2.9311 -2.2376
  150MOL0     H20190   9.318   3.226   7.510  0.5144 -0.7635  2.7453
  150MOL0     H20191   9.598   3.173   7.611 -1.4289  0.8759 -0.2010
  150MOL0     H20192   9.468   3.240   7.712  1.3969 -0.0215  2.0724
  150MOL0     H20193   9.331   3.051   7.688 -0.5076 -2.3485 -1.8222
  150MOL0     H20194   9.457   2.961   7.606 -0.5555 -1.5798  1.0861
  150MOL0     H20195   9.616   3.022   7.798  0.7141  1.3076  3.2561
  150MOL0     H20196   9.477   3.091   7.882  0.1252  0.7861 -2.1635
  150MOL0     H20197   9.533   2.800   7.815 -2.9236 -1.4964 -0.6924
  150MOL0     H20198   9.373   2.846   7.863 -0.3026 -0.0943  4.7503
  150MOL0     H20199   9.454   2.938   8.072 -2.2971 -3.5395  1.2113
  150MOL0     H20200   9.513   2.767   8.057  0.7522 -1.0620  0.7269
  150MOL0     H20201   9.655   3.057   8.199 -0.1927 -0.1694  0.4207
  150MOL0     H20202   9.984   3.152   8.115 -0.2124 -0.5626 -0.7647
  150MOL0     H20203   9.903   3.118   8.259  2.5854 -0.5793  2.5391
  150MOL0     H20204  10.014   2.887   8.288  1.9153 -0.6619 -0.6117
  150MOL0     H20205  10.113   2.917   8.146 -2.6273 -1.4830 -1.3116
  150MOL0     H20206  10.087   3.129   8.374  0.6975  0.6511 -0.0813
  150MOL0     H20207  10.227   3.094   8.259  0.3494 -0.0175  0.5303
  150MOL0     H20208  10.155   2.901   8.477 -1.3056  0.9098  0.8473
  150MOL0     H20209  10.254   3.038   8.500  2.3449 -0.4780  0.2441
  150MOL0     H20210  10.528   2.832   8.202  0.8205  1.1530  4.1380
  150MOL0     H20211  10.552   2.616   8.094  0.5058  2.9470  1.0864
  150MOL0     H20212  10.403   2.269   7.867 -0.9693 -1.5286  0.4170
  150MOL0     H20213  10.446   2.039   7.772 -3.4797  2.2543 -0.1160
  150MOL0     H20214  10.789   1.808   7.915  0.7338 -2.0827  4.0975
  150MOL0     H20215  10.661   1.729   8.009  0.8188 -1.4845 -0.6930
  150MOL0     H20216  10.721   1.697   7.718  2.9578 -1.2425  1.0389
  150MOL0     H20217  10.762   1.580   7.837  1.1039  0.4111 -1.8381
  150MOL0     H20218  10.487   1.591   7.883  1.9587 -1.0926  0.8628
  150MOL0     H20219  10.504   1.629   7.704  3.4584 -0.2093 -2.6623
  150MOL0     H20220  10.621   1.385   7.852  0.8803  0.6017  0.1163
  150MOL0     H20221  10.647   1.423   7.686 -0.5975  0.0830 -0.4178
  150MOL0     H20222  10.364   1.367   7.796  1.6518  0.7501  2.2377
  150MOL0     H20223  10.441   1.249   7.702  1.2604 -0.0380 -0.4528
  150MOL0     H20224  10.369   1.512   7.586 -0.8723  0.3270  1.4403
  150MOL0     H20225  10.458   1.383   7.507 -1.7066 -0.0524 -3.1392
  150MOL0     H20226  10.182   1.363   7.632  0.2980  0.2580 -1.2073
  150MOL0     H20227  10.263   1.229   7.555 -0.1849 -0.5696  0.7570
  150MOL0     H20228  10.211   1.501   7.413 -1.3615  0.5414  0.6129
  150MOL0     H20229  10.249   1.347   7.340 -0.1913  0.4026 -0.4596
  150MOL0     H20230  10.749   1.958   8.067  1.0899  0.4056 -2.4784
  150MOL0     H20231  10.695   2.187   8.176 -1.2325 -2.2978  1.4643
  150MOL0     H20232  10.165   2.484   8.244  1.1710 -2.0999  2.4816
  150MOL0     H20233  10.135   2.712   8.348 -0.7254  2.2327 -2.1278
  150MOL0     H20234   9.696   3.514   7.505 -0.2967  0.2793  0.5175
  150MOL0     H20235   9.895   3.650   7.541 -1.8640  0.0484  1.5193
  150MOL0     H20236  10.226   3.793   7.365  0.3182 -0.6108 -0.3679
  150MOL0     H20237  10.434   3.837   7.302  0.8990  1.1914 -2.9282
  150MOL0     H20238  10.643   4.100   7.148  2.0945 -0.2964  0.3416
  150MOL0     H20239  10.613   3.943   7.228 -2.6341  0.3425 -0.1455
  150MOL0     H20240  10.864   4.015   7.229  0.8007  0.0821  1.4882
  150MOL0     H20241  10.787   3.992   7.386 -3.6541 -0.8806  0.1399
  150MOL0     H20242  10.732   4.236   7.418  4.9380 -1.3262  3.4096
  150MOL0     H20243  10.784   4.279   7.262  0.2604  3.4279  1.8564
  150MOL0     H20244  10.932   4.332   7.459  0.1277  0.5344  0.0295
  150MOL0     H20245  10.935   4.165   7.507  0.2221 -0.4116 -0.2039
  150MOL0     H20246  11.262   4.247   7.240  0.7310  0.8367  0.6333
  150MOL0     H20247  10.354   4.251   7.362  1.1097  0.2053  1.5681
  150MOL0     H20248  10.034   4.245   7.502  0.7909 -1.6694 -0.4610
  150MOL0     H20249  10.168   4.342   7.443  0.2357  0.4600 -2.2151
  150MOL0     H20250  10.041   4.282   7.336  0.0273  1.0310 -0.7149
  151MOL0     O20251   9.519   2.538   7.581  0.2007 -0.1965  0.1658
  151MOL0     C20252   9.637   2.532   7.599  0.2887  0.3302 -0.2256
  151MOL0     O20253   9.701   2.411   7.626  0.1075 -0.6834  0.6147
  151MOL0     C20254   9.834   2.394   7.614  0.6331  0.1140 -0.3228
  151MOL0     C20255   9.906   2.353   7.728  0.5497  0.1588  0.7590
  151MOL0     C20256  10.037   2.327   7.720 -0.2544  0.4411  0.1641
  151MOL0     C20257  10.104   2.334   7.596  0.0496 -0.0297 -0.0155
  151MOL0     O20258  10.241   2.310   7.595 -0.0806 -0.1302 -0.2236
  151MOL0     C20259  10.291   2.267   7.470  0.3804 -0.4950  0.4222
  151MOL0     C20260  10.427   2.206   7.498 -0.3530  0.0797 -0.6086
  151MOL0     C20261  10.536   2.313   7.468 -0.1797  0.8428 -0.2517
  151MOL0     C20262  10.548   2.424   7.574  0.3333 -0.0088 -0.1100
  151MOL0     C20263  10.695   2.479   7.591 -0.2055  0.1335  0.3047
  151MOL0     C20264  10.809   2.375   7.613 -0.5871 -0.3732  0.5475
  151MOL0     C20265  10.786   2.283   7.735 -0.8386 -0.1843 -0.6470
  151MOL0     C20266  10.891   2.167   7.755  1.5705 -0.0890  0.9779
  151MOL0     N20267  10.899   2.087   7.635  0.6964  0.1734  0.8317
  151MOL0     C20268  10.833   1.973   7.606  0.4690  0.3901  0.4282
  151MOL0     C20269  10.877   1.934   7.492  0.3365  0.2189 -0.6438
  151MOL0     C20270  10.815   1.822   7.417  0.0082 -0.2078  0.0135
  151MOL0     C20271  10.685   1.859   7.355 -0.5015  0.1120 -0.4498
  151MOL0     C20272  10.570   1.837   7.450  0.8862 -0.4889  0.4257
  151MOL0     C20273  10.444   1.810   7.363 -0.1979  0.3390  0.1613
  151MOL0     O20274  10.332   1.787   7.449  0.1548 -0.5918 -0.3866
  151MOL0     C20275  10.205   1.788   7.396 -0.1079  0.3934  0.3897
  151MOL0     C20276  10.098   1.827   7.484 -0.3248  0.3976 -0.7735
  151MOL0     C20277   9.968   1.820   7.440  0.0777 -0.4029 -0.0453
  151MOL0     C20278   9.932   1.780   7.310 -0.1745  0.5397  0.2849
  151MOL0     C20279   9.797   1.776   7.272  0.1671 -0.7350  0.2744
  151MOL0     O20280   9.695   1.845   7.339 -0.1746 -0.1217  0.3766
  151MOL0     C20281   9.567   1.844   7.284  0.2557 -0.5932  0.4358
  151MOL0     C20282   9.516   1.832   7.153  0.3407 -0.1018 -0.9635
  151MOL0     C20283   9.379   1.852   7.124 -0.8277 -0.1612  0.3346
  151MOL0     C20284   9.280   1.856   7.224 -0.0781  0.6025 -0.9114
  151MOL0     O20285   9.146   1.873   7.210 -0.6139  0.5838 -0.0458
  151MOL0     C20286   9.107   1.866   7.068 -0.1605 -0.1687 -1.3226
  151MOL0     C20287   8.948   1.879   7.080  0.1396  0.1469 -0.2786
  151MOL0     C20288   8.881   1.770   6.988  1.2078  0.1179  0.1189
  151MOL0     C20289   8.733   1.743   7.020  0.4018  0.7628 -0.6086
  151MOL0     C20290   8.646   1.858   6.982 -0.2377  0.3164  0.6369
  151MOL0     C20291   8.501   1.824   6.991  0.1348  0.1717 -0.4411
  151MOL0     C20292   8.413   1.951   6.964 -0.6041 -0.4185  0.4709
  151MOL0     C20293   8.263   1.913   6.971  0.1147 -0.2245 -0.7873
  151MOL0    Cl20294   8.144   2.039   6.924  0.3211 -0.5759  0.0205
  151MOL0     C20295   9.326   1.848   7.358 -0.6031  0.2520 -0.0792
  151MOL0     C20296   9.464   1.840   7.384 -0.1364 -0.6980 -0.2448
  151MOL0     O20297   9.774   1.707   7.169 -0.1228 -0.8850 -0.6378
  151MOL0     C20298  10.043   1.747   7.227  0.2593  0.9862 -0.0687
  151MOL0     C20299  10.170   1.753   7.265 -0.3456 -0.1451 -0.3112
  151MOL0     N20300  10.971   2.013   7.446  0.1270 -0.5720 -0.4506
  151MOL0     N20301  10.979   2.114   7.529  0.3345 -0.0469  0.4745
  151MOL0     C20302  10.040   2.372   7.479  0.3050 -0.4167 -0.8361
  151MOL0     C20303   9.892   2.390   7.490 -0.2658 -0.9289  0.2159
  151MOL0     C20304   9.721   2.655   7.570 -0.1862 -0.5514 -0.1254
  151MOL0     C20305   9.787   2.728   7.665 -0.9710 -0.2714 -1.4153
  151MOL0     C20306   9.858   2.844   7.630 -0.2540 -0.3061 -0.4011
  151MOL0     C20307   9.860   2.895   7.501 -0.5921  0.8568  0.0149
  151MOL0     O20308   9.948   2.995   7.462 -0.1026 -0.3819  1.0919
  151MOL0     C20309   9.910   3.071   7.345 -0.2932  0.6677 -0.8442
  151MOL0     C20310   9.974   3.213   7.357  0.2534  0.6312  0.0098
  151MOL0     C20311  10.123   3.212   7.360 -0.4100  0.2199  0.0982
  151MOL0     C20312  10.176   3.352   7.343 -0.7165  0.2045 -0.6011
  151MOL0     C20313  10.141   3.417   7.216  0.7418  0.2247  0.3719
  151MOL0     C20314  10.129   3.457   7.104 -0.1992 -0.2934 -0.3108
  151MOL0     C20315   9.780   2.828   7.411 -1.0741  0.0011  0.6051
  151MOL0     C20316   9.720   2.707   7.442  0.2543 -1.4397 -0.1109
  151MOL0     C20317   9.660   2.639   7.325 -0.1913  0.2149 -0.3154
  151MOL0     H20318   9.856   2.331   7.822  0.1627 -1.7321  0.1387
  151MOL0     H20319  10.094   2.307   7.811 -0.1732  0.1602  0.0494
  151MOL0     H20320  10.216   2.202   7.423 -1.2215  2.1131 -0.8726
  151MOL0     H20321  10.297   2.341   7.390  0.5491 -2.9424 -2.0115
  151MOL0     H20322  10.435   2.119   7.432 -1.9061 -0.0893 -0.6116
  151MOL0     H20323  10.435   2.169   7.600 -1.1550 -0.6448 -0.7937
  151MOL0     H20324  10.517   2.368   7.376  1.4509  1.9135  0.0115
  151MOL0     H20325  10.623   2.251   7.448 -3.1322 -3.5315 -0.8320
  151MOL0     H20326  10.490   2.508   7.535  0.9118  1.8145  2.6983
  151MOL0     H20327  10.503   2.391   7.668  2.2202  0.9801  1.2057
  151MOL0     H20328  10.719   2.534   7.500  1.5690 -1.6082 -0.3581
  151MOL0     H20329  10.686   2.544   7.678  0.4832 -0.0832  0.5381
  151MOL0     H20330  10.826   2.315   7.523 -0.4505 -0.0318  0.3437
  151MOL0     H20331  10.897   2.438   7.629 -1.5331  0.3905  3.3398
  151MOL0     H20332  10.685   2.241   7.727 -0.9621  0.1206 -0.7043
  151MOL0     H20333  10.782   2.351   7.821 -2.7126 -0.8096 -0.1832
  151MOL0     H20334  10.986   2.219   7.770 -0.1518  2.8204  2.9082
  151MOL0     H20335  10.869   2.104   7.841 -1.1243 -0.2426  0.2594
  151MOL0     H20336  10.767   1.928   7.680 -2.7155  3.4843 -0.2924
  151MOL0     H20337  10.881   1.790   7.336 -2.0678 -0.6733 -1.5618
  151MOL0     H20338  10.801   1.734   7.480  0.2220  0.4362  0.9866
  151MOL0     H20339  10.678   1.964   7.326  0.1713  0.0641 -0.7931
  151MOL0     H20340  10.678   1.794   7.268  1.2020 -1.0927  0.2469
  151MOL0     H20341  10.559   1.930   7.506  2.2102 -0.9207  1.4515
  151MOL0     H20342  10.590   1.759   7.523  2.6628 -1.3241 -0.8829
  151MOL0     H20343  10.446   1.712   7.315 -1.8574 -1.0507  2.6806
  151MOL0     H20344  10.429   1.893   7.294  0.4503  0.2014 -0.1524
  151MOL0     H20345  10.119   1.855   7.587  0.3380 -3.1864  0.1734
  151MOL0     H20346   9.889   1.842   7.511  2.1058  1.2212  1.8177
  151MOL0     H20347   9.587   1.810   7.074  1.1075  0.0104 -0.3175
  151MOL0     H20348   9.347   1.861   7.021 -0.7145  0.2154  0.3340
  151MOL0     H20349   9.141   1.948   7.004 -1.4907  1.0419 -0.5508
  151MOL0     H20350   9.142   1.777   7.015  2.9517  1.4333 -2.1789
  151MOL0     H20351   8.922   1.860   7.185  0.5214 -1.8109 -0.4986
  151MOL0     H20352   8.903   1.977   7.060 -0.0955  0.7895  2.9187
  151MOL0     H20353   8.903   1.803   6.886  2.1515  0.1663  0.3257
  151MOL0     H20354   8.940   1.680   7.009  3.5669  1.9356  1.8856
  151MOL0     H20355   8.716   1.732   7.128 -3.8961  0.6959 -1.1066
  151MOL0     H20356   8.703   1.653   6.966  0.4871  0.5198 -0.2549
  151MOL0     H20357   8.675   1.891   6.882 -1.5613 -3.7872 -1.3232
  151MOL0     H20358   8.663   1.952   7.035  0.0990  0.8352 -0.3596
  151MOL0     H20359   8.478   1.743   6.922  0.3467 -0.6567  0.4322
  151MOL0     H20360   8.468   1.780   7.086 -2.5462 -1.3079 -1.9393
  151MOL0     H20361   8.437   1.999   6.868  0.4842  1.9116  1.8108
  151MOL0     H20362   8.442   2.027   7.038 -2.5415  0.0239  0.8197
  151MOL0     H20363   8.249   1.823   6.910 -0.0278 -1.4777  0.9964
  151MOL0     H20364   8.236   1.871   7.068  1.0815 -0.5437 -0.6469
  151MOL0     H20365   9.254   1.824   7.435  1.3815 -2.3662  1.1006
  151MOL0     H20366   9.492   1.833   7.488  1.0693 -0.8405 -0.5703
  151MOL0     H20367  10.022   1.736   7.122  0.7128  1.5349 -0.2194
  151MOL0     H20368  10.247   1.726   7.193  0.4243  0.0140  0.4285
  151MOL0     H20369  10.093   2.382   7.385 -0.3080 -0.9577 -1.2438
  151MOL0     H20370   9.832   2.416   7.403  1.1408  1.2940 -0.1706
  151MOL0     H20371   9.789   2.692   7.767  0.1648 -0.7165 -1.5811
  151MOL0     H20372   9.911   2.900   7.706 -1.3520  2.7472 -1.7139
  151MOL0     H20373   9.800   3.072   7.346 -0.4055 -2.1790  0.5907
  151MOL0     H20374   9.948   3.021   7.255 -1.5645 -2.8606  0.3988
  151MOL0     H20375   9.943   3.253   7.454 -1.2031  0.0035 -0.1822
  151MOL0     H20376   9.930   3.261   7.269 -1.2292 -3.8199 -1.9803
  151MOL0     H20377  10.156   3.147   7.279 -0.9054 -0.4493  0.4251
  151MOL0     H20378  10.161   3.169   7.453  0.0613 -0.5058 -0.4195
  151MOL0     H20379  10.138   3.409   7.429  2.1698  0.5248  0.5506
  151MOL0     H20380  10.285   3.343   7.344 -0.7775 -2.4135  2.8634
  151MOL0     H20381  10.139   3.486   7.001  0.4305  1.4473  0.2025
  151MOL0     H20382   9.777   2.857   7.306  2.3305 -0.0078  0.4122
  151MOL0     H20383   9.727   2.558   7.294  0.8536 -0.5152  3.3309
  151MOL0     H20384   9.564   2.598   7.355 -1.1493  2.2054 -0.5305
  151MOL0     H20385   9.643   2.709   7.242  4.4307  1.1544 -0.7572
  152MOL0     O20386   5.771   4.613   5.879  0.2968  0.0086 -0.7854
  152MOL0     C20387   5.807   4.536   5.790 -0.7592 -0.0204 -0.7132
  152MOL0     O20388   5.932   4.481   5.769 -0.3824 -0.0218  0.0225
  152MOL0     C20389   6.017   4.469   5.873 -0.2753 -0.2784 -0.4109
  152MOL0     C20390   5.982   4.433   6.006  0.1960  0.1554  0.7338
  152MOL0     C20391   6.071   4.419   6.113  0.1389  0.5288  0.3267
  152MOL0     C20392   6.211   4.453   6.088 -0.5391 -0.0228 -0.4429
  152MOL0     O20393   6.313   4.466   6.187  0.1319  0.1522  0.7638
  152MOL0     C20394   6.271   4.443   6.320  0.3993 -0.4331  0.6845
  152MOL0     C20395   6.261   4.291   6.364 -0.1448  0.4780 -0.0673
  152MOL0     C20396   6.261   4.273   6.512  0.4377  0.0654  0.7342
  152MOL0     C20397   6.389   4.333   6.579 -0.0251 -0.5508 -0.2697
  152MOL0     C20398   6.387   4.293   6.724  0.4395 -0.1123 -0.0760
  152MOL0     C20399   6.522   4.321   6.801  0.7133  0.2500 -0.4641
  152MOL0     C20400   6.507   4.279   6.954  0.6679  0.1339 -0.7161
  152MOL0     C20401   6.646   4.264   7.021  0.7661 -0.1660  0.2333
  152MOL0     N20402   6.719   4.144   6.984  0.9538 -0.5299 -0.1580
  152MOL0     C20403   6.831   4.129   6.905  0.3406 -0.0441 -0.4232
  152MOL0     C20404   6.871   4.006   6.927  0.8442  0.0412  0.0590
  152MOL0     C20405   6.989   3.936   6.856  0.4146  0.0939 -0.5119
  152MOL0     C20406   6.971   3.783   6.834 -0.9633  0.6924 -0.7940
  152MOL0     C20407   6.845   3.766   6.760  0.1986  0.1213  0.4613
  152MOL0     C20408   6.813   3.627   6.708 -0.2416  1.0040  0.2942
  152MOL0     O20409   6.830   3.544   6.822 -0.1904 -0.4273  0.4905
  152MOL0     C20410   6.910   3.438   6.824 -1.0823  0.5234 -0.2127
  152MOL0     C20411   6.983   3.390   6.719 -0.3655 -0.0554  0.7347
  152MOL0     C20412   7.061   3.271   6.733  0.1329 -0.9812  0.8430
  152MOL0     C20413   7.061   3.209   6.860  0.0512  0.4169  0.5314
  152MOL0     C20414   7.146   3.086   6.869  0.4643 -1.0176  0.0329
  152MOL0     O20415   7.256   3.080   6.794 -0.2920  0.5224  0.7090
  152MOL0     C20416   7.345   2.982   6.820  0.3303  0.6095 -0.3495
  152MOL0     C20417   7.387   2.942   6.943  0.4066  1.0754 -0.3659
  152MOL0     C20418   7.463   2.818   6.952  0.3380 -0.6186 -1.0893
  152MOL0     C20419   7.511   2.750   6.830  0.1166 -0.5035 -1.6867
  152MOL0     O20420   7.598   2.655   6.825 -0.7091 -0.3806  1.3571
  152MOL0     C20421   7.619   2.572   6.937 -0.2191 -0.1405  0.4394
  152MOL0     C20422   7.729   2.484   6.888  0.1301 -0.8917 -0.4071
  152MOL0     C20423   7.668   2.383   6.792 -0.4374  1.2157  0.3463
  152MOL0     C20424   7.771   2.268   6.785 -0.3510 -0.2549 -0.7389
  152MOL0     C20425   7.726   2.171   6.685 -0.3157 -0.5374  0.4081
  152MOL0     C20426   7.689   2.042   6.755 -0.0146  0.1549 -0.5105
  152MOL0     C20427   7.660   1.935   6.653  0.3433  0.6788  0.1504
  152MOL0     C20428   7.549   1.986   6.554  0.2657  1.1923  0.4750
  152MOL0    Cl20429   7.483   1.845   6.449  0.2511 -0.3041 -0.1036
  152MOL0     C20430   7.479   2.810   6.709  0.2788 -0.1557 -0.2171
  152MOL0     C20431   7.400   2.924   6.703  0.8656  0.7123  0.9070
  152MOL0     O20432   7.115   3.008   6.958 -0.1482 -0.3464  0.2017
  152MOL0     C20433   6.985   3.261   6.966  0.3535  0.0733  0.6984
  152MOL0     C20434   6.908   3.373   6.945  0.1296  0.6909  0.3110
  152MOL0     N20435   6.778   3.939   7.012 -0.3951  0.0481  0.7375
  152MOL0     N20436   6.696   4.031   7.056 -0.1554 -0.0542 -0.4934
  152MOL0     C20437   6.249   4.491   5.960  0.0889 -0.2901 -0.0649
  152MOL0     C20438   6.151   4.499   5.863 -0.6084  0.4447  0.5041
  152MOL0     C20439   5.699   4.488   5.712 -0.1054 -0.1068  0.2008
  152MOL0     C20440   5.667   4.572   5.601  0.9051 -0.5070 -0.1422
  152MOL0     C20441   5.568   4.547   5.512  0.5798  0.3027 -0.4112
  152MOL0     C20442   5.493   4.430   5.523  0.0392  0.7177 -0.1932
  152MOL0     O20443   5.393   4.391   5.437  0.4732 -0.0024 -0.0036
  152MOL0     C20444   5.345   4.477   5.334  0.6549 -0.2657  0.1130
  152MOL0     C20445   5.219   4.406   5.292  0.3677 -0.2063  0.3360
  152MOL0     C20446   5.166   4.483   5.165 -0.2972 -0.1951 -1.2931
  152MOL0     C20447   5.020   4.453   5.141  0.0944  0.0115  0.5958
  152MOL0     C20448   4.969   4.494   5.010 -0.0021 -0.5415  0.0430
  152MOL0     C20449   4.936   4.538   4.899  0.3371 -0.2518  0.4322
  152MOL0     C20450   5.526   4.345   5.627 -0.3563  0.1457  0.0212
  152MOL0     C20451   5.627   4.368   5.722 -0.4496  0.0861 -0.7685
  152MOL0     C20452   5.652   4.263   5.835  0.1219  0.0438 -0.7735
  152MOL0     H20453   5.878   4.415   6.030  0.5255 -0.3698  1.8443
  152MOL0     H20454   6.022   4.411   6.209 -2.3580 -2.2542 -1.0307
  152MOL0     H20455   6.340   4.499   6.384 -0.9930  1.4596  0.5917
  152MOL0     H20456   6.179   4.496   6.346  0.3553 -0.1749  0.0123
  152MOL0     H20457   6.342   4.231   6.321 -0.8692 -0.4082 -0.2448
  152MOL0     H20458   6.169   4.254   6.318  0.7831 -1.1677 -0.6878
  152MOL0     H20459   6.266   4.165   6.528  3.5467  0.2242  1.3992
  152MOL0     H20460   6.168   4.308   6.558  0.0076  1.2209 -0.9128
  152MOL0     H20461   6.475   4.290   6.527 -0.3456  0.2534 -1.5203
  152MOL0     H20462   6.399   4.442   6.572  1.1960 -0.5634  0.8358
  152MOL0     H20463   6.302   4.351   6.760  0.3176  0.1121 -0.7208
  152MOL0     H20464   6.355   4.190   6.742  2.0272 -0.1054  4.1157
  152MOL0     H20465   6.600   4.258   6.757  0.6686 -0.2509  0.1729
  152MOL0     H20466   6.553   4.425   6.785 -1.1176  0.4010 -3.9075
  152MOL0     H20467   6.455   4.184   6.964  0.2903  0.2717 -1.2690
  152MOL0     H20468   6.445   4.348   7.012  0.3364 -0.3678 -0.4661
  152MOL0     H20469   6.701   4.352   6.986 -1.2530  0.8221 -0.6081
  152MOL0     H20470   6.631   4.264   7.130  0.9476  3.4625  0.3920
  152MOL0     H20471   6.875   4.210   6.849 -2.1957 -0.6788 -3.5763
  152MOL0     H20472   6.990   3.979   6.755  0.7235 -0.0550 -0.5733
  152MOL0     H20473   7.079   3.971   6.909  1.8151 -2.8288 -0.7710
  152MOL0     H20474   7.054   3.737   6.779 -2.3199 -1.4894 -1.1267
  152MOL0     H20475   6.960   3.732   6.931  0.2539  1.1929 -0.3702
  152MOL0     H20476   6.817   3.837   6.681 -1.2589 -0.0373  0.8065
  152MOL0     H20477   6.772   3.786   6.839  0.2258 -1.0458  0.7893
  152MOL0     H20478   6.879   3.607   6.623  0.1786 -1.5164  1.1549
  152MOL0     H20479   6.707   3.636   6.679 -0.0957  1.1005 -0.2165
  152MOL0     H20480   6.998   3.439   6.624  3.5314 -0.4220  1.0044
  152MOL0     H20481   7.116   3.229   6.649  0.0125  1.8570 -0.7649
  152MOL0     H20482   7.359   3.000   7.030  0.7719  3.2006 -1.5856
  152MOL0     H20483   7.485   2.792   7.055 -0.4301  0.5619 -0.6116
  152MOL0     H20484   7.655   2.638   7.016  0.1041 -0.7634  0.8232
  152MOL0     H20485   7.525   2.519   6.956 -0.1837  0.5345  2.7805
  152MOL0     H20486   7.798   2.542   6.827  0.1234 -1.2541 -0.7619
  152MOL0     H20487   7.775   2.436   6.975  1.4309  0.3323 -0.4017
  152MOL0     H20488   7.579   2.339   6.838  2.4260 -3.4174  2.1438
  152MOL0     H20489   7.636   2.432   6.700  3.8772  0.2505 -1.9202
  152MOL0     H20490   7.786   2.213   6.878  1.1831  1.4647  0.0925
  152MOL0     H20491   7.866   2.313   6.758 -0.6546  0.0486 -1.3291
  152MOL0     H20492   7.804   2.155   6.610 -1.0636  1.8218 -0.9748
  152MOL0     H20493   7.636   2.211   6.637  0.3924  2.1247  1.1124
  152MOL0     H20494   7.751   2.016   6.842 -2.3213  0.0564  1.2182
  152MOL0     H20495   7.589   2.055   6.797 -0.7539 -1.8832 -1.5083
  152MOL0     H20496   7.633   1.837   6.694 -3.9757  0.9059 -1.6806
  152MOL0     H20497   7.762   1.925   6.614  0.3874 -0.3749  0.4797
  152MOL0     H20498   7.463   2.031   6.604 -1.8111  2.9033 -4.0199
  152MOL0     H20499   7.589   2.066   6.490  0.9002 -1.0676 -2.1526
  152MOL0     H20500   7.515   2.775   6.612 -1.2919 -2.1407 -0.1606
  152MOL0     H20501   7.368   2.958   6.606 -1.7361  1.2144  1.8643
  152MOL0     H20502   6.993   3.206   7.060  0.6457 -1.0337  0.0449
  152MOL0     H20503   6.844   3.422   7.018 -1.3779  0.9210 -1.1096
  152MOL0     H20504   6.353   4.513   5.937 -0.2883 -0.1700 -1.7990
  152MOL0     H20505   6.178   4.538   5.765 -1.0908 -1.6399 -0.5087
  152MOL0     H20506   5.716   4.668   5.584 -0.8625  0.0415 -2.6892
  152MOL0     H20507   5.547   4.618   5.433 -1.1203 -1.1684 -1.3345
  152MOL0     H20508   5.413   4.495   5.250  0.5049 -0.4518 -0.0506
  152MOL0     H20509   5.325   4.578   5.369  1.0525 -0.5699  1.2468
  152MOL0     H20510   5.142   4.418   5.369 -1.2198 -0.6740 -1.1277
  152MOL0     H20511   5.249   4.304   5.270  1.5608  0.1968  0.0134
  152MOL0     H20512   5.220   4.425   5.089  2.3440 -0.6551  0.8055
  152MOL0     H20513   5.182   4.591   5.166 -1.6190  0.0172 -0.6949
  152MOL0     H20514   5.008   4.344   5.145 -1.3261  0.1499  0.5980
  152MOL0     H20515   4.959   4.493   5.222  0.8809  1.4015  0.5285
  152MOL0     H20516   4.901   4.579   4.807  0.4327 -0.2792  0.3831
  152MOL0     H20517   5.481   4.247   5.626 -0.5910  0.2539 -0.8178
  152MOL0     H20518   5.753   4.266   5.876  0.1436  1.7648 -0.8726
  152MOL0     H20519   5.571   4.268   5.909  0.1881 -2.9623 -0.3790
  152MOL0     H20520   5.646   4.167   5.784  1.1121 -0.4118 -0.0610
  153MOL0     O20521  11.291   4.253  11.409 -0.0917  0.1423  0.2537
  153MOL0     C20522  11.289   4.352  11.335 -0.4705  0.2913  1.0179
  153MOL0     O20523  11.308   4.490  11.369 -0.0155 -0.0459  0.1573
  153MOL0     C20524  11.357   4.521  11.488 -0.1175 -0.2487 -0.3721
  153MOL0     C20525  11.266   4.547  11.593 -0.5405  0.4773 -0.1571
  153MOL0     C20526  11.321   4.578  11.719  0.2074  0.2650  0.7043
  153MOL0     C20527  11.456   4.589  11.742  0.3104 -0.2529  0.5683
  153MOL0     O20528  11.487   4.612  11.867 -0.0328  0.3421 -1.2292
  153MOL0     C20529  11.600   4.698  11.906  1.1468  1.4408 -0.7068
  153MOL0     C20530  11.556   4.759  12.050 -0.0714 -0.7172  0.1050
  153MOL0     C20531  11.665   4.825  12.127 -0.0785  0.3037  0.3685
  153MOL0     C20532  11.760   4.920  12.049  0.1763 -0.5170  0.3794
  153MOL0     C20533  11.803   5.033  12.145 -0.1032 -0.0421  0.0655
  153MOL0     C20534  11.900   4.980  12.252  0.8577  1.2551 -0.4502
  153MOL0     C20535  11.977   5.092  12.319  0.3831  0.1801 -0.3166
  153MOL0     C20536  12.063   5.188  12.215  0.7421  0.7910  0.0355
  153MOL0     N20537  12.137   5.285  12.289 -0.0537  0.2189 -0.5056
  153MOL0     C20538  12.097   5.412  12.335  0.9196  0.1631  0.7234
  153MOL0     C20539  12.210   5.460  12.383 -0.9579 -0.1623  0.7693
  153MOL0     C20540  12.223   5.587  12.464 -0.3604  0.0403 -0.5313
  153MOL0     C20541  12.319   5.692  12.403  0.1172  0.2065 -0.4354
  153MOL0     C20542  12.464   5.663  12.434  1.1458  0.3802  0.9091
  153MOL0     C20543  12.542   5.789  12.383 -1.2271  0.0494 -0.0283
  153MOL0     O20544  12.521   5.905  12.474  0.6351 -0.5264  0.1274
  153MOL0     C20545  12.627   5.991  12.487  0.2844  0.3511  0.0814
  153MOL0     C20546  12.745   6.005  12.408  0.6568 -0.4526  1.2778
  153MOL0     C20547  12.832   6.119  12.446 -0.3339  0.6207  0.0648
  153MOL0     C20548  12.798   6.225  12.533  0.2005  1.0528  1.0492
  153MOL0     C20549  12.884   6.337  12.564  0.2506  0.2015 -0.2784
  153MOL0     O20550  12.836   6.426  12.662  0.3667  0.5594  0.3741
  153MOL0     C20551  12.897   6.548  12.694  0.7755  1.2977 -0.0954
  153MOL0     C20552  12.916   6.652  12.612 -0.3512  0.4335  0.4823
  153MOL0     C20553  12.977   6.773  12.656  0.9816 -0.2221 -1.1105
  153MOL0     C20554  13.023   6.790  12.782  0.9309 -0.5960 -0.9763
  153MOL0     O20555  13.091   6.911  12.804  0.6985  0.4926  0.6504
  153MOL0     C20556  13.095   6.963  12.932 -0.3512  1.0552 -0.5196
  153MOL0     C20557  13.187   7.079  12.956  0.2126 -0.0263  0.4265
  153MOL0     C20558  13.146   7.190  12.859 -0.4829  0.4688 -0.6135
  153MOL0     C20559  13.166   7.337  12.922 -0.4081  1.2591 -0.0519
  153MOL0     C20560  13.147   7.448  12.823  0.3190 -0.9156 -1.0920
  153MOL0     C20561  13.231   7.425  12.698  0.1603  0.3306 -0.4090
  153MOL0     C20562  13.248   7.552  12.616 -0.7048  0.6338 -0.0780
  153MOL0     C20563  13.340   7.536  12.501  0.0456  0.6315 -0.4687
  153MOL0    Cl20564  13.268   7.448  12.379  0.5679  0.9032  0.3397
  153MOL0     C20565  13.003   6.693  12.873 -0.2095 -0.0371 -0.1669
  153MOL0     C20566  12.947   6.564  12.831  0.2359  0.0143  0.0649
  153MOL0     O20567  12.986   6.355  12.497  0.2313 -0.6277  0.1800
  153MOL0     C20568  12.682   6.203  12.599 -0.2021 -0.2674  0.3015
  153MOL0     C20569  12.600   6.092  12.577  0.5069  0.6226 -0.9024
  153MOL0     N20570  12.319   5.379  12.369  0.3251  0.5261 -0.1336
  153MOL0     N20571  12.276   5.270  12.313  0.5007 -0.3370  0.7076
  153MOL0     C20572  11.539   4.551  11.647 -0.2356  0.8446  0.8764
  153MOL0     C20573  11.493   4.524  11.520  0.2420  0.1240 -0.3347
  153MOL0     C20574  11.271   4.344  11.184  0.5532 -0.5691 -0.1733
  153MOL0     C20575  11.331   4.434  11.100 -0.9020  0.6921  0.1442
  153MOL0     C20576  11.344   4.424  10.964 -0.3136  0.2310 -0.0391
  153MOL0     C20577  11.259   4.332  10.901  0.3377  0.2935 -0.0679
  153MOL0     O20578  11.260   4.336  10.757  0.4751 -0.3892 -0.0342
  153MOL0     C20579  11.303   4.214  10.695  0.0999  0.3864 -0.5556
  153MOL0     C20580  11.300   4.220  10.544  0.0057  0.3930  0.0682
  153MOL0     C20581  11.164   4.270  10.497  1.5368  0.3026 -0.5714
  153MOL0     C20582  11.136   4.268  10.349 -0.1171  0.7862  0.2095
  153MOL0     C20583  11.223   4.360  10.279  0.9331  0.9198 -0.4084
  153MOL0     C20584  11.302   4.433  10.231 -0.7966 -0.1101 -0.1967
  153MOL0     C20585  11.181   4.246  10.978 -0.4732  0.2212 -0.2833
  153MOL0     C20586  11.184   4.251  11.119  0.4182 -0.2317 -0.3562
  153MOL0     C20587  11.111   4.156  11.193 -0.2867  0.1013 -0.6156
  153MOL0     H20588  11.160   4.555  11.567 -0.5363 -0.9626 -0.7162
  153MOL0     H20589  11.253   4.592  11.802  1.6205 -1.6332  2.2948
  153MOL0     H20590  11.686   4.633  11.921  0.1573  0.4119  0.8538
  153MOL0     H20591  11.611   4.774  11.828 -0.7978  2.4687 -0.0482
  153MOL0     H20592  11.514   4.682  12.116 -1.9172 -0.9287 -1.2202
  153MOL0     H20593  11.480   4.833  12.023  1.3993  0.3832 -1.1840
  153MOL0     H20594  11.733   4.750  12.168  0.7237  0.5129 -0.5381
  153MOL0     H20595  11.622   4.873  12.215 -0.7716  3.6086 -1.6085
  153MOL0     H20596  11.849   4.867  12.016  0.7632 -1.2894  2.9391
  153MOL0     H20597  11.706   4.957  11.961 -0.3406 -3.2989 -0.5673
  153MOL0     H20598  11.856   5.099  12.076 -0.1568  1.2069  1.1884
  153MOL0     H20599  11.726   5.097  12.189  1.0740  0.4102  1.5302
  153MOL0     H20600  11.848   4.924  12.331  1.2060  2.7142  0.8750
  153MOL0     H20601  11.964   4.913  12.194  0.6256  0.0341  0.6500
  153MOL0     H20602  12.045   5.037  12.385 -0.4123  0.0281  0.3969
  153MOL0     H20603  11.906   5.158  12.371  1.8651  1.6261 -0.0457
  153MOL0     H20604  12.143   5.133  12.165  0.1000 -0.2949  0.1618
  153MOL0     H20605  11.998   5.239  12.144  0.4078  0.2617 -0.0466
  153MOL0     H20606  12.002   5.465  12.336  1.5831  1.4963 -1.3014
  153MOL0     H20607  12.120   5.624  12.463 -0.8558 -0.9058  3.0872
  153MOL0     H20608  12.243   5.572  12.570 -1.1432  0.8410 -0.2581
  153MOL0     H20609  12.298   5.678  12.296  0.3559 -1.2299 -0.3089
  153MOL0     H20610  12.290   5.795  12.425  0.3387  0.1971 -0.0948
  153MOL0     H20611  12.490   5.576  12.374  0.3958  2.2382 -2.3556
  153MOL0     H20612  12.479   5.643  12.541  2.5498 -3.0920  0.2078
  153MOL0     H20613  12.500   5.806  12.283 -0.6254 -1.2497 -0.5409
  153MOL0     H20614  12.642   5.743  12.383 -1.0834  0.2845  2.2704
  153MOL0     H20615  12.769   5.935  12.329 -0.5431 -0.0998  0.5632
  153MOL0     H20616  12.930   6.132  12.401  0.8926 -2.3880  1.6341
  153MOL0     H20617  12.878   6.655  12.510  0.1544  0.1045  0.2826
  153MOL0     H20618  12.994   6.853  12.585 -3.1673  4.0500  2.0377
  153MOL0     H20619  12.995   7.000  12.957 -0.4695  0.0847  0.4952
  153MOL0     H20620  13.129   6.892  13.008 -1.7705  1.7998  0.8791
  153MOL0     H20621  13.169   7.110  13.060 -1.9560 -1.1389  0.4496
  153MOL0     H20622  13.285   7.040  12.928 -0.1344 -1.2642  0.8868
  153MOL0     H20623  13.204   7.180  12.766 -0.6040  3.5043 -1.1480
  153MOL0     H20624  13.040   7.177  12.835 -0.6712 -3.1366  1.5439
  153MOL0     H20625  13.267   7.349  12.962 -0.0148 -1.1404 -0.1798
  153MOL0     H20626  13.094   7.346  13.003 -1.6758  0.5421 -1.0698
  153MOL0     H20627  13.164   7.544  12.873 -0.4424  0.6112 -3.5768
  153MOL0     H20628  13.042   7.454  12.793  0.4891  0.8546 -1.4528
  153MOL0     H20629  13.334   7.406  12.732  0.8480 -0.5571 -2.7824
  153MOL0     H20630  13.199   7.348  12.627 -2.4277  0.2431  0.7495
  153MOL0     H20631  13.275   7.640  12.675 -1.9415  0.4722  0.7666
  153MOL0     H20632  13.148   7.577  12.578 -0.5430 -0.5259 -1.3613
  153MOL0     H20633  13.353   7.640  12.468  1.9079  0.7505  0.5210
  153MOL0     H20634  13.434   7.496  12.540 -0.5450 -2.4150 -1.8692
  153MOL0     H20635  13.033   6.700  12.977  0.4381  3.3295 -0.4743
  153MOL0     H20636  12.932   6.477  12.894 -1.3091 -1.1937 -1.8689
  153MOL0     H20637  12.642   6.265  12.679 -1.2481  1.2680 -1.3248
  153MOL0     H20638  12.501   6.083  12.620  1.0354 -1.9448 -0.0566
  153MOL0     H20639  11.641   4.545  11.681 -0.2895 -0.9909  0.7904
  153MOL0     H20640  11.554   4.527  11.430  0.1409  0.9773 -0.3876
  153MOL0     H20641  11.408   4.498  11.144  0.1944 -0.4654 -0.0229
  153MOL0     H20642  11.398   4.496  10.903 -1.9780  1.4568 -0.1363
  153MOL0     H20643  11.247   4.129  10.736 -0.4617  0.4567 -1.1593
  153MOL0     H20644  11.406   4.200  10.729  0.3243  0.3665 -1.2250
  153MOL0     H20645  11.329   4.124  10.502  2.6220  1.6471 -1.2326
  153MOL0     H20646  11.374   4.295  10.516  2.3380 -0.5877  3.1240
  153MOL0     H20647  11.153   4.371  10.537  0.2908  0.5271 -1.3981
  153MOL0     H20648  11.084   4.208  10.537  2.8364  0.1226  1.8695
  153MOL0     H20649  11.150   4.171  10.302 -1.0926 -0.1391  1.7502
  153MOL0     H20650  11.032   4.298  10.330  0.3492  1.2002 -1.9190
  153MOL0     H20651  11.377   4.500  10.195 -0.8052 -0.5634 -1.0914
  153MOL0     H20652  11.125   4.167  10.929  1.1373  0.4827 -2.7515
  153MOL0     H20653  11.057   4.209  11.272 -0.7519 -1.4127  0.1318
  153MOL0     H20654  11.040   4.100  11.132 -1.1512 -1.4283  1.6219
  153MOL0     H20655  11.176   4.085  11.246 -2.2245 -0.3602  1.3267
  154MOL0     O20656   8.036   4.852   7.693 -0.5658  0.0831 -0.2156
  154MOL0     C20657   8.153   4.890   7.714 -1.0240  0.0693 -0.4548
  154MOL0     O20658   8.208   5.019   7.683  0.1102 -1.1502  0.0590
  154MOL0     C20659   8.118   5.100   7.622  0.5241  0.8275  0.8959
  154MOL0     C20660   8.062   5.212   7.680 -0.5886  1.2322 -0.1884
  154MOL0     C20661   7.993   5.306   7.604 -0.1757  0.0347 -0.3682
  154MOL0     C20662   7.976   5.287   7.470  0.5967 -0.1638  0.0058
  154MOL0     O20663   7.913   5.386   7.399 -0.2349 -0.3929 -0.5837
  154MOL0     C20664   7.902   5.366   7.261  0.1100  1.1055 -0.6470
  154MOL0     C20665   7.796   5.473   7.213  0.5007  0.0650 -0.4458
  154MOL0     C20666   7.796   5.484   7.059  0.0047  0.8511 -0.2750
  154MOL0     C20667   7.918   5.554   7.008  0.3360  0.4804  0.1532
  154MOL0     C20668   7.910   5.543   6.860  0.0306 -0.1355  0.1024
  154MOL0     C20669   8.027   5.603   6.793 -0.6531 -0.2652 -1.1646
  154MOL0     C20670   8.162   5.543   6.839  0.4988 -0.1088 -0.7263
  154MOL0     C20671   8.278   5.621   6.768  0.0354  0.5533 -0.4868
  154MOL0     N20672   8.308   5.592   6.621 -0.3592  0.1283 -0.0879
  154MOL0     C20673   8.360   5.477   6.571  0.2626  0.4632  0.5543
  154MOL0     C20674   8.361   5.485   6.433  1.3699 -0.6312 -1.5211
  154MOL0     C20675   8.413   5.393   6.332  0.6481 -0.1842 -0.1836
  154MOL0     C20676   8.467   5.449   6.198  0.1845 -0.2911 -0.3688
  154MOL0     C20677   8.495   5.340   6.091 -0.2335 -0.4053  0.4185
  154MOL0     C20678   8.531   5.389   5.948 -0.3418  0.6634  0.6587
  154MOL0     O20679   8.418   5.463   5.896  0.3973 -0.2640  0.5421
  154MOL0     C20680   8.428   5.532   5.780  0.0626  0.2854 -0.3662
  154MOL0     C20681   8.538   5.537   5.695  0.3703 -0.7916  0.1880
  154MOL0     C20682   8.533   5.613   5.584  1.0073 -0.8082  0.1468
  154MOL0     C20683   8.423   5.683   5.543 -0.4331  0.2468 -0.5904
  154MOL0     C20684   8.425   5.751   5.413 -0.4393 -0.3881 -0.2465
  154MOL0     O20685   8.330   5.849   5.393  0.3521 -0.2500 -0.0921
  154MOL0     C20686   8.333   5.929   5.281  0.5203 -0.4158 -0.7528
  154MOL0     C20687   8.213   5.988   5.253 -1.3275  0.1147  0.1052
  154MOL0     C20688   8.196   6.082   5.144 -0.1112  0.0951 -0.6216
  154MOL0     C20689   8.302   6.092   5.045  0.1848 -0.0743 -0.4801
  154MOL0     O20690   8.280   6.161   4.932  0.2224  0.3107  0.6206
  154MOL0     C20691   8.390   6.217   4.855  0.0903 -1.2457 -0.0447
  154MOL0     C20692   8.343   6.360   4.799  0.0737  0.3092  0.2109
  154MOL0     C20693   8.247   6.351   4.679 -0.3139 -0.2015 -0.1805
  154MOL0     C20694   8.306   6.421   4.553 -0.4016  0.2288 -0.0274
  154MOL0     C20695   8.306   6.567   4.570  0.4857 -0.7022 -1.0584
  154MOL0     C20696   8.256   6.640   4.439  0.5816 -0.2129  0.5730
  154MOL0     C20697   8.277   6.794   4.444  0.3214 -0.1183  0.6578
  154MOL0     C20698   8.178   6.857   4.533  0.7660  0.3960 -0.5223
  154MOL0    Cl20699   8.010   6.828   4.461 -0.0052  0.1132 -0.0941
  154MOL0     C20700   8.422   6.031   5.078 -0.5906 -0.3682 -0.5372
  154MOL0     C20701   8.438   5.956   5.193  0.2520  0.5485  0.8473
  154MOL0     O20702   8.490   5.695   5.322  0.1887  0.0914 -0.0720
  154MOL0     C20703   8.314   5.680   5.627 -0.5541 -0.5469  0.7275
  154MOL0     C20704   8.308   5.598   5.741 -0.2463 -1.1491  0.0307
  154MOL0     N20705   8.308   5.607   6.406  0.4719  1.1047  0.1076
  154MOL0     N20706   8.275   5.674   6.515 -0.0166  0.4108  0.0621
  154MOL0     C20707   8.033   5.169   7.414  0.5091  0.5955  0.3047
  154MOL0     C20708   8.105   5.078   7.484 -0.2884 -0.3427 -0.1474
  154MOL0     C20709   8.230   4.802   7.806 -0.1836  0.5481  0.0527
  154MOL0     C20710   8.346   4.848   7.872  0.2528 -0.5131 -0.3341
  154MOL0     C20711   8.430   4.769   7.953  0.6343 -0.3891  0.1856
  154MOL0     C20712   8.393   4.637   7.977  0.4828 -0.8319  0.6590
  154MOL0     O20713   8.454   4.550   8.067  0.3602 -0.6472 -0.4250
  154MOL0     C20714   8.548   4.598   8.169 -0.1962 -0.2195  1.1410
  154MOL0     C20715   8.671   4.512   8.162  0.3026  0.1517 -0.5625
  154MOL0     C20716   8.651   4.404   8.271 -0.1406  0.4361  0.6533
  154MOL0     C20717   8.756   4.293   8.267  0.6226 -0.2574 -0.7465
  154MOL0     C20718   8.888   4.346   8.301  0.6371  0.0735  0.6326
  154MOL0     C20719   8.999   4.400   8.310  0.5063  0.8406 -0.0702
  154MOL0     C20720   8.277   4.588   7.917 -1.0227  0.2803 -0.9282
  154MOL0     C20721   8.195   4.660   7.828  0.5356 -0.4702 -0.5669
  154MOL0     C20722   8.071   4.590   7.776 -0.2445 -0.2458  0.2973
  154MOL0     H20723   8.066   5.238   7.785 -1.5957  0.4719  0.0594
  154MOL0     H20724   7.967   5.391   7.666  2.7605  0.0656  0.9700
  154MOL0     H20725   8.003   5.379   7.221  1.2697 -3.4501  0.1811
  154MOL0     H20726   7.877   5.264   7.230  3.3538  0.1584 -0.5009
  154MOL0     H20727   7.821   5.569   7.260 -1.1555 -0.2612  1.1699
  154MOL0     H20728   7.697   5.443   7.248  2.9165 -5.8511  2.7451
  154MOL0     H20729   7.706   5.537   7.026 -0.0801  0.2818 -0.9697
  154MOL0     H20730   7.783   5.381   7.027 -0.3382  0.5626  0.7454
  154MOL0     H20731   7.933   5.656   7.044  1.2639  1.8528 -3.6067
  154MOL0     H20732   8.009   5.502   7.041  1.2793  3.1451  2.1160
  154MOL0     H20733   7.908   5.437   6.835  0.3535  0.4700 -2.7865
  154MOL0     H20734   7.816   5.590   6.830 -1.0324  0.3298  3.6806
  154MOL0     H20735   8.026   5.613   6.684 -0.0898 -1.3525 -1.2824
  154MOL0     H20736   8.036   5.706   6.829  1.7473 -1.1147  0.9955
  154MOL0     H20737   8.164   5.437   6.816 -1.6664  0.1923 -2.6658
  154MOL0     H20738   8.173   5.562   6.947  1.1727 -1.7968 -0.4744
  154MOL0     H20739   8.265   5.729   6.785 -0.1697  0.9463 -2.8480
  154MOL0     H20740   8.366   5.580   6.819  0.3073 -1.6888 -2.5857
  154MOL0     H20741   8.390   5.380   6.609 -1.7167 -1.1094 -1.5713
  154MOL0     H20742   8.489   5.328   6.376  1.4785  1.0055  0.1738
  154MOL0     H20743   8.327   5.330   6.305 -0.6321  1.4685 -0.1016
  154MOL0     H20744   8.406   5.533   6.163 -0.7949  0.2517  2.3745
  154MOL0     H20745   8.567   5.484   6.224  0.6297 -1.9507  0.2307
  154MOL0     H20746   8.406   5.281   6.065 -1.5501  2.6900 -3.0015
  154MOL0     H20747   8.580   5.284   6.132  0.2646  1.0727  1.4769
  154MOL0     H20748   8.564   5.309   5.881 -1.2075 -0.9191  2.0256
  154MOL0     H20749   8.617   5.455   5.954 -1.0867  1.9436 -1.6038
  154MOL0     H20750   8.636   5.494   5.712 -0.8767 -3.4724  1.2093
  154MOL0     H20751   8.615   5.631   5.515  1.4115 -2.9581  0.0098
  154MOL0     H20752   8.128   5.976   5.320  0.2118 -5.4056  1.6233
  154MOL0     H20753   8.100   6.131   5.129  0.0760  1.1120  1.2099
  154MOL0     H20754   8.483   6.224   4.912  0.5820  1.8022 -1.0387
  154MOL0     H20755   8.409   6.142   4.778 -4.6136  0.0779 -2.9580
  154MOL0     H20756   8.281   6.402   4.879  1.7766  4.1859 -0.3069
  154MOL0     H20757   8.427   6.421   4.764  0.3218  0.3950  0.9212
  154MOL0     H20758   8.232   6.246   4.649  2.8268 -1.0357  0.7570
  154MOL0     H20759   8.152   6.399   4.704 -0.4962  0.6667 -2.3026
  154MOL0     H20760   8.234   6.404   4.473 -0.7973 -0.2374  0.4142
  154MOL0     H20761   8.406   6.383   4.530 -0.8883 -0.1777 -1.5584
  154MOL0     H20762   8.410   6.592   4.590 -0.9067  2.1508  5.1631
  154MOL0     H20763   8.263   6.585   4.669 -1.2200 -5.0557 -0.7556
  154MOL0     H20764   8.300   6.598   4.349 -0.1628 -0.0837  0.1380
  154MOL0     H20765   8.149   6.625   4.419  0.6844  0.9352 -0.9879
  154MOL0     H20766   8.276   6.837   4.344 -0.8580  0.0190  0.7105
  154MOL0     H20767   8.378   6.812   4.483  0.6064  1.6086 -0.7757
  154MOL0     H20768   8.172   6.819   4.636 -1.4993  1.7743 -0.0844
  154MOL0     H20769   8.183   6.964   4.551 -4.3408  0.4437  2.8217
  154MOL0     H20770   8.504   6.039   5.007 -2.6567  1.5564 -2.9308
  154MOL0     H20771   8.534   5.906   5.205  0.9757  1.2262 -1.6540
  154MOL0     H20772   8.224   5.722   5.584 -1.3298 -3.1311 -0.3641
  154MOL0     H20773   8.217   5.593   5.800  0.3780  2.0782  1.4955
  154MOL0     H20774   8.038   5.164   7.306 -1.0911 -0.6048  0.2537
  154MOL0     H20775   8.160   4.996   7.438  2.8445  1.3733  0.2658
  154MOL0     H20776   8.367   4.953   7.854  1.2547 -0.3877  1.3652
  154MOL0     H20777   8.515   4.828   7.986 -0.6551  1.9647 -0.4869
  154MOL0     H20778   8.499   4.613   8.265 -3.0423  1.2119 -0.4132
  154MOL0     H20779   8.591   4.697   8.149 -1.3588 -0.2232 -1.8889
  154MOL0     H20780   8.761   4.571   8.181  0.1567 -0.2891  1.7639
  154MOL0     H20781   8.693   4.474   8.062  0.0866 -0.7167 -0.2926
  154MOL0     H20782   8.554   4.358   8.251  1.6797 -2.8447 -1.7253
  154MOL0     H20783   8.652   4.441   8.373 -0.7542 -3.7138  2.3745
  154MOL0     H20784   8.723   4.214   8.335 -2.0129  1.2718 -0.1244
  154MOL0     H20785   8.754   4.250   8.166  0.0835  2.0474 -1.7820
  154MOL0     H20786   9.097   4.443   8.315  1.1342 -0.4099 -0.9617
  154MOL0     H20787   8.247   4.489   7.949  0.8809 -0.2577 -0.7131
  154MOL0     H20788   8.042   4.623   7.675 -0.3415  0.4086  0.5347
  154MOL0     H20789   8.085   4.482   7.769 -0.1312 -0.2580  0.6993
  154MOL0     H20790   7.980   4.609   7.833 -1.9799  2.4777 -3.0004
  155MOL0     O20791  10.262   7.094   3.362 -0.3015  0.3925  0.5780
  155MOL0     C20792  10.279   7.190   3.433  0.1204 -0.4429 -0.8784
  155MOL0     O20793  10.221   7.201   3.561  0.1584  0.7660 -0.2545
  155MOL0     C20794  10.180   7.100   3.640 -0.3713  0.1794  1.2748
  155MOL0     C20795  10.092   7.121   3.745 -0.1437  0.8972  0.7405
  155MOL0     C20796  10.047   7.011   3.817 -0.4858  0.0646  0.3772
  155MOL0     C20797  10.103   6.881   3.795 -0.3658 -1.0522 -0.4675
  155MOL0     O20798  10.058   6.770   3.867  0.6977 -1.0035 -0.6295
  155MOL0     C20799  10.127   6.742   3.986 -0.3884  0.3620  0.0762
  155MOL0     C20800  10.089   6.601   4.023  0.0859  0.8210 -1.0115
  155MOL0     C20801  10.204   6.554   4.124  0.0922  0.1221 -0.7799
  155MOL0     C20802  10.151   6.462   4.234  1.3852  0.5291 -0.1752
  155MOL0     C20803  10.260   6.410   4.322  0.0470 -0.8389 -0.9571
  155MOL0     C20804  10.204   6.343   4.459  0.5041  0.6999 -0.2971
  155MOL0     C20805  10.313   6.317   4.560 -0.1853 -0.1187  0.6013
  155MOL0     C20806  10.282   6.252   4.687  0.4686  0.6410  0.1425
  155MOL0     N20807  10.399   6.218   4.767 -0.5443 -0.1521 -0.8921
  155MOL0     C20808  10.455   6.091   4.774 -0.0520  0.2209  1.3399
  155MOL0     C20809  10.525   6.090   4.889 -0.8230 -0.0511 -0.2816
  155MOL0     C20810  10.593   5.970   4.944  0.0493  0.3733  0.1209
  155MOL0     C20811  10.531   5.834   4.900  0.0330  0.0003 -0.0206
  155MOL0     C20812  10.396   5.802   4.974 -0.6521  0.6022  0.1331
  155MOL0     C20813  10.260   5.858   4.930  0.4449 -0.3877 -0.8085
  155MOL0     O20814  10.231   5.826   4.788  0.7196 -0.9389 -0.6715
  155MOL0     C20815  10.139   5.895   4.718 -0.0501 -0.4873 -1.1461
  155MOL0     C20816  10.137   5.881   4.580  0.7577  0.6821 -1.3933
  155MOL0     C20817  10.051   5.950   4.499  0.8615 -0.7076 -0.2383
  155MOL0     C20818   9.949   6.029   4.550 -1.0279  0.2096 -0.2046
  155MOL0     C20819   9.861   6.112   4.470 -0.3966 -0.0320 -0.2955
  155MOL0     O20820   9.895   6.116   4.340  0.3711 -0.4292 -0.0360
  155MOL0     C20821   9.829   6.216   4.269  0.2117 -1.0320  0.9508
  155MOL0     C20822   9.814   6.355   4.307 -0.4668 -0.0768  0.0576
  155MOL0     C20823   9.750   6.443   4.222 -0.1390  0.7426 -0.0428
  155MOL0     C20824   9.694   6.408   4.100  0.8560  0.1158  0.3584
  155MOL0     O20825   9.629   6.509   4.030 -0.5328 -0.9944  1.2159
  155MOL0     C20826   9.661   6.512   3.892  0.0372 -0.5760 -0.0561
  155MOL0     C20827   9.636   6.647   3.825  0.6164 -0.2392  0.0245
  155MOL0     C20828   9.504   6.708   3.857  0.3166 -0.8652 -0.1620
  155MOL0     C20829   9.489   6.845   3.789  0.9554  0.3378  0.5749
  155MOL0     C20830   9.390   6.924   3.872  0.1901  0.2975 -0.6844
  155MOL0     C20831   9.383   7.066   3.821 -0.6778 -0.2842  0.1415
  155MOL0     C20832   9.478   7.167   3.895  0.5992 -1.3044  0.5777
  155MOL0     C20833   9.481   7.312   3.830  1.4050  0.0631 -0.0294
  155MOL0    Cl20834   9.321   7.363   3.790  0.0043  0.1051  0.1593
  155MOL0     C20835   9.708   6.270   4.061  0.7367  0.5285 -0.1240
  155MOL0     C20836   9.779   6.182   4.143 -0.1638  0.3116 -0.7832
  155MOL0     O20837   9.767   6.166   4.529  0.1304 -0.1726  0.1330
  155MOL0     C20838   9.940   6.040   4.692 -0.7653  0.4413  0.3684
  155MOL0     C20839  10.038   5.975   4.775  0.4343  0.2265  0.1744
  155MOL0     N20840  10.501   6.216   4.950 -0.6306  0.1124 -0.7566
  155MOL0     N20841  10.436   6.292   4.873  0.2629 -0.0423  0.6075
  155MOL0     C20842  10.199   6.868   3.694 -0.5023 -0.2687  0.0281
  155MOL0     C20843  10.233   6.971   3.616  0.6845 -0.4655  0.2725
  155MOL0     C20844  10.375   7.296   3.404  0.5100 -0.0687 -0.1684
  155MOL0     C20845  10.341   7.430   3.437 -0.2338  0.2763 -0.6248
  155MOL0     C20846  10.428   7.533   3.406  0.2047 -0.8321  0.5205
  155MOL0     C20847  10.537   7.520   3.326  0.2511  0.3744  0.5432
  155MOL0     O20848  10.619   7.626   3.294 -0.0530 -0.6283 -0.4156
  155MOL0     C20849  10.737   7.592   3.230 -0.4083  0.4074  1.2716
  155MOL0     C20850  10.822   7.716   3.229  0.7519 -0.7648 -0.6516
  155MOL0     C20851  10.893   7.733   3.094 -0.2433 -0.3150 -1.2682
  155MOL0     C20852  11.008   7.639   3.083 -0.2890 -0.6400  0.0193
  155MOL0     C20853  11.026   7.626   2.942  0.1887 -0.6407 -0.6248
  155MOL0     C20854  11.036   7.601   2.824 -0.2901  0.4320 -0.7316
  155MOL0     C20855  10.558   7.389   3.277 -0.6544  0.0134  0.3523
  155MOL0     C20856  10.478   7.277   3.304  0.9697  0.6536 -1.4588
  155MOL0     C20857  10.522   7.135   3.275  0.7062 -0.7208 -0.0955
  155MOL0     H20858  10.045   7.218   3.752 -2.5359 -0.1640  0.5420
  155MOL0     H20859   9.970   7.035   3.889  1.0462  1.1311  1.7164
  155MOL0     H20860  10.234   6.762   3.968 -0.7083  3.3374  0.9722
  155MOL0     H20861  10.089   6.815   4.058  2.2467 -0.6728  2.7127
  155MOL0     H20862  10.079   6.536   3.936 -1.0096 -3.2441  1.8345
  155MOL0     H20863   9.994   6.603   4.078 -0.5191  1.4163 -2.0601
  155MOL0     H20864  10.260   6.639   4.163 -0.2625  0.1563 -0.3354
  155MOL0     H20865  10.275   6.495   4.067 -1.4289 -1.5360 -1.0501
  155MOL0     H20866  10.082   6.520   4.297  2.3351  0.9839  0.4585
  155MOL0     H20867  10.086   6.377   4.209  3.5326 -0.5435 -2.4473
  155MOL0     H20868  10.315   6.333   4.266  0.6193  1.2446 -3.4156
  155MOL0     H20869  10.331   6.488   4.353  1.2108 -1.6689 -1.4606
  155MOL0     H20870  10.127   6.413   4.494  0.0285  1.0979 -2.0172
  155MOL0     H20871  10.162   6.248   4.426  2.1416 -0.3692  0.5872
  155MOL0     H20872  10.360   6.414   4.580 -1.4174  0.2687  1.8068
  155MOL0     H20873  10.386   6.257   4.504 -0.7167 -0.1489 -0.0671
  155MOL0     H20874  10.204   6.321   4.721  2.0026  1.9779  1.0519
  155MOL0     H20875  10.235   6.156   4.666  0.3663  0.7852 -0.3038
  155MOL0     H20876  10.445   6.012   4.700 -0.7198  2.4873 -1.1301
  155MOL0     H20877  10.701   5.969   4.927 -0.1498 -0.1862 -1.1815
  155MOL0     H20878  10.581   5.980   5.053 -0.0436  0.9166  0.0610
  155MOL0     H20879  10.526   5.828   4.791  2.0405  1.2658 -0.2306
  155MOL0     H20880  10.598   5.758   4.942 -3.1235 -0.6720  4.5443
  155MOL0     H20881  10.407   5.813   5.082  2.3833  0.2106 -0.0379
  155MOL0     H20882  10.382   5.694   4.963 -4.0697  0.8619  0.8154
  155MOL0     H20883  10.291   5.963   4.924  5.8827 -1.6679 -0.0267
  155MOL0     H20884  10.182   5.835   5.003  0.7537  1.7370  0.2818
  155MOL0     H20885  10.210   5.816   4.533  0.1116 -0.6524 -0.6013
  155MOL0     H20886  10.065   5.930   4.393  1.1671 -1.1230 -0.1190
  155MOL0     H20887   9.851   6.393   4.402 -1.3541  2.5773 -0.5798
  155MOL0     H20888   9.753   6.544   4.261  0.9766  0.5710  0.3517
  155MOL0     H20889   9.768   6.498   3.877  0.6527  3.1359 -0.0093
  155MOL0     H20890   9.599   6.437   3.841 -0.2536  0.3451 -1.0883
  155MOL0     H20891   9.719   6.707   3.865 -1.0508  1.0702  1.7112
  155MOL0     H20892   9.640   6.636   3.716 -0.1550 -1.8669  0.1424
  155MOL0     H20893   9.431   6.640   3.813  0.4465 -0.4481 -1.0475
  155MOL0     H20894   9.493   6.713   3.966  1.4925 -3.3688  0.1256
  155MOL0     H20895   9.451   6.824   3.689  0.3671 -3.1545  1.3945
  155MOL0     H20896   9.581   6.904   3.782  0.7473  0.9558  2.4574
  155MOL0     H20897   9.410   6.918   3.979 -4.6940 -1.2782  0.3882
  155MOL0     H20898   9.290   6.879   3.869  0.5492 -0.5116 -0.7729
  155MOL0     H20899   9.405   7.059   3.714  1.2265 -0.5658  0.5132
  155MOL0     H20900   9.285   7.106   3.846  0.5936  4.2306 -1.1217
  155MOL0     H20901   9.581   7.131   3.908  1.4014  1.3937  2.5280
  155MOL0     H20902   9.447   7.178   3.999 -1.1246  0.4862 -0.0886
  155MOL0     H20903   9.528   7.373   3.908  1.3549 -1.1039  0.9398
  155MOL0     H20904   9.549   7.316   3.744  0.4621 -3.0188 -1.0835
  155MOL0     H20905   9.665   6.229   3.970  0.5050 -0.3698  0.3773
  155MOL0     H20906   9.799   6.083   4.102 -1.3791  0.7089 -2.4002
  155MOL0     H20907   9.861   6.093   4.744  0.2878  1.5631  0.8724
  155MOL0     H20908  10.017   6.003   4.878  1.6479  4.3454 -0.5268
  155MOL0     H20909  10.259   6.778   3.704  0.6069  0.4416 -0.0517
  155MOL0     H20910  10.322   6.964   3.554  0.5403 -1.1270  0.1261
  155MOL0     H20911  10.248   7.455   3.488 -0.5000 -0.5515 -0.6868
  155MOL0     H20912  10.411   7.634   3.439  1.8118 -0.7602  1.2118
  155MOL0     H20913  10.716   7.556   3.128  2.3720 -1.9556  1.3755
  155MOL0     H20914  10.795   7.511   3.275 -0.8908 -0.4828  0.3287
  155MOL0     H20915  10.897   7.718   3.309  1.6854 -1.8513 -1.4668
  155MOL0     H20916  10.753   7.796   3.259 -0.1790 -2.5691  2.5683
  155MOL0     H20917  10.939   7.832   3.108 -1.0526 -0.0846 -0.1465
  155MOL0     H20918  10.829   7.748   3.007 -1.2385  2.1673 -0.1991
  155MOL0     H20919  11.106   7.680   3.112  0.1229 -2.3618  1.1630
  155MOL0     H20920  10.984   7.542   3.127 -2.5197 -0.5516 -0.9145
  155MOL0     H20921  11.038   7.589   2.717 -0.8891 -0.2872 -0.6720
  155MOL0     H20922  10.648   7.356   3.226 -1.1824 -4.3993  1.8837
  155MOL0     H20923  10.467   7.109   3.184 -0.7842  2.6544 -0.3197
  155MOL0     H20924  10.631   7.133   3.262  1.0687  0.3040  2.2800
  155MOL0     H20925  10.506   7.078   3.366  0.5865  3.9777  3.1835
  156MOL0     O20926   3.002   5.677   0.582  0.0072 -0.5066 -0.3750
  156MOL0     C20927   3.003   5.694   0.460 -1.2345 -0.0635  0.6289
  156MOL0     O20928   3.093   5.626   0.381 -0.8595 -0.0962  0.5926
  156MOL0     C20929   3.167   5.525   0.432  0.7754  0.7936  0.7681
  156MOL0     C20930   3.271   5.541   0.523 -0.0697  0.8970  0.5350
  156MOL0     C20931   3.349   5.429   0.570 -0.1546 -0.1509 -0.6222
  156MOL0     C20932   3.314   5.308   0.517  0.2131  0.4415 -0.2535
  156MOL0     O20933   3.395   5.209   0.555 -0.4375  0.4847  0.4269
  156MOL0     C20934   3.367   5.068   0.516  1.7905 -0.0582  0.9340
  156MOL0     C20935   3.480   4.971   0.551  0.3895  0.4009  0.4925
  156MOL0     C20936   3.486   4.922   0.695  1.0089 -0.1589 -0.3549
  156MOL0     C20937   3.621   4.868   0.727 -0.5566  0.4198  0.2059
  156MOL0     C20938   3.649   4.829   0.873 -0.5267 -0.2516 -0.4809
  156MOL0     C20939   3.636   4.934   0.988 -0.0621 -0.0906 -0.5554
  156MOL0     C20940   3.711   5.062   0.975  1.1627 -0.1376  0.5756
  156MOL0     C20941   3.851   5.052   1.016 -0.4664  0.2567 -0.8824
  156MOL0     N20942   3.931   5.170   0.974  1.6545  0.0806 -0.4089
  156MOL0     C20943   4.018   5.174   0.860  0.6258 -1.6409  0.2854
  156MOL0     C20944   4.044   5.306   0.844 -0.3291 -0.1174  0.1780
  156MOL0     C20945   4.130   5.382   0.751  0.0395 -0.2920 -1.1320
  156MOL0     C20946   4.273   5.351   0.790  0.5385  0.4511 -0.1279
  156MOL0     C20947   4.362   5.333   0.671  0.0736  0.5811  0.3085
  156MOL0     C20948   4.469   5.219   0.699  0.1934 -0.3174  0.3836
  156MOL0     O20949   4.565   5.202   0.590  0.5514  0.1927 -0.6440
  156MOL0     C20950   4.510   5.124   0.485 -1.3821  0.7285  0.3494
  156MOL0     C20951   4.598   5.125   0.375  1.5394  0.0619  0.1570
  156MOL0     C20952   4.552   5.063   0.259 -0.4243  0.0381  0.1644
  156MOL0     C20953   4.434   4.995   0.250  0.2235 -0.8269  0.0476
  156MOL0     C20954   4.399   4.934   0.120  0.0342  0.1656 -0.4045
  156MOL0     O20955   4.489   4.931   0.016 -0.1130  0.1341 -0.0331
  156MOL0     C20956   4.455   4.887  -0.117  0.3767 -1.0444 -0.8820
  156MOL0     C20957   4.356   4.940  -0.209  0.3689  0.3904 -0.3091
  156MOL0     C20958   4.323   4.876  -0.322 -0.5993 -0.5545  0.1101
  156MOL0     C20959   4.382   4.756  -0.351 -0.8829  0.1920 -0.9385
  156MOL0     O20960   4.377   4.708  -0.488  0.2996  0.5100 -0.3953
  156MOL0     C20961   4.329   4.571  -0.506 -0.8055 -0.4006  0.6633
  156MOL0     C20962   4.282   4.546  -0.652  0.8062  0.4631 -0.4161
  156MOL0     C20963   4.402   4.538  -0.746  0.5159  0.3078  0.5262
  156MOL0     C20964   4.404   4.403  -0.832  0.3232 -0.9279 -0.3968
  156MOL0     C20965   4.512   4.413  -0.943 -0.1794 -0.3423  0.2969
  156MOL0     C20966   4.500   4.533  -1.046 -0.3342 -0.3029  0.4014
  156MOL0     C20967   4.608   4.508  -1.145 -0.3124 -1.0567  0.8760
  156MOL0     C20968   4.585   4.603  -1.269  0.2542 -0.2566 -0.0509
  156MOL0    Cl20969   4.679   4.553  -1.408  0.2985  0.3838 -0.5037
  156MOL0     C20970   4.463   4.692  -0.254 -0.6980  0.0417 -0.9686
  156MOL0     C20971   4.498   4.761  -0.142 -0.7466 -0.7641 -0.2974
  156MOL0     O20972   4.299   4.857   0.120 -0.1979 -0.2562 -0.8954
  156MOL0     C20973   4.336   5.005   0.355  0.0212  0.6838 -0.7158
  156MOL0     C20974   4.384   5.056   0.475 -0.6641  0.0078  0.4923
  156MOL0     N20975   3.989   5.368   0.950 -0.4104 -0.5919  0.4051
  156MOL0     N20976   3.923   5.291   1.032 -0.2783 -0.6627 -0.0226
  156MOL0     C20977   3.210   5.288   0.425 -0.4214 -0.1275  0.6935
  156MOL0     C20978   3.141   5.402   0.374 -0.2827  0.3464 -0.2153
  156MOL0     C20979   2.916   5.796   0.388 -0.5809  0.9824  0.0794
  156MOL0     C20980   2.961   5.861   0.272 -0.5716 -0.5392 -0.1424
  156MOL0     C20981   2.886   5.947   0.199  0.6139 -0.1273 -0.3536
  156MOL0     C20982   2.769   5.996   0.254  0.0258  0.6971 -0.5545
  156MOL0     O20983   2.682   6.087   0.196  1.1297  0.1684  0.1576
  156MOL0     C20984   2.675   6.112   0.056 -0.0449 -0.0121 -1.1656
  156MOL0     C20985   2.561   6.214   0.030 -0.8167 -0.6727  1.0359
  156MOL0     C20986   2.626   6.359   0.040 -0.1738 -0.4589  0.2918
  156MOL0     C20987   2.536   6.478   0.028 -0.3223 -1.0987 -0.4831
  156MOL0     C20988   2.415   6.476   0.106  0.9517  0.5749 -0.0247
  156MOL0     C20989   2.307   6.462   0.166  0.5213  0.5768 -0.9561
  156MOL0     C20990   2.732   5.964   0.382  0.9393 -0.2434 -0.1291
  156MOL0     C20991   2.801   5.855   0.450  0.6534  0.0092  0.0825
  156MOL0     C20992   2.748   5.810   0.589 -0.1473  0.2610 -0.0802
  156MOL0     H20993   3.283   5.641   0.564 -1.6577  1.5619 -0.5108
  156MOL0     H20994   3.424   5.434   0.648 -2.0508  0.4219  1.2563
  156MOL0     H20995   3.272   5.046   0.565  0.9067 -3.2747 -1.8645
  156MOL0     H20996   3.345   5.067   0.409 -0.8194 -2.0967  1.4025
  156MOL0     H20997   3.569   5.029   0.523  0.3040 -0.0578 -0.8206
  156MOL0     H20998   3.479   4.884   0.484  1.6242  1.4650 -0.9866
  156MOL0     H20999   3.396   4.862   0.713  0.2675  1.2671  0.9549
  156MOL0     H21000   3.476   5.013   0.755  2.0140  0.6469 -1.3711
  156MOL0     H21001   3.634   4.784   0.659 -2.6878 -2.4201  2.9778
  156MOL0     H21002   3.693   4.945   0.697 -0.0739  0.6290  1.7648
  156MOL0     H21003   3.586   4.742   0.897  0.6357 -0.4515  2.2761
  156MOL0     H21004   3.752   4.794   0.878 -0.5640 -0.2193  0.9951
  156MOL0     H21005   3.530   4.963   0.991  0.6391  3.2339  4.5216
  156MOL0     H21006   3.656   4.885   1.083 -0.2848  0.4005 -0.2546
  156MOL0     H21007   3.664   5.131   1.044  0.2136 -0.2192  0.0352
  156MOL0     H21008   3.698   5.100   0.873  1.5100 -3.9447 -1.0945
  156MOL0     H21009   3.850   5.051   1.125 -0.6466 -1.4031 -0.8718
  156MOL0     H21010   3.896   4.954   0.996  0.1103  0.1028  1.0178
  156MOL0     H21011   4.043   5.087   0.799  0.1163 -0.8862 -1.0535
  156MOL0     H21012   4.106   5.345   0.651  1.4094  0.2908 -1.7067
  156MOL0     H21013   4.103   5.487   0.735 -3.4005 -0.8221  0.1907
  156MOL0     H21014   4.311   5.429   0.855  0.6667  0.0205  0.3192
  156MOL0     H21015   4.271   5.255   0.843  0.3847  0.5889  0.1168
  156MOL0     H21016   4.405   5.430   0.644  0.1089  0.4471 -0.1342
  156MOL0     H21017   4.303   5.303   0.584  1.5643  1.3241 -1.0361
  156MOL0     H21018   4.433   5.117   0.714  1.3405 -0.7237  0.4990
  156MOL0     H21019   4.522   5.256   0.788 -1.7656 -1.5246  2.1687
  156MOL0     H21020   4.699   5.161   0.393  2.6388 -2.2370 -0.9529
  156MOL0     H21021   4.616   5.064   0.172  1.8872  0.2396  1.7662
  156MOL0     H21022   4.308   5.033  -0.181 -1.7071 -0.1709 -1.7711
  156MOL0     H21023   4.265   4.926  -0.399 -0.2461  1.5549  1.1449
  156MOL0     H21024   4.415   4.509  -0.478  0.9746  1.2200 -0.8920
  156MOL0     H21025   4.239   4.563  -0.444  0.3850 -0.0341  2.5154
  156MOL0     H21026   4.225   4.453  -0.666 -2.3504  1.9174  1.6339
  156MOL0     H21027   4.206   4.622  -0.673 -0.7288 -1.4331 -2.0950
  156MOL0     H21028   4.397   4.620  -0.819  1.6922 -2.5992 -3.1785
  156MOL0     H21029   4.501   4.549  -0.701  1.1440 -0.3197 -0.6498
  156MOL0     H21030   4.304   4.383  -0.870  1.2343 -1.9665 -2.4536
  156MOL0     H21031   4.437   4.324  -0.764 -0.3718 -1.0046 -0.1519
  156MOL0     H21032   4.508   4.314  -0.991 -1.1757 -2.2929  3.9509
  156MOL0     H21033   4.613   4.426  -0.905 -0.3889  1.7513  0.2237
  156MOL0     H21034   4.405   4.525  -1.101 -0.6435  1.2292  0.6738
  156MOL0     H21035   4.510   4.628  -0.993  0.2229 -0.7661  1.1420
  156MOL0     H21036   4.627   4.404  -1.175 -0.5082 -1.0228  0.6308
  156MOL0     H21037   4.693   4.545  -1.086 -0.7061 -0.6888  1.2151
  156MOL0     H21038   4.478   4.589  -1.287  0.1312 -0.7193  0.9723
  156MOL0     H21039   4.603   4.704  -1.231 -4.1476 -0.3414  2.9820
  156MOL0     H21040   4.506   4.594  -0.275 -1.5322 -0.2605 -1.2791
  156MOL0     H21041   4.565   4.734  -0.061  0.5141  2.5314 -0.0548
  156MOL0     H21042   4.232   4.973   0.353  0.8339 -2.2559 -1.2443
  156MOL0     H21043   4.312   5.053   0.556 -1.5018 -2.5714 -0.2240
  156MOL0     H21044   3.195   5.192   0.376  0.2580  0.7369 -1.2882
  156MOL0     H21045   3.068   5.386   0.296 -2.2656 -2.0416  1.9619
  156MOL0     H21046   3.055   5.823   0.233 -0.3487 -1.4724  1.2036
  156MOL0     H21047   2.920   5.971   0.099  4.9509 -0.9768  0.7345
  156MOL0     H21048   2.673   6.027  -0.011  0.1681  0.2186 -1.4684
  156MOL0     H21049   2.770   6.156   0.023 -0.5455 -0.5245 -3.4065
  156MOL0     H21050   2.490   6.204   0.111 -1.5328  0.6681  0.6064
  156MOL0     H21051   2.503   6.211  -0.063 -0.8175  3.6684  0.6517
  156MOL0     H21052   2.713   6.371  -0.025  0.1108  2.2566  1.0530
  156MOL0     H21053   2.673   6.389   0.134  2.3151 -0.0181 -0.9939
  156MOL0     H21054   2.596   6.567   0.048  0.3060 -0.7642 -3.4138
  156MOL0     H21055   2.520   6.481  -0.080  0.0447  0.6660 -0.5089
  156MOL0     H21056   2.215   6.445   0.217  2.9212 -4.3167  2.5355
  156MOL0     H21057   2.652   6.016   0.435 -2.2763 -4.1250 -0.6503
  156MOL0     H21058   2.744   5.701   0.597  3.0865 -0.0420 -1.3320
  156MOL0     H21059   2.815   5.838   0.671  1.7722  0.3045 -1.6173
  156MOL0     H21060   2.647   5.842   0.617 -0.1681  0.2227 -0.1116
  157MOL0     O21061   2.441   5.211   9.214  0.4637 -0.1643  0.5160
  157MOL0     C21062   2.507   5.263   9.124 -0.6586  0.1347  0.6648
  157MOL0     O21063   2.597   5.366   9.140  0.1762  0.7373  0.6872
  157MOL0     C21064   2.642   5.397   9.262  0.2858  0.2933 -0.6024
  157MOL0     C21065   2.740   5.322   9.327 -0.8730  0.1054  0.2036
  157MOL0     C21066   2.782   5.345   9.455 -0.4154 -0.6999 -0.1912
  157MOL0     C21067   2.720   5.446   9.529  0.2849  0.4240 -0.2930
  157MOL0     O21068   2.755   5.461   9.665 -0.1789 -0.0526 -0.0245
  157MOL0     C21069   2.796   5.596   9.695  0.9224  0.1664  1.1247
  157MOL0     C21070   2.922   5.641   9.617  0.7752  0.6483 -1.0214
  157MOL0     C21071   2.966   5.776   9.679  0.2090  0.0730 -0.3241
  157MOL0     C21072   3.058   5.847   9.590  0.4490 -0.0924 -0.4066
  157MOL0     C21073   3.121   5.976   9.624  0.4738 -0.1355  0.0256
  157MOL0     C21074   3.162   5.978   9.771  0.7440  0.2127  0.6503
  157MOL0     C21075   3.201   6.118   9.821 -0.8003 -0.3410 -0.2334
  157MOL0     C21076   3.214   6.107   9.976  0.0096  1.1535  0.2632
  157MOL0     N21077   3.298   6.222  10.031 -0.0492 -0.7193 -0.4715
  157MOL0     C21078   3.320   6.355   9.977  0.5347  0.3952 -0.4168
  157MOL0     C21079   3.392   6.423  10.075 -1.0176  0.6901  0.5452
  157MOL0     C21080   3.431   6.563  10.072  0.2512  0.4332  0.1615
  157MOL0     C21081   3.495   6.614  10.199 -0.2043 -0.8330  0.5092
  157MOL0     C21082   3.523   6.763  10.184  0.4282  0.4327  0.7433
  157MOL0     C21083   3.614   6.800  10.299  0.3508 -0.0475 -0.3054
  157MOL0     O21084   3.670   6.931  10.271  0.6776 -0.4296 -0.0360
  157MOL0     C21085   3.761   6.990  10.357 -0.6101  0.8176 -0.8723
  157MOL0     C21086   3.815   7.123  10.331 -0.1603  0.8070  0.0028
  157MOL0     C21087   3.883   7.196  10.430 -0.5920  0.6356 -0.1049
  157MOL0     C21088   3.906   7.156  10.562 -0.0239 -0.1456 -0.0922
  157MOL0     C21089   3.964   7.228  10.672 -0.6992 -0.3630 -0.0559
  157MOL0     O21090   3.971   7.174  10.795 -0.5370  0.1911  0.2892
  157MOL0     C21091   4.035   7.244  10.889 -0.9258 -0.1796  0.4399
  157MOL0     C21092   3.961   7.287  11.004 -0.4465 -0.4625  0.3134
  157MOL0     C21093   4.022   7.364  11.100  0.7562  0.5367  0.5760
  157MOL0     C21094   4.155   7.396  11.095  0.4322 -0.6450 -0.2747
  157MOL0     O21095   4.186   7.473  11.204  0.2228 -0.0750 -0.2951
  157MOL0     C21096   4.245   7.599  11.167  0.5965 -0.2676  0.5435
  157MOL0     C21097   4.309   7.646  11.296  1.1229  0.3001 -0.0049
  157MOL0     C21098   4.203   7.667  11.404  0.5405 -0.6788  0.5737
  157MOL0     C21099   4.251   7.718  11.537  0.0464  0.7707 -0.1747
  157MOL0     C21100   4.134   7.718  11.635  0.4968  0.4862 -0.4453
  157MOL0     C21101   4.173   7.757  11.776  0.4227  0.8799  0.5041
  157MOL0     C21102   4.234   7.640  11.851  0.0576  0.2860 -0.6213
  157MOL0     C21103   4.237   7.661  12.002  0.2627  0.3766 -0.3858
  157MOL0    Cl21104   4.055   7.671  12.057 -0.2273 -0.5897  0.2604
  157MOL0     C21105   4.232   7.355  10.993  0.5197  1.0004  0.1981
  157MOL0     C21106   4.175   7.277  10.893  0.5223  0.1605  0.3227
  157MOL0     O21107   3.994   7.342  10.638  0.0884 -0.0831  0.0964
  157MOL0     C21108   3.847   7.026  10.587 -0.0813  0.4208  0.9317
  157MOL0     C21109   3.781   6.951  10.495  0.4802  0.0577 -0.2576
  157MOL0     N21110   3.427   6.326  10.170 -0.5328 -0.9604 -0.1564
  157MOL0     N21111   3.375   6.207  10.147 -0.4321 -0.8399  0.5085
  157MOL0     C21112   2.606   5.512   9.471 -0.4374 -0.8217 -0.2410
  157MOL0     C21113   2.566   5.484   9.346  0.0586 -1.2084 -0.4053
  157MOL0     C21114   2.519   5.196   8.994  1.1616  0.2762 -0.6721
  157MOL0     C21115   2.644   5.183   8.943  1.0808 -0.5224 -1.0320
  157MOL0     C21116   2.663   5.125   8.806 -0.3942  0.5003  0.5831
  157MOL0     C21117   2.553   5.075   8.733 -0.0862 -0.3598  0.1430
  157MOL0     O21118   2.576   5.028   8.604  0.0549 -0.2232  0.6068
  157MOL0     C21119   2.471   5.054   8.504 -0.9322  0.4110  0.7349
  157MOL0     C21120   2.374   4.942   8.475 -1.1494  0.4917  0.1367
  157MOL0     C21121   2.434   4.792   8.463 -0.4491 -0.9315  0.7417
  157MOL0     C21122   2.338   4.685   8.414 -0.4222 -0.4348 -0.8035
  157MOL0     C21123   2.403   4.552   8.402  0.1410  1.2198  0.1103
  157MOL0     C21124   2.464   4.442   8.403  0.0386  0.5404 -0.1962
  157MOL0     C21125   2.429   5.091   8.798  0.7368  0.3195  0.2836
  157MOL0     C21126   2.409   5.161   8.919 -0.0433  0.3987  0.3025
  157MOL0     C21127   2.263   5.198   8.945  0.2486  0.1290 -0.2202
  157MOL0     H21128   2.771   5.238   9.265 -0.1332  2.5750 -3.0917
  157MOL0     H21129   2.869   5.292   9.493  0.0944  0.7455  0.7546
  157MOL0     H21130   2.717   5.669   9.678  1.7106  1.3775  2.3896
  157MOL0     H21131   2.810   5.594   9.803 -0.5003 -0.7909  1.3112
  157MOL0     H21132   2.898   5.644   9.510 -1.3055  1.6303 -0.5864
  157MOL0     H21133   2.992   5.558   9.632 -1.4160 -0.8138  2.7180
  157MOL0     H21134   3.025   5.762   9.770 -0.0067  1.3069  0.0245
  157MOL0     H21135   2.884   5.848   9.688  0.3575  0.5761 -2.5408
  157MOL0     H21136   3.133   5.773   9.561 -0.4204 -1.8655  1.6001
  157MOL0     H21137   3.002   5.871   9.500 -2.9118 -1.5903  1.1272
  157MOL0     H21138   3.216   5.978   9.570  0.3225 -1.2314 -0.2948
  157MOL0     H21139   3.060   6.063   9.596 -3.3048 -2.2576  1.0559
  157MOL0     H21140   3.068   5.955   9.820 -1.3214  1.0133 -2.6335
  157MOL0     H21141   3.235   5.897   9.788  1.2299 -0.0270 -2.0581
  157MOL0     H21142   3.136   6.201   9.792 -0.7941 -0.4137 -0.4544
  157MOL0     H21143   3.299   6.142   9.777 -2.2237  0.7806 -3.0369
  157MOL0     H21144   3.118   6.117  10.027  0.1145  0.7372  0.5403
  157MOL0     H21145   3.268   6.014   9.997  0.7886  1.3404 -0.8053
  157MOL0     H21146   3.280   6.397   9.885 -4.0455  1.5206  1.7745
  157MOL0     H21147   3.493   6.576   9.984 -0.6971  0.2142 -0.5561
  157MOL0     H21148   3.337   6.618  10.061  0.1762  0.6113  1.5273
  157MOL0     H21149   3.432   6.595  10.287  1.9420 -1.4659  1.9831
  157MOL0     H21150   3.585   6.553  10.211 -0.2602 -1.3868 -1.4692
  157MOL0     H21151   3.432   6.824  10.189  0.8266  1.1722 -0.6596
  157MOL0     H21152   3.580   6.778  10.093  1.8089 -0.7535  1.3707
  157MOL0     H21153   3.693   6.724  10.297  0.6552  0.2358  0.5824
  157MOL0     H21154   3.565   6.793  10.397 -0.1781 -0.6449 -0.6067
  157MOL0     H21155   3.800   7.164  10.232  0.4454  4.1067  1.1618
  157MOL0     H21156   3.923   7.295  10.408  0.0001  1.3335  3.4771
  157MOL0     H21157   3.857   7.257  11.009 -2.0091  3.8817 -1.6341
  157MOL0     H21158   3.958   7.385  11.185  2.2280  2.0887  1.3878
  157MOL0     H21159   4.320   7.590  11.088 -0.2360 -3.4529 -0.0363
  157MOL0     H21160   4.168   7.671  11.140  0.0240 -1.0736 -0.0294
  157MOL0     H21161   4.379   7.570  11.332  0.2013  1.1099  4.0031
  157MOL0     H21162   4.363   7.737  11.271  1.9200 -0.0314  0.5020
  157MOL0     H21163   4.141   7.748  11.363  2.4983 -0.3537 -2.0531
  157MOL0     H21164   4.137   7.583  11.425 -2.1006  1.7129  2.6687
  157MOL0     H21165   4.289   7.820  11.525 -2.5143  1.7939 -0.0893
  157MOL0     H21166   4.339   7.656  11.560  0.9333  2.3997  1.0550
  157MOL0     H21167   4.102   7.614  11.647 -0.0981  0.8156  0.9888
  157MOL0     H21168   4.051   7.779  11.599  0.5252 -0.6747 -2.6577
  157MOL0     H21169   4.248   7.835  11.762  1.6475  0.0392  2.0936
  157MOL0     H21170   4.086   7.793  11.833 -1.0148 -3.3067  1.3001
  157MOL0     H21171   4.335   7.644  11.809 -0.6135 -4.0194 -3.2681
  157MOL0     H21172   4.188   7.544  11.827  2.0032 -1.3467  1.7294
  157MOL0     H21173   4.285   7.570  12.040  0.7897  0.7784 -0.0688
  157MOL0     H21174   4.297   7.750  12.022 -0.5283  1.0093 -0.7735
  157MOL0     H21175   4.338   7.377  10.984  0.4092  2.4206  1.9547
  157MOL0     H21176   4.235   7.224  10.820  0.7945  0.4389  0.3446
  157MOL0     H21177   3.866   6.985  10.686 -0.9506  1.3737  1.5124
  157MOL0     H21178   3.746   6.854  10.527  3.6913 -0.8648  0.7950
  157MOL0     H21179   2.555   5.589   9.529  0.8937 -0.4809  0.5216
  157MOL0     H21180   2.469   5.518   9.313  0.5131  4.4420  2.7757
  157MOL0     H21181   2.736   5.205   8.996 -0.5229 -1.3438  2.4453
  157MOL0     H21182   2.764   5.118   8.768 -0.8876  1.2302 -0.9218
  157MOL0     H21183   2.529   5.079   8.415  2.7820 -1.9302  2.2523
  157MOL0     H21184   2.429   5.153   8.521  2.3919  1.9738  0.7464
  157MOL0     H21185   2.309   4.963   8.389  0.4372 -1.0883 -1.5346
  157MOL0     H21186   2.300   4.926   8.554 -0.2870  1.0467  1.0995
  157MOL0     H21187   2.474   4.767   8.562  2.0672  1.7140  0.5264
  157MOL0     H21188   2.523   4.794   8.399 -0.7350  2.7979  0.2502
  157MOL0     H21189   2.277   4.671   8.504 -1.2174  1.3787 -1.0160
  157MOL0     H21190   2.283   4.709   8.323  1.5942 -0.4824 -2.0899
  157MOL0     H21191   2.532   4.360   8.403 -1.7723 -1.0455 -0.1521
  157MOL0     H21192   2.351   5.051   8.734  2.5486  0.2348 -1.9699
  157MOL0     H21193   2.222   5.141   9.029 -1.8511 -2.1048 -2.5949
  157MOL0     H21194   2.260   5.305   8.968  0.3109  0.6448 -2.4444
  157MOL0     H21195   2.188   5.195   8.867 -3.2058 -0.7371  2.8559
  158MOL0     O21196   6.968   9.687   5.697  0.0921 -0.3784  0.3220
  158MOL0     C21197   7.026   9.590   5.648 -1.0622  0.0426 -0.3113
  158MOL0     O21198   7.135   9.525   5.708  0.7687  0.4532  0.3861
  158MOL0     C21199   7.164   9.545   5.844 -0.3061 -0.4998  0.1200
  158MOL0     C21200   7.294   9.560   5.884 -0.1764  0.8736 -0.4935
  158MOL0     C21201   7.317   9.580   6.023 -0.0778  0.5561  0.3444
  158MOL0     C21202   7.209   9.586   6.118 -0.6609  0.3617  0.7532
  158MOL0     O21203   7.231   9.608   6.257  0.1049  0.4008  0.0570
  158MOL0     C21204   7.351   9.624   6.306 -0.6735 -0.1198  0.1265
  158MOL0     C21205   7.344   9.651   6.449  0.9710  0.0372  1.0824
  158MOL0     C21206   7.473   9.697   6.503 -0.2870  0.7643 -0.1945
  158MOL0     C21207   7.457   9.820   6.595 -0.3212 -0.1814  0.4827
  158MOL0     C21208   7.592   9.870   6.651  0.1437  0.3734  0.1004
  158MOL0     C21209   7.579   9.944   6.793  0.3186  0.7641  0.3436
  158MOL0     C21210   7.459  10.035   6.821  0.3104  0.2642  0.8627
  158MOL0     C21211   7.478  10.149   6.920 -0.6230  0.5363 -1.2506
  158MOL0     N21212   7.562  10.104   7.033  0.0904  0.4062  0.0177
  158MOL0     C21213   7.700  10.091   7.049 -0.1630 -0.1783  0.1346
  158MOL0     C21214   7.728  10.068   7.181 -0.1834  0.7575 -0.0933
  158MOL0     C21215   7.868  10.063   7.238 -1.3093  0.8370  0.8114
  158MOL0     C21216   7.943   9.928   7.233 -0.5684  0.9185  0.1050
  158MOL0     C21217   7.856   9.829   7.313  1.4196  0.7612  0.3410
  158MOL0     C21218   7.912   9.686   7.325  0.1469 -0.1135 -0.5379
  158MOL0     O21219   7.958   9.635   7.201 -0.2649 -0.1533  0.1639
  158MOL0     C21220   7.876   9.587   7.103  0.1338 -1.3770  0.0877
  158MOL0     C21221   7.937   9.520   6.993  0.2376  0.2011 -0.5779
  158MOL0     C21222   7.866   9.458   6.883 -0.1835 -0.1351  0.1929
  158MOL0     C21223   7.727   9.465   6.884  0.0245 -0.0266 -0.4427
  158MOL0     C21224   7.638   9.410   6.773 -0.1429 -0.0996 -0.0334
  158MOL0     O21225   7.700   9.395   6.650  0.3438 -0.1446  0.6089
  158MOL0     C21226   7.634   9.322   6.550  0.0632  0.1461 -0.2094
  158MOL0     C21227   7.561   9.204   6.566 -0.2080 -1.5807 -0.0572
  158MOL0     C21228   7.480   9.149   6.462 -0.4096  0.4490 -0.2546
  158MOL0     C21229   7.473   9.207   6.344 -0.1044  1.1747 -0.1851
  158MOL0     O21230   7.389   9.179   6.240 -0.4020 -0.0972  0.1435
  158MOL0     C21231   7.302   9.061   6.253 -0.1004  0.8161  0.4740
  158MOL0     C21232   7.212   9.050   6.131 -0.1281  0.0371  0.1718
  158MOL0     C21233   7.282   9.016   5.998  0.9596 -0.1142  1.5477
  158MOL0     C21234   7.175   9.016   5.886  0.0145  0.7887 -0.5373
  158MOL0     C21235   7.243   9.015   5.749  0.4682 -0.4149 -0.6100
  158MOL0     C21236   7.306   9.152   5.715 -0.1835 -1.0774 -0.2370
  158MOL0     C21237   7.371   9.164   5.572  0.7155 -0.5498 -0.5149
  158MOL0     C21238   7.265   9.176   5.463  0.0896  0.0724 -0.2687
  158MOL0    Cl21239   7.165   9.022   5.440  0.2777  0.2584  0.2675
  158MOL0     C21240   7.547   9.319   6.320 -0.2219 -0.1601 -0.8357
  158MOL0     C21241   7.632   9.377   6.419  0.4277 -0.7651  0.1150
  158MOL0     O21242   7.525   9.386   6.792  0.1684 -0.1113  0.0801
  158MOL0     C21243   7.667   9.527   6.998 -0.1245 -0.3426 -0.4190
  158MOL0     C21244   7.735   9.587   7.102  0.3199 -0.5524 -0.3671
  158MOL0     N21245   7.605  10.045   7.239 -0.0913  0.5644 -0.0457
  158MOL0     N21246   7.510  10.067   7.154 -0.5778  0.2313 -0.1383
  158MOL0     C21247   7.074   9.581   6.071 -0.2196  0.3911  0.1553
  158MOL0     C21248   7.056   9.554   5.933 -0.2348  0.3912 -0.5749
  158MOL0     C21249   6.976   9.517   5.533 -0.3151 -1.3534 -0.4779
  158MOL0     C21250   7.081   9.465   5.447 -0.7618 -1.6438 -1.0081
  158MOL0     C21251   7.042   9.408   5.329 -0.2159 -0.1331  0.5084
  158MOL0     C21252   6.917   9.405   5.291  0.6151  0.3188  0.4887
  158MOL0     O21253   6.884   9.342   5.174 -0.4241 -0.0616 -0.1016
  158MOL0     C21254   6.969   9.374   5.058  0.2505  0.0838  1.0060
  158MOL0     C21255   6.918   9.298   4.939  0.8217 -0.4690 -0.1091
  158MOL0     C21256   6.973   9.378   4.811 -0.0803  0.3285  0.6197
  158MOL0     C21257   6.921   9.314   4.679 -0.0508 -0.1019  0.4294
  158MOL0     C21258   6.992   9.191   4.651  0.0183 -0.7893  0.4179
  158MOL0     C21259   7.071   9.097   4.633  0.3724  0.1445  0.8941
  158MOL0     C21260   6.814   9.452   5.372 -0.0712 -1.1237  0.4028
  158MOL0     C21261   6.843   9.519   5.490 -0.0873  0.2326 -0.2625
  158MOL0     C21262   6.723   9.566   5.574  0.4519 -0.0153 -1.0071
  158MOL0     H21263   7.380   9.557   5.817  1.4034  4.2671  1.1679
  158MOL0     H21264   7.419   9.582   6.061 -0.9741  1.8698  2.9610
  158MOL0     H21265   7.398   9.525   6.300 -1.4413 -0.9771  4.9012
  158MOL0     H21266   7.407   9.706   6.259 -1.4538  1.2665  1.5642
  158MOL0     H21267   7.324   9.553   6.493 -1.4671  0.4635  1.0742
  158MOL0     H21268   7.263   9.724   6.459  0.3711  0.4244 -4.0160
  158MOL0     H21269   7.544   9.720   6.423  1.0708 -3.3172 -0.3936
  158MOL0     H21270   7.521   9.620   6.563 -0.1340  1.5269  0.6847
  158MOL0     H21271   7.415   9.907   6.545  2.7008  0.6618 -0.8417
  158MOL0     H21272   7.389   9.788   6.675 -0.5578  0.3440  0.4956
  158MOL0     H21273   7.656   9.781   6.653 -3.5493 -2.5458  2.0677
  158MOL0     H21274   7.639   9.937   6.579  1.7806 -0.8126  0.0135
  158MOL0     H21275   7.584   9.859   6.861  0.4902 -0.3079 -0.9673
  158MOL0     H21276   7.671  10.003   6.801  1.2143 -0.7135  1.4127
  158MOL0     H21277   7.386   9.964   6.862  0.3153 -0.6956 -0.7178
  158MOL0     H21278   7.412  10.082   6.734 -1.5329  0.3012  1.8109
  158MOL0     H21279   7.517  10.243   6.880  0.8166  1.5559  2.1878
  158MOL0     H21280   7.381  10.181   6.960  0.3521  0.9626  0.8932
  158MOL0     H21281   7.769  10.110   6.968 -0.8746 -1.9450 -0.9424
  158MOL0     H21282   7.940  10.132   7.193  1.4620 -1.0206  2.0744
  158MOL0     H21283   7.872  10.090   7.344 -1.9757 -1.3679  1.4658
  158MOL0     H21284   7.970   9.912   7.128  2.5569  3.4110  0.3789
  158MOL0     H21285   8.037   9.950   7.285  0.0776  3.0088 -1.8089
  158MOL0     H21286   7.763   9.809   7.260 -0.1780 -0.3512  3.3416
  158MOL0     H21287   7.845   9.861   7.417  4.2862 -0.5650  1.1823
  158MOL0     H21288   7.839   9.620   7.373  0.7969  1.9714  3.8075
  158MOL0     H21289   7.996   9.685   7.395  0.0821  0.1751 -0.4569
  158MOL0     H21290   8.044   9.504   6.996  0.5479  1.8422 -1.3467
  158MOL0     H21291   7.917   9.404   6.804  0.1761  2.4756 -1.4940
  158MOL0     H21292   7.566   9.156   6.664 -1.0313 -0.3720  0.6054
  158MOL0     H21293   7.420   9.060   6.477 -2.0882  1.3232 -1.5383
  158MOL0     H21294   7.365   8.972   6.264 -1.1124  0.4117  4.8990
  158MOL0     H21295   7.233   9.060   6.337 -0.9823 -0.3364 -0.2325
  158MOL0     H21296   7.131   8.977   6.146 -3.0393  3.1369  0.8927
  158MOL0     H21297   7.151   9.141   6.129 -1.1762 -0.6565 -0.9396
  158MOL0     H21298   7.357   9.094   5.980 -2.0373  2.9692  1.2974
  158MOL0     H21299   7.322   8.915   6.003 -2.2166 -1.5765  0.0508
  158MOL0     H21300   7.114   9.105   5.903 -3.4114 -1.3547 -0.6386
  158MOL0     H21301   7.100   8.937   5.896 -1.7961  2.4738 -0.2144
  158MOL0     H21302   7.169   8.979   5.678  0.2374  0.2714 -0.7280
  158MOL0     H21303   7.329   8.947   5.750  0.2721 -0.6800  0.5469
  158MOL0     H21304   7.228   9.228   5.724  0.5484 -0.3865  0.3508
  158MOL0     H21305   7.389   9.184   5.778  1.1441  0.0157 -2.4076
  158MOL0     H21306   7.425   9.071   5.554  0.7545 -0.1498 -2.6579
  158MOL0     H21307   7.444   9.246   5.569  0.5046 -0.3449 -0.1594
  158MOL0     H21308   7.197   9.254   5.498 -2.8122 -2.6170  0.5331
  158MOL0     H21309   7.312   9.200   5.367  1.2729 -0.0984  0.2410
  158MOL0     H21310   7.543   9.362   6.220 -1.1060  2.5157  0.2468
  158MOL0     H21311   7.710   9.449   6.396 -2.4748  1.9726 -1.9933
  158MOL0     H21312   7.560   9.535   7.017 -0.0524  3.1149 -0.9102
  158MOL0     H21313   7.677   9.628   7.184 -2.4427  1.8613 -3.2605
  158MOL0     H21314   6.990   9.587   6.138 -0.7244 -2.9770 -0.0370
  158MOL0     H21315   6.953   9.558   5.899 -0.8051  1.1117  1.0929
  158MOL0     H21316   7.187   9.468   5.470 -0.9460  1.4541 -0.1474
  158MOL0     H21317   7.121   9.372   5.264 -1.9072  2.8305 -3.6487
  158MOL0     H21318   7.077   9.358   5.059  0.5618  1.7282 -0.8908
  158MOL0     H21319   6.960   9.479   5.029 -2.3771  0.4459  2.7778
  158MOL0     H21320   6.809   9.307   4.943  0.8328  2.4072 -2.6195
  158MOL0     H21321   6.949   9.194   4.937  0.6506 -0.5435  0.7787
  158MOL0     H21322   7.082   9.373   4.817 -0.1576  0.2277  3.4163
  158MOL0     H21323   6.958   9.487   4.810 -0.2130  0.4627 -3.8921
  158MOL0     H21324   6.816   9.285   4.686  0.5675 -3.0783 -0.7656
  158MOL0     H21325   6.935   9.384   4.596 -2.1129  2.3838  2.0398
  158MOL0     H21326   7.130   9.009   4.618  0.8575  0.6698 -0.3430
  158MOL0     H21327   6.711   9.425   5.350 -0.2930 -1.8740  2.2040
  158MOL0     H21328   6.737   9.523   5.674  0.6236 -0.2442 -1.1303
  158MOL0     H21329   6.721   9.675   5.582  2.4393  0.0506 -0.8561
  158MOL0     H21330   6.631   9.519   5.537 -0.7161 -1.3165  3.0379
  159MOL0     O21331   9.286  10.103   8.641  0.2383 -0.2970  0.3785
  159MOL0     C21332   9.405  10.119   8.594  1.1621 -0.0914  0.3523
  159MOL0     O21333   9.449  10.071   8.472 -0.0179  0.5183 -0.7710
  159MOL0     C21334   9.387   9.953   8.417 -0.4042  0.5591 -0.5890
  159MOL0     C21335   9.477   9.860   8.358 -0.9201 -0.7163  0.1540
  159MOL0     C21336   9.433   9.749   8.284  0.1317 -0.2908 -0.7318
  159MOL0     C21337   9.301   9.717   8.276 -0.3531 -0.0883  0.1938
  159MOL0     O21338   9.279   9.605   8.193 -0.8800 -0.1556  0.0588
  159MOL0     C21339   9.156   9.590   8.130 -0.5030  0.4318 -0.1430
  159MOL0     C21340   9.147   9.477   8.033 -1.0265  0.2945  0.3051
  159MOL0     C21341   9.009   9.468   7.960  0.3260 -0.0080  0.4563
  159MOL0     C21342   9.008   9.385   7.826 -0.3809  0.4721 -0.6858
  159MOL0     C21343   8.900   9.417   7.723  0.2379  0.3978 -0.7062
  159MOL0     C21344   8.750   9.413   7.780 -0.5307  0.0117  1.0254
  159MOL0     C21345   8.649   9.405   7.657 -0.3056  0.3566 -0.3125
  159MOL0     C21346   8.634   9.269   7.584 -0.5472  0.9167  0.5287
  159MOL0     N21347   8.514   9.279   7.489  0.2696 -0.8729  0.0306
  159MOL0     C21348   8.376   9.292   7.528 -1.0862  0.0702  0.3731
  159MOL0     C21349   8.309   9.304   7.412  0.1735  0.5352  0.0443
  159MOL0     C21350   8.163   9.338   7.409  0.3546  0.1021 -0.2234
  159MOL0     C21351   8.102   9.312   7.277  0.4093 -0.3444  0.6256
  159MOL0     C21352   8.109   9.172   7.219 -0.2659  0.3127  0.3135
  159MOL0     C21353   8.039   9.158   7.080 -0.4541  1.1241 -0.1190
  159MOL0     O21354   8.137   9.188   6.981  0.3529 -0.4961  0.1365
  159MOL0     C21355   8.081   9.164   6.852 -0.4584 -0.0406  0.2702
  159MOL0     C21356   7.946   9.128   6.835 -0.4954 -0.3647  0.3185
  159MOL0     C21357   7.909   9.097   6.700 -0.8993  0.9398  0.6970
  159MOL0     C21358   7.997   9.101   6.595 -0.2430 -1.0498  0.4786
  159MOL0     C21359   7.953   9.088   6.448  0.1293  0.4269 -0.1414
  159MOL0     O21360   8.054   9.063   6.361  0.2525 -0.0794  0.7560
  159MOL0     C21361   8.035   9.087   6.223  0.0325  0.7690  0.3326
  159MOL0     C21362   8.027   9.214   6.176 -0.0218 -0.0124  1.2259
  159MOL0     C21363   8.035   9.244   6.047 -1.4973  0.8770 -0.1618
  159MOL0     C21364   8.049   9.146   5.949 -0.3391 -0.0505  0.3769
  159MOL0     O21365   8.070   9.200   5.823  0.0129  1.2611 -0.1735
  159MOL0     C21366   8.071   9.101   5.723  0.8910  0.1730  0.5154
  159MOL0     C21367   8.078   9.163   5.570 -0.0426 -0.2490  0.1248
  159MOL0     C21368   8.211   9.237   5.541 -0.1984 -0.3432 -0.4699
  159MOL0     C21369   8.177   9.316   5.421  0.5230 -0.7718 -0.0666
  159MOL0     C21370   8.096   9.449   5.448 -0.5386 -1.1350 -0.2570
  159MOL0     C21371   8.164   9.557   5.526 -0.6963  0.6240 -0.7190
  159MOL0     C21372   8.313   9.580   5.472 -0.2658  0.6862 -0.2120
  159MOL0     C21373   8.390   9.668   5.572 -0.3572 -0.4585 -0.4460
  159MOL0    Cl21374   8.306   9.816   5.611  0.6049 -0.6111  0.3703
  159MOL0     C21375   8.060   9.007   5.994 -0.1878  1.5725  0.0195
  159MOL0     C21376   8.052   8.980   6.134  0.4554 -1.4453  0.3566
  159MOL0     O21377   7.837   9.080   6.422  0.8501 -0.0916  0.3013
  159MOL0     C21378   8.126   9.146   6.617  0.6955  0.2370 -0.0832
  159MOL0     C21379   8.168   9.173   6.742 -0.9508 -0.1848  0.2467
  159MOL0     N21380   8.403   9.301   7.310  0.3138  0.0212 -0.0912
  159MOL0     N21381   8.516   9.289   7.351 -0.0165  0.0541 -0.2353
  159MOL0     C21382   9.208   9.812   8.330  0.2165  0.5670  0.5253
  159MOL0     C21383   9.251   9.926   8.407  0.2235 -0.2385  0.4692
  159MOL0     C21384   9.488  10.199   8.692 -0.2618 -0.4512  1.0617
  159MOL0     C21385   9.436  10.281   8.791 -0.0726  0.7645  0.3785
  159MOL0     C21386   9.507  10.364   8.877 -0.4347 -0.4890 -0.7244
  159MOL0     C21387   9.648  10.378   8.856  0.2146  0.8129 -0.1687
  159MOL0     O21388   9.710  10.473   8.935  0.3803  0.7013  0.3442
  159MOL0     C21389   9.855  10.480   8.950 -0.1639  1.1765  0.0966
  159MOL0     C21390   9.888  10.614   8.997 -0.4652  0.5378 -0.1704
  159MOL0     C21391   9.858  10.722   8.891  0.7309 -0.3228 -0.5464
  159MOL0     C21392   9.906  10.867   8.905 -0.2952  1.1559  0.2517
  159MOL0     C21393  10.053  10.875   8.888  0.0885  0.0712 -0.3745
  159MOL0     C21394  10.174  10.878   8.866  0.3613 -0.4054  0.5944
  159MOL0     C21395   9.704  10.290   8.771  0.6334 -0.5820  1.1014
  159MOL0     C21396   9.633  10.204   8.682 -0.6377 -0.7206  0.6457
  159MOL0     C21397   9.706  10.093   8.592 -0.6387 -0.3672 -0.0399
  159MOL0     H21398   9.585   9.872   8.356 -0.8296 -0.7043  2.7493
  159MOL0     H21399   9.509   9.682   8.246  3.1949 -0.2366  4.2546
  159MOL0     H21400   9.082   9.579   8.210 -1.0096  1.3555 -0.4627
  159MOL0     H21401   9.141   9.686   8.081 -0.2369  0.0709 -0.9403
  159MOL0     H21402   9.176   9.389   8.090  0.6072  0.3473 -0.4009
  159MOL0     H21403   9.221   9.493   7.954 -1.1957  0.6387  0.2125
  159MOL0     H21404   8.970   9.567   7.935 -2.0200 -1.2074 -1.1052
  159MOL0     H21405   8.934   9.425   8.027  0.9358  0.7846  1.6619
  159MOL0     H21406   9.104   9.392   7.773 -0.3180 -0.4788 -0.7047
  159MOL0     H21407   8.994   9.281   7.855 -0.0607  0.2518 -1.2962
  159MOL0     H21408   8.936   9.511   7.681  3.2877  0.6385  2.0540
  159MOL0     H21409   8.900   9.340   7.646 -5.0484 -3.0651  2.0979
  159MOL0     H21410   8.730   9.328   7.846  0.2774 -1.2415 -0.3158
  159MOL0     H21411   8.725   9.497   7.846  0.6245  0.6437  0.6853
  159MOL0     H21412   8.686   9.483   7.590  0.6926 -0.0175 -0.2152
  159MOL0     H21413   8.548   9.438   7.683 -0.1935  2.1181 -1.9039
  159MOL0     H21414   8.724   9.249   7.525 -1.6321 -2.9187 -0.1458
  159MOL0     H21415   8.619   9.181   7.648 -1.9833 -1.7715 -3.1694
  159MOL0     H21416   8.341   9.290   7.631 -0.0758  4.3764  0.9917
  159MOL0     H21417   8.116   9.277   7.487  1.7771 -1.5543 -0.5952
  159MOL0     H21418   8.159   9.442   7.442 -0.0173  0.5143 -1.5103
  159MOL0     H21419   8.002   9.356   7.287  0.8091  0.3555  1.7240
  159MOL0     H21420   8.151   9.384   7.211 -0.7627  2.5673  2.6865
  159MOL0     H21421   8.051   9.128   7.300 -1.9248  3.3090  0.9064
  159MOL0     H21422   8.213   9.138   7.210 -0.2278  0.9207 -2.4319
  159MOL0     H21423   7.947   9.218   7.078 -1.8160 -0.8491 -3.2792
  159MOL0     H21424   8.000   9.056   7.074  2.2600 -0.1442  1.5127
  159MOL0     H21425   7.864   9.121   6.905 -2.3105  5.8163 -0.6597
  159MOL0     H21426   7.806   9.076   6.671 -1.0186  1.0374  1.0448
  159MOL0     H21427   8.031   9.298   6.244  0.5205  1.5531 -0.6254
  159MOL0     H21428   8.023   9.349   6.022 -0.8762  1.5589  2.2409
  159MOL0     H21429   8.149   9.028   5.746 -2.1852 -4.0614 -1.1295
  159MOL0     H21430   7.984   9.037   5.733  1.6313 -0.9184  0.2105
  159MOL0     H21431   8.068   9.086   5.493 -1.1340 -0.7074  0.6977
  159MOL0     H21432   8.002   9.240   5.556  0.0573 -0.1815 -0.0527
  159MOL0     H21433   8.226   9.311   5.620 -1.8599  1.6505 -1.9273
  159MOL0     H21434   8.298   9.170   5.536 -0.4265 -1.0943  2.9667
  159MOL0     H21435   8.115   9.254   5.355 -1.1151 -0.6108  1.2503
  159MOL0     H21436   8.269   9.327   5.363  1.4583 -0.9583  1.3459
  159MOL0     H21437   7.998   9.436   5.495 -1.2353  0.6070 -1.1687
  159MOL0     H21438   8.080   9.495   5.351 -2.6764  0.1788  0.6415
  159MOL0     H21439   8.121   9.657   5.516  2.4187  2.0349 -0.9843
  159MOL0     H21440   8.153   9.539   5.634 -3.2009  2.3839 -0.5980
  159MOL0     H21441   8.308   9.632   5.376  3.8948  0.2496 -0.8549
  159MOL0     H21442   8.364   9.486   5.452 -0.5057  0.2445  1.1277
  159MOL0     H21443   8.419   9.611   5.661  1.9197  1.1113 -0.1212
  159MOL0     H21444   8.487   9.695   5.531 -0.6744  0.7535 -0.4416
  159MOL0     H21445   8.090   8.929   5.924  0.5554  2.9694 -1.3018
  159MOL0     H21446   8.047   8.877   6.168  1.5890 -1.8832 -0.7469
  159MOL0     H21447   8.197   9.159   6.535 -2.0684  3.1563 -2.2838
  159MOL0     H21448   8.267   9.215   6.761  0.6100 -3.0805 -0.9227
  159MOL0     H21449   9.102   9.793   8.323 -0.4562  3.3590  1.5785
  159MOL0     H21450   9.180  10.005   8.427  1.5784  1.0621  0.2698
  159MOL0     H21451   9.328  10.273   8.800 -0.1904 -4.3700 -1.8392
  159MOL0     H21452   9.456  10.420   8.955  0.2700 -0.4968 -0.2475
  159MOL0     H21453   9.896  10.463   8.850 -1.3184 -0.1756 -0.1825
  159MOL0     H21454   9.894  10.406   9.020  1.1782  1.9350  0.1739
  159MOL0     H21455   9.997  10.621   9.001 -0.4774  0.6309  0.0016
  159MOL0     H21456   9.844  10.633   9.095 -0.6465 -0.9180  0.0501
  159MOL0     H21457   9.749  10.735   8.884  0.5686 -1.3471 -0.0832
  159MOL0     H21458   9.895  10.688   8.795  1.0063  0.2499 -0.6488
  159MOL0     H21459   9.858  10.938   8.838 -0.7378 -0.3401 -1.0774
  159MOL0     H21460   9.879  10.887   9.009  0.3252  3.8849 -0.0191
  159MOL0     H21461  10.280  10.880   8.852  0.2530 -0.0421 -0.2638
  159MOL0     H21462   9.812  10.301   8.779  0.2687  4.3916  2.7116
  159MOL0     H21463   9.710   9.996   8.643  2.3735  0.2190  1.0358
  159MOL0     H21464   9.673  10.092   8.488 -0.0046 -1.0053 -0.2373
  159MOL0     H21465   9.809  10.114   8.563 -0.5880  1.3142  1.1904
  160MOL0     O21466   5.392   5.421   9.641 -0.2580  0.3666 -0.3281
  160MOL0     C21467   5.323   5.516   9.632  0.5729 -0.1984 -0.5705
  160MOL0     O21468   5.264   5.552   9.519  0.4581 -0.2128 -0.3030
  160MOL0     C21469   5.261   5.470   9.411  0.1935  0.1111 -0.0370
  160MOL0     C21470   5.378   5.483   9.337  0.1821 -0.4758  0.7528
  160MOL0     C21471   5.388   5.400   9.229 -0.2171 -0.8702 -0.6502
  160MOL0     C21472   5.284   5.325   9.175  0.0712  0.1335  0.6557
  160MOL0     O21473   5.282   5.251   9.060 -0.2315 -0.7568  0.0899
  160MOL0     C21474   5.415   5.221   9.006  0.5107  0.4179  0.2611
  160MOL0     C21475   5.405   5.106   8.908 -0.7631 -0.3072 -0.2541
  160MOL0     C21476   5.534   5.025   8.911 -0.1341  0.2928  0.4121
  160MOL0     C21477   5.650   5.100   8.856 -0.0351  0.1387 -0.3484
  160MOL0     C21478   5.763   4.999   8.878 -0.7447  0.6748  0.4838
  160MOL0     C21479   5.894   5.042   8.809  0.9447  1.1194 -0.2647
  160MOL0     C21480   5.996   4.923   8.819  0.0714 -0.1148 -0.5039
  160MOL0     C21481   6.133   4.943   8.758  0.1264 -0.2257 -0.0192
  160MOL0     N21482   6.233   4.838   8.788  0.0910  0.7094  0.8128
  160MOL0     C21483   6.358   4.855   8.823 -0.7264  0.5512  0.3085
  160MOL0     C21484   6.402   4.729   8.853 -0.4467 -0.0565  0.0954
  160MOL0     C21485   6.536   4.688   8.904 -0.1197 -0.3998  0.1694
  160MOL0     C21486   6.538   4.689   9.055  0.2545 -0.4020  0.4819
  160MOL0     C21487   6.653   4.607   9.104  0.4110 -0.4292  0.7445
  160MOL0     C21488   6.779   4.686   9.116 -0.0492 -0.3615  0.2036
  160MOL0     O21489   6.757   4.788   9.217  0.3327  0.1100  0.0874
  160MOL0     C21490   6.857   4.873   9.245 -0.7535 -0.8852 -0.4628
  160MOL0     C21491   6.835   4.962   9.353  0.1350 -0.5991 -0.0421
  160MOL0     C21492   6.939   5.033   9.413  0.7459  0.0197 -0.6032
  160MOL0     C21493   7.058   5.045   9.354  0.1298  0.2097 -1.7048
  160MOL0     C21494   7.161   5.112   9.427  0.9871  1.3735 -0.3929
  160MOL0     O21495   7.265   5.146   9.350 -0.3290 -0.9367  0.2148
  160MOL0     C21496   7.374   5.191   9.411 -0.5358  1.0371  0.9892
  160MOL0     C21497   7.452   5.294   9.352  0.1274  0.4013  0.3139
  160MOL0     C21498   7.580   5.320   9.400  0.5758 -1.1201 -0.3945
  160MOL0     C21499   7.637   5.264   9.518  0.6461 -0.0749  0.1268
  160MOL0     O21500   7.762   5.304   9.554  0.1936 -0.1468  0.0916
  160MOL0     C21501   7.863   5.223   9.506 -1.3265  0.0434  0.3445
  160MOL0     C21502   7.998   5.252   9.584 -0.4031  0.5211 -0.8466
  160MOL0     C21503   8.115   5.198   9.508 -0.0182  0.5016 -1.1808
  160MOL0     C21504   8.252   5.244   9.568  0.0626  0.0409 -1.1222
  160MOL0     C21505   8.368   5.220   9.474 -0.5267 -0.6962  0.2661
  160MOL0     C21506   8.419   5.075   9.459 -0.8628  0.5209 -0.4842
  160MOL0     C21507   8.480   5.012   9.587 -0.0820  0.6768  1.5844
  160MOL0     C21508   8.615   5.069   9.614 -0.1406  0.0789  0.1279
  160MOL0    Cl21509   8.728   5.034   9.489 -0.0828 -0.4522 -0.1619
  160MOL0     C21510   7.557   5.166   9.583 -0.3987 -0.0164  0.8486
  160MOL0     C21511   7.435   5.130   9.527 -0.9379 -0.0421  0.5837
  160MOL0     O21512   7.150   5.139   9.543 -0.4671  0.6537 -0.6058
  160MOL0     C21513   7.086   4.971   9.233  0.0335  0.5566 -0.9743
  160MOL0     C21514   6.983   4.883   9.188 -0.2155 -0.9400 -0.0342
  160MOL0     N21515   6.297   4.641   8.854 -0.2025 -0.6191 -0.0443
  160MOL0     N21516   6.199   4.714   8.817 -0.2306 -0.0156  0.1185
  160MOL0     C21517   5.162   5.316   9.257  0.3218 -0.6889  0.1319
  160MOL0     C21518   5.159   5.394   9.378 -0.8107  1.5714 -0.4143
  160MOL0     C21519   5.293   5.611   9.751 -0.9026  0.4186 -0.5234
  160MOL0     C21520   5.164   5.663   9.760 -0.4084 -0.2938 -0.7719
  160MOL0     C21521   5.118   5.749   9.857 -0.6514  0.2371  0.9016
  160MOL0     C21522   5.211   5.787   9.959  0.1729  0.0139 -0.6673
  160MOL0     O21523   5.180   5.877  10.057  0.3464 -0.2379  0.3913
  160MOL0     C21524   5.069   5.851  10.136 -0.1378  0.0626 -0.0766
  160MOL0     C21525   4.984   5.973  10.153 -0.6956 -0.3352 -0.2002
  160MOL0     C21526   4.913   6.014  10.026 -0.5751 -0.1032  0.1319
  160MOL0     C21527   4.872   6.158  10.020  0.5070 -0.5736 -0.3407
  160MOL0     C21528   4.815   6.199  10.145  0.2043  0.4652 -0.2084
  160MOL0     C21529   4.765   6.229  10.249 -0.5482 -0.0450 -0.2300
  160MOL0     C21530   5.341   5.741   9.960 -0.2783  0.7881 -0.3952
  160MOL0     C21531   5.384   5.652   9.849  0.2309 -0.6941 -0.9724
  160MOL0     C21532   5.531   5.622   9.819  0.4560 -0.1595  0.5852
  160MOL0     H21533   5.452   5.560   9.353 -1.7286  1.5409  0.4188
  160MOL0     H21534   5.487   5.414   9.188  0.2934  1.2047  1.0968
  160MOL0     H21535   5.452   5.310   8.954 -3.0518  1.6218 -0.4474
  160MOL0     H21536   5.478   5.184   9.087  1.5478 -0.6169 -0.9650
  160MOL0     H21537   5.378   5.146   8.810 -2.9626  0.6499  0.6932
  160MOL0     H21538   5.326   5.038   8.943 -0.6285 -0.6539 -0.6133
  160MOL0     H21539   5.523   4.943   8.840  1.1231  0.4722 -0.0132
  160MOL0     H21540   5.548   4.981   9.010 -3.1780  0.7486  1.1458
  160MOL0     H21541   5.635   5.123   8.750 -2.2684  1.0170  0.0972
  160MOL0     H21542   5.665   5.201   8.896 -0.5652 -0.6084  1.8937
  160MOL0     H21543   5.774   4.999   8.986 -0.6401  0.2151  0.4722
  160MOL0     H21544   5.732   4.901   8.840  0.2407  0.1541  1.0145
  160MOL0     H21545   5.882   5.082   8.708 -1.4765 -0.1487 -0.5704
  160MOL0     H21546   5.919   5.128   8.872 -0.1024  1.6959 -0.5978
  160MOL0     H21547   5.951   4.839   8.766  1.1944 -1.3499  0.4153
  160MOL0     H21548   6.012   4.897   8.924  0.8917  0.8278 -0.3781
  160MOL0     H21549   6.127   4.941   8.649  2.2129  0.2646 -0.1839
  160MOL0     H21550   6.169   5.045   8.777 -2.1065  0.4889  0.6145
  160MOL0     H21551   6.409   4.950   8.838 -0.8599  0.8717 -1.1902
  160MOL0     H21552   6.554   4.589   8.862 -0.0455  0.6670 -2.4632
  160MOL0     H21553   6.608   4.751   8.851 -2.2962  0.5902 -1.7715
  160MOL0     H21554   6.544   4.791   9.094 -0.1898 -0.0401 -0.3600
  160MOL0     H21555   6.444   4.641   9.082  0.3360 -2.0667 -1.8530
  160MOL0     H21556   6.661   4.523   9.034 -0.0767  1.7302 -2.0688
  160MOL0     H21557   6.616   4.577   9.203 -0.1405 -0.3763  0.5605
  160MOL0     H21558   6.805   4.720   9.016  1.3876  0.9387  0.9889
  160MOL0     H21559   6.851   4.614   9.155  1.1100  1.9505  2.6128
  160MOL0     H21560   6.733   4.972   9.387 -0.1528 -1.2133 -0.7018
  160MOL0     H21561   6.915   5.095   9.498 -0.3024 -0.8575 -0.2252
  160MOL0     H21562   7.423   5.347   9.261 -0.0146 -2.2238 -1.2766
  160MOL0     H21563   7.635   5.396   9.346  1.1790 -2.9500 -2.4772
  160MOL0     H21564   7.837   5.117   9.495 -2.8215  0.5334 -1.1850
  160MOL0     H21565   7.877   5.254   9.403 -0.7741  0.0033  0.4055
  160MOL0     H21566   8.018   5.360   9.585 -2.2639  0.9184 -2.2254
  160MOL0     H21567   7.993   5.210   9.685 -0.0909  0.2678 -0.9367
  160MOL0     H21568   8.110   5.089   9.521 -0.1896  0.7311  1.2404
  160MOL0     H21569   8.108   5.234   9.405  1.3299  2.2507 -0.7050
  160MOL0     H21570   8.278   5.198   9.664  0.2807  1.1390 -0.6353
  160MOL0     H21571   8.239   5.352   9.582 -1.1329 -0.4869  4.9975
  160MOL0     H21572   8.452   5.281   9.507 -0.9652 -0.1283  0.3666
  160MOL0     H21573   8.347   5.265   9.376  2.1573  0.7218  0.2550
  160MOL0     H21574   8.322   5.030   9.439 -0.2268 -0.5498 -1.3178
  160MOL0     H21575   8.482   5.061   9.370  0.7178  2.9156  0.1494
  160MOL0     H21576   8.491   4.905   9.570  0.6277  0.8782  0.7284
  160MOL0     H21577   8.413   5.036   9.670  2.8427  1.4027  3.8910
  160MOL0     H21578   8.618   5.177   9.633  2.3610  0.0840  0.1393
  160MOL0     H21579   8.663   5.022   9.701  1.5183  1.1467 -0.1435
  160MOL0     H21580   7.574   5.113   9.676 -2.1682 -0.3582  1.0134
  160MOL0     H21581   7.375   5.052   9.573  1.1708 -2.7024 -0.8856
  160MOL0     H21582   7.180   4.986   9.181 -0.2466 -1.5089 -2.1780
  160MOL0     H21583   7.007   4.820   9.103 -2.8884 -0.1080 -1.5103
  160MOL0     H21584   5.073   5.257   9.237  0.5987 -1.2840  0.6076
  160MOL0     H21585   5.064   5.400   9.428 -1.4684  0.0005 -1.3988
  160MOL0     H21586   5.094   5.637   9.682 -1.0493  0.7860 -0.5751
  160MOL0     H21587   5.019   5.788   9.838  0.3294  3.2624  1.3633
  160MOL0     H21588   5.106   5.825  10.236  1.1504 -0.4074 -0.6549
  160MOL0     H21589   5.008   5.769  10.097 -0.1377  1.3080 -2.9303
  160MOL0     H21590   5.060   6.049  10.174  0.7445 -0.6688 -3.5587
  160MOL0     H21591   4.911   5.973  10.235 -1.9039  0.9650 -1.2381
  160MOL0     H21592   4.826   5.948  10.013 -0.0509 -0.8968  0.5210
  160MOL0     H21593   4.962   5.993   9.931 -0.5136 -1.9161  0.5262
  160MOL0     H21594   4.963   6.218  10.007  2.3259 -3.7291 -4.9715
  160MOL0     H21595   4.812   6.186   9.933  0.9590  6.0415  0.9332
  160MOL0     H21596   4.730   6.253  10.347 -2.9948 -0.0501 -1.0425
  160MOL0     H21597   5.418   5.773  10.029  0.7926  0.6893 -1.5047
  160MOL0     H21598   5.542   5.514   9.802  1.5436 -0.0848  0.7815
  160MOL0     H21599   5.567   5.686   9.738  2.1430  0.4866  1.7948
  160MOL0     H21600   5.587   5.649   9.909 -0.0667 -1.9279  1.4845
  161MOL0     O21601   9.222   6.782   1.967 -0.2372  0.0514  0.6587
  161MOL0     C21602   9.310   6.766   1.879 -0.5412 -0.1481  0.1017
  161MOL0     O21603   9.307   6.690   1.775 -0.1016 -0.1885 -0.0344
  161MOL0     C21604   9.186   6.635   1.739 -0.3679 -0.3234 -0.3342
  161MOL0     C21605   9.121   6.665   1.619  0.2888  0.1966  0.4285
  161MOL0     C21606   9.020   6.584   1.579 -0.5053  0.0705  0.1055
  161MOL0     C21607   8.981   6.461   1.648  0.2693  0.0421  0.1721
  161MOL0     O21608   8.895   6.376   1.586  0.9030  0.0181  0.2374
  161MOL0     C21609   8.823   6.285   1.670 -0.2397  1.0747 -0.5226
  161MOL0     C21610   8.710   6.364   1.739 -0.4764  0.8793 -0.1150
  161MOL0     C21611   8.614   6.427   1.635  0.8245 -0.2388  0.2184
  161MOL0     C21612   8.487   6.482   1.704 -1.0539 -0.2413  0.2165
  161MOL0     C21613   8.369   6.504   1.613 -0.0539 -0.0028 -0.3516
  161MOL0     C21614   8.250   6.576   1.689 -0.4117 -0.6474  0.6435
  161MOL0     C21615   8.178   6.493   1.801  0.1022 -0.0821  0.2126
  161MOL0     C21616   8.037   6.553   1.828 -0.6781  1.2287 -1.1142
  161MOL0     N21617   7.970   6.514   1.951  0.3616  0.9187  0.3419
  161MOL0     C21618   7.924   6.393   1.994  1.1842 -0.4855 -0.8021
  161MOL0     C21619   7.891   6.413   2.121 -0.0221 -0.7479 -0.1790
  161MOL0     C21620   7.841   6.298   2.206  0.0021  0.8431 -0.0188
  161MOL0     C21621   7.689   6.317   2.214  0.3735 -0.1725 -1.0383
  161MOL0     C21622   7.623   6.325   2.078  0.8146  0.6368 -0.8899
  161MOL0     C21623   7.471   6.335   2.086 -0.5301 -1.1258  0.1601
  161MOL0     O21624   7.417   6.343   1.951  0.2206 -0.0101 -0.4732
  161MOL0     C21625   7.278   6.321   1.944 -1.6251 -0.3444  0.6140
  161MOL0     C21626   7.241   6.225   1.849  0.2700  0.1457  0.0672
  161MOL0     C21627   7.111   6.180   1.854  1.7014 -0.3034 -0.5102
  161MOL0     C21628   7.015   6.249   1.932 -0.2170  0.3622 -0.3991
  161MOL0     C21629   6.870   6.203   1.934 -0.6939 -0.0166 -0.2640
  161MOL0     O21630   6.788   6.287   1.994  0.0532 -0.2445 -0.9555
  161MOL0     C21631   6.668   6.235   2.006  0.4754 -0.5820 -0.5093
  161MOL0     C21632   6.649   6.135   2.101 -0.3450 -0.0778 -0.7337
  161MOL0     C21633   6.519   6.088   2.134 -0.0396 -0.1110 -0.2426
  161MOL0     C21634   6.407   6.141   2.066  0.0608  0.1679  1.0877
  161MOL0     O21635   6.289   6.078   2.075  0.3726 -0.2897 -0.8174
  161MOL0     C21636   6.205   6.157   2.160  0.5542  0.1690 -0.3626
  161MOL0     C21637   6.066   6.093   2.190  0.0203 -0.5089 -0.1930
  161MOL0     C21638   6.028   6.013   2.073 -0.6610  0.3391  0.5109
  161MOL0     C21639   5.875   6.027   2.048  0.4456 -0.0239 -0.1742
  161MOL0     C21640   5.848   6.148   1.956  0.4195 -1.1139  0.2824
  161MOL0     C21641   5.696   6.139   1.923  0.5129  0.5758  0.2532
  161MOL0     C21642   5.659   6.234   1.796  0.0330 -0.6860 -0.3843
  161MOL0     C21643   5.639   6.377   1.833  0.2373  0.0460  0.7288
  161MOL0    Cl21644   5.568   6.459   1.690 -0.2771  0.6551  0.1013
  161MOL0     C21645   6.427   6.243   1.969  0.1396 -0.0325  0.6302
  161MOL0     C21646   6.551   6.298   1.946  0.5362 -0.0186 -0.2324
  161MOL0     O21647   6.841   6.091   1.881 -0.0023  1.0017 -0.2494
  161MOL0     C21648   7.052   6.353   2.018 -0.0313  0.1096  0.1135
  161MOL0     C21649   7.189   6.385   2.028  0.6465 -0.3237  0.0278
  161MOL0     N21650   7.904   6.545   2.154  0.1525  0.4301  0.0877
  161MOL0     N21651   7.955   6.595   2.049 -0.2439 -0.4003 -0.7701
  161MOL0     C21652   9.026   6.448   1.782  1.4198 -0.2686  0.0849
  161MOL0     C21653   9.123   6.533   1.822 -0.7340  0.5687  0.2083
  161MOL0     C21654   9.437   6.839   1.894 -0.6204  0.3202 -0.3533
  161MOL0     C21655   9.565   6.781   1.858  0.2749  0.0071 -0.1898
  161MOL0     C21656   9.686   6.843   1.894 -0.7000  0.3257  0.0414
  161MOL0     C21657   9.689   6.968   1.955 -1.0224  0.3808  0.1832
  161MOL0     O21658   9.796   7.029   2.006 -0.2793  1.2697  0.7477
  161MOL0     C21659   9.911   7.034   1.918 -0.2655 -0.9034 -0.7205
  161MOL0     C21660  10.029   7.109   1.977 -0.2442  0.2472 -0.4010
  161MOL0     C21661  10.003   7.256   2.021 -0.6576  0.6998 -0.2967
  161MOL0     C21662  10.002   7.346   1.900 -0.9340  0.5976  0.0891
  161MOL0     C21663   9.986   7.485   1.917 -1.5548  0.3400 -0.0014
  161MOL0     C21664   9.972   7.602   1.946  0.0643 -0.6210  0.3659
  161MOL0     C21665   9.566   7.037   1.970  0.4417  0.4995 -0.1273
  161MOL0     C21666   9.442   6.971   1.936  0.4493  0.2447  0.3587
  161MOL0     C21667   9.316   7.051   1.947 -0.0797  0.1307 -0.0217
  161MOL0     H21668   9.163   6.734   1.547 -1.4084  0.9315  0.0884
  161MOL0     H21669   8.978   6.612   1.483 -2.3456  0.4338  0.9785
  161MOL0     H21670   8.791   6.198   1.612  2.4488 -1.2516  1.2087
  161MOL0     H21671   8.895   6.240   1.740  1.4138 -0.4587 -3.0142
  161MOL0     H21672   8.751   6.442   1.803 -0.3982  1.4594 -0.8524
  161MOL0     H21673   8.652   6.292   1.797 -1.9558  0.8130 -1.6020
  161MOL0     H21674   8.580   6.344   1.572 -0.3865  0.6519 -0.3329
  161MOL0     H21675   8.651   6.508   1.572 -1.2978 -0.0187 -0.8515
  161MOL0     H21676   8.469   6.421   1.793 -3.3069  1.2255  0.8714
  161MOL0     H21677   8.516   6.584   1.730  2.0941 -1.0824  0.4005
  161MOL0     H21678   8.394   6.565   1.525  0.1472  1.1657  0.4845
  161MOL0     H21679   8.327   6.415   1.566 -0.7959 -1.0176  2.0478
  161MOL0     H21680   8.285   6.677   1.713  1.3786 -0.8791 -0.7426
  161MOL0     H21681   8.171   6.589   1.615  0.8792  1.9009 -0.4177
  161MOL0     H21682   8.235   6.504   1.894 -1.1159 -0.5218  1.0288
  161MOL0     H21683   8.170   6.388   1.773 -1.4086 -0.1226  0.7504
  161MOL0     H21684   8.047   6.662   1.819 -1.0349  1.3915  0.2242
  161MOL0     H21685   7.974   6.522   1.745 -2.0539 -3.4022  1.3145
  161MOL0     H21686   7.923   6.294   1.948 -0.8386 -1.3345  0.9378
  161MOL0     H21687   7.875   6.202   2.167 -0.9832  0.8193 -0.8530
  161MOL0     H21688   7.877   6.292   2.309 -0.6151  2.3148  0.3124
  161MOL0     H21689   7.631   6.240   2.266 -2.2737  2.1417 -0.3335
  161MOL0     H21690   7.671   6.410   2.268 -2.9729 -1.1377 -0.2772
  161MOL0     H21691   7.633   6.229   2.027 -0.8675  1.5428 -3.0888
  161MOL0     H21692   7.665   6.416   2.034  2.5698  1.9333  3.0162
  161MOL0     H21693   7.441   6.426   2.138  1.5215  0.5639 -1.4232
  161MOL0     H21694   7.432   6.248   2.140  1.3377 -1.3816  1.2028
  161MOL0     H21695   7.316   6.175   1.787  0.6001 -2.3852  2.3229
  161MOL0     H21696   7.086   6.088   1.803  2.3384 -0.7831  0.0370
  161MOL0     H21697   6.732   6.100   2.161 -0.6286 -0.6236 -0.6509
  161MOL0     H21698   6.520   6.014   2.212  2.0228  2.1047  2.0165
  161MOL0     H21699   6.257   6.190   2.250 -0.3382  1.9303 -0.4499
  161MOL0     H21700   6.178   6.245   2.101  3.2275  1.2515 -0.1063
  161MOL0     H21701   6.073   6.015   2.267 -1.9280 -0.3402  0.1963
  161MOL0     H21702   5.991   6.162   2.228 -0.4184 -0.3796 -1.2867
  161MOL0     H21703   6.082   6.031   1.980  1.0404 -0.5658  1.2792
  161MOL0     H21704   6.065   5.915   2.106  1.2088  1.1342  0.8555
  161MOL0     H21705   5.816   6.024   2.140  0.1195 -0.2531 -0.3890
  161MOL0     H21706   5.842   5.931   2.007 -2.8515  1.1492 -0.5867
  161MOL0     H21707   5.911   6.147   1.866  2.8044  2.1317  1.6975
  161MOL0     H21708   5.861   6.241   2.013 -0.5936 -1.3370  0.9068
  161MOL0     H21709   5.665   6.037   1.901  0.8233  0.2265  1.4189
  161MOL0     H21710   5.643   6.177   2.010 -0.7443 -2.2846  0.8541
  161MOL0     H21711   5.560   6.211   1.755  0.1130  1.4597 -1.9777
  161MOL0     H21712   5.733   6.230   1.715  1.4139  1.6505  0.6373
  161MOL0     H21713   5.575   6.402   1.919 -0.2473 -0.9304  0.6565
  161MOL0     H21714   5.739   6.417   1.852  2.1322 -2.8515 -2.1653
  161MOL0     H21715   6.355   6.294   1.907 -1.8205  0.7205  3.3496
  161MOL0     H21716   6.562   6.389   1.889  1.5592 -0.0557 -0.1163
  161MOL0     H21717   6.990   6.423   2.074 -2.1719 -1.6356  0.0649
  161MOL0     H21718   7.231   6.455   2.099 -0.1198  2.2780 -1.9239
  161MOL0     H21719   9.004   6.370   1.855  0.2879  0.7479  0.8493
  161MOL0     H21720   9.184   6.519   1.911 -0.2617  3.5715  0.4502
  161MOL0     H21721   9.557   6.681   1.815  0.7359  1.7400 -4.9692
  161MOL0     H21722   9.781   6.795   1.874 -0.5671  0.9748 -0.9379
  161MOL0     H21723   9.875   7.090   1.831 -0.2216  0.3818  0.0623
  161MOL0     H21724   9.938   6.932   1.888 -3.6263 -1.1399 -3.6292
  161MOL0     H21725  10.105   7.107   1.898 -0.7038  0.0696 -0.8413
  161MOL0     H21726  10.077   7.049   2.055  1.8490  0.0466 -1.7771
  161MOL0     H21727  10.088   7.275   2.087 -0.0373 -1.0746 -0.5249
  161MOL0     H21728   9.912   7.253   2.081  0.3305 -1.5596  1.2148
  161MOL0     H21729  10.098   7.322   1.852 -2.6411 -2.7927 -2.0571
  161MOL0     H21730   9.923   7.307   1.836 -0.5521 -1.7198  0.9167
  161MOL0     H21731   9.973   7.709   1.943 -0.0847 -0.6248 -1.5506
  161MOL0     H21732   9.558   7.138   2.010 -0.7987  0.1215  0.6420
  161MOL0     H21733   9.244   7.007   1.878  0.6896 -1.3451  0.0710
  161MOL0     H21734   9.268   7.077   2.042  0.6033  2.2396 -0.2097
  161MOL0     H21735   9.324   7.153   1.910 -3.3387  0.3924 -0.3098
  162MOL0     O21736   9.904   8.720   1.392 -0.2989 -0.1750  0.5884
  162MOL0     C21737  10.019   8.677   1.365  0.1799  0.3161 -0.5618
  162MOL0     O21738  10.055   8.547   1.398  0.1454  0.5639  0.1330
  162MOL0     C21739  10.134   8.474   1.312  0.1213 -0.0150 -0.3603
  162MOL0     C21740  10.187   8.349   1.358  1.2958 -0.0630  0.4964
  162MOL0     C21741  10.266   8.273   1.273 -0.1945 -0.4048  0.3382
  162MOL0     C21742  10.281   8.300   1.142  1.2010  0.0059 -0.7344
  162MOL0     O21743  10.353   8.225   1.055 -0.2131 -0.5763 -0.3796
  162MOL0     C21744  10.492   8.272   1.039  0.1827  0.2207 -0.0704
  162MOL0     C21745  10.564   8.148   0.981 -0.6327 -1.2890 -0.9090
  162MOL0     C21746  10.581   8.029   1.079 -0.6690 -0.7465  1.0756
  162MOL0     C21747  10.624   8.070   1.218 -0.3647  0.3196 -1.4937
  162MOL0     C21748  10.653   7.943   1.302 -0.5761 -0.5106 -0.4017
  162MOL0     C21749  10.738   7.968   1.437 -0.5123  0.0157  0.4408
  162MOL0     C21750  10.743   7.846   1.529  0.9210 -0.9289  0.2546
  162MOL0     C21751  10.755   7.873   1.680 -0.4375 -0.0466 -0.6691
  162MOL0     N21752  10.803   7.752   1.753  0.0512  0.5417 -0.5184
  162MOL0     C21753  10.728   7.640   1.776  1.4561  0.5646 -0.7302
  162MOL0     C21754  10.799   7.566   1.859  0.2598  0.0853 -0.6785
  162MOL0     C21755  10.759   7.438   1.928  0.5767  0.9780 -0.4775
  162MOL0     C21756  10.829   7.319   1.856 -0.7690  0.0735 -0.4684
  162MOL0     C21757  10.837   7.187   1.934 -0.3938 -0.4943 -0.2548
  162MOL0     C21758  10.893   7.077   1.851  0.0207  0.4415 -0.4120
  162MOL0     O21759  10.895   6.960   1.930 -0.4824 -0.0359 -0.5897
  162MOL0     C21760  10.987   6.933   2.034  0.7902 -0.5048  0.0584
  162MOL0     C21761  11.096   7.020   2.068 -0.4410  0.4738  0.6339
  162MOL0     C21762  11.168   6.984   2.181  0.0648  1.0275 -0.2051
  162MOL0     C21763  11.153   6.852   2.235 -0.0057 -0.2304 -0.2474
  162MOL0     C21764  11.240   6.813   2.347  0.3640 -0.5488  0.3181
  162MOL0     O21765  11.332   6.903   2.386  0.4566  0.3189  0.8177
  162MOL0     C21766  11.408   6.879   2.491  0.9888  0.2760  0.1301
  162MOL0     C21767  11.523   6.799   2.481 -1.0206 -0.5298  0.1473
  162MOL0     C21768  11.601   6.759   2.592  0.5387  0.1463  0.2135
  162MOL0     C21769  11.564   6.800   2.716 -0.3286  0.1312 -0.3299
  162MOL0     O21770  11.628   6.763   2.842 -0.2498  0.5004  0.6058
  162MOL0     C21771  11.643   6.619   2.849  0.6758  0.8346  0.1510
  162MOL0     C21772  11.698   6.563   2.989 -0.3247 -0.5714 -0.1687
  162MOL0     C21773  11.763   6.420   2.973  0.2250 -0.4947 -0.0910
  162MOL0     C21774  11.812   6.361   3.106 -0.3541  0.0832  0.1272
  162MOL0     C21775  11.909   6.237   3.074  0.4757 -0.3052 -0.5943
  162MOL0     C21776  11.942   6.167   3.201 -0.2907  0.5767 -0.6313
  162MOL0     C21777  11.824   6.078   3.254  0.1916  0.0948 -0.4218
  162MOL0     C21778  11.846   6.025   3.397  0.4506  0.3960 -0.0191
  162MOL0    Cl21779  11.969   5.895   3.385  0.4713 -0.0318 -0.5630
  162MOL0     C21780  11.451   6.886   2.727  0.0330  0.6788 -0.3064
  162MOL0     C21781  11.372   6.917   2.615 -0.4810  0.1716 -0.2444
  162MOL0     O21782  11.221   6.702   2.399  0.2204 -0.0732  0.0883
  162MOL0     C21783  11.051   6.761   2.184 -1.0427 -0.2627  0.8663
  162MOL0     C21784  10.970   6.805   2.080  0.1874  0.5090 -0.1189
  162MOL0     N21785  10.913   7.632   1.896  0.5641  0.0007 -0.3678
  162MOL0     N21786  10.915   7.737   1.828 -0.0034 -0.5385 -0.3564
  162MOL0     C21787  10.213   8.412   1.089  0.2802 -0.3470 -0.6071
  162MOL0     C21788  10.138   8.496   1.175  0.8586  0.2012 -0.0860
  162MOL0     C21789  10.114   8.778   1.319  0.2589 -0.7261  0.3239
  162MOL0     C21790  10.253   8.763   1.355 -0.5644 -0.6268  0.0099
  162MOL0     C21791  10.354   8.845   1.302  0.6189  0.5036  1.2540
  162MOL0     C21792  10.320   8.950   1.218  0.3447  0.4618  0.1418
  162MOL0     O21793  10.413   9.021   1.163  0.2085  0.3454  0.0385
  162MOL0     C21794  10.395   9.157   1.124 -0.1037  0.7806 -0.0530
  162MOL0     C21795  10.527   9.229   1.177  0.2602 -0.0888 -0.0679
  162MOL0     C21796  10.658   9.173   1.116 -1.1528 -1.1626 -0.5318
  162MOL0     C21797  10.660   9.172   0.962 -0.1377 -1.5635  1.0172
  162MOL0     C21798  10.628   9.304   0.909 -0.5712 -0.9217  0.4111
  162MOL0     C21799  10.601   9.425   0.887 -0.1199 -0.4808  0.1155
  162MOL0     C21800  10.187   8.975   1.196  0.2519 -0.1189 -0.7436
  162MOL0     C21801  10.088   8.888   1.243 -0.2618 -1.0108  0.1866
  162MOL0     C21802   9.943   8.924   1.192  0.6239  0.7873 -0.2059
  162MOL0     H21803  10.171   8.321   1.461  2.7755  0.6604  0.9511
  162MOL0     H21804  10.322   8.185   1.303 -0.3734 -0.7119 -0.1987
  162MOL0     H21805  10.497   8.355   0.969 -3.2026  1.5206  1.0624
  162MOL0     H21806  10.533   8.302   1.136 -0.4333  0.3073  0.1645
  162MOL0     H21807  10.663   8.191   0.962 -0.4963 -1.6520 -1.0189
  162MOL0     H21808  10.513   8.123   0.888 -3.3052  2.9840 -0.8730
  162MOL0     H21809  10.660   7.970   1.032 -1.2445  0.1488 -1.1204
  162MOL0     H21810  10.488   7.971   1.076 -0.4510 -1.1443  1.7920
  162MOL0     H21811  10.707   8.139   1.205 -1.4584  2.2258  0.8292
  162MOL0     H21812  10.565   8.144   1.273  2.0767  0.4306  1.2383
  162MOL0     H21813  10.561   7.893   1.333 -0.6779 -0.6822 -0.9732
  162MOL0     H21814  10.706   7.864   1.249 -1.8110 -1.0157 -0.9103
  162MOL0     H21815  10.844   7.980   1.410  0.0686 -2.4876  1.3089
  162MOL0     H21816  10.711   8.054   1.499  0.8948  1.9003 -1.3964
  162MOL0     H21817  10.808   7.769   1.485  0.3073  0.1730 -2.8119
  162MOL0     H21818  10.643   7.806   1.511  0.7844 -0.0152 -1.1826
  162MOL0     H21819  10.823   7.955   1.706 -2.2127  1.1421  0.4520
  162MOL0     H21820  10.658   7.894   1.726  1.3226 -0.6016  3.8935
  162MOL0     H21821  10.625   7.629   1.742  1.0903 -0.3669  0.5834
  162MOL0     H21822  10.791   7.434   2.033 -0.0148 -0.4683 -0.3283
  162MOL0     H21823  10.652   7.415   1.924  0.6164  0.6849 -0.0463
  162MOL0     H21824  10.769   7.308   1.765 -2.6345  1.4908  0.5255
  162MOL0     H21825  10.929   7.351   1.828 -1.5755  1.0051 -2.5263
  162MOL0     H21826  10.740   7.154   1.971 -0.1059 -0.5925  0.4476
  162MOL0     H21827  10.913   7.204   2.011  1.9319 -0.0589 -2.4966
  162MOL0     H21828  10.992   7.102   1.814  1.9820 -0.1523  3.8157
  162MOL0     H21829  10.833   7.047   1.764  0.4241  0.2109 -0.6170
  162MOL0     H21830  11.115   7.119   2.028 -2.2069  1.6228  2.5034
  162MOL0     H21831  11.233   7.046   2.243 -0.4408 -0.3714  1.8340
  162MOL0     H21832  11.569   6.788   2.383 -1.0195 -2.0909  0.2871
  162MOL0     H21833  11.689   6.696   2.580  0.8024  0.4343  0.6115
  162MOL0     H21834  11.557   6.562   2.813 -0.2691  1.9996  0.5238
  162MOL0     H21835  11.718   6.589   2.775 -2.2132 -1.6056 -2.0214
  162MOL0     H21836  11.767   6.637   3.031  0.1251 -1.2283  0.2578
  162MOL0     H21837  11.612   6.563   3.056 -1.4383  2.8950 -1.3445
  162MOL0     H21838  11.694   6.344   2.934  2.5933 -0.9908 -3.8454
  162MOL0     H21839  11.845   6.425   2.901  0.6504  0.3097  0.4380
  162MOL0     H21840  11.727   6.342   3.173  0.4598  1.8534  1.7530
  162MOL0     H21841  11.864   6.445   3.152  2.0100 -0.9585 -0.4719
  162MOL0     H21842  12.007   6.277   3.045 -0.1314  0.3582 -1.8307
  162MOL0     H21843  11.871   6.183   2.987  0.2097 -0.5155 -0.3477
  162MOL0     H21844  12.032   6.108   3.179 -1.0579 -1.2590  0.8390
  162MOL0     H21845  11.979   6.228   3.284  1.7468 -1.5217  0.1581
  162MOL0     H21846  11.800   5.994   3.188 -3.9705 -1.7074  2.9128
  162MOL0     H21847  11.727   6.130   3.250 -0.9757 -1.4766  3.3526
  162MOL0     H21848  11.882   6.112   3.452 -1.1531  0.3541  1.1789
  162MOL0     H21849  11.751   5.993   3.442 -1.5362  4.6720 -0.6522
  162MOL0     H21850  11.420   6.920   2.825 -0.1574 -2.1254  0.7124
  162MOL0     H21851  11.285   6.977   2.638 -1.3270 -0.9598 -0.4520
  162MOL0     H21852  11.036   6.659   2.220  0.5740 -0.9522 -0.2465
  162MOL0     H21853  10.887   6.751   2.037  0.7160 -0.3481 -0.0798
  162MOL0     H21854  10.210   8.440   0.984  0.8778  0.3026 -0.4591
  162MOL0     H21855  10.081   8.570   1.119  2.1158 -2.5699 -5.8827
  162MOL0     H21856  10.288   8.674   1.406 -1.3119 -0.2612  1.2091
  162MOL0     H21857  10.454   8.804   1.315 -0.6527 -3.1302  0.6880
  162MOL0     H21858  10.311   9.207   1.173 -1.8421 -1.1149 -0.9389
  162MOL0     H21859  10.384   9.160   1.015  0.8369 -0.6160 -0.2120
  162MOL0     H21860  10.539   9.219   1.286  1.4459 -1.7296 -0.3071
  162MOL0     H21861  10.514   9.335   1.157  0.4362 -0.2009 -0.7910
  162MOL0     H21862  10.685   9.072   1.149 -0.1757 -2.0624 -3.7028
  162MOL0     H21863  10.742   9.234   1.150 -0.9793 -2.2007  1.0032
  162MOL0     H21864  10.763   9.154   0.932 -0.1532  2.7437 -2.6924
  162MOL0     H21865  10.593   9.101   0.912 -1.8175  0.1089  0.8016
  162MOL0     H21866  10.578   9.530   0.889 -2.1549 -0.8756  2.0155
  162MOL0     H21867  10.165   9.068   1.145 -0.9822  1.4909  2.4583
  162MOL0     H21868   9.894   8.830   1.166 -0.8411  1.4986 -0.1035
  162MOL0     H21869   9.895   8.984   1.270  1.5813  0.9166  0.3101
  162MOL0     H21870   9.937   8.987   1.103 -2.5830  1.0125  0.0611
  163MOL0     O21871   2.652   7.381   1.959 -0.2071  0.6009  0.9001
  163MOL0     C21872   2.742   7.371   1.874  0.1032  0.2171 -0.5751
  163MOL0     O21873   2.739   7.438   1.763  0.3851 -0.4393 -0.0331
  163MOL0     C21874   2.623   7.505   1.725 -0.9116  0.6405 -0.2190
  163MOL0     C21875   2.517   7.427   1.676 -0.2217  0.4208  0.0098
  163MOL0     C21876   2.399   7.486   1.643 -0.3381  0.0700  0.0992
  163MOL0     C21877   2.374   7.617   1.665 -0.8465  0.6753 -0.5967
  163MOL0     O21878   2.243   7.648   1.645 -0.4133  0.1734  0.4935
  163MOL0     C21879   2.180   7.706   1.755 -0.8956 -0.0254 -1.4822
  163MOL0     C21880   2.172   7.859   1.731  0.0903  0.3312  0.1550
  163MOL0     C21881   2.076   7.935   1.828 -0.4226 -0.1295  0.1902
  163MOL0     C21882   2.102   8.087   1.816 -0.1845  0.0298  0.5427
  163MOL0     C21883   2.029   8.156   1.926  0.1792 -0.1966 -0.4703
  163MOL0     C21884   2.045   8.311   1.921  0.4755  0.0184 -0.3690
  163MOL0     C21885   1.913   8.359   1.986 -0.9440  0.0206 -0.0569
  163MOL0     C21886   1.888   8.331   2.141  0.0459 -0.3562 -0.6359
  163MOL0     N21887   1.984   8.420   2.212  0.3172 -0.2064 -0.4614
  163MOL0     C21888   1.959   8.551   2.245 -0.8229 -1.2453  0.8451
  163MOL0     C21889   2.071   8.592   2.305 -0.6320 -0.0450  0.1971
  163MOL0     C21890   2.084   8.732   2.360  0.3666 -0.1334 -0.2279
  163MOL0     C21891   2.028   8.747   2.502  0.4192  0.1315  0.2655
  163MOL0     C21892   2.099   8.684   2.628 -0.3882  0.2122  0.3325
  163MOL0     C21893   2.252   8.697   2.604  0.4244 -0.1254  0.1761
  163MOL0     O21894   2.306   8.651   2.730  0.1942 -0.1766  0.1320
  163MOL0     C21895   2.437   8.679   2.746 -0.2622 -1.0158  0.4131
  163MOL0     C21896   2.482   8.701   2.876 -0.0136  0.2593  0.3536
  163MOL0     C21897   2.615   8.728   2.907  0.6415  0.2610 -0.0892
  163MOL0     C21898   2.700   8.741   2.807 -0.2744 -0.0241 -0.5873
  163MOL0     C21899   2.830   8.804   2.832 -0.4350 -1.1531  0.2576
  163MOL0     O21900   2.824   8.920   2.914 -0.5758 -0.8053 -0.5947
  163MOL0     C21901   2.932   9.007   2.910  0.5221 -0.6513  0.3620
  163MOL0     C21902   2.901   9.126   2.971  0.7365 -0.5873 -0.4204
  163MOL0     C21903   2.989   9.226   3.001  0.3453 -1.1709 -0.0666
  163MOL0     C21904   3.113   9.222   2.939  0.1727 -1.0006 -0.2646
  163MOL0     O21905   3.203   9.323   2.942 -0.0337 -0.2530 -0.3139
  163MOL0     C21906   3.146   9.454   2.982  1.0559 -0.1235  0.0501
  163MOL0     C21907   3.264   9.549   2.969 -0.4379  0.3635 -1.2653
  163MOL0     C21908   3.267   9.632   2.848  0.1327 -0.4555 -0.5894
  163MOL0     C21909   3.211   9.777   2.857  0.1871  0.4370 -0.0871
  163MOL0     C21910   3.054   9.790   2.841 -0.2968  1.0345  0.1065
  163MOL0     C21911   2.965   9.767   2.969  0.0755 -0.3598 -0.3096
  163MOL0     C21912   2.836   9.682   2.942 -0.2289  0.4873 -0.1215
  163MOL0     C21913   2.768   9.636   3.071  0.3434  0.0516  0.2877
  163MOL0    Cl21914   2.778   9.468   3.111  0.4755 -0.0847 -0.2567
  163MOL0     C21915   3.143   9.118   2.852  0.0165 -0.0047 -0.4025
  163MOL0     C21916   3.060   9.004   2.843 -0.2382  0.0589 -0.0444
  163MOL0     O21917   2.931   8.758   2.787 -0.4085  0.3610  0.3098
  163MOL0     C21918   2.661   8.717   2.678 -0.2605 -0.2082  0.2483
  163MOL0     C21919   2.536   8.693   2.645  0.0352  0.0048 -0.2528
  163MOL0     N21920   2.165   8.489   2.309 -0.5716 -0.4243 -0.3436
  163MOL0     N21921   2.109   8.386   2.250  0.0431 -0.8610  0.5100
  163MOL0     C21922   2.474   7.702   1.719  0.8557 -0.1647 -0.3419
  163MOL0     C21923   2.594   7.642   1.747 -0.4002 -0.1897 -0.0328
  163MOL0     C21924   2.848   7.273   1.905  0.8634  0.2012  1.3056
  163MOL0     C21925   2.906   7.258   2.037  0.9629 -0.8729 -0.1563
  163MOL0     C21926   3.001   7.163   2.064 -0.2049 -0.2897 -0.1267
  163MOL0     C21927   3.042   7.067   1.969 -0.2596  0.3065  0.6849
  163MOL0     O21928   3.147   6.980   2.006  0.3816 -0.6122 -0.4719
  163MOL0     C21929   3.135   6.855   1.936 -0.6678  0.4782  0.1249
  163MOL0     C21930   3.189   6.739   2.013 -0.7027 -0.1925 -0.2479
  163MOL0     C21931   3.342   6.749   1.999 -0.8537 -0.4830 -0.8210
  163MOL0     C21932   3.432   6.670   2.109 -0.0804  0.5821  0.7443
  163MOL0     C21933   3.363   6.565   2.185  0.1215 -0.5221 -0.6280
  163MOL0     C21934   3.304   6.465   2.228  0.0706 -0.0531 -0.2731
  163MOL0     C21935   2.985   7.077   1.841 -0.3993  0.3230 -0.1171
  163MOL0     C21936   2.893   7.176   1.806 -0.5690  0.2068 -0.7765
  163MOL0     C21937   2.842   7.172   1.661 -0.1961 -0.5130 -0.2985
  163MOL0     H21938   2.530   7.321   1.656 -2.0951 -0.1842  1.7060
  163MOL0     H21939   2.317   7.431   1.598  0.6312 -0.0606 -1.5937
  163MOL0     H21940   2.079   7.668   1.773  0.0288 -2.8921 -1.8723
  163MOL0     H21941   2.228   7.675   1.848  0.3178 -2.1651 -2.7360
  163MOL0     H21942   2.139   7.884   1.630  1.5195  1.0317 -0.1607
  163MOL0     H21943   2.273   7.901   1.739  0.5291 -0.3946 -1.3016
  163MOL0     H21944   2.098   7.908   1.931  2.3368  0.0421 -0.2806
  163MOL0     H21945   1.974   7.917   1.792  0.6221 -2.4054 -1.9086
  163MOL0     H21946   2.207   8.113   1.827 -0.4236  1.6000 -0.5654
  163MOL0     H21947   2.063   8.122   1.720 -0.7437  0.1744  0.8153
  163MOL0     H21948   1.924   8.125   1.931  0.6067 -1.6894 -0.3255
  163MOL0     H21949   2.077   8.126   2.019 -0.9397 -0.5880 -0.0053
  163MOL0     H21950   2.131   8.354   1.973 -0.1644  1.7741 -0.6847
  163MOL0     H21951   2.038   8.345   1.817 -0.3305 -1.9023 -0.9878
  163MOL0     H21952   1.824   8.335   1.927  0.6115  0.0226 -2.5611
  163MOL0     H21953   1.914   8.467   1.966 -0.0115 -0.0495 -0.4454
  163MOL0     H21954   1.783   8.350   2.168 -0.3502 -1.0702 -1.6086
  163MOL0     H21955   1.904   8.228   2.173 -0.0463 -0.0268  0.5162
  163MOL0     H21956   1.865   8.606   2.241  0.1767  0.5826 -3.4310
  163MOL0     H21957   2.185   8.773   2.364  0.6033 -0.7950  2.8710
  163MOL0     H21958   2.017   8.784   2.291  0.8493  0.2874 -0.3837
  163MOL0     H21959   2.028   8.854   2.522 -0.9476  0.1904  0.0125
  163MOL0     H21960   1.926   8.707   2.501  0.9298 -1.2190 -0.0422
  163MOL0     H21961   2.066   8.588   2.668  1.5254 -0.6277  0.0026
  163MOL0     H21962   2.075   8.759   2.704  0.6121  2.7171 -1.6598
  163MOL0     H21963   2.279   8.801   2.585 -2.3183  0.5871 -0.2988
  163MOL0     H21964   2.282   8.625   2.527 -0.5916  0.1555 -0.5140
  163MOL0     H21965   2.414   8.687   2.960  2.1238 -0.6774  2.0160
  163MOL0     H21966   2.644   8.756   3.008  0.7382  0.9427 -0.3040
  163MOL0     H21967   2.807   9.114   3.025  1.7328 -0.0868  1.5063
  163MOL0     H21968   2.960   9.303   3.071  0.7067  0.1277 -1.2987
  163MOL0     H21969   3.072   9.491   2.910  2.7581  4.1002  0.1722
  163MOL0     H21970   3.103   9.455   3.083  0.1001 -1.1314 -0.3255
  163MOL0     H21971   3.266   9.607   3.061  3.2672  0.8729 -1.5370
  163MOL0     H21972   3.359   9.495   2.980 -0.4345  0.7579  1.0559
  163MOL0     H21973   3.370   9.622   2.811  0.2283 -0.5095 -0.3096
  163MOL0     H21974   3.194   9.587   2.780 -2.5406 -1.0357  2.4388
  163MOL0     H21975   3.258   9.813   2.765  0.4497 -0.7425 -0.4387
  163MOL0     H21976   3.243   9.835   2.944 -2.0658 -1.0648  1.8767
  163MOL0     H21977   3.018   9.724   2.761 -1.2225  0.1774  1.2078
  163MOL0     H21978   3.039   9.898   2.825  4.6477  1.8647 -0.4455
  163MOL0     H21979   3.027   9.722   3.048 -1.8451 -0.5741  1.1720
  163MOL0     H21980   2.946   9.863   3.017 -1.6086 -0.9631  0.3106
  163MOL0     H21981   2.864   9.591   2.887  1.9107  0.1615  1.4227
  163MOL0     H21982   2.765   9.741   2.883 -1.0115  0.9810  1.2756
  163MOL0     H21983   2.808   9.690   3.157 -3.6621  0.7189  1.9499
  163MOL0     H21984   2.661   9.660   3.069  0.4494  1.0963  2.8970
  163MOL0     H21985   3.228   9.115   2.784  0.4207 -0.8978  0.1117
  163MOL0     H21986   3.092   8.926   2.774  0.0367  0.6079 -0.5444
  163MOL0     H21987   2.732   8.717   2.596 -1.0924  1.1080 -0.5098
  163MOL0     H21988   2.523   8.681   2.538  3.1129  0.8550 -0.8000
  163MOL0     H21989   2.458   7.807   1.739  0.0106  0.1472 -2.3361
  163MOL0     H21990   2.678   7.685   1.802 -0.7895 -1.8524  2.0128
  163MOL0     H21991   2.882   7.320   2.124  0.5052  1.1588 -1.6477
  163MOL0     H21992   3.044   7.143   2.162 -3.6589  0.0851  1.5969
  163MOL0     H21993   3.179   6.866   1.836  1.0268  2.7965  1.0408
  163MOL0     H21994   3.031   6.823   1.929  0.4530 -3.5198 -1.0376
  163MOL0     H21995   3.162   6.637   1.985  2.1559 -1.8766  2.4549
  163MOL0     H21996   3.148   6.740   2.114 -2.9163 -2.1541 -1.0186
  163MOL0     H21997   3.379   6.851   1.999  1.3543 -1.2171 -2.1723
  163MOL0     H21998   3.369   6.711   1.900 -4.2658  0.5097 -2.3022
  163MOL0     H21999   3.521   6.626   2.063 -1.4708 -1.9192  0.2556
  163MOL0     H22000   3.474   6.740   2.183 -0.1740  0.8864  0.5109
  163MOL0     H22001   3.246   6.379   2.251  3.0689 -1.7497  1.6292
  163MOL0     H22002   3.034   7.032   1.755  0.1543 -2.3143  1.4874
  163MOL0     H22003   2.865   7.085   1.598  0.9297 -0.5109  0.0872
  163MOL0     H22004   2.733   7.170   1.662 -0.2289 -1.0443  2.3146
  163MOL0     H22005   2.880   7.268   1.624  1.4637 -1.0671 -0.1118
  164MOL0     O22006   8.083   3.827   7.791  0.1364 -0.2518 -0.2631
  164MOL0     C22007   8.190   3.771   7.754  0.0739  0.2743 -0.0129
  164MOL0     O22008   8.263   3.795   7.636  0.2701 -0.0399  0.2506
  164MOL0     C22009   8.215   3.869   7.537  0.4420  0.0600  0.0713
  164MOL0     C22010   8.249   3.853   7.401  0.3753  1.1321 -0.6743
  164MOL0     C22011   8.224   3.941   7.302 -0.1283 -0.7132 -0.0991
  164MOL0     C22012   8.144   4.060   7.334  0.5305 -0.2137  0.4697
  164MOL0     O22013   8.111   4.155   7.238  0.6317 -0.8739 -0.7072
  164MOL0     C22014   8.229   4.209   7.168  0.1831  0.2211 -0.0299
  164MOL0     C22015   8.198   4.279   7.034  0.2827 -0.2534  1.2707
  164MOL0     C22016   8.318   4.350   6.965  0.6186  0.0489 -0.3446
  164MOL0     C22017   8.336   4.488   7.028  0.5765  1.1098  0.4757
  164MOL0     C22018   8.453   4.564   6.960  0.5189  0.0210  0.5704
  164MOL0     C22019   8.428   4.598   6.815  0.2778 -0.2003 -0.0737
  164MOL0     C22020   8.510   4.716   6.751 -0.6144  0.2559 -0.1020
  164MOL0     C22021   8.458   4.862   6.777  0.1935 -0.7420 -0.2680
  164MOL0     N22022   8.546   4.962   6.708  0.2630  0.7835  0.0976
  164MOL0     C22023   8.667   4.929   6.650 -0.0501  0.8305  0.5649
  164MOL0     C22024   8.716   5.050   6.610 -0.6040 -0.3115 -1.1810
  164MOL0     C22025   8.862   5.071   6.563  0.5064  0.0984  0.3109
  164MOL0     C22026   8.907   4.982   6.447 -0.3331 -0.8005 -0.5781
  164MOL0     C22027   9.028   5.050   6.379 -0.5838 -0.1759 -0.4979
  164MOL0     C22028   9.068   4.966   6.260 -0.0202  0.0235  0.6236
  164MOL0     O22029   8.980   4.987   6.152  0.0146 -0.6006  0.3932
  164MOL0     C22030   9.006   5.084   6.056  0.9401  0.4783  0.5496
  164MOL0     C22031   9.104   5.179   6.055 -0.8228 -0.2356 -0.1635
  164MOL0     C22032   9.112   5.265   5.945  1.2859 -0.3569 -0.1165
  164MOL0     C22033   9.016   5.273   5.835  0.8859 -0.2582  0.0408
  164MOL0     C22034   9.036   5.374   5.724 -0.0489  0.6322  0.2109
  164MOL0     O22035   9.153   5.428   5.726 -0.8230 -0.4363  0.6243
  164MOL0     C22036   9.189   5.523   5.630 -0.1494  0.6006 -0.3356
  164MOL0     C22037   9.157   5.660   5.642 -0.0537 -0.2755 -0.2646
  164MOL0     C22038   9.199   5.747   5.539  0.2346 -0.6704 -0.8205
  164MOL0     C22039   9.261   5.702   5.425  0.3691 -0.1565  0.5871
  164MOL0     O22040   9.272   5.800   5.320  0.0812  0.5674  0.8106
  164MOL0     C22041   9.344   5.763   5.197  0.3427 -0.3984 -0.2580
  164MOL0     C22042   9.360   5.889   5.107 -0.4925  0.3285 -0.0944
  164MOL0     C22043   9.456   6.001   5.145  0.6384 -0.6447  0.5610
  164MOL0     C22044   9.456   6.115   5.043  0.6109 -0.3305 -0.0512
  164MOL0     C22045   9.584   6.202   5.029  0.2900  0.7865  0.5821
  164MOL0     C22046   9.537   6.319   4.944 -0.3435 -0.0556  0.1927
  164MOL0     C22047   9.501   6.298   4.795  0.1311  0.4803  0.4514
  164MOL0     C22048   9.473   6.433   4.721 -1.1628 -0.3004 -0.5025
  164MOL0    Cl22049   9.317   6.519   4.779  0.1651 -0.0557  0.0733
  164MOL0     C22050   9.302   5.574   5.425 -0.9776 -0.0450  0.6002
  164MOL0     C22051   9.260   5.482   5.520 -0.2790  0.3410 -0.5832
  164MOL0     O22052   8.950   5.398   5.640  0.0161  0.5684 -0.2934
  164MOL0     C22053   8.915   5.172   5.843 -0.1762  0.1705  0.5688
  164MOL0     C22054   8.912   5.086   5.951  0.2475 -0.1546  0.5732
  164MOL0     N22055   8.618   5.144   6.615  0.4292 -0.6343 -0.0944
  164MOL0     N22056   8.510   5.089   6.672  0.7341 -0.1222 -0.0601
  164MOL0     C22057   8.103   4.077   7.462 -0.6907  0.0665 -0.3264
  164MOL0     C22058   8.144   3.990   7.561 -0.0869 -0.3720  0.3852
  164MOL0     C22059   8.247   3.668   7.849 -0.8499  0.8692 -0.1336
  164MOL0     C22060   8.171   3.629   7.969  0.2640 -0.6043 -0.3427
  164MOL0     C22061   8.209   3.525   8.049  0.1693 -0.2496 -0.2523
  164MOL0     C22062   8.334   3.470   8.037  0.9034 -0.0189 -0.7234
  164MOL0     O22063   8.363   3.367   8.126 -0.5405  0.4283 -0.1965
  164MOL0     C22064   8.499   3.326   8.131  0.4729  0.6587 -1.8028
  164MOL0     C22065   8.525   3.247   8.258 -0.8918 -0.3669 -0.8909
  164MOL0     C22066   8.458   3.109   8.260  0.1372 -0.1634 -0.6727
  164MOL0     C22067   8.496   3.039   8.389 -0.0060 -0.5870 -0.1651
  164MOL0     C22068   8.416   2.919   8.411 -0.5136 -0.2013 -0.3344
  164MOL0     C22069   8.366   2.809   8.419  1.2582 -0.8299  0.6131
  164MOL0     C22070   8.417   3.505   7.924  0.1242 -0.5786  0.9030
  164MOL0     C22071   8.377   3.606   7.841  0.3605  0.7609 -0.3376
  164MOL0     C22072   8.477   3.640   7.722 -0.0818 -0.3115 -0.1075
  164MOL0     H22073   8.294   3.756   7.380  2.4913  2.0685 -0.7267
  164MOL0     H22074   8.265   3.914   7.205  0.2373  0.0734 -0.1686
  164MOL0     H22075   8.288   4.276   7.231  4.3953 -2.3654 -0.8101
  164MOL0     H22076   8.311   4.139   7.155  0.6093  0.5015  1.0131
  164MOL0     H22077   8.119   4.355   7.031  0.7424  0.3264  2.7702
  164MOL0     H22078   8.166   4.203   6.962 -1.0030  2.4408 -1.2001
  164MOL0     H22079   8.302   4.375   6.860  1.7160 -0.0230 -0.5483
  164MOL0     H22080   8.411   4.291   6.969  0.1620 -0.6403  0.5387
  164MOL0     H22081   8.247   4.549   7.013  0.4545  1.6180  2.8407
  164MOL0     H22082   8.356   4.487   7.136 -1.1976 -0.7157  0.8518
  164MOL0     H22083   8.465   4.660   7.013 -1.6742 -1.6034  4.4692
  164MOL0     H22084   8.551   4.515   6.966  0.7979  0.3556 -1.0304
  164MOL0     H22085   8.462   4.503   6.773 -0.4970 -0.4767 -0.1051
  164MOL0     H22086   8.322   4.613   6.791  0.3327 -0.0250 -0.2010
  164MOL0     H22087   8.505   4.701   6.643 -1.1641  1.8327 -0.3213
  164MOL0     H22088   8.613   4.706   6.788 -0.4926 -1.0856 -0.7543
  164MOL0     H22089   8.355   4.875   6.742 -0.4695 -2.7479  0.7721
  164MOL0     H22090   8.468   4.864   6.886  3.9851 -0.5591 -0.4890
  164MOL0     H22091   8.716   4.832   6.644  1.1803  1.4792 -0.3969
  164MOL0     H22092   8.866   5.177   6.539 -2.2450 -0.1445 -1.7777
  164MOL0     H22093   8.938   5.056   6.640 -0.5490  0.8583  1.5631
  164MOL0     H22094   8.945   4.886   6.481 -0.1023 -0.7772 -0.7673
  164MOL0     H22095   8.827   4.968   6.374 -2.4126  4.4552  0.2526
  164MOL0     H22096   9.112   5.056   6.449 -1.4154  1.5765  0.4267
  164MOL0     H22097   8.995   5.147   6.341 -3.1334 -0.0883  1.6378
  164MOL0     H22098   9.072   4.859   6.284  1.4827 -0.1818 -0.4136
  164MOL0     H22099   9.163   5.012   6.233 -0.6602  0.8162 -0.3793
  164MOL0     H22100   9.187   5.167   6.124 -2.2220  0.2467  1.6943
  164MOL0     H22101   9.199   5.329   5.944  0.3542  1.0277  1.9568
  164MOL0     H22102   9.111   5.704   5.731  0.8039  0.1247 -0.0099
  164MOL0     H22103   9.176   5.852   5.542  0.2315 -0.6910  0.0196
  164MOL0     H22104   9.446   5.733   5.222  0.8511  2.6334  1.8196
  164MOL0     H22105   9.294   5.677   5.150 -2.6803  1.3037 -0.4148
  164MOL0     H22106   9.416   5.850   5.022  1.4458 -2.5079  2.2541
  164MOL0     H22107   9.267   5.920   5.059  0.5959  3.3463 -0.4943
  164MOL0     H22108   9.421   6.042   5.241  1.0858  0.0366  0.4417
  164MOL0     H22109   9.556   5.961   5.163  0.4371 -0.8538  1.2342
  164MOL0     H22110   9.365   6.171   5.065  0.5449 -1.0921  1.7583
  164MOL0     H22111   9.443   6.073   4.943 -1.8915 -0.2676  0.1989
  164MOL0     H22112   9.662   6.144   4.979 -3.3363 -2.8126 -1.5499
  164MOL0     H22113   9.613   6.237   5.128  2.9894 -1.4080  0.6776
  164MOL0     H22114   9.442   6.356   4.983 -2.8741 -3.4739 -2.1695
  164MOL0     H22115   9.622   6.388   4.953 -0.3385 -0.3131  2.6252
  164MOL0     H22116   9.411   6.237   4.788  1.0161 -0.7808 -0.2485
  164MOL0     H22117   9.566   6.229   4.741 -1.7134 -0.1855 -1.0127
  164MOL0     H22118   9.557   6.502   4.724 -0.2984 -1.3116 -0.9622
  164MOL0     H22119   9.452   6.405   4.617  1.9275  0.7932 -1.5108
  164MOL0     H22120   9.371   5.544   5.347  1.0795  1.1261  1.8921
  164MOL0     H22121   9.288   5.379   5.504  0.4670  0.7666 -2.1755
  164MOL0     H22122   8.834   5.162   5.771 -0.8442  0.9762  1.1810
  164MOL0     H22123   8.834   5.010   5.951 -0.8359  0.9031 -1.2053
  164MOL0     H22124   8.057   4.173   7.485 -0.8014  0.4655 -2.0769
  164MOL0     H22125   8.127   4.022   7.663 -1.2279 -0.1086  0.1236
  164MOL0     H22126   8.082   3.691   7.977  1.6714  1.4937 -0.2411
  164MOL0     H22127   8.146   3.482   8.126  1.6489  1.8529  2.2797
  164MOL0     H22128   8.571   3.409   8.133  0.4238  0.6873 -1.1194
  164MOL0     H22129   8.522   3.267   8.041  0.2477 -2.1107 -0.1623
  164MOL0     H22130   8.491   3.300   8.347 -0.5263 -0.8370 -0.4633
  164MOL0     H22131   8.632   3.244   8.281 -0.8788 -0.1157 -0.9178
  164MOL0     H22132   8.489   3.049   8.174 -3.1618  0.3027 -2.3559
  164MOL0     H22133   8.351   3.129   8.248  0.5964  2.2658 -1.1651
  164MOL0     H22134   8.597   3.003   8.370  0.0893  0.7924 -2.7032
  164MOL0     H22135   8.487   3.104   8.477 -0.0580  0.4470 -0.9104
  164MOL0     H22136   8.332   2.707   8.416  1.3520 -0.8427 -0.5976
  164MOL0     H22137   8.516   3.460   7.924  0.6808  0.5846  0.1492
  164MOL0     H22138   8.473   3.746   7.698  0.3280 -0.0083  1.1209
  164MOL0     H22139   8.578   3.620   7.758 -0.3501 -1.4982  0.0293
  164MOL0     H22140   8.461   3.579   7.632  3.2669 -0.7515 -0.5206
  165MOL0     O22141   9.614  10.846   1.523 -0.3377 -1.2023  0.2936
  165MOL0     C22142   9.561  10.743   1.517  0.0534  0.7492 -1.1594
  165MOL0     O22143   9.585  10.636   1.604  0.3339 -0.2803 -0.4830
  165MOL0     C22144   9.678  10.645   1.702 -0.1516 -0.3401 -0.8709
  165MOL0     C22145   9.813  10.663   1.659  0.2095  0.4684 -0.0318
  165MOL0     C22146   9.917  10.664   1.747 -0.0040 -0.1941 -0.5524
  165MOL0     C22147   9.885  10.636   1.885 -0.7098 -0.1786  0.1564
  165MOL0     O22148   9.982  10.631   1.986  0.4689 -0.1580  0.3071
  165MOL0     C22149  10.105  10.576   1.946  0.1350 -0.4175 -0.9165
  165MOL0     C22150  10.174  10.508   2.068 -0.0878  0.2979 -0.0023
  165MOL0     C22151  10.088  10.381   2.110 -0.5287  0.7413  0.9238
  165MOL0     C22152  10.157  10.308   2.224  0.2229 -0.2335 -0.1803
  165MOL0     C22153  10.059  10.202   2.281  0.2437  0.6065 -0.6181
  165MOL0     C22154  10.136  10.140   2.399 -0.1641 -0.4890  0.2612
  165MOL0     C22155  10.034  10.069   2.487  0.2029  0.5919 -0.3348
  165MOL0     C22156   9.930  10.152   2.565  0.5854 -0.4166  0.0345
  165MOL0     N22157   9.985  10.245   2.656  0.2127  0.5814  0.0126
  165MOL0     C22158   9.921  10.362   2.695 -0.2248 -0.3451  0.3723
  165MOL0     C22159   9.982  10.401   2.806  0.0224 -0.9198 -0.7380
  165MOL0     C22160   9.941  10.525   2.886 -0.0862 -0.5263 -0.1582
  165MOL0     C22161   9.875  10.495   3.020 -0.9035  0.8903  0.1385
  165MOL0     C22162   9.738  10.451   3.024 -0.0498 -0.0319  0.4208
  165MOL0     C22163   9.739  10.296   3.011 -0.4379 -0.6732 -0.4063
  165MOL0     O22164   9.615  10.253   3.057 -0.1876  0.4865  0.0397
  165MOL0     C22165   9.577  10.115   3.035  0.2102 -0.8053 -0.4480
  165MOL0     C22166   9.467  10.061   3.112 -0.4379 -0.2241  0.1597
  165MOL0     C22167   9.422   9.933   3.096  0.4044  0.5935 -0.1607
  165MOL0     C22168   9.504   9.847   3.019  0.6801 -0.3125 -0.5660
  165MOL0     C22169   9.458   9.705   2.992 -0.7522 -0.7030  0.7205
  165MOL0     O22170   9.351   9.654   3.069  0.0191 -0.1149 -0.7914
  165MOL0     C22171   9.295   9.540   3.016  0.1239 -0.4933 -0.6199
  165MOL0     C22172   9.207   9.555   2.905  0.0185  0.3418 -0.9619
  165MOL0     C22173   9.143   9.439   2.864  0.6895 -0.1275 -0.1967
  165MOL0     C22174   9.164   9.318   2.932 -0.2614 -0.1112  0.7204
  165MOL0     O22175   9.108   9.204   2.881 -0.7511  0.2194  0.3156
  165MOL0     C22176   9.128   9.071   2.938  0.9599 -0.3397  0.3307
  165MOL0     C22177   9.014   8.974   2.901 -0.2121  0.1399 -0.3284
  165MOL0     C22178   9.033   8.836   2.954  0.0651 -0.0700  0.3243
  165MOL0     C22179   8.958   8.736   2.853  0.0440  0.2517 -0.0321
  165MOL0     C22180   8.988   8.578   2.892 -0.8286 -0.1752  0.6288
  165MOL0     C22181   8.920   8.483   2.789  0.6490 -0.0945 -0.7162
  165MOL0     C22182   8.762   8.496   2.770 -0.5552 -0.7639 -0.5556
  165MOL0     C22183   8.706   8.362   2.727  0.9611  0.1012 -0.0917
  165MOL0    Cl22184   8.734   8.240   2.855 -0.6701  0.1323  0.1468
  165MOL0     C22185   9.253   9.314   3.039  0.9365  0.3226 -0.1716
  165MOL0     C22186   9.326   9.425   3.078  0.3103 -0.1014  0.4427
  165MOL0     O22187   9.496   9.659   2.879 -1.0943 -0.7776 -0.7189
  165MOL0     C22188   9.605   9.900   2.942 -0.5487 -0.1893 -0.1527
  165MOL0     C22189   9.644  10.036   2.950 -0.0622  0.7935 -0.2992
  165MOL0     N22190  10.064  10.297   2.848  0.2283 -0.9453  0.3410
  165MOL0     N22191  10.061  10.207   2.761 -0.3554 -0.4909  0.1161
  165MOL0     C22192   9.751  10.642   1.935 -0.2354  0.7645 -0.0097
  165MOL0     C22193   9.645  10.643   1.840  0.3805  0.4627  0.9401
  165MOL0     C22194   9.453  10.735   1.411  0.1769  1.5285 -0.9172
  165MOL0     C22195   9.409  10.599   1.367  0.1130 -0.2166  0.1044
  165MOL0     C22196   9.296  10.576   1.299 -0.0444  1.1686 -0.2272
  165MOL0     C22197   9.236  10.681   1.235  0.6854 -0.0998 -0.5509
  165MOL0     O22198   9.121  10.674   1.156 -0.0585  0.1014 -0.1742
  165MOL0     C22199   9.116  10.566   1.068 -0.0578  0.3806  0.6735
  165MOL0     C22200   8.979  10.520   1.049  0.0038  0.0742  0.6764
  165MOL0     C22201   8.902  10.476   1.174 -0.4411  0.6305  0.8294
  165MOL0     C22202   8.814  10.345   1.142  0.6855 -0.4081 -0.8920
  165MOL0     C22203   8.744  10.295   1.257 -0.3744  0.1362  0.8593
  165MOL0     C22204   8.696  10.236   1.349  0.4065 -0.2351 -0.6176
  165MOL0     C22205   9.282  10.813   1.249 -0.7591 -0.6422  0.6342
  165MOL0     C22206   9.383  10.842   1.348 -0.4529  0.6758 -0.1679
  165MOL0     C22207   9.407  10.988   1.377 -0.7919  0.6317 -1.1262
  165MOL0     H22208   9.843  10.651   1.555 -2.3057 -0.7541 -0.6927
  165MOL0     H22209  10.018  10.671   1.708  0.3826  0.6938  0.5673
  165MOL0     H22210  10.086  10.502   1.867 -0.0333 -1.7695  0.3484
  165MOL0     H22211  10.173  10.642   1.892 -1.9739  0.9852 -1.9886
  165MOL0     H22212  10.184  10.578   2.152 -0.1410  2.2372 -1.5679
  165MOL0     H22213  10.274  10.476   2.035  0.3082  0.6315  0.8336
  165MOL0     H22214  10.079  10.304   2.034  0.4946  0.9016  0.6225
  165MOL0     H22215   9.983  10.402   2.131 -1.3861 -0.9277 -1.3094
  165MOL0     H22216  10.243  10.257   2.182 -0.7608 -0.7152 -1.6882
  165MOL0     H22217  10.190  10.376   2.303  0.6252 -1.0106  0.3365
  165MOL0     H22218   9.967  10.242   2.323  0.5997  0.3406  0.4288
  165MOL0     H22219  10.055  10.117   2.212  2.0245 -1.8471  2.0888
  165MOL0     H22220  10.205  10.062   2.365 -1.8169 -1.8659 -0.0308
  165MOL0     H22221  10.194  10.216   2.452 -1.7135  1.2843 -0.4813
  165MOL0     H22222  10.097  10.013   2.557  0.3725  3.6027  2.1330
  165MOL0     H22223   9.986   9.980   2.444  0.7000 -1.1060  2.3967
  165MOL0     H22224   9.862  10.201   2.495 -0.4912  0.1411  1.4260
  165MOL0     H22225   9.868  10.080   2.619 -2.8160  2.4765  0.3613
  165MOL0     H22226   9.843  10.413   2.641 -1.3981 -1.7779  0.6379
  165MOL0     H22227  10.022  10.590   2.919 -2.5507  1.4753  2.4397
  165MOL0     H22228   9.885  10.591   2.820 -1.1591 -2.2844 -1.0940
  165MOL0     H22229   9.945  10.422   3.062 -0.2124  1.5583  0.1706
  165MOL0     H22230   9.894  10.591   3.071  4.0648 -0.7754  2.0244
  165MOL0     H22231   9.663  10.490   2.954  1.1432 -1.7027 -1.9191
  165MOL0     H22232   9.717  10.457   3.131  1.4524  0.4039  0.7116
  165MOL0     H22233   9.822  10.243   3.060 -2.4045 -3.7650 -0.1040
  165MOL0     H22234   9.742  10.283   2.903 -3.3815 -0.7888 -0.5374
  165MOL0     H22235   9.421  10.123   3.189 -0.3351 -1.5100  1.2864
  165MOL0     H22236   9.329   9.893   3.135  0.7897 -1.4741 -1.2227
  165MOL0     H22237   9.187   9.655   2.867 -1.2859  0.8274  0.8525
  165MOL0     H22238   9.073   9.443   2.781 -0.9832 -0.5360  1.1341
  165MOL0     H22239   9.218   9.035   2.888  1.2317  2.3762 -1.3606
  165MOL0     H22240   9.144   9.066   3.046 -2.5014 -0.2550  0.9703
  165MOL0     H22241   8.925   9.010   2.953  0.6637 -2.2860  3.2164
  165MOL0     H22242   8.987   8.975   2.795  2.2595 -0.4691 -1.0464
  165MOL0     H22243   9.140   8.824   2.970 -0.5079 -1.7421  3.8303
  165MOL0     H22244   8.985   8.824   3.052  0.2656  2.0814  0.7333
  165MOL0     H22245   8.980   8.758   2.748 -0.8294 -0.1924 -0.3155
  165MOL0     H22246   8.851   8.757   2.861 -0.3717 -0.9472 -1.6728
  165MOL0     H22247   8.948   8.563   2.992 -2.1762 -2.0345 -0.1420
  165MOL0     H22248   9.095   8.559   2.902 -0.9006 -0.6267  0.5681
  165MOL0     H22249   8.959   8.489   2.687  1.9591  0.2488 -0.2054
  165MOL0     H22250   8.952   8.382   2.813 -1.1305 -0.1803  1.6349
  165MOL0     H22251   8.739   8.565   2.688 -0.9434  1.9123  1.6509
  165MOL0     H22252   8.704   8.539   2.853 -1.7034 -2.2684 -0.5434
  165MOL0     H22253   8.600   8.382   2.737  1.3030  0.7721  3.0617
  165MOL0     H22254   8.728   8.329   2.625  1.6723  2.6242 -0.8252
  165MOL0     H22255   9.277   9.224   3.094  1.3088  0.3701 -0.2585
  165MOL0     H22256   9.387   9.428   3.168  0.0173  0.3704  0.6296
  165MOL0     H22257   9.652   9.829   2.874 -1.0206  0.9513 -1.7273
  165MOL0     H22258   9.728  10.060   2.886  1.8455 -1.8202  1.0555
  165MOL0     H22259   9.727  10.640   2.041  3.4921 -0.5270  0.9820
  165MOL0     H22260   9.539  10.647   1.862 -0.0660 -1.6043 -0.5494
  165MOL0     H22261   9.464  10.513   1.403  2.3418  0.3391 -1.7931
  165MOL0     H22262   9.256  10.475   1.294  2.4155  0.1549 -0.8698
  165MOL0     H22263   9.181  10.481   1.089  0.5559  0.4932 -0.6615
  165MOL0     H22264   9.143  10.589   0.965  0.3719 -0.3705  0.6141
  165MOL0     H22265   8.984  10.435   0.980  0.5744 -1.1314  2.1576
  165MOL0     H22266   8.935  10.604   0.995  2.5131 -0.6215 -2.7982
  165MOL0     H22267   8.832  10.558   1.195 -1.5969  0.1430 -0.8554
  165MOL0     H22268   8.967  10.456   1.259  1.1922 -0.6646 -0.6614
  165MOL0     H22269   8.744  10.370   1.062 -1.2518 -0.8143  0.5956
  165MOL0     H22270   8.897  10.278   1.117  1.0368  0.2328 -1.4503
  165MOL0     H22271   8.649  10.189   1.433  1.1247 -0.2763 -0.2292
  165MOL0     H22272   9.226  10.887   1.192 -0.9818 -3.0219 -2.4875
  165MOL0     H22273   9.325  11.050   1.341 -2.9746 -1.2007  0.3504
  165MOL0     H22274   9.407  11.005   1.486 -3.2087  1.9968 -1.2687
  165MOL0     H22275   9.503  11.028   1.344  0.1289  0.8064  1.5297
  166MOL0     O22276   6.893   7.652   5.204 -0.0805 -0.2407  0.3840
  166MOL0     C22277   6.794   7.697   5.156  0.3075  0.1122 -0.1877
  166MOL0     O22278   6.695   7.774   5.221  0.5519 -0.5517  0.3858
  166MOL0     C22279   6.709   7.826   5.346 -0.2931 -0.1681 -0.3639
  166MOL0     C22280   6.626   7.937   5.374 -0.4416  0.0399  0.0454
  166MOL0     C22281   6.625   7.995   5.501  0.3977  0.4073  0.4584
  166MOL0     C22282   6.695   7.929   5.605  0.2323  0.3947 -0.1941
  166MOL0     O22283   6.704   7.970   5.738  0.5397  0.1906  0.0777
  166MOL0     C22284   6.568   7.960   5.797  0.8018 -0.3943 -0.6828
  166MOL0     C22285   6.564   7.967   5.954  0.9279  0.1939 -0.3134
  166MOL0     C22286   6.673   7.896   6.018  0.3172  0.0080 -0.5380
  166MOL0     C22287   6.655   7.743   5.999 -0.4724  0.0585  0.3173
  166MOL0     C22288   6.757   7.668   6.093 -0.2316 -0.3653  0.4762
  166MOL0     C22289   6.904   7.722   6.093  0.6027 -0.8665  0.8672
  166MOL0     C22290   6.974   7.700   5.964  0.0426  0.0140  0.0200
  166MOL0     C22291   7.117   7.758   5.954  0.2495 -1.0201 -0.3264
  166MOL0     N22292   7.172   7.709   5.829 -0.2362  0.0146 -0.0194
  166MOL0     C22293   7.142   7.751   5.704 -0.7985 -0.3626  1.0995
  166MOL0     C22294   7.221   7.667   5.632  0.0053 -0.0816 -0.4995
  166MOL0     C22295   7.248   7.655   5.484  1.5489 -0.3835  0.5603
  166MOL0     C22296   7.322   7.770   5.429 -0.6751  0.7122  0.0051
  166MOL0     C22297   7.347   7.748   5.278 -0.0823 -0.2965 -0.2824
  166MOL0     C22298   7.422   7.856   5.201 -0.3110 -0.1929  0.0305
  166MOL0     O22299   7.433   7.837   5.064 -0.0289 -0.2341  0.9492
  166MOL0     C22300   7.476   7.934   4.974  0.8585 -0.7435 -0.6578
  166MOL0     C22301   7.529   8.057   5.016 -0.5474 -0.7000 -0.6763
  166MOL0     C22302   7.588   8.146   4.924  0.7197 -0.0356 -0.0590
  166MOL0     C22303   7.600   8.111   4.785 -0.0675 -0.1273 -0.6641
  166MOL0     C22304   7.675   8.198   4.690  0.3569 -0.9606 -0.3201
  166MOL0     O22305   7.715   8.159   4.570 -0.0306  0.7500 -0.4116
  166MOL0     C22306   7.771   8.245   4.475 -0.2674  0.8231  0.0667
  166MOL0     C22307   7.718   8.240   4.352  0.0863  0.3489 -0.0499
  166MOL0     C22308   7.760   8.338   4.258  0.7692  0.6553 -0.0262
  166MOL0     C22309   7.856   8.438   4.292  0.0714  0.8124 -0.4518
  166MOL0     O22310   7.896   8.523   4.196 -0.8471 -0.1266 -0.5247
  166MOL0     C22311   7.910   8.658   4.221  0.0780  0.5554  0.1122
  166MOL0     C22312   7.936   8.728   4.093  0.6947  0.2949  0.3418
  166MOL0     C22313   8.064   8.687   4.031 -0.3035 -0.2164 -0.5577
  166MOL0     C22314   8.115   8.788   3.927 -0.3371  0.8987 -0.3702
  166MOL0     C22315   8.135   8.932   3.965  0.4439  0.1056  0.2813
  166MOL0     C22316   8.232   8.949   4.087  0.1081 -0.4002 -0.0734
  166MOL0     C22317   8.223   9.094   4.144  0.7114  1.1608  0.2267
  166MOL0     C22318   8.275   9.202   4.057 -0.7913  0.4774 -0.2071
  166MOL0    Cl22319   8.429   9.146   3.970  0.3201  0.0589 -0.1918
  166MOL0     C22320   7.914   8.436   4.425 -0.0892  0.3513 -0.0983
  166MOL0     C22321   7.868   8.335   4.512 -0.0568  0.5894 -0.8328
  166MOL0     O22322   7.689   8.318   4.729  0.2057  0.0220  1.4355
  166MOL0     C22323   7.540   7.996   4.744 -0.2565  0.0305  0.2643
  166MOL0     C22324   7.482   7.908   4.841  0.4747  0.3192  0.1856
  166MOL0     N22325   7.285   7.574   5.709  0.4201 -0.0635 -0.4337
  166MOL0     N22326   7.252   7.601   5.830 -0.7090 -0.2337 -0.5916
  166MOL0     C22327   6.776   7.820   5.579 -0.3637 -0.2106 -0.9897
  166MOL0     C22328   6.788   7.771   5.447  0.8387  0.9529  0.1725
  166MOL0     C22329   6.783   7.673   5.010 -0.2435  0.8252 -0.0373
  166MOL0     C22330   6.904   7.637   4.951 -0.0790  1.0181 -0.4337
  166MOL0     C22331   6.915   7.590   4.823 -0.8016  1.0113  0.8416
  166MOL0     C22332   6.801   7.574   4.746  0.3834  0.2522  0.4816
  166MOL0     O22333   6.802   7.542   4.619 -0.4220  0.5332  0.2032
  166MOL0     C22334   6.872   7.413   4.587  0.1907 -0.2928 -0.8279
  166MOL0     C22335   7.004   7.457   4.516  0.0661 -0.1269 -0.3725
  166MOL0     C22336   7.100   7.336   4.493  0.1051  0.0442  0.1398
  166MOL0     C22337   7.187   7.312   4.623  0.5294  0.9418 -0.9679
  166MOL0     C22338   7.311   7.237   4.590 -0.4956 -0.5250  0.0145
  166MOL0     C22339   7.416   7.179   4.578 -0.1830  0.5660  0.3875
  166MOL0     C22340   6.676   7.623   4.797  0.0889 -0.7665 -0.1866
  166MOL0     C22341   6.667   7.683   4.927  0.1362  1.3814 -0.2731
  166MOL0     C22342   6.526   7.710   4.972 -0.1532  0.4786  0.3356
  166MOL0     H22343   6.578   7.981   5.287  0.5942 -0.2873 -0.7114
  166MOL0     H22344   6.576   8.091   5.513 -1.7822 -0.7007  0.9741
  166MOL0     H22345   6.504   8.042   5.762  0.5835 -0.6390 -0.8587
  166MOL0     H22346   6.526   7.862   5.772  0.3841 -0.2227 -0.6637
  166MOL0     H22347   6.464   7.939   5.988  1.6909 -0.3279  1.6325
  166MOL0     H22348   6.577   8.068   5.993  1.3542  0.7440 -1.8268
  166MOL0     H22349   6.664   7.906   6.127  1.3531 -0.4825 -0.3944
  166MOL0     H22350   6.768   7.936   5.982  0.6100  0.7113  0.9278
  166MOL0     H22351   6.554   7.708   6.023 -0.5777  1.2602  1.7551
  166MOL0     H22352   6.676   7.716   5.895  0.5138 -0.5636  0.6620
  166MOL0     H22353   6.727   7.684   6.197  0.3118 -0.9343  0.7227
  166MOL0     H22354   6.755   7.559   6.079 -1.1568 -0.2586 -0.3660
  166MOL0     H22355   6.915   7.827   6.120 -1.2822 -0.0869 -1.0878
  166MOL0     H22356   6.973   7.672   6.161 -0.4050 -0.9400  1.8627
  166MOL0     H22357   6.912   7.735   5.881 -0.3706 -0.2545  0.2050
  166MOL0     H22358   6.990   7.593   5.944 -0.6023 -0.5688  2.2345
  166MOL0     H22359   7.117   7.867   5.946 -2.9944 -0.9374 -0.9230
  166MOL0     H22360   7.185   7.728   6.034  0.3891  1.8783  0.7349
  166MOL0     H22361   7.067   7.816   5.660 -1.2003 -2.2743 -1.2663
  166MOL0     H22362   7.307   7.567   5.458  0.8780  0.4476 -5.0771
  166MOL0     H22363   7.146   7.642   5.446  1.4158  1.6389  0.0647
  166MOL0     H22364   7.272   7.866   5.446 -1.6070  0.2657 -0.1758
  166MOL0     H22365   7.414   7.772   5.488 -0.9487  0.5288  0.4384
  166MOL0     H22366   7.248   7.759   5.232  0.3682  1.7520 -0.8459
  166MOL0     H22367   7.390   7.649   5.261 -0.5797 -0.8550  1.4324
  166MOL0     H22368   7.525   7.862   5.240 -0.1437 -0.0559 -0.4246
  166MOL0     H22369   7.365   7.947   5.219 -1.0179 -0.6180 -0.0312
  166MOL0     H22370   7.526   8.091   5.119 -0.0252 -0.2638 -0.8007
  166MOL0     H22371   7.630   8.243   4.949 -1.3857  0.3351  2.4586
  166MOL0     H22372   7.650   8.160   4.324  1.7146 -0.7699 -0.9291
  166MOL0     H22373   7.723   8.344   4.156 -0.4655  1.3982  0.4414
  166MOL0     H22374   7.827   8.697   4.282  0.7380  0.4662  1.0892
  166MOL0     H22375   8.000   8.663   4.283  0.1484 -3.2976  0.5414
  166MOL0     H22376   7.856   8.708   4.020  0.7612  3.4440 -0.7659
  166MOL0     H22377   7.930   8.836   4.110 -2.0646  0.4585 -1.0819
  166MOL0     H22378   8.144   8.674   4.104 -0.1508  0.8810 -0.5175
  166MOL0     H22379   8.041   8.588   3.991  0.3619  0.1977 -2.0186
  166MOL0     H22380   8.041   8.790   3.847 -1.5586 -3.0068  0.4710
  166MOL0     H22381   8.216   8.756   3.898  0.2469  2.3516 -0.0242
  166MOL0     H22382   8.033   8.967   3.987 -0.2570 -0.4051 -1.8790
  166MOL0     H22383   8.174   8.990   3.881  0.2605  1.6840  1.2453
  166MOL0     H22384   8.209   8.881   4.170 -1.3768  0.0673 -0.0660
  166MOL0     H22385   8.332   8.921   4.053 -1.2703 -3.4513 -2.0544
  166MOL0     H22386   8.275   9.086   4.240  1.8777  2.8850 -0.2051
  166MOL0     H22387   8.118   9.123   4.157  0.3025 -0.5270  0.9521
  166MOL0     H22388   8.209   9.234   3.977 -1.6175 -1.3670 -0.3118
  166MOL0     H22389   8.286   9.288   4.124 -1.2431  0.8308 -0.5843
  166MOL0     H22390   7.990   8.501   4.468 -0.5122  0.0806  1.1024
  166MOL0     H22391   7.904   8.340   4.614  0.2966  1.8827 -1.0053
  166MOL0     H22392   7.536   7.971   4.638 -1.4251  0.8523  0.0966
  166MOL0     H22393   7.463   7.804   4.817  3.3838 -0.7551  2.0508
  166MOL0     H22394   6.835   7.773   5.656 -0.4185 -2.8387 -2.4349
  166MOL0     H22395   6.859   7.691   5.425  1.1848  0.8166  1.7025
  166MOL0     H22396   6.998   7.660   5.002 -0.9717  3.0052  0.4184
  166MOL0     H22397   7.008   7.567   4.772 -0.9035  0.8255  0.7369
  166MOL0     H22398   6.825   7.355   4.507  1.5829 -0.6993 -1.3979
  166MOL0     H22399   6.889   7.351   4.674 -1.4634  0.3921  0.0279
  166MOL0     H22400   7.054   7.534   4.575 -0.9891 -0.5835  1.1715
  166MOL0     H22401   6.977   7.506   4.422 -0.1305  2.3955  0.9295
  166MOL0     H22402   7.180   7.364   4.424 -0.1593 -0.9257 -0.5880
  166MOL0     H22403   7.044   7.248   4.460  1.0403 -0.1070 -1.1302
  166MOL0     H22404   7.212   7.400   4.683 -0.8317 -1.0306  2.8695
  166MOL0     H22405   7.131   7.247   4.691 -0.0852  3.4472  1.0897
  166MOL0     H22406   7.514   7.136   4.578 -0.0820  0.6248 -2.5135
  166MOL0     H22407   6.609   7.637   4.713  1.1550  0.3471 -0.8870
  166MOL0     H22408   6.500   7.816   4.975  3.2461  1.3997  0.8882
  166MOL0     H22409   6.469   7.655   4.896 -0.3219 -2.8204  2.6492
  166MOL0     H22410   6.493   7.661   5.064  0.7345  0.2667  0.5442
  167MOL0     O22411   2.532   6.020   9.927  0.0132  0.2624 -0.9366
  167MOL0     C22412   2.523   5.908   9.879 -0.5367 -0.1056 -0.1236
  167MOL0     O22413   2.594   5.799   9.920 -0.2637 -0.2547 -0.5301
  167MOL0     C22414   2.714   5.814   9.992 -0.3095 -0.0814 -0.2630
  167MOL0     C22415   2.794   5.932  10.004 -0.6939  0.2432 -0.5213
  167MOL0     C22416   2.891   5.943  10.106  0.2651  0.7798  0.7037
  167MOL0     C22417   2.915   5.835  10.189 -0.3364  0.8698  0.6087
  167MOL0     O22418   3.025   5.848  10.269 -0.1032  0.0930  0.2121
  167MOL0     C22419   3.007   5.800  10.403  0.2834 -0.3576 -0.2802
  167MOL0     C22420   3.148   5.747  10.447 -0.2512 -0.4542  0.8446
  167MOL0     C22421   3.233   5.874  10.492 -0.0909 -0.1804  0.8110
  167MOL0     C22422   3.387   5.861  10.466  0.0300 -0.0797  0.4384
  167MOL0     C22423   3.491   5.951  10.530  0.1901 -0.0157 -0.1464
  167MOL0     C22424   3.484   6.095  10.478  1.6930  0.0133  0.2774
  167MOL0     C22425   3.599   6.181  10.526 -0.0296  0.5056 -0.0863
  167MOL0     C22426   3.604   6.310  10.448  0.3354 -0.1037 -0.3435
  167MOL0     N22427   3.699   6.414  10.495  0.5028  0.7118 -0.4095
  167MOL0     C22428   3.819   6.449  10.432 -0.3366  0.9454 -0.3485
  167MOL0     C22429   3.858   6.562  10.494  0.0091 -0.5646  0.6106
  167MOL0     C22430   3.991   6.626  10.485  0.4107 -0.9259 -0.0953
  167MOL0     C22431   4.105   6.544  10.419 -0.5430  0.5090 -0.1177
  167MOL0     C22432   4.244   6.583  10.446 -0.3907  1.0119 -0.6214
  167MOL0     C22433   4.351   6.546  10.349  0.7425  0.8578 -0.1895
  167MOL0     O22434   4.332   6.610  10.225 -0.5336  0.4290  0.7043
  167MOL0     C22435   4.429   6.589  10.122  0.5133  0.1426  0.0686
  167MOL0     C22436   4.398   6.644   9.992  0.1369  0.9376  0.5192
  167MOL0     C22437   4.482   6.605   9.890 -0.7128  0.6196  1.0717
  167MOL0     C22438   4.610   6.544   9.902 -0.5282  0.9082  0.1101
  167MOL0     C22439   4.700   6.537   9.785  0.2174 -0.8489  0.9950
  167MOL0     O22440   4.666   6.614   9.678  0.0834  0.9688 -0.7939
  167MOL0     C22441   4.732   6.613   9.563 -1.0640  0.0411  0.3710
  167MOL0     C22442   4.680   6.541   9.453 -0.0835 -0.0226  1.1883
  167MOL0     C22443   4.748   6.534   9.335 -0.0768  0.1011 -0.3561
  167MOL0     C22444   4.875   6.595   9.315 -1.2754 -0.4890  0.6770
  167MOL0     O22445   4.937   6.597   9.187 -0.1393  0.3211 -0.1424
  167MOL0     C22446   4.873   6.550   9.075 -0.1150 -0.1162 -0.0857
  167MOL0     C22447   4.953   6.577   8.946 -0.1153 -0.5215 -0.5330
  167MOL0     C22448   4.930   6.727   8.922 -0.6228  0.0913 -0.2561
  167MOL0     C22449   5.048   6.779   8.836 -0.6778  0.5669 -0.7566
  167MOL0     C22450   5.008   6.915   8.773  0.1334 -0.5195  0.6292
  167MOL0     C22451   5.119   6.969   8.683  0.9478  0.0494  0.4869
  167MOL0     C22452   5.259   6.975   8.724 -0.2731 -1.6997 -0.0629
  167MOL0     C22453   5.283   7.049   8.863  0.0735 -0.1692  0.9185
  167MOL0    Cl22454   5.207   7.213   8.886 -0.0271 -0.3027 -0.3820
  167MOL0     C22455   4.930   6.664   9.423  0.4528  0.5310  0.5768
  167MOL0     C22456   4.860   6.670   9.542 -0.2709 -0.2485 -0.2800
  167MOL0     O22457   4.800   6.469   9.792  0.2362  1.0166 -0.5178
  167MOL0     C22458   4.639   6.496  10.024  0.5240  0.2815  1.2044
  167MOL0     C22459   4.546   6.508  10.130 -0.7533 -0.0622  0.4341
  167MOL0     N22460   3.774   6.590  10.591  0.7403 -0.7024 -0.4735
  167MOL0     N22461   3.680   6.501  10.592 -0.1031  0.2647 -0.4984
  167MOL0     C22462   2.842   5.720  10.182 -1.0536 -0.5052  0.6201
  167MOL0     C22463   2.744   5.708  10.077 -0.4451  0.5175 -0.2535
  167MOL0     C22464   2.423   5.885   9.771 -0.7110  0.0746  0.0295
  167MOL0     C22465   2.370   5.752   9.775  0.0717 -0.3888  0.4732
  167MOL0     C22466   2.298   5.706   9.667 -0.7347 -0.5961 -0.0598
  167MOL0     C22467   2.261   5.799   9.560  0.6706 -0.4267  0.5081
  167MOL0     O22468   2.183   5.758   9.454 -0.0092 -0.4793  0.3651
  167MOL0     C22469   2.189   5.614   9.435  0.2621  0.5372 -0.2119
  167MOL0     C22470   2.119   5.600   9.296 -0.3662  0.7861 -0.4410
  167MOL0     C22471   2.124   5.448   9.245 -0.1078 -0.0355 -0.2008
  167MOL0     C22472   2.012   5.354   9.301 -0.7350 -0.8649 -0.5543
  167MOL0     C22473   2.062   5.311   9.438 -0.3204  0.1484  0.1309
  167MOL0     C22474   2.103   5.253   9.538  0.4727 -0.9753  0.3267
  167MOL0     C22475   2.319   5.928   9.558  0.7130  0.2150 -0.8208
  167MOL0     C22476   2.400   5.969   9.661 -0.8101 -1.5218 -0.3825
  167MOL0     C22477   2.488   6.092   9.634 -0.7742 -0.6423 -0.0263
  167MOL0     H22478   2.787   6.023   9.945  0.5301 -0.0915 -1.1989
  167MOL0     H22479   2.962   6.018  10.138 -0.3826  0.3519  3.4154
  167MOL0     H22480   2.983   5.885  10.467 -1.7099 -0.6934 -0.5095
  167MOL0     H22481   2.933   5.721  10.417  1.3450 -1.0961  1.4181
  167MOL0     H22482   3.200   5.692  10.368  0.0348  0.2449  0.5405
  167MOL0     H22483   3.155   5.689  10.539  2.0814 -1.1213  0.2996
  167MOL0     H22484   3.238   5.889  10.600  3.1229 -0.0904  0.7536
  167MOL0     H22485   3.190   5.962  10.442  1.4442 -0.0913 -0.4534
  167MOL0     H22486   3.408   5.756  10.486  1.5912 -0.8836 -4.2056
  167MOL0     H22487   3.393   5.868  10.357 -1.5422  0.7031  0.3745
  167MOL0     H22488   3.477   5.944  10.639 -0.0634 -2.6045 -0.2878
  167MOL0     H22489   3.588   5.903  10.516 -0.2108 -1.5501  1.8007
  167MOL0     H22490   3.485   6.097  10.369  2.7524  2.4024  0.2705
  167MOL0     H22491   3.389   6.128  10.520  2.7540 -0.6186  3.5093
  167MOL0     H22492   3.698   6.134  10.527  0.0359  0.5520  2.3499
  167MOL0     H22493   3.572   6.215  10.626 -0.1439 -1.5767  0.6432
  167MOL0     H22494   3.621   6.299  10.340 -1.4328  1.2085 -0.8174
  167MOL0     H22495   3.505   6.356  10.453  1.0952  1.5799 -0.0563
  167MOL0     H22496   3.863   6.404  10.344  1.6353  0.9787  0.5659
  167MOL0     H22497   3.982   6.718  10.426 -0.1025 -1.1290 -0.3430
  167MOL0     H22498   4.012   6.668  10.583 -0.8769  0.0142 -0.1926
  167MOL0     H22499   4.107   6.438  10.445 -0.3135  0.3764 -0.6633
  167MOL0     H22500   4.078   6.548  10.313 -1.5933  0.6205  0.1410
  167MOL0     H22501   4.275   6.535  10.539 -0.4529  1.1522 -0.5267
  167MOL0     H22502   4.257   6.690  10.464  0.8318  1.3542 -3.1804
  167MOL0     H22503   4.362   6.438  10.334  1.8606  0.7275  1.3289
  167MOL0     H22504   4.444   6.575  10.398  0.2285  1.6946  0.3238
  167MOL0     H22505   4.304   6.697   9.976 -1.3056 -0.6631  3.0049
  167MOL0     H22506   4.438   6.618   9.791  0.6732  0.3539  0.4003
  167MOL0     H22507   4.592   6.479   9.467  2.0350 -3.3853  0.6869
  167MOL0     H22508   4.706   6.485   9.247 -0.0495 -0.5088 -0.0378
  167MOL0     H22509   4.865   6.441   9.073 -0.3583 -0.1844  2.0573
  167MOL0     H22510   4.771   6.590   9.075 -0.0194  0.1493  0.5721
  167MOL0     H22511   5.060   6.557   8.955  0.2589  1.7083  0.6819
  167MOL0     H22512   4.919   6.521   8.858 -0.6044 -0.2674 -0.5137
  167MOL0     H22513   4.837   6.747   8.869 -1.2035  2.2284  1.4037
  167MOL0     H22514   4.906   6.784   9.012 -4.7271 -0.6590 -0.7011
  167MOL0     H22515   5.078   6.705   8.761  3.1743 -0.3248  1.3695
  167MOL0     H22516   5.131   6.792   8.906  0.3737 -0.4640 -1.7697
  167MOL0     H22517   4.990   6.995   8.845 -0.1166  1.0967 -1.1476
  167MOL0     H22518   4.918   6.912   8.711  0.2028 -0.5116  0.5289
  167MOL0     H22519   5.118   6.921   8.585 -1.7615 -2.0240  1.3926
  167MOL0     H22520   5.096   7.073   8.659  2.2674  0.3448  0.4335
  167MOL0     H22521   5.316   7.030   8.649  1.5433 -1.0652  1.7170
  167MOL0     H22522   5.312   6.879   8.725  2.4218 -0.2963 -0.4115
  167MOL0     H22523   5.254   6.990   8.951 -1.3516 -1.3859 -0.3211
  167MOL0     H22524   5.392   7.057   8.860 -0.0980  2.9721  0.1053
  167MOL0     H22525   5.026   6.716   9.419  0.7548 -0.0643  0.0689
  167MOL0     H22526   4.902   6.721   9.628 -0.0560 -1.9976  0.6870
  167MOL0     H22527   4.730   6.438  10.034 -0.4963 -1.5315  0.3999
  167MOL0     H22528   4.557   6.463  10.229  0.9741  2.0341  1.2896
  167MOL0     H22529   2.871   5.638  10.247  3.9466 -0.5529 -1.3114
  167MOL0     H22530   2.686   5.616  10.071  0.3575 -0.3130  2.7270
  167MOL0     H22531   2.402   5.703   9.867 -0.0887  2.0210  1.9195
  167MOL0     H22532   2.274   5.601   9.679 -2.3295 -0.3320 -0.6274
  167MOL0     H22533   2.125   5.578   9.515  0.7553  1.6759  0.7310
  167MOL0     H22534   2.287   5.566   9.438  0.3550  0.4339 -2.7828
  167MOL0     H22535   2.174   5.660   9.222  3.9080 -1.9313  0.1742
  167MOL0     H22536   2.013   5.624   9.309 -0.1928  0.6582  1.4213
  167MOL0     H22537   2.222   5.406   9.266 -0.7353  0.1941  4.1157
  167MOL0     H22538   2.127   5.443   9.136  0.6455 -1.2132 -0.1364
  167MOL0     H22539   1.915   5.404   9.301 -0.4966 -0.3379 -2.2394
  167MOL0     H22540   2.003   5.276   9.225  0.9848 -0.7177 -0.9509
  167MOL0     H22541   2.143   5.206   9.626  3.2835  3.2819  1.6622
  167MOL0     H22542   2.297   5.995   9.475  0.9396 -1.1988 -2.0744
  167MOL0     H22543   2.593   6.064   9.645 -0.8992 -3.1373 -3.5604
  167MOL0     H22544   2.475   6.130   9.533  0.5004 -0.7963 -0.2637
  167MOL0     H22545   2.450   6.171   9.700 -0.9986 -1.3555  0.7148
  168MOL0     O22546   0.802   7.399   2.267 -0.0796 -0.2851  0.9259
  168MOL0     C22547   0.899   7.448   2.204  0.8542  0.2062 -0.0692
  168MOL0     O22548   1.000   7.521   2.261 -0.0418 -0.4368  0.1471
  168MOL0     C22549   1.002   7.523   2.400 -0.8171 -0.2404  0.7590
  168MOL0     C22550   0.923   7.614   2.464  0.2678  0.2488  0.1844
  168MOL0     C22551   0.939   7.646   2.600  0.0250  0.8268 -0.2347
  168MOL0     C22552   1.044   7.596   2.671  0.8742  0.3185  0.4589
  168MOL0     O22553   1.063   7.668   2.784 -0.2924 -0.3050 -0.2565
  168MOL0     C22554   1.201   7.675   2.838 -0.2380 -0.3690  0.0089
  168MOL0     C22555   1.213   7.777   2.942 -0.0385 -0.4791 -0.3888
  168MOL0     C22556   1.355   7.793   3.000  0.4480 -0.5426  1.1032
  168MOL0     C22557   1.424   7.905   2.920  0.1375 -0.3297 -0.6706
  168MOL0     C22558   1.504   7.991   3.027  0.5255  0.9365  0.4656
  168MOL0     C22559   1.617   8.082   2.969 -0.2075 -0.0706  0.0160
  168MOL0     C22560   1.756   8.013   2.965  0.4455  0.1613 -0.8688
  168MOL0     C22561   1.771   7.879   2.880 -0.0526 -0.6106  0.7007
  168MOL0     N22562   1.909   7.836   2.862 -0.3833 -0.7791  0.2096
  168MOL0     C22563   2.008   7.890   2.786 -0.2337 -0.7801 -0.2802
  168MOL0     C22564   2.113   7.819   2.815  0.0952 -0.1082  1.6959
  168MOL0     C22565   2.241   7.850   2.738  0.2025 -0.6553 -0.7384
  168MOL0     C22566   2.357   7.910   2.823  0.1094  0.6132  0.8349
  168MOL0     C22567   2.384   7.824   2.946 -0.9347  0.1957 -0.0375
  168MOL0     C22568   2.502   7.877   3.033  0.3916  0.2356 -0.1444
  168MOL0     O22569   2.525   7.797   3.153 -0.5072  0.0192  0.4928
  168MOL0     C22570   2.652   7.796   3.203 -0.2551  0.9255  0.1979
  168MOL0     C22571   2.737   7.904   3.189 -0.2090  0.3095 -0.6597
  168MOL0     C22572   2.862   7.903   3.249  0.2107 -0.2360 -0.3278
  168MOL0     C22573   2.903   7.801   3.336 -0.1257  0.2488 -0.1809
  168MOL0     C22574   3.025   7.801   3.413 -0.5416  0.4856  0.6561
  168MOL0     O22575   3.071   7.686   3.467  0.9342 -0.5479 -0.2827
  168MOL0     C22576   3.189   7.683   3.539  0.7388 -0.4210 -0.1520
  168MOL0     C22577   3.189   7.725   3.677  0.5394  0.7780  0.0197
  168MOL0     C22578   3.291   7.717   3.763 -0.7366 -0.7305  0.1588
  168MOL0     C22579   3.400   7.637   3.730 -0.0654  0.7929 -0.1960
  168MOL0     O22580   3.514   7.629   3.811 -0.1121 -0.4610 -0.9933
  168MOL0     C22581   3.596   7.513   3.805 -0.4266  0.3991  0.4311
  168MOL0     C22582   3.658   7.490   3.949  0.2226 -0.5981 -0.3190
  168MOL0     C22583   3.801   7.422   3.933 -0.1683  0.1104 -0.7410
  168MOL0     C22584   3.845   7.363   4.065  0.3347 -0.2232  0.1090
  168MOL0     C22585   3.992   7.320   4.056  1.1254  0.3206  0.0797
  168MOL0     C22586   4.017   7.206   4.154 -0.1963  0.3478  0.7272
  168MOL0     C22587   4.163   7.172   4.131  0.8400 -0.6820 -0.5090
  168MOL0     C22588   4.207   7.102   4.260  0.5165 -0.3442 -0.1007
  168MOL0    Cl22589   4.126   6.948   4.275 -0.0329  0.2031  0.1736
  168MOL0     C22590   3.411   7.593   3.603 -0.2473  0.1472  0.0109
  168MOL0     C22591   3.306   7.619   3.506 -0.7760 -1.0910 -0.7785
  168MOL0     O22592   3.077   7.916   3.417  0.1460  0.5929 -0.1899
  168MOL0     C22593   2.809   7.697   3.358 -0.1372  0.2566  0.4344
  168MOL0     C22594   2.689   7.699   3.298  0.6619  0.4198 -0.2002
  168MOL0     N22595   2.088   7.722   2.904 -0.0845  0.0451 -0.3058
  168MOL0     N22596   1.969   7.740   2.931 -0.4604  1.2517  0.3084
  168MOL0     C22597   1.123   7.499   2.607  0.0894 -0.5992 -1.0174
  168MOL0     C22598   1.101   7.460   2.476  0.0875 -0.4088 -0.0838
  168MOL0     C22599   0.889   7.443   2.055  0.2609 -0.1994 -0.8253
  168MOL0     C22600   0.981   7.527   1.982  0.1930  0.4162  0.2331
  168MOL0     C22601   0.995   7.523   1.843  0.6971 -0.4802 -0.1517
  168MOL0     C22602   0.911   7.438   1.774 -2.0606 -0.9451  0.2309
  168MOL0     O22603   0.925   7.425   1.637 -0.1878 -0.0080 -0.2154
  168MOL0     C22604   1.031   7.490   1.561 -0.3957 -0.7439  0.3231
  168MOL0     C22605   1.160   7.405   1.545  0.0807  0.8973  1.0264
  168MOL0     C22606   1.134   7.271   1.476  0.5102  0.4027  0.4083
  168MOL0     C22607   1.260   7.185   1.470  0.1220  0.4910 -0.3899
  168MOL0     C22608   1.220   7.055   1.422  0.7866 -0.6549 -0.3183
  168MOL0     C22609   1.203   6.939   1.391  0.6602  0.1158  0.1850
  168MOL0     C22610   0.817   7.363   1.841  0.4429 -0.4401 -0.7264
  168MOL0     C22611   0.807   7.359   1.980  0.8682  0.0595  0.3451
  168MOL0     C22612   0.698   7.265   2.030  0.0590  0.1079 -0.0075
  168MOL0     H22613   0.836   7.644   2.407  0.6621 -0.8078 -1.0243
  168MOL0     H22614   0.873   7.711   2.657  2.7844  2.2319  1.5617
  168MOL0     H22615   1.218   7.579   2.888 -1.5437  0.2750  1.8044
  168MOL0     H22616   1.260   7.693   2.748  2.8260  0.0478  1.9429
  168MOL0     H22617   1.149   7.746   3.025 -1.0114 -0.2457 -1.0233
  168MOL0     H22618   1.172   7.874   2.910  0.0674 -0.5075 -0.6130
  168MOL0     H22619   1.411   7.700   2.997  2.2675  0.4747  1.7976
  168MOL0     H22620   1.357   7.822   3.105 -1.3305  0.2703  0.9537
  168MOL0     H22621   1.486   7.858   2.843  1.3476  1.6985 -1.0087
  168MOL0     H22622   1.357   7.969   2.862  2.6217  0.5935 -2.7359
  168MOL0     H22623   1.424   8.052   3.069 -0.7713 -0.9182  0.7799
  168MOL0     H22624   1.548   7.939   3.112 -0.9918 -0.2350  0.5545
  168MOL0     H22625   1.585   8.105   2.867 -1.1247  0.2298  0.3678
  168MOL0     H22626   1.621   8.177   3.022  3.5883  0.2657 -0.5888
  168MOL0     H22627   1.766   7.982   3.070  0.8208 -1.7667 -1.4414
  168MOL0     H22628   1.839   8.080   2.941  1.5865  0.0905  2.3755
  168MOL0     H22629   1.719   7.794   2.923  0.7634 -1.5690 -0.1605
  168MOL0     H22630   1.736   7.896   2.778 -2.2691  0.4757  1.5906
  168MOL0     H22631   2.003   7.978   2.723  0.0833 -1.9043 -1.9132
  168MOL0     H22632   2.266   7.764   2.675  1.7257  0.2096 -1.3893
  168MOL0     H22633   2.214   7.926   2.665  0.0047  0.1144  0.1177
  168MOL0     H22634   2.447   7.910   2.761 -0.8109  0.5985 -0.5430
  168MOL0     H22635   2.338   8.013   2.856  1.2779  0.2998  2.6238
  168MOL0     H22636   2.404   7.719   2.920 -1.7166  0.6910 -2.9952
  168MOL0     H22637   2.295   7.833   3.008 -0.2470  2.0872  0.7368
  168MOL0     H22638   2.476   7.982   3.049  0.6084  0.3636 -0.6283
  168MOL0     H22639   2.586   7.889   2.964  0.0043 -0.4754 -0.7568
  168MOL0     H22640   2.711   7.994   3.135  1.7296  0.0083 -2.2142
  168MOL0     H22641   2.921   7.994   3.239 -1.9382  1.3110  0.2534
  168MOL0     H22642   3.100   7.773   3.718  0.0324 -0.5218  0.5018
  168MOL0     H22643   3.285   7.775   3.854  2.5711  1.3360 -0.7901
  168MOL0     H22644   3.527   7.431   3.779 -1.8143  1.8532 -0.6612
  168MOL0     H22645   3.665   7.535   3.724 -3.9875 -0.9921 -3.3581
  168MOL0     H22646   3.677   7.591   3.987  1.8706 -0.9873 -0.0358
  168MOL0     H22647   3.591   7.423   4.002 -0.0403 -2.5595 -2.9092
  168MOL0     H22648   3.785   7.349   3.853 -0.9593  0.5072 -0.9444
  168MOL0     H22649   3.881   7.484   3.891 -0.8821  0.6573 -1.3020
  168MOL0     H22650   3.772   7.283   4.079 -0.7464  0.2514 -2.2765
  168MOL0     H22651   3.816   7.430   4.146 -0.7479  1.0789 -1.3013
  168MOL0     H22652   4.059   7.404   4.071  0.6766  0.4852  1.3280
  168MOL0     H22653   4.012   7.284   3.955 -3.5992  4.6921 -2.8790
  168MOL0     H22654   4.013   7.250   4.255  0.8007 -0.3380  1.0890
  168MOL0     H22655   3.945   7.125   4.158  2.0209 -1.7074  3.2338
  168MOL0     H22656   4.222   7.264   4.119 -1.0338  0.6330 -0.1024
  168MOL0     H22657   4.166   7.097   4.052 -2.5076  0.6792 -2.0835
  168MOL0     H22658   4.315   7.081   4.255  0.8963  1.5748 -0.9159
  168MOL0     H22659   4.189   7.159   4.351  0.4182 -2.5928  1.3588
  168MOL0     H22660   3.500   7.544   3.565  0.1185  1.2981 -0.6786
  168MOL0     H22661   3.321   7.601   3.400 -2.8639  1.1254 -1.5619
  168MOL0     H22662   2.845   7.611   3.414 -0.5977 -0.6129 -0.5736
  168MOL0     H22663   2.616   7.623   3.323  2.5264 -1.2297  0.5061
  168MOL0     H22664   1.196   7.452   2.672  1.4686  0.8587 -1.4466
  168MOL0     H22665   1.165   7.386   2.428 -1.7890 -1.6230 -0.8242
  168MOL0     H22666   1.043   7.597   2.036  0.9026  3.0223 -3.5671
  168MOL0     H22667   1.074   7.579   1.795  0.7386  0.9391  1.4786
  168MOL0     H22668   1.047   7.595   1.589  0.0963 -0.3859 -1.1642
  168MOL0     H22669   0.986   7.515   1.464 -3.0528 -0.3283  1.5532
  168MOL0     H22670   1.205   7.388   1.643 -3.7394  0.8003  2.9223
  168MOL0     H22671   1.221   7.470   1.481 -1.6149 -1.1590 -3.1136
  168MOL0     H22672   1.089   7.280   1.377  2.8068  1.5713 -0.5969
  168MOL0     H22673   1.066   7.217   1.543  0.3082 -0.7105 -0.6462
  168MOL0     H22674   1.338   7.230   1.409  0.0736  2.1360  0.6917
  168MOL0     H22675   1.309   7.166   1.567  0.7915 -3.0445 -1.2745
  168MOL0     H22676   1.173   6.841   1.359 -2.2824  2.1191 -4.2485
  168MOL0     H22677   0.747   7.295   1.794 -0.8171 -0.0034  0.4710
  168MOL0     H22678   0.662   7.201   1.949  0.1904 -2.1299  1.5941
  168MOL0     H22679   0.756   7.203   2.099 -1.6156 -2.4733 -0.7758
  168MOL0     H22680   0.617   7.317   2.083 -0.5972 -2.3201  1.5442
  169MOL0     O22681   1.105   3.665   9.021  0.1302 -0.0097  1.1379
  169MOL0     C22682   1.043   3.621   8.922  0.0134  0.4962  0.6181
  169MOL0     O22683   0.925   3.558   8.929 -0.2594  0.5648  1.2380
  169MOL0     C22684   0.882   3.491   9.035  0.3458  0.4667 -1.0152
  169MOL0     C22685   0.961   3.412   9.115 -1.0728  0.4989  0.3385
  169MOL0     C22686   0.908   3.342   9.226  0.2552 -0.2137  1.4050
  169MOL0     C22687   0.779   3.370   9.269 -1.0190 -0.8188  0.6057
  169MOL0     O22688   0.737   3.299   9.378  1.0687  0.0615  1.0267
  169MOL0     C22689   0.618   3.325   9.450 -0.6698  0.5787  1.4253
  169MOL0     C22690   0.603   3.238   9.573 -0.0906 -0.4556 -0.9865
  169MOL0     C22691   0.662   3.293   9.694 -0.5306  0.3185 -0.2703
  169MOL0     C22692   0.618   3.210   9.821  0.3698 -0.6665  0.8281
  169MOL0     C22693   0.662   3.279   9.951  0.6449  0.5605 -0.6904
  169MOL0     C22694   0.598   3.202  10.074  0.2705  0.8084 -0.7060
  169MOL0     C22695   0.643   3.272  10.207 -0.1198  0.0275  0.1326
  169MOL0     C22696   0.790   3.265  10.243  0.4494 -0.9812 -0.3159
  169MOL0     N22697   0.832   3.133  10.246 -0.1844  0.1901  0.0735
  169MOL0     C22698   0.780   3.042  10.328 -0.7250  0.4686  0.0427
  169MOL0     C22699   0.841   2.921  10.291 -0.0090  1.3837 -0.2844
  169MOL0     C22700   0.799   2.786  10.347  1.1076 -0.4078  0.1577
  169MOL0     C22701   0.688   2.724  10.254  0.4849 -0.6797 -0.5041
  169MOL0     C22702   0.757   2.655  10.139 -0.0538  0.0723 -0.2551
  169MOL0     C22703   0.706   2.525  10.090 -0.7937  0.7026 -0.3942
  169MOL0     O22704   0.570   2.496  10.131  0.3021  0.5584 -0.3363
  169MOL0     C22705   0.464   2.519  10.053 -0.1241  0.4555  0.9426
  169MOL0     C22706   0.330   2.509  10.098 -0.4786  0.3581  1.1666
  169MOL0     C22707   0.218   2.543  10.016  0.5641 -0.1347  0.3923
  169MOL0     C22708   0.233   2.573   9.882  0.8094 -0.6189 -0.9759
  169MOL0     C22709   0.113   2.596   9.800  0.1566 -1.1313  0.3836
  169MOL0     O22710  -0.005   2.618   9.866  0.8146  0.5022 -0.3106
  169MOL0     C22711  -0.120   2.644   9.795 -0.1906  0.6518  0.8279
  169MOL0     C22712  -0.130   2.736   9.684  0.2033  0.4806 -1.4183
  169MOL0     C22713  -0.253   2.759   9.629 -0.0566 -0.1866 -0.1526
  169MOL0     C22714  -0.371   2.682   9.665 -0.8415 -0.3942  0.0934
  169MOL0     O22715  -0.491   2.684   9.596 -0.3633  0.3050 -0.6580
  169MOL0     C22716  -0.488   2.738   9.466  0.4264 -0.0728  0.8917
  169MOL0     C22717  -0.626   2.719   9.405  0.2220 -0.4935 -0.8270
  169MOL0     C22718  -0.647   2.577   9.350  0.3046 -0.0136  0.0831
  169MOL0     C22719  -0.633   2.579   9.193  0.6766 -0.1483 -0.0650
  169MOL0     C22720  -0.758   2.627   9.117 -0.1024 -0.2224 -0.5362
  169MOL0     C22721  -0.749   2.595   8.971 -0.4749  0.3759 -0.0043
  169MOL0     C22722  -0.859   2.662   8.886  1.4969  0.8743  0.3722
  169MOL0     C22723  -0.834   2.670   8.741  0.2199 -0.4210 -0.8454
  169MOL0    Cl22724  -0.937   2.799   8.669 -0.3016  0.0802 -0.2549
  169MOL0     C22725  -0.355   2.597   9.773  0.5652 -0.2102  0.8265
  169MOL0     C22726  -0.237   2.577   9.839  0.6859 -1.4270 -0.4125
  169MOL0     O22727   0.135   2.607   9.682 -0.0493 -0.2551  0.5059
  169MOL0     C22728   0.365   2.569   9.839  0.3733 -0.8720  1.0594
  169MOL0     C22729   0.476   2.566   9.916 -1.1809 -0.0855 -0.6517
  169MOL0     N22730   0.919   2.944  10.190 -0.0505 -0.4098 -0.7373
  169MOL0     N22731   0.921   3.079  10.162 -0.2451 -0.5448 -0.0507
  169MOL0     C22732   0.697   3.451   9.189  0.0979 -0.4682  0.7393
  169MOL0     C22733   0.749   3.520   9.076  0.1516 -0.2658 -0.6584
  169MOL0     C22734   1.097   3.654   8.791 -0.2764 -0.4867  0.1574
  169MOL0     C22735   1.203   3.751   8.778 -0.3987 -0.7572 -0.1292
  169MOL0     C22736   1.259   3.774   8.653 -0.8654  0.6163 -0.1711
  169MOL0     C22737   1.221   3.698   8.540  0.5819  0.1852 -0.3082
  169MOL0     O22738   1.300   3.731   8.436 -0.6368  0.1551  0.9753
  169MOL0     C22739   1.270   3.666   8.314 -0.0172 -0.7451  0.1307
  169MOL0     C22740   1.395   3.663   8.231  0.9204  0.1298 -0.5091
  169MOL0     C22741   1.346   3.675   8.077 -0.6477  0.7907 -0.0987
  169MOL0     C22742   1.457   3.707   7.986  0.5332 -0.6521 -0.3548
  169MOL0     C22743   1.550   3.596   7.980 -0.3618  0.4707 -0.0104
  169MOL0     C22744   1.619   3.499   7.968  0.1512 -0.3628  1.0517
  169MOL0     C22745   1.113   3.605   8.550  0.6603 -0.3766  0.0434
  169MOL0     C22746   1.048   3.581   8.677 -0.0323  0.1683  0.4900
  169MOL0     C22747   0.956   3.468   8.678  0.7384 -0.0597  0.2849
  169MOL0     H22748   1.057   3.373   9.082 -1.8992  0.6377 -2.5097
  169MOL0     H22749   0.958   3.261   9.280 -0.9231  0.0775  3.0028
  169MOL0     H22750   0.613   3.425   9.494  0.2510 -0.5083  4.2543
  169MOL0     H22751   0.535   3.307   9.381  0.5345  0.6090 -0.0749
  169MOL0     H22752   0.662   3.149   9.549  4.0981  2.4140 -2.4470
  169MOL0     H22753   0.498   3.210   9.586 -0.4967  1.8139  1.5513
  169MOL0     H22754   0.611   3.388   9.711  2.2711  1.5711  1.8102
  169MOL0     H22755   0.770   3.306   9.684 -0.7068  1.3700 -0.9522
  169MOL0     H22756   0.509   3.211   9.828  0.4292 -0.7904  1.8994
  169MOL0     H22757   0.651   3.106   9.822 -0.5536 -1.0090 -0.7250
  169MOL0     H22758   0.770   3.266   9.951  0.5462 -0.3591 -0.2509
  169MOL0     H22759   0.634   3.384   9.946 -0.8652  0.1829 -0.9911
  169MOL0     H22760   0.489   3.198  10.062 -0.2145 -2.8213  2.8247
  169MOL0     H22761   0.633   3.098  10.074  2.9381  1.6037  1.4230
  169MOL0     H22762   0.591   3.235  10.295 -0.1754 -0.9200 -0.2911
  169MOL0     H22763   0.613   3.377  10.202  1.1769  0.4025 -0.2022
  169MOL0     H22764   0.846   3.324  10.169  1.0969 -1.6207 -0.3493
  169MOL0     H22765   0.804   3.316  10.338  0.1751  0.5375 -1.0515
  169MOL0     H22766   0.708   3.078  10.400  1.1046 -0.1059  2.2928
  169MOL0     H22767   0.889   2.726  10.365  5.4014  4.1408 -3.2224
  169MOL0     H22768   0.754   2.803  10.445 -1.3633 -2.5297 -0.4938
  169MOL0     H22769   0.635   2.658  10.323  2.7009 -0.1490  1.8366
  169MOL0     H22770   0.620   2.798  10.210 -0.1101 -0.8497  0.1082
  169MOL0     H22771   0.865   2.639  10.152  0.2406  2.2967  0.3122
  169MOL0     H22772   0.755   2.725  10.055 -0.3642  0.0708 -0.2503
  169MOL0     H22773   0.750   2.442  10.147 -0.6932  1.3206  0.4455
  169MOL0     H22774   0.732   2.519   9.985  1.0400 -1.5912  0.1125
  169MOL0     H22775   0.308   2.490  10.203  1.0448 -1.0610  1.2775
  169MOL0     H22776   0.116   2.533  10.052 -1.0446  2.8851 -2.7454
  169MOL0     H22777  -0.046   2.795   9.648 -0.7323  3.5217  0.9519
  169MOL0     H22778  -0.254   2.809   9.533  2.8872  0.9051  0.2867
  169MOL0     H22779  -0.473   2.846   9.462  0.3964 -0.0868 -2.8420
  169MOL0     H22780  -0.413   2.703   9.394 -1.5437  0.4269 -1.4998
  169MOL0     H22781  -0.706   2.743   9.477  2.8983  0.4827  2.0539
  169MOL0     H22782  -0.639   2.790   9.323  2.2791 -0.0142 -0.7985
  169MOL0     H22783  -0.570   2.510   9.389 -0.4566  0.2094  2.0825
  169MOL0     H22784  -0.735   2.524   9.386  0.9049 -1.2891 -0.2807
  169MOL0     H22785  -0.620   2.476   9.157  1.4976  1.3784 -4.8808
  169MOL0     H22786  -0.544   2.635   9.161  0.1557  0.2003 -0.9499
  169MOL0     H22787  -0.778   2.733   9.132 -2.7214 -0.7867  0.6377
  169MOL0     H22788  -0.843   2.574   9.162 -0.4810  0.7223 -0.1118
  169MOL0     H22789  -0.658   2.624   8.919 -1.3746 -0.9744 -2.4912
  169MOL0     H22790  -0.754   2.487   8.951 -2.1387  0.4890 -0.4135
  169MOL0     H22791  -0.887   2.759   8.929  2.1669  0.3070  2.1984
  169MOL0     H22792  -0.945   2.595   8.895  0.4859  1.6020 -2.6273
  169MOL0     H22793  -0.732   2.700   8.716 -0.4189 -1.2308 -5.2776
  169MOL0     H22794  -0.847   2.573   8.692 -2.6354  0.4742 -2.0396
  169MOL0     H22795  -0.432   2.526   9.800  0.5402 -2.0449 -3.2942
  169MOL0     H22796  -0.234   2.509   9.923  0.4086 -1.7367 -0.6508
  169MOL0     H22797   0.385   2.600   9.737 -2.2802 -1.5660  0.2744
  169MOL0     H22798   0.568   2.582   9.861 -0.3246  0.4311  0.8748
  169MOL0     H22799   0.596   3.476   9.220  0.6795  1.5002  1.1992
  169MOL0     H22800   0.685   3.578   9.011  0.9070  0.7172 -0.5498
  169MOL0     H22801   1.242   3.813   8.859 -2.7985 -1.3124  1.5574
  169MOL0     H22802   1.337   3.846   8.629 -2.0664  2.2563  0.6957
  169MOL0     H22803   1.186   3.721   8.268  0.0875 -0.5573  0.1635
  169MOL0     H22804   1.239   3.562   8.327 -1.5217 -0.0435  2.7137
  169MOL0     H22805   1.443   3.568   8.257  0.1299  0.7841  4.3284
  169MOL0     H22806   1.466   3.744   8.253 -1.3644  1.9784  0.4451
  169MOL0     H22807   1.258   3.739   8.064 -2.8223 -2.2865 -1.7122
  169MOL0     H22808   1.315   3.578   8.038 -0.5650  1.0953 -0.9393
  169MOL0     H22809   1.420   3.722   7.884  1.1865  0.8426 -0.3928
  169MOL0     H22810   1.501   3.797   8.030 -0.2444  0.0489 -0.9716
  169MOL0     H22811   1.689   3.419   7.963  0.6450  0.1245 -0.4826
  169MOL0     H22812   1.089   3.546   8.462 -1.1047 -1.0921  0.9680
  169MOL0     H22813   0.853   3.493   8.704  0.9112  0.0331  0.8839
  169MOL0     H22814   0.948   3.446   8.571  1.9686  3.7626 -0.7721
  169MOL0     H22815   0.988   3.376   8.728  0.4539 -0.8207 -0.8823
  170MOL0     O22816   1.154   8.077   8.977  0.0258  0.6531  0.6345
  170MOL0     C22817   1.051   8.026   8.925 -0.3166 -0.5537 -0.2371
  170MOL0     O22818   1.001   8.053   8.796 -0.1005 -0.3424  0.1763
  170MOL0     C22819   1.036   8.172   8.728 -0.6232  0.6080 -0.7373
  170MOL0     C22820   0.957   8.216   8.630  0.0689  0.6439 -0.8654
  170MOL0     C22821   0.984   8.337   8.556 -0.9031  0.0325  0.5667
  170MOL0     C22822   1.092   8.426   8.590 -1.4757  0.1063  0.3553
  170MOL0     O22823   1.123   8.540   8.516 -0.3968 -0.4236 -0.3964
  170MOL0     C22824   1.253   8.607   8.540 -0.4405 -0.1265 -0.5525
  170MOL0     C22825   1.228   8.739   8.615  0.5120  0.4765  0.0152
  170MOL0     C22826   1.339   8.831   8.594 -0.0714 -0.1289 -0.2056
  170MOL0     C22827   1.451   8.835   8.707  0.1514 -0.6995 -0.0777
  170MOL0     C22828   1.501   8.694   8.744 -0.1116 -0.6996 -0.3838
  170MOL0     C22829   1.625   8.695   8.838  0.1135  0.0089 -0.2506
  170MOL0     C22830   1.729   8.590   8.787 -0.1365 -0.0280  0.1355
  170MOL0     C22831   1.851   8.619   8.879  0.3216  0.6547 -0.1832
  170MOL0     N22832   1.946   8.504   8.864  0.5488  0.4631 -0.2347
  170MOL0     C22833   2.060   8.531   8.801 -0.0770  0.8523  0.0525
  170MOL0     C22834   2.119   8.413   8.832 -0.5057 -0.1377 -0.3787
  170MOL0     C22835   2.259   8.380   8.796  1.0927 -0.5885 -0.8201
  170MOL0     C22836   2.297   8.409   8.650 -0.2216 -0.3435 -0.2460
  170MOL0     C22837   2.271   8.287   8.563 -0.0465  1.0849  0.8619
  170MOL0     C22838   2.355   8.291   8.433 -0.6764  0.4059 -0.1982
  170MOL0     O22839   2.383   8.154   8.397  0.5584 -0.1365  1.8126
  170MOL0     C22840   2.456   8.130   8.283 -0.4997 -0.5776  0.0351
  170MOL0     C22841   2.502   8.223   8.190 -0.4490  0.9160  0.0483
  170MOL0     C22842   2.573   8.171   8.079 -0.4550  0.8731 -0.9891
  170MOL0     C22843   2.583   8.030   8.057  0.7779 -0.4951  0.5718
  170MOL0     C22844   2.662   7.975   7.938 -0.1786 -0.1659 -1.0752
  170MOL0     O22845   2.691   8.068   7.846 -0.7619  0.1156 -0.4736
  170MOL0     C22846   2.750   8.030   7.733  0.5844 -0.3638  0.0979
  170MOL0     C22847   2.879   8.094   7.722  0.1335  0.5695 -0.3474
  170MOL0     C22848   2.952   8.072   7.609 -0.0512  0.4701  0.1232
  170MOL0     C22849   2.910   7.996   7.502 -0.1933  0.2822  0.5264
  170MOL0     O22850   2.988   7.981   7.395  0.0772 -0.0025 -0.2464
  170MOL0     C22851   2.951   7.883   7.301  1.3680 -0.7234 -0.1071
  170MOL0     C22852   2.873   7.955   7.186  0.8415 -0.0929  0.6430
  170MOL0     C22853   2.953   8.080   7.140  0.4085  0.9572  0.9207
  170MOL0     C22854   2.883   8.149   7.015 -0.2805 -0.0568  0.0001
  170MOL0     C22855   2.988   8.230   6.936 -1.1901 -0.9183 -0.1117
  170MOL0     C22856   2.912   8.290   6.816 -0.2986 -0.5876  0.1146
  170MOL0     C22857   2.992   8.403   6.744  0.7530  0.8225  0.1294
  170MOL0     C22858   2.889   8.500   6.693  0.2909  0.0944  0.5286
  170MOL0    Cl22859   2.799   8.436   6.555  0.0721 -0.3742  0.2841
  170MOL0     C22860   2.794   7.926   7.518 -0.7378  0.3731 -0.3221
  170MOL0     C22861   2.708   7.940   7.630  0.0563 -0.0727  0.0873
  170MOL0     O22862   2.678   7.850   7.920  1.2463 -0.0137  0.6603
  170MOL0     C22863   2.541   7.943   8.151 -0.4979  0.3002 -0.3110
  170MOL0     C22864   2.474   7.992   8.263  0.3170 -0.8339  0.3205
  170MOL0     N22865   2.042   8.323   8.904 -0.0111 -0.6818  0.9917
  170MOL0     N22866   1.932   8.385   8.929  0.1735 -0.2277  0.0507
  170MOL0     C22867   1.177   8.374   8.696  0.4679  0.2286 -0.9972
  170MOL0     C22868   1.156   8.253   8.759  0.6811  0.7685  0.3131
  170MOL0     C22869   1.001   7.907   8.990  0.1027  0.5926  0.5068
  170MOL0     C22870   1.029   7.777   8.942  0.3372  0.0236  0.4717
  170MOL0     C22871   0.985   7.656   8.995  0.5340 -0.1276 -0.6712
  170MOL0     C22872   0.906   7.670   9.112  0.3614 -0.4183  0.1901
  170MOL0     O22873   0.863   7.567   9.184  0.2693  0.6859  0.2980
  170MOL0     C22874   0.877   7.429   9.123 -0.0298  0.4792 -0.0441
  170MOL0     C22875   0.757   7.351   9.188 -0.8425  0.2010  0.1183
  170MOL0     C22876   0.803   7.278   9.310 -1.2240  0.6622  0.2860
  170MOL0     C22877   0.701   7.180   9.359 -0.4298 -0.0871  0.5680
  170MOL0     C22878   0.752   7.092   9.472  0.1912 -0.6466 -0.1228
  170MOL0     C22879   0.793   7.027   9.567 -0.0142 -0.2373 -0.2919
  170MOL0     C22880   0.888   7.796   9.170 -0.6586 -0.8611 -0.2081
  170MOL0     C22881   0.926   7.916   9.113  0.5750  0.8306  0.0351
  170MOL0     C22882   0.872   8.042   9.153 -0.0347  0.2047 -0.7539
  170MOL0     H22883   0.878   8.144   8.612 -1.2716  1.9121 -0.2448
  170MOL0     H22884   0.918   8.366   8.475 -0.6401  1.4701  0.8478
  170MOL0     H22885   1.336   8.552   8.585 -0.1059 -1.0126 -2.1695
  170MOL0     H22886   1.292   8.628   8.440  1.5136 -2.8096 -0.4614
  170MOL0     H22887   1.196   8.727   8.719  0.6871  0.4253  0.0637
  170MOL0     H22888   1.137   8.783   8.572 -2.3998 -2.4327  2.6667
  170MOL0     H22889   1.299   8.932   8.580 -3.1672 -1.2455 -0.1817
  170MOL0     H22890   1.397   8.799   8.507 -0.2766 -2.4746  0.4599
  170MOL0     H22891   1.534   8.894   8.668  0.0119 -0.6833 -0.3569
  170MOL0     H22892   1.412   8.886   8.795  0.0181 -0.2460 -0.3984
  170MOL0     H22893   1.416   8.638   8.786  0.5341 -0.8929  0.6934
  170MOL0     H22894   1.531   8.657   8.646  0.1993 -0.9504 -0.1947
  170MOL0     H22895   1.672   8.793   8.840 -0.3394  0.3337  4.3031
  170MOL0     H22896   1.597   8.663   8.938  3.9135 -1.7846  0.4304
  170MOL0     H22897   1.758   8.612   8.684  1.2144  1.9682  0.8753
  170MOL0     H22898   1.702   8.485   8.804  0.0570 -0.0236  0.4824
  170MOL0     H22899   1.896   8.717   8.861  1.4445  0.8314  2.9851
  170MOL0     H22900   1.816   8.623   8.983  1.9262 -0.2530  0.4308
  170MOL0     H22901   2.101   8.618   8.752  0.1625  1.7327  1.7290
  170MOL0     H22902   2.335   8.422   8.862  0.3440  1.0211 -0.9296
  170MOL0     H22903   2.272   8.273   8.815  1.7053 -0.0108  2.8342
  170MOL0     H22904   2.256   8.503   8.614  1.0620  0.0646 -0.7089
  170MOL0     H22905   2.404   8.432   8.653 -0.1610 -0.1779 -2.2194
  170MOL0     H22906   2.165   8.269   8.541  0.7882 -1.3492 -1.8714
  170MOL0     H22907   2.312   8.201   8.615  0.4924 -0.1021 -1.3890
  170MOL0     H22908   2.455   8.330   8.454 -0.1074 -1.4488  0.8710
  170MOL0     H22909   2.329   8.356   8.349  1.9939 -2.9009 -3.9303
  170MOL0     H22910   2.500   8.332   8.193 -1.1751  0.9258 -0.4733
  170MOL0     H22911   2.622   8.232   8.003  1.2409 -1.1583 -1.5999
  170MOL0     H22912   2.921   8.143   7.809 -3.0083 -1.0943  2.3288
  170MOL0     H22913   3.053   8.110   7.594 -0.8809  2.1581 -1.6453
  170MOL0     H22914   3.047   7.855   7.256  1.3057 -0.1815 -0.5853
  170MOL0     H22915   2.909   7.789   7.339  0.5812 -0.3884 -0.1315
  170MOL0     H22916   2.847   7.887   7.105 -4.6241  0.2293  1.7148
  170MOL0     H22917   2.774   7.982   7.225  0.8262  0.6027  0.1422
  170MOL0     H22918   2.967   8.143   7.228 -0.6530  1.2344  0.9159
  170MOL0     H22919   3.056   8.063   7.107 -0.0740  0.9403 -0.6670
  170MOL0     H22920   2.805   8.213   7.057 -1.7992 -0.9556 -1.3265
  170MOL0     H22921   2.828   8.082   6.948  0.2215  0.8144 -1.3214
  170MOL0     H22922   3.069   8.171   6.892 -1.3436  0.3353 -2.2239
  170MOL0     H22923   3.021   8.302   7.012 -0.3587 -0.0647 -1.2412
  170MOL0     H22924   2.892   8.207   6.749 -0.6249 -1.3186  1.1041
  170MOL0     H22925   2.826   8.337   6.865  2.4578 -0.3548  5.5029
  170MOL0     H22926   3.061   8.359   6.672  1.3099 -0.5074  1.4259
  170MOL0     H22927   3.058   8.457   6.812 -0.7425  1.7662  0.8953
  170MOL0     H22928   2.822   8.542   6.768 -1.0471 -1.8316  0.4973
  170MOL0     H22929   2.955   8.578   6.654 -0.3913  0.6007  0.3735
  170MOL0     H22930   2.765   7.849   7.447  2.9616  0.0279 -1.7134
  170MOL0     H22931   2.624   7.873   7.644  0.0141 -0.6203 -2.3276
  170MOL0     H22932   2.568   7.838   8.146 -4.8258 -0.9427 -4.5323
  170MOL0     H22933   2.458   7.923   8.345  3.1255 -0.5186  1.2632
  170MOL0     H22934   1.267   8.417   8.740 -0.8207  0.1065  1.9899
  170MOL0     H22935   1.224   8.214   8.834  0.1118 -1.5197 -0.2910
  170MOL0     H22936   1.099   7.780   8.859 -0.0297 -1.5120  0.0849
  170MOL0     H22937   1.010   7.555   8.965 -3.7792 -1.6195  0.0835
  170MOL0     H22938   0.972   7.377   9.134  0.4287  1.0057 -1.2986
  170MOL0     H22939   0.852   7.428   9.017 -3.5465  0.5560  0.6368
  170MOL0     H22940   0.715   7.273   9.124 -0.8077 -0.5331  0.9828
  170MOL0     H22941   0.679   7.424   9.213 -1.7155  0.1553 -2.1967
  170MOL0     H22942   0.833   7.337   9.397  1.4787 -1.9329  1.2813
  170MOL0     H22943   0.889   7.215   9.287 -1.4149 -0.2860  1.9896
  170MOL0     H22944   0.610   7.240   9.375 -0.4856  0.5717 -1.8784
  170MOL0     H22945   0.680   7.111   9.277 -1.8869  0.1649  0.7010
  170MOL0     H22946   0.830   6.976   9.653  2.0281  0.8210 -0.4621
  170MOL0     H22947   0.835   7.807   9.264 -0.3717 -0.1651 -0.1245
  170MOL0     H22948   0.764   8.026   9.162 -0.1445  1.3508  0.2147
  170MOL0     H22949   0.915   8.069   9.250 -0.6814  0.1091 -0.4369
  170MOL0     H22950   0.902   8.130   9.094  0.9752  0.5502  0.2359
  171MOL0     O22951   5.937   8.302  11.148 -1.0436 -0.1499 -0.6433
  171MOL0     C22952   5.890   8.270  11.039  0.6840 -0.1318  0.7209
  171MOL0     O22953   5.936   8.172  10.965  0.0372  0.1851 -0.1567
  171MOL0     C22954   6.065   8.122  10.988  0.1753  0.4012  0.2688
  171MOL0     C22955   6.171   8.204  11.039 -0.1799  0.3354  0.3537
  171MOL0     C22956   6.298   8.146  11.044  0.0066  0.1197 -0.5902
  171MOL0     C22957   6.318   8.007  11.008  0.1200  0.2996  0.4250
  171MOL0     O22958   6.436   7.931  11.031  0.6290 -0.1189 -0.1034
  171MOL0     C22959   6.549   7.978  11.113  0.0259 -0.1663  0.8706
  171MOL0     C22960   6.662   7.875  11.099  0.2579 -0.3933  0.0095
  171MOL0     C22961   6.621   7.740  11.154  0.3767 -0.4101 -0.0662
  171MOL0     C22962   6.737   7.641  11.147  0.0494  0.3307  0.5033
  171MOL0     C22963   6.698   7.501  11.176 -0.4102 -0.4105 -0.8381
  171MOL0     C22964   6.782   7.408  11.084 -0.5571  0.1674  0.5054
  171MOL0     C22965   6.728   7.264  11.077 -1.0077  0.5334 -0.4189
  171MOL0     C22966   6.806   7.187  10.972 -0.0354  0.0138  1.2245
  171MOL0     N22967   6.947   7.163  11.005 -1.2320 -0.0576 -0.5929
  171MOL0     C22968   7.038   7.101  10.926 -0.1015  0.1209  1.0010
  171MOL0     C22969   7.153   7.090  10.989  0.4721 -0.2499  1.1381
  171MOL0     C22970   7.290   7.022  10.954  0.0961 -0.7033 -0.3999
  171MOL0     C22971   7.337   7.056  10.803  0.0154 -0.6162  0.0495
  171MOL0     C22972   7.474   6.996  10.776  0.4599 -0.2552 -0.5316
  171MOL0     C22973   7.481   6.920  10.640 -0.0270  0.0454  1.1571
  171MOL0     O22974   7.390   6.811  10.629 -0.1468 -0.0761  0.0237
  171MOL0     C22975   7.407   6.713  10.718  1.3898 -0.2238 -1.2581
  171MOL0     C22976   7.309   6.687  10.818 -0.6305 -0.0475 -0.0022
  171MOL0     C22977   7.318   6.579  10.898 -0.3774  0.2653 -0.2618
  171MOL0     C22978   7.417   6.479  10.879 -0.3363  0.6221  0.3736
  171MOL0     C22979   7.425   6.340  10.945 -0.1983 -0.7836  0.0207
  171MOL0     O22980   7.535   6.267  10.915 -1.0643  0.2460  0.0183
  171MOL0     C22981   7.607   6.204  11.013 -0.1661 -0.6709  0.1879
  171MOL0     C22982   7.699   6.108  10.966  0.3976 -0.2278 -1.2234
  171MOL0     C22983   7.762   6.030  11.065  0.2710 -0.8514 -0.4176
  171MOL0     C22984   7.750   6.058  11.207  0.4199  0.3730  0.2722
  171MOL0     O22985   7.813   5.970  11.287  0.4816  0.7051 -0.4259
  171MOL0     C22986   7.769   5.943  11.422 -0.1234 -0.7315 -0.3174
  171MOL0     C22987   7.904   5.879  11.467  0.0455  0.0798  0.6304
  171MOL0     C22988   7.927   5.728  11.430  0.9748  0.2273 -0.9159
  171MOL0     C22989   8.050   5.671  11.499 -0.6020 -0.0722 -0.3156
  171MOL0     C22990   8.093   5.553  11.419 -0.3786  0.5782  0.3505
  171MOL0     C22991   8.224   5.496  11.475  0.2441 -1.0140  0.1236
  171MOL0     C22992   8.343   5.595  11.464  0.4319  0.6580  0.1271
  171MOL0     C22993   8.473   5.538  11.509  0.5226 -0.6113 -0.1576
  171MOL0    Cl22994   8.614   5.625  11.439  0.2890  0.3571 -0.1725
  171MOL0     C22995   7.664   6.156  11.244 -0.2375  0.0802  0.5202
  171MOL0     C22996   7.594   6.227  11.146  0.6141 -0.3195  0.3701
  171MOL0     O22997   7.329   6.305  11.009 -0.1878  0.9950 -0.0730
  171MOL0     C22998   7.523   6.515  10.784  0.0874  0.3964  0.7142
  171MOL0     C22999   7.514   6.626  10.702 -0.2182  0.7120  0.0281
  171MOL0     N23000   7.134   7.148  11.113  0.7776  0.4104  1.1078
  171MOL0     N23001   7.007   7.182  11.124 -0.9381 -0.3097 -0.0392
  171MOL0     C23002   6.215   7.937  10.956  0.1953  1.1978  0.5530
  171MOL0     C23003   6.086   7.993  10.952  0.4256 -0.1792  0.0212
  171MOL0     C23004   5.769   8.352  10.999  0.9633  0.4291  0.1141
  171MOL0     C23005   5.714   8.311  10.875  0.0042 -0.5462 -0.3387
  171MOL0     C23006   5.593   8.354  10.830  0.4143  0.2650  0.0919
  171MOL0     C23007   5.522   8.452  10.902 -0.5550  0.6593 -0.0069
  171MOL0     O23008   5.407   8.501  10.844  0.7592 -1.2721 -0.1018
  171MOL0     C23009   5.339   8.617  10.881  0.0490  0.0266 -0.0917
  171MOL0     C23010   5.228   8.644  10.779 -0.4244  0.1641 -0.0328
  171MOL0     C23011   5.269   8.682  10.636  0.0118 -1.1062  0.9813
  171MOL0     C23012   5.334   8.571  10.553 -1.1120 -0.1237  0.3581
  171MOL0     C23013   5.255   8.453  10.538 -0.0701 -0.5742 -0.3652
  171MOL0     C23014   5.202   8.347  10.514 -0.2554 -0.3146  0.4174
  171MOL0     C23015   5.570   8.497  11.025  0.3573 -0.3152  0.1264
  171MOL0     C23016   5.691   8.448  11.078 -0.9670 -0.1890 -0.6710
  171MOL0     C23017   5.743   8.503  11.211 -0.2476  0.2359  0.0153
  171MOL0     H23018   6.156   8.303  11.079 -0.0372 -0.1550  1.6522
  171MOL0     H23019   6.378   8.199  11.095 -1.0485  0.3757  0.8441
  171MOL0     H23020   6.586   8.078  11.087 -3.0344  0.6403 -0.8167
  171MOL0     H23021   6.509   7.974  11.214  1.1118  0.7216  1.3712
  171MOL0     H23022   6.750   7.910  11.154  0.5395  0.3048 -0.8708
  171MOL0     H23023   6.687   7.871  10.993  1.3016  0.6706  0.1992
  171MOL0     H23024   6.547   7.696  11.086  0.2554 -0.2268 -0.0536
  171MOL0     H23025   6.571   7.749  11.251  2.2528  2.7998  0.7386
  171MOL0     H23026   6.777   7.645  11.045 -1.0149 -3.5388 -0.2149
  171MOL0     H23027   6.813   7.683  11.214 -1.8146  1.3554  2.1056
  171MOL0     H23028   6.732   7.478  11.277  4.7303 -0.0092 -2.2051
  171MOL0     H23029   6.589   7.492  11.168 -0.5720  0.2085  0.3822
  171MOL0     H23030   6.772   7.446  10.982  1.1619  1.6087  0.8522
  171MOL0     H23031   6.881   7.423  11.126  0.0137 -0.5253 -0.5513
  171MOL0     H23032   6.622   7.272  11.052 -1.0091  3.9162  0.2591
  171MOL0     H23033   6.737   7.208  11.171 -1.6662 -2.1487 -1.8470
  171MOL0     H23034   6.765   7.086  10.962 -2.3634  0.9823  0.4940
  171MOL0     H23035   6.805   7.249  10.882  3.0167  0.8092  1.6086
  171MOL0     H23036   7.005   7.064  10.830 -0.6049  1.0014  0.8320
  171MOL0     H23037   7.372   7.061  11.015 -0.6928  0.0439  0.2065
  171MOL0     H23038   7.276   6.916  10.975  0.0661 -0.3704  1.4178
  171MOL0     H23039   7.258   7.012  10.741  1.3718 -2.9437 -0.1190
  171MOL0     H23040   7.330   7.164  10.786  0.1924 -0.6531 -0.2614
  171MOL0     H23041   7.491   6.927  10.859 -2.1292  0.7620  0.9818
  171MOL0     H23042   7.544   7.080  10.770 -0.0286  0.1893 -0.1545
  171MOL0     H23043   7.582   6.883  10.617  0.0540  0.8060  0.2365
  171MOL0     H23044   7.459   6.996  10.564  4.5355  1.6980  1.1453
  171MOL0     H23045   7.235   6.767  10.822 -0.1684  0.3318  2.7301
  171MOL0     H23046   7.247   6.572  10.980 -0.9111  0.2763 -0.7167
  171MOL0     H23047   7.713   6.092  10.859  1.1329 -1.3570 -0.9763
  171MOL0     H23048   7.825   5.949  11.028 -0.5802 -0.2961 -3.3364
  171MOL0     H23049   7.758   6.034  11.482  1.6137  0.2033 -1.3196
  171MOL0     H23050   7.679   5.881  11.422 -0.7211 -0.1850 -4.6674
  171MOL0     H23051   7.983   5.948  11.437 -0.3298 -0.0015 -0.6227
  171MOL0     H23052   7.903   5.878  11.576  1.0274  3.1864  0.7535
  171MOL0     H23053   7.836   5.677  11.460  1.6762  0.5007  2.0448
  171MOL0     H23054   7.948   5.725  11.323  4.2929  1.9992 -0.4545
  171MOL0     H23055   8.009   5.652  11.598 -1.9603 -0.2070 -0.8750
  171MOL0     H23056   8.122   5.753  11.501 -0.9090  0.2149  1.9692
  171MOL0     H23057   8.119   5.584  11.317  0.7407 -0.6395  0.2475
  171MOL0     H23058   8.010   5.483  11.404 -1.4719  1.9527 -0.3807
  171MOL0     H23059   8.203   5.481  11.582 -2.8096  0.9321 -0.0779
  171MOL0     H23060   8.243   5.401  11.426 -0.3831 -1.3159  0.4463
  171MOL0     H23061   8.324   5.679  11.531  5.3249  4.5467 -2.6687
  171MOL0     H23062   8.349   5.633  11.362 -0.7158 -1.3414 -0.7518
  171MOL0     H23063   8.487   5.528  11.617  1.9858  0.8576 -0.1671
  171MOL0     H23064   8.471   5.434  11.474  0.9108 -1.0869  1.1668
  171MOL0     H23065   7.630   6.161  11.347  0.0182  0.1630  0.6009
  171MOL0     H23066   7.532   6.307  11.185  0.6720 -0.2681  0.3561
  171MOL0     H23067   7.604   6.449  10.757  2.0824  3.6515 -1.9998
  171MOL0     H23068   7.589   6.635  10.623 -0.0964 -2.2444 -0.2880
  171MOL0     H23069   6.229   7.831  10.937 -3.4979  0.6778 -0.1444
  171MOL0     H23070   6.005   7.936  10.909 -0.6508 -0.1231  1.8429
  171MOL0     H23071   5.761   8.239  10.808 -0.5260 -0.6155 -0.6419
  171MOL0     H23072   5.552   8.312  10.738  2.1567 -2.1956  0.3634
  171MOL0     H23073   5.404   8.705  10.879 -2.4364  1.9486 -1.3747
  171MOL0     H23074   5.286   8.594  10.974  0.0064 -1.5211 -0.4698
  171MOL0     H23075   5.174   8.730  10.818 -0.3200 -0.9711  2.8684
  171MOL0     H23076   5.158   8.560  10.781 -0.0253 -0.5747 -4.9741
  171MOL0     H23077   5.340   8.765  10.633  1.0235 -1.9009  1.9777
  171MOL0     H23078   5.176   8.695  10.580  0.8341 -0.6995 -0.3398
  171MOL0     H23079   5.348   8.630  10.461 -1.8465 -2.7156 -1.5221
  171MOL0     H23080   5.432   8.540  10.592 -1.0750  0.0993  0.4489
  171MOL0     H23081   5.155   8.262  10.469  1.5486 -0.6481 -0.9539
  171MOL0     H23082   5.526   8.581  11.077  2.5666  1.1703 -0.2488
  171MOL0     H23083   5.663   8.567  11.248 -0.1727 -0.8396  2.2268
  171MOL0     H23084   5.747   8.412  11.273 -0.5083 -1.6611 -2.5941
  171MOL0     H23085   5.834   8.564  11.207  1.1090 -1.4838  2.2712
  172MOL0     O23086   7.064   1.476   0.020  0.5172 -0.2686 -0.1201
  172MOL0     C23087   7.016   1.370   0.050 -0.5075  0.3535  0.3091
  172MOL0     O23088   6.892   1.352   0.095 -0.5012  0.2814 -0.4113
  172MOL0     C23089   6.802   1.453   0.066 -0.7417 -0.1118  0.4726
  172MOL0     C23090   6.778   1.561   0.156 -0.8308  0.9590  0.2352
  172MOL0     C23091   6.673   1.649   0.136  0.3178  1.0581 -0.2241
  172MOL0     C23092   6.593   1.653   0.023 -0.4022 -0.3978 -0.9557
  172MOL0     O23093   6.498   1.745   0.015  0.4231 -0.1459 -0.0099
  172MOL0     C23094   6.410   1.745  -0.110  0.9087 -0.7266 -1.9349
  172MOL0     C23095   6.384   1.889  -0.164 -0.3084  0.0681  0.5503
  172MOL0     C23096   6.291   1.893  -0.289 -0.5140  0.1234 -0.7841
  172MOL0     C23097   6.278   2.041  -0.338 -0.4318  0.0124  0.1326
  172MOL0     C23098   6.170   2.067  -0.449 -0.9753  0.2484  0.5334
  172MOL0     C23099   6.139   2.219  -0.458  1.0518 -0.6435  0.4913
  172MOL0     C23100   6.036   2.260  -0.349  0.4939  0.0091  0.3115
  172MOL0     C23101   5.893   2.256  -0.389  0.8515 -0.0041 -0.1408
  172MOL0     N23102   5.809   2.310  -0.277  0.6194 -0.0607  0.1762
  172MOL0     C23103   5.672   2.274  -0.252  0.7094 -0.2186 -0.5893
  172MOL0     C23104   5.634   2.368  -0.163  0.4296  0.2322  0.7982
  172MOL0     C23105   5.503   2.350  -0.093  0.0127 -0.6920 -0.1336
  172MOL0     C23106   5.429   2.489  -0.085  1.0790 -0.5757 -0.4079
  172MOL0     C23107   5.273   2.475  -0.077  0.6300  0.1770 -0.0444
  172MOL0     C23108   5.227   2.382   0.038 -0.1320 -0.5802 -0.3088
  172MOL0     O23109   5.256   2.442   0.170  0.2372  0.2382 -0.0977
  172MOL0     C23110   5.237   2.364   0.285 -0.4232  0.4284  0.5785
  172MOL0     C23111   5.225   2.437   0.399  0.0680  0.3777  0.0338
  172MOL0     C23112   5.190   2.369   0.518 -0.2014  0.1090  1.2555
  172MOL0     C23113   5.155   2.236   0.517  0.3437  0.0676 -0.8186
  172MOL0     C23114   5.132   2.159   0.648  0.4861 -0.4691 -0.8450
  172MOL0     O23115   5.106   2.026   0.638  0.4172 -0.6312  0.2531
  172MOL0     C23116   5.075   1.961   0.749 -0.3513 -0.9121 -0.4783
  172MOL0     C23117   5.182   1.910   0.825 -0.4214  0.0461 -0.1084
  172MOL0     C23118   5.167   1.812   0.919 -0.0887  0.4213  0.9379
  172MOL0     C23119   5.045   1.752   0.938 -0.3841 -0.6457 -0.1754
  172MOL0     O23120   5.047   1.640   1.021  0.0392 -0.9037  0.4819
  172MOL0     C23121   4.924   1.565   1.041 -0.3700  0.8892  0.3392
  172MOL0     C23122   4.956   1.461   1.145 -0.4852  0.1282  0.5528
  172MOL0     C23123   4.832   1.394   1.204  0.7319 -0.1322 -0.0567
  172MOL0     C23124   4.869   1.255   1.260 -0.5526 -0.2965 -0.1699
  172MOL0     C23125   4.770   1.203   1.369  0.0390  0.5605  0.1867
  172MOL0     C23126   4.624   1.186   1.321 -1.0230 -1.0530  1.0234
  172MOL0     C23127   4.536   1.133   1.434  0.2183 -0.6113  0.0976
  172MOL0     C23128   4.479   1.240   1.521  0.4830  0.0983 -0.1812
  172MOL0    Cl23129   4.421   1.160   1.666 -0.2979 -0.0420  0.2501
  172MOL0     C23130   4.929   1.794   0.862  0.0207 -0.0031 -1.1717
  172MOL0     C23131   4.941   1.907   0.783 -0.2313 -0.7812  0.6246
  172MOL0     O23132   5.110   2.228   0.754  0.1974 -0.4900 -0.8416
  172MOL0     C23133   5.152   2.162   0.400  0.3251 -1.2075  0.8368
  172MOL0     C23134   5.200   2.226   0.287 -0.0627 -0.2845 -0.0941
  172MOL0     N23135   5.739   2.456  -0.144 -0.2012  0.1107  0.6127
  172MOL0     N23136   5.843   2.422  -0.211  0.0843 -0.3599  0.2721
  172MOL0     C23137   6.621   1.556  -0.073 -0.2228 -0.2613 -0.5545
  172MOL0     C23138   6.724   1.454  -0.051  0.7716 -0.4968 -0.4702
  172MOL0     C23139   7.112   1.257   0.062  0.1831 -0.2505  0.3729
  172MOL0     C23140   7.052   1.131   0.078  0.1651 -0.0719  0.7300
  172MOL0     C23141   7.128   1.018   0.092 -1.4096 -0.6542 -0.2700
  172MOL0     C23142   7.268   1.027   0.080  1.0030  0.7766  0.4238
  172MOL0     O23143   7.334   0.903   0.072 -0.4418 -0.1237 -0.0894
  172MOL0     C23144   7.462   0.893   0.017 -0.9840  0.2787  1.2703
  172MOL0     C23145   7.498   0.743   0.005  0.7966  0.2540  0.0124
  172MOL0     C23146   7.600   0.718  -0.104 -0.5596 -0.7689  0.0708
  172MOL0     C23147   7.596   0.576  -0.170 -0.7609 -0.6115 -0.9334
  172MOL0     C23148   7.619   0.457  -0.082 -1.3903 -0.0722  0.5423
  172MOL0     C23149   7.632   0.359  -0.013  0.2773  0.4467 -0.7582
  172MOL0     C23150   7.320   1.151   0.067 -0.8185  0.3206  0.2958
  172MOL0     C23151   7.253   1.269   0.054  0.6394 -0.2693 -0.1571
  172MOL0     C23152   7.335   1.401   0.059 -0.5375  1.1070 -0.5295
  172MOL0     H23153   6.838   1.560   0.247 -1.8088  0.4668  0.8930
  172MOL0     H23154   6.653   1.715   0.220  2.1996  2.3360 -0.7251
  172MOL0     H23155   6.439   1.688  -0.199  0.1280  1.0546 -3.4117
  172MOL0     H23156   6.311   1.705  -0.086 -0.0409  1.5772 -1.6862
  172MOL0     H23157   6.483   1.924  -0.194 -1.2961  1.1615 -1.6223
  172MOL0     H23158   6.345   1.943  -0.077 -1.5482 -1.0723  0.7371
  172MOL0     H23159   6.193   1.849  -0.268 -1.2128  1.0915 -1.8903
  172MOL0     H23160   6.334   1.829  -0.367  2.4238 -0.7475  1.3419
  172MOL0     H23161   6.261   2.114  -0.259  3.4455  0.1305  1.0830
  172MOL0     H23162   6.375   2.073  -0.376 -0.7318 -0.8086 -1.4211
  172MOL0     H23163   6.202   2.039  -0.550  0.1795 -1.7397  1.3952
  172MOL0     H23164   6.080   2.010  -0.422 -1.6148  1.7659  1.8123
  172MOL0     H23165   6.232   2.275  -0.440 -0.3668  1.2802  2.5206
  172MOL0     H23166   6.095   2.246  -0.554 -1.3970 -1.6913  1.2340
  172MOL0     H23167   6.057   2.358  -0.305  1.0650 -1.4092  3.5305
  172MOL0     H23168   6.058   2.205  -0.257 -2.1735  1.6046  2.0561
  172MOL0     H23169   5.878   2.305  -0.486 -3.7192 -0.3551  0.1528
  172MOL0     H23170   5.872   2.150  -0.410  2.0334  0.1121 -2.1747
  172MOL0     H23171   5.620   2.190  -0.297 -0.5851 -0.1147  0.6417
  172MOL0     H23172   5.441   2.284  -0.155  0.7902 -1.0626 -0.5261
  172MOL0     H23173   5.510   2.310   0.009 -0.9920  0.5461  0.4554
  172MOL0     H23174   5.459   2.550   0.000 -0.0764 -1.0205  0.3431
  172MOL0     H23175   5.442   2.548  -0.176  0.3601 -3.6934 -2.6833
  172MOL0     H23176   5.232   2.443  -0.173 -1.9763  1.9362  0.3767
  172MOL0     H23177   5.237   2.577  -0.061  0.0913 -0.2660  1.7640
  172MOL0     H23178   5.275   2.287   0.014  2.0469  0.7059 -1.3756
  172MOL0     H23179   5.120   2.366   0.025 -0.0616 -0.1509 -1.5301
  172MOL0     H23180   5.231   2.545   0.402  0.1205  0.3743  0.0752
  172MOL0     H23181   5.185   2.434   0.605 -0.3732  0.9963  0.5849
  172MOL0     H23182   5.284   1.944   0.806 -1.8761  3.2029 -3.4478
  172MOL0     H23183   5.244   1.772   0.984 -0.7228 -1.3082  0.6832
  172MOL0     H23184   4.838   1.621   1.079 -1.0104  0.7688 -0.8585
  172MOL0     H23185   4.900   1.515   0.946  2.8064  1.6650 -0.9921
  172MOL0     H23186   5.033   1.389   1.116 -2.6734 -1.8878 -0.5687
  172MOL0     H23187   5.000   1.510   1.233  4.6490  1.2582 -2.2586
  172MOL0     H23188   4.813   1.460   1.288  1.5591 -1.9419  1.6420
  172MOL0     H23189   4.759   1.394   1.123 -1.1712  0.4144  1.5815
  172MOL0     H23190   4.968   1.263   1.306 -0.5492  5.2820 -0.4742
  172MOL0     H23191   4.883   1.179   1.183 -1.1826 -0.5162 -0.0735
  172MOL0     H23192   4.768   1.274   1.452 -4.4326  3.5240 -2.0337
  172MOL0     H23193   4.814   1.108   1.402  1.6851  1.4574  0.6846
  172MOL0     H23194   4.583   1.277   1.276 -0.4983 -1.9226 -1.3838
  172MOL0     H23195   4.621   1.114   1.239  1.4573  2.2186 -2.3005
  172MOL0     H23196   4.592   1.054   1.486 -1.2071 -0.2022  2.3850
  172MOL0     H23197   4.449   1.079   1.394 -0.1804  1.1387 -1.5449
  172MOL0     H23198   4.556   1.314   1.545  0.0487  0.4695  0.0934
  172MOL0     H23199   4.393   1.278   1.465  2.3014  1.8888 -1.8924
  172MOL0     H23200   4.842   1.732   0.880  0.9530 -1.1004 -0.2430
  172MOL0     H23201   4.861   1.928   0.714 -0.6804  0.0053  1.3648
  172MOL0     H23202   5.116   2.060   0.398 -2.5103 -0.2808 -0.2459
  172MOL0     H23203   5.199   2.166   0.196  1.8378 -2.3902  1.1565
  172MOL0     H23204   6.576   1.548  -0.171  1.0233 -0.3094 -1.1425
  172MOL0     H23205   6.741   1.375  -0.123  4.1760 -2.0039  1.7495
  172MOL0     H23206   6.947   1.101   0.076  0.0002  0.4867 -1.3493
  172MOL0     H23207   7.081   0.926   0.123 -0.4394 -0.7874  0.8633
  172MOL0     H23208   7.527   0.957   0.077  1.0090  1.4616 -1.9098
  172MOL0     H23209   7.460   0.925  -0.088 -2.2542 -1.8857  0.5744
  172MOL0     H23210   7.410   0.680  -0.011 -2.1605  4.2163 -0.9266
  172MOL0     H23211   7.549   0.729   0.100  0.7206  1.3005  0.2130
  172MOL0     H23212   7.704   0.734  -0.071 -1.1836  2.2916  0.8633
  172MOL0     H23213   7.590   0.792  -0.183  0.3088 -2.3142 -1.5712
  172MOL0     H23214   7.496   0.559  -0.211 -1.3189 -4.3895  1.5410
  172MOL0     H23215   7.667   0.579  -0.253  2.2383 -1.8180  1.3981
  172MOL0     H23216   7.637   0.266   0.040  0.1769  0.9555  0.1586
  172MOL0     H23217   7.428   1.161   0.062 -0.5390 -1.2164  2.1036
  172MOL0     H23218   7.432   1.389   0.108 -0.5160 -1.3553 -1.0529
  172MOL0     H23219   7.366   1.432  -0.041  1.2044 -0.2469 -0.4510
  172MOL0     H23220   7.272   1.482   0.098 -3.6165 -0.0306 -2.7082
  173MOL0     O23221   8.511   0.820   8.054 -0.1504  0.0733 -0.3826
  173MOL0     C23222   8.396   0.789   8.062  0.6678 -0.3081 -0.1640
  173MOL0     O23223   8.298   0.827   7.968 -0.5711  0.9909  0.9779
  173MOL0     C23224   8.327   0.858   7.834  0.1274 -1.1264 -0.3242
  173MOL0     C23225   8.362   0.994   7.811 -0.4729  0.5825 -0.5534
  173MOL0     C23226   8.365   1.037   7.682 -0.2685  0.1259  1.0863
  173MOL0     C23227   8.344   0.952   7.571  0.3775  0.1726 -0.3368
  173MOL0     O23228   8.356   1.003   7.447  0.0796  0.1636  0.6922
  173MOL0     C23229   8.292   0.944   7.329 -0.3049 -0.1206 -0.1747
  173MOL0     C23230   8.147   0.901   7.321 -1.0959  0.2073  0.6983
  173MOL0     C23231   8.059   0.986   7.413 -0.6090  0.3311 -0.1098
  173MOL0     C23232   7.915   0.954   7.369 -0.6309 -0.2724  0.3295
  173MOL0     C23233   7.811   1.025   7.452 -0.9460  1.0898  0.1145
  173MOL0     C23234   7.774   0.946   7.571 -0.3202 -0.8199  0.6524
  173MOL0     C23235   7.648   0.984   7.645 -0.2733 -0.0382  0.1342
  173MOL0     C23236   7.515   0.953   7.580 -0.1432  0.2042  0.2220
  173MOL0     N23237   7.400   1.015   7.648  0.1740  0.3186 -0.1552
  173MOL0     C23238   7.293   0.946   7.699 -0.0274 -0.2654 -0.7983
  173MOL0     C23239   7.202   1.035   7.746 -0.4065 -0.1181 -0.3322
  173MOL0     C23240   7.083   1.003   7.825 -0.2512 -0.3681 -0.1618
  173MOL0     C23241   6.975   0.941   7.739 -0.2595  0.1421  0.1124
  173MOL0     C23242   6.956   1.011   7.599 -0.2377 -0.5530 -0.0835
  173MOL0     C23243   6.822   0.968   7.541 -0.1923  0.0287 -0.3077
  173MOL0     O23244   6.727   1.061   7.586  0.4643  0.4256 -0.6596
  173MOL0     C23245   6.595   1.048   7.544 -0.7476  0.9776 -0.3679
  173MOL0     C23246   6.543   0.933   7.477 -0.7879 -0.9800 -0.0865
  173MOL0     C23247   6.408   0.926   7.465 -1.0097  0.3798  0.2860
  173MOL0     C23248   6.312   1.021   7.515 -0.3555 -0.4918 -1.2149
  173MOL0     C23249   6.167   0.997   7.492 -1.0022  0.2801 -0.0445
  173MOL0     O23250   6.129   0.896   7.407 -0.4485 -0.1176  0.1984
  173MOL0     C23251   5.997   0.899   7.364 -0.1994  0.3628 -0.0868
  173MOL0     C23252   5.973   0.944   7.233 -0.7245 -0.6548  0.0344
  173MOL0     C23253   5.844   0.963   7.186 -0.1808 -0.5360 -0.5294
  173MOL0     C23254   5.739   0.958   7.277 -0.7764 -0.2137 -0.2160
  173MOL0     O23255   5.621   0.999   7.228  0.1024  0.1418  0.2193
  173MOL0     C23256   5.570   0.916   7.118  0.7338 -1.0073 -0.3611
  173MOL0     C23257   5.556   0.758   7.129  0.5074  0.2631 -0.0602
  173MOL0     C23258   5.461   0.723   7.247 -0.9990  0.5339 -0.2957
  173MOL0     C23259   5.434   0.574   7.249  0.2863  0.2861  0.4176
  173MOL0     C23260   5.333   0.543   7.361 -0.0555  0.0518 -0.4429
  173MOL0     C23261   5.274   0.401   7.374  0.6176  0.1374 -0.6011
  173MOL0     C23262   5.143   0.401   7.466 -1.4261 -0.7122  0.5010
  173MOL0     C23263   5.109   0.262   7.503 -0.0904 -0.4795 -0.6013
  173MOL0    Cl23264   5.053   0.173   7.358 -0.6115 -0.2025  0.5563
  173MOL0     C23265   5.759   0.916   7.405  0.1642 -1.6537  0.7670
  173MOL0     C23266   5.888   0.892   7.455  0.1005  0.2481  0.1625
  173MOL0     O23267   6.094   1.080   7.541 -0.4290 -0.5718  0.4700
  173MOL0     C23268   6.364   1.134   7.570  1.1111  0.6052 -0.1058
  173MOL0     C23269   6.501   1.148   7.584 -0.4553 -0.1625 -0.0205
  173MOL0     N23270   7.245   1.163   7.703  0.2069  0.4855  0.1158
  173MOL0     N23271   7.356   1.146   7.632  0.0228 -0.3151  0.6891
  173MOL0     C23272   8.311   0.820   7.593 -0.0348  1.3961  0.1875
  173MOL0     C23273   8.298   0.776   7.724  0.1193  0.7016  0.4131
  173MOL0     C23274   8.351   0.721   8.183  0.5072 -0.3412 -0.8060
  173MOL0     C23275   8.446   0.640   8.254  0.2550 -1.0468  0.2891
  173MOL0     C23276   8.414   0.570   8.369 -1.0599 -0.0239 -0.2225
  173MOL0     C23277   8.288   0.595   8.422 -0.3541 -0.2215 -0.4749
  173MOL0     O23278   8.254   0.521   8.528 -0.0621  1.1805 -0.0550
  173MOL0     C23279   8.130   0.523   8.606 -0.3256 -0.2963  0.0434
  173MOL0     C23280   8.125   0.652   8.691 -0.0344  1.2309 -0.2850
  173MOL0     C23281   8.009   0.643   8.788  0.9702 -0.6381  0.2923
  173MOL0     C23282   7.872   0.616   8.724 -0.3990 -0.8216 -1.5032
  173MOL0     C23283   7.839   0.715   8.627 -1.0600 -0.0130 -1.2382
  173MOL0     C23284   7.815   0.795   8.543 -0.4084  0.0184 -0.5775
  173MOL0     C23285   8.192   0.683   8.364 -0.3379 -0.0131  0.1835
  173MOL0     C23286   8.222   0.746   8.247 -1.2499  0.1741  0.7804
  173MOL0     C23287   8.123   0.845   8.192 -0.2798 -0.0386  0.2023
  173MOL0     H23288   8.393   1.060   7.891  0.8445 -1.2083  0.4852
  173MOL0     H23289   8.404   1.137   7.665  1.3583 -0.6976 -0.3264
  173MOL0     H23290   8.313   1.016   7.249 -0.3181 -1.5241 -1.5004
  173MOL0     H23291   8.336   0.847   7.300 -0.1583  0.3834 -1.7486
  173MOL0     H23292   8.130   0.797   7.350 -1.0931  0.3071  1.0615
  173MOL0     H23293   8.109   0.917   7.219 -1.3258  1.2842  0.9340
  173MOL0     H23294   8.083   1.092   7.405 -1.5578  0.4313 -3.0902
  173MOL0     H23295   8.080   0.960   7.517  1.2737  1.8966 -0.0382
  173MOL0     H23296   7.899   0.987   7.266  2.3671 -0.5614 -0.3134
  173MOL0     H23297   7.896   0.847   7.365 -1.4216 -0.0876 -1.4616
  173MOL0     H23298   7.848   1.124   7.481 -0.9114  1.2264 -0.3818
  173MOL0     H23299   7.726   1.032   7.385 -1.6102 -1.5491  0.5806
  173MOL0     H23300   7.751   0.840   7.562 -0.0484 -0.8779  0.6283
  173MOL0     H23301   7.860   0.958   7.637  1.1987 -0.7829 -1.2468
  173MOL0     H23302   7.643   1.093   7.640 -2.7859 -0.1371 -0.8418
  173MOL0     H23303   7.659   0.953   7.749  0.6821 -1.6812 -0.4102
  173MOL0     H23304   7.503   0.981   7.474 -0.4392  1.2677  0.5245
  173MOL0     H23305   7.508   0.844   7.578  0.1351  0.1907 -1.1580
  173MOL0     H23306   7.291   0.840   7.721  0.7381  0.3254  2.7351
  173MOL0     H23307   7.111   0.935   7.906 -0.8773 -0.3347  0.0918
  173MOL0     H23308   7.059   1.101   7.866  0.7985  0.1302 -0.6988
  173MOL0     H23309   7.005   0.838   7.717  3.0466  0.9515  0.3657
  173MOL0     H23310   6.882   0.950   7.796 -0.0112  4.2173  0.1414
  173MOL0     H23311   7.038   0.991   7.530  0.9662  0.8554  0.8829
  173MOL0     H23312   6.957   1.119   7.609 -0.3161 -0.5514 -0.0936
  173MOL0     H23313   6.796   0.863   7.562 -2.7793  1.0226  2.1417
  173MOL0     H23314   6.828   0.979   7.433  1.5135  0.1036 -0.2362
  173MOL0     H23315   6.594   0.842   7.446 -1.1915 -0.6060 -1.9492
  173MOL0     H23316   6.388   0.827   7.423  1.0492 -1.0904  2.4951
  173MOL0     H23317   6.058   0.968   7.170 -1.4678 -0.3789 -0.8787
  173MOL0     H23318   5.829   0.993   7.082  2.9117 -0.4512 -1.0531
  173MOL0     H23319   5.467   0.953   7.116  0.5181 -1.4254  1.4210
  173MOL0     H23320   5.622   0.939   7.024 -1.1803 -0.4181 -1.3343
  173MOL0     H23321   5.510   0.724   7.036  1.1766  1.3024 -0.7922
  173MOL0     H23322   5.655   0.717   7.150  0.3338 -1.1088 -1.7548
  173MOL0     H23323   5.510   0.750   7.341  1.2134 -2.8514 -0.3047
  173MOL0     H23324   5.359   0.763   7.243 -1.4702 -0.6584 -0.7762
  173MOL0     H23325   5.525   0.513   7.246  0.0027 -0.1331 -3.0582
  173MOL0     H23326   5.383   0.559   7.154  1.2557 -1.4595  0.1353
  173MOL0     H23327   5.251   0.616   7.361  0.3085  0.4870  0.9755
  173MOL0     H23328   5.393   0.549   7.452  1.8781 -1.5571 -1.5395
  173MOL0     H23329   5.240   0.369   7.275  1.8769 -1.7034 -0.4967
  173MOL0     H23330   5.357   0.337   7.406  0.3228 -1.0364 -2.0663
  173MOL0     H23331   5.059   0.444   7.411 -2.7281 -1.5801  1.7414
  173MOL0     H23332   5.149   0.464   7.556  0.8004 -0.7582  0.4426
  173MOL0     H23333   5.195   0.214   7.553 -1.8284 -0.5065  2.6542
  173MOL0     H23334   5.024   0.253   7.571 -2.0079  2.9353 -2.3451
  173MOL0     H23335   5.671   0.912   7.468 -0.4193 -0.3204  0.0779
  173MOL0     H23336   5.909   0.854   7.554  1.4269  0.5295  0.0041
  173MOL0     H23337   6.297   1.212   7.605 -0.5355 -1.0289  0.5186
  173MOL0     H23338   6.549   1.236   7.626  4.5616 -1.8281 -1.6159
  173MOL0     H23339   8.291   0.752   7.511  0.9411  0.4413  0.7134
  173MOL0     H23340   8.255   0.678   7.747 -1.7069  0.7820 -2.2481
  173MOL0     H23341   8.541   0.631   8.202 -0.8963  1.6287 -2.5887
  173MOL0     H23342   8.477   0.493   8.412  1.4560  1.0626 -1.7642
  173MOL0     H23343   8.126   0.432   8.666 -4.1076 -0.0358  0.4569
  173MOL0     H23344   8.042   0.533   8.540 -0.2259  0.8368  0.0637
  173MOL0     H23345   8.129   0.743   8.629 -0.1894  2.0858  0.9295
  173MOL0     H23346   8.207   0.638   8.761 -0.8170 -2.4437  0.0791
  173MOL0     H23347   8.003   0.741   8.836  0.4238 -1.0291  1.0290
  173MOL0     H23348   8.020   0.570   8.869 -0.1781 -1.2475 -0.0759
  173MOL0     H23349   7.861   0.513   8.689  0.4648 -0.5837 -2.5352
  173MOL0     H23350   7.794   0.623   8.800  0.9737  1.6209 -0.1604
  173MOL0     H23351   7.800   0.873   8.471  2.6126  1.4142  0.1375
  173MOL0     H23352   8.094   0.707   8.404 -1.7003 -0.3488 -2.7577
  173MOL0     H23353   8.049   0.791   8.132 -0.2021  1.8800 -1.7323
  173MOL0     H23354   8.078   0.892   8.280  0.2766  2.6106 -0.8400
  173MOL0     H23355   8.177   0.925   8.140  2.9353 -0.0957  3.1106
  174MOL0     O23356   6.177   7.657   3.690 -0.5953 -0.6067 -0.2136
  174MOL0     C23357   6.298   7.684   3.670 -0.2569 -0.0242  0.3471
  174MOL0     O23358   6.339   7.756   3.567  1.2636  0.5434  0.2364
  174MOL0     C23359   6.348   7.696   3.445 -0.6833  0.0187 -0.9557
  174MOL0     C23360   6.377   7.784   3.332  0.1580  0.9387 -1.2286
  174MOL0     C23361   6.373   7.735   3.203 -0.3031 -0.0481 -0.3860
  174MOL0     C23362   6.336   7.606   3.181  0.1391 -0.2321  0.5497
  174MOL0     O23363   6.321   7.551   3.053 -0.6330  0.2307 -0.5942
  174MOL0     C23364   6.339   7.625   2.934  0.0969  0.6309  0.0641
  174MOL0     C23365   6.295   7.543   2.808  0.9237  0.8637 -1.1193
  174MOL0     C23366   6.398   7.430   2.792 -0.9151 -0.1635  0.5421
  174MOL0     C23367   6.345   7.328   2.688 -0.6044 -0.5856 -0.2071
  174MOL0     C23368   6.449   7.223   2.643  0.5629 -0.0344 -0.4615
  174MOL0     C23369   6.537   7.268   2.514  0.2155 -0.0033 -0.4338
  174MOL0     C23370   6.626   7.396   2.528  0.3433  0.2731 -0.5672
  174MOL0     C23371   6.730   7.397   2.422 -0.4397  0.2264 -0.6888
  174MOL0     N23372   6.829   7.286   2.435 -0.4103 -0.6476  0.3124
  174MOL0     C23373   6.844   7.187   2.342  0.3969  0.1605 -1.0518
  174MOL0     C23374   6.952   7.123   2.387 -0.0256 -0.8038  0.0617
  174MOL0     C23375   7.017   7.003   2.326 -0.3830  0.1840 -0.1078
  174MOL0     C23376   7.111   7.027   2.207 -0.3346 -1.7790  0.2005
  174MOL0     C23377   7.234   7.090   2.272  0.1812  0.0167  1.2236
  174MOL0     C23378   7.319   7.170   2.170  0.3929 -0.2232  0.0595
  174MOL0     O23379   7.364   7.088   2.065 -0.0460 -0.3582  0.6513
  174MOL0     C23380   7.497   7.054   2.054 -0.6591  1.0166  0.2626
  174MOL0     C23381   7.543   7.005   1.928  0.3289 -0.4432 -0.5853
  174MOL0     C23382   7.670   6.966   1.907 -0.8651  0.5070 -0.7000
  174MOL0     C23383   7.767   6.973   2.003 -0.3078  0.3814 -0.5231
  174MOL0     C23384   7.921   6.939   1.963  0.4849  0.0042 -0.9626
  174MOL0     O23385   8.024   6.951   2.049 -0.2972  0.4570 -0.5481
  174MOL0     C23386   8.153   6.948   2.006  0.1654  0.6307 -0.5354
  174MOL0     C23387   8.211   7.017   1.897  0.3058  0.0928 -0.8050
  174MOL0     C23388   8.348   6.990   1.861  0.2091 -0.5428  0.3873
  174MOL0     C23389   8.425   6.910   1.947 -0.4111 -0.1258  0.1245
  174MOL0     O23390   8.550   6.884   1.906  0.7573 -0.0488  0.1776
  174MOL0     C23391   8.621   6.781   1.975 -1.1990  0.5732  0.3278
  174MOL0     C23392   8.751   6.737   1.912  0.1521 -0.1908 -0.0338
  174MOL0     C23393   8.870   6.829   1.952  0.6431 -0.2446 -0.4503
  174MOL0     C23394   8.844   6.980   1.933  0.2840  0.2355  0.1875
  174MOL0     C23395   8.799   7.027   1.795  0.5943  0.0777  0.2934
  174MOL0     C23396   8.891   7.124   1.730  0.5869  0.7642  0.8074
  174MOL0     C23397   8.826   7.183   1.598  0.0577 -0.1047  0.0722
  174MOL0     C23398   8.916   7.266   1.513 -0.2355  0.2247  0.1746
  174MOL0    Cl23399   8.976   7.405   1.597  0.1668  0.3383  0.2625
  174MOL0     C23400   8.369   6.866   2.074 -1.1361  1.0278  0.1062
  174MOL0     C23401   8.232   6.877   2.090 -0.5453 -0.4913 -0.3805
  174MOL0     O23402   7.940   6.903   1.847  0.0824  0.1022 -0.2844
  174MOL0     C23403   7.730   7.008   2.133 -0.1556  0.1797  0.3183
  174MOL0     C23404   7.592   7.050   2.157 -0.2658 -0.1259 -0.2773
  174MOL0     N23405   6.995   7.178   2.511  0.5478  0.3775 -0.3237
  174MOL0     N23406   6.914   7.264   2.541 -0.6551 -0.0462  0.4512
  174MOL0     C23407   6.316   7.514   3.287  0.2265 -0.0344  0.5422
  174MOL0     C23408   6.304   7.559   3.421  0.3464 -0.5507 -0.5095
  174MOL0     C23409   6.402   7.629   3.763  1.1580  1.0776 -0.4560
  174MOL0     C23410   6.361   7.533   3.862  0.5673 -0.3069 -1.1568
  174MOL0     C23411   6.454   7.467   3.948  0.6574  1.0608  0.2907
  174MOL0     C23412   6.578   7.517   3.962  0.4897 -0.8353  1.0250
  174MOL0     O23413   6.647   7.457   4.059 -0.4906 -0.6126  0.2830
  174MOL0     C23414   6.776   7.407   4.026  0.2014 -0.0572  0.9031
  174MOL0     C23415   6.780   7.272   3.941 -0.9252 -0.3917  0.2954
  174MOL0     C23416   6.780   7.290   3.794  0.5981  0.3211  1.0921
  174MOL0     C23417   6.800   7.159   3.711 -0.5851  0.1203 -0.7813
  174MOL0     C23418   6.947   7.137   3.704 -0.2826 -1.1833  0.3602
  174MOL0     C23419   7.059   7.128   3.661 -0.8055 -0.8920  0.1454
  174MOL0     C23420   6.621   7.618   3.879  0.3314  0.5530 -0.8536
  174MOL0     C23421   6.539   7.673   3.773 -0.2650 -1.3745  0.2723
  174MOL0     C23422   6.595   7.804   3.699 -0.3347 -0.5887  0.1058
  174MOL0     H23423   6.405   7.888   3.349 -3.9222  2.2836 -1.7355
  174MOL0     H23424   6.396   7.795   3.115 -4.0912  0.8984 -0.9283
  174MOL0     H23425   6.284   7.719   2.927 -0.1361  0.5112  0.3009
  174MOL0     H23426   6.445   7.645   2.917 -0.1048  0.0714 -2.2141
  174MOL0     H23427   6.298   7.607   2.720 -0.0330  2.1619 -0.2435
  174MOL0     H23428   6.193   7.506   2.820  1.1926  0.4073 -0.1556
  174MOL0     H23429   6.413   7.372   2.883 -1.9381  0.3544  1.0667
  174MOL0     H23430   6.497   7.460   2.759  0.6749 -2.9935  2.3186
  174MOL0     H23431   6.263   7.276   2.740 -1.3831  0.7700 -0.0214
  174MOL0     H23432   6.315   7.381   2.597 -2.2358  0.9715  1.1556
  174MOL0     H23433   6.511   7.208   2.732 -1.2038  0.1349  0.8447
  174MOL0     H23434   6.400   7.129   2.619  1.9413 -0.5099 -1.6137
  174MOL0     H23435   6.587   7.171   2.506  0.5715  0.1190  0.2580
  174MOL0     H23436   6.469   7.283   2.429 -0.0320 -1.3642 -0.5063
  174MOL0     H23437   6.671   7.397   2.628  1.1585 -1.4366 -0.8663
  174MOL0     H23438   6.562   7.484   2.527  0.8741  0.6785 -0.0562
  174MOL0     H23439   6.662   7.377   2.340  1.5725 -1.9262 -1.9510
  174MOL0     H23440   6.789   7.489   2.420  1.2379 -0.7484  0.8681
  174MOL0     H23441   6.793   7.182   2.246 -3.0875  3.8225  0.3143
  174MOL0     H23442   7.068   6.941   2.400 -0.3443  2.3306  1.7723
  174MOL0     H23443   6.944   6.927   2.297  0.1581 -0.2028 -0.4657
  174MOL0     H23444   7.133   6.930   2.162  0.9218 -0.6137 -1.8495
  174MOL0     H23445   7.078   7.091   2.125  0.6911 -1.5670 -0.0689
  174MOL0     H23446   7.298   7.014   2.318 -1.2754 -0.8559  1.9025
  174MOL0     H23447   7.208   7.154   2.356 -0.1587  0.1791  0.9986
  174MOL0     H23448   7.398   7.231   2.215  2.0450 -1.9078 -0.4269
  174MOL0     H23449   7.255   7.248   2.130  1.1110 -0.1362 -0.9722
  174MOL0     H23450   7.469   7.019   1.850 -2.1787  0.6173  1.7834
  174MOL0     H23451   7.680   6.928   1.806 -1.0234  0.8196 -0.8366
  174MOL0     H23452   8.141   7.076   1.838 -0.0398 -2.7492 -3.5634
  174MOL0     H23453   8.399   7.020   1.770  2.4197  0.2162  1.7878
  174MOL0     H23454   8.643   6.817   2.076 -1.5875  3.4426 -0.5106
  174MOL0     H23455   8.555   6.694   1.985  2.4008 -2.2113  2.2977
  174MOL0     H23456   8.765   6.633   1.942  1.3601 -0.8933 -2.7448
  174MOL0     H23457   8.745   6.724   1.803  1.8788  3.1211 -0.6531
  174MOL0     H23458   8.891   6.798   2.055  0.6204 -2.8213 -1.1576
  174MOL0     H23459   8.956   6.809   1.888 -0.1250 -0.4453 -1.4383
  174MOL0     H23460   8.930   7.037   1.967 -0.1088  1.1965 -0.3661
  174MOL0     H23461   8.766   6.994   2.008  0.8550  1.7566  0.5273
  174MOL0     H23462   8.718   7.094   1.822  1.2413 -0.0954  2.8902
  174MOL0     H23463   8.772   6.943   1.731  0.5429 -2.3444  3.2854
  174MOL0     H23464   8.898   7.218   1.786 -2.1811  0.3239  2.0549
  174MOL0     H23465   8.994   7.091   1.715 -0.3351 -0.7279 -3.7981
  174MOL0     H23466   8.747   7.256   1.621  0.5793  0.0989  1.3132
  174MOL0     H23467   8.770   7.108   1.543  2.0339  0.2741 -2.6514
  174MOL0     H23468   9.002   7.214   1.469  0.6410  2.5885 -1.0469
  174MOL0     H23469   8.851   7.295   1.430 -2.0209  3.5330  2.4848
  174MOL0     H23470   8.431   6.806   2.140 -2.1217 -1.0475 -0.7735
  174MOL0     H23471   8.172   6.825   2.163 -0.5584  0.0801  0.0287
  174MOL0     H23472   7.807   7.005   2.209  0.5919 -0.0782 -0.4255
  174MOL0     H23473   7.565   7.066   2.261  1.1444 -3.1463  0.6639
  174MOL0     H23474   6.278   7.414   3.268 -3.0337  1.5627 -2.2848
  174MOL0     H23475   6.279   7.485   3.496 -2.6645 -0.8746 -1.6945
  174MOL0     H23476   6.256   7.506   3.865  0.1147  1.4348  0.6153
  174MOL0     H23477   6.427   7.385   4.014 -0.6184 -1.3474 -2.9405
  174MOL0     H23478   6.822   7.378   4.121  2.6464 -0.9805 -0.4674
  174MOL0     H23479   6.838   7.481   3.974 -2.8277  1.7820 -0.3983
  174MOL0     H23480   6.690   7.214   3.964 -1.1465 -0.3355 -0.3972
  174MOL0     H23481   6.867   7.210   3.965  0.8060 -0.1499 -4.3523
  174MOL0     H23482   6.854   7.361   3.755 -1.0946 -0.5212 -4.4423
  174MOL0     H23483   6.684   7.339   3.775  0.6976  0.6682  1.4698
  174MOL0     H23484   6.756   7.076   3.767  2.0485 -1.0415 -0.2704
  174MOL0     H23485   6.757   7.175   3.612  0.1884 -1.2180 -1.3605
  174MOL0     H23486   7.153   7.126   3.610 -1.5656  1.8332 -1.5549
  174MOL0     H23487   6.717   7.668   3.892  0.5424 -0.4587  2.2225
  174MOL0     H23488   6.700   7.820   3.728 -0.5502  2.1683 -0.3896
  174MOL0     H23489   6.589   7.810   3.590  2.7470  2.7254 -0.0870
  174MOL0     H23490   6.542   7.893   3.733  1.7698  2.2536 -3.4102
  175MOL0     O23491   6.237   7.962   7.727 -0.2310  0.7460  0.5093
  175MOL0     C23492   6.237   8.002   7.849  1.0811  1.0963  0.0844
  175MOL0     O23493   6.233   7.915   7.954  0.5187 -0.1418  0.2409
  175MOL0     C23494   6.230   7.775   7.946 -0.3725 -0.5633 -1.0141
  175MOL0     C23495   6.313   7.693   7.867  0.3876 -0.2546  0.1803
  175MOL0     C23496   6.313   7.562   7.888  0.0533 -0.5239 -1.7723
  175MOL0     C23497   6.233   7.500   7.986  0.1325  0.1209  0.2273
  175MOL0     O23498   6.233   7.355   7.991 -0.1927 -0.3663 -0.0956
  175MOL0     C23499   6.209   7.292   8.117 -0.4065 -0.0898 -0.7301
  175MOL0     C23500   6.260   7.142   8.094 -0.4780  0.0795  1.0438
  175MOL0     C23501   6.250   7.057   8.212  0.0362  0.1898 -0.0911
  175MOL0     C23502   6.106   7.015   8.250 -0.1823 -0.9810 -0.9247
  175MOL0     C23503   6.106   6.970   8.406  0.2841 -0.4587  0.6730
  175MOL0     C23504   6.179   6.847   8.442  0.3349 -0.7530  0.0662
  175MOL0     C23505   6.113   6.757   8.549  0.3067  0.6902 -0.8796
  175MOL0     C23506   6.194   6.640   8.607  0.1898  0.6745 -0.7788
  175MOL0     N23507   6.256   6.544   8.511  0.4207  0.1024 -0.1949
  175MOL0     C23508   6.356   6.567   8.422  0.1167  0.6241  0.2115
  175MOL0     C23509   6.386   6.448   8.360  0.7109 -0.0703 -0.6636
  175MOL0     C23510   6.470   6.439   8.239 -0.1028  0.1378 -0.1574
  175MOL0     C23511   6.472   6.551   8.135 -0.0342 -0.3059  0.6552
  175MOL0     C23512   6.338   6.599   8.092  0.2618 -0.1047 -0.6166
  175MOL0     C23513   6.236   6.479   8.075  0.0509 -0.2971  0.4375
  175MOL0     O23514   6.284   6.404   7.954 -0.2695 -0.5654  0.2353
  175MOL0     C23515   6.241   6.282   7.940 -0.3849 -0.2574 -1.0842
  175MOL0     C23516   6.115   6.238   7.975  0.0081  0.7861 -0.2642
  175MOL0     C23517   6.061   6.107   7.939 -1.2082 -1.0168 -0.8395
  175MOL0     C23518   6.153   6.016   7.884 -0.0275  0.1062  0.2032
  175MOL0     C23519   6.107   5.872   7.856 -0.2812 -0.7185 -0.3462
  175MOL0     O23520   6.163   5.808   7.755 -0.4469 -0.3895 -0.0411
  175MOL0     C23521   6.153   5.673   7.765 -0.5397  1.2010  0.0725
  175MOL0     C23522   6.220   5.588   7.848 -0.8243 -0.3394  0.4118
  175MOL0     C23523   6.191   5.455   7.858 -0.1870 -0.4119 -0.4519
  175MOL0     C23524   6.089   5.401   7.774 -0.8051  0.0082 -0.7968
  175MOL0     O23525   6.071   5.263   7.756 -0.0830  0.0506  0.5936
  175MOL0     C23526   6.120   5.175   7.862 -1.1022 -0.4110 -0.5937
  175MOL0     C23527   6.097   5.032   7.820 -0.3141  0.7971 -0.8486
  175MOL0     C23528   5.948   4.993   7.870 -0.1102 -0.4389  1.2906
  175MOL0     C23529   5.951   4.951   8.018 -0.2957  0.5315  1.3456
  175MOL0     C23530   5.815   4.943   8.072 -0.3879  0.2254 -0.7245
  175MOL0     C23531   5.813   4.888   8.211 -0.6558  0.1091 -0.8488
  175MOL0     C23532   5.666   4.896   8.256 -0.0557  0.2149 -0.2547
  175MOL0     C23533   5.664   4.924   8.402  0.4853  0.2293 -0.1482
  175MOL0    Cl23534   5.731   4.785   8.497 -0.1499  0.2827  0.4340
  175MOL0     C23535   6.030   5.479   7.681 -0.1564 -0.4109 -0.0697
  175MOL0     C23536   6.059   5.615   7.679  0.2300 -0.9579  0.8064
  175MOL0     O23537   6.047   5.821   7.943  0.0188 -0.1011  0.4009
  175MOL0     C23538   6.279   6.063   7.845  0.4489 -0.0301 -0.7482
  175MOL0     C23539   6.315   6.191   7.867 -0.2139  0.2339 -0.8448
  175MOL0     N23540   6.304   6.350   8.419  0.0713  0.2504  0.1336
  175MOL0     N23541   6.222   6.409   8.496  0.5908  0.1961  0.7252
  175MOL0     C23542   6.158   7.582   8.074 -0.6897  0.0538  0.1858
  175MOL0     C23543   6.162   7.718   8.059 -0.1391  0.5805  0.2731
  175MOL0     C23544   6.225   8.151   7.873  0.8026  0.1723  0.2184
  175MOL0     C23545   6.132   8.201   7.970  0.2816 -0.0238  0.1670
  175MOL0     C23546   6.115   8.334   7.987  0.4303  0.5442 -1.0937
  175MOL0     C23547   6.160   8.431   7.892 -0.3556 -0.8971  0.7307
  175MOL0     O23548   6.124   8.566   7.906 -0.2806  0.4771  0.5166
  175MOL0     C23549   6.174   8.669   7.818 -0.0859 -0.4539  0.7070
  175MOL0     C23550   6.078   8.782   7.855  0.7062 -0.3948 -0.1146
  175MOL0     C23551   6.117   8.831   7.995 -0.8797 -0.4887  0.9196
  175MOL0     C23552   6.034   8.946   8.046 -0.3393 -0.5269 -0.2602
  175MOL0     C23553   6.104   9.066   8.104 -0.0199 -0.2819 -0.5602
  175MOL0     C23554   6.163   9.155   8.147 -0.2355 -0.2562 -0.3837
  175MOL0     C23555   6.252   8.381   7.797  0.6866 -0.9137  0.2249
  175MOL0     C23556   6.290   8.248   7.794 -0.3158  0.6925 -0.2567
  175MOL0     C23557   6.392   8.207   7.693 -0.7099  0.1590 -0.2688
  175MOL0     H23558   6.389   7.745   7.808  0.1590  1.1177  1.0592
  175MOL0     H23559   6.388   7.503   7.837  0.0873 -1.5543 -0.5762
  175MOL0     H23560   6.260   7.334   8.204 -1.2067  2.1056 -1.2407
  175MOL0     H23561   6.101   7.293   8.138  0.0250  1.8790  1.9278
  175MOL0     H23562   6.366   7.148   8.066 -0.1779  1.4763  2.3246
  175MOL0     H23563   6.208   7.096   8.009  1.4148 -0.9806  0.3977
  175MOL0     H23564   6.294   7.111   8.297 -1.6139 -3.8525  3.7699
  175MOL0     H23565   6.309   6.968   8.190 -2.0071 -1.3793  0.4032
  175MOL0     H23566   6.038   7.101   8.247  1.7681  0.6141 -1.9615
  175MOL0     H23567   6.051   6.955   8.177 -1.0493 -0.5373 -0.6502
  175MOL0     H23568   6.138   7.047   8.475  0.4742  0.0947 -0.0187
  175MOL0     H23569   6.001   6.949   8.428 -0.3008  0.3116 -1.1524
  175MOL0     H23570   6.196   6.793   8.349  0.4055 -1.7969  0.6786
  175MOL0     H23571   6.281   6.876   8.468  0.3717  2.5326 -2.9439
  175MOL0     H23572   6.027   6.711   8.499 -0.1630 -2.3950  2.3404
  175MOL0     H23573   6.069   6.802   8.639 -0.1726  0.9584 -1.2435
  175MOL0     H23574   6.280   6.690   8.653  1.4558 -0.1918 -2.1341
  175MOL0     H23575   6.141   6.593   8.690 -1.7601 -2.9832 -3.8135
  175MOL0     H23576   6.391   6.667   8.402  0.2959  0.6307  0.5535
  175MOL0     H23577   6.574   6.424   8.271 -0.0781 -2.0083 -1.0709
  175MOL0     H23578   6.446   6.349   8.182 -1.9117  0.9031 -0.6745
  175MOL0     H23579   6.526   6.634   8.183  0.4090 -0.9838  1.3445
  175MOL0     H23580   6.523   6.528   8.041  0.9811 -1.5475  1.4811
  175MOL0     H23581   6.343   6.667   8.006 -2.2898  1.7948  0.6143
  175MOL0     H23582   6.299   6.664   8.170 -0.3628  0.0953 -1.0863
  175MOL0     H23583   6.136   6.518   8.052 -1.5971 -4.5838 -0.6323
  175MOL0     H23584   6.213   6.417   8.162 -3.9384 -2.2390 -1.6839
  175MOL0     H23585   6.044   6.300   8.029  0.5955  3.1176 -2.0197
  175MOL0     H23586   5.954   6.098   7.955 -1.4710  0.6995 -1.4546
  175MOL0     H23587   6.294   5.634   7.913  0.7991 -1.9076 -0.2444
  175MOL0     H23588   6.244   5.386   7.922  2.6468  0.3837 -1.7743
  175MOL0     H23589   6.229   5.188   7.862 -0.7290 -3.1096  0.0918
  175MOL0     H23590   6.091   5.205   7.964 -1.8415 -1.9886 -0.3140
  175MOL0     H23591   6.106   5.025   7.712 -0.2459  0.2715 -0.8134
  175MOL0     H23592   6.174   4.972   7.869 -0.1780  0.8334 -1.0203
  175MOL0     H23593   5.893   5.084   7.843  1.8472 -0.6259 -4.8583
  175MOL0     H23594   5.901   4.917   7.807 -0.5995  1.8134 -1.2890
  175MOL0     H23595   6.008   5.016   8.084  2.5911 -0.5441  0.0511
  175MOL0     H23596   6.002   4.855   8.011  2.9464  2.2529 -3.1999
  175MOL0     H23597   5.753   4.883   8.005 -0.3270  0.9800 -1.4639
  175MOL0     H23598   5.769   5.042   8.074  0.9975  0.8940 -0.2670
  175MOL0     H23599   5.857   4.788   8.215 -2.3560 -0.7126 -1.5954
  175MOL0     H23600   5.880   4.943   8.278 -2.5980 -1.0267  2.1965
  175MOL0     H23601   5.623   4.800   8.227  3.3052 -1.0982 -1.3769
  175MOL0     H23602   5.602   4.971   8.208 -1.0239  0.6636  1.6230
  175MOL0     H23603   5.703   5.022   8.430  1.5299 -0.3608  0.5247
  175MOL0     H23604   5.561   4.928   8.438  0.5375 -0.4946  0.1140
  175MOL0     H23605   5.969   5.426   7.609 -0.8470  0.5677 -0.2335
  175MOL0     H23606   6.006   5.688   7.617  1.4665  0.0566  0.8950
  175MOL0     H23607   6.351   5.995   7.802  0.4270  0.9216 -2.3441
  175MOL0     H23608   6.418   6.209   7.837  0.0652 -3.1564 -2.4115
  175MOL0     H23609   6.114   7.545   8.166  1.2946 -2.3170  0.3030
  175MOL0     H23610   6.101   7.784   8.120 -0.2078  0.4135  0.3833
  175MOL0     H23611   6.068   8.135   8.028 -2.9632  2.7212  0.0247
  175MOL0     H23612   6.054   8.363   8.072 -1.5670  1.2791 -2.6705
  175MOL0     H23613   6.166   8.647   7.711 -1.2491  2.3493  0.1160
  175MOL0     H23614   6.277   8.671   7.853  0.1979  1.2905 -0.1559
  175MOL0     H23615   5.973   8.752   7.857 -0.4147  3.1758  2.2430
  175MOL0     H23616   6.086   8.859   7.778  1.0204 -2.3389 -2.1285
  175MOL0     H23617   6.221   8.864   7.987 -0.1161 -3.0643 -2.8377
  175MOL0     H23618   6.126   8.748   8.065  0.5730 -1.0360  0.1288
  175MOL0     H23619   5.978   8.987   7.962 -0.2885 -1.4298 -0.7447
  175MOL0     H23620   5.957   8.901   8.109 -0.8632  0.0051 -0.5069
  175MOL0     H23621   6.207   9.239   8.198 -0.9928  1.0956 -1.8619
  175MOL0     H23622   6.305   8.462   7.747  0.3294  1.8252  3.8534
  175MOL0     H23623   6.344   8.194   7.596 -0.7860  3.8534 -0.8702
  175MOL0     H23624   6.462   8.289   7.676  0.5749 -0.7341  0.4915
  175MOL0     H23625   6.457   8.131   7.739  1.6276  0.1659 -3.2480
  176MOL0     O23626   4.491   4.345   0.836 -0.3813  0.0213 -0.0487
  176MOL0     C23627   4.423   4.272   0.767  0.0964 -0.0798 -0.8388
  176MOL0     O23628   4.290   4.287   0.747  0.1364 -1.0232  0.8787
  176MOL0     C23629   4.232   4.394   0.822 -0.2764 -0.3620 -0.3371
  176MOL0     C23630   4.261   4.520   0.791 -0.4589 -0.1658 -0.1316
  176MOL0     C23631   4.222   4.635   0.870 -0.1144  1.1009  0.2311
  176MOL0     C23632   4.129   4.607   0.979  0.5060  0.0414 -0.2211
  176MOL0     O23633   4.079   4.717   1.056 -0.1120  0.0648 -0.2442
  176MOL0     C23634   4.181   4.805   1.107 -0.2452  0.6784 -0.0399
  176MOL0     C23635   4.156   4.826   1.253 -1.2290  0.4705  0.1974
  176MOL0     C23636   4.035   4.912   1.288  0.0750  0.1759  0.3977
  176MOL0     C23637   4.033   4.917   1.443 -1.2326 -0.4365  0.5046
  176MOL0     C23638   3.917   5.012   1.507  0.3316 -0.1797 -0.4411
  176MOL0     C23639   3.958   5.154   1.472  0.4247  0.7950  0.5603
  176MOL0     C23640   3.843   5.240   1.524 -0.0439  0.3144  1.0916
  176MOL0     C23641   3.707   5.216   1.449 -0.6170  0.0521  0.0044
  176MOL0     N23642   3.617   5.328   1.476 -0.3409  0.1282  0.8940
  176MOL0     C23643   3.486   5.318   1.424 -0.0020 -0.5549  0.9287
  176MOL0     C23644   3.408   5.409   1.486  0.1625 -0.3986 -0.1946
  176MOL0     C23645   3.265   5.426   1.473  0.4755 -0.3066  0.0590
  176MOL0     C23646   3.209   5.489   1.343 -0.5702 -0.0639 -0.3547
  176MOL0     C23647   3.061   5.466   1.323  0.2923  0.0507  0.1335
  176MOL0     C23648   3.038   5.329   1.260  0.4680  0.7678  0.7527
  176MOL0     O23649   2.904   5.288   1.235  0.7315 -0.1487 -0.3669
  176MOL0     C23650   2.833   5.247   1.344 -0.3208 -0.3439  0.0227
  176MOL0     C23651   2.879   5.222   1.472 -0.5385  1.0285 -1.0537
  176MOL0     C23652   2.808   5.165   1.580 -0.1212 -0.1652 -0.1250
  176MOL0     C23653   2.675   5.145   1.553 -0.5077 -0.3532 -0.1424
  176MOL0     C23654   2.582   5.095   1.664  0.5956 -0.4258 -0.1264
  176MOL0     O23655   2.615   5.112   1.802  0.3049  0.6281 -0.0079
  176MOL0     C23656   2.544   5.058   1.909 -0.1649 -0.9074 -0.2474
  176MOL0     C23657   2.586   5.095   2.036 -0.6625  0.4010  0.8389
  176MOL0     C23658   2.525   5.040   2.149 -0.3835 -0.3487 -0.4769
  176MOL0     C23659   2.427   4.943   2.139 -0.1781 -0.0508  0.5922
  176MOL0     O23660   2.383   4.873   2.250  1.6735 -0.1223 -0.7620
  176MOL0     C23661   2.241   4.849   2.268 -0.1840 -0.6526 -0.5467
  176MOL0     C23662   2.208   4.740   2.368 -0.0814 -0.5003 -0.6297
  176MOL0     C23663   2.217   4.799   2.507 -0.2935 -0.8353  0.1465
  176MOL0     C23664   2.117   4.719   2.599 -0.0986  0.2189  0.8062
  176MOL0     C23665   2.178   4.583   2.645 -0.2825 -0.6351 -0.0180
  176MOL0     C23666   2.325   4.591   2.694  0.0897 -0.2548  0.1750
  176MOL0     C23667   2.376   4.472   2.771  1.2757  0.3399 -0.8459
  176MOL0     C23668   2.401   4.340   2.701 -0.1337  0.7244 -0.2043
  176MOL0    Cl23669   2.541   4.353   2.594 -0.4652 -0.5688 -0.4339
  176MOL0     C23670   2.393   4.897   2.004  0.5997  1.0090  0.3821
  176MOL0     C23671   2.452   4.957   1.895 -0.4016  0.0899  0.1531
  176MOL0     O23672   2.467   5.051   1.626  0.0649  0.3422  0.0632
  176MOL0     C23673   2.616   5.173   1.420 -0.2454 -0.9576 -0.6226
  176MOL0     C23674   2.701   5.224   1.320 -0.3086  0.5515 -0.2794
  176MOL0     N23675   3.492   5.462   1.588 -0.0362 -0.3681 -0.3857
  176MOL0     N23676   3.609   5.420   1.571  0.0406 -0.5770  0.2114
  176MOL0     C23677   4.098   4.473   1.011 -0.1147 -1.0862  0.7644
  176MOL0     C23678   4.149   4.369   0.931  0.7230  0.2026 -1.0137
  176MOL0     C23679   4.493   4.154   0.722  0.4409  0.3832  0.1610
  176MOL0     C23680   4.414   4.033   0.719  0.6827 -0.6359 -0.6786
  176MOL0     C23681   4.458   3.917   0.653 -1.3401  0.4956  0.9540
  176MOL0     C23682   4.582   3.904   0.602  0.3133  0.2262 -0.1297
  176MOL0     O23683   4.601   3.782   0.530 -0.0469  0.2390  0.0093
  176MOL0     C23684   4.724   3.702   0.542  0.1444 -0.1871 -0.4312
  176MOL0     C23685   4.720   3.600   0.652  0.1119 -0.2669  0.4264
  176MOL0     C23686   4.711   3.664   0.793 -0.3531  0.4284 -0.2321
  176MOL0     C23687   4.745   3.561   0.905 -0.1517 -0.4359  0.8543
  176MOL0     C23688   4.883   3.515   0.891  0.8186  0.9852  0.0314
  176MOL0     C23689   4.987   3.459   0.857 -0.3332 -0.3321 -0.4179
  176MOL0     C23690   4.665   4.017   0.613 -1.1079  0.1239 -0.1849
  176MOL0     C23691   4.625   4.140   0.664 -0.3599  0.9927 -0.6299
  176MOL0     C23692   4.712   4.256   0.652  0.0595  0.8919  0.4774
  176MOL0     H23693   4.314   4.538   0.698  0.8583  0.3682  0.6870
  176MOL0     H23694   4.237   4.741   0.852  2.3497  0.4876 -1.9664
  176MOL0     H23695   4.280   4.763   1.090 -0.4264 -0.2712  1.0969
  176MOL0     H23696   4.184   4.896   1.046 -1.0015  2.5112  2.4632
  176MOL0     H23697   4.249   4.860   1.299  0.0948 -2.3185 -0.1686
  176MOL0     H23698   4.143   4.726   1.296  3.5093 -0.2557  0.4855
  176MOL0     H23699   3.944   4.870   1.245  1.4433 -0.1748 -2.3761
  176MOL0     H23700   4.045   5.009   1.240  2.3420 -1.2041 -2.1723
  176MOL0     H23701   4.024   4.813   1.476 -0.5338  0.1126  2.5994
  176MOL0     H23702   4.131   4.940   1.485 -0.9326 -0.0150 -0.4016
  176MOL0     H23703   3.831   4.979   1.448 -1.1426 -0.8296  1.9117
  176MOL0     H23704   3.906   5.012   1.616 -2.5297 -0.1339 -0.6466
  176MOL0     H23705   4.048   5.164   1.533 -0.2887  1.6388  1.5138
  176MOL0     H23706   3.991   5.167   1.369 -0.8730 -1.0199 -0.1461
  176MOL0     H23707   3.868   5.344   1.505 -3.1043  1.1731  1.2826
  176MOL0     H23708   3.827   5.238   1.632  0.5874  0.6917  1.1995
  176MOL0     H23709   3.732   5.208   1.343 -0.8117  1.3723 -0.1585
  176MOL0     H23710   3.665   5.124   1.492  1.4268 -0.4044  1.1468
  176MOL0     H23711   3.445   5.254   1.345 -2.6508  0.6756  1.1796
  176MOL0     H23712   3.225   5.325   1.480  0.9265 -0.6644 -2.0523
  176MOL0     H23713   3.222   5.471   1.563  1.1549  1.9523 -0.6802
  176MOL0     H23714   3.239   5.594   1.343  2.5746 -0.8155  1.4976
  176MOL0     H23715   3.278   5.456   1.265  2.7683 -0.3814  2.4903
  176MOL0     H23716   3.010   5.530   1.250 -0.3259 -0.8633 -0.2587
  176MOL0     H23717   3.004   5.473   1.416  0.0055  0.4700 -0.0701
  176MOL0     H23718   3.093   5.268   1.332 -2.1655 -2.1665  0.4722
  176MOL0     H23719   3.083   5.315   1.161 -3.1335  0.8028 -1.0619
  176MOL0     H23720   2.982   5.247   1.498 -1.0448  2.2848 -0.1422
  176MOL0     H23721   2.842   5.151   1.682 -2.2274 -2.4149  0.3837
  176MOL0     H23722   2.670   5.160   2.057 -0.2556 -0.8882  3.6706
  176MOL0     H23723   2.545   5.079   2.248  0.4421 -0.4488 -0.5937
  176MOL0     H23724   2.190   4.944   2.284  0.8342 -0.0037 -1.0006
  176MOL0     H23725   2.206   4.807   2.173  0.2783  4.7888 -3.5441
  176MOL0     H23726   2.105   4.706   2.352 -0.0465 -1.0641  0.2872
  176MOL0     H23727   2.278   4.658   2.348 -0.8239 -0.7999 -2.1234
  176MOL0     H23728   2.320   4.803   2.544 -0.6313  0.2481  1.0464
  176MOL0     H23729   2.185   4.904   2.508  2.8456  0.3820 -3.1880
  176MOL0     H23730   2.022   4.703   2.548  0.9731 -0.6949 -1.0139
  176MOL0     H23731   2.101   4.768   2.695  2.0355  0.2425  1.2114
  176MOL0     H23732   2.179   4.521   2.555 -0.6653 -2.1609  0.9936
  176MOL0     H23733   2.109   4.540   2.718 -0.8589 -3.9996 -2.3503
  176MOL0     H23734   2.384   4.592   2.602 -0.1092  2.7489  0.0087
  176MOL0     H23735   2.345   4.682   2.751 -0.9161 -1.1815  2.0932
  176MOL0     H23736   2.298   4.441   2.841  1.9640 -1.1343 -0.6968
  176MOL0     H23737   2.463   4.503   2.830  2.3818 -3.1271 -0.4137
  176MOL0     H23738   2.437   4.265   2.772  4.4016  4.4449  2.0491
  176MOL0     H23739   2.320   4.299   2.641  1.6419  0.3371 -2.5026
  176MOL0     H23740   2.332   4.807   1.995  2.7400 -1.3086  5.4635
  176MOL0     H23741   2.415   4.915   1.802  1.1379 -3.4560  0.9915
  176MOL0     H23742   2.514   5.160   1.386 -0.3914  0.4570 -0.8048
  176MOL0     H23743   2.652   5.237   1.224  2.7111 -1.2138 -2.2246
  176MOL0     H23744   4.024   4.442   1.085  0.4728 -0.3546  1.6794
  176MOL0     H23745   4.122   4.270   0.966  0.6942 -0.1451 -1.9771
  176MOL0     H23746   4.315   4.025   0.764  0.9593 -0.2795  0.0138
  176MOL0     H23747   4.395   3.830   0.634  0.4661 -0.7437  0.4609
  176MOL0     H23748   4.805   3.771   0.563 -0.3455 -0.0795  1.2076
  176MOL0     H23749   4.749   3.642   0.454  1.3763 -2.3523  1.2760
  176MOL0     H23750   4.815   3.547   0.642  0.4261  0.3513  0.0608
  176MOL0     H23751   4.645   3.522   0.637  1.8807 -1.4917 -3.0034
  176MOL0     H23752   4.619   3.720   0.808 -0.7719 -0.7549  2.2675
  176MOL0     H23753   4.785   3.744   0.803  0.4984 -0.5451  2.3001
  176MOL0     H23754   4.725   3.598   1.006 -1.4228  0.3295  0.3512
  176MOL0     H23755   4.688   3.468   0.893 -1.2408  0.2620  0.5390
  176MOL0     H23756   5.078   3.412   0.825  1.4062  2.4477  0.1703
  176MOL0     H23757   4.760   3.993   0.567  0.1858  0.4968  2.1368
  176MOL0     H23758   4.788   4.244   0.573  0.1993  1.7949  0.4619
  176MOL0     H23759   4.656   4.349   0.638 -0.9168  0.3346  0.6576
  176MOL0     H23760   4.778   4.283   0.735 -0.5134  5.5106 -0.2672
  177MOL0     O23761   1.371   4.827   2.018 -0.0285  0.6353 -0.7287
  177MOL0     C23762   1.378   4.876   2.126  0.2501 -0.1292  0.3152
  177MOL0     O23763   1.452   4.989   2.154  0.0675  0.1215 -0.3471
  177MOL0     C23764   1.493   5.065   2.045 -0.2498 -0.1521 -0.2054
  177MOL0     C23765   1.619   5.114   2.060 -1.1854 -0.1622 -0.2592
  177MOL0     C23766   1.679   5.197   1.962  0.4837 -0.7096 -0.1620
  177MOL0     C23767   1.613   5.227   1.841  0.5047  0.4641  0.4859
  177MOL0     O23768   1.661   5.319   1.752 -0.4266  0.1667 -0.5898
  177MOL0     C23769   1.659   5.288   1.613  0.6354 -1.4967  0.1419
  177MOL0     C23770   1.685   5.425   1.542 -0.4720 -0.6770  0.7963
  177MOL0     C23771   1.645   5.428   1.393 -0.8361 -0.9316  1.0138
  177MOL0     C23772   1.774   5.390   1.313 -0.4779  0.2779  0.7718
  177MOL0     C23773   1.741   5.346   1.168  0.0281  0.4053 -0.4096
  177MOL0     C23774   1.707   5.205   1.148 -0.3132  0.1747  0.8422
  177MOL0     C23775   1.830   5.112   1.157  0.0745 -0.0239  0.0699
  177MOL0     C23776   1.770   4.968   1.144  0.0977  0.8336 -0.6688
  177MOL0     N23777   1.875   4.869   1.176  0.5285  1.0802 -0.6206
  177MOL0     C23778   1.978   4.831   1.092  0.2860 -0.7406 -0.7169
  177MOL0     C23779   2.016   4.707   1.133  0.4168  0.3005 -0.0861
  177MOL0     C23780   2.123   4.613   1.077 -0.3175  0.0997 -0.5977
  177MOL0     C23781   2.118   4.584   0.929 -0.2003 -0.4785  0.9477
  177MOL0     C23782   1.972   4.561   0.883  1.1178  0.9155 -0.2758
  177MOL0     C23783   1.959   4.517   0.734  0.2308  0.0994 -0.0358
  177MOL0     O23784   2.000   4.621   0.644  0.2685  0.2080 -0.6302
  177MOL0     C23785   1.950   4.620   0.522 -0.5967  0.2337 -0.0137
  177MOL0     C23786   1.903   4.500   0.474  0.6261  0.1001  0.6508
  177MOL0     C23787   1.848   4.491   0.345  0.3268 -1.1681  0.3059
  177MOL0     C23788   1.852   4.603   0.263  0.6259 -0.3917  0.6608
  177MOL0     C23789   1.813   4.581   0.115  0.1245  0.8863  0.6772
  177MOL0     O23790   1.822   4.694   0.029 -1.1426 -0.1734 -0.2379
  177MOL0     C23791   1.822   4.664  -0.107  0.1436 -0.3151  0.1434
  177MOL0     C23792   1.917   4.709  -0.193 -0.4926  0.4957  0.5305
  177MOL0     C23793   1.915   4.685  -0.336  0.6599 -1.4492  0.5756
  177MOL0     C23794   1.806   4.628  -0.394  0.4133  0.1376  0.3951
  177MOL0     O23795   1.826   4.627  -0.531 -0.0279  0.2364  0.0089
  177MOL0     C23796   1.727   4.529  -0.589 -0.2015 -0.6069  0.1414
  177MOL0     C23797   1.775   4.494  -0.731 -0.6575 -0.7381 -1.0663
  177MOL0     C23798   1.675   4.391  -0.789 -0.5708  0.2377  0.8360
  177MOL0     C23799   1.717   4.348  -0.926  0.3011  0.4062  0.0457
  177MOL0     C23800   1.615   4.258  -1.000  0.1157  0.1243  0.6565
  177MOL0     C23801   1.577   4.134  -0.922 -0.0344  0.8116 -0.0890
  177MOL0     C23802   1.514   4.027  -1.012 -0.5525 -0.3341  0.2779
  177MOL0     C23803   1.369   4.054  -1.053  0.4204 -0.2296 -0.0693
  177MOL0    Cl23804   1.324   3.945  -1.187  0.2816  0.3923  0.0922
  177MOL0     C23805   1.703   4.581  -0.313  0.6387 -0.3111 -0.1091
  177MOL0     C23806   1.705   4.597  -0.170 -1.1654  0.3356 -0.8987
  177MOL0     O23807   1.785   4.467   0.079  0.4281  1.4158 -0.4452
  177MOL0     C23808   1.914   4.725   0.304  0.4049  0.3261 -0.4798
  177MOL0     C23809   1.955   4.739   0.436 -0.3066 -0.0224 -1.3465
  177MOL0     N23810   1.926   4.666   1.230 -0.6543 -0.1042  0.2694
  177MOL0     N23811   1.848   4.762   1.261  0.9664  0.2506  0.6165
  177MOL0     C23812   1.481   5.175   1.829  0.0005 -0.4277  0.1670
  177MOL0     C23813   1.427   5.095   1.925 -0.3099  0.7150  0.3257
  177MOL0     C23814   1.292   4.809   2.229 -0.2170  0.6067 -0.1597
  177MOL0     C23815   1.266   4.668   2.217 -1.1425 -0.4367 -0.5203
  177MOL0     C23816   1.187   4.614   2.318  0.0419 -0.4330 -0.4036
  177MOL0     C23817   1.128   4.693   2.417 -0.3039  0.2284 -0.4275
  177MOL0     O23818   1.075   4.621   2.522  0.5781 -0.1920  0.4544
  177MOL0     C23819   0.962   4.676   2.588  0.0247  0.3267 -0.8830
  177MOL0     C23820   0.842   4.671   2.495  0.1016 -0.4642 -0.7303
  177MOL0     C23821   0.810   4.524   2.446 -0.6943 -0.4081  0.0284
  177MOL0     C23822   0.665   4.501   2.403 -0.8848 -1.3081  0.2848
  177MOL0     C23823   0.582   4.468   2.517  0.1567  1.0640  0.0137
  177MOL0     C23824   0.502   4.449   2.608 -0.5477  0.3338 -1.1469
  177MOL0     C23825   1.143   4.831   2.409 -0.2001  0.9632 -0.9347
  177MOL0     C23826   1.216   4.890   2.319 -0.8797  0.2598  0.4178
  177MOL0     C23827   1.221   5.042   2.324  0.5439 -0.7056  0.1669
  177MOL0     H23828   1.691   5.097   2.139  0.4021 -1.9042 -1.9777
  177MOL0     H23829   1.780   5.233   1.980  0.5248  0.8110 -2.8962
  177MOL0     H23830   1.726   5.205   1.590  0.8528 -0.3659 -3.9429
  177MOL0     H23831   1.558   5.256   1.588 -0.0673  1.3693 -1.1173
  177MOL0     H23832   1.792   5.445   1.558 -0.6128  1.0619 -0.2439
  177MOL0     H23833   1.620   5.499   1.588  1.3638  1.0680  0.7580
  177MOL0     H23834   1.617   5.527   1.358 -1.8215 -1.1754  1.1015
  177MOL0     H23835   1.570   5.351   1.371 -0.8400  0.2425 -4.5257
  177MOL0     H23836   1.840   5.477   1.317  1.1887 -0.9457  0.7465
  177MOL0     H23837   1.836   5.310   1.354  1.1614  0.6014 -0.9869
  177MOL0     H23838   1.658   5.405   1.128  0.4660  0.7623 -0.8024
  177MOL0     H23839   1.823   5.379   1.104  0.3438  0.0127 -0.2113
  177MOL0     H23840   1.640   5.188   1.233  3.7677  0.5498  4.5117
  177MOL0     H23841   1.653   5.192   1.054  1.4607 -0.1454 -0.1722
  177MOL0     H23842   1.877   5.112   1.256 -0.3746  0.3942  0.2896
  177MOL0     H23843   1.903   5.139   1.081  0.7053 -0.9062  0.3524
  177MOL0     H23844   1.683   4.961   1.210 -0.7985  0.2283 -1.8705
  177MOL0     H23845   1.735   4.948   1.042  1.4283 -2.1891 -0.6397
  177MOL0     H23846   2.029   4.891   1.017 -1.3972  2.2475  0.3489
  177MOL0     H23847   2.227   4.639   1.101 -0.1719  0.2644 -1.3719
  177MOL0     H23848   2.116   4.522   1.137  2.3858  0.3985  0.2896
  177MOL0     H23849   2.169   4.658   0.867  1.2621 -3.1229 -1.2960
  177MOL0     H23850   2.163   4.489   0.898  0.1605  0.3170 -1.1123
  177MOL0     H23851   1.909   4.650   0.892  2.2987  1.8584 -1.0481
  177MOL0     H23852   1.933   4.470   0.930 -0.6704  0.8985 -1.6569
  177MOL0     H23853   1.853   4.492   0.725  0.4212 -1.5766  1.7454
  177MOL0     H23854   2.021   4.427   0.725 -1.2500 -0.9005 -0.5310
  177MOL0     H23855   1.908   4.407   0.530  1.4857 -0.2728 -0.0238
  177MOL0     H23856   1.819   4.389   0.320  2.8624 -2.6472  2.7898
  177MOL0     H23857   2.007   4.756  -0.155  0.6658 -1.2313  0.0060
  177MOL0     H23858   2.003   4.715  -0.392 -0.6282  1.8072  0.0536
  177MOL0     H23859   1.723   4.427  -0.550 -2.0309 -0.9161 -0.7442
  177MOL0     H23860   1.634   4.587  -0.588  1.3534  2.1298 -1.1563
  177MOL0     H23861   1.779   4.585  -0.791 -0.0233  1.7591  2.5182
  177MOL0     H23862   1.868   4.437  -0.736  0.0510  0.4216 -1.4959
  177MOL0     H23863   1.677   4.301  -0.727  0.4346  0.2271  0.8085
  177MOL0     H23864   1.576   4.436  -0.799 -0.5163  0.8226  2.6978
  177MOL0     H23865   1.818   4.306  -0.932 -0.7322 -2.0123 -4.2176
  177MOL0     H23866   1.717   4.442  -0.982  0.3841 -1.2672 -2.9196
  177MOL0     H23867   1.651   4.231  -1.101  1.1211  0.2030  0.9818
  177MOL0     H23868   1.518   4.307  -0.997  0.2566  0.3567  1.9345
  177MOL0     H23869   1.662   4.097  -0.865  0.6856 -1.4942 -2.4735
  177MOL0     H23870   1.505   4.164  -0.846 -0.8933 -0.8221 -0.2033
  177MOL0     H23871   1.534   3.928  -0.969  0.1145 -0.0344  0.6856
  177MOL0     H23872   1.570   4.036  -1.105 -2.1628  3.4913 -0.5142
  177MOL0     H23873   1.319   4.034  -0.958 -1.2878 -4.6701 -1.6382
  177MOL0     H23874   1.346   4.157  -1.083  0.6112  0.9836  3.4837
  177MOL0     H23875   1.623   4.532  -0.368 -1.3397  0.1647  2.1907
  177MOL0     H23876   1.625   4.565  -0.105 -0.1057  2.4748  1.6490
  177MOL0     H23877   1.920   4.798   0.223  0.1228 -1.7948 -2.5130
  177MOL0     H23878   2.003   4.829   0.475  1.3551 -1.6782  0.6724
  177MOL0     H23879   1.417   5.206   1.747  2.4331 -1.7365 -2.4242
  177MOL0     H23880   1.334   5.046   1.897  0.3916 -0.5233  0.0813
  177MOL0     H23881   1.300   4.603   2.137 -1.3742  1.3027 -2.1256
  177MOL0     H23882   1.173   4.506   2.313 -1.4333 -0.2476 -0.7711
  177MOL0     H23883   0.984   4.777   2.623 -0.9262  0.5478 -0.9068
  177MOL0     H23884   0.947   4.619   2.681 -1.3531 -2.0178 -2.4253
  177MOL0     H23885   0.846   4.752   2.422  1.9189  1.4175  1.2921
  177MOL0     H23886   0.761   4.717   2.552  0.0961 -0.1548 -0.9851
  177MOL0     H23887   0.827   4.451   2.526  1.8106  1.7537  1.6117
  177MOL0     H23888   0.879   4.503   2.364 -0.3642 -1.1546  0.4870
  177MOL0     H23889   0.616   4.585   2.353  1.0213 -1.2127 -1.5171
  177MOL0     H23890   0.670   4.416   2.335 -4.1361 -3.0593  1.9569
  177MOL0     H23891   0.435   4.443   2.691 -2.3608 -1.4381 -2.6524
  177MOL0     H23892   1.082   4.897   2.469 -1.3342 -0.1674 -0.8101
  177MOL0     H23893   1.320   5.080   2.353 -0.6052  0.7168  2.5097
  177MOL0     H23894   1.200   5.088   2.227 -1.1528  1.6826  1.5399
  177MOL0     H23895   1.153   5.090   2.396  1.3116 -0.2122  0.5864
  178MOL0     O23896   6.501  10.224   1.257  0.5871  0.2035 -0.4742
  178MOL0     C23897   6.609  10.281   1.261 -0.4156  0.8593 -0.1389
  178MOL0     O23898   6.631  10.395   1.328 -0.4857 -0.5104 -0.4862
  178MOL0     C23899   6.537  10.488   1.364  0.0834  1.0696  0.5010
  178MOL0     C23900   6.585  10.582   1.456  0.2298 -0.1530 -0.3552
  178MOL0     C23901   6.494  10.692   1.507 -0.4679  0.1231 -0.2922
  178MOL0     C23902   6.352  10.695   1.464 -0.2834 -1.0462  0.3979
  178MOL0     O23903   6.270  10.792   1.508  0.0191  1.1160 -0.2744
  178MOL0     C23904   6.222  10.881   1.416  0.5504  1.1063 -0.1104
  178MOL0     C23905   6.203  11.025   1.467 -0.0740  0.4200 -0.1542
  178MOL0     C23906   6.089  11.042   1.567 -0.1179 -0.0889  0.3531
  178MOL0     C23907   6.129  10.976   1.709  0.0909  0.7627  1.4682
  178MOL0     C23908   6.043  11.033   1.820 -0.7290  0.0618 -0.2080
  178MOL0     C23909   6.050  10.954   1.948 -0.3883  0.4203 -0.2219
  178MOL0     C23910   6.191  10.956   2.008  0.1455  0.2486 -0.4127
  178MOL0     C23911   6.224  10.834   2.083  0.2315  0.6643  0.5424
  178MOL0     N23912   6.208  10.712   2.002  0.1905 -0.0908  0.2844
  178MOL0     C23913   6.300  10.651   1.911  0.2406  0.7403  0.8319
  178MOL0     C23914   6.239  10.539   1.868  0.4657 -0.5439  0.2092
  178MOL0     C23915   6.303  10.438   1.777  0.0061  0.9070  0.2200
  178MOL0     C23916   6.202  10.368   1.686  0.1229  0.4539 -0.0239
  178MOL0     C23917   6.249  10.260   1.597 -0.2420 -0.1297  0.4472
  178MOL0     C23918   6.148  10.220   1.479 -0.8525 -0.1086 -0.1663
  178MOL0     O23919   6.169  10.080   1.450 -0.4011  0.1845 -0.3258
  178MOL0     C23920   6.118  10.024   1.328  0.0012  0.3794 -1.7444
  178MOL0     C23921   6.154   9.887   1.290  0.3348  0.7381 -0.1992
  178MOL0     C23922   6.101   9.821   1.180 -0.6510 -0.1703  0.2326
  178MOL0     C23923   6.017   9.884   1.096  0.9194 -0.1573  0.1392
  178MOL0     C23924   5.947   9.814   0.982  0.6557 -1.0527 -0.7426
  178MOL0     O23925   5.966   9.678   0.983 -0.5146  0.3106  0.5818
  178MOL0     C23926   5.932   9.596   0.884 -0.3116  0.0796  1.0463
  178MOL0     C23927   5.856   9.615   0.773  0.1039 -0.4005 -0.7538
  178MOL0     C23928   5.847   9.527   0.661 -0.5055  0.6381  0.6661
  178MOL0     C23929   5.898   9.396   0.679  0.0616 -0.3041  0.7652
  178MOL0     O23930   5.889   9.297   0.591  0.4145  0.8903  0.4777
  178MOL0     C23931   5.858   9.330   0.456 -0.4715 -0.1629 -0.5199
  178MOL0     C23932   5.716   9.324   0.429 -0.3742  0.0654 -0.4686
  178MOL0     C23933   5.693   9.361   0.280  0.0968 -0.2967 -0.1424
  178MOL0     C23934   5.553   9.334   0.231 -0.6346 -0.7344  0.1635
  178MOL0     C23935   5.533   9.394   0.094  0.9635 -0.2002 -1.1851
  178MOL0     C23936   5.390   9.437   0.047  1.1025  0.5808 -0.5283
  178MOL0     C23937   5.305   9.549   0.112  0.3662  0.1273 -0.6524
  178MOL0     C23938   5.157   9.526   0.103 -0.5693  0.0243 -0.4553
  178MOL0    Cl23939   5.086   9.494  -0.062 -0.3834  0.0231  0.3136
  178MOL0     C23940   5.975   9.366   0.792 -0.0647  0.6368  1.3908
  178MOL0     C23941   5.999   9.465   0.892  0.7326 -0.3128  0.3144
  178MOL0     O23942   5.890   9.879   0.895 -0.4759  0.2572 -0.2689
  178MOL0     C23943   5.982  10.017   1.119 -1.4836 -0.2401  0.4176
  178MOL0     C23944   6.033  10.088   1.235 -0.7199  0.2043 -0.1679
  178MOL0     N23945   6.114  10.529   1.926  0.6503 -0.6699  0.0959
  178MOL0     N23946   6.099  10.634   2.007 -0.9300 -0.9434  0.5670
  178MOL0     C23947   6.316  10.588   1.380  0.3179 -0.3517  0.1675
  178MOL0     C23948   6.406  10.492   1.321 -0.1210 -0.2490  0.2924
  178MOL0     C23949   6.722  10.239   1.187  0.7490 -0.6076 -0.5075
  178MOL0     C23950   6.798  10.131   1.237 -0.8218 -0.2858 -0.3141
  178MOL0     C23951   6.873  10.056   1.152  0.7753 -0.3916 -0.4226
  178MOL0     C23952   6.890  10.093   1.018  0.3445 -0.0356  0.4478
  178MOL0     O23953   6.975  10.025   0.938 -0.2592 -0.4445  0.1239
  178MOL0     C23954   6.923   9.906   0.876  0.0176  0.4073 -0.9829
  178MOL0     C23955   7.022   9.833   0.785 -0.4697  0.4079 -0.6985
  178MOL0     C23956   7.159   9.819   0.851  0.0297  0.0739  0.0430
  178MOL0     C23957   7.254   9.760   0.747  0.0337  0.2328  0.2307
  178MOL0     C23958   7.246   9.611   0.749 -0.1871  0.1194 -0.5495
  178MOL0     C23959   7.235   9.496   0.724 -0.6923 -0.1536  0.8802
  178MOL0     C23960   6.839  10.213   0.974  0.8941  0.0674  0.1007
  178MOL0     C23961   6.748  10.280   1.054 -0.1780 -0.0391  0.1528
  178MOL0     C23962   6.662  10.371   0.979  0.0863  0.7164 -0.1069
  178MOL0     H23963   6.689  10.587   1.487 -0.0365  2.7125  0.4043
  178MOL0     H23964   6.537  10.776   1.562 -0.3848  0.6969 -1.2095
  178MOL0     H23965   6.284  10.879   1.326  1.1974 -6.6847 -0.1376
  178MOL0     H23966   6.123  10.846   1.386  0.3005  0.8690  0.9397
  178MOL0     H23967   6.173  11.088   1.383 -0.3307  0.8306  0.2442
  178MOL0     H23968   6.297  11.067   1.504  0.5171 -0.0220 -1.0959
  178MOL0     H23969   6.005  10.996   1.514 -0.2097  2.3538 -1.8095
  178MOL0     H23970   6.067  11.148   1.576 -4.8978 -0.3364 -3.7918
  178MOL0     H23971   6.104  10.869   1.713 -1.8875  1.1274  0.4440
  178MOL0     H23972   6.233  11.002   1.730  0.1893  0.5624  1.2346
  178MOL0     H23973   6.079  11.134   1.840 -2.2115  0.2211  2.0142
  178MOL0     H23974   5.940  11.048   1.786  0.1668  2.7370 -2.0979
  178MOL0     H23975   5.991  10.991   2.032 -0.9433  0.9845 -0.8512
  178MOL0     H23976   6.010  10.855   1.924 -2.2588  1.2126 -0.5177
  178MOL0     H23977   6.198  11.044   2.073  0.9346  0.0473 -0.2162
  178MOL0     H23978   6.261  10.960   1.923  2.0104  0.4035  1.0646
  178MOL0     H23979   6.323  10.839   2.131  0.8781 -1.2816 -0.4590
  178MOL0     H23980   6.142  10.825   2.154 -1.4940  0.1383 -1.4336
  178MOL0     H23981   6.403  10.682   1.899  0.1927  0.4645 -0.4270
  178MOL0     H23982   6.378  10.468   1.703 -0.5099 -0.9717 -1.1383
  178MOL0     H23983   6.340  10.366   1.850 -0.3200 -1.8168 -2.1162
  178MOL0     H23984   6.127  10.315   1.745  0.7089  1.9678  2.2239
  178MOL0     H23985   6.137  10.432   1.625 -1.5490 -0.4705  0.7007
  178MOL0     H23986   6.285  10.171   1.649 -2.4075  0.1681  2.6924
  178MOL0     H23987   6.339  10.305   1.555 -0.8807  1.2453  0.4805
  178MOL0     H23988   6.161  10.280   1.388 -1.1470 -0.1826 -0.2606
  178MOL0     H23989   6.053  10.241   1.531 -1.0859 -1.7941  0.1333
  178MOL0     H23990   6.212   9.836   1.367 -0.7684 -1.0883 -0.4929
  178MOL0     H23991   6.140   9.723   1.155 -0.7787  0.5332 -3.2770
  178MOL0     H23992   5.805   9.711   0.763  0.8339  0.0051 -0.6928
  178MOL0     H23993   5.798   9.551   0.567  1.8348  1.6746 -0.3527
  178MOL0     H23994   5.899   9.428   0.427 -2.9429  0.1193 -3.5711
  178MOL0     H23995   5.899   9.253   0.390  0.1923  0.8102 -1.2774
  178MOL0     H23996   5.693   9.217   0.436  1.2681 -0.3386 -0.9227
  178MOL0     H23997   5.649   9.388   0.487  0.4186  2.5222 -2.1446
  178MOL0     H23998   5.720   9.466   0.271 -0.1614  0.0342  2.3272
  178MOL0     H23999   5.762   9.310   0.211  0.3561  0.8494 -0.7475
  178MOL0     H24000   5.489   9.398   0.293  1.6286  0.6821  1.1998
  178MOL0     H24001   5.532   9.229   0.251 -1.4972 -0.4045  1.0640
  178MOL0     H24002   5.587   9.326   0.028  1.5179 -2.3859  1.3079
  178MOL0     H24003   5.598   9.481   0.084 -1.2398  1.4545 -2.0080
  178MOL0     H24004   5.395   9.458  -0.060  1.0607  3.4982 -0.0449
  178MOL0     H24005   5.327   9.348   0.058  2.6222 -0.2987  1.8516
  178MOL0     H24006   5.335   9.641   0.060  4.0672 -1.0494 -0.8602
  178MOL0     H24007   5.338   9.565   0.215  3.3901 -2.8458 -0.9953
  178MOL0     H24008   5.141   9.447   0.177  2.4110 -2.0484 -1.7805
  178MOL0     H24009   5.111   9.616   0.144  1.3643  1.4149 -1.1519
  178MOL0     H24010   6.023   9.269   0.801  1.1345  0.7904 -2.0557
  178MOL0     H24011   6.061   9.460   0.981 -2.0646 -0.1412  2.4302
  178MOL0     H24012   5.909  10.060   1.051  1.5285  1.8734 -1.7159
  178MOL0     H24013   5.994  10.188   1.253  1.5746  1.5322 -1.8612
  178MOL0     H24014   6.212  10.594   1.347  0.5869 -3.7299 -1.7710
  178MOL0     H24015   6.358  10.419   1.256  1.8488  1.0694 -2.8530
  178MOL0     H24016   6.775  10.103   1.339  1.1147 -1.7183 -0.1967
  178MOL0     H24017   6.922   9.964   1.182  0.7804 -1.2381 -2.8187
  178MOL0     H24018   6.836   9.930   0.814 -1.1284 -2.6794 -0.7311
  178MOL0     H24019   6.894   9.837   0.955 -1.1131  0.9070 -0.9488
  178MOL0     H24020   7.029   9.891   0.692  1.5936  5.0848  2.0188
  178MOL0     H24021   6.989   9.731   0.764  0.7765 -0.6331  1.9897
  178MOL0     H24022   7.150   9.754   0.939 -1.3534 -0.9559 -0.8275
  178MOL0     H24023   7.193   9.913   0.895 -0.8613 -0.5055  2.1304
  178MOL0     H24024   7.236   9.806   0.649 -1.5001  1.4548  1.0460
  178MOL0     H24025   7.350   9.801   0.781 -1.1509  2.4495  1.1168
  178MOL0     H24026   7.246   9.391   0.706 -0.4637 -0.2814  1.6899
  178MOL0     H24027   6.846  10.241   0.869  0.2937  2.4788  0.6361
  178MOL0     H24028   6.633  10.460   1.037  2.4216  1.0657  0.6317
  178MOL0     H24029   6.706  10.399   0.883  0.2429 -3.0289 -1.2674
  178MOL0     H24030   6.572  10.309   0.984 -0.1886  1.1401  3.9036
  179MOL0     O24031   2.045   6.189   7.309 -0.4015  0.3275 -0.1063
  179MOL0     C24032   2.015   6.304   7.335 -0.1362 -0.0503 -0.0472
  179MOL0     O24033   2.066   6.412   7.268 -0.5915  0.0032  0.1688
  179MOL0     C24034   2.121   6.375   7.144  0.3018 -0.4012 -0.7906
  179MOL0     C24035   2.040   6.393   7.027 -0.3222 -0.9820  0.5297
  179MOL0     C24036   2.094   6.363   6.901 -0.4756  0.6457  0.4862
  179MOL0     C24037   2.226   6.326   6.891 -1.6202 -0.6285  0.2643
  179MOL0     O24038   2.266   6.323   6.752 -0.3493 -0.7160 -0.6105
  179MOL0     C24039   2.406   6.320   6.723  0.6116 -0.0392 -0.4189
  179MOL0     C24040   2.420   6.351   6.575  0.5652  0.5529  1.4725
  179MOL0     C24041   2.367   6.253   6.467 -0.5620  0.5751  0.2938
  179MOL0     C24042   2.223   6.298   6.431 -0.5469 -0.4790 -0.2021
  179MOL0     C24043   2.172   6.218   6.312  0.0009  0.1250 -0.1298
  179MOL0     C24044   2.260   6.251   6.180 -0.2192 -0.8526  0.2751
  179MOL0     C24045   2.176   6.187   6.071 -0.2301 -0.9227 -0.7800
  179MOL0     C24046   2.254   6.200   5.936  0.3044  0.0056 -0.2115
  179MOL0     N24047   2.172   6.143   5.827  0.6277  0.2872  0.4406
  179MOL0     C24048   2.061   6.206   5.769 -0.5545  0.2307  0.2034
  179MOL0     C24049   2.030   6.134   5.665  0.1280  0.3173 -0.0602
  179MOL0     C24050   1.908   6.157   5.569 -0.5198  0.1683  0.3063
  179MOL0     C24051   1.762   6.176   5.625  0.0446  0.3020  0.0997
  179MOL0     C24052   1.649   6.214   5.530 -0.0590  0.7941  0.2217
  179MOL0     C24053   1.685   6.336   5.447  0.0752 -0.7249  0.4864
  179MOL0     O24054   1.573   6.351   5.362 -0.6919  0.5401 -1.1454
  179MOL0     C24055   1.575   6.456   5.271  0.5602  0.2884  0.3468
  179MOL0     C24056   1.667   6.560   5.279 -0.3706 -0.9475  0.3462
  179MOL0     C24057   1.662   6.668   5.186 -0.4983  0.1421 -0.1058
  179MOL0     C24058   1.555   6.671   5.095  0.3558 -0.5864 -0.4401
  179MOL0     C24059   1.548   6.775   4.992  0.7374 -0.1591 -0.0118
  179MOL0     O24060   1.647   6.864   4.992  0.4061 -0.5152 -0.0120
  179MOL0     C24061   1.609   6.987   4.933  0.0451  0.0667  0.3451
  179MOL0     C24062   1.508   7.067   4.987  0.1218 -0.8909 -0.0239
  179MOL0     C24063   1.480   7.195   4.932  0.6989  0.6203 -0.3847
  179MOL0     C24064   1.566   7.247   4.841  1.1980  0.2031  0.3220
  179MOL0     O24065   1.536   7.376   4.790  0.7354 -1.1525  0.6443
  179MOL0     C24066   1.523   7.388   4.647  0.2203 -0.9988  0.4276
  179MOL0     C24067   1.379   7.417   4.591  0.6553  0.0714  0.1160
  179MOL0     C24068   1.376   7.442   4.453  0.2554 -0.1717  0.1244
  179MOL0     C24069   1.424   7.321   4.365  1.1916 -0.9166  0.5933
  179MOL0     C24070   1.417   7.351   4.214 -0.1528 -0.3575 -0.3311
  179MOL0     C24071   1.466   7.230   4.136  0.0334  0.1059  0.4902
  179MOL0     C24072   1.488   7.269   3.987 -0.3766 -0.5040  0.3825
  179MOL0     C24073   1.595   7.384   3.956  0.7733  0.0267  1.0907
  179MOL0    Cl24074   1.761   7.331   4.001 -0.0969  0.8628  0.3440
  179MOL0     C24075   1.671   7.168   4.789 -0.2048 -1.2577  0.4582
  179MOL0     C24076   1.696   7.045   4.841 -0.2860 -0.0154 -0.3999
  179MOL0     O24077   1.454   6.771   4.913 -0.3289  0.8364  0.2397
  179MOL0     C24078   1.454   6.570   5.091 -0.2526 -0.8087 -0.7667
  179MOL0     C24079   1.466   6.474   5.182 -0.7830  0.8176 -1.1792
  179MOL0     N24080   2.122   6.040   5.637 -0.1731 -0.1288 -0.5558
  179MOL0     N24081   2.198   6.039   5.750 -0.3157  0.7306  0.1163
  179MOL0     C24082   2.311   6.316   7.005 -0.0561 -0.7476  0.3495
  179MOL0     C24083   2.248   6.327   7.133 -0.5045  0.0805  0.5028
  179MOL0     C24084   1.927   6.337   7.441  0.7630 -0.0828 -0.2469
  179MOL0     C24085   1.957   6.456   7.520  0.8906 -0.0392 -0.0924
  179MOL0     C24086   1.888   6.484   7.636 -0.1438 -0.2937 -0.2520
  179MOL0     C24087   1.780   6.407   7.670 -0.1196 -0.1166  0.1044
  179MOL0     O24088   1.704   6.409   7.784 -1.0405  0.4183 -0.1809
  179MOL0     C24089   1.717   6.527   7.862  1.1673 -0.2028  0.0429
  179MOL0     C24090   1.652   6.511   7.992  0.5592 -0.0202 -0.3327
  179MOL0     C24091   1.741   6.435   8.096  0.1733  0.0922  0.5101
  179MOL0     C24092   1.652   6.381   8.206 -0.0933 -0.2758 -0.4154
  179MOL0     C24093   1.717   6.372   8.339 -0.0278  0.7625  0.6293
  179MOL0     C24094   1.771   6.353   8.444  0.2506  0.3066  0.8522
  179MOL0     C24095   1.730   6.316   7.586  0.3925 -0.2820 -0.1054
  179MOL0     C24096   1.803   6.280   7.470 -0.5813  0.7956 -0.2926
  179MOL0     C24097   1.735   6.191   7.372 -0.2913  0.2681 -0.6719
  179MOL0     H24098   1.943   6.440   7.034 -0.0471 -0.4357  0.7265
  179MOL0     H24099   2.017   6.357   6.825 -1.5249 -0.5430  1.5688
  179MOL0     H24100   2.454   6.392   6.790 -5.2409  2.0885  2.1550
  179MOL0     H24101   2.431   6.217   6.751  1.5947  0.5298  0.8837
  179MOL0     H24102   2.526   6.354   6.548 -0.1537 -0.2620 -1.8154
  179MOL0     H24103   2.380   6.449   6.548  1.8079  0.2126 -2.1008
  179MOL0     H24104   2.372   6.157   6.519 -1.2410  0.7342  0.6665
  179MOL0     H24105   2.422   6.261   6.373 -2.1675 -0.9949 -0.8754
  179MOL0     H24106   2.158   6.288   6.519 -0.1842  2.5520  0.5411
  179MOL0     H24107   2.220   6.404   6.407  0.1635 -0.7963 -1.7980
  179MOL0     H24108   2.182   6.112   6.339 -0.8586  0.3500  1.1729
  179MOL0     H24109   2.066   6.239   6.298  0.4454  2.9452  0.1061
  179MOL0     H24110   2.259   6.359   6.163 -0.5663 -0.7179  1.0855
  179MOL0     H24111   2.362   6.211   6.186  0.1970  0.3358  1.8727
  179MOL0     H24112   2.092   6.258   6.078  2.3826  2.6825 -2.7351
  179MOL0     H24113   2.162   6.079   6.080  2.0588 -1.3115 -1.3344
  179MOL0     H24114   2.270   6.305   5.911 -2.6009 -0.2572 -4.1044
  179MOL0     H24115   2.350   6.147   5.941  0.9690  1.2216  0.4350
  179MOL0     H24116   2.002   6.286   5.812 -2.9063 -0.3154 -1.7735
  179MOL0     H24117   1.941   6.239   5.506  2.2639  0.9222  2.5133
  179MOL0     H24118   1.897   6.065   5.510 -2.9217  2.0878 -2.5262
  179MOL0     H24119   1.741   6.078   5.667 -0.9651 -0.8602 -2.8697
  179MOL0     H24120   1.769   6.243   5.711 -0.1899 -0.8698  1.0473
  179MOL0     H24121   1.559   6.229   5.591  0.8639  1.5625  1.4565
  179MOL0     H24122   1.637   6.125   5.468  2.0897 -1.5286  2.8691
  179MOL0     H24123   1.781   6.336   5.395 -1.3634 -1.7798 -2.3659
  179MOL0     H24124   1.698   6.418   5.518  1.1095 -1.0446  0.6900
  179MOL0     H24125   1.756   6.555   5.341 -0.5244  0.1748  0.6841
  179MOL0     H24126   1.740   6.743   5.197  1.0199 -1.6077  1.7323
  179MOL0     H24127   1.424   7.025   5.041  0.3090 -1.1736  0.0474
  179MOL0     H24128   1.397   7.243   4.982 -0.4102 -1.3484 -0.2305
  179MOL0     H24129   1.583   7.472   4.610 -1.8719  0.5641  0.4249
  179MOL0     H24130   1.566   7.300   4.597  2.1629 -1.7501  3.1297
  179MOL0     H24131   1.319   7.330   4.619 -1.0282  0.3494 -2.2513
  179MOL0     H24132   1.326   7.499   4.640 -3.0043 -1.5750 -0.7450
  179MOL0     H24133   1.273   7.475   4.438  0.2114 -1.0956 -1.9383
  179MOL0     H24134   1.444   7.526   4.436  1.8788 -1.3190  0.7274
  179MOL0     H24135   1.357   7.235   4.375 -1.5513  1.0116  0.0822
  179MOL0     H24136   1.529   7.302   4.390  1.7309  1.5542  0.4932
  179MOL0     H24137   1.472   7.444   4.201 -3.4634  1.7344 -0.5821
  179MOL0     H24138   1.312   7.368   4.187 -0.1598 -0.0314 -0.0942
  179MOL0     H24139   1.562   7.188   4.167 -0.9671 -2.5982  0.1774
  179MOL0     H24140   1.386   7.156   4.139  0.4320 -0.4023 -0.6872
  179MOL0     H24141   1.391   7.305   3.950  0.7338  2.0140 -0.3206
  179MOL0     H24142   1.517   7.182   3.928  0.0313 -0.0349 -0.1170
  179MOL0     H24143   1.586   7.421   3.853 -0.5768  0.2528  1.2773
  179MOL0     H24144   1.566   7.464   4.026  0.8442 -1.3831  2.7939
  179MOL0     H24145   1.746   7.220   4.730 -0.4009  0.8840  1.9745
  179MOL0     H24146   1.791   6.998   4.817  0.5845  0.7273  1.4036
  179MOL0     H24147   1.373   6.573   5.020 -0.8137 -1.7795 -0.2037
  179MOL0     H24148   1.387   6.400   5.185 -0.3373  0.3701  1.2173
  179MOL0     H24149   2.415   6.286   7.008 -0.3993 -2.3601 -1.5425
  179MOL0     H24150   2.302   6.301   7.224  0.0398 -0.0524  0.1423
  179MOL0     H24151   2.051   6.508   7.503  1.6979 -1.2506  0.5140
  179MOL0     H24152   1.912   6.577   7.685 -0.4651  0.1038 -0.8396
  179MOL0     H24153   1.682   6.617   7.811  0.3858 -0.3073  0.3684
  179MOL0     H24154   1.823   6.542   7.885  1.2691  0.4745 -0.8292
  179MOL0     H24155   1.568   6.441   7.983 -0.0379  0.6221  0.1053
  179MOL0     H24156   1.615   6.607   8.030 -1.4830 -0.0941 -1.9200
  179MOL0     H24157   1.811   6.507   8.137  1.7855 -0.6718 -0.7544
  179MOL0     H24158   1.805   6.356   8.054 -1.5550 -0.4138 -1.3474
  179MOL0     H24159   1.572   6.455   8.216 -0.4411 -0.7440  0.4787
  179MOL0     H24160   1.608   6.285   8.176 -2.1518  0.8771 -1.2877
  179MOL0     H24161   1.799   6.336   8.546  2.6882 -3.6055 -0.2335
  179MOL0     H24162   1.638   6.269   7.620  0.9891 -0.2541  1.6756
  179MOL0     H24163   1.750   6.229   7.270 -0.1887 -0.1196 -0.7996
  179MOL0     H24164   1.780   6.093   7.384 -1.2527 -0.2877 -1.4304
  179MOL0     H24165   1.626   6.189   7.382 -0.1595 -1.0753  0.9976
  180MOL0     O24166   3.659   0.664   6.461  0.2378  0.1117  0.2672
  180MOL0     C24167   3.610   0.741   6.545  0.1695  0.3098  0.6527
  180MOL0     O24168   3.646   0.738   6.679 -0.4820  0.1947 -0.1208
  180MOL0     C24169   3.744   0.649   6.721 -1.5091 -0.8269 -0.1085
  180MOL0     C24170   3.867   0.705   6.770  0.4683  0.0414 -0.1705
  180MOL0     C24171   3.963   0.613   6.824 -0.0805 -0.9002  0.7044
  180MOL0     C24172   3.941   0.478   6.825  0.2112  0.8268  0.5145
  180MOL0     O24173   4.050   0.409   6.867  0.7520  0.3874 -0.3435
  180MOL0     C24174   4.030   0.271   6.910 -0.9499  0.0627 -0.9712
  180MOL0     C24175   4.154   0.199   6.975 -0.0408 -0.4750 -0.1686
  180MOL0     C24176   4.278   0.236   6.898 -0.4598 -0.0676 -0.4105
  180MOL0     C24177   4.391   0.131   6.923  0.4460 -1.2779  0.4631
  180MOL0     C24178   4.521   0.168   6.855  0.2683  1.0712 -0.4335
  180MOL0     C24179   4.622   0.057   6.864  0.2790 -0.4985 -0.0916
  180MOL0     C24180   4.561  -0.071   6.804 -0.0043  0.5739  0.2377
  180MOL0     C24181   4.670  -0.162   6.735 -0.2629 -0.1311 -0.5051
  180MOL0     N24182   4.629  -0.288   6.669  0.7186  0.2615  0.0150
  180MOL0     C24183   4.714  -0.392   6.651 -0.3611 -0.0565  0.5360
  180MOL0     C24184   4.633  -0.498   6.635  0.6830 -0.5394 -1.1586
  180MOL0     C24185   4.667  -0.641   6.622 -0.3036 -0.4376  1.0468
  180MOL0     C24186   4.704  -0.680   6.485  0.2092  0.5907 -0.0652
  180MOL0     C24187   4.840  -0.633   6.432  0.1803  0.1514 -0.0314
  180MOL0     C24188   4.855  -0.661   6.280  0.1857  0.1298  0.2710
  180MOL0     O24189   4.986  -0.623   6.235  0.3202  0.1714  0.5444
  180MOL0     C24190   4.972  -0.546   6.123  0.1804 -0.0371 -0.0504
  180MOL0     C24191   4.870  -0.542   6.024 -0.4774 -0.5454 -0.0563
  180MOL0     C24192   4.873  -0.462   5.910 -0.2923 -0.0671 -0.0901
  180MOL0     C24193   4.971  -0.363   5.900 -0.0010 -0.5384 -0.2724
  180MOL0     C24194   4.968  -0.256   5.799 -1.0649  0.6774  0.8041
  180MOL0     O24195   5.024  -0.132   5.832 -0.3443  0.4310 -0.0363
  180MOL0     C24196   4.986  -0.039   5.749  0.2201 -0.3685  0.3392
  180MOL0     C24197   5.074  -0.004   5.649 -1.0842 -0.1312 -0.7267
  180MOL0     C24198   5.048   0.098   5.556  0.4004  0.4387 -0.1851
  180MOL0     C24199   4.929   0.173   5.575 -1.1053 -0.5327 -0.5581
  180MOL0     O24200   4.901   0.284   5.504  0.4345 -0.1223 -1.1603
  180MOL0     C24201   4.996   0.338   5.417 -0.0619  0.6487 -0.0266
  180MOL0     C24202   4.952   0.478   5.385  0.6325 -0.6409 -0.0576
  180MOL0     C24203   5.059   0.531   5.284  0.0185 -0.3102 -0.1555
  180MOL0     C24204   5.029   0.683   5.283  0.0545 -0.0001  0.6117
  180MOL0     C24205   5.124   0.763   5.184 -0.7906 -0.3385 -0.5181
  180MOL0     C24206   5.100   0.731   5.036  0.1146 -0.1345  0.3562
  180MOL0     C24207   5.202   0.800   4.937  0.0778  0.3836  0.0605
  180MOL0     C24208   5.235   0.729   4.806 -0.3814  0.8060 -0.0329
  180MOL0    Cl24209   5.085   0.728   4.698  0.2678  0.2747  0.4426
  180MOL0     C24210   4.846   0.143   5.685 -0.2685 -0.9088  0.5367
  180MOL0     C24211   4.874   0.036   5.775 -0.7483 -0.0318 -0.4048
  180MOL0     O24212   4.901  -0.280   5.696 -1.0073 -0.3221  0.1527
  180MOL0     C24213   5.082  -0.371   5.986  0.5665 -0.8710  0.4118
  180MOL0     C24214   5.082  -0.459   6.089 -0.0385  1.1220  0.3160
  180MOL0     N24215   4.502  -0.467   6.659  0.0134  0.3746 -0.7691
  180MOL0     N24216   4.497  -0.338   6.679  0.4039  0.6486  0.3264
  180MOL0     C24217   3.834   0.435   6.756 -0.3262  0.1646 -0.7378
  180MOL0     C24218   3.735   0.518   6.708  0.1192  0.3271 -0.4660
  180MOL0     C24219   3.531   0.865   6.516 -0.8546  0.0881  0.7095
  180MOL0     C24220   3.532   0.974   6.600 -0.1278  0.0803 -0.4565
  180MOL0     C24221   3.452   1.086   6.575  0.3263  1.4737 -0.3712
  180MOL0     C24222   3.365   1.086   6.468 -0.0916  0.4269  0.9776
  180MOL0     O24223   3.273   1.191   6.473  1.1883  1.2556 -0.1917
  180MOL0     C24224   3.152   1.196   6.381 -0.3007  0.1998  0.0027
  180MOL0     C24225   3.185   1.256   6.240 -0.0868  0.0184 -0.6643
  180MOL0     C24226   3.059   1.278   6.165 -0.2886 -0.5258  0.2541
  180MOL0     C24227   3.003   1.146   6.117  0.0110 -1.3122  0.1973
  180MOL0     C24228   2.901   1.113   6.209  0.2560 -0.1305 -0.5741
  180MOL0     C24229   2.830   1.077   6.302 -0.1045  0.5051  0.2800
  180MOL0     C24230   3.367   0.982   6.381  1.0686 -0.3100  0.9397
  180MOL0     C24231   3.448   0.871   6.401 -1.3662  0.4871 -0.4009
  180MOL0     C24232   3.424   0.758   6.312 -0.3199 -0.3646  0.7464
  180MOL0     H24233   3.892   0.811   6.780 -0.5895  0.1080  2.4529
  180MOL0     H24234   4.058   0.646   6.866 -0.6221 -0.9159  2.0039
  180MOL0     H24235   3.942   0.269   6.975  0.4083  3.2365  1.2278
  180MOL0     H24236   4.006   0.207   6.824 -4.9744 -0.7052  0.5110
  180MOL0     H24237   4.134   0.092   6.966  0.3777 -0.7000  1.2793
  180MOL0     H24238   4.174   0.219   7.081 -0.8368 -1.8449  0.2680
  180MOL0     H24239   4.314   0.335   6.927  1.0054 -0.1683 -1.7660
  180MOL0     H24240   4.254   0.239   6.791 -0.1864 -2.1812 -0.5734
  180MOL0     H24241   4.412   0.118   7.029  0.0957 -2.3843  0.4081
  180MOL0     H24242   4.349   0.038   6.884 -2.0657  0.4326 -1.1668
  180MOL0     H24243   4.503   0.185   6.749 -0.1661  0.3087 -0.4940
  180MOL0     H24244   4.562   0.254   6.909  0.5948  0.5735  0.1253
  180MOL0     H24245   4.716   0.092   6.822  1.6847  2.1103  4.4679
  180MOL0     H24246   4.643   0.033   6.969 -2.1226  3.7524  1.6499
  180MOL0     H24247   4.474  -0.065   6.738 -0.2448  1.9413  0.6488
  180MOL0     H24248   4.540  -0.151   6.875  4.5795  0.1568  1.4263
  180MOL0     H24249   4.730  -0.105   6.664 -2.2142 -3.8552 -5.8309
  180MOL0     H24250   4.727  -0.194   6.823  2.1212  0.7486 -1.6541
  180MOL0     H24251   4.823  -0.393   6.651 -0.3270  0.0426 -1.4325
  180MOL0     H24252   4.759  -0.653   6.680 -1.4748 -1.5475  2.7748
  180MOL0     H24253   4.586  -0.708   6.653 -1.1548  1.1125  2.2834
  180MOL0     H24254   4.695  -0.788   6.499 -0.7288  0.6368 -0.1991
  180MOL0     H24255   4.626  -0.647   6.415  1.6258 -3.0130 -3.7094
  180MOL0     H24256   4.915  -0.695   6.482 -0.5734 -1.4659 -0.8347
  180MOL0     H24257   4.842  -0.525   6.452 -0.3865  1.3859 -5.2669
  180MOL0     H24258   4.762  -0.619   6.241 -3.4242 -3.4612  3.9732
  180MOL0     H24259   4.854  -0.770   6.268  1.3444 -0.2601  2.9727
  180MOL0     H24260   4.775  -0.595   6.034  0.1921 -1.5485  1.5234
  180MOL0     H24261   4.775  -0.464   5.864 -0.3285  1.6328 -0.1769
  180MOL0     H24262   5.162  -0.066   5.645 -1.3371 -0.7620  1.7990
  180MOL0     H24263   5.119   0.127   5.479  0.9514 -0.4139 -0.0195
  180MOL0     H24264   5.094   0.337   5.467 -0.8544 -2.2238  1.6861
  180MOL0     H24265   5.008   0.270   5.332 -1.2708 -0.1070  0.3920
  180MOL0     H24266   4.850   0.471   5.345  0.4879  1.3786 -0.1571
  180MOL0     H24267   4.957   0.542   5.473  0.5682 -2.4065  1.2830
  180MOL0     H24268   5.166   0.519   5.304 -0.4112 -2.5543  1.0970
  180MOL0     H24269   5.041   0.492   5.183  4.4771 -1.9969 -0.5147
  180MOL0     H24270   5.018   0.734   5.379  2.1569  2.1646 -0.1946
  180MOL0     H24271   4.929   0.710   5.249  1.4302  4.3643 -0.6964
  180MOL0     H24272   5.229   0.737   5.201 -1.2638 -1.5147  0.8437
  180MOL0     H24273   5.112   0.869   5.210  0.8945  1.0267 -4.5934
  180MOL0     H24274   5.113   0.624   5.021  1.0826  0.1774 -1.2758
  180MOL0     H24275   4.995   0.753   5.012 -0.0738  0.3688  1.5816
  180MOL0     H24276   5.294   0.828   4.990 -1.6739  0.4513  3.3531
  180MOL0     H24277   5.166   0.901   4.914 -0.4685  0.8569  2.6460
  180MOL0     H24278   5.327   0.763   4.758 -0.0069 -1.6077 -1.1388
  180MOL0     H24279   5.247   0.624   4.834 -3.5400 -0.3447 -2.4534
  180MOL0     H24280   4.758   0.207   5.690  1.0791  0.9394  3.5307
  180MOL0     H24281   4.812   0.018   5.863 -1.4062  1.4007 -0.5512
  180MOL0     H24282   5.165  -0.302   5.972 -0.4911 -0.1023 -2.9925
  180MOL0     H24283   5.158  -0.464   6.166 -2.8623 -2.5168  3.2165
  180MOL0     H24284   3.842   0.330   6.726  3.0150 -0.6988  2.4053
  180MOL0     H24285   3.657   0.470   6.649  0.8586 -2.1014  0.3832
  180MOL0     H24286   3.593   0.987   6.688 -0.8823  1.9732 -0.1532
  180MOL0     H24287   3.451   1.173   6.639 -1.3915  0.6229  0.8354
  180MOL0     H24288   3.098   1.268   6.443  2.8397  0.1714  3.1752
  180MOL0     H24289   3.111   1.096   6.370  2.7941 -0.9646 -2.2533
  180MOL0     H24290   3.256   1.204   6.175  3.5952 -0.5389  3.3867
  180MOL0     H24291   3.241   1.347   6.260  0.6576  0.7067 -4.8610
  180MOL0     H24292   3.094   1.329   6.075  3.1793 -2.5063  0.2675
  180MOL0     H24293   2.993   1.338   6.228 -0.3239 -0.5702  0.2596
  180MOL0     H24294   2.947   1.157   6.023 -1.2393  0.1466  1.0767
  180MOL0     H24295   3.081   1.074   6.090  0.5954 -0.5374 -0.2355
  180MOL0     H24296   2.767   1.055   6.386  1.4789  2.2329  2.0146
  180MOL0     H24297   3.303   0.979   6.294  1.9537 -0.4779  0.2764
  180MOL0     H24298   3.421   0.670   6.377 -2.2713  0.3801  1.7311
  180MOL0     H24299   3.333   0.761   6.251  1.6361  0.6634 -2.3341
  180MOL0     H24300   3.506   0.753   6.239  0.7178  0.5491  1.8228
  181MOL0     O24301   7.377   3.175   3.656 -0.5325  0.1922 -0.1327
  181MOL0     C24302   7.302   3.125   3.736 -0.6456 -0.0223 -0.6191
  181MOL0     O24303   7.208   3.202   3.790  0.7905  0.6827 -0.3251
  181MOL0     C24304   7.208   3.337   3.798  0.3938  0.0814 -0.4176
  181MOL0     C24305   7.287   3.404   3.892 -0.1172  0.3805 -0.1111
  181MOL0     C24306   7.272   3.537   3.905  0.8050  0.0994  0.9418
  181MOL0     C24307   7.174   3.605   3.825 -0.2635 -0.7412  0.3893
  181MOL0     O24308   7.168   3.733   3.865 -0.4005  0.4735 -0.4309
  181MOL0     C24309   7.059   3.809   3.817  1.2291  0.2758 -0.0768
  181MOL0     C24310   6.932   3.774   3.907  0.3791 -0.4319 -0.2061
  181MOL0     C24311   6.818   3.873   3.895 -0.1815 -1.2585  0.4156
  181MOL0     C24312   6.693   3.819   3.966 -0.2096 -0.2848  0.8495
  181MOL0     C24313   6.564   3.903   3.933  0.5997  0.8534  0.2637
  181MOL0     C24314   6.579   4.049   3.905  0.5308 -0.3976 -0.0890
  181MOL0     C24315   6.628   4.116   4.034 -0.1773 -0.1903 -0.5378
  181MOL0     C24316   6.616   4.272   4.037 -0.7101  0.5988  0.8962
  181MOL0     N24317   6.694   4.344   3.930 -0.9541  1.0333  0.5618
  181MOL0     C24318   6.837   4.338   3.921 -0.4793  0.1191  1.0443
  181MOL0     C24319   6.868   4.416   3.812  0.0432 -0.8786 -0.6456
  181MOL0     C24320   7.005   4.451   3.760  0.6227 -0.0039 -0.4818
  181MOL0     C24321   7.114   4.535   3.841 -0.3803 -0.0635  0.7291
  181MOL0     C24322   7.243   4.553   3.750  0.7037 -0.2346  0.7458
  181MOL0     C24323   7.345   4.606   3.840 -0.1130  0.3198  0.4337
  181MOL0     O24324   7.400   4.498   3.916  0.2085  0.3562  0.5822
  181MOL0     C24325   7.493   4.537   4.009  0.4927  0.2718  0.1292
  181MOL0     C24326   7.503   4.442   4.111 -0.9948 -0.2008  0.6792
  181MOL0     C24327   7.585   4.467   4.222 -0.5575  0.4115  0.0875
  181MOL0     C24328   7.656   4.588   4.234  0.6301 -0.0913  0.2302
  181MOL0     C24329   7.748   4.616   4.350 -1.3243 -0.0500 -0.5667
  181MOL0     O24330   7.821   4.734   4.355  0.2606  0.2877  0.0903
  181MOL0     C24331   7.914   4.746   4.457  0.5021  0.6592  0.3730
  181MOL0     C24332   7.860   4.762   4.587 -0.1260  0.3448  0.3800
  181MOL0     C24333   7.947   4.773   4.696  0.4916  0.3359 -0.0434
  181MOL0     C24334   8.085   4.780   4.679  0.5806 -0.1461  0.5390
  181MOL0     O24335   8.178   4.792   4.775 -0.2751 -0.0716  0.6946
  181MOL0     C24336   8.270   4.909   4.765  0.2348 -0.0561  0.2816
  181MOL0     C24337   8.231   5.016   4.866 -0.5615 -0.2660  1.0137
  181MOL0     C24338   8.085   5.051   4.838  0.0260 -0.5348 -0.0010
  181MOL0     C24339   8.034   5.143   4.947 -1.2703  0.6029 -0.2246
  181MOL0     C24340   7.885   5.138   4.977 -0.6980 -0.2493 -0.6345
  181MOL0     C24341   7.829   5.017   5.067 -0.8505 -0.4627  0.3070
  181MOL0     C24342   7.677   5.016   5.063  0.3730  0.5756  0.6486
  181MOL0     C24343   7.609   5.042   5.198  0.5804  0.3011  0.0178
  181MOL0    Cl24344   7.604   5.219   5.249  0.0291  0.0360 -0.3021
  181MOL0     C24345   8.134   4.753   4.545 -0.3674  0.1275  0.0121
  181MOL0     C24346   8.049   4.731   4.443 -0.0215 -0.4754  1.2463
  181MOL0     O24347   7.751   4.543   4.445 -0.9075 -0.0281  0.1229
  181MOL0     C24348   7.655   4.677   4.127  0.3873 -0.1580  0.7409
  181MOL0     C24349   7.578   4.650   4.011  0.1408 -0.6672 -0.1060
  181MOL0     N24350   6.754   4.467   3.764  0.2443 -0.5092  0.4141
  181MOL0     N24351   6.647   4.431   3.832  0.1778  0.4036  0.2327
  181MOL0     C24352   7.098   3.540   3.729  0.5282  1.0092  0.1318
  181MOL0     C24353   7.115   3.399   3.718  0.6162  0.3306  0.7427
  181MOL0     C24354   7.289   2.978   3.758 -0.2763  0.5937  0.7766
  181MOL0     C24355   7.334   2.883   3.657  0.4279 -0.6403 -0.1209
  181MOL0     C24356   7.347   2.740   3.685  0.2417 -0.3101 -0.3449
  181MOL0     C24357   7.307   2.689   3.814 -0.0992 -1.5615  0.8124
  181MOL0     O24358   7.312   2.560   3.836  0.4678 -0.1007  0.3603
  181MOL0     C24359   7.294   2.503   3.970 -0.5117 -1.2126  0.1064
  181MOL0     C24360   7.411   2.529   4.068  0.1082  0.3096  0.3108
  181MOL0     C24361   7.551   2.515   4.007  0.5166  0.2786 -0.0845
  181MOL0     C24362   7.661   2.574   4.099 -0.4168 -0.2614  0.1198
  181MOL0     C24363   7.791   2.527   4.051 -1.2546 -1.0369  0.3946
  181MOL0     C24364   7.900   2.480   4.020  0.5938  0.4293 -0.0281
  181MOL0     C24365   7.274   2.785   3.912  0.2092  0.1657  0.1529
  181MOL0     C24366   7.261   2.922   3.885 -0.1309  0.6535  0.5299
  181MOL0     C24367   7.213   2.999   4.011  0.3772 -0.2803 -1.0003
  181MOL0     H24368   7.367   3.348   3.941  3.4143  0.2437 -5.2610
  181MOL0     H24369   7.322   3.591   3.985  4.2298 -0.1117 -0.8809
  181MOL0     H24370   7.084   3.914   3.838  3.3162  1.0088 -4.8945
  181MOL0     H24371   7.044   3.811   3.709 -2.7509 -1.1589  0.2921
  181MOL0     H24372   6.956   3.767   4.014 -0.7933  2.5229  0.3408
  181MOL0     H24373   6.902   3.674   3.876 -2.0390  0.0272  0.4705
  181MOL0     H24374   6.785   3.893   3.792 -1.4518 -0.2177  0.9905
  181MOL0     H24375   6.854   3.968   3.934  1.9357 -1.8831  0.1008
  181MOL0     H24376   6.683   3.711   3.954  3.8967 -0.8602  1.1788
  181MOL0     H24377   6.707   3.821   4.074 -0.0678  1.6430  0.8316
  181MOL0     H24378   6.512   3.857   3.849  0.3104  2.3158 -0.3772
  181MOL0     H24379   6.491   3.895   4.015  0.7934  1.0716  0.4578
  181MOL0     H24380   6.652   4.063   3.825  0.8039 -0.6007  0.1222
  181MOL0     H24381   6.480   4.085   3.878 -0.6459 -2.4205  1.2826
  181MOL0     H24382   6.733   4.092   4.050  0.3552  1.7152 -0.9421
  181MOL0     H24383   6.564   4.082   4.117 -1.2318 -4.2855 -2.7456
  181MOL0     H24384   6.512   4.296   4.017  0.1723  2.2189 -2.5980
  181MOL0     H24385   6.650   4.307   4.135  4.6336 -0.8946 -0.0776
  181MOL0     H24386   6.907   4.294   3.992  0.1970 -0.4918  0.0403
  181MOL0     H24387   7.051   4.355   3.735  2.7864  0.6382  0.7680
  181MOL0     H24388   6.997   4.497   3.661  1.0500  0.2695 -0.3900
  181MOL0     H24389   7.073   4.633   3.864  1.0478  1.1473 -1.5638
  181MOL0     H24390   7.134   4.488   3.938  2.1776  2.2450  1.4231
  181MOL0     H24391   7.236   4.621   3.664 -1.3084 -0.0442  1.0172
  181MOL0     H24392   7.272   4.457   3.707 -0.9502  0.0925 -1.2559
  181MOL0     H24393   7.306   4.684   3.907  0.7101  0.6965  0.4895
  181MOL0     H24394   7.427   4.660   3.793 -0.0873 -0.4875 -0.4811
  181MOL0     H24395   7.449   4.347   4.110  2.6159 -2.4340  0.3998
  181MOL0     H24396   7.580   4.404   4.310  0.9486 -1.4546 -1.1042
  181MOL0     H24397   7.754   4.764   4.606 -0.1879 -3.3536  1.1439
  181MOL0     H24398   7.903   4.776   4.795 -0.7746 -2.3932 -0.4554
  181MOL0     H24399   8.370   4.872   4.789 -0.3995 -1.4392  0.8944
  181MOL0     H24400   8.270   4.952   4.664  0.5652  0.1283  0.3552
  181MOL0     H24401   8.232   4.979   4.969 -2.1898  3.8651  2.7689
  181MOL0     H24402   8.303   5.098   4.875  0.1983 -1.0446  2.3463
  181MOL0     H24403   8.072   5.103   4.742  0.3181 -0.2751  0.0965
  181MOL0     H24404   8.019   4.965   4.848 -0.4644 -0.1286  0.3601
  181MOL0     H24405   8.053   5.250   4.930  0.3399  0.5274  0.8223
  181MOL0     H24406   8.084   5.106   5.037 -0.7419 -2.6159 -1.7088
  181MOL0     H24407   7.833   5.128   4.882  0.6962 -1.0855 -1.3437
  181MOL0     H24408   7.858   5.229   5.030  0.3592  0.9781 -2.1162
  181MOL0     H24409   7.859   4.919   5.027 -0.3596  0.1323 -0.8483
  181MOL0     H24410   7.878   5.029   5.164  0.7006 -2.9261 -0.0796
  181MOL0     H24411   7.650   4.926   5.008  0.4443  1.2766 -0.5822
  181MOL0     H24412   7.647   5.101   5.000 -1.3224  0.8149  1.7328
  181MOL0     H24413   7.501   5.024   5.190  1.0650 -3.3013  0.0960
  181MOL0     H24414   7.645   4.983   5.283 -1.4763  0.9897  1.4697
  181MOL0     H24415   8.236   4.757   4.509 -0.3468 -5.4815 -1.3648
  181MOL0     H24416   8.090   4.712   4.344  0.0570 -1.9806  1.5397
  181MOL0     H24417   7.721   4.763   4.133  1.9663 -1.2633 -0.0770
  181MOL0     H24418   7.577   4.727   3.935  1.0205  1.4251  1.8893
  181MOL0     H24419   7.039   3.606   3.666 -0.6083  2.0636  2.2100
  181MOL0     H24420   7.060   3.343   3.642  4.1292 -0.2897 -1.6264
  181MOL0     H24421   7.378   2.927   3.568 -0.0749 -3.1985 -1.7232
  181MOL0     H24422   7.393   2.676   3.610 -1.3403 -1.1158 -0.6597
  181MOL0     H24423   7.308   2.397   3.948  3.3001 -0.1849 -3.9688
  181MOL0     H24424   7.201   2.540   4.014  0.1946  1.2216 -0.2741
  181MOL0     H24425   7.395   2.461   4.152 -5.6688 -0.1339 -0.7446
  181MOL0     H24426   7.386   2.626   4.110  0.0202  1.2999 -1.8625
  181MOL0     H24427   7.556   2.581   3.920  0.5106  0.2532 -0.1038
  181MOL0     H24428   7.571   2.413   3.974  0.3312 -0.2967  1.4836
  181MOL0     H24429   7.663   2.683   4.086  0.4762 -0.3450 -0.6426
  181MOL0     H24430   7.628   2.538   4.196 -2.3247 -2.2849 -1.1886
  181MOL0     H24431   7.992   2.439   3.983  1.4055  1.7160  0.4679
  181MOL0     H24432   7.228   2.747   4.002  0.9609 -1.6589 -0.1933
  181MOL0     H24433   7.230   3.107   4.004 -2.3138  0.3650  0.9298
  181MOL0     H24434   7.112   2.959   4.018  0.1685  0.0323 -2.0818
  181MOL0     H24435   7.259   2.950   4.098 -1.0671 -0.6702 -0.4319
  182MOL0     O24436   0.867   1.382  10.500  0.2074 -0.1055 -0.0437
  182MOL0     C24437   0.800   1.468  10.557  0.3937 -1.0201  0.9108
  182MOL0     O24438   0.710   1.549  10.493 -0.2564 -0.2515  0.0691
  182MOL0     C24439   0.721   1.584  10.358 -1.0884 -0.3667  0.0609
  182MOL0     C24440   0.611   1.647  10.309  1.0088 -0.3466 -0.2489
  182MOL0     C24441   0.597   1.690  10.173  0.0090 -0.3188  0.2321
  182MOL0     C24442   0.705   1.662  10.083 -0.0163  0.1077  0.4211
  182MOL0     O24443   0.683   1.681   9.949 -0.5552 -0.0417  0.3302
  182MOL0     C24444   0.808   1.691   9.878 -0.6510  0.4484 -0.5087
  182MOL0     C24445   0.787   1.753   9.742 -0.0445  0.1554 -0.3686
  182MOL0     C24446   0.747   1.903   9.731 -0.5973  0.4027  1.0167
  182MOL0     C24447   0.591   1.927   9.747  0.5261  0.0507 -0.2436
  182MOL0     C24448   0.539   2.074   9.726  0.6790  0.3518  0.0350
  182MOL0     C24449   0.593   2.126   9.590  0.9464 -0.8462 -0.7031
  182MOL0     C24450   0.540   2.278   9.579 -0.2148  0.6776  0.0779
  182MOL0     C24451   0.608   2.354   9.461  1.5490 -0.4765 -0.2089
  182MOL0     N24452   0.556   2.484   9.446  0.7292 -0.0301 -0.0069
  182MOL0     C24453   0.437   2.510   9.393  0.4851 -0.6951  1.0382
  182MOL0     C24454   0.422   2.646   9.404  0.4467 -0.2282 -0.7954
  182MOL0     C24455   0.292   2.715   9.349 -0.5738  0.6149 -0.2198
  182MOL0     C24456   0.312   2.863   9.317 -0.3130 -0.3259 -0.2136
  182MOL0     C24457   0.207   2.939   9.405 -0.3942 -0.5919  0.0198
  182MOL0     C24458   0.274   2.949   9.548 -0.5231  0.9301 -0.0448
  182MOL0     O24459   0.169   2.962   9.646  0.4541 -0.0940 -0.0487
  182MOL0     C24460   0.204   2.958   9.783 -0.4296  0.9185  0.1785
  182MOL0     C24461   0.333   2.950   9.829 -0.1556 -0.5420 -1.1193
  182MOL0     C24462   0.358   2.947   9.962 -1.1125 -0.5189 -0.4858
  182MOL0     C24463   0.260   2.951  10.064 -0.6570 -0.4543 -0.8421
  182MOL0     C24464   0.285   2.952  10.209 -0.9159 -0.3394 -0.3728
  182MOL0     O24465   0.411   3.000  10.244  0.1512  0.1310  0.3936
  182MOL0     C24466   0.416   3.059  10.372  0.2363  0.5376 -0.6783
  182MOL0     C24467   0.489   2.994  10.480  0.4669  0.0362 -0.7496
  182MOL0     C24468   0.503   3.043  10.608 -0.0885  0.2448 -0.8048
  182MOL0     C24469   0.449   3.164  10.628  0.1644 -0.0367 -0.9914
  182MOL0     O24470   0.471   3.237  10.747  1.0548  0.4768  0.1797
  182MOL0     C24471   0.432   3.171  10.870 -0.0418 -1.0545 -0.5498
  182MOL0     C24472   0.514   3.215  11.000  0.9555  0.0620 -0.2076
  182MOL0     C24473   0.442   3.270  11.129  0.2175 -0.1806 -0.2030
  182MOL0     C24474   0.302   3.200  11.149  0.2403  0.1979 -0.0297
  182MOL0     C24475   0.274   3.239  11.291 -0.4104 -0.4659 -1.1491
  182MOL0     C24476   0.150   3.179  11.356 -0.6076  0.0919  0.2426
  182MOL0     C24477   0.122   3.229  11.495 -1.1090  0.0394 -0.3233
  182MOL0     C24478  -0.013   3.161  11.537  0.6299 -0.8212 -0.4596
  182MOL0    Cl24479  -0.062   3.216  11.696 -0.3915 -0.3377  0.3836
  182MOL0     C24480   0.366   3.231  10.530  0.0372 -0.7600 -0.1385
  182MOL0     C24481   0.352   3.182  10.399 -0.6078 -0.0305 -0.4522
  182MOL0     O24482   0.189   2.940  10.284 -0.2352 -0.3694  0.1279
  182MOL0     C24483   0.132   2.961  10.017  0.1888  0.7402 -0.1092
  182MOL0     C24484   0.108   2.962   9.878  0.4652 -0.6864 -0.1894
  182MOL0     N24485   0.535   2.691   9.469  0.9878 -0.0982 -0.6436
  182MOL0     N24486   0.615   2.597   9.496 -0.5858  0.7435  0.6004
  182MOL0     C24487   0.820   1.600  10.140  0.4100 -0.2255 -0.3824
  182MOL0     C24488   0.823   1.565  10.271  0.4859  0.0569  0.0767
  182MOL0     C24489   0.801   1.464  10.705 -0.2349 -0.7610 -0.6157
  182MOL0     C24490   0.695   1.523  10.781 -0.2680  0.7756 -0.5778
  182MOL0     C24491   0.704   1.543  10.923  0.0934  0.1302  0.4026
  182MOL0     C24492   0.813   1.496  10.996 -0.4270 -0.2913 -0.5325
  182MOL0     O24493   0.828   1.517  11.132 -0.2642  0.1411 -0.1805
  182MOL0     C24494   0.718   1.563  11.208  0.4651  0.7412  0.1774
  182MOL0     C24495   0.744   1.546  11.351 -0.0712 -0.2710  0.3304
  182MOL0     C24496   0.774   1.409  11.401 -0.5854  0.0465 -1.0143
  182MOL0     C24497   0.662   1.307  11.363  0.4271  0.2003 -0.3394
  182MOL0     C24498   0.532   1.332  11.427  0.2029  0.6681  0.7171
  182MOL0     C24499   0.431   1.362  11.489  0.2461  0.2079 -0.1469
  182MOL0     C24500   0.910   1.430  10.922 -0.9260  0.3898  0.0181
  182MOL0     C24501   0.904   1.407  10.788  0.5207 -0.1931  0.4928
  182MOL0     C24502   1.031   1.340  10.732 -0.5236  0.2835  0.1791
  182MOL0     H24503   0.530   1.676  10.376  2.0657 -1.2831  1.5289
  182MOL0     H24504   0.497   1.724  10.147 -0.6695 -1.4299  1.2380
  182MOL0     H24505   0.887   1.744   9.931 -1.1340  1.9526 -1.2286
  182MOL0     H24506   0.857   1.595   9.861 -0.5553  0.3346  0.3710
  182MOL0     H24507   0.706   1.692   9.700 -0.4530  0.3996  0.0606
  182MOL0     H24508   0.879   1.725   9.690 -0.6515  0.0133 -1.3877
  182MOL0     H24509   0.789   1.946   9.640  0.0089  0.8961  1.5204
  182MOL0     H24510   0.802   1.961   9.805  0.2667 -0.6470  1.2135
  182MOL0     H24511   0.538   1.858   9.681 -0.8874 -0.0166  0.8952
  182MOL0     H24512   0.562   1.889   9.846  0.0103  1.1329  0.0382
  182MOL0     H24513   0.430   2.077   9.715  0.8089  0.2965 -1.4926
  182MOL0     H24514   0.578   2.129   9.811 -1.3778  1.6624  0.2172
  182MOL0     H24515   0.701   2.115   9.580  1.3786 -0.0162  2.2347
  182MOL0     H24516   0.551   2.065   9.509  0.5604  1.0053 -1.9581
  182MOL0     H24517   0.555   2.334   9.672 -1.0021  0.5168  0.3073
  182MOL0     H24518   0.431   2.268   9.570 -0.2969 -0.6310  1.9763
  182MOL0     H24519   0.712   2.369   9.489  0.7287  1.6729  2.0791
  182MOL0     H24520   0.605   2.303   9.364  0.3567 -2.6201  0.8809
  182MOL0     H24521   0.362   2.440   9.357  1.4089 -1.6862  1.0030
  182MOL0     H24522   0.262   2.662   9.258 -0.7953 -3.8695  2.1603
  182MOL0     H24523   0.206   2.700   9.415 -2.0911 -0.3883 -2.3114
  182MOL0     H24524   0.418   2.891   9.318 -0.2464 -0.4599  1.7544
  182MOL0     H24525   0.279   2.871   9.213 -0.6534 -2.0327 -0.2713
  182MOL0     H24526   0.111   2.888   9.405 -1.5349  1.4441 -1.0640
  182MOL0     H24527   0.186   3.040   9.370 -0.2382 -0.7103 -0.4219
  182MOL0     H24528   0.346   3.031   9.546  1.1510 -0.4934  0.3835
  182MOL0     H24529   0.328   2.857   9.569 -1.9297 -0.2155 -1.1911
  182MOL0     H24530   0.425   2.954   9.771  2.1998 -0.9930  2.2885
  182MOL0     H24531   0.462   2.935   9.992 -0.9874  1.9427  0.2842
  182MOL0     H24532   0.522   2.894  10.455  1.3714  0.0182  0.3924
  182MOL0     H24533   0.546   2.977  10.683 -1.7863  0.0418  0.0480
  182MOL0     H24534   0.327   3.198  10.887  0.1675 -1.9561  3.1753
  182MOL0     H24535   0.418   3.063  10.866 -1.2624 -0.9854  0.8726
  182MOL0     H24536   0.565   3.127  11.039  0.9516  0.0894 -0.1414
  182MOL0     H24537   0.590   3.286  10.967  0.4868 -0.0736 -1.6627
  182MOL0     H24538   0.508   3.235  11.208 -0.6649 -0.3602  0.4628
  182MOL0     H24539   0.423   3.378  11.131 -3.3242 -0.6412 -1.2249
  182MOL0     H24540   0.318   3.093  11.136  1.7435  0.3060  0.7011
  182MOL0     H24541   0.222   3.231  11.081 -0.9999 -1.7960  0.4513
  182MOL0     H24542   0.262   3.347  11.301  1.9970 -0.3051  1.2139
  182MOL0     H24543   0.355   3.214  11.361 -0.5115  5.8640  1.9709
  182MOL0     H24544   0.065   3.215  11.297  0.0620  0.7209 -0.3565
  182MOL0     H24545   0.176   3.073  11.348  2.0707  0.6663  0.5780
  182MOL0     H24546   0.129   3.338  11.504 -2.6898  0.0842  0.6095
  182MOL0     H24547   0.197   3.184  11.561  0.7759  3.1113 -0.1884
  182MOL0     H24548  -0.094   3.186  11.468 -0.1475 -2.0596 -0.0348
  182MOL0     H24549   0.003   3.054  11.524  0.4881 -1.0297  0.8924
  182MOL0     H24550   0.319   3.327  10.551  0.8344 -0.7633  1.9322
  182MOL0     H24551   0.293   3.232  10.323  0.4606 -1.2879 -2.1829
  182MOL0     H24552   0.046   2.973  10.083  1.2842  2.5966  1.0557
  182MOL0     H24553   0.006   2.981   9.848 -0.9674 -1.3449  3.7067
  182MOL0     H24554   0.913   1.576  10.090  2.0435  1.2081  1.7913
  182MOL0     H24555   0.913   1.518  10.309  0.3284 -1.5558 -1.4140
  182MOL0     H24556   0.611   1.574  10.735 -3.4508 -1.7967  1.8436
  182MOL0     H24557   0.618   1.595  10.964 -0.6560  0.7376 -1.8104
  182MOL0     H24558   0.626   1.511  11.177  0.9624  0.0186 -0.1149
  182MOL0     H24559   0.704   1.669  11.189  0.3237  0.6217 -0.4119
  182MOL0     H24560   0.655   1.580  11.406  1.4507 -0.6881  3.2637
  182MOL0     H24561   0.820   1.618  11.383  2.6856 -2.8349 -0.1135
  182MOL0     H24562   0.784   1.416  11.509  1.2304 -2.1306 -0.9601
  182MOL0     H24563   0.873   1.380  11.365  0.1119  0.4774  0.4872
  182MOL0     H24564   0.636   1.289  11.258 -0.8726  1.2462 -0.2081
  182MOL0     H24565   0.695   1.215  11.412  1.5539  1.0342  0.5136
  182MOL0     H24566   0.349   1.397  11.549  0.1702 -2.7943  1.6722
  182MOL0     H24567   1.004   1.410  10.973 -0.0890 -1.0681 -1.9631
  182MOL0     H24568   1.011   1.282  10.642  2.2510 -3.4193  1.7242
  182MOL0     H24569   1.117   1.407  10.723  0.2555 -0.8644 -1.5105
  182MOL0     H24570   1.068   1.265  10.802  1.1416  1.0575  0.1685
  183MOL0     O24571   5.140   7.951   9.497  0.0669  1.4422  0.3208
  183MOL0     C24572   5.129   7.830   9.529  0.2977  0.0181 -0.1528
  183MOL0     O24573   5.041   7.772   9.615 -0.3324  0.7270  0.2322
  183MOL0     C24574   4.932   7.827   9.656  0.3587  0.4781  0.3854
  183MOL0     C24575   4.853   7.916   9.576  0.6605  0.3001  0.2806
  183MOL0     C24576   4.740   7.975   9.634  0.0513 -0.4710 -0.3822
  183MOL0     C24577   4.698   7.943   9.768  0.3719 -0.1541 -0.0259
  183MOL0     O24578   4.585   7.992   9.831 -0.7101  0.1777 -0.0133
  183MOL0     C24579   4.504   8.085   9.767 -0.3641 -0.3602  0.1655
  183MOL0     C24580   4.408   8.147   9.872 -0.0844  0.5321  0.7835
  183MOL0     C24581   4.323   8.053   9.949  0.6529 -0.5345  0.8979
  183MOL0     C24582   4.279   8.111  10.082  0.1796  0.1866  0.2535
  183MOL0     C24583   4.175   8.214  10.061  0.3240  0.0303 -0.3339
  183MOL0     C24584   4.131   8.273  10.196 -0.4656  0.7016  1.4417
  183MOL0     C24585   4.075   8.172  10.295  0.0175  0.3069 -0.7493
  183MOL0     C24586   4.021   8.232  10.424 -0.0390 -0.1195 -0.3374
  183MOL0     N24587   4.128   8.303  10.497 -0.4313  0.6457 -0.8337
  183MOL0     C24588   4.145   8.437  10.510 -0.0008 -0.8950  0.6308
  183MOL0     C24589   4.249   8.450  10.604 -0.2895 -0.3424  0.2750
  183MOL0     C24590   4.292   8.584  10.658  0.4130  0.2821  0.5594
  183MOL0     C24591   4.441   8.616  10.657  0.1647 -0.6406 -0.7945
  183MOL0     C24592   4.459   8.768  10.663  0.1484 -1.4940  0.6591
  183MOL0     C24593   4.408   8.835  10.797 -0.5618  0.0392  0.2394
  183MOL0     O24594   4.269   8.843  10.795  0.2965 -0.0255 -0.3307
  183MOL0     C24595   4.204   8.954  10.737 -0.6746  0.3590 -0.1465
  183MOL0     C24596   4.069   8.943  10.715 -0.3294 -0.0521  0.8995
  183MOL0     C24597   3.984   9.053  10.685 -0.1826  0.4901 -0.5822
  183MOL0     C24598   4.046   9.173  10.647 -1.3349 -0.8534 -0.2712
  183MOL0     C24599   3.974   9.288  10.585 -1.0986 -0.3662 -0.3027
  183MOL0     O24600   4.030   9.416  10.588  0.0557 -0.2847 -0.0541
  183MOL0     C24601   3.950   9.516  10.533 -0.0699  0.0835 -0.5494
  183MOL0     C24602   3.967   9.566  10.401  0.1257  0.3863 -0.9017
  183MOL0     C24603   3.892   9.678  10.362 -0.8943 -0.0204 -0.3649
  183MOL0     C24604   3.809   9.742  10.457  0.0857 -0.2798 -0.4402
  183MOL0     O24605   3.738   9.852  10.425  0.2096 -0.3281 -0.3186
  183MOL0     C24606   3.631   9.842  10.338  0.2004 -0.1191  0.4871
  183MOL0     C24607   3.546   9.963  10.355  0.1379  0.7283  0.5627
  183MOL0     C24608   3.465   9.995  10.232  1.1431  0.3962 -0.3740
  183MOL0     C24609   3.341  10.057  10.289  0.5246 -0.4204 -0.3675
  183MOL0     C24610   3.268  10.148  10.184 -1.4760 -0.2494 -0.3644
  183MOL0     C24611   3.290  10.305  10.220 -1.0731  0.1419  0.2239
  183MOL0     C24612   3.200  10.344  10.346 -0.1058  1.0002  0.6636
  183MOL0     C24613   3.051  10.366  10.318 -0.3193  0.5174  0.7780
  183MOL0    Cl24614   2.962  10.231  10.404 -0.2707 -0.2284  0.0686
  183MOL0     C24615   3.811   9.700  10.589  0.2458 -0.8385  1.0916
  183MOL0     C24616   3.873   9.587  10.630 -0.8178  0.5811 -0.7524
  183MOL0     O24617   3.860   9.264  10.557  0.3184  0.1550  0.7494
  183MOL0     C24618   4.186   9.179  10.661  0.0013  0.4782 -0.8579
  183MOL0     C24619   4.265   9.081  10.719 -0.8373  0.7294  0.1438
  183MOL0     N24620   4.306   8.325  10.621 -0.4075  0.5236 -0.0251
  183MOL0     N24621   4.247   8.241  10.544  0.1203 -0.0891 -0.1143
  183MOL0     C24622   4.769   7.848   9.839 -0.2838  0.2530 -0.4060
  183MOL0     C24623   4.877   7.787   9.783 -0.1210  0.3579  0.4041
  183MOL0     C24624   5.242   7.751   9.480 -0.0595  0.0303  0.1647
  183MOL0     C24625   5.296   7.772   9.343  0.9297 -0.0043 -0.0019
  183MOL0     C24626   5.389   7.686   9.290 -0.6994 -0.3946 -0.3625
  183MOL0     C24627   5.464   7.596   9.365 -0.6060  0.5508 -0.2823
  183MOL0     O24628   5.559   7.532   9.284  0.2383 -0.2718 -0.7237
  183MOL0     C24629   5.659   7.456   9.358 -0.4088 -0.6826 -0.3793
  183MOL0     C24630   5.746   7.389   9.261  0.0421 -0.4735  0.3704
  183MOL0     C24631   5.857   7.314   9.327  0.0948 -0.6131 -0.0828
  183MOL0     C24632   5.825   7.205   9.417  0.8345 -0.2953  0.3112
  183MOL0     C24633   5.937   7.144   9.488 -0.4330  0.0482  0.9242
  183MOL0     C24634   6.021   7.061   9.517 -1.0889 -0.9710  0.0308
  183MOL0     C24635   5.433   7.586   9.496  0.0876 -0.1365 -0.9174
  183MOL0     C24636   5.324   7.660   9.562 -0.2752 -1.0713  0.5264
  183MOL0     C24637   5.317   7.670   9.720  0.4214  0.4382 -0.3490
  183MOL0     H24638   4.884   7.947   9.476 -1.3068 -0.2283 -0.5377
  183MOL0     H24639   4.698   8.053   9.571  2.1861  3.4914  2.5997
  183MOL0     H24640   4.571   8.164   9.733  4.0974 -0.6924  6.4402
  183MOL0     H24641   4.444   8.038   9.688 -1.3002 -3.0424  2.3069
  183MOL0     H24642   4.349   8.230   9.830 -0.6246 -0.3056 -0.1617
  183MOL0     H24643   4.475   8.192   9.946 -0.2796  0.0256  1.2800
  183MOL0     H24644   4.391   7.968   9.963 -0.8907 -1.9098  0.3208
  183MOL0     H24645   4.235   8.026   9.890 -2.2917  1.2299  4.1052
  183MOL0     H24646   4.239   8.024  10.134  3.2687  0.0214  2.6199
  183MOL0     H24647   4.358   8.144  10.151  0.1038  0.2903  0.2913
  183MOL0     H24648   4.205   8.299  10.000  1.3217 -0.2557 -0.2623
  183MOL0     H24649   4.094   8.173  10.000 -1.6880  2.3894  0.6071
  183MOL0     H24650   4.223   8.316  10.236  0.3432 -1.2428  1.7538
  183MOL0     H24651   4.059   8.354  10.176 -0.7279  0.5066  1.6030
  183MOL0     H24652   4.158   8.116  10.340 -0.6522  1.6187  2.4257
  183MOL0     H24653   3.999   8.105  10.252 -0.7650  0.3337  0.5372
  183MOL0     H24654   3.936   8.299  10.406  0.3444  0.7437  0.9351
  183MOL0     H24655   3.983   8.151  10.487 -0.4970  1.7402  1.9057
  183MOL0     H24656   4.073   8.505  10.468  0.2847 -0.7161  0.4309
  183MOL0     H24657   4.247   8.658  10.592  1.2231  2.0166  1.8629
  183MOL0     H24658   4.249   8.602  10.757  1.7683 -0.5507  1.3464
  183MOL0     H24659   4.489   8.570  10.744  1.9736  4.0144  1.0061
  183MOL0     H24660   4.479   8.586  10.559 -0.0082  3.2619 -2.2375
  183MOL0     H24661   4.422   8.814  10.571  3.6770  1.0439  0.2797
  183MOL0     H24662   4.567   8.784  10.655 -0.0473 -1.0710 -2.9442
  183MOL0     H24663   4.458   8.930  10.815 -1.5467  0.4737  0.7411
  183MOL0     H24664   4.439   8.771  10.880 -2.3349 -1.5640 -0.2494
  183MOL0     H24665   4.029   8.842  10.710  1.7919 -0.9255  0.3863
  183MOL0     H24666   3.879   9.032  10.669 -0.3203 -0.0059  0.9082
  183MOL0     H24667   4.035   9.524  10.328 -2.5887 -0.0050 -3.3518
  183MOL0     H24668   3.896   9.716  10.260 -1.3772  3.0859  0.6534
  183MOL0     H24669   3.666   9.826  10.236  0.5717  1.5019  0.3287
  183MOL0     H24670   3.563   9.758  10.356 -1.5736  1.3025  0.7432
  183MOL0     H24671   3.480   9.941  10.440 -0.8212  3.3246  0.5916
  183MOL0     H24672   3.611  10.043  10.392  0.0251  1.4862 -0.8180
  183MOL0     H24673   3.511  10.077  10.175 -1.2569  0.9321 -1.6571
  183MOL0     H24674   3.429   9.905  10.182 -2.5754  0.9296  1.0468
  183MOL0     H24675   3.350  10.124  10.375  1.1881 -0.4738 -0.3935
  183MOL0     H24676   3.274   9.981  10.330 -0.1992  0.6323  0.4634
  183MOL0     H24677   3.161  10.129  10.177 -1.1190 -2.0106 -1.5720
  183MOL0     H24678   3.301  10.130  10.081  0.1377 -0.4683  0.1618
  183MOL0     H24679   3.395  10.324  10.241 -0.6232  1.1447 -2.5616
  183MOL0     H24680   3.258  10.365  10.135  0.4344 -1.0065 -1.2281
  183MOL0     H24681   3.235  10.444  10.374 -2.2296  2.6112 -1.9098
  183MOL0     H24682   3.215  10.274  10.428 -3.2423 -0.6046  0.0146
  183MOL0     H24683   3.019  10.459  10.366 -4.6551 -0.3859  0.0198
  183MOL0     H24684   3.023  10.367  10.212  1.5185 -0.3955  0.2424
  183MOL0     H24685   3.758   9.754  10.667  2.3511  1.9385  0.7225
  183MOL0     H24686   3.859   9.551  10.731 -1.8780  1.6912 -0.4773
  183MOL0     H24687   4.239   9.273  10.647 -0.9445  1.3072  0.8405
  183MOL0     H24688   4.367   9.089  10.756 -0.9180  0.2272  0.4926
  183MOL0     H24689   4.735   7.819   9.938  1.9683 -0.8447  0.0926
  183MOL0     H24690   4.925   7.699   9.825  0.2963  0.6989  0.6423
  183MOL0     H24691   5.248   7.844   9.278 -1.0059  0.0212  1.3829
  183MOL0     H24692   5.410   7.685   9.183 -0.2925 -1.5122 -0.2844
  183MOL0     H24693   5.606   7.385   9.423  1.4221 -1.0340  0.8140
  183MOL0     H24694   5.722   7.524   9.417 -1.2737 -0.4471  0.2881
  183MOL0     H24695   5.795   7.457   9.191  2.5157 -1.3671  1.1115
  183MOL0     H24696   5.703   7.306   9.203  0.4810  0.6128 -1.5749
  183MOL0     H24697   5.903   7.392   9.388 -1.7267  3.0388 -2.9607
  183MOL0     H24698   5.929   7.269   9.258  0.4142 -0.3515  0.0773
  183MOL0     H24699   5.776   7.249   9.505  3.6115  2.0551  0.8215
  183MOL0     H24700   5.766   7.128   9.366  1.4476 -1.2599  1.0050
  183MOL0     H24701   6.108   7.002   9.538  0.8764  2.4714  2.5503
  183MOL0     H24702   5.491   7.514   9.553  1.6818 -1.1489 -3.6306
  183MOL0     H24703   5.338   7.774   9.747  2.6478  0.0749 -0.4819
  183MOL0     H24704   5.213   7.655   9.752  0.1178  4.7325  1.3307
  183MOL0     H24705   5.394   7.611   9.769 -0.5077  1.2477  2.2135
  184MOL0     O24706   0.190   9.773   1.220 -0.3786 -0.9613  0.6007
  184MOL0     C24707   0.220   9.678   1.286  1.0398 -0.2306 -0.6460
  184MOL0     O24708   0.204   9.544   1.255 -0.4988  0.0715  0.2778
  184MOL0     C24709   0.171   9.521   1.121 -1.0863 -0.0103  0.2528
  184MOL0     C24710   0.101   9.404   1.101  1.1999  0.0189 -0.3433
  184MOL0     C24711   0.060   9.365   0.963 -0.0038  0.2722 -0.7173
  184MOL0     C24712   0.103   9.436   0.853 -0.5610 -1.0471  0.2467
  184MOL0     O24713   0.088   9.404   0.724  0.0604  0.0850 -0.4816
  184MOL0     C24714  -0.022   9.320   0.682  0.2051  0.1371 -0.0999
  184MOL0     C24715  -0.051   9.323   0.534  0.8422  0.2242  0.6346
  184MOL0     C24716  -0.172   9.237   0.492 -0.2293  0.0544 -0.4277
  184MOL0     C24717  -0.151   9.201   0.337  0.2070 -0.5310 -0.4488
  184MOL0     C24718  -0.282   9.166   0.269  0.5325  0.3251 -0.2358
  184MOL0     C24719  -0.339   9.040   0.336  0.0808  0.4925 -0.6001
  184MOL0     C24720  -0.488   9.015   0.292 -0.6760  0.4437  0.0372
  184MOL0     C24721  -0.503   8.981   0.139 -1.0688 -0.5320 -0.8688
  184MOL0     N24722  -0.421   8.862   0.110 -0.4836 -0.1875 -0.6850
  184MOL0     C24723  -0.475   8.733   0.120 -0.6736  0.4312  0.4338
  184MOL0     C24724  -0.390   8.651   0.058 -0.1906  0.5840  0.3189
  184MOL0     C24725  -0.395   8.504   0.038  0.9774  0.2084 -0.1363
  184MOL0     C24726  -0.335   8.407   0.138  0.3134  1.1244 -1.1499
  184MOL0     C24727  -0.395   8.436   0.274  0.2219  0.3495 -1.1019
  184MOL0     C24728  -0.373   8.312   0.365 -0.4732 -0.5439 -0.1004
  184MOL0     O24729  -0.440   8.334   0.492 -0.0357  0.4694 -0.1404
  184MOL0     C24730  -0.414   8.237   0.592 -0.6087 -0.2465  0.7349
  184MOL0     C24731  -0.327   8.124   0.584  0.4445 -0.1829  0.2498
  184MOL0     C24732  -0.309   8.043   0.703  0.6388 -0.1529  0.6591
  184MOL0     C24733  -0.382   8.064   0.814  0.1161 -0.2195  1.0107
  184MOL0     C24734  -0.373   7.966   0.922 -0.1745  0.4010 -0.2140
  184MOL0     O24735  -0.464   7.973   1.017  0.4832  0.5213  0.1437
  184MOL0     C24736  -0.461   7.866   1.115  0.7420  0.0361  0.1793
  184MOL0     C24737  -0.486   7.735   1.071 -0.6968 -0.7754  0.6622
  184MOL0     C24738  -0.496   7.635   1.170 -0.1622 -0.6965 -0.4018
  184MOL0     C24739  -0.477   7.665   1.307  0.4924  0.0724  0.1792
  184MOL0     O24740  -0.494   7.577   1.403  0.7899  0.9507  0.2147
  184MOL0     C24741  -0.546   7.444   1.376 -1.2160  0.3298  0.5357
  184MOL0     C24742  -0.554   7.356   1.508 -0.1215  0.6003  0.3481
  184MOL0     C24743  -0.619   7.219   1.472 -0.3206  0.2203 -0.7649
  184MOL0     C24744  -0.526   7.134   1.373  0.0295  0.0596 -0.0205
  184MOL0     C24745  -0.556   6.984   1.368  0.0805  0.0263  0.8262
  184MOL0     C24746  -0.702   6.952   1.337  0.2242  0.1730 -0.3493
  184MOL0     C24747  -0.720   6.802   1.295  0.2484  0.8035  1.0118
  184MOL0     C24748  -0.696   6.782   1.145 -0.2733 -0.3435  0.3176
  184MOL0    Cl24749  -0.818   6.884   1.057  0.1385  0.2609 -0.1802
  184MOL0     C24750  -0.450   7.792   1.347  0.4386 -0.3836 -0.0745
  184MOL0     C24751  -0.444   7.895   1.251 -0.6224  0.6281 -0.6606
  184MOL0     O24752  -0.274   7.883   0.911  0.6221 -0.5044  0.5354
  184MOL0     C24753  -0.482   8.170   0.822 -0.3645  0.2539 -0.0527
  184MOL0     C24754  -0.482   8.265   0.719  1.5966  0.4658  0.2034
  184MOL0     N24755  -0.281   8.732   0.003 -0.1195  0.1572  0.9034
  184MOL0     N24756  -0.303   8.853   0.047 -0.0648 -0.1573 -0.2712
  184MOL0     C24757   0.196   9.531   0.881 -0.2299  0.3660  0.0546
  184MOL0     C24758   0.229   9.586   1.012 -0.3545 -0.1569 -0.4065
  184MOL0     C24759   0.284   9.713   1.416 -0.3014 -0.1379 -0.1638
  184MOL0     C24760   0.211   9.805   1.500 -0.2305  0.6299  0.8126
  184MOL0     C24761   0.273   9.853   1.618  0.1862 -0.3258 -0.8732
  184MOL0     C24762   0.400   9.810   1.658  0.5178 -0.3141  0.7985
  184MOL0     O24763   0.463   9.857   1.772  0.5421 -0.6441  0.6694
  184MOL0     C24764   0.392   9.926   1.874  0.8864 -1.2053  0.1505
  184MOL0     C24765   0.457   9.882   2.008 -1.0216 -1.1335 -0.5967
  184MOL0     C24766   0.442   9.730   2.031  0.1317 -0.2736  0.0760
  184MOL0     C24767   0.518   9.686   2.157  0.6029 -0.2291  0.5789
  184MOL0     C24768   0.468   9.745   2.282  0.5545  0.7524 -0.7822
  184MOL0     C24769   0.425   9.785   2.385 -0.3064 -0.1091 -0.3400
  184MOL0     C24770   0.472   9.732   1.567 -0.5064 -0.0805 -0.7525
  184MOL0     C24771   0.417   9.684   1.442 -0.4113 -0.3715 -0.8036
  184MOL0     C24772   0.503   9.596   1.354  0.3850  0.0227  0.4770
  184MOL0     H24773   0.072   9.336   1.181 -1.4942  0.8983 -0.4568
  184MOL0     H24774   0.003   9.273   0.948 -0.8109  0.1212  2.3922
  184MOL0     H24775   0.011   9.218   0.707  0.9558  0.5631  0.7184
  184MOL0     H24776  -0.112   9.331   0.743 -1.0999  3.6033 -2.3826
  184MOL0     H24777   0.037   9.296   0.475  0.1959  1.2229 -0.8786
  184MOL0     H24778  -0.073   9.427   0.510  0.6761  0.1687  0.5368
  184MOL0     H24779  -0.267   9.288   0.512 -0.0894  0.2690 -0.3163
  184MOL0     H24780  -0.173   9.155   0.564 -2.1593  2.3987  2.4136
  184MOL0     H24781  -0.115   9.288   0.281 -0.5093 -0.0086 -0.1170
  184MOL0     H24782  -0.072   9.126   0.342  2.6137  1.9165  1.5076
  184MOL0     H24783  -0.341   9.258   0.265  2.9103  1.8895 -1.0686
  184MOL0     H24784  -0.260   9.137   0.166  4.1666 -1.7781  0.9340
  184MOL0     H24785  -0.264   8.962   0.322  2.4733  2.8415 -1.5284
  184MOL0     H24786  -0.348   9.055   0.444  0.4612 -0.9330 -0.3475
  184MOL0     H24787  -0.545   9.106   0.315 -0.4310  0.4483  0.6371
  184MOL0     H24788  -0.513   8.930   0.356  3.7067 -0.2161  1.1985
  184MOL0     H24789  -0.607   8.969   0.106 -1.5853  0.4453  0.3409
  184MOL0     H24790  -0.469   9.064   0.076  0.9302 -3.3338 -3.8249
  184MOL0     H24791  -0.570   8.706   0.166 -0.7300 -2.1656 -1.0425
  184MOL0     H24792  -0.500   8.486   0.013  0.6624  2.1373 -0.4050
  184MOL0     H24793  -0.340   8.490  -0.055  0.2364  0.3981 -0.6084
  184MOL0     H24794  -0.352   8.300   0.122 -2.4509  1.5114 -1.3636
  184MOL0     H24795  -0.227   8.421   0.144  0.0971  2.2000  0.7793
  184MOL0     H24796  -0.504   8.450   0.269 -0.2632 -1.0057  2.4093
  184MOL0     H24797  -0.351   8.526   0.317 -2.2851  0.3778  1.7931
  184MOL0     H24798  -0.264   8.303   0.366 -0.1316  2.4136  1.4070
  184MOL0     H24799  -0.401   8.214   0.327  2.0749 -1.9311  1.2998
  184MOL0     H24800  -0.268   8.103   0.495  1.9547  0.0388  1.1533
  184MOL0     H24801  -0.233   7.966   0.706  0.5804 -0.3737 -1.7691
  184MOL0     H24802  -0.504   7.709   0.967 -1.8073 -2.0205  1.1485
  184MOL0     H24803  -0.529   7.542   1.126  0.3062 -2.8894  3.5250
  184MOL0     H24804  -0.646   7.454   1.334 -1.1560 -1.8737 -0.2594
  184MOL0     H24805  -0.484   7.394   1.301 -4.1663  0.7325 -2.4262
  184MOL0     H24806  -0.452   7.330   1.538  0.5949  0.4668 -1.9728
  184MOL0     H24807  -0.596   7.407   1.595 -0.3714 -1.7426  1.6977
  184MOL0     H24808  -0.660   7.163   1.557  1.4659 -2.3635 -1.4645
  184MOL0     H24809  -0.704   7.251   1.412 -1.3961  0.2002  0.6935
  184MOL0     H24810  -0.423   7.140   1.408 -0.8691 -0.1102  2.8873
  184MOL0     H24811  -0.533   7.179   1.273 -0.1923 -0.3604 -0.1945
  184MOL0     H24812  -0.537   6.933   1.463 -0.0172 -1.4996  0.0623
  184MOL0     H24813  -0.484   6.934   1.304 -2.2193  2.2572 -3.9856
  184MOL0     H24814  -0.759   6.972   1.428 -0.4711 -3.3745  0.1623
  184MOL0     H24815  -0.757   7.015   1.266 -3.1155 -1.6250  0.4219
  184MOL0     H24816  -0.819   6.761   1.314  0.1637  0.4838 -0.1028
  184MOL0     H24817  -0.652   6.735   1.349 -0.3976 -0.6944  0.0029
  184MOL0     H24818  -0.594   6.811   1.118 -0.4309 -0.2513 -0.1865
  184MOL0     H24819  -0.700   6.681   1.105  0.5388  0.8830 -3.1932
  184MOL0     H24820  -0.430   7.820   1.450  1.1414 -0.3419 -0.2188
  184MOL0     H24821  -0.420   7.993   1.292  1.2696 -0.0593 -0.0003
  184MOL0     H24822  -0.530   8.186   0.918  0.4911 -3.2165  1.0781
  184MOL0     H24823  -0.543   8.355   0.723 -1.1230 -1.2151 -0.8393
  184MOL0     H24824   0.235   9.586   0.796  0.3662  0.4027  0.3445
  184MOL0     H24825   0.311   9.654   1.029  2.0800 -3.1581  0.7382
  184MOL0     H24826   0.111   9.839   1.476 -0.5400  0.2613  1.5430
  184MOL0     H24827   0.229   9.937   1.672  2.4894  1.9982 -2.3598
  184MOL0     H24828   0.284   9.911   1.882 -0.1381  4.3543  1.0007
  184MOL0     H24829   0.401  10.035   1.863  0.7714 -0.9266  2.4477
  184MOL0     H24830   0.414   9.938   2.092 -0.5608  1.1362 -1.8030
  184MOL0     H24831   0.565   9.898   2.013 -1.2552  0.2057  1.1683
  184MOL0     H24832   0.495   9.676   1.951  0.5785  1.8297 -1.1304
  184MOL0     H24833   0.341   9.689   2.026 -0.4796  0.4169  3.8534
  184MOL0     H24834   0.520   9.578   2.172  1.5020 -0.1113  1.4193
  184MOL0     H24835   0.623   9.716   2.144  0.6821 -0.4187  0.7889
  184MOL0     H24836   0.364   9.812   2.469  0.7293  0.5418  0.2224
  184MOL0     H24837   0.572   9.705   1.599 -1.5120 -2.5396  0.6077
  184MOL0     H24838   0.499   9.494   1.395 -0.6773  1.0423  3.1634
  184MOL0     H24839   0.477   9.595   1.248  0.4311  0.1071  0.4649
  184MOL0     H24840   0.604   9.637   1.356  0.0892  0.9065 -1.1303
  185MOL0     O24841   9.457   8.795   0.263 -0.8652 -1.0132 -0.8547
  185MOL0     C24842   9.398   8.904   0.237  0.4170  0.0145  1.0544
  185MOL0     O24843   9.389   8.963   0.111  0.3360 -0.7691 -0.4160
  185MOL0     C24844   9.441   8.894   0.002  0.5243  0.0668 -0.4336
  185MOL0     C24845   9.577   8.863   0.008 -0.1964  0.2812  0.3728
  185MOL0     C24846   9.653   8.823  -0.104 -1.0362  0.0524 -0.0902
  185MOL0     C24847   9.588   8.835  -0.233  0.5983 -0.5532  0.0272
  185MOL0     O24848   9.653   8.814  -0.346 -0.0054  0.5134  0.2177
  185MOL0     C24849   9.791   8.804  -0.337 -0.5819 -0.1866  0.9103
  185MOL0     C24850   9.846   8.837  -0.475  0.4705  0.9629 -0.8320
  185MOL0     C24851   9.824   8.718  -0.573 -0.6556  0.1262 -0.0828
  185MOL0     C24852   9.888   8.736  -0.706  0.3126 -1.1304  0.9260
  185MOL0     C24853   9.839   8.651  -0.810  0.7043 -0.3006  0.1625
  185MOL0     C24854   9.703   8.711  -0.864 -0.8306 -0.0436 -0.2849
  185MOL0     C24855   9.654   8.655  -0.994 -0.2589 -1.0485 -0.3848
  185MOL0     C24856   9.530   8.744  -1.034  0.9548  1.0155 -0.1500
  185MOL0     N24857   9.444   8.686  -1.141  0.5814 -0.8636  0.2168
  185MOL0     C24858   9.305   8.678  -1.129  0.9873 -1.3379  0.1662
  185MOL0     C24859   9.252   8.670  -1.254 -0.0858  0.3106  0.7009
  185MOL0     C24860   9.099   8.653  -1.289  0.8637  0.7167  0.2600
  185MOL0     C24861   9.042   8.790  -1.310  0.5641  0.3305 -0.2172
  185MOL0     C24862   9.017   8.880  -1.192  0.0632  0.3701 -0.2005
  185MOL0     C24863   8.956   9.013  -1.213 -0.0206 -0.6538  0.3632
  185MOL0     O24864   9.047   9.087  -1.295 -0.5498 -0.3084 -0.1189
  185MOL0     C24865   9.075   9.214  -1.245 -0.5969  0.1004 -0.4063
  185MOL0     C24866   8.973   9.312  -1.209 -0.7441 -0.0876  0.3269
  185MOL0     C24867   9.020   9.426  -1.150 -0.5012 -0.5138 -0.2834
  185MOL0     C24868   9.153   9.453  -1.127 -0.0803  0.3728  0.3157
  185MOL0     C24869   9.195   9.581  -1.063  0.2459 -0.3161  0.9363
  185MOL0     O24870   9.097   9.668  -1.008 -0.4815 -0.0288  0.0085
  185MOL0     C24871   9.121   9.786  -0.943 -0.6236 -0.4169  0.3262
  185MOL0     C24872   9.238   9.841  -0.889 -0.7741  0.1274  0.1375
  185MOL0     C24873   9.229   9.963  -0.820  0.3460  0.5310 -0.1668
  185MOL0     C24874   9.108  10.031  -0.799 -0.4361  0.0787 -0.5801
  185MOL0     O24875   9.109  10.150  -0.729 -0.2358  0.5359  0.2279
  185MOL0     C24876   8.994  10.220  -0.681  0.2300 -0.1811  0.4398
  185MOL0     C24877   9.018  10.276  -0.541  0.0296 -1.3552 -0.0609
  185MOL0     C24878   9.102  10.403  -0.524 -0.5145 -0.3602  0.9154
  185MOL0     C24879   9.031  10.538  -0.526  0.5377 -0.3366 -0.0160
  185MOL0     C24880   9.125  10.658  -0.547  0.8493  0.8273  1.1812
  185MOL0     C24881   9.234  10.677  -0.441 -0.2213 -0.6259 -0.8165
  185MOL0     C24882   9.305  10.813  -0.446 -0.2883 -0.1823  0.1134
  185MOL0     C24883   9.398  10.817  -0.554 -0.7366  0.3670  0.7031
  185MOL0    Cl24884   9.506  10.946  -0.542  0.0147 -0.1547 -0.5603
  185MOL0     C24885   8.996   9.976  -0.853  0.3758 -0.0608 -0.2248
  185MOL0     C24886   9.001   9.861  -0.931 -0.4839  0.4032 -0.9439
  185MOL0     O24887   9.316   9.608  -1.067 -0.1286  0.3153  0.6395
  185MOL0     C24888   9.251   9.356  -1.157 -0.0137 -0.2442 -1.0137
  185MOL0     C24889   9.209   9.232  -1.208 -0.2498  0.0360 -1.1816
  185MOL0     N24890   9.354   8.661  -1.343 -1.1946  0.6575  0.2905
  185MOL0     N24891   9.471   8.685  -1.277  0.8856 -0.1010  0.2867
  185MOL0     C24892   9.449   8.864  -0.243 -0.5614  0.1410  0.0517
  185MOL0     C24893   9.379   8.893  -0.128  0.3700  0.4559 -0.1928
  185MOL0     C24894   9.341   8.991   0.343 -0.1331  0.0540  0.3121
  185MOL0     C24895   9.235   9.086   0.302  0.1188 -0.4312 -1.2654
  185MOL0     C24896   9.168   9.159   0.398  0.1698 -0.0441  0.3898
  185MOL0     C24897   9.212   9.167   0.525 -0.0822  0.4468  0.0138
  185MOL0     O24898   9.147   9.258   0.600 -0.0675 -0.6614 -0.2309
  185MOL0     C24899   9.161   9.258   0.737  0.0675  0.4906  0.1655
  185MOL0     C24900   9.028   9.251   0.796 -0.4540 -0.0002  0.2119
  185MOL0     C24901   8.960   9.120   0.774 -0.2153 -0.1492 -0.5736
  185MOL0     C24902   8.839   9.096   0.870 -0.4311  0.5498  0.6991
  185MOL0     C24903   8.796   8.964   0.869  0.2983  0.0860 -0.0817
  185MOL0     C24904   8.748   8.847   0.862 -0.1373  0.0305  1.6399
  185MOL0     C24905   9.331   9.091   0.563 -0.0751 -0.9907 -0.1285
  185MOL0     C24906   9.387   8.994   0.479  0.0400 -0.5494 -0.2574
  185MOL0     C24907   9.508   8.906   0.527  0.3246 -0.1820 -1.0727
  185MOL0     H24908   9.625   8.882   0.103 -0.8069  2.9641  0.2378
  185MOL0     H24909   9.755   8.791  -0.085 -0.1458  2.4946 -0.3028
  185MOL0     H24910   9.835   8.877  -0.270  2.0251 -0.7788 -0.0329
  185MOL0     H24911   9.835   8.705  -0.316  1.3818  0.0276 -1.7310
  185MOL0     H24912   9.953   8.857  -0.463  0.2749  2.1621 -0.9072
  185MOL0     H24913   9.805   8.930  -0.518  0.9586  0.4713 -2.4475
  185MOL0     H24914   9.716   8.732  -0.585 -0.8017  1.1592  2.0088
  185MOL0     H24915   9.863   8.621  -0.540 -2.3653 -1.8213 -3.2967
  185MOL0     H24916   9.892   8.841  -0.734  4.8156 -1.7596 -1.8170
  185MOL0     H24917   9.996   8.724  -0.691 -0.0991 -6.2635  1.4818
  185MOL0     H24918   9.908   8.639  -0.894 -1.0569  1.1166 -1.5889
  185MOL0     H24919   9.816   8.549  -0.780  1.1691 -0.6382 -0.5829
  185MOL0     H24920   9.626   8.683  -0.793  0.8189 -0.1956  1.5342
  185MOL0     H24921   9.716   8.820  -0.873 -0.4612  0.0903  1.5213
  185MOL0     H24922   9.616   8.553  -0.987 -4.3235  0.3861  2.0020
  185MOL0     H24923   9.731   8.672  -1.070  1.1692  1.6178  1.4923
  185MOL0     H24924   9.458   8.747  -0.951  3.2600 -0.6247  2.0640
  185MOL0     H24925   9.557   8.846  -1.061  2.2774  0.5966 -0.4904
  185MOL0     H24926   9.258   8.673  -1.031 -0.5711 -2.7029 -0.6286
  185MOL0     H24927   9.094   8.588  -1.377 -0.6481 -0.6273  1.2613
  185MOL0     H24928   9.045   8.604  -1.207  0.5081 -0.9947 -0.9340
  185MOL0     H24929   9.113   8.846  -1.372  1.5047 -2.8113 -2.2434
  185MOL0     H24930   8.955   8.772  -1.373 -0.7506 -1.9181  2.0647
  185MOL0     H24931   9.108   8.896  -1.135 -1.9583 -0.0530  3.4382
  185MOL0     H24932   8.949   8.827  -1.125  0.1107 -3.4102 -2.8571
  185MOL0     H24933   8.931   9.069  -1.123  1.3301  1.7062 -0.6583
  185MOL0     H24934   8.860   9.001  -1.265 -0.8753  4.1322  0.3540
  185MOL0     H24935   8.869   9.294  -1.233 -1.2715  1.5594  1.2104
  185MOL0     H24936   8.943   9.497  -1.120  0.7004  0.8399 -0.3386
  185MOL0     H24937   9.331   9.795  -0.922 -1.2057 -2.7444  2.5619
  185MOL0     H24938   9.312  10.018  -0.777 -1.0205  1.3632  1.4923
  185MOL0     H24939   8.969  10.310  -0.739  2.9011  0.3063 -0.0495
  185MOL0     H24940   8.920  10.140  -0.666  1.4798 -1.1879  1.4024
  185MOL0     H24941   8.927  10.299  -0.485  0.7385  1.0177  0.2630
  185MOL0     H24942   9.067  10.202  -0.478  1.4719  0.0614  0.5522
  185MOL0     H24943   9.159  10.393  -0.432  2.0621 -2.8172 -0.8084
  185MOL0     H24944   9.172  10.412  -0.608 -1.0731 -0.3977  0.4391
  185MOL0     H24945   8.984  10.553  -0.429  2.9361  0.9587  1.0355
  185MOL0     H24946   8.952  10.545  -0.602 -0.4526  2.1357  1.1144
  185MOL0     H24947   9.058  10.743  -0.563  0.2215 -0.2510 -3.7956
  185MOL0     H24948   9.171  10.639  -0.644  1.3328 -2.5030  1.9429
  185MOL0     H24949   9.174  10.681  -0.350  0.9719 -1.0931  0.0259
  185MOL0     H24950   9.306  10.594  -0.436 -1.9282 -2.0958  0.5097
  185MOL0     H24951   9.363  10.823  -0.353  0.2132 -2.7257  0.1413
  185MOL0     H24952   9.229  10.891  -0.458 -0.9292 -0.7179  0.6030
  185MOL0     H24953   9.448  10.719  -0.549  0.1201  0.8526  2.1675
  185MOL0     H24954   9.338  10.832  -0.644  1.2566 -0.9103 -0.9300
  185MOL0     H24955   8.903  10.031  -0.852  1.8380  2.6798 -2.2379
  185MOL0     H24956   8.919   9.815  -0.985  1.3957 -1.1970 -2.5911
  185MOL0     H24957   9.359   9.366  -1.147 -0.1004 -1.6882  3.7237
  185MOL0     H24958   9.276   9.149  -1.227  0.2209 -0.2963  1.5061
  185MOL0     H24959   9.409   8.838  -0.341 -0.4717  0.8929 -0.1935
  185MOL0     H24960   9.272   8.908  -0.136  0.2430 -0.4459 -0.2621
  185MOL0     H24961   9.202   9.081   0.199 -1.0088 -1.8325 -0.8712
  185MOL0     H24962   9.080   9.219   0.373 -0.5437 -1.7171 -1.3866
  185MOL0     H24963   9.214   9.350   0.764 -0.8457  1.4415 -1.1854
  185MOL0     H24964   9.214   9.167   0.769 -1.7775 -0.5459  0.4388
  185MOL0     H24965   8.971   9.335   0.753 -0.4646 -0.4178 -0.6074
  185MOL0     H24966   9.058   9.271   0.899  0.7727  1.5248 -0.3948
  185MOL0     H24967   9.039   9.050   0.803  1.1799  1.4199 -0.4037
  185MOL0     H24968   8.935   9.111   0.668  1.4663 -4.1080 -0.8004
  185MOL0     H24969   8.869   9.127   0.970  0.5351 -0.6772  0.8233
  185MOL0     H24970   8.753   9.157   0.842 -2.5628  0.1715  5.5425
  185MOL0     H24971   8.709   8.749   0.848 -0.9164  0.4142  1.0746
  185MOL0     H24972   9.377   9.117   0.658 -2.0688 -1.8630  1.1595
  185MOL0     H24973   9.469   8.817   0.576 -1.5027  1.0737 -0.0980
  185MOL0     H24974   9.587   8.885   0.454  0.5929  1.4543 -1.2970
  185MOL0     H24975   9.553   8.963   0.609  0.9245  2.3906 -3.0490
  186MOL0     O24976  10.537   0.527   7.556 -0.0740 -0.7130  0.7166
  186MOL0     C24977  10.427   0.566   7.597  0.4568 -0.0433  1.0451
  186MOL0     O24978  10.316   0.573   7.519  0.5614  0.3941 -0.4714
  186MOL0     C24979  10.338   0.569   7.385  0.5658 -0.0863 -0.2999
  186MOL0     C24980  10.381   0.451   7.318  0.2524 -1.2501 -0.2451
  186MOL0     C24981  10.403   0.453   7.184 -0.8435 -0.0502  0.8400
  186MOL0     C24982  10.364   0.548   7.102  0.2194 -1.2252  0.1285
  186MOL0     O24983  10.373   0.539   6.967 -0.0382  0.2510  0.3431
  186MOL0     C24984  10.408   0.663   6.898 -0.3576  0.8059  0.4833
  186MOL0     C24985  10.300   0.702   6.804 -0.1248  0.6629  0.6353
  186MOL0     C24986  10.341   0.820   6.720  0.4273  0.1354 -0.1215
  186MOL0     C24987  10.270   0.833   6.590  0.0607 -0.6246 -0.5893
  186MOL0     C24988  10.318   0.949   6.505  0.1190 -0.3210  0.7073
  186MOL0     C24989  10.464   0.940   6.456  0.1629 -0.5854  0.1150
  186MOL0     C24990  10.484   0.837   6.341 -0.7810  0.3268  0.4677
  186MOL0     C24991  10.621   0.858   6.276  0.0220 -0.2641  0.9155
  186MOL0     N24992  10.623   0.991   6.210 -0.7366  0.1293  0.5203
  186MOL0     C24993  10.547   1.039   6.105 -0.0127 -0.0375  0.2527
  186MOL0     C24994  10.606   1.160   6.072  0.6784 -0.1139  1.1072
  186MOL0     C24995  10.582   1.241   5.945 -0.2861 -0.0562 -0.2830
  186MOL0     C24996  10.641   1.188   5.808 -0.0997 -0.1534  0.5392
  186MOL0     C24997  10.792   1.212   5.789  1.4455  0.4337 -0.0574
  186MOL0     C24998  10.826   1.165   5.657 -0.4789 -0.1039 -0.0535
  186MOL0     O24999  10.817   1.277   5.572  0.0434 -0.1923  1.1436
  186MOL0     C25000  10.701   1.315   5.498  0.1088  0.2606  0.4820
  186MOL0     C25001  10.615   1.219   5.441 -0.1122 -0.2628 -0.2576
  186MOL0     C25002  10.500   1.249   5.377  0.6168 -0.3777 -0.0826
  186MOL0     C25003  10.461   1.388   5.368 -0.1036  1.1936  0.9829
  186MOL0     C25004  10.333   1.425   5.306  0.3667  0.6013 -0.1414
  186MOL0     O25005  10.250   1.318   5.275 -0.4762  0.4003 -0.8545
  186MOL0     C25006  10.124   1.339   5.230  0.3258 -0.0748  0.1856
  186MOL0     C25007  10.030   1.402   5.314  0.3804 -0.5317  1.1060
  186MOL0     C25008   9.897   1.389   5.282 -0.2927  0.7762 -0.4335
  186MOL0     C25009   9.849   1.336   5.158 -1.0043 -0.0495 -1.0556
  186MOL0     O25010   9.724   1.327   5.120  0.3585  1.0506 -0.2949
  186MOL0     C25011   9.625   1.367   5.219 -0.1719  0.0038  0.7468
  186MOL0     C25012   9.482   1.335   5.166 -0.4774  1.5954 -0.1874
  186MOL0     C25013   9.459   1.187   5.111  1.2346 -0.6694  0.2604
  186MOL0     C25014   9.437   1.089   5.216 -0.4194 -0.7665  0.2367
  186MOL0     C25015   9.437   0.948   5.145  0.4085 -0.2289 -0.4650
  186MOL0     C25016   9.301   0.912   5.065  0.4805 -0.9716 -0.5285
  186MOL0     C25017   9.178   0.906   5.155  1.0299 -0.1133  0.2892
  186MOL0     C25018   9.168   0.770   5.238  1.0943 -0.1851  0.6541
  186MOL0    Cl25019   9.186   0.808   5.420 -0.0312  0.1422  0.0878
  186MOL0     C25020   9.945   1.271   5.082  0.4027  0.3851 -0.5194
  186MOL0     C25021  10.074   1.269   5.124 -0.8307 -0.0425 -0.0747
  186MOL0     O25022  10.309   1.541   5.275  0.0276 -1.5256 -0.0963
  186MOL0     C25023  10.537   1.485   5.426 -0.4438  0.9070 -0.3168
  186MOL0     C25024  10.654   1.443   5.492 -0.8256 -0.4328 -0.3376
  186MOL0     N25025  10.702   1.189   6.168  0.3105  0.5234 -0.0878
  186MOL0     N25026  10.724   1.078   6.238 -0.1226  0.2931  0.6078
  186MOL0     C25027  10.311   0.665   7.165  0.2254 -0.8499  0.6510
  186MOL0     C25028  10.292   0.672   7.303 -0.0253  0.8693 -0.7819
  186MOL0     C25029  10.436   0.630   7.725 -0.0047  0.4084  0.3588
  186MOL0     C25030  10.511   0.565   7.818 -0.0636 -0.2978  0.1458
  186MOL0     C25031  10.522   0.610   7.951  0.3264 -0.1164  0.0901
  186MOL0     C25032  10.458   0.731   7.985 -0.3410 -0.3324  0.3171
  186MOL0     O25033  10.468   0.814   8.086  0.0302 -0.7088  0.0757
  186MOL0     C25034  10.548   0.770   8.201  0.1440 -0.4910 -0.7096
  186MOL0     C25035  10.585   0.886   8.292  0.0314 -0.8269  0.3136
  186MOL0     C25036  10.644   1.005   8.217 -0.6494 -0.5094  0.0292
  186MOL0     C25037  10.729   1.107   8.304 -0.3443  0.1331 -0.3694
  186MOL0     C25038  10.867   1.042   8.313 -0.2144  0.0817  0.1042
  186MOL0     C25039  10.977   0.981   8.316  0.9886 -0.1444 -1.4422
  186MOL0     C25040  10.389   0.801   7.886  1.0111  1.0646 -0.2417
  186MOL0     C25041  10.365   0.750   7.754 -1.1117 -0.0580 -1.4812
  186MOL0     C25042  10.271   0.821   7.667 -0.5006  0.3533  0.8157
  186MOL0     H25043  10.403   0.361   7.375 -1.3381 -2.7057 -1.8109
  186MOL0     H25044  10.451   0.367   7.140  0.1882  0.7250  0.4161
  186MOL0     H25045  10.437   0.741   6.968  0.0390 -0.7016  2.0783
  186MOL0     H25046  10.498   0.637   6.840  0.3832  0.6371  1.6648
  186MOL0     H25047  10.198   0.716   6.841 -0.3867 -0.3978  0.3575
  186MOL0     H25048  10.293   0.620   6.732 -1.1675  0.2749  1.1569
  186MOL0     H25049  10.446   0.796   6.701  0.1214 -0.4227 -1.2067
  186MOL0     H25050  10.327   0.908   6.783  1.0432  0.4988 -0.4756
  186MOL0     H25051  10.286   0.740   6.535  0.1271 -0.8954 -0.1150
  186MOL0     H25052  10.163   0.845   6.609  0.0935 -1.8916  0.5268
  186MOL0     H25053  10.261   0.963   6.413  4.3918  0.0026 -2.2093
  186MOL0     H25054  10.311   1.034   6.573  1.0172 -1.6767  2.6041
  186MOL0     H25055  10.479   1.037   6.407  0.3242  0.0115  1.3151
  186MOL0     H25056  10.536   0.931   6.538 -0.8597 -0.9740  0.9920
  186MOL0     H25057  10.407   0.862   6.268  0.3975 -0.5994 -1.1628
  186MOL0     H25058  10.451   0.736   6.369 -1.7896  0.2594 -0.8816
  186MOL0     H25059  10.709   0.826   6.333  0.7412 -4.4018 -2.0899
  186MOL0     H25060  10.626   0.790   6.191 -0.0398  0.0957  0.6245
  186MOL0     H25061  10.482   0.977   6.045  2.2050  0.7478 -3.3444
  186MOL0     H25062  10.475   1.259   5.931  0.0471  3.3616  0.5706
  186MOL0     H25063  10.624   1.339   5.970 -2.2856  0.2811  2.2014
  186MOL0     H25064  10.633   1.079   5.801  1.7826 -0.2138 -2.4515
  186MOL0     H25065  10.579   1.239   5.734 -0.8539  0.3238  1.4699
  186MOL0     H25066  10.847   1.154   5.864  1.2163 -0.0360 -0.2502
  186MOL0     H25067  10.817   1.316   5.810  0.4686  0.8088 -0.6924
  186MOL0     H25068  10.749   1.096   5.622 -1.1882  1.3118 -1.4321
  186MOL0     H25069  10.924   1.116   5.661 -1.7683 -2.7970  1.7975
  186MOL0     H25070  10.636   1.113   5.440 -0.4829 -0.4029  1.8258
  186MOL0     H25071  10.436   1.169   5.342 -0.4229  0.1285  0.6165
  186MOL0     H25072  10.060   1.445   5.409  2.3113 -0.4993  0.5156
  186MOL0     H25073   9.832   1.453   5.341 -2.2855 -1.3663 -0.1370
  186MOL0     H25074   9.636   1.304   5.308 -0.2689 -1.5153 -0.2759
  186MOL0     H25075   9.630   1.475   5.235  2.9860 -0.1145  1.1304
  186MOL0     H25076   9.414   1.352   5.249  0.9810 -0.0037  1.4157
  186MOL0     H25077   9.465   1.410   5.088 -1.6164  0.3229 -1.2382
  186MOL0     H25078   9.363   1.205   5.063  0.8122  1.6628  1.8031
  186MOL0     H25079   9.541   1.157   5.045 -0.1016 -0.9266 -1.3320
  186MOL0     H25080   9.345   1.124   5.263 -3.0534 -0.6543 -4.3848
  186MOL0     H25081   9.522   1.086   5.284 -0.9441 -2.3373  0.8728
  186MOL0     H25082   9.448   0.870   5.221 -0.1155  1.7315  1.7329
  186MOL0     H25083   9.515   0.930   5.071 -0.8119 -1.9916 -1.4100
  186MOL0     H25084   9.292   0.992   4.991 -0.3609 -0.0114  0.5826
  186MOL0     H25085   9.314   0.818   5.009 -2.7414 -0.7324 -1.8753
  186MOL0     H25086   9.095   0.931   5.088  0.5327  0.9163  1.2654
  186MOL0     H25087   9.188   0.985   5.231  3.7706 -1.3859  1.3916
  186MOL0     H25088   9.073   0.720   5.215  1.2384  0.5577 -1.9470
  186MOL0     H25089   9.244   0.701   5.200 -1.1718 -0.7594 -3.5028
  186MOL0     H25090   9.920   1.221   4.989 -3.3954  0.7100  0.1760
  186MOL0     H25091  10.148   1.201   5.083 -0.1088  0.4796  0.3448
  186MOL0     H25092  10.507   1.590   5.433 -2.5959  0.2941  0.5889
  186MOL0     H25093  10.705   1.521   5.547  1.3816 -2.1407  0.1852
  186MOL0     H25094  10.270   0.751   7.112 -0.3090 -1.3664  0.2124
  186MOL0     H25095  10.260   0.762   7.356  0.9345 -0.8893  3.1099
  186MOL0     H25096  10.569   0.474   7.805  2.0655  0.8244  1.2426
  186MOL0     H25097  10.593   0.556   8.012  0.8982 -3.5554 -3.2452
  186MOL0     H25098  10.641   0.723   8.167  0.6400 -1.6953  2.0389
  186MOL0     H25099  10.486   0.696   8.252 -0.7459  1.3757  1.0317
  186MOL0     H25100  10.663   0.856   8.363 -2.5404 -3.9543  2.1067
  186MOL0     H25101  10.492   0.917   8.341 -0.5049 -0.7403 -0.7284
  186MOL0     H25102  10.560   1.061   8.176 -1.9670 -2.3181  0.1122
  186MOL0     H25103  10.703   0.971   8.131  0.9007 -0.1281  0.8930
  186MOL0     H25104  10.727   1.199   8.246  1.1898 -0.1405 -0.8976
  186MOL0     H25105  10.691   1.114   8.406  0.2208  0.2568 -0.1675
  186MOL0     H25106  11.073   0.938   8.333  1.7000 -0.0463 -4.6456
  186MOL0     H25107  10.356   0.902   7.907 -1.7669  0.3844 -0.8476
  186MOL0     H25108  10.315   0.820   7.567 -1.5164 -2.1723  0.3078
  186MOL0     H25109  10.176   0.767   7.674 -0.2118 -0.4989 -1.0750
  186MOL0     H25110  10.245   0.924   7.695 -0.7058  0.6595 -0.4261
  187MOL0     O25111   4.469   5.520   6.244  0.0199  0.6705  0.3230
  187MOL0     C25112   4.484   5.548   6.125 -0.5498  0.3686 -0.4945
  187MOL0     O25113   4.487   5.672   6.073 -0.1351  0.6885 -0.0659
  187MOL0     C25114   4.488   5.781   6.153 -0.4385  0.1914 -0.3051
  187MOL0     C25115   4.411   5.893   6.131  0.3316 -0.4581 -0.4350
  187MOL0     C25116   4.417   6.006   6.210  0.4567 -0.0273  0.0560
  187MOL0     C25117   4.508   6.014   6.313 -0.5571 -0.3775  0.0403
  187MOL0     O25118   4.514   6.135   6.378  0.3024  0.3534  0.2057
  187MOL0     C25119   4.604   6.164   6.491 -0.2892  0.2518 -0.1220
  187MOL0     C25120   4.585   6.304   6.541 -0.0300 -0.5954  0.0524
  187MOL0     C25121   4.646   6.314   6.685  1.0383 -0.5558  0.9363
  187MOL0     C25122   4.618   6.456   6.743  0.7315 -0.2483 -0.6064
  187MOL0     C25123   4.668   6.441   6.889  0.1361  0.0048 -0.6912
  187MOL0     C25124   4.824   6.459   6.882  0.2094 -0.1570  0.4236
  187MOL0     C25125   4.892   6.465   7.019  1.1231 -0.6295 -0.2605
  187MOL0     C25126   5.010   6.561   7.009 -0.5227  0.1199 -0.7263
  187MOL0     N25127   5.093   6.565   7.125 -1.4442  0.0292  0.6061
  187MOL0     C25128   5.069   6.523   7.254 -0.0451 -0.0686 -0.0576
  187MOL0     C25129   5.184   6.546   7.321  0.3662  0.4025  0.8604
  187MOL0     C25130   5.211   6.520   7.468  0.5000  0.4501 -0.3144
  187MOL0     C25131   5.291   6.399   7.497 -0.3757 -0.4876 -0.8959
  187MOL0     C25132   5.231   6.269   7.484 -0.1560  1.0772  0.7525
  187MOL0     C25133   5.329   6.161   7.543  0.2513  0.3287  0.1418
  187MOL0     O25134   5.269   6.033   7.570 -0.1645  0.6750 -0.9250
  187MOL0     C25135   5.171   6.036   7.657 -1.0687  0.4054 -0.8156
  187MOL0     C25136   5.204   6.047   7.793  0.1849 -0.6249  0.2662
  187MOL0     C25137   5.105   6.068   7.891 -0.1390  0.1066 -0.8535
  187MOL0     C25138   4.966   6.047   7.858  0.0154 -0.0387  0.2694
  187MOL0     C25139   4.869   6.091   7.955 -0.0956 -0.6324 -0.0079
  187MOL0     O25140   4.746   6.101   7.895  0.0615 -1.0446 -0.6180
  187MOL0     C25141   4.640   6.165   7.956  0.3784  0.0379  0.2228
  187MOL0     C25142   4.631   6.304   7.952  0.9018 -0.0816 -0.0500
  187MOL0     C25143   4.520   6.364   8.007 -0.4593  1.2482  0.6348
  187MOL0     C25144   4.418   6.296   8.078 -0.2306 -0.3242 -0.6441
  187MOL0     O25145   4.306   6.356   8.111  0.1444  0.2571  0.1069
  187MOL0     C25146   4.223   6.288   8.207 -0.2397  1.2582  0.5710
  187MOL0     C25147   4.097   6.361   8.207  0.5940 -0.5053 -1.1187
  187MOL0     C25148   4.109   6.513   8.252 -0.2016  0.5099 -0.2765
  187MOL0     C25149   3.967   6.567   8.273 -0.0432  0.5873  1.1137
  187MOL0     C25150   3.980   6.714   8.327 -0.5464  0.0121  0.0255
  187MOL0     C25151   3.856   6.805   8.291 -0.1573  1.0096  0.1950
  187MOL0     C25152   3.863   6.918   8.392 -0.4049 -0.0953 -0.4593
  187MOL0     C25153   3.716   6.969   8.412 -0.1595 -0.5202 -0.0588
  187MOL0    Cl25154   3.708   7.150   8.393  0.0727 -0.0576  0.0965
  187MOL0     C25155   4.441   6.153   8.086  0.6495 -0.1665  0.3127
  187MOL0     C25156   4.547   6.088   8.022 -0.2273  0.5485 -0.7891
  187MOL0     O25157   4.897   6.103   8.068  0.2461 -0.8085  0.2404
  187MOL0     C25158   4.938   6.016   7.722  0.7012 -0.4358  0.4483
  187MOL0     C25159   5.041   6.011   7.626  0.0312 -0.3412 -0.1647
  187MOL0     N25160   5.276   6.607   7.227 -0.0944 -0.3412 -0.1506
  187MOL0     N25161   5.221   6.616   7.115 -0.3639 -0.1219  0.0528
  187MOL0     C25162   4.596   5.905   6.333  0.0249  1.1416 -0.5212
  187MOL0     C25163   4.585   5.793   6.256  0.2414  0.8761  0.5026
  187MOL0     C25164   4.480   5.444   6.032  0.1751  0.5233  0.2879
  187MOL0     C25165   4.385   5.344   6.061 -0.6330 -0.8049  1.1876
  187MOL0     C25166   4.363   5.247   5.965  0.4460 -0.0095  0.1749
  187MOL0     C25167   4.438   5.232   5.846  0.8953  1.0713  0.0551
  187MOL0     O25168   4.415   5.127   5.753  0.3923  1.4594  0.1152
  187MOL0     C25169   4.505   5.109   5.647  0.0292 -0.3482  0.1305
  187MOL0     C25170   4.454   4.980   5.574 -0.2978 -0.2625  0.6579
  187MOL0     C25171   4.473   4.859   5.658  0.8369  0.8608  0.4653
  187MOL0     C25172   4.460   4.725   5.571 -0.4377  0.5681  0.2376
  187MOL0     C25173   4.414   4.601   5.643 -0.1454  0.4769  0.8965
  187MOL0     C25174   4.371   4.495   5.686  1.0163  0.3275  0.6350
  187MOL0     C25175   4.543   5.323   5.825 -0.2880  0.2399 -0.1884
  187MOL0     C25176   4.568   5.427   5.916  0.5489 -1.1506  0.5890
  187MOL0     C25177   4.672   5.535   5.884 -0.4822 -0.1710  0.6933
  187MOL0     H25178   4.350   5.891   6.041  0.7441 -2.4537 -0.7028
  187MOL0     H25179   4.345   6.083   6.186 -0.3049  0.3506  3.0907
  187MOL0     H25180   4.582   6.094   6.572  2.5760 -1.0139 -0.3156
  187MOL0     H25181   4.709   6.143   6.470 -0.7027 -1.6924 -0.4376
  187MOL0     H25182   4.477   6.320   6.551  0.3783  0.7684  4.2811
  187MOL0     H25183   4.639   6.371   6.473 -0.3759 -0.8249 -0.4456
  187MOL0     H25184   4.754   6.306   6.670  0.9842  2.1652 -2.3820
  187MOL0     H25185   4.596   6.236   6.743 -2.1601  1.2499  0.8513
  187MOL0     H25186   4.664   6.538   6.686 -0.0711  2.2438  2.0533
  187MOL0     H25187   4.512   6.480   6.733  0.2617 -2.1128 -0.3595
  187MOL0     H25188   4.634   6.520   6.957  3.3833  0.5765  0.4987
  187MOL0     H25189   4.648   6.342   6.931 -0.6404  0.5876  0.3692
  187MOL0     H25190   4.863   6.378   6.820 -0.7578 -0.8306  0.6737
  187MOL0     H25191   4.848   6.548   6.824  2.1848 -0.4750  0.6790
  187MOL0     H25192   4.930   6.364   7.033  0.2952 -1.5203 -3.5841
  187MOL0     H25193   4.828   6.498   7.102  1.0586 -1.7658  0.1495
  187MOL0     H25194   5.074   6.529   6.927  1.2218  0.3195  0.5189
  187MOL0     H25195   4.989   6.666   6.986 -0.2803  0.3977  0.2719
  187MOL0     H25196   4.988   6.465   7.296  0.9912 -1.2935  0.3093
  187MOL0     H25197   5.280   6.599   7.501  0.2845  1.1818 -1.5505
  187MOL0     H25198   5.115   6.524   7.520 -0.8527 -1.7012 -2.4874
  187MOL0     H25199   5.381   6.401   7.435  0.4273 -2.5080  0.1115
  187MOL0     H25200   5.312   6.399   7.604 -1.3088  1.3167 -0.6720
  187MOL0     H25201   5.204   6.239   7.383  0.8568  3.2183 -0.2012
  187MOL0     H25202   5.132   6.273   7.531 -0.3203  0.7126  0.4473
  187MOL0     H25203   5.366   6.189   7.641 -1.1586 -0.9687  1.0969
  187MOL0     H25204   5.418   6.136   7.484 -1.1504 -2.9676 -0.8377
  187MOL0     H25205   5.308   6.058   7.824  0.0113 -0.3285  0.7598
  187MOL0     H25206   5.134   6.112   7.986 -2.8675 -0.4748  0.3562
  187MOL0     H25207   4.702   6.367   7.899  0.7090  2.5759  2.6007
  187MOL0     H25208   4.499   6.470   8.003 -1.7105  1.0010  0.2779
  187MOL0     H25209   4.198   6.186   8.177  0.8576  1.1709 -0.0820
  187MOL0     H25210   4.272   6.281   8.305  0.3301 -1.6526  0.1666
  187MOL0     H25211   4.052   6.338   8.111 -1.0441  0.5223 -0.6259
  187MOL0     H25212   4.026   6.321   8.279  3.3792  0.2892  2.3984
  187MOL0     H25213   4.167   6.521   8.344  0.6200 -1.1799 -0.6117
  187MOL0     H25214   4.155   6.570   8.171 -0.3083  2.0850  0.7415
  187MOL0     H25215   3.903   6.509   8.340 -0.1011 -2.1982 -1.1224
  187MOL0     H25216   3.921   6.555   8.175  0.6965  0.1192  0.8112
  187MOL0     H25217   4.062   6.758   8.269 -0.2342  0.3156  0.6865
  187MOL0     H25218   4.006   6.705   8.432 -0.8718 -3.7473 -0.0817
  187MOL0     H25219   3.863   6.831   8.185 -1.1026 -2.2822 -0.7756
  187MOL0     H25220   3.765   6.745   8.301  1.7552 -2.4302 -1.1880
  187MOL0     H25221   3.918   7.000   8.345 -1.8850  1.2817  0.1377
  187MOL0     H25222   3.896   6.885   8.491  2.5102  3.7358  0.1144
  187MOL0     H25223   3.640   6.923   8.349 -1.1152  0.9049  0.0166
  187MOL0     H25224   3.697   6.948   8.517  0.4366  2.6337  0.7734
  187MOL0     H25225   4.363   6.088   8.123  1.4722 -1.3155  0.0837
  187MOL0     H25226   4.569   5.983   8.040  1.7541  0.9889 -0.4834
  187MOL0     H25227   4.840   5.991   7.683 -0.8510  3.5913  1.2358
  187MOL0     H25228   5.011   5.973   7.529  1.3587 -1.5739 -0.1216
  187MOL0     H25229   4.674   5.899   6.407 -0.0256  0.4655 -0.5151
  187MOL0     H25230   4.640   5.703   6.282 -0.0620  0.3869 -0.4839
  187MOL0     H25231   4.315   5.356   6.143 -0.8113 -0.4064  0.9764
  187MOL0     H25232   4.282   5.175   5.976 -0.7387  1.3434  0.6193
  187MOL0     H25233   4.606   5.096   5.689  0.1604  0.7377  0.1915
  187MOL0     H25234   4.508   5.201   5.587 -1.7536  0.3364  1.0412
  187MOL0     H25235   4.492   4.969   5.472  1.6131  0.5241  1.2449
  187MOL0     H25236   4.346   4.987   5.561 -0.2871 -2.1844 -0.9148
  187MOL0     H25237   4.386   4.850   5.724  0.1892 -2.5320 -0.6107
  187MOL0     H25238   4.573   4.855   5.704  0.4246 -1.1349  1.3137
  187MOL0     H25239   4.404   4.749   5.480  0.1461 -1.6531 -0.7719
  187MOL0     H25240   4.560   4.695   5.539  0.4830  2.2794  1.3323
  187MOL0     H25241   4.340   4.400   5.727 -0.4258  1.5348  2.5093
  187MOL0     H25242   4.602   5.324   5.734  3.3897  2.3663  1.9682
  187MOL0     H25243   4.712   5.583   5.973 -0.6145  2.5264 -0.5833
  187MOL0     H25244   4.753   5.495   5.823 -0.1880 -0.5430  1.3223
  187MOL0     H25245   4.630   5.613   5.819  2.7386 -0.9816 -2.7582
  188MOL0     O25246   2.861   5.829  11.313  0.0210  0.1755  0.7233
  188MOL0     C25247   2.914   5.932  11.281  0.3602 -0.9683  0.5485
  188MOL0     O25248   3.035   5.976  11.312 -0.3605  0.0750  1.1202
  188MOL0     C25249   3.120   5.887  11.384  0.2668  0.7523  0.4842
  188MOL0     C25250   3.127   5.752  11.352 -0.3097  1.1342  1.1841
  188MOL0     C25251   3.231   5.665  11.398 -0.1323  0.1373 -0.2284
  188MOL0     C25252   3.322   5.708  11.495  0.8120  0.3237  0.4925
  188MOL0     O25253   3.428   5.625  11.546 -0.0993  0.5243 -1.3053
  188MOL0     C25254   3.445   5.630  11.685 -0.4376 -0.2925  0.3200
  188MOL0     C25255   3.555   5.538  11.732 -0.8486 -0.6994  0.2805
  188MOL0     C25256   3.554   5.392  11.694  1.1292  0.2564  0.5301
  188MOL0     C25257   3.695   5.334  11.680 -0.2669  0.3929 -0.3560
  188MOL0     C25258   3.687   5.196  11.627  0.2235  0.8246  0.2636
  188MOL0     C25259   3.815   5.116  11.592 -0.3544  0.1389  0.2231
  188MOL0     C25260   3.909   5.196  11.490  1.0312  0.6402  0.1124
  188MOL0     C25261   4.039   5.113  11.463  0.4191 -0.5239 -0.5667
  188MOL0     N25262   4.015   4.999  11.371 -0.6517  0.6223  0.6039
  188MOL0     C25263   4.048   4.869  11.395  0.0621 -0.0519 -0.6225
  188MOL0     C25264   3.997   4.804  11.288 -0.6196 -0.2895  0.4327
  188MOL0     C25265   4.025   4.663  11.258 -1.2347 -0.2025  0.6104
  188MOL0     C25266   3.934   4.572  11.338  0.1503 -0.5893  0.1940
  188MOL0     C25267   3.941   4.590  11.489  0.6420 -0.3226  0.4278
  188MOL0     C25268   4.080   4.569  11.553 -0.1490  0.0471 -0.6622
  188MOL0     O25269   4.102   4.426  11.565 -0.2416 -0.6584 -0.0865
  188MOL0     C25270   4.220   4.387  11.501  0.0113 -0.4686 -0.0990
  188MOL0     C25271   4.216   4.278  11.417  0.3049 -0.1136 -0.0491
  188MOL0     C25272   4.334   4.233  11.362 -0.6090  0.6606  0.2484
  188MOL0     C25273   4.464   4.285  11.398  1.4652  0.2887  0.4987
  188MOL0     C25274   4.592   4.228  11.353 -0.9233 -0.0362 -0.0797
  188MOL0     O25275   4.582   4.108  11.278  1.1215 -0.2933 -0.5414
  188MOL0     C25276   4.682   4.012  11.269  1.0522  0.4823  0.1078
  188MOL0     C25277   4.809   4.009  11.330  0.2559 -0.6506  0.3393
  188MOL0     C25278   4.901   3.896  11.301  0.1037 -1.3089 -0.1294
  188MOL0     C25279   4.852   3.791  11.218 -0.1017  0.3788 -0.2228
  188MOL0     O25280   4.933   3.690  11.175  0.0250  0.5512  0.4017
  188MOL0     C25281   4.999   3.730  11.051 -0.3755 -0.0923 -0.3191
  188MOL0     C25282   5.145   3.751  11.078 -0.8208  0.8668 -0.4204
  188MOL0     C25283   5.213   3.814  10.952 -0.0363  0.3087 -0.0135
  188MOL0     C25284   5.367   3.797  10.982 -0.4528  0.8431 -0.7114
  188MOL0     C25285   5.471   3.877  10.886 -0.2564  0.4107  0.8353
  188MOL0     C25286   5.465   3.821  10.748  2.0350  0.6438 -0.3243
  188MOL0     C25287   5.595   3.780  10.676 -0.5015 -0.0155  0.0037
  188MOL0     C25288   5.664   3.657  10.740  0.1769  1.0922 -0.0076
  188MOL0    Cl25289   5.562   3.508  10.759  0.6841 -0.0408  0.1297
  188MOL0     C25290   4.719   3.793  11.174 -0.7324 -0.0657 -0.1247
  188MOL0     C25291   4.640   3.900  11.207  0.2714  0.9921 -0.4046
  188MOL0     O25292   4.694   4.291  11.375 -0.5223 -0.7862 -0.4376
  188MOL0     C25293   4.473   4.388  11.493  0.1113  0.1640  0.6701
  188MOL0     C25294   4.346   4.437  11.546 -0.3044  0.0842 -0.2883
  188MOL0     N25295   3.943   4.889  11.200 -0.0480 -0.1761  0.3840
  188MOL0     N25296   3.948   5.004  11.250 -0.0594  0.0706 -0.2979
  188MOL0     C25297   3.316   5.841  11.529 -0.3032  0.9344 -0.8574
  188MOL0     C25298   3.216   5.931  11.468  0.6056 -0.2742 -0.3324
  188MOL0     C25299   2.831   6.033  11.203 -0.0427 -0.2939 -0.3916
  188MOL0     C25300   2.888   6.159  11.200  0.7197 -0.9269 -0.4957
  188MOL0     C25301   2.827   6.265  11.138  0.0796 -0.5099  0.0530
  188MOL0     C25302   2.699   6.254  11.076  0.4895 -0.3148  0.0102
  188MOL0     O25303   2.646   6.363  11.012  0.1667  0.1407  0.3106
  188MOL0     C25304   2.515   6.347  10.953  0.3667 -0.4196  0.3722
  188MOL0     C25305   2.499   6.479  10.874  0.0968  0.3811  0.7441
  188MOL0     C25306   2.375   6.471  10.770 -0.3389 -0.3367  0.1950
  188MOL0     C25307   2.349   6.611  10.703 -0.0540 -0.4972 -0.8094
  188MOL0     C25308   2.348   6.603  10.560 -0.2786  0.9091  1.4635
  188MOL0     C25309   2.331   6.598  10.437  0.0497 -0.7477  0.7517
  188MOL0     C25310   2.634   6.129  11.089 -0.3947 -0.3050 -0.4365
  188MOL0     C25311   2.705   6.014  11.144  0.3429  0.6059 -0.5072
  188MOL0     C25312   2.628   5.877  11.140  0.1147  0.1394 -0.5976
  188MOL0     H25313   3.067   5.702  11.277 -0.3716  2.1749  0.5275
  188MOL0     H25314   3.259   5.563  11.377 -1.3132 -0.3673  0.5300
  188MOL0     H25315   3.483   5.726  11.721  2.3997 -1.3730  0.4800
  188MOL0     H25316   3.353   5.599  11.735 -1.5614 -2.5179 -2.7457
  188MOL0     H25317   3.555   5.535  11.841  0.9535 -3.5155  0.3032
  188MOL0     H25318   3.649   5.577  11.693  0.0798 -4.9465 -2.4732
  188MOL0     H25319   3.496   5.376  11.603  3.0498  0.0653 -0.6978
  188MOL0     H25320   3.499   5.346  11.776 -5.1408  0.2520 -3.0419
  188MOL0     H25321   3.762   5.394  11.618  1.0119 -1.0922 -0.4951
  188MOL0     H25322   3.746   5.338  11.777 -1.3711  1.6879  0.2027
  188MOL0     H25323   3.619   5.137  11.689  2.5320 -0.5748  1.6507
  188MOL0     H25324   3.629   5.205  11.535 -1.1582 -0.6257  0.9476
  188MOL0     H25325   3.863   5.114  11.691 -0.4275 -1.6309  0.2627
  188MOL0     H25326   3.786   5.017  11.555  2.0627  0.1546 -1.9159
  188MOL0     H25327   3.952   5.290  11.526  2.8499  0.7882 -2.2494
  188MOL0     H25328   3.850   5.212  11.399  1.2781  1.9059  0.1544
  188MOL0     H25329   4.125   5.170  11.429  1.9272 -1.3142  1.6441
  188MOL0     H25330   4.082   5.083  11.559  1.7401 -1.6830 -1.4919
  188MOL0     H25331   4.107   4.830  11.477 -3.7757  1.0103  3.0054
  188MOL0     H25332   4.009   4.635  11.154 -1.8766 -4.0918  1.5947
  188MOL0     H25333   4.131   4.637  11.268 -0.9120 -0.0443 -1.7152
  188MOL0     H25334   3.832   4.585  11.303  1.0378  2.0864 -1.7276
  188MOL0     H25335   3.955   4.468  11.313  0.8430 -0.0263 -1.7591
  188MOL0     H25336   3.867   4.524  11.536 -3.4054  3.5761  0.1770
  188MOL0     H25337   3.890   4.682  11.518 -0.7399 -0.4860 -1.3121
  188MOL0     H25338   4.080   4.618  11.651 -1.1967 -0.2230 -0.5148
  188MOL0     H25339   4.157   4.628  11.503 -0.6380  1.2517 -0.0522
  188MOL0     H25340   4.120   4.235  11.391  0.7498 -2.0040  1.2509
  188MOL0     H25341   4.324   4.151  11.292 -1.4513  2.1203 -1.4013
  188MOL0     H25342   4.837   4.100  11.382 -1.0302  0.6477 -1.1237
  188MOL0     H25343   5.005   3.899  11.333  0.4445  5.5385 -0.4755
  188MOL0     H25344   5.000   3.650  10.976 -3.5113 -2.1662  1.5971
  188MOL0     H25345   4.960   3.818  10.999 -1.3981 -2.7472 -4.6126
  188MOL0     H25346   5.154   3.798  11.177 -2.3740 -1.7314  1.0785
  188MOL0     H25347   5.193   3.654  11.091 -1.0563  0.6322 -1.2668
  188MOL0     H25348   5.194   3.766  10.856  0.3622 -1.1822  0.6189
  188MOL0     H25349   5.180   3.918  10.947  0.8752  0.5585 -1.6312
  188MOL0     H25350   5.387   3.691  10.967  3.8025  1.2873  0.6724
  188MOL0     H25351   5.374   3.808  11.090 -2.2235 -0.9829 -0.3659
  188MOL0     H25352   5.570   3.853  10.926 -0.7226 -0.6719  1.3706
  188MOL0     H25353   5.452   3.984  10.872 -1.7123  0.6005  3.6106
  188MOL0     H25354   5.400   3.733  10.740  3.0018 -0.3369  1.8619
  188MOL0     H25355   5.426   3.902  10.685  0.5829  1.8982  2.0537
  188MOL0     H25356   5.657   3.870  10.670  0.4910 -0.7875 -2.8138
  188MOL0     H25357   5.567   3.763  10.572  0.4502 -0.3398 -0.2137
  188MOL0     H25358   5.743   3.625  10.671 -0.6763 -1.1277 -0.0284
  188MOL0     H25359   5.707   3.694  10.833 -1.2180  3.2794 -0.1759
  188MOL0     H25360   4.671   3.711  11.122 -0.7554  0.6794 -1.3307
  188MOL0     H25361   4.534   3.891  11.188  0.4515 -0.3892 -0.8177
  188MOL0     H25362   4.561   4.442  11.527  0.4724 -0.1560  0.2651
  188MOL0     H25363   4.352   4.528  11.605 -1.4951 -1.2372  2.0017
  188MOL0     H25364   3.408   5.868  11.581 -0.7552 -0.5376  0.7823
  188MOL0     H25365   3.225   6.038  11.480 -2.2604  0.4236 -3.0704
  188MOL0     H25366   2.985   6.182  11.244 -0.8258  1.8892  1.7819
  188MOL0     H25367   2.884   6.356  11.131  4.3782 -2.8550  1.2749
  188MOL0     H25368   2.427   6.345  11.018  0.4933 -2.1959  0.5484
  188MOL0     H25369   2.511   6.259  10.889 -1.4629  0.9946 -1.5838
  188MOL0     H25370   2.587   6.494  10.812  0.5923 -2.4058  0.6716
  188MOL0     H25371   2.485   6.567  10.938 -0.1217  1.5333 -0.8468
  188MOL0     H25372   2.292   6.455  10.839  0.0796 -0.7134  0.6178
  188MOL0     H25373   2.377   6.380  10.709  0.4490 -2.7580  3.5527
  188MOL0     H25374   2.253   6.653  10.736 -0.0675  0.0467 -1.5158
  188MOL0     H25375   2.418   6.689  10.737  0.2812 -1.0061 -0.3004
  188MOL0     H25376   2.330   6.584  10.331 -2.2711 -3.2694  1.0197
  188MOL0     H25377   2.536   6.116  11.045 -0.7397 -2.5385  0.8262
  188MOL0     H25378   2.675   5.830  11.053 -2.4807 -0.9275 -1.5262
  188MOL0     H25379   2.616   5.828  11.237  0.2119  4.0071  1.5612
  188MOL0     H25380   2.526   5.876  11.101  1.3928 -4.1824 -4.8560
  189MOL0     O25381   5.945   4.822  10.310  0.0663  0.2280  0.7940
  189MOL0     C25382   5.924   4.791  10.189 -0.0705 -0.1699 -0.2481
  189MOL0     O25383   6.016   4.721  10.109  0.9845  0.0012  0.3473
  189MOL0     C25384   6.144   4.730  10.151 -1.1711  0.3838 -0.4316
  189MOL0     C25385   6.225   4.619  10.193 -1.2907 -0.5238  0.6490
  189MOL0     C25386   6.355   4.634  10.228 -0.5495 -0.5840 -0.5693
  189MOL0     C25387   6.416   4.761  10.230 -0.5893  0.5482 -0.2157
  189MOL0     O25388   6.534   4.777  10.294 -1.2749 -0.0196 -0.2048
  189MOL0     C25389   6.651   4.782  10.194  0.0310  0.4348  0.1349
  189MOL0     C25390   6.784   4.744  10.263  0.0233 -0.7347  0.1860
  189MOL0     C25391   6.912   4.760  10.175  0.9115 -0.6130 -0.9377
  189MOL0     C25392   7.030   4.728  10.262 -0.0895  1.1156  0.5871
  189MOL0     C25393   7.163   4.746  10.189  0.2536 -0.1453  0.2471
  189MOL0     C25394   7.203   4.894  10.191 -0.2113 -1.0463 -0.4521
  189MOL0     C25395   7.328   4.923  10.108 -0.8036  0.2725  0.7086
  189MOL0     C25396   7.403   5.053  10.144 -0.0308 -0.3585  0.2480
  189MOL0     N25397   7.524   5.071  10.068 -0.4906  0.2620  0.4959
  189MOL0     C25398   7.538   5.173   9.979 -0.0242 -0.6447 -0.7093
  189MOL0     C25399   7.670   5.175   9.958  0.5259  0.3982  0.5712
  189MOL0     C25400   7.742   5.287   9.874 -0.4445  0.7761  0.8958
  189MOL0     C25401   7.781   5.398   9.970  0.2704 -0.0551 -0.0638
  189MOL0     C25402   7.890   5.358  10.075 -0.4093  0.2544 -0.0013
  189MOL0     C25403   8.034   5.379  10.007  0.3502  0.6519 -0.8328
  189MOL0     O25404   8.056   5.507   9.953  0.8001 -0.0038  0.7631
  189MOL0     C25405   8.154   5.526   9.853  0.1128  0.1186 -0.9290
  189MOL0     C25406   8.267   5.444   9.845 -0.4049 -0.3535 -0.3926
  189MOL0     C25407   8.368   5.479   9.752  0.7293  0.5784 -0.0104
  189MOL0     C25408   8.364   5.601   9.684 -0.5708 -0.7773 -0.5828
  189MOL0     C25409   8.472   5.640   9.592  0.1210  1.2947  0.0980
  189MOL0     O25410   8.569   5.548   9.570 -0.1258 -0.5206  0.6881
  189MOL0     C25411   8.666   5.572   9.478 -0.1840  0.2498 -0.0216
  189MOL0     C25412   8.735   5.693   9.443  0.4885  0.5512  0.3495
  189MOL0     C25413   8.834   5.691   9.340  0.1167  0.0253 -0.0337
  189MOL0     C25414   8.868   5.584   9.266 -0.2567 -0.2153 -0.0422
  189MOL0     O25415   8.950   5.602   9.162  0.3364  0.0983  0.0641
  189MOL0     C25416   8.996   5.489   9.086  0.2956 -1.1587  1.0802
  189MOL0     C25417   9.041   5.555   8.956 -0.8811 -0.5541 -0.5211
  189MOL0     C25418   9.100   5.449   8.857  0.2087 -0.0456 -0.4445
  189MOL0     C25419   9.150   5.531   8.736 -0.1259  0.0774 -0.3363
  189MOL0     C25420   9.230   5.428   8.643  1.3272  0.3287 -0.3639
  189MOL0     C25421   9.290   5.498   8.521  0.5395 -0.4801 -0.2759
  189MOL0     C25422   9.398   5.435   8.451  0.5645  0.6831  0.4385
  189MOL0     C25423   9.368   5.292   8.402  0.4914  0.8488 -0.9770
  189MOL0    Cl25424   9.220   5.300   8.305 -0.1680 -0.2799 -0.0402
  189MOL0     C25425   8.813   5.464   9.307  0.0581  0.7229 -0.1083
  189MOL0     C25426   8.717   5.457   9.408 -0.2634 -0.6542 -0.2334
  189MOL0     O25427   8.456   5.749   9.540 -0.2011 -0.0491 -0.8351
  189MOL0     C25428   8.251   5.685   9.698 -0.5767 -0.0965  0.6064
  189MOL0     C25429   8.144   5.644   9.774 -0.1810 -0.0702  0.5200
  189MOL0     N25430   7.730   5.071  10.033 -0.3756  0.7292  0.0008
  189MOL0     N25431   7.637   5.009  10.095 -0.2961 -0.4862 -0.0052
  189MOL0     C25432   6.344   4.872  10.186  0.1215  0.7034  0.1316
  189MOL0     C25433   6.212   4.855  10.141 -0.1033  0.5910  0.1760
  189MOL0     C25434   5.794   4.826  10.132 -0.0917  0.0613  0.5720
  189MOL0     C25435   5.720   4.725  10.071  0.9145  0.1445 -0.5956
  189MOL0     C25436   5.600   4.752  10.011  0.0323 -0.1168 -0.0183
  189MOL0     C25437   5.536   4.882  10.039  0.6104  0.5308 -0.0142
  189MOL0     O25438   5.410   4.922   9.997 -0.9210  0.0396  1.5435
  189MOL0     C25439   5.355   4.843   9.892  0.3934  1.0203 -0.7328
  189MOL0     C25440   5.422   4.876   9.753  0.8593 -0.8598 -0.0976
  189MOL0     C25441   5.400   5.025   9.713 -0.1201  1.2312 -0.1515
  189MOL0     C25442   5.425   5.041   9.557 -0.3190  0.4167 -0.8564
  189MOL0     C25443   5.323   4.975   9.472 -0.2115 -0.0585 -0.3968
  189MOL0     C25444   5.245   4.914   9.404  0.1479 -0.5469  0.9904
  189MOL0     C25445   5.612   4.981  10.092 -0.2239  0.2770  0.3042
  189MOL0     C25446   5.740   4.960  10.132 -1.1495  0.3273  0.5591
  189MOL0     C25447   5.823   5.080  10.172 -0.1447  0.2589  0.4588
  189MOL0     H25448   6.177   4.522  10.187 -3.8575  0.6242  1.1440
  189MOL0     H25449   6.409   4.557  10.282  2.5533  3.0672  1.9649
  189MOL0     H25450   6.626   4.715  10.112  1.0511  1.6291 -1.1990
  189MOL0     H25451   6.643   4.881  10.149  0.5265 -0.0561 -1.0436
  189MOL0     H25452   6.775   4.643  10.304  0.0912 -0.3023  1.3222
  189MOL0     H25453   6.784   4.811  10.350 -0.6890  2.0678 -1.8486
  189MOL0     H25454   6.922   4.859  10.129  1.0685  0.2438  0.8413
  189MOL0     H25455   6.910   4.686  10.095  2.8749 -0.8452 -0.8018
  189MOL0     H25456   7.034   4.790  10.352 -0.6619  2.6497 -0.4102
  189MOL0     H25457   7.024   4.619  10.276 -2.5319  0.4917 -3.4825
  189MOL0     H25458   7.230   4.681  10.247  2.0952  1.5936  0.1510
  189MOL0     H25459   7.146   4.723  10.083 -0.0971  4.1002 -0.8030
  189MOL0     H25460   7.122   4.956  10.152  1.5772  0.9195 -1.2817
  189MOL0     H25461   7.226   4.922  10.294  0.4738 -0.6529 -0.7028
  189MOL0     H25462   7.291   4.915  10.005 -3.5696  0.4819  1.6042
  189MOL0     H25463   7.402   4.845  10.129 -1.3637 -0.7368 -0.8843
  189MOL0     H25464   7.338   5.140  10.133  3.1995  2.3209  0.7660
  189MOL0     H25465   7.424   5.041  10.251 -0.2422  1.2964  0.4953
  189MOL0     H25466   7.469   5.245   9.936 -1.1574 -1.3730 -0.1616
  189MOL0     H25467   7.827   5.248   9.817 -1.1186  0.5269  0.0378
  189MOL0     H25468   7.677   5.331   9.798  3.0965  0.5725 -2.5310
  189MOL0     H25469   7.822   5.480   9.911 -0.4321 -0.5399 -1.2528
  189MOL0     H25470   7.691   5.421  10.027 -0.2180 -5.0425  1.6840
  189MOL0     H25471   7.883   5.250  10.092  0.8883 -0.3264 -2.6591
  189MOL0     H25472   7.884   5.419  10.166 -0.5953  1.7075 -0.9542
  189MOL0     H25473   8.031   5.308   9.924 -0.4349 -0.8822  0.4581
  189MOL0     H25474   8.117   5.358  10.075  0.2651  1.3461 -0.5016
  189MOL0     H25475   8.274   5.349   9.897 -2.5724 -1.3710 -1.8196
  189MOL0     H25476   8.451   5.413   9.729  0.0471 -0.3064 -0.0048
  189MOL0     H25477   8.711   5.786   9.494  1.7518  2.5622 -2.4368
  189MOL0     H25478   8.892   5.779   9.315  1.9473 -0.6050  1.7748
  189MOL0     H25479   9.083   5.444   9.135 -2.6537 -3.6174  4.6626
  189MOL0     H25480   8.909   5.427   9.064  0.6308 -0.7301 -1.7457
  189MOL0     H25481   8.954   5.608   8.914 -1.3643  2.6559  3.7514
  189MOL0     H25482   9.119   5.628   8.978 -1.8745  0.4021 -0.0226
  189MOL0     H25483   9.177   5.386   8.903 -1.8161 -1.9084  0.6176
  189MOL0     H25484   9.020   5.379   8.834  2.0345 -2.0660 -0.9878
  189MOL0     H25485   9.213   5.613   8.773  1.3290  0.7892 -3.9767
  189MOL0     H25486   9.073   5.588   8.684  1.7725  2.0637 -1.1718
  189MOL0     H25487   9.157   5.353   8.611  0.7764  0.6963  0.0140
  189MOL0     H25488   9.318   5.382   8.688  3.0567  0.8118 -3.0288
  189MOL0     H25489   9.212   5.535   8.453  1.8848  1.3747 -0.8934
  189MOL0     H25490   9.332   5.593   8.556 -2.4810  0.1892  1.9215
  189MOL0     H25491   9.489   5.439   8.512  0.0955 -0.5658  1.2673
  189MOL0     H25492   9.414   5.495   8.361 -1.2369 -0.0857 -0.4578
  189MOL0     H25493   9.446   5.263   8.332 -1.1630 -2.7186 -1.5599
  189MOL0     H25494   9.358   5.222   8.486 -2.8048 -0.3245 -2.1990
  189MOL0     H25495   8.848   5.369   9.268  0.9799  1.4498 -1.0952
  189MOL0     H25496   8.672   5.358   9.410  0.3455 -0.9740 -1.4560
  189MOL0     H25497   8.239   5.786   9.661  3.0950  0.8765  1.6386
  189MOL0     H25498   8.050   5.697   9.789 -1.4989 -2.4644  1.2102
  189MOL0     H25499   6.392   4.969  10.195 -0.9599  1.0360  4.4953
  189MOL0     H25500   6.150   4.933  10.096 -0.2733  0.7338  0.6568
  189MOL0     H25501   5.761   4.626  10.052  0.5842  0.3512 -2.6181
  189MOL0     H25502   5.562   4.674   9.945  1.3014 -2.4017  1.7865
  189MOL0     H25503   5.249   4.869   9.886 -0.6797 -2.1463  1.6276
  189MOL0     H25504   5.343   4.738   9.918 -0.6197  0.4759 -3.1367
  189MOL0     H25505   5.381   4.810   9.676  0.3372 -0.3045 -0.3035
  189MOL0     H25506   5.529   4.864   9.771  1.1125  2.4377  1.2514
  189MOL0     H25507   5.468   5.085   9.774  1.8913 -1.2268  0.1754
  189MOL0     H25508   5.295   5.049   9.731 -0.2916  1.0937 -0.9001
  189MOL0     H25509   5.434   5.148   9.536  1.5577  0.8605  1.7780
  189MOL0     H25510   5.527   5.006   9.538 -0.1782 -0.6915  1.5917
  189MOL0     H25511   5.183   4.850   9.343 -0.0061  0.0718  0.4889
  189MOL0     H25512   5.590   5.087  10.081  2.9236  0.8427 -1.9163
  189MOL0     H25513   5.930   5.063  10.153 -0.1014  1.9757 -1.1289
  189MOL0     H25514   5.817   5.167  10.105  1.5856  0.4788  0.5460
  189MOL0     H25515   5.805   5.091  10.279  0.4999 -0.3546  0.6419
  190MOL0     O25516  11.481   0.433   1.887 -0.7054  0.0036  0.5161
  190MOL0     C25517  11.570   0.512   1.878  0.2470 -1.5118 -0.4846
  190MOL0     O25518  11.558   0.648   1.876 -0.0383  1.2821  0.0710
  190MOL0     C25519  11.439   0.694   1.928  0.7656  0.1160 -0.4523
  190MOL0     C25520  11.315   0.682   1.847  1.1020 -1.3147  0.3439
  190MOL0     C25521  11.198   0.749   1.887 -0.1655 -0.3981 -0.3571
  190MOL0     C25522  11.193   0.813   2.014  1.0363  0.0546  0.0232
  190MOL0     O25523  11.073   0.880   2.034 -0.7735 -0.3696  0.9082
  190MOL0     C25524  11.026   0.823   2.152  0.5676 -0.5077 -0.5937
  190MOL0     C25525  10.875   0.846   2.200  1.0576  0.3866 -0.3281
  190MOL0     C25526  10.792   0.808   2.072 -0.3260 -0.5020 -0.8115
  190MOL0     C25527  10.647   0.825   2.101 -0.0602 -0.2859  0.2049
  190MOL0     C25528  10.604   0.693   2.168 -0.2080  0.4302 -0.1934
  190MOL0     C25529  10.456   0.704   2.235  0.2923 -0.5038  0.1749
  190MOL0     C25530  10.443   0.586   2.325  0.6341 -0.2624  0.2326
  190MOL0     C25531  10.292   0.546   2.350  0.7493  0.0876 -0.2668
  190MOL0     N25532  10.257   0.510   2.486 -0.6553  1.0998 -0.4190
  190MOL0     C25533  10.281   0.402   2.566  0.4238  0.2563  0.2100
  190MOL0     C25534  10.265   0.444   2.692  0.8783 -0.3159 -0.3661
  190MOL0     C25535  10.248   0.351   2.813  0.3035 -0.5487 -0.0868
  190MOL0     C25536  10.365   0.370   2.919  0.6703  0.7360  0.5618
  190MOL0     C25537  10.513   0.350   2.871  0.2775 -0.2097  0.4296
  190MOL0     C25538  10.557   0.203   2.875  0.0318 -0.0657 -0.9903
  190MOL0     O25539  10.631   0.171   2.988  0.6396  0.1771 -0.4518
  190MOL0     C25540  10.708   0.060   2.986  0.7054  0.0675 -0.3036
  190MOL0     C25541  10.741   0.015   3.118  0.5276  1.3400 -0.0471
  190MOL0     C25542  10.827  -0.096   3.135 -0.4292  0.1697 -0.1204
  190MOL0     C25543  10.866  -0.170   3.027 -1.0070  0.0337  0.3239
  190MOL0     C25544  10.964  -0.281   3.048 -0.0099  0.0961 -0.7385
  190MOL0     O25545  10.978  -0.317   3.180  0.5423  0.0018  0.6248
  190MOL0     C25546  11.084  -0.404   3.215  0.7124 -0.4812  0.4406
  190MOL0     C25547  11.217  -0.377   3.173  0.3881 -0.9446  0.1321
  190MOL0     C25548  11.318  -0.472   3.193 -0.7628  0.7515  0.0730
  190MOL0     C25549  11.294  -0.599   3.255  0.3547  0.5421  0.3360
  190MOL0     O25550  11.395  -0.688   3.252  1.2861  0.0672 -0.1447
  190MOL0     C25551  11.402  -0.796   3.346  0.0211 -0.5066  0.0158
  190MOL0     C25552  11.523  -0.884   3.318 -0.5095  0.3507  0.4378
  190MOL0     C25553  11.494  -0.988   3.206 -0.7309 -0.1617  0.2577
  190MOL0     C25554  11.620  -1.053   3.148 -0.3131  0.8236  0.3715
  190MOL0     C25555  11.579  -1.133   3.025  0.2775  0.6268 -0.9541
  190MOL0     C25556  11.516  -1.264   3.083  0.2897  0.2766  0.4573
  190MOL0     C25557  11.595  -1.392   3.096 -0.5837  0.4199 -0.7586
  190MOL0     C25558  11.677  -1.429   2.968 -0.7478 -1.4128  0.6259
  190MOL0    Cl25559  11.733  -1.606   2.968  0.5322 -0.5043 -0.1160
  190MOL0     C25560  11.157  -0.625   3.290  1.0030  0.0104  0.0559
  190MOL0     C25561  11.051  -0.529   3.260  0.2127 -0.0302 -0.1747
  190MOL0     O25562  11.033  -0.326   2.949  0.4486  0.1432 -0.3898
  190MOL0     C25563  10.836  -0.123   2.902  0.6929  0.6043 -0.2904
  190MOL0     C25564  10.753  -0.014   2.876  0.2105  0.2359 -0.6531
  190MOL0     N25565  10.236   0.585   2.692  0.2754  0.9000  0.3702
  190MOL0     N25566  10.221   0.614   2.571 -0.1278 -0.3741  0.0824
  190MOL0     C25567  11.306   0.821   2.089  0.1981 -0.2441 -0.6408
  190MOL0     C25568  11.420   0.753   2.053  0.0847  0.6896 -0.5498
  190MOL0     C25569  11.701   0.470   1.834  0.4558 -0.7447  0.1932
  190MOL0     C25570  11.757   0.505   1.713 -0.3284  0.4432  1.1068
  190MOL0     C25571  11.873   0.465   1.664  0.4036  1.3433  0.4564
  190MOL0     C25572  11.947   0.364   1.732  0.9372 -0.8111 -0.0103
  190MOL0     O25573  12.054   0.310   1.664  0.5769  0.5878  0.2353
  190MOL0     C25574  12.113   0.189   1.717 -0.4668 -0.4679 -1.3144
  190MOL0     C25575  12.266   0.229   1.743 -0.3999  0.1380  0.9104
  190MOL0     C25576  12.281   0.316   1.861 -0.2486  0.0360 -0.0537
  190MOL0     C25577  12.431   0.328   1.896  0.9776  0.2908 -0.2716
  190MOL0     C25578  12.513   0.395   1.793 -0.5620  0.1431 -0.0251
  190MOL0     C25579  12.568   0.448   1.695  0.3962 -0.7192 -0.5622
  190MOL0     C25580  11.906   0.339   1.865 -0.4325 -0.6940 -0.6640
  190MOL0     C25581  11.782   0.392   1.911 -0.2395 -0.3425 -0.3087
  190MOL0     C25582  11.738   0.351   2.055  0.0860  0.6320  0.3099
  190MOL0     H25583  11.317   0.641   1.747  0.2558  0.3575 -0.3887
  190MOL0     H25584  11.112   0.755   1.822 -1.1578 -0.6431  0.8973
  190MOL0     H25585  11.033   0.715   2.132 -0.7944 -0.6573 -0.3639
  190MOL0     H25586  11.080   0.868   2.235  0.1413  3.0215 -2.0633
  190MOL0     H25587  10.863   0.947   2.242  2.0178  0.2975  0.1647
  190MOL0     H25588  10.858   0.777   2.283 -0.1672  3.3740  2.1055
  190MOL0     H25589  10.809   0.704   2.043  1.2322 -1.3642  2.6410
  190MOL0     H25590  10.832   0.865   1.987  1.6728  1.7189  1.4570
  190MOL0     H25591  10.616   0.910   2.162  0.1462  1.5824 -2.1420
  190MOL0     H25592  10.589   0.836   2.010  0.4660 -0.0635 -0.1106
  190MOL0     H25593  10.613   0.614   2.094 -0.6208  0.7953 -0.6381
  190MOL0     H25594  10.676   0.680   2.250 -0.1309  0.3504 -0.2737
  190MOL0     H25595  10.455   0.797   2.293  0.0524  1.2051 -2.4061
  190MOL0     H25596  10.379   0.699   2.158 -1.2304  1.3036  1.4578
  190MOL0     H25597  10.492   0.610   2.420 -2.6334 -0.9872  2.2827
  190MOL0     H25598  10.486   0.497   2.278  0.5763 -1.5796  2.5053
  190MOL0     H25599  10.221   0.619   2.311 -0.2075 -0.8007 -0.2550
  190MOL0     H25600  10.273   0.456   2.290 -3.9553  0.3855  0.3495
  190MOL0     H25601  10.300   0.297   2.548 -1.4433 -0.1410  0.3585
  190MOL0     H25602  10.161   0.362   2.878  0.0322 -3.5844  0.2061
  190MOL0     H25603  10.241   0.247   2.778  0.6762 -0.5045 -0.2991
  190MOL0     H25604  10.350   0.473   2.952 -0.7792  1.0481 -0.9217
  190MOL0     H25605  10.351   0.299   3.002 -1.3225 -0.0094 -0.3528
  190MOL0     H25606  10.574   0.411   2.939  0.2768  2.4641 -1.7949
  190MOL0     H25607  10.537   0.395   2.775  2.3549  1.9452  1.8409
  190MOL0     H25608  10.630   0.183   2.796  0.9645 -1.2336  0.1355
  190MOL0     H25609  10.475   0.131   2.866  0.7668 -1.1558  0.6186
  190MOL0     H25610  10.711   0.091   3.189  1.8515  1.9467 -0.1090
  190MOL0     H25611  10.866  -0.114   3.234 -2.9649 -1.0018  0.7579
  190MOL0     H25612  11.233  -0.298   3.100 -0.8289 -2.9864 -2.5095
  190MOL0     H25613  11.417  -0.447   3.157 -0.4393 -0.7555 -0.1476
  190MOL0     H25614  11.420  -0.761   3.447  4.1888 -1.5226 -0.2040
  190MOL0     H25615  11.312  -0.856   3.329  0.9311 -1.3038 -2.4490
  190MOL0     H25616  11.600  -0.816   3.282 -0.9258 -0.4465 -2.2024
  190MOL0     H25617  11.553  -0.937   3.409 -0.8316 -1.4137 -0.4252
  190MOL0     H25618  11.414  -1.059   3.231 -0.0654 -1.2773 -0.6791
  190MOL0     H25619  11.450  -0.934   3.121 -0.0078  0.5724  0.3317
  190MOL0     H25620  11.669  -1.112   3.226 -1.9585  0.8237  1.4743
  190MOL0     H25621  11.686  -0.973   3.116 -0.2724  0.5140 -0.3528
  190MOL0     H25622  11.663  -1.143   2.955  0.4287  3.6322 -1.3427
  190MOL0     H25623  11.498  -1.079   2.975 -1.8347 -0.5530  0.9967
  190MOL0     H25624  11.463  -1.246   3.177  1.7386 -0.1739  1.3947
  190MOL0     H25625  11.442  -1.298   3.010  1.3346 -1.9364  0.3428
  190MOL0     H25626  11.521  -1.471   3.110 -0.8712  0.3708 -2.3965
  190MOL0     H25627  11.648  -1.385   3.192 -2.0522  0.6765  0.0658
  190MOL0     H25628  11.618  -1.411   2.878  1.1518  1.7558 -0.1791
  190MOL0     H25629  11.764  -1.361   2.965 -3.9719  3.1259 -0.4427
  190MOL0     H25630  11.122  -0.726   3.312 -1.2756  0.0407 -2.8341
  190MOL0     H25631  10.947  -0.557   3.276  0.1420 -0.1480 -0.8270
  190MOL0     H25632  10.892  -0.175   2.825 -0.2828 -0.2280 -0.4642
  190MOL0     H25633  10.741   0.007   2.770 -1.1088 -0.2841 -0.6286
  190MOL0     H25634  11.321   0.882   2.178 -0.7627  2.0216 -1.9307
  190MOL0     H25635  11.507   0.763   2.117 -0.6195  0.5274  0.4743
  190MOL0     H25636  11.693   0.574   1.659 -1.4736  0.9857  3.0472
  190MOL0     H25637  11.908   0.475   1.561 -0.4108 -1.3586 -0.1568
  190MOL0     H25638  12.113   0.111   1.640  0.6024 -1.0734 -0.7285
  190MOL0     H25639  12.057   0.153   1.803  0.0933  4.2256  1.3565
  190MOL0     H25640  12.299   0.291   1.659 -1.5043  2.5830  2.1927
  190MOL0     H25641  12.325   0.138   1.755 -1.4273 -0.4245  1.8544
  190MOL0     H25642  12.234   0.272   1.950  0.4087  1.2758  0.9296
  190MOL0     H25643  12.233   0.410   1.832  2.6673  0.8244 -2.8334
  190MOL0     H25644  12.448   0.381   1.990 -1.0446  2.6289 -1.1226
  190MOL0     H25645  12.473   0.230   1.919 -2.5722 -1.7921 -1.7577
  190MOL0     H25646  12.614   0.501   1.614 -0.5171 -0.7335 -1.1099
  190MOL0     H25647  11.952   0.275   1.939 -1.1255 -0.2553  0.1547
  190MOL0     H25648  11.820   0.336   2.125  0.3634 -1.4990 -0.3810
  190MOL0     H25649  11.658   0.418   2.087 -0.1836  0.7395 -0.5637
  190MOL0     H25650  11.683   0.256   2.057 -1.5372  1.4191  4.9143
  191MOL0     O25651   0.865   9.200   7.048 -0.5880  0.7911 -0.2443
  191MOL0     C25652   0.963   9.126   7.021  0.2359 -0.1784 -0.5186
  191MOL0     O25653   0.952   8.998   6.984  0.0087 -0.4012  0.4090
  191MOL0     C25654   0.845   8.940   6.922 -0.0492 -0.2694 -0.0131
  191MOL0     C25655   0.851   8.806   6.908  1.2050  0.7822  0.2788
  191MOL0     C25656   0.745   8.736   6.846 -0.2664  0.4657  0.0148
  191MOL0     C25657   0.634   8.804   6.793  0.6587  0.1153 -0.1710
  191MOL0     O25658   0.536   8.732   6.737 -0.8863  0.1166  0.0393
  191MOL0     C25659   0.400   8.774   6.752  0.1588 -0.4426 -0.2331
  191MOL0     C25660   0.301   8.666   6.770  0.4292  0.1131  0.4297
  191MOL0     C25661   0.171   8.729   6.817  0.6214 -0.2113 -0.0800
  191MOL0     C25662   0.104   8.838   6.737 -0.0104  0.9760  0.5830
  191MOL0     C25663   0.107   8.819   6.578  0.1695 -1.3863 -1.1847
  191MOL0     C25664   0.039   8.690   6.540  0.2477  0.1296  0.2247
  191MOL0     C25665   0.073   8.637   6.398  0.5747 -0.5770 -0.6706
  191MOL0     C25666   0.013   8.492   6.382  0.2701  1.0944 -0.1522
  191MOL0     N25667   0.079   8.396   6.285  0.4921  0.1145 -0.2604
  191MOL0     C25668   0.092   8.420   6.146 -1.0133  0.0140 -0.3751
  191MOL0     C25669   0.149   8.306   6.093 -0.2909 -0.5209 -0.0252
  191MOL0     C25670   0.160   8.275   5.941 -0.5857  0.1914 -1.3919
  191MOL0     C25671   0.232   8.135   5.918 -0.2019 -1.1634  0.4456
  191MOL0     C25672   0.257   8.103   5.770  0.6716 -0.1423 -0.2258
  191MOL0     C25673   0.374   8.181   5.701 -0.4366 -0.1164 -0.4316
  191MOL0     O25674   0.374   8.146   5.556  0.7224  0.7705 -0.7801
  191MOL0     C25675   0.476   8.194   5.476  0.2661 -0.3171  0.7005
  191MOL0     C25676   0.605   8.243   5.524 -0.6027  0.0651 -0.5877
  191MOL0     C25677   0.705   8.272   5.443  0.4017 -0.4066 -0.2954
  191MOL0     C25678   0.686   8.266   5.301 -0.6184  0.6656 -0.1497
  191MOL0     C25679   0.785   8.305   5.205 -0.0051 -0.6086 -0.3826
  191MOL0     O25680   0.744   8.366   5.096  0.2802  0.2157  0.0767
  191MOL0     C25681   0.795   8.333   4.973  0.7848 -0.2487  0.1067
  191MOL0     C25682   0.712   8.363   4.865  0.6277  0.6065 -0.3748
  191MOL0     C25683   0.752   8.343   4.732  0.0042  0.5902 -0.1692
  191MOL0     C25684   0.876   8.276   4.704  0.5638 -0.1254  0.3654
  191MOL0     O25685   0.931   8.249   4.579  0.7780 -1.1144 -0.1439
  191MOL0     C25686   0.856   8.280   4.455 -0.8411 -0.1789  0.0766
  191MOL0     C25687   0.919   8.209   4.339  0.0716 -0.0980 -1.5867
  191MOL0     C25688   1.064   8.262   4.309 -0.0436 -0.1970 -0.6839
  191MOL0     C25689   1.114   8.191   4.192  0.2532 -1.1571  0.7946
  191MOL0     C25690   1.270   8.198   4.175  1.1687 -0.8661  0.8940
  191MOL0     C25691   1.321   8.341   4.178 -1.2021 -0.8875 -0.8083
  191MOL0     C25692   1.267   8.436   4.071  0.6641  1.0755  0.1434
  191MOL0     C25693   1.320   8.577   4.097  0.3445  0.5289 -0.0901
  191MOL0    Cl25694   1.227   8.697   3.999 -0.2486 -0.0927  0.3036
  191MOL0     C25695   0.947   8.237   4.814 -0.0769 -0.0485 -0.0707
  191MOL0     C25696   0.920   8.273   4.949  0.6815 -0.4955  0.2378
  191MOL0     O25697   0.899   8.299   5.247 -0.5990  0.3518  0.2737
  191MOL0     C25698   0.565   8.229   5.251  0.5663  0.1549  0.6485
  191MOL0     C25699   0.454   8.199   5.338 -0.6355 -0.1658  0.1347
  191MOL0     N25700   0.161   8.215   6.197  0.1595  0.8809 -0.1415
  191MOL0     N25701   0.120   8.265   6.313  0.5965 -0.0958  0.5744
  191MOL0     C25702   0.634   8.941   6.787 -0.0041 -0.7785  0.2193
  191MOL0     C25703   0.736   9.009   6.861  0.8507  0.5476 -0.6315
  191MOL0     C25704   1.100   9.177   7.039 -1.0504 -0.1502 -0.0700
  191MOL0     C25705   1.199   9.083   7.071  0.2682 -0.2148  0.4027
  191MOL0     C25706   1.327   9.116   7.091  0.0731 -0.1810  0.1128
  191MOL0     C25707   1.367   9.243   7.059 -0.0509 -0.4826 -0.8568
  191MOL0     O25708   1.501   9.280   7.064  0.7126  0.1786 -0.5180
  191MOL0     C25709   1.534   9.309   7.195  0.2559  0.3259  0.2942
  191MOL0     C25710   1.543   9.457   7.211 -0.4424 -0.7188 -0.1342
  191MOL0     C25711   1.638   9.520   7.117 -0.4161  0.3291  0.4329
  191MOL0     C25712   1.792   9.474   7.150 -0.0900  0.4350 -0.0948
  191MOL0     C25713   1.879   9.547   7.058  0.2587  0.6818  0.1718
  191MOL0     C25714   1.938   9.585   6.960 -0.0518  0.4919  0.5711
  191MOL0     C25715   1.275   9.347   7.040 -0.9652  0.1472  0.1523
  191MOL0     C25716   1.133   9.317   7.036  0.0079 -0.6423 -0.6308
  191MOL0     C25717   1.033   9.431   7.035  0.2476 -0.4158 -0.3762
  191MOL0     H25718   0.933   8.745   6.945 -0.2516 -0.3390  1.7805
  191MOL0     H25719   0.749   8.627   6.848 -2.1041  0.3744  0.3752
  191MOL0     H25720   0.392   8.834   6.842 -0.7461  2.3029 -2.0303
  191MOL0     H25721   0.366   8.843   6.674 -1.3554 -1.0381 -0.1453
  191MOL0     H25722   0.347   8.588   6.831 -0.3167 -0.5925  0.0965
  191MOL0     H25723   0.278   8.612   6.678 -2.2524  1.0757  0.4561
  191MOL0     H25724   0.191   8.781   6.911  0.0621  5.2732 -2.6198
  191MOL0     H25725   0.087   8.663   6.839 -1.9257  2.1827 -1.9560
  191MOL0     H25726   0.000   8.848   6.771 -0.4338 -0.8988 -0.0281
  191MOL0     H25727   0.161   8.926   6.767  1.6406 -0.3586  1.5503
  191MOL0     H25728   0.053   8.900   6.528  0.4727 -0.5284 -0.1616
  191MOL0     H25729   0.210   8.819   6.539 -0.2233  0.7699 -2.4395
  191MOL0     H25730   0.064   8.601   6.598  0.2240 -0.7151 -1.0082
  191MOL0     H25731  -0.070   8.696   6.543  0.3071  2.1153 -0.1610
  191MOL0     H25732   0.181   8.638   6.380  0.9755  1.4150  1.4246
  191MOL0     H25733   0.034   8.710   6.326  1.6559  0.6188 -0.0769
  191MOL0     H25734  -0.001   8.459   6.485 -0.5577  1.5804 -0.0994
  191MOL0     H25735  -0.092   8.498   6.352  0.3993  1.2605 -0.5772
  191MOL0     H25736   0.081   8.515   6.095  0.5705  0.4261 -0.0180
  191MOL0     H25737   0.057   8.268   5.905 -0.1041  1.9779 -3.3090
  191MOL0     H25738   0.200   8.361   5.887  0.2515 -0.4170 -1.7730
  191MOL0     H25739   0.333   8.147   5.958 -0.7367  0.1873  1.4947
  191MOL0     H25740   0.186   8.061   5.985  2.1104 -3.1295 -0.0153
  191MOL0     H25741   0.162   8.110   5.716  1.4217 -0.2359 -1.6061
  191MOL0     H25742   0.288   7.998   5.773 -0.5101 -0.5788  4.6273
  191MOL0     H25743   0.473   8.148   5.735  0.7977  2.1842 -1.6238
  191MOL0     H25744   0.358   8.286   5.727  2.9936  0.2618  0.7347
  191MOL0     H25745   0.619   8.246   5.631  0.9818  1.4778 -0.8076
  191MOL0     H25746   0.801   8.297   5.488 -1.6171  0.0607  4.2745
  191MOL0     H25747   0.620   8.413   4.892  0.3283 -0.1542  0.0203
  191MOL0     H25748   0.679   8.367   4.656  0.1880 -0.1890 -0.6002
  191MOL0     H25749   0.749   8.262   4.469 -1.3345  0.5666 -2.3316
  191MOL0     H25750   0.863   8.389   4.444  0.6387 -0.1875  0.7605
  191MOL0     H25751   0.929   8.105   4.373 -3.2327  0.7962  3.1016
  191MOL0     H25752   0.854   8.208   4.251  1.3976 -0.6732 -2.6083
  191MOL0     H25753   1.070   8.371   4.297  0.3619  0.1894  2.1372
  191MOL0     H25754   1.125   8.241   4.397 -0.8813 -1.5883 -0.4027
  191MOL0     H25755   1.058   8.216   4.102  0.8127  0.6865  0.9164
  191MOL0     H25756   1.103   8.082   4.198  0.8243 -1.4162 -1.7074
  191MOL0     H25757   1.313   8.153   4.085  0.2448 -1.7492  0.8664
  191MOL0     H25758   1.315   8.140   4.257  1.5346 -1.9902 -0.0701
  191MOL0     H25759   1.303   8.392   4.272  4.1312  1.4495 -0.6758
  191MOL0     H25760   1.430   8.347   4.177 -1.2954  3.0852 -0.9191
  191MOL0     H25761   1.158   8.429   4.068  0.7724 -0.9936 -0.8155
  191MOL0     H25762   1.294   8.399   3.972 -1.9197 -0.7116 -0.0150
  191MOL0     H25763   1.299   8.583   4.204 -0.2802  0.9971 -0.2381
  191MOL0     H25764   1.428   8.592   4.086  0.9158  1.3332  4.4817
  191MOL0     H25765   1.042   8.192   4.788  0.3432  1.2569 -0.9316
  191MOL0     H25766   0.997   8.236   5.017  0.5494 -0.9352  0.1540
  191MOL0     H25767   0.554   8.224   5.143  3.2349  3.7126  0.0138
  191MOL0     H25768   0.353   8.186   5.300 -0.8051  1.0005  0.1469
  191MOL0     H25769   0.550   8.997   6.749 -0.0695  1.0254  2.8022
  191MOL0     H25770   0.731   9.116   6.876 -0.3434  0.3091  0.8943
  191MOL0     H25771   1.171   8.980   7.086 -1.1678  0.3010  1.5485
  191MOL0     H25772   1.400   9.035   7.101  0.3341  0.2547  2.1181
  191MOL0     H25773   1.625   9.253   7.216  0.3137 -0.7033 -2.2668
  191MOL0     H25774   1.465   9.266   7.268  1.8733  0.0485  1.7075
  191MOL0     H25775   1.569   9.485   7.314 -2.3573 -0.6777  0.3738
  191MOL0     H25776   1.445   9.503   7.201 -0.3996 -0.5787  0.0781
  191MOL0     H25777   1.632   9.627   7.136  1.2898  0.3786  0.8234
  191MOL0     H25778   1.603   9.495   7.017  0.4265 -2.7508  0.8015
  191MOL0     H25779   1.822   9.498   7.253 -0.6896 -0.1985  0.2366
  191MOL0     H25780   1.807   9.366   7.143  0.3715  0.5920 -2.0955
  191MOL0     H25781   1.988   9.637   6.881 -1.1038  2.1836  0.9749
  191MOL0     H25782   1.305   9.451   7.041 -1.1237  0.2316 -1.1824
  191MOL0     H25783   0.971   9.425   6.945 -1.8496  2.3157  0.7225
  191MOL0     H25784   0.965   9.425   7.121  0.7688 -1.8088 -0.0304
  191MOL0     H25785   1.080   9.530   7.029  2.2150 -1.3537 -1.2681
  192MOL0     O25786   4.644   9.956   6.418 -0.5175 -1.3454  0.0100
  192MOL0     C25787   4.577  10.053   6.410  0.0903 -0.5721  0.6689
  192MOL0     O25788   4.487  10.080   6.318  0.3743  0.2289 -0.1910
  192MOL0     C25789   4.423   9.975   6.254  0.2117  0.5284 -0.6667
  192MOL0     C25790   4.303   9.913   6.301  0.4300 -0.5169 -0.0601
  192MOL0     C25791   4.243   9.812   6.222  0.4379 -0.2137  0.9903
  192MOL0     C25792   4.310   9.764   6.107 -0.3591 -0.3518  0.9356
  192MOL0     O25793   4.273   9.655   6.032  0.3330 -0.2091  0.4206
  192MOL0     C25794   4.126   9.623   6.025 -1.0958  0.4869 -0.0503
  192MOL0     C25795   4.103   9.492   5.952  0.2372 -0.1056  0.3041
  192MOL0     C25796   4.175   9.369   6.012 -0.4015 -0.4704  0.1076
  192MOL0     C25797   4.156   9.364   6.159 -0.1783  0.5038  0.1053
  192MOL0     C25798   4.223   9.242   6.224  0.1261 -0.8527 -0.6152
  192MOL0     C25799   4.183   9.215   6.376  0.1586 -0.0021  0.4826
  192MOL0     C25800   4.208   9.058   6.411 -0.3808 -1.0112 -0.7759
  192MOL0     C25801   4.164   9.041   6.555 -0.5950 -0.3834 -0.9919
  192MOL0     N25802   4.246   9.099   6.652 -1.2110 -0.6041 -0.2396
  192MOL0     C25803   4.380   9.057   6.679  0.1735 -0.6581 -1.0351
  192MOL0     C25804   4.423   9.136   6.781 -0.9292 -0.8697  0.0776
  192MOL0     C25805   4.562   9.136   6.842 -0.6401 -0.0104  0.6063
  192MOL0     C25806   4.611   8.993   6.868 -0.5369  0.3189 -0.4559
  192MOL0     C25807   4.711   8.996   6.986  0.1816  0.1863 -0.0641
  192MOL0     C25808   4.752   8.860   7.035 -0.2070  0.1600  0.8671
  192MOL0     O25809   4.840   8.872   7.148  0.5346 -0.6877 -0.3443
  192MOL0     C25810   4.971   8.890   7.117 -0.4394  0.4772 -0.1927
  192MOL0     C25811   5.057   8.785   7.075  0.0098  0.0731  0.7038
  192MOL0     C25812   5.185   8.819   7.046 -0.2530  0.2645 -0.2147
  192MOL0     C25813   5.241   8.947   7.061  0.4492  0.3675 -0.1853
  192MOL0     C25814   5.384   8.970   7.032  0.2028  0.4762  0.4508
  192MOL0     O25815   5.416   9.095   6.988  0.4355  0.2013 -0.5187
  192MOL0     C25816   5.541   9.116   6.944 -1.1026  0.0834  0.6723
  192MOL0     C25817   5.638   9.164   7.032 -0.3281 -0.5852  0.4234
  192MOL0     C25818   5.773   9.159   6.991 -0.4633  0.0449  0.6454
  192MOL0     C25819   5.815   9.118   6.869  0.7882 -0.0309 -0.0586
  192MOL0     O25820   5.947   9.094   6.837  0.7421 -0.8980 -0.2329
  192MOL0     C25821   6.020   9.210   6.833 -0.0794  0.5496 -0.0319
  192MOL0     C25822   6.142   9.187   6.894  0.1089  0.5083  0.2203
  192MOL0     C25823   6.221   9.313   6.938 -0.2384  0.2422  0.3954
  192MOL0     C25824   6.375   9.300   6.933  0.0760 -0.7314 -0.1703
  192MOL0     C25825   6.454   9.419   6.992 -0.6582 -0.5746  0.0266
  192MOL0     C25826   6.603   9.383   6.999  0.6616 -1.1075  0.1945
  192MOL0     C25827   6.686   9.507   7.032  0.0570  0.4828 -0.4219
  192MOL0     C25828   6.825   9.467   7.084 -0.9025 -0.0325 -0.0461
  192MOL0    Cl25829   6.895   9.627   7.146  0.0252 -0.1577  0.0908
  192MOL0     C25830   5.718   9.069   6.781 -0.5283 -1.2625  0.4771
  192MOL0     C25831   5.580   9.070   6.814  0.4274  0.5588 -0.7509
  192MOL0     O25832   5.458   8.876   7.053  1.7060  0.0394 -0.2407
  192MOL0     C25833   5.154   9.044   7.101  0.4532 -0.2314 -0.7743
  192MOL0     C25834   5.018   9.019   7.116  0.4237  0.4776 -0.0234
  192MOL0     N25835   4.315   9.214   6.818 -0.2162  0.4866 -0.1900
  192MOL0     N25836   4.212   9.198   6.747  0.3589 -0.6154  0.6988
  192MOL0     C25837   4.433   9.818   6.073  0.1842 -0.8854  1.3005
  192MOL0     C25838   4.490   9.923   6.143 -0.3478  0.0532 -0.1766
  192MOL0     C25839   4.614  10.174   6.484  0.6148  0.6251  0.3046
  192MOL0     C25840   4.513  10.252   6.538 -0.1533 -1.0200 -0.6672
  192MOL0     C25841   4.535  10.355   6.631 -0.0325  0.0036 -0.5038
  192MOL0     C25842   4.659  10.380   6.673 -0.0239  0.2758  0.0367
  192MOL0     O25843   4.699  10.460   6.772 -0.4106 -0.5835  0.1363
  192MOL0     C25844   4.603  10.490   6.877 -0.1695 -0.2689 -0.0095
  192MOL0     C25845   4.655  10.589   6.980 -0.3954 -1.0161 -0.8418
  192MOL0     C25846   4.571  10.588   7.108 -0.2147 -0.1424  0.7707
  192MOL0     C25847   4.614  10.694   7.216  0.5335  1.1105  0.8943
  192MOL0     C25848   4.715  10.637   7.300  0.8735 -0.2201 -0.4337
  192MOL0     C25849   4.798  10.588   7.372 -0.4307  0.4863  0.3134
  192MOL0     C25850   4.767  10.307   6.622  0.1002 -0.7732 -0.0523
  192MOL0     C25851   4.752  10.210   6.523 -0.1604 -0.6912 -0.0682
  192MOL0     C25852   4.879  10.143   6.478 -0.1081  0.3012  0.1290
  192MOL0     H25853   4.251   9.939   6.393 -1.4348 -0.7920 -0.9923
  192MOL0     H25854   4.148   9.772   6.254  0.0608 -0.5347 -0.4444
  192MOL0     H25855   4.076   9.604   6.120 -0.4358  0.4407  0.2936
  192MOL0     H25856   4.068   9.699   5.972 -1.6719 -0.4177 -0.7454
  192MOL0     H25857   4.125   9.507   5.846 -0.7581  2.2767  0.3659
  192MOL0     H25858   3.998   9.461   5.944  0.2715 -0.2048  0.2332
  192MOL0     H25859   4.285   9.373   6.009 -0.2454 -3.0465 -0.6794
  192MOL0     H25860   4.137   9.277   5.966  1.8647 -0.5071 -1.9128
  192MOL0     H25861   4.199   9.455   6.203 -1.4072  1.1928 -0.0707
  192MOL0     H25862   4.049   9.379   6.177 -0.2055  0.6749 -0.1840
  192MOL0     H25863   4.189   9.158   6.162  1.0362 -1.3070 -0.5126
  192MOL0     H25864   4.332   9.242   6.230  0.1042  1.0593  0.7474
  192MOL0     H25865   4.239   9.275   6.449  1.2335  0.2252 -0.4899
  192MOL0     H25866   4.077   9.235   6.392 -0.3190 -1.6114 -0.4650
  192MOL0     H25867   4.315   9.035   6.413  0.5558  2.6181  1.5981
  192MOL0     H25868   4.152   8.992   6.344 -0.5873 -2.3236  0.6236
  192MOL0     H25869   4.063   9.079   6.572 -0.3531 -1.3263  3.8091
  192MOL0     H25870   4.159   8.932   6.565  0.6100 -0.3817 -0.1284
  192MOL0     H25871   4.443   8.977   6.643  0.6949 -0.5015 -0.5066
  192MOL0     H25872   4.621   9.215   6.796 -0.5094 -0.8901 -0.7826
  192MOL0     H25873   4.547   9.188   6.937  0.1909  2.5394 -0.5893
  192MOL0     H25874   4.524   8.932   6.895 -0.3178 -0.5729 -1.6612
  192MOL0     H25875   4.653   8.952   6.776 -5.0741  1.0209 -3.1412
  192MOL0     H25876   4.668   9.056   7.067  3.1683  3.1739 -0.4545
  192MOL0     H25877   4.800   9.054   6.960 -1.0171  1.3872 -1.7410
  192MOL0     H25878   4.803   8.809   6.952  1.5375  1.8043  0.8714
  192MOL0     H25879   4.667   8.798   7.064 -0.9126  0.3005 -0.7616
  192MOL0     H25880   5.025   8.684   7.052 -0.0866 -0.2688  2.2603
  192MOL0     H25881   5.255   8.745   7.009 -1.1589 -1.9851  2.2444
  192MOL0     H25882   5.599   9.173   7.133 -1.3776 -5.0242  0.6000
  192MOL0     H25883   5.852   9.175   7.064  0.7363  0.1522 -0.6299
  192MOL0     H25884   6.015   9.256   6.734 -2.1776  3.8184  1.4009
  192MOL0     H25885   5.966   9.286   6.891 -1.0332 -0.2228  0.1237
  192MOL0     H25886   6.133   9.125   6.984  2.3294  0.8942  0.7754
  192MOL0     H25887   6.206   9.129   6.828  1.7580  4.0066 -1.5364
  192MOL0     H25888   6.183   9.402   6.887 -0.6769 -0.4689 -0.5363
  192MOL0     H25889   6.195   9.343   7.040  0.6699 -1.2129  1.0849
  192MOL0     H25890   6.399   9.282   6.827 -2.7131 -1.6326 -0.7303
  192MOL0     H25891   6.395   9.207   6.986 -2.6604 -1.4584 -0.2475
  192MOL0     H25892   6.404   9.448   7.085 -0.6947  0.3474 -0.2679
  192MOL0     H25893   6.446   9.504   6.922  1.1838  0.7618  1.3446
  192MOL0     H25894   6.612   9.299   7.070  0.7440 -2.0645 -0.9241
  192MOL0     H25895   6.625   9.353   6.896  0.6761 -2.0816  0.4676
  192MOL0     H25896   6.631   9.568   7.104 -1.8143 -2.5824  0.9607
  192MOL0     H25897   6.698   9.563   6.939  1.1711  0.8353 -0.0816
  192MOL0     H25898   6.824   9.392   7.163 -0.3823 -0.1902 -0.1867
  192MOL0     H25899   6.888   9.420   7.008 -2.0807 -2.4154  0.3644
  192MOL0     H25900   5.746   9.037   6.681  0.1347 -1.2180  0.6393
  192MOL0     H25901   5.513   9.013   6.751  0.3268 -2.8972  2.1550
  192MOL0     H25902   5.191   9.144   7.119  0.4215 -0.6735  2.3462
  192MOL0     H25903   4.947   9.097   7.142  1.4197  1.2199  0.5386
  192MOL0     H25904   4.494   9.769   5.998  0.9062  1.9152 -0.0615
  192MOL0     H25905   4.582   9.970   6.109  0.4868 -0.1624  1.6847
  192MOL0     H25906   4.406  10.241   6.525 -0.3899 -0.6261  0.8344
  192MOL0     H25907   4.439  10.391   6.665 -0.8044 -2.1365 -0.2410
  192MOL0     H25908   4.559  10.400   6.921  0.7863 -0.5864  0.3062
  192MOL0     H25909   4.517  10.535   6.826 -1.7377 -1.0347  1.8137
  192MOL0     H25910   4.656  10.687   6.932  1.0192 -1.1558 -1.1435
  192MOL0     H25911   4.761  10.565   6.995  0.0777  1.1572 -0.3152
  192MOL0     H25912   4.571  10.491   7.159  3.0215 -1.2098 -1.0133
  192MOL0     H25913   4.468  10.598   7.073 -0.4514 -4.5028 -0.3712
  192MOL0     H25914   4.650  10.785   7.167  1.9934  0.1294  0.0470
  192MOL0     H25915   4.533  10.722   7.284 -0.7999 -1.3886  0.4382
  192MOL0     H25916   4.836  10.522   7.447 -0.1723 -0.6942 -0.8145
  192MOL0     H25917   4.866  10.333   6.657 -0.5386  0.6551  0.7795
  192MOL0     H25918   4.897  10.161   6.372 -1.5909  0.7997 -0.0702
  192MOL0     H25919   4.972  10.174   6.526  0.5609  0.1832 -1.0507
  192MOL0     H25920   4.862  10.037   6.495 -0.2220 -0.9617 -5.7395
  193MOL0     O25921   0.983   3.626   6.948 -0.1892 -0.1358  0.5079
  193MOL0     C25922   0.867   3.675   6.957 -0.6688 -0.7187  0.8559
  193MOL0     O25923   0.764   3.611   7.027  0.2355  0.2466  0.3731
  193MOL0     C25924   0.790   3.487   7.077  0.3500  0.1475  0.1730
  193MOL0     C25925   0.823   3.461   7.209 -1.0729 -0.0150 -1.1212
  193MOL0     C25926   0.824   3.324   7.247 -1.5284 -0.4149 -0.0037
  193MOL0     C25927   0.803   3.217   7.161  0.0872  0.1422 -0.9684
  193MOL0     O25928   0.820   3.090   7.204 -0.9223  0.0438  0.3012
  193MOL0     C25929   0.880   3.062   7.328  0.4663  0.6903 -0.6699
  193MOL0     C25930   0.914   2.909   7.347 -0.9177 -0.6149 -0.0698
  193MOL0     C25931   1.020   2.855   7.235  0.6058 -0.1822 -0.6480
  193MOL0     C25932   1.145   2.943   7.208 -0.3344 -0.3368 -0.3187
  193MOL0     C25933   1.253   2.936   7.324 -0.2100 -0.3241  0.3511
  193MOL0     C25934   1.344   3.063   7.324 -0.0304 -0.8690 -0.5704
  193MOL0     C25935   1.428   3.083   7.192  0.7602  0.6527  0.1862
  193MOL0     C25936   1.539   3.191   7.196 -0.1811 -0.1224  0.2969
  193MOL0     N25937   1.570   3.234   7.058  0.5233 -0.7153 -0.4368
  193MOL0     C25938   1.673   3.184   6.981 -0.2751 -0.0216 -0.7638
  193MOL0     C25939   1.659   3.259   6.865 -0.0158 -0.9244 -0.5613
  193MOL0     C25940   1.721   3.257   6.726 -0.1391 -0.4959  0.0047
  193MOL0     C25941   1.867   3.201   6.728  0.1300 -0.2771  0.2819
  193MOL0     C25942   1.920   3.131   6.606 -0.9148  1.0459  0.1017
  193MOL0     C25943   1.883   3.208   6.483  0.7276  0.7233 -0.2281
  193MOL0     O25944   1.919   3.343   6.488  0.4527 -1.0171  0.6174
  193MOL0     C25945   1.919   3.398   6.360 -0.0292 -0.4157  0.8868
  193MOL0     C25946   1.798   3.433   6.289  0.3609 -0.2833  0.4057
  193MOL0     C25947   1.801   3.492   6.160 -0.9185 -1.0633 -0.2202
  193MOL0     C25948   1.920   3.509   6.093 -1.6983 -0.2221 -0.7155
  193MOL0     C25949   1.928   3.552   5.953  0.6320  0.2192  0.1192
  193MOL0     O25950   1.814   3.547   5.887  0.1562  0.0707  0.4196
  193MOL0     C25951   1.777   3.665   5.836 -0.4034 -0.6698  0.4511
  193MOL0     C25952   1.829   3.795   5.848 -0.0835 -0.6917  0.1562
  193MOL0     C25953   1.775   3.915   5.798 -0.3563  0.3510  0.3631
  193MOL0     C25954   1.656   3.909   5.727 -0.4558 -0.1215  0.3217
  193MOL0     O25955   1.595   4.025   5.684  0.6137  0.2400 -0.7230
  193MOL0     C25956   1.467   4.017   5.614  0.5951  0.0565 -0.6364
  193MOL0     C25957   1.371   4.132   5.649  0.6458 -0.2919  0.8016
  193MOL0     C25958   1.321   4.104   5.793 -0.1645 -0.2000  0.1767
  193MOL0     C25959   1.418   4.163   5.894  0.8174 -1.2728 -0.2040
  193MOL0     C25960   1.386   4.141   6.036 -1.0387 -0.0026  0.0055
  193MOL0     C25961   1.416   3.997   6.070 -0.6046  0.7413 -0.1149
  193MOL0     C25962   1.394   3.972   6.224  0.0741 -0.2160  0.1190
  193MOL0     C25963   1.443   3.831   6.256 -0.0812 -0.0838  0.9308
  193MOL0    Cl25964   1.370   3.775   6.419  0.2241  0.0705 -0.0798
  193MOL0     C25965   1.603   3.783   5.707 -0.6299  0.6906 -0.0385
  193MOL0     C25966   1.659   3.662   5.752 -0.4256  0.0381  0.0015
  193MOL0     O25967   2.039   3.586   5.898  0.2973  0.6046 -0.5130
  193MOL0     C25968   2.038   3.477   6.162  0.0909 -0.5579  0.6156
  193MOL0     C25969   2.036   3.427   6.291 -0.2193 -0.3519 -0.3667
  193MOL0     N25970   1.543   3.338   6.876 -0.3197 -0.0264  0.1471
  193MOL0     N25971   1.485   3.317   6.989  0.3262 -0.0442  0.6130
  193MOL0     C25972   0.783   3.244   7.028  0.4660 -0.7185 -0.3491
  193MOL0     C25973   0.776   3.383   6.982  0.6392 -1.0189 -0.1053
  193MOL0     C25974   0.855   3.804   6.877 -0.0504  0.0586 -0.1887
  193MOL0     C25975   0.940   3.819   6.772  0.1212  0.3850 -0.6296
  193MOL0     C25976   0.944   3.931   6.691  0.3939  0.6518 -0.2150
  193MOL0     C25977   0.857   4.034   6.716 -0.4328 -0.6644  0.4346
  193MOL0     O25978   0.868   4.136   6.622 -0.4505 -0.3320 -0.6006
  193MOL0     C25979   0.771   4.244   6.637 -0.3753  0.3547 -0.4468
  193MOL0     C25980   0.776   4.351   6.523  0.0376 -0.6822  0.7467
  193MOL0     C25981   0.722   4.314   6.370 -0.4179  1.0559 -0.4615
  193MOL0     C25982   0.696   4.433   6.278 -0.1081  0.8270 -0.3424
  193MOL0     C25983   0.817   4.500   6.237 -0.0251 -0.0527 -0.4255
  193MOL0     C25984   0.897   4.572   6.200 -1.2928 -1.3410  0.0515
  193MOL0     C25985   0.766   4.031   6.830  0.4910 -0.5656  0.7654
  193MOL0     C25986   0.757   3.912   6.911  0.7398  0.2167 -0.3558
  193MOL0     C25987   0.653   3.916   7.026  0.2384  0.5928  0.1744
  193MOL0     H25988   0.839   3.540   7.281 -2.9312  1.0888 -1.8446
  193MOL0     H25989   0.857   3.311   7.350  0.1152 -0.0022 -0.4487
  193MOL0     H25990   0.965   3.128   7.347 -0.0439  0.5322  2.9386
  193MOL0     H25991   0.818   3.091   7.414  0.8717 -3.0525  1.0963
  193MOL0     H25992   0.816   2.861   7.337 -2.4197  2.1455  0.3238
  193MOL0     H25993   0.951   2.877   7.445 -0.7844 -2.4885 -0.6992
  193MOL0     H25994   0.962   2.862   7.143 -1.3775  1.0374  0.6251
  193MOL0     H25995   1.048   2.751   7.251 -1.7327 -1.2386 -2.7034
  193MOL0     H25996   1.180   2.912   7.109  1.0255 -1.8733  0.5925
  193MOL0     H25997   1.105   3.044   7.208  1.7650  0.5365 -0.0885
  193MOL0     H25998   1.204   2.922   7.421 -1.2047  1.4866  0.1570
  193MOL0     H25999   1.320   2.851   7.307 -0.1182 -0.0549 -0.6722
  193MOL0     H26000   1.267   3.140   7.333 -2.9359 -3.7152  0.9685
  193MOL0     H26001   1.421   3.059   7.401  2.8511  1.3620 -3.0921
  193MOL0     H26002   1.352   3.104   7.116  0.3896  0.5166  0.5172
  193MOL0     H26003   1.480   2.989   7.172  2.2355  1.1155  1.6074
  193MOL0     H26004   1.507   3.279   7.254  1.2161  0.2919  0.4703
  193MOL0     H26005   1.627   3.153   7.249 -0.2601  0.7363  1.0824
  193MOL0     H26006   1.746   3.106   7.000 -1.5682 -1.0542  0.1511
  193MOL0     H26007   1.650   3.203   6.662 -1.8941  1.2328  0.4064
  193MOL0     H26008   1.722   3.359   6.689  2.9184 -0.1261  0.8863
  193MOL0     H26009   1.936   3.284   6.744  0.8627  0.7316 -5.6551
  193MOL0     H26010   1.888   3.134   6.812  1.5026 -0.4309 -0.1567
  193MOL0     H26011   1.880   3.029   6.608 -2.2251  1.5395  2.3200
  193MOL0     H26012   2.028   3.120   6.609 -0.9298  1.0551  2.0224
  193MOL0     H26013   1.775   3.193   6.470  1.0872 -1.6468 -1.1460
  193MOL0     H26014   1.927   3.161   6.394  1.0918  0.9974 -0.1960
  193MOL0     H26015   1.701   3.422   6.338 -0.9564 -1.2705 -2.2209
  193MOL0     H26016   1.710   3.525   6.112 -1.0413  0.2529  0.8814
  193MOL0     H26017   1.921   3.814   5.902  0.2314  0.5500 -0.7565
  193MOL0     H26018   1.831   4.006   5.817 -0.9345  0.2342  2.9685
  193MOL0     H26019   1.487   4.031   5.507 -0.5390  1.5445 -0.6857
  193MOL0     H26020   1.412   3.926   5.635  1.5046 -0.3464  0.1045
  193MOL0     H26021   1.421   4.229   5.650  0.3342 -0.1172  0.2497
  193MOL0     H26022   1.284   4.127   5.582 -0.0196 -3.4534  1.7458
  193MOL0     H26023   1.223   4.152   5.794  0.1796  0.5060  1.1698
  193MOL0     H26024   1.300   3.999   5.815 -0.9257  0.1295  1.0669
  193MOL0     H26025   1.400   4.270   5.885 -2.7579 -1.8053 -1.0946
  193MOL0     H26026   1.524   4.141   5.874  2.1532  3.4297  0.6316
  193MOL0     H26027   1.282   4.167   6.059 -0.2637  1.7227  1.8875
  193MOL0     H26028   1.454   4.204   6.095  0.6362  0.4030 -2.2249
  193MOL0     H26029   1.352   3.923   6.021  1.1866 -1.6809  0.9971
  193MOL0     H26030   1.515   3.967   6.034 -1.6773 -1.8969 -1.0962
  193MOL0     H26031   1.295   4.002   6.262 -0.9343 -0.7833 -1.9387
  193MOL0     H26032   1.468   4.037   6.271 -1.3277  2.2970 -0.9843
  193MOL0     H26033   1.404   3.760   6.182 -1.4157  0.9587  0.5954
  193MOL0     H26034   1.551   3.833   6.240  0.1063 -0.1451  2.1465
  193MOL0     H26035   1.510   3.755   5.658 -1.1104  0.3357  1.0480
  193MOL0     H26036   1.612   3.568   5.726 -1.2161  0.2213  0.7514
  193MOL0     H26037   2.128   3.499   6.107 -0.9754  1.7981 -0.3206
  193MOL0     H26038   2.124   3.401   6.348  0.5121 -1.6712 -2.0328
  193MOL0     H26039   0.774   3.158   6.963  3.2944  0.2739 -2.2002
  193MOL0     H26040   0.762   3.403   6.876  0.0018 -0.6248  0.0532
  193MOL0     H26041   1.013   3.740   6.756  1.6128  0.4483  4.2323
  193MOL0     H26042   1.002   3.943   6.600  1.9763 -1.3002  0.4620
  193MOL0     H26043   0.790   4.289   6.735  0.9210 -2.5841  0.7822
  193MOL0     H26044   0.666   4.217   6.626 -0.4243  1.3278 -2.9495
  193MOL0     H26045   0.881   4.381   6.524 -0.2675  0.4244  1.1723
  193MOL0     H26046   0.712   4.433   6.555 -3.6475 -1.5229 -3.5858
  193MOL0     H26047   0.634   4.250   6.379  0.0980  0.5458  1.2504
  193MOL0     H26048   0.788   4.249   6.312 -1.2242 -1.7712  1.5874
  193MOL0     H26049   0.647   4.390   6.190  1.5411 -0.3198 -0.7466
  193MOL0     H26050   0.626   4.498   6.330 -0.2777 -1.1087  1.9818
  193MOL0     H26051   0.978   4.635   6.171 -1.3249  0.7609  3.9662
  193MOL0     H26052   0.713   4.123   6.852  1.8101  1.2206 -2.8301
  193MOL0     H26053   0.637   3.814   7.061  0.2284  0.8005  0.7951
  193MOL0     H26054   0.690   3.980   7.106 -1.9533  1.0772  0.8799
  193MOL0     H26055   0.552   3.943   6.995  1.2701  1.3929 -2.8102
  194MOL0     O26056   0.730   9.773   1.112 -0.3343  0.2184 -0.2889
  194MOL0     C26057   0.841   9.732   1.092 -0.1587 -0.0922 -0.8635
  194MOL0     O26058   0.885   9.599   1.098 -0.5694  0.1385 -0.0513
  194MOL0     C26059   0.790   9.499   1.083 -1.0484  0.8947  0.5160
  194MOL0     C26060   0.666   9.494   1.021  0.4142 -0.1717 -0.1176
  194MOL0     C26061   0.583   9.380   1.022  0.2244 -0.2906 -0.9060
  194MOL0     C26062   0.636   9.253   1.062 -0.6068  0.0235  0.7598
  194MOL0     O26063   0.561   9.143   1.027  0.2540  0.1552  0.2076
  194MOL0     C26064   0.603   9.014   1.060 -0.7340  0.6934  0.1641
  194MOL0     C26065   0.704   8.953   0.960 -0.7723  0.0127 -0.1166
  194MOL0     C26066   0.734   8.796   0.968 -0.5839 -0.5789  0.8351
  194MOL0     C26067   0.771   8.740   1.099 -0.6928 -0.7977  0.3196
  194MOL0     C26068   0.800   8.589   1.086 -0.4688  0.5535  0.4374
  194MOL0     C26069   0.837   8.536   1.227  0.3462 -1.3608  0.1818
  194MOL0     C26070   0.952   8.440   1.232 -0.3086  0.2846 -0.0998
  194MOL0     C26071   0.965   8.361   1.370 -0.1479  0.3296  0.1063
  194MOL0     N26072   0.970   8.451   1.493  0.4078  0.0007  0.2645
  194MOL0     C26073   1.074   8.540   1.508 -0.2379  0.4741 -0.3607
  194MOL0     C26074   1.027   8.622   1.602  0.1081 -0.2440 -0.3883
  194MOL0     C26075   1.116   8.725   1.662 -0.1032 -0.6638  0.0274
  194MOL0     C26076   1.195   8.803   1.567 -0.9949 -0.8467  0.6652
  194MOL0     C26077   1.315   8.874   1.641 -1.0303  0.6238 -0.0314
  194MOL0     C26078   1.251   8.994   1.728 -0.9064 -0.2009  0.1521
  194MOL0     O26079   1.350   9.022   1.831 -0.5307  0.1282  0.3094
  194MOL0     C26080   1.328   9.124   1.921 -0.7220  0.3365  0.4540
  194MOL0     C26081   1.206   9.187   1.929 -0.0157 -0.0067 -0.2355
  194MOL0     C26082   1.179   9.271   2.040 -0.1797  0.1242 -0.2181
  194MOL0     C26083   1.279   9.306   2.130 -0.1930  0.2944  0.5643
  194MOL0     C26084   1.258   9.386   2.243  0.0309 -1.0687 -0.1305
  194MOL0     O26085   1.185   9.501   2.222  0.3588  0.0590 -0.2401
  194MOL0     C26086   1.199   9.593   2.312  0.3847 -0.1647 -0.6928
  194MOL0     C26087   1.310   9.674   2.330 -0.9860 -0.0727  0.9293
  194MOL0     C26088   1.298   9.778   2.429 -0.6301 -0.0223  0.0424
  194MOL0     C26089   1.187   9.805   2.507 -0.4797 -0.2111  0.3581
  194MOL0     O26090   1.178   9.901   2.609  0.0530 -0.5722 -0.1103
  194MOL0     C26091   1.222  10.024   2.576  0.0020 -0.3664  1.4739
  194MOL0     C26092   1.117  10.123   2.647 -0.1559 -0.3089  0.9523
  194MOL0     C26093   1.122  10.262   2.582  0.3492 -0.2460 -0.2600
  194MOL0     C26094   1.242  10.336   2.641 -0.1495  0.4909  0.5179
  194MOL0     C26095   1.233  10.480   2.593  0.5924  0.0234  0.1139
  194MOL0     C26096   1.328  10.568   2.669  0.2216  0.5027  0.0084
  194MOL0     C26097   1.281  10.596   2.810 -0.4887  0.0727 -0.8589
  194MOL0     C26098   1.367  10.709   2.873 -0.1538  0.0008 -0.4806
  194MOL0    Cl26099   1.349  10.872   2.799  0.1858  0.8661  0.2757
  194MOL0     C26100   1.084   9.720   2.480  0.0442 -0.3558 -0.4787
  194MOL0     C26101   1.088   9.615   2.386  0.4816  0.2707  0.3240
  194MOL0     O26102   1.320   9.352   2.345 -0.2750  0.3826 -0.4641
  194MOL0     C26103   1.407   9.248   2.108 -0.3242 -0.1812 -1.0835
  194MOL0     C26104   1.427   9.152   2.008  0.3336 -0.5027 -0.1372
  194MOL0     N26105   0.905   8.587   1.643  0.8381  0.6977 -0.7587
  194MOL0     N26106   0.861   8.493   1.559  0.8562  0.0706 -0.5708
  194MOL0     C26107   0.765   9.249   1.099 -0.2295  0.4258  0.7196
  194MOL0     C26108   0.833   9.369   1.127  0.3144 -0.6329  0.1941
  194MOL0     C26109   0.937   9.840   1.073 -0.0886 -0.9904 -0.5263
  194MOL0     C26110   0.909   9.966   1.132 -0.6496 -0.3495  0.0700
  194MOL0     C26111   0.978  10.083   1.095  0.9963 -0.0696  0.1771
  194MOL0     C26112   1.089  10.079   1.017  0.2164  0.1690  0.1874
  194MOL0     O26113   1.168  10.190   0.988  0.6488  0.2671  0.2537
  194MOL0     C26114   1.116  10.326   1.005 -0.4087  0.6095 -0.1605
  194MOL0     C26115   1.000  10.350   0.904 -0.5173  0.1651  0.2749
  194MOL0     C26116   1.031  10.301   0.755  0.5556  0.2011 -1.2478
  194MOL0     C26117   0.942  10.374   0.658 -0.4242 -0.7050 -0.2310
  194MOL0     C26118   0.800  10.332   0.664 -0.4990 -0.1440  0.5236
  194MOL0     C26119   0.686  10.289   0.658  0.7945  0.3817  0.6304
  194MOL0     C26120   1.124   9.950   0.972 -0.1243 -0.1668 -0.2507
  194MOL0     C26121   1.046   9.829   0.993 -0.3465  0.8294  0.2321
  194MOL0     C26122   1.087   9.704   0.913 -0.4767 -0.3192 -0.2240
  194MOL0     H26123   0.638   9.588   0.974  0.8030  1.0061  1.8914
  194MOL0     H26124   0.481   9.381   0.986  0.2662  0.6714 -1.0104
  194MOL0     H26125   0.644   9.012   1.162  1.5419 -0.1053 -0.6972
  194MOL0     H26126   0.519   8.944   1.061 -0.8449  0.8106 -0.8394
  194MOL0     H26127   0.803   8.998   0.973 -1.3782  2.0133 -2.0068
  194MOL0     H26128   0.667   8.969   0.859  1.3576 -0.7966 -1.0870
  194MOL0     H26129   0.818   8.777   0.899 -0.2318 -0.1607  1.1462
  194MOL0     H26130   0.651   8.742   0.923 -0.2515  1.9822 -3.4326
  194MOL0     H26131   0.863   8.786   1.135  1.3973 -4.1617 -0.2726
  194MOL0     H26132   0.700   8.769   1.177 -1.0743  0.1625 -0.3656
  194MOL0     H26133   0.707   8.541   1.055 -0.9878  0.1597  2.4262
  194MOL0     H26134   0.882   8.573   1.016 -0.4808 -0.2321  0.5922
  194MOL0     H26135   0.873   8.618   1.290 -0.3225 -0.4028 -0.6482
  194MOL0     H26136   0.742   8.497   1.265  0.0751 -0.7280  0.1741
  194MOL0     H26137   1.043   8.499   1.215 -1.4730  2.6181  1.2209
  194MOL0     H26138   0.943   8.364   1.154 -0.8185 -1.1717  1.3016
  194MOL0     H26139   0.882   8.290   1.378  1.1397 -1.0315  1.9975
  194MOL0     H26140   1.053   8.297   1.364 -0.0652  0.5611 -1.9323
  194MOL0     H26141   1.175   8.552   1.472  0.1245 -0.1918  0.3944
  194MOL0     H26142   1.054   8.787   1.729  0.8687 -0.4207  0.7174
  194MOL0     H26143   1.184   8.664   1.722  0.8645 -0.0845 -0.4642
  194MOL0     H26144   1.253   8.748   1.492 -1.4419  0.3773 -0.6181
  194MOL0     H26145   1.135   8.876   1.512 -0.2856 -1.9740 -1.7469
  194MOL0     H26146   1.391   8.918   1.576 -1.1301  1.3152  0.3066
  194MOL0     H26147   1.361   8.807   1.714 -3.0676 -0.7867  0.0672
  194MOL0     H26148   1.165   8.967   1.790 -1.3228  3.2200  1.3027
  194MOL0     H26149   1.220   9.085   1.675  1.5076  1.4770  1.4086
  194MOL0     H26150   1.118   9.164   1.868  0.3078  1.7106 -1.4241
  194MOL0     H26151   1.075   9.300   2.050 -1.8998 -4.6805 -1.3532
  194MOL0     H26152   1.400   9.656   2.273  0.1104  3.5616  1.2623
  194MOL0     H26153   1.394   9.822   2.455  0.2176 -2.6421  1.7205
  194MOL0     H26154   1.322  10.035   2.619 -0.2862  1.3247  1.7921
  194MOL0     H26155   1.229  10.035   2.467 -0.6375 -2.6164  1.1501
  194MOL0     H26156   1.014  10.098   2.624  0.0528 -0.1412 -0.2115
  194MOL0     H26157   1.142  10.120   2.754 -0.2902  0.9317  1.0360
  194MOL0     H26158   1.132  10.243   2.474  0.4764 -1.1807 -0.0915
  194MOL0     H26159   1.030  10.321   2.590  0.9341  0.5720  0.6357
  194MOL0     H26160   1.337  10.295   2.604  0.7377  1.5192  1.5646
  194MOL0     H26161   1.243  10.318   2.749  0.6538 -2.2930  0.1287
  194MOL0     H26162   1.130  10.515   2.601 -0.5878 -3.4297  2.3578
  194MOL0     H26163   1.253  10.481   2.485 -3.2245 -1.3887 -0.7492
  194MOL0     H26164   1.430  10.528   2.664  0.4204  1.0285 -0.1419
  194MOL0     H26165   1.323  10.656   2.604 -3.4055 -0.7038 -1.6351
  194MOL0     H26166   1.305  10.504   2.865  2.0660  0.7769 -0.6529
  194MOL0     H26167   1.173  10.612   2.816 -0.1011  2.8536  0.5952
  194MOL0     H26168   1.336  10.711   2.978  1.8610 -3.8343  0.3625
  194MOL0     H26169   1.475  10.693   2.866  0.4308  3.7266 -2.6379
  194MOL0     H26170   0.989   9.741   2.529  1.7036  2.5349  1.8542
  194MOL0     H26171   0.996   9.560   2.372  0.2093 -0.4173  3.9114
  194MOL0     H26172   1.481   9.270   2.184 -0.7793  0.4530 -0.8155
  194MOL0     H26173   1.515   9.090   2.013 -0.9022 -2.3563 -0.1603
  194MOL0     H26174   0.811   9.156   1.132 -0.2281 -0.2335 -1.0148
  194MOL0     H26175   0.926   9.371   1.183  1.0902  1.2401 -1.0428
  194MOL0     H26176   0.821   9.978   1.194 -1.9980  0.2125 -1.8536
  194MOL0     H26177   0.939  10.174   1.140  0.4607  1.1485 -2.5447
  194MOL0     H26178   1.195  10.398   0.988  1.7988 -1.2062  1.7328
  194MOL0     H26179   1.077  10.346   1.106 -0.7318 -0.1324 -0.1271
  194MOL0     H26180   0.984  10.458   0.900  0.0176  0.2214 -1.5304
  194MOL0     H26181   0.903  10.317   0.942 -0.1758 -1.7098 -0.3447
  194MOL0     H26182   1.004  10.197   0.733 -2.0246  1.1389 -2.9724
  194MOL0     H26183   1.138  10.325   0.754  0.2842  1.4776 -2.5855
  194MOL0     H26184   0.949  10.482   0.675  1.0063 -1.0514  1.6386
  194MOL0     H26185   0.981  10.345   0.559 -1.7167 -2.7215 -0.2104
  194MOL0     H26186   0.582  10.273   0.638  1.6620 -2.1304 -2.7040
  194MOL0     H26187   1.219   9.936   0.921  1.5539  1.3347  2.2461
  194MOL0     H26188   1.159   9.734   0.835  0.5379  2.9796  1.8036
  194MOL0     H26189   1.137   9.625   0.970 -1.1302 -1.9775 -1.8184
  194MOL0     H26190   0.997   9.667   0.863 -2.2160  0.5745  2.0556
  195MOL0     O26191  10.362   6.688   3.489  0.8708  0.8833  0.1033
  195MOL0     C26192  10.396   6.680   3.363 -0.0388  0.0769 -0.2188
  195MOL0     O26193  10.522   6.686   3.318  0.3957 -0.2811 -0.3847
  195MOL0     C26194  10.621   6.692   3.414  0.6284  0.0138 -0.4467
  195MOL0     C26195  10.678   6.579   3.473  0.0387  0.5501  0.9502
  195MOL0     C26196  10.784   6.586   3.567  0.2584 -0.0627 -0.9824
  195MOL0     C26197  10.838   6.711   3.594  0.2771  0.4605  0.9037
  195MOL0     O26198  10.940   6.738   3.684 -0.3542 -0.4594 -0.2755
  195MOL0     C26199  10.971   6.652   3.795  0.1460  0.4503 -0.0816
  195MOL0     C26200  11.056   6.737   3.893  0.5919  0.7757  0.3553
  195MOL0     C26201  11.080   6.684   4.039 -0.8934  0.9287  0.0929
  195MOL0     C26202  11.146   6.786   4.132 -0.0616  0.2465 -0.1304
  195MOL0     C26203  11.300   6.809   4.096  0.4691 -0.5375  0.3098
  195MOL0     C26204  11.350   6.912   4.190  0.7417 -0.2879  0.3402
  195MOL0     C26205  11.499   6.942   4.174 -0.9281 -0.1199 -0.1118
  195MOL0     C26206  11.553   7.002   4.305 -1.0035  0.0166  1.4393
  195MOL0     N26207  11.693   7.048   4.277 -0.0476  0.2635 -1.6509
  195MOL0     C26208  11.743   7.150   4.191  0.2623  0.4602 -0.0463
  195MOL0     C26209  11.873   7.163   4.220 -0.8081  0.1833 -0.6075
  195MOL0     C26210  11.966   7.278   4.181  0.1063 -0.0104 -0.0091
  195MOL0     C26211  11.881   7.398   4.140  0.2854  0.0896 -0.2878
  195MOL0     C26212  11.965   7.517   4.093 -0.2820  0.5091 -0.9826
  195MOL0     C26213  11.895   7.604   3.992  0.4050  1.2870  0.0240
  195MOL0     O26214  11.881   7.532   3.873 -0.0602  0.3381  0.0930
  195MOL0     C26215  11.987   7.475   3.805 -0.1174  0.2547  0.2905
  195MOL0     C26216  12.106   7.547   3.784 -0.1833 -0.0007  0.4977
  195MOL0     C26217  12.220   7.486   3.727 -0.4959  0.5145 -0.3927
  195MOL0     C26218  12.217   7.352   3.689  0.1353  0.5204  0.9311
  195MOL0     C26219  12.335   7.286   3.613  0.2746 -0.1370 -0.7269
  195MOL0     O26220  12.305   7.165   3.555  0.3000 -0.0638 -0.4701
  195MOL0     C26221  12.406   7.120   3.481 -0.3881 -0.2666 -0.1860
  195MOL0     C26222  12.465   6.997   3.523  0.0231 -0.1402  0.2506
  195MOL0     C26223  12.572   6.950   3.444  0.5364 -0.0287 -0.1697
  195MOL0     C26224  12.608   7.014   3.324 -0.2110  0.3711 -1.0191
  195MOL0     O26225  12.716   6.953   3.251  0.3081 -0.1219  0.0799
  195MOL0     C26226  12.829   7.047   3.214  0.5193  0.7237  0.8634
  195MOL0     C26227  12.951   6.979   3.269 -0.0796 -0.1060  0.1501
  195MOL0     C26228  13.078   7.054   3.246 -0.1744 -0.1050  0.1517
  195MOL0     C26229  13.198   7.001   3.325  1.4922  0.3021 -0.6710
  195MOL0     C26230  13.314   7.078   3.293  0.7124  0.3066 -0.0008
  195MOL0     C26231  13.450   7.038   3.341 -0.5897 -0.2757 -0.1213
  195MOL0     C26232  13.464   7.068   3.497  0.5128  0.6113 -0.2449
  195MOL0     C26233  13.444   6.936   3.572 -0.1359 -0.8920 -0.7432
  195MOL0    Cl26234  13.433   6.958   3.748 -0.0697  0.7611  0.0984
  195MOL0     C26235  12.562   7.140   3.293  0.1917 -0.1123 -0.2189
  195MOL0     C26236  12.452   7.189   3.367  0.7791 -0.0968  0.9013
  195MOL0     O26237  12.446   7.336   3.623 -0.3031 -0.7568  0.3024
  195MOL0     C26238  12.094   7.292   3.694 -0.0692 -0.1997  0.4867
  195MOL0     C26239  11.983   7.348   3.754 -0.0617  0.0140 -0.7212
  195MOL0     N26240  11.904   7.079   4.325  0.5017  0.0391 -0.1861
  195MOL0     N26241  11.797   7.015   4.361  1.2112  0.6739 -0.0261
  195MOL0     C26242  10.776   6.825   3.539  0.1215  0.2091  0.3374
  195MOL0     C26243  10.655   6.821   3.466  0.3650  1.1129  0.0198
  195MOL0     C26244  10.284   6.639   3.279 -0.2268 -0.0764 -0.1182
  195MOL0     C26245  10.167   6.714   3.280  0.0892  0.2357  0.3571
  195MOL0     C26246  10.061   6.690   3.202  0.1545 -0.2210  0.4017
  195MOL0     C26247  10.062   6.571   3.129  0.3889 -0.9966 -0.2421
  195MOL0     O26248   9.963   6.520   3.056  1.1268 -1.2022  0.3363
  195MOL0     C26249   9.845   6.600   3.050  0.4561 -0.0712 -0.4381
  195MOL0     C26250   9.874   6.714   2.941 -0.4690  0.2429 -0.3367
  195MOL0     C26251   9.770   6.834   2.938  0.3986 -0.1663  0.4928
  195MOL0     C26252   9.742   6.885   2.800  0.9279  0.1908 -0.2552
  195MOL0     C26253   9.642   6.806   2.720  0.3079 -1.1201 -0.0091
  195MOL0     C26254   9.568   6.745   2.648  0.2104 -0.5143 -0.7664
  195MOL0     C26255  10.178   6.487   3.134  0.7312  0.2947  0.7854
  195MOL0     C26256  10.294   6.520   3.205  1.0211  0.0110  0.2780
  195MOL0     C26257  10.408   6.418   3.221 -0.6163  0.5952  0.4882
  195MOL0     H26258  10.633   6.487   3.436 -0.3438  1.5387 -1.1917
  195MOL0     H26259  10.824   6.496   3.613 -1.3233  0.5707  1.8874
  195MOL0     H26260  10.878   6.625   3.845  0.2920  0.2127  0.0574
  195MOL0     H26261  11.028   6.564   3.765  1.5163  0.6991  1.6898
  195MOL0     H26262  10.999   6.825   3.921 -0.0267 -0.2177  2.4548
  195MOL0     H26263  11.148   6.755   3.837  1.7098 -3.0805  0.6303
  195MOL0     H26264  11.134   6.590   4.022 -0.1912  1.6468 -2.0798
  195MOL0     H26265  10.991   6.636   4.080  0.0883 -2.0940 -1.0016
  195MOL0     H26266  11.079   6.872   4.136 -0.7568 -0.2714 -0.4966
  195MOL0     H26267  11.143   6.744   4.233 -0.6303 -0.3709 -0.3948
  195MOL0     H26268  11.362   6.721   4.118 -0.0263 -0.5347  1.7852
  195MOL0     H26269  11.305   6.837   3.990 -0.2279 -0.2091  0.3579
  195MOL0     H26270  11.295   7.002   4.160 -1.8977 -2.5981 -2.5278
  195MOL0     H26271  11.331   6.897   4.296 -0.3459 -0.8402  0.0813
  195MOL0     H26272  11.507   7.011   4.090  2.9208 -0.8654 -0.5069
  195MOL0     H26273  11.551   6.850   4.146 -1.9039 -0.3859 -1.1099
  195MOL0     H26274  11.499   7.092   4.335 -1.1460  0.6992 -0.6925
  195MOL0     H26275  11.550   6.928   4.385 -1.6143  0.7610  2.1173
  195MOL0     H26276  11.691   7.210   4.117  2.5541  0.4300 -1.8207
  195MOL0     H26277  12.030   7.307   4.266  0.4825  1.4093 -0.7368
  195MOL0     H26278  12.032   7.235   4.105 -0.6629  0.9431 -1.2631
  195MOL0     H26279  11.815   7.375   4.056 -1.8757 -0.5429  1.4859
  195MOL0     H26280  11.821   7.428   4.227 -2.3680 -1.4033 -1.4685
  195MOL0     H26281  12.057   7.473   4.051 -1.2011 -3.5225  0.7471
  195MOL0     H26282  11.980   7.566   4.189 -0.5018  0.2436 -0.8113
  195MOL0     H26283  11.952   7.695   3.975  3.4473 -0.0968  1.9994
  195MOL0     H26284  11.791   7.615   4.024 -0.4956 -1.3600 -1.6303
  195MOL0     H26285  12.110   7.648   3.824  2.4350  0.7046 -1.2136
  195MOL0     H26286  12.315   7.539   3.721 -0.0965 -0.2132 -0.5443
  195MOL0     H26287  12.407   6.942   3.597 -0.4060  0.0689  0.0767
  195MOL0     H26288  12.623   6.856   3.465 -1.2069 -0.9195  0.2890
  195MOL0     H26289  12.832   7.061   3.105  4.7872  2.8917  1.0461
  195MOL0     H26290  12.822   7.141   3.269 -1.3604  0.0470  1.8796
  195MOL0     H26291  12.937   6.965   3.376  1.9163  0.4616  0.5313
  195MOL0     H26292  12.954   6.885   3.213  1.2663  1.3379 -2.3705
  195MOL0     H26293  13.103   7.046   3.140  2.0002  0.8168  0.5298
  195MOL0     H26294  13.069   7.156   3.284 -0.2423  0.1202 -0.4496
  195MOL0     H26295  13.208   6.895   3.298  3.0178  0.2685 -0.0470
  195MOL0     H26296  13.181   7.009   3.432  0.2417  0.8162 -0.8946
  195MOL0     H26297  13.303   7.185   3.315  3.1448  0.7207 -0.4343
  195MOL0     H26298  13.321   7.089   3.184  1.0621  1.1228  0.0932
  195MOL0     H26299  13.465   6.933   3.316 -3.5595 -0.8936  0.3040
  195MOL0     H26300  13.521   7.096   3.282  0.7020  1.2683  2.7166
  195MOL0     H26301  13.375   7.125   3.526 -1.8598 -2.2348 -1.4803
  195MOL0     H26302  13.556   7.120   3.526  1.0516 -0.7002  0.4553
  195MOL0     H26303  13.351   6.889   3.538  0.1672 -0.1498 -2.7055
  195MOL0     H26304  13.525   6.864   3.558  0.9761  0.4187 -1.3167
  195MOL0     H26305  12.605   7.191   3.208 -0.0977 -1.3821 -1.1557
  195MOL0     H26306  12.405   7.285   3.346  0.4269 -0.9539 -2.8661
  195MOL0     H26307  12.081   7.190   3.661  0.7994 -0.8599  2.0830
  195MOL0     H26308  11.890   7.294   3.767 -0.7137  1.3528  0.5297
  195MOL0     H26309  10.806   6.923   3.574  0.9058  0.7714 -1.7960
  195MOL0     H26310  10.593   6.902   3.429  0.3838  0.4915 -1.4602
  195MOL0     H26311  10.152   6.811   3.327 -1.4884 -0.9255  2.4267
  195MOL0     H26312   9.984   6.767   3.201 -0.9665 -1.2519  1.9737
  195MOL0     H26313   9.821   6.641   3.148 -3.7590 -1.2467 -0.8056
  195MOL0     H26314   9.755   6.546   3.019  0.9870 -1.0219 -0.3711
  195MOL0     H26315   9.901   6.667   2.846  0.5718 -4.4128  1.9601
  195MOL0     H26316   9.967   6.768   2.956  0.8669 -1.0528 -3.1591
  195MOL0     H26317   9.792   6.921   3.001 -0.4458 -1.8744  3.3509
  195MOL0     H26318   9.676   6.795   2.977 -0.0306 -0.2847 -0.6280
  195MOL0     H26319   9.699   6.981   2.829  0.6656 -0.6721  2.6202
  195MOL0     H26320   9.836   6.898   2.746  0.4044  1.3513 -0.9343
  195MOL0     H26321   9.494   6.686   2.597 -0.3329 -0.4780 -0.0310
  195MOL0     H26322  10.163   6.396   3.076 -1.5543 -0.0208  1.8005
  195MOL0     H26323  10.424   6.396   3.327  1.3059  1.3716  0.3962
  195MOL0     H26324  10.378   6.330   3.163 -1.7014  0.5418  1.0836
  195MOL0     H26325  10.504   6.462   3.197  1.6250 -2.4219  3.0204
  196MOL0     O26326   4.584   7.185   3.522 -0.3397 -0.2003  0.0171
  196MOL0     C26327   4.604   7.172   3.398 -0.2378  0.1760 -0.3052
  196MOL0     O26328   4.675   7.073   3.339  0.3296 -0.3196  0.1084
  196MOL0     C26329   4.734   6.965   3.406 -1.4495 -0.3556 -0.1722
  196MOL0     C26330   4.770   6.850   3.321  1.4286  0.0074 -0.1264
  196MOL0     C26331   4.823   6.734   3.373 -0.2552 -0.7694 -0.7290
  196MOL0     C26332   4.852   6.722   3.509  0.4657 -0.7757  0.4414
  196MOL0     O26333   4.934   6.624   3.553 -0.3960  0.4448 -0.2113
  196MOL0     C26334   5.059   6.678   3.615 -0.1502 -0.1455  0.3507
  196MOL0     C26335   5.124   6.559   3.674 -0.2852  0.3454  0.4941
  196MOL0     C26336   5.163   6.456   3.567 -0.3896  1.0796  0.1798
  196MOL0     C26337   5.264   6.503   3.456 -0.4111 -0.0076 -0.0362
  196MOL0     C26338   5.265   6.408   3.338  0.0870  0.6230 -0.3574
  196MOL0     C26339   5.277   6.258   3.368  0.5194 -1.3627  0.5952
  196MOL0     C26340   5.399   6.213   3.446  0.0174  0.0606 -0.0840
  196MOL0     C26341   5.532   6.218   3.363  0.3198 -0.5748 -1.2459
  196MOL0     N26342   5.546   6.103   3.279 -0.4431 -0.2485  0.7327
  196MOL0     C26343   5.506   6.112   3.144  0.4122  0.5449  1.2687
  196MOL0     C26344   5.561   6.008   3.081  0.2467  0.2516  0.4143
  196MOL0     C26345   5.566   5.991   2.931  0.1566  0.9855 -0.2085
  196MOL0     C26346   5.449   5.919   2.865 -0.8704  1.0896  0.3814
  196MOL0     C26347   5.324   6.009   2.872  0.3683 -0.2335 -0.9028
  196MOL0     C26348   5.205   5.930   2.814  0.7531  0.2248  0.0199
  196MOL0     O26349   5.232   5.893   2.683  0.2196 -1.0719 -0.0882
  196MOL0     C26350   5.153   5.808   2.620 -0.7751  1.1234  1.2323
  196MOL0     C26351   5.016   5.797   2.632  0.8404  0.4731 -0.1164
  196MOL0     C26352   4.944   5.697   2.569  0.5591  0.5210 -0.3450
  196MOL0     C26353   5.012   5.599   2.492  0.1457 -0.6256  0.3953
  196MOL0     C26354   4.951   5.469   2.466  0.4466 -1.2313 -0.2989
  196MOL0     O26355   5.031   5.368   2.413  0.8857 -0.6312 -0.2519
  196MOL0     C26356   4.991   5.239   2.396 -0.4826 -0.2754  1.3972
  196MOL0     C26357   4.869   5.186   2.365  0.1366  0.1189 -0.7795
  196MOL0     C26358   4.870   5.042   2.346  0.9797 -0.8621 -0.0931
  196MOL0     C26359   4.983   4.959   2.345  0.3710 -0.7604 -0.0617
  196MOL0     O26360   4.966   4.821   2.324  0.4398  0.4678 -0.4143
  196MOL0     C26361   5.041   4.731   2.411 -0.0996 -0.1286  0.6910
  196MOL0     C26362   4.958   4.613   2.452  0.2750  0.3115  0.5970
  196MOL0     C26363   5.046   4.484   2.491 -0.4204 -0.9727 -0.3555
  196MOL0     C26364   5.072   4.400   2.361  0.0384  0.0978  0.2780
  196MOL0     C26365   5.157   4.270   2.406 -0.0463  0.6004 -0.1261
  196MOL0     C26366   5.213   4.184   2.295  0.9283 -0.1048  0.3442
  196MOL0     C26367   5.198   4.030   2.327  0.3042 -0.1344  0.5045
  196MOL0     C26368   5.148   3.947   2.213 -0.5114 -0.2879 -0.8573
  196MOL0    Cl26369   5.127   3.770   2.255  0.0342 -0.5304 -0.2613
  196MOL0     C26370   5.103   5.015   2.367  0.3135  0.3825  0.6391
  196MOL0     C26371   5.105   5.151   2.397 -1.0168  0.4343 -0.1694
  196MOL0     O26372   4.831   5.454   2.491  0.0457 -0.3502  0.4452
  196MOL0     C26373   5.152   5.608   2.490 -0.3201  0.7267  0.2425
  196MOL0     C26374   5.219   5.717   2.542  0.1195  0.6820  0.1884
  196MOL0     N26375   5.612   5.925   3.178 -0.0669 -0.1686 -0.3020
  196MOL0     N26376   5.612   5.982   3.298 -0.4010  0.7754 -0.2585
  196MOL0     C26377   4.827   6.843   3.588 -0.9438  0.6486  0.8084
  196MOL0     C26378   4.770   6.959   3.541  0.2326 -0.0015 -0.4619
  196MOL0     C26379   4.524   7.249   3.310 -0.0293 -0.6524  0.5853
  196MOL0     C26380   4.392   7.265   3.329  0.5474 -0.5367  0.1664
  196MOL0     C26381   4.320   7.352   3.240  0.5153  1.0804  0.3969
  196MOL0     C26382   4.389   7.414   3.137  1.4046 -0.3907 -0.7234
  196MOL0     O26383   4.326   7.506   3.051 -0.7203 -0.5081  0.4054
  196MOL0     C26384   4.184   7.530   3.054 -0.2950  0.2118 -0.5549
  196MOL0     C26385   4.142   7.574   2.913 -0.3069 -1.5017  0.2263
  196MOL0     C26386   3.987   7.581   2.894  0.5716  0.2154 -0.4012
  196MOL0     C26387   3.940   7.643   2.761  0.5836  0.2669  0.9243
  196MOL0     C26388   3.952   7.796   2.774  0.4835  0.5101 -0.1735
  196MOL0     C26389   3.967   7.919   2.782 -0.7840 -0.1798 -0.0063
  196MOL0     C26390   4.521   7.389   3.115 -0.1248 -0.2995 -0.4523
  196MOL0     C26391   4.594   7.309   3.202 -0.3506  0.2791 -0.5979
  196MOL0     C26392   4.747   7.299   3.180 -0.0612 -0.7530  0.0346
  196MOL0     H26393   4.743   6.857   3.216  0.3968  1.1623  0.1942
  196MOL0     H26394   4.849   6.654   3.304  1.2255 -0.7011 -0.2807
  196MOL0     H26395   5.116   6.725   3.534 -3.8369  0.9857 -1.8402
  196MOL0     H26396   5.036   6.750   3.694 -3.9874 -0.4137 -0.3348
  196MOL0     H26397   5.071   6.517   3.760 -0.9323 -0.7610 -0.4047
  196MOL0     H26398   5.217   6.597   3.716 -0.6091  2.0794 -0.2506
  196MOL0     H26399   5.069   6.419   3.525  0.4665 -0.4476 -0.4504
  196MOL0     H26400   5.210   6.366   3.608 -0.9317  0.1366 -1.2093
  196MOL0     H26401   5.226   6.599   3.419 -2.9990 -1.0685 -0.3501
  196MOL0     H26402   5.362   6.508   3.504  0.3789 -1.2220 -1.4692
  196MOL0     H26403   5.175   6.421   3.276 -0.1344 -0.7283 -0.3704
  196MOL0     H26404   5.344   6.440   3.269  2.7351  1.6167  2.9026
  196MOL0     H26405   5.185   6.230   3.420 -0.1818 -0.9219 -0.3869
  196MOL0     H26406   5.268   6.201   3.275 -0.6390  1.9151 -1.4867
  196MOL0     H26407   5.383   6.111   3.482  0.1278  0.4721  1.1590
  196MOL0     H26408   5.414   6.275   3.535 -1.2041 -0.4069  0.4664
  196MOL0     H26409   5.550   6.315   3.314 -1.4251  1.6343  2.0723
  196MOL0     H26410   5.599   6.217   3.449 -0.4451 -2.8812 -0.6043
  196MOL0     H26411   5.460   6.195   3.093 -1.4017 -0.8668  0.4945
  196MOL0     H26412   5.582   6.091   2.891  2.4129  0.1021 -1.7189
  196MOL0     H26413   5.659   5.935   2.915  0.9681  2.8776 -2.7999
  196MOL0     H26414   5.467   5.901   2.758 -2.4520  1.6883 -0.0087
  196MOL0     H26415   5.450   5.821   2.913 -2.0639  0.6065 -0.5309
  196MOL0     H26416   5.342   6.090   2.801  0.1253 -0.7982 -1.6250
  196MOL0     H26417   5.297   6.040   2.973  0.5221 -1.6692 -0.4032
  196MOL0     H26418   5.110   5.983   2.830  0.3332 -1.3284  3.5360
  196MOL0     H26419   5.193   5.838   2.871 -0.2554 -0.3591 -1.0979
  196MOL0     H26420   4.958   5.870   2.688 -1.2609 -2.4511  1.8287
  196MOL0     H26421   4.838   5.692   2.590  0.8261 -1.9756  0.7876
  196MOL0     H26422   4.777   5.243   2.361 -1.6330 -2.2765  1.9438
  196MOL0     H26423   4.767   5.008   2.347 -0.0884  1.9596  2.3555
  196MOL0     H26424   5.136   4.708   2.362 -0.6336  1.9685 -1.5420
  196MOL0     H26425   5.069   4.772   2.509  0.8261  1.9276 -0.3551
  196MOL0     H26426   4.902   4.647   2.540 -1.9406  0.6489 -0.8574
  196MOL0     H26427   4.887   4.585   2.373  1.1178  0.0744 -0.0868
  196MOL0     H26428   5.150   4.503   2.518 -1.0376  0.7968  1.0207
  196MOL0     H26429   4.996   4.425   2.568  0.3609 -1.3809 -0.1453
  196MOL0     H26430   5.128   4.458   2.288  0.6586 -1.6257 -0.6673
  196MOL0     H26431   4.978   4.367   2.314  0.5352 -0.2092 -0.5177
  196MOL0     H26432   5.113   4.213   2.489 -0.6711  3.8718  1.9582
  196MOL0     H26433   5.244   4.306   2.462  0.2722 -0.9464  0.4228
  196MOL0     H26434   5.171   4.217   2.199 -2.2118  0.6465  1.8274
  196MOL0     H26435   5.318   4.215   2.288  1.5689 -0.7907  4.3558
  196MOL0     H26436   5.141   4.008   2.418 -1.3755 -0.8408 -0.6811
  196MOL0     H26437   5.304   4.005   2.342  0.7083  0.0992 -1.6877
  196MOL0     H26438   5.053   3.987   2.176  0.3445  1.0844 -1.6409
  196MOL0     H26439   5.223   3.957   2.133  0.9571 -0.1399  0.4986
  196MOL0     H26440   5.196   4.961   2.355  1.6681  2.5366  0.8554
  196MOL0     H26441   5.208   5.184   2.406 -0.5349 -1.0276 -0.1390
  196MOL0     H26442   5.209   5.526   2.448 -2.3129 -0.8547  0.4594
  196MOL0     H26443   5.327   5.724   2.544  0.1703  1.0912 -1.7829
  196MOL0     H26444   4.849   6.845   3.695  0.2309  2.8470  0.5880
  196MOL0     H26445   4.754   7.036   3.616 -0.1471 -1.3190  0.8371
  196MOL0     H26446   4.350   7.208   3.410 -0.1750  1.3538  1.1699
  196MOL0     H26447   4.213   7.354   3.254  0.5049  2.4282  0.1988
  196MOL0     H26448   4.160   7.604   3.131 -1.5587 -0.0838 -0.6584
  196MOL0     H26449   4.129   7.444   3.091 -1.8594  1.6439  0.6116
  196MOL0     H26450   4.175   7.506   2.834  1.0398 -2.6154  1.6795
  196MOL0     H26451   4.185   7.673   2.897  0.6576 -1.9756 -0.1692
  196MOL0     H26452   3.945   7.634   2.979 -0.6935  0.6963 -1.2981
  196MOL0     H26453   3.949   7.480   2.908 -1.1599  0.8800 -0.1597
  196MOL0     H26454   3.989   7.589   2.680  0.3273  0.4032  0.6763
  196MOL0     H26455   3.834   7.617   2.750  0.9627 -2.3552  2.6671
  196MOL0     H26456   3.970   8.022   2.754 -3.6145 -0.0133  0.0093
  196MOL0     H26457   4.554   7.462   3.042 -0.1780 -0.6044 -0.7846
  196MOL0     H26458   4.770   7.380   3.110  1.5180 -0.4470  0.8782
  196MOL0     H26459   4.807   7.317   3.269  0.0436  0.1017 -0.1942
  196MOL0     H26460   4.765   7.200   3.138 -2.3223 -1.0174 -0.4244
  197MOL0     O26461   3.799   9.091   7.945  0.2665  0.6830  0.1179
  197MOL0     C26462   3.916   9.122   7.934 -0.5455  0.6581  0.7504
  197MOL0     O26463   4.017   9.033   7.932 -0.0223 -0.3757 -0.5720
  197MOL0     C26464   3.987   8.897   7.932  0.3689 -0.3364  0.4481
  197MOL0     C26465   3.928   8.849   8.052 -0.1106 -0.0726  0.5446
  197MOL0     C26466   3.889   8.714   8.059 -0.7573 -0.2335  0.0591
  197MOL0     C26467   3.911   8.628   7.952  0.2364 -0.2172 -0.7349
  197MOL0     O26468   3.864   8.494   7.958  0.2640  0.2236 -0.3618
  197MOL0     C26469   3.788   8.446   7.840 -0.5711  0.1710 -1.4016
  197MOL0     C26470   3.648   8.384   7.891  0.2094  0.3119 -0.4618
  197MOL0     C26471   3.594   8.298   7.778  0.3787 -0.5397  0.9061
  197MOL0     C26472   3.442   8.267   7.782 -0.0766  0.0270 -0.6054
  197MOL0     C26473   3.374   8.198   7.656 -0.3239 -0.3654  0.0767
  197MOL0     C26474   3.429   8.062   7.617 -0.6059  1.2182  0.7962
  197MOL0     C26475   3.342   7.989   7.520  0.1904 -0.3551 -0.1630
  197MOL0     C26476   3.364   8.009   7.368  0.5495  0.2868 -0.3111
  197MOL0     N26477   3.498   7.980   7.317 -1.4057  0.9113 -0.4256
  197MOL0     C26478   3.560   7.862   7.297  0.0999 -0.7336  0.0716
  197MOL0     C26479   3.681   7.891   7.228 -0.5342 -0.0927 -0.8401
  197MOL0     C26480   3.783   7.797   7.184  0.5045  0.2277 -0.3918
  197MOL0     C26481   3.712   7.706   7.076 -1.1019 -0.6919  0.5845
  197MOL0     C26482   3.726   7.757   6.932 -0.0478  0.0399 -0.1883
  197MOL0     C26483   3.626   7.673   6.845  0.0744  0.4409  1.2025
  197MOL0     O26484   3.621   7.728   6.707  0.0865  0.4524 -0.5922
  197MOL0     C26485   3.518   7.700   6.629  1.0360 -0.0970 -0.4047
  197MOL0     C26486   3.400   7.629   6.669  0.0486  0.4176  1.2765
  197MOL0     C26487   3.291   7.615   6.573 -0.6491 -0.5498  0.0711
  197MOL0     C26488   3.310   7.662   6.443 -0.1412 -0.3426 -0.5273
  197MOL0     C26489   3.199   7.640   6.343  0.3340 -1.1909 -0.4241
  197MOL0     O26490   3.225   7.661   6.212  0.2955  0.3482  0.0186
  197MOL0     C26491   3.121   7.627   6.120 -0.0988  0.6871 -0.6916
  197MOL0     C26492   3.107   7.491   6.081 -1.1176  0.2407  0.2385
  197MOL0     C26493   3.021   7.464   5.978 -0.8001 -0.6734 -0.2788
  197MOL0     C26494   2.935   7.570   5.923  0.6451  0.1116 -0.9766
  197MOL0     O26495   2.855   7.552   5.813 -0.4186 -0.1207 -0.1727
  197MOL0     C26496   2.826   7.421   5.758 -0.1113  0.0959  0.0960
  197MOL0     C26497   2.703   7.433   5.676 -1.0528  0.0087 -0.4325
  197MOL0     C26498   2.594   7.520   5.758  0.7008  0.8310 -0.0618
  197MOL0     C26499   2.538   7.467   5.889 -0.7014  0.5018 -0.0456
  197MOL0     C26500   2.426   7.542   5.946  0.1287  0.4275  0.0131
  197MOL0     C26501   2.375   7.476   6.078 -0.1299 -0.0891  0.0723
  197MOL0     C26502   2.255   7.558   6.125  0.2491  0.0382 -0.2564
  197MOL0     C26503   2.110   7.530   6.080 -0.3606  0.2876  1.1430
  197MOL0    Cl26504   2.081   7.573   5.915 -0.2225  0.3198  0.1433
  197MOL0     C26505   2.958   7.705   5.957 -0.3012 -0.0247 -0.4267
  197MOL0     C26506   3.052   7.728   6.051  0.4782 -0.6323 -0.2973
  197MOL0     O26507   3.090   7.610   6.396  0.3727 -0.2949  0.5005
  197MOL0     C26508   3.423   7.736   6.400 -0.3285  0.4043 -0.7096
  197MOL0     C26509   3.526   7.754   6.501  0.4047  0.0565  0.5975
  197MOL0     N26510   3.684   8.027   7.225 -0.1260 -0.2644  0.0367
  197MOL0     N26511   3.580   8.080   7.277  0.7772  0.2313 -0.5200
  197MOL0     C26512   3.979   8.675   7.835  0.1182  0.0319  0.2172
  197MOL0     C26513   4.015   8.809   7.826 -0.1299 -0.1333 -0.9650
  197MOL0     C26514   3.944   9.268   7.928 -0.5981 -0.7837 -0.8944
  197MOL0     C26515   4.080   9.308   7.924  0.3592  0.2790 -0.4501
  197MOL0     C26516   4.109   9.437   7.908 -0.5365  0.2206  0.1659
  197MOL0     C26517   4.024   9.545   7.917 -0.1077  1.2436  0.7086
  197MOL0     O26518   4.046   9.676   7.899 -0.0294  0.3928  0.5823
  197MOL0     C26519   4.150   9.693   7.803 -0.4350 -0.5892  0.1581
  197MOL0     C26520   4.168   9.852   7.790  0.8258  0.4794  0.4818
  197MOL0     C26521   4.043   9.925   7.726 -0.6585  1.1111 -0.6634
  197MOL0     C26522   4.065  10.074   7.687 -1.2769 -0.4233 -0.0367
  197MOL0     C26523   4.087  10.142   7.816  0.9545  0.6630 -0.1140
  197MOL0     C26524   4.110  10.223   7.903 -0.0823 -0.6158 -0.0756
  197MOL0     C26525   3.888   9.512   7.947  0.8525  0.4590  0.9938
  197MOL0     C26526   3.843   9.378   7.950 -1.0791  0.0606 -0.3331
  197MOL0     C26527   3.697   9.363   7.971 -0.1474 -0.0797  0.5346
  197MOL0     H26528   3.911   8.912   8.138 -2.2705 -1.3113  1.1044
  197MOL0     H26529   3.855   8.682   8.157 -3.0751  1.8635  0.0385
  197MOL0     H26530   3.785   8.534   7.775  0.1680  1.2460 -0.0346
  197MOL0     H26531   3.842   8.369   7.783  2.3287 -1.5467  3.0716
  197MOL0     H26532   3.576   8.464   7.914 -1.2751  0.2112 -4.1735
  197MOL0     H26533   3.661   8.323   7.981 -0.2926  0.3447 -0.3621
  197MOL0     H26534   3.651   8.206   7.792 -1.9577 -2.2002  0.1773
  197MOL0     H26535   3.615   8.342   7.680  0.0789  0.5435  1.3234
  197MOL0     H26536   3.425   8.210   7.874 -0.8460  2.4199  0.8419
  197MOL0     H26537   3.391   8.364   7.785 -1.7360 -0.8278  0.4126
  197MOL0     H26538   3.266   8.191   7.674 -0.2745 -3.7072 -0.2928
  197MOL0     H26539   3.393   8.270   7.575  2.1203 -2.0960 -1.0082
  197MOL0     H26540   3.530   8.070   7.575  0.6720 -3.2700  2.4509
  197MOL0     H26541   3.434   7.991   7.700 -1.6250 -4.0770 -3.2044
  197MOL0     H26542   3.237   8.018   7.533 -0.8073 -1.9131 -3.7171
  197MOL0     H26543   3.345   7.883   7.549 -0.4539 -1.4195 -3.5807
  197MOL0     H26544   3.289   7.957   7.308 -1.4408  0.9296  1.4477
  197MOL0     H26545   3.345   8.114   7.345  1.0198  0.3600 -0.3585
  197MOL0     H26546   3.516   7.766   7.321 -0.5776 -0.3730  0.2777
  197MOL0     H26547   3.862   7.866   7.153  1.7502 -2.0389 -2.7474
  197MOL0     H26548   3.810   7.734   7.269  3.4532  2.7983  0.7664
  197MOL0     H26549   3.747   7.604   7.096 -2.5870 -1.9444 -2.5346
  197MOL0     H26550   3.606   7.692   7.098 -1.7486  0.9068 -1.2496
  197MOL0     H26551   3.828   7.739   6.897  0.3756 -2.8314  2.1000
  197MOL0     H26552   3.709   7.865   6.924  1.9365  0.6260  2.2158
  197MOL0     H26553   3.528   7.689   6.890 -0.5942  1.0903 -0.3893
  197MOL0     H26554   3.649   7.567   6.830  0.0026  0.5919 -0.0756
  197MOL0     H26555   3.386   7.591   6.770  1.4246  1.0488  1.7258
  197MOL0     H26556   3.206   7.558   6.606 -3.0466  3.0241  0.6535
  197MOL0     H26557   3.178   7.418   6.119 -1.8448 -0.4265  0.3381
  197MOL0     H26558   3.024   7.359   5.948  1.5234 -0.7577  0.0959
  197MOL0     H26559   2.910   7.382   5.700 -0.1844 -0.3933  0.3113
  197MOL0     H26560   2.797   7.348   5.834 -2.0939 -1.1318 -1.7302
  197MOL0     H26561   2.722   7.491   5.586  0.7798 -0.7998 -0.6157
  197MOL0     H26562   2.666   7.330   5.664  1.4827 -0.8309 -1.6552
  197MOL0     H26563   2.625   7.624   5.771  1.9519  0.3597  0.8555
  197MOL0     H26564   2.506   7.534   5.694  0.6695 -0.7260 -0.4038
  197MOL0     H26565   2.630   7.469   5.948  0.9788 -0.5269 -2.4608
  197MOL0     H26566   2.504   7.363   5.883  1.2956 -0.1212 -2.1046
  197MOL0     H26567   2.341   7.537   5.877 -0.7220  1.2847  0.9546
  197MOL0     H26568   2.441   7.648   5.971 -2.1975  1.1108 -1.1691
  197MOL0     H26569   2.342   7.372   6.065 -1.6295  0.0604  2.0270
  197MOL0     H26570   2.455   7.487   6.152  0.5662 -1.5466 -0.4240
  197MOL0     H26571   2.266   7.665   6.104 -1.2252  0.9863  3.0651
  197MOL0     H26572   2.248   7.550   6.234  0.4199  0.9599 -0.1737
  197MOL0     H26573   2.079   7.428   6.106  1.2838 -0.4161  0.4540
  197MOL0     H26574   2.051   7.595   6.145  1.0955  2.4006  0.4696
  197MOL0     H26575   2.901   7.782   5.907  0.0368  0.8760  0.5393
  197MOL0     H26576   3.065   7.834   6.071  0.5043 -0.5093 -0.9444
  197MOL0     H26577   3.435   7.756   6.294 -0.8319  1.1934 -0.6264
  197MOL0     H26578   3.629   7.783   6.485  0.1210 -0.0673 -1.8698
  197MOL0     H26579   3.998   8.609   7.751  1.1735 -0.5884  0.9112
  197MOL0     H26580   4.063   8.839   7.734 -1.1398  0.8618 -1.1901
  197MOL0     H26581   4.148   9.225   7.910 -1.2289 -1.1070 -0.3290
  197MOL0     H26582   4.212   9.454   7.880 -0.7908  1.9993  0.1818
  197MOL0     H26583   4.134   9.642   7.707  1.5975 -2.2277  0.6138
  197MOL0     H26584   4.249   9.664   7.840 -1.6498 -1.6561  2.7926
  197MOL0     H26585   4.258   9.874   7.731  1.6002 -0.4084  1.2874
  197MOL0     H26586   4.181   9.891   7.891 -0.7571  0.5413  0.6812
  197MOL0     H26587   3.967   9.918   7.805 -1.3951  1.2063 -1.3514
  197MOL0     H26588   3.997   9.868   7.645 -1.4879 -2.8667  2.2470
  197MOL0     H26589   4.148  10.082   7.616 -3.4811  3.4036 -2.5543
  197MOL0     H26590   3.981  10.127   7.641 -0.9888  0.2360  0.1740
  197MOL0     H26591   4.127  10.298   7.976 -1.9214 -1.2732  1.0934
  197MOL0     H26592   3.820   9.596   7.942  0.3736  0.0058 -0.3345
  197MOL0     H26593   3.656   9.446   8.030 -1.8082 -1.3565  1.2583
  197MOL0     H26594   3.654   9.373   7.871 -1.7028 -2.3669  0.8996
  197MOL0     H26595   3.656   9.273   8.017 -1.9288 -0.9824 -2.5617
  198MOL0     O26596   4.015   9.808   2.738  0.6700  0.4532  0.4721
  198MOL0     C26597   4.114   9.803   2.665 -0.0887 -0.9091 -0.0464
  198MOL0     O26598   4.134   9.695   2.589  0.2928 -0.6574  1.1539
  198MOL0     C26599   4.086   9.572   2.618  1.0305  0.3253 -0.2020
  198MOL0     C26600   4.127   9.506   2.735  0.3646 -0.4882 -0.0372
  198MOL0     C26601   4.089   9.375   2.770 -0.7848 -0.1243  0.3871
  198MOL0     C26602   4.002   9.315   2.686 -0.1636  0.6745  0.6317
  198MOL0     O26603   3.951   9.193   2.716  0.5694  0.8099  0.7222
  198MOL0     C26604   4.010   9.121   2.832  0.0160  0.6920  0.6753
  198MOL0     C26605   3.954   8.980   2.850 -0.4230 -0.5385  0.3968
  198MOL0     C26606   4.026   8.875   2.769  0.1613 -0.4676  0.0883
  198MOL0     C26607   4.075   8.779   2.878 -0.6883  0.1161  1.2764
  198MOL0     C26608   4.131   8.649   2.821 -0.1235  0.3575 -0.5112
  198MOL0     C26609   4.225   8.578   2.925  0.4272 -0.2724  0.1935
  198MOL0     C26610   4.265   8.436   2.866 -0.3252 -0.3901  0.1759
  198MOL0     C26611   4.311   8.363   2.989  0.9016 -0.4792 -0.0268
  198MOL0     N26612   4.365   8.238   2.940  0.1511  0.5706  0.1695
  198MOL0     C26613   4.294   8.125   2.888  0.7411  0.2734 -0.8144
  198MOL0     C26614   4.381   8.019   2.889  0.7058 -0.6129 -0.2698
  198MOL0     C26615   4.350   7.888   2.840 -0.6422  0.1470 -0.4720
  198MOL0     C26616   4.446   7.827   2.743 -0.1188 -0.3435  0.6200
  198MOL0     C26617   4.398   7.681   2.701 -0.4756 -0.1309  0.3810
  198MOL0     C26618   4.489   7.629   2.598 -0.4923 -0.4933 -0.2409
  198MOL0     O26619   4.450   7.497   2.546 -0.2874 -0.1687  0.5935
  198MOL0     C26620   4.489   7.385   2.614 -0.4224 -1.1007  0.0396
  198MOL0     C26621   4.568   7.366   2.731  0.0814  0.2743  0.0510
  198MOL0     C26622   4.603   7.233   2.766  0.1105  0.2779 -0.0348
  198MOL0     C26623   4.561   7.124   2.695 -0.3458  0.7185  0.6127
  198MOL0     C26624   4.597   6.984   2.738  0.1438  0.0041 -0.8629
  198MOL0     O26625   4.675   6.974   2.849  0.2402 -0.4290  1.0056
  198MOL0     C26626   4.756   6.866   2.875 -0.1149  0.3621  0.1193
  198MOL0     C26627   4.724   6.732   2.836  0.3513  0.5534  0.6691
  198MOL0     C26628   4.818   6.633   2.860  0.2280 -0.5252 -0.6832
  198MOL0     C26629   4.937   6.660   2.942 -0.0152 -0.0143 -0.1766
  198MOL0     O26630   5.012   6.555   2.983 -0.5343 -0.0055  0.1633
  198MOL0     C26631   5.062   6.480   2.870  0.4545  0.4645  0.0017
  198MOL0     C26632   5.171   6.390   2.917 -0.5226  1.0821 -0.0735
  198MOL0     C26633   5.304   6.462   2.951  0.7558 -0.7943  1.2014
  198MOL0     C26634   5.414   6.470   2.840 -0.1001  0.7259  0.0461
  198MOL0     C26635   5.555   6.498   2.889 -0.0383  0.3506  1.0541
  198MOL0     C26636   5.643   6.489   2.773 -0.2103 -0.4181 -0.3550
  198MOL0     C26637   5.692   6.346   2.740 -1.1795 -0.2872 -0.4295
  198MOL0     C26638   5.785   6.293   2.845  0.4642  0.0986 -0.2686
  198MOL0    Cl26639   5.874   6.157   2.779  0.2714 -0.0258  0.0065
  198MOL0     C26640   4.944   6.787   3.008  0.1443  0.1717  0.3633
  198MOL0     C26641   4.857   6.889   2.968  0.9898 -0.5951  0.6416
  198MOL0     O26642   4.571   6.900   2.653 -0.1261  0.5465 -1.0077
  198MOL0     C26643   4.491   7.149   2.579  0.2252  0.3669  1.1367
  198MOL0     C26644   4.445   7.276   2.541  0.3991  0.1130 -0.5330
  198MOL0     N26645   4.503   8.071   2.936 -0.7344 -0.2158  0.4577
  198MOL0     N26646   4.483   8.196   2.972 -0.6118 -0.6140  0.1241
  198MOL0     C26647   3.962   9.375   2.571  0.6907  0.2108 -0.2715
  198MOL0     C26648   4.007   9.499   2.528 -0.4852 -0.6720  0.4703
  198MOL0     C26649   4.215   9.908   2.661 -0.3121  0.3041  0.1291
  198MOL0     C26650   4.305   9.915   2.549 -0.2342  0.8507 -0.0148
  198MOL0     C26651   4.425   9.988   2.557 -1.0083 -0.1043  0.3755
  198MOL0     C26652   4.449  10.075   2.664 -0.6452  0.5127  0.1182
  198MOL0     O26653   4.562  10.155   2.677  0.3974 -0.1350 -0.4132
  198MOL0     C26654   4.669  10.122   2.586 -0.3951  0.0336  0.2979
  198MOL0     C26655   4.790  10.184   2.654  0.0378 -0.5208  0.0438
  198MOL0     C26656   4.782  10.339   2.663  0.5704  0.1951  0.5714
  198MOL0     C26657   4.709  10.400   2.787  0.3894 -0.4400 -0.2631
  198MOL0     C26658   4.744  10.543   2.805  0.0120 -1.4252  0.6248
  198MOL0     C26659   4.753  10.665   2.819 -0.6873 -0.4197 -0.6988
  198MOL0     C26660   4.349  10.085   2.756 -0.2913  0.0734 -0.2958
  198MOL0     C26661   4.241  10.001   2.761  0.4985 -1.0978 -0.2909
  198MOL0     C26662   4.155  10.021   2.891 -0.1423  1.3170  1.0574
  198MOL0     H26663   4.195   9.567   2.794 -1.7718 -2.5901  5.2686
  198MOL0     H26664   4.133   9.339   2.863 -1.7496 -0.5733  0.6830
  198MOL0     H26665   4.118   9.114   2.824  0.1984 -3.8830  3.6126
  198MOL0     H26666   3.990   9.173   2.927  0.9764 -3.2911  3.3180
  198MOL0     H26667   3.854   8.974   2.806 -0.1905  0.1707 -0.2579
  198MOL0     H26668   3.938   8.962   2.957  0.0901 -3.1351  0.0809
  198MOL0     H26669   4.105   8.915   2.705  0.5833 -4.6479 -2.4081
  198MOL0     H26670   3.951   8.819   2.713  0.2136  0.8336 -1.3437
  198MOL0     H26671   4.152   8.846   2.916  1.2358 -0.5872 -1.1715
  198MOL0     H26672   4.001   8.746   2.952  0.7091  0.7311  3.0221
  198MOL0     H26673   4.045   8.587   2.795 -0.0124  0.5892 -1.4733
  198MOL0     H26674   4.192   8.649   2.730 -1.6973 -1.7366 -1.6471
  198MOL0     H26675   4.313   8.639   2.947 -1.5888  1.6906  3.8275
  198MOL0     H26676   4.153   8.574   3.007 -0.9516  2.1990 -0.7716
  198MOL0     H26677   4.348   8.444   2.794  0.3087 -0.2174  0.9169
  198MOL0     H26678   4.178   8.385   2.824 -0.8738  0.8164 -0.2121
  198MOL0     H26679   4.388   8.424   3.036  0.9421 -0.4267 -0.1602
  198MOL0     H26680   4.229   8.345   3.059  2.6770 -1.1222  1.9884
  198MOL0     H26681   4.196   8.130   2.841  0.5414 -1.8092 -0.7169
  198MOL0     H26682   4.351   7.821   2.927 -0.7539 -0.6767 -1.0967
  198MOL0     H26683   4.247   7.891   2.804 -1.9850 -0.7461  2.9117
  198MOL0     H26684   4.448   7.883   2.649 -2.7154 -0.1377  0.6196
  198MOL0     H26685   4.548   7.821   2.783  0.1634 -1.2361 -0.2041
  198MOL0     H26686   4.300   7.678   2.655  0.3342 -4.1488 -1.5308
  198MOL0     H26687   4.400   7.617   2.790  0.0378 -0.9582 -0.2113
  198MOL0     H26688   4.590   7.619   2.641 -0.5530 -4.5282 -0.6216
  198MOL0     H26689   4.482   7.702   2.517 -1.6485 -0.1921  0.1208
  198MOL0     H26690   4.593   7.458   2.783  0.2955  0.4022 -0.2689
  198MOL0     H26691   4.672   7.213   2.848  1.8564  0.0518 -1.4892
  198MOL0     H26692   4.637   6.709   2.775  0.6333 -0.1282  0.5126
  198MOL0     H26693   4.784   6.533   2.833 -1.7069  0.2720 -1.3054
  198MOL0     H26694   4.976   6.423   2.833  1.4214 -1.6299  0.8202
  198MOL0     H26695   5.087   6.559   2.798  0.0376 -0.0029 -0.6724
  198MOL0     H26696   5.141   6.337   3.008  2.4259  0.6481  0.7462
  198MOL0     H26697   5.190   6.307   2.849 -1.7146 -0.7869  1.7613
  198MOL0     H26698   5.285   6.562   2.992 -1.9535 -1.3613  1.5472
  198MOL0     H26699   5.345   6.403   3.034 -0.5922 -1.8599  1.1591
  198MOL0     H26700   5.388   6.541   2.760 -0.5202 -1.9041 -2.3287
  198MOL0     H26701   5.405   6.374   2.787  1.3702  0.1794  0.7611
  198MOL0     H26702   5.592   6.436   2.971  1.8091  0.5316  0.3902
  198MOL0     H26703   5.555   6.603   2.921  0.6739  0.7303 -0.1550
  198MOL0     H26704   5.603   6.543   2.687 -1.2339 -1.8675 -0.8399
  198MOL0     H26705   5.730   6.553   2.786 -1.0564  0.9464 -1.1981
  198MOL0     H26706   5.743   6.338   2.644  1.8557  0.5610  0.9842
  198MOL0     H26707   5.605   6.282   2.726 -0.9867 -0.4885 -0.7297
  198MOL0     H26708   5.858   6.371   2.867 -2.1669  2.7689 -0.3965
  198MOL0     H26709   5.727   6.253   2.929  2.1116 -0.1089  0.7968
  198MOL0     H26710   5.020   6.808   3.082  1.0252 -1.5229 -0.0020
  198MOL0     H26711   4.867   6.990   3.006  1.9399 -0.2921 -0.3641
  198MOL0     H26712   4.464   7.069   2.510 -0.2318  2.8757 -1.8324
  198MOL0     H26713   4.370   7.293   2.464 -1.1486  0.4078  0.9849
  198MOL0     H26714   3.899   9.312   2.509  0.7356  0.3863 -0.4953
  198MOL0     H26715   3.967   9.539   2.436  0.3884  1.8661  1.1158
  198MOL0     H26716   4.293   9.860   2.456  0.2162  2.3069 -0.9725
  198MOL0     H26717   4.490   9.978   2.470 -2.8066  3.7214 -1.6771
  198MOL0     H26718   4.664  10.165   2.485 -2.7924 -1.8658 -0.4695
  198MOL0     H26719   4.689  10.014   2.584  0.8841  0.1840 -3.5569
  198MOL0     H26720   4.886  10.154   2.611  1.5441  3.3162  0.3585
  198MOL0     H26721   4.796  10.153   2.759  0.2529 -1.3797 -0.2130
  198MOL0     H26722   4.720  10.375   2.581 -0.0603 -0.9199  0.5444
  198MOL0     H26723   4.879  10.387   2.649 -0.2488  1.8325  0.2168
  198MOL0     H26724   4.603  10.374   2.784  0.3890 -0.3876 -0.9576
  198MOL0     H26725   4.744  10.364   2.884  1.0639  2.8717  0.8770
  198MOL0     H26726   4.763  10.770   2.837  0.8176 -0.8424  1.2537
  198MOL0     H26727   4.357  10.167   2.826 -0.1804 -0.2159  0.0371
  198MOL0     H26728   4.058  10.060   2.858  0.1788  0.8907 -0.4842
  198MOL0     H26729   4.138   9.920   2.928  0.8732 -0.6110 -3.0892
  198MOL0     H26730   4.208  10.075   2.971  4.1535 -1.0960  0.1416
  199MOL0     O26731   7.507   0.593   7.235 -0.0780  0.3625 -0.2541
  199MOL0     C26732   7.426   0.507   7.195 -0.7956 -0.1627 -0.1483
  199MOL0     O26733   7.447   0.425   7.087 -0.0238  0.3759 -0.6028
  199MOL0     C26734   7.570   0.442   7.024  1.4498 -1.5140  0.6393
  199MOL0     C26735   7.695   0.411   7.086  0.6347  0.1838 -0.0491
  199MOL0     C26736   7.808   0.411   7.009 -0.3389 -0.5736  0.8525
  199MOL0     C26737   7.801   0.472   6.879 -0.3625  0.8165  0.4904
  199MOL0     O26738   7.907   0.461   6.795  0.0718  0.0151 -0.0124
  199MOL0     C26739   7.941   0.322   6.755  0.1826 -0.2321 -0.1127
  199MOL0     C26740   7.831   0.260   6.664  0.1034 -1.4125  0.6581
  199MOL0     C26741   7.867   0.126   6.610 -0.1995  0.5360 -0.2841
  199MOL0     C26742   7.750   0.079   6.518 -1.0219 -0.5109 -0.0248
  199MOL0     C26743   7.795  -0.058   6.472  0.3215 -1.1897  0.4219
  199MOL0     C26744   7.696  -0.171   6.503  0.4637 -0.0866  0.0912
  199MOL0     C26745   7.670  -0.269   6.388 -0.6164 -0.4160  0.3766
  199MOL0     C26746   7.561  -0.361   6.426 -0.3289  0.3833  0.6814
  199MOL0     N26747   7.609  -0.466   6.519 -0.3560 -0.9344 -0.0550
  199MOL0     C26748   7.589  -0.458   6.656  0.8355  0.7540  0.2704
  199MOL0     C26749   7.653  -0.560   6.713  0.4647  0.3112 -0.2839
  199MOL0     C26750   7.650  -0.593   6.865 -0.9459 -0.4265  0.7813
  199MOL0     C26751   7.779  -0.572   6.942 -0.7695  0.3336  0.6155
  199MOL0     C26752   7.893  -0.631   6.870 -0.3278 -0.3543  0.5668
  199MOL0     C26753   8.017  -0.635   6.959  1.4341 -0.2775  0.7527
  199MOL0     O26754   8.055  -0.504   7.002 -0.1697  0.4654 -0.3255
  199MOL0     C26755   8.191  -0.493   7.029  0.6499  0.2596 -0.3961
  199MOL0     C26756   8.258  -0.377   7.000  0.1353 -0.0373 -0.7735
  199MOL0     C26757   8.394  -0.362   7.041 -0.3417 -0.0605  0.3024
  199MOL0     C26758   8.459  -0.470   7.107 -1.2210  0.0704  0.4619
  199MOL0     C26759   8.601  -0.456   7.141  1.4912 -0.9472 -0.5948
  199MOL0     O26760   8.640  -0.333   7.174  0.1300  0.2751  0.0106
  199MOL0     C26761   8.762  -0.335   7.237  0.2795  1.2542 -1.2183
  199MOL0     C26762   8.772  -0.364   7.372 -0.0869  0.4744  0.2981
  199MOL0     C26763   8.897  -0.347   7.444  0.3723  0.4898 -0.4281
  199MOL0     C26764   9.012  -0.321   7.368  0.4284 -0.4564  0.3882
  199MOL0     O26765   9.133  -0.294   7.434 -0.8980  0.1263  0.6688
  199MOL0     C26766   9.146  -0.353   7.565  0.3766  0.6910  0.6082
  199MOL0     C26767   9.295  -0.327   7.596  0.6128  0.3372  0.4161
  199MOL0     C26768   9.339  -0.363   7.743  0.4353  0.4775  0.3192
  199MOL0     C26769   9.485  -0.337   7.777 -0.8935  0.0618 -0.0405
  199MOL0     C26770   9.516  -0.392   7.920 -0.5799 -0.0994  0.8267
  199MOL0     C26771   9.554  -0.536   7.941 -0.7581 -0.1994  0.1678
  199MOL0     C26772   9.684  -0.578   7.864 -0.4153  0.2122 -0.7464
  199MOL0     C26773   9.737  -0.720   7.901 -0.6209 -0.2067 -1.1466
  199MOL0    Cl26774   9.627  -0.851   7.819  0.1999 -0.4417 -0.5753
  199MOL0     C26775   9.000  -0.300   7.228 -0.1141 -0.0265 -0.1719
  199MOL0     C26776   8.875  -0.305   7.169  0.7753 -0.5393  0.6972
  199MOL0     O26777   8.679  -0.551   7.132  0.2275  0.0152  0.1623
  199MOL0     C26778   8.400  -0.588   7.130  0.2210 -0.4384  0.6229
  199MOL0     C26779   8.262  -0.599   7.099 -0.8751  0.2491 -1.0616
  199MOL0     N26780   7.702  -0.639   6.611 -0.1448  0.0335 -0.4280
  199MOL0     N26781   7.688  -0.572   6.498 -0.2043  0.4781  0.3540
  199MOL0     C26782   7.677   0.518   6.830  1.1151  0.4064  0.3676
  199MOL0     C26783   7.561   0.496   6.900 -0.9076 -1.6142  0.2741
  199MOL0     C26784   7.289   0.503   7.258 -1.3841  0.1003  0.5426
  199MOL0     C26785   7.199   0.409   7.207 -0.0815  0.2519 -0.9690
  199MOL0     C26786   7.069   0.398   7.252  0.3988  0.1343  0.3487
  199MOL0     C26787   7.026   0.485   7.353 -0.2270  0.5750 -0.0163
  199MOL0     O26788   6.907   0.461   7.415 -0.4913  0.3910 -0.2463
  199MOL0     C26789   6.801   0.553   7.375  0.4660 -0.0218  0.2432
  199MOL0     C26790   6.662   0.478   7.374  0.2432 -0.0599 -0.2872
  199MOL0     C26791   6.549   0.564   7.431  0.6108  0.4096  0.0206
  199MOL0     C26792   6.419   0.488   7.464  0.6199  1.0907  0.1560
  199MOL0     C26793   6.307   0.579   7.490 -0.4319 -0.9817  0.0668
  199MOL0     C26794   6.204   0.639   7.524  0.6341  0.6270  0.8840
  199MOL0     C26795   7.117   0.577   7.400 -0.4403 -0.7262 -0.0815
  199MOL0     C26796   7.248   0.589   7.357  0.5144  0.8502 -0.1157
  199MOL0     C26797   7.330   0.697   7.422  1.4564  0.5463 -0.7130
  199MOL0     H26798   7.692   0.372   7.188 -3.9611  1.4184  0.5019
  199MOL0     H26799   7.894   0.365   7.057 -0.2251 -0.8322  0.4064
  199MOL0     H26800   8.031   0.307   6.695  0.1040 -1.2706 -0.0043
  199MOL0     H26801   7.942   0.266   6.849 -3.0198 -0.6462 -0.1821
  199MOL0     H26802   7.816   0.327   6.579  0.2335 -0.9479  0.9955
  199MOL0     H26803   7.734   0.253   6.714 -0.6442 -0.4804 -0.6196
  199MOL0     H26804   7.872   0.049   6.687  0.7661  3.1705  2.5240
  199MOL0     H26805   7.963   0.141   6.560 -0.8385  0.7794 -1.4649
  199MOL0     H26806   7.660   0.076   6.580 -0.9396 -1.0003  0.0765
  199MOL0     H26807   7.738   0.150   6.436  0.0212  0.6505  0.8108
  199MOL0     H26808   7.808  -0.050   6.364 -0.1404  0.8414  0.4639
  199MOL0     H26809   7.892  -0.084   6.516  0.4451 -2.1635 -0.4075
  199MOL0     H26810   7.733  -0.226   6.589 -2.1645  2.9560  3.4623
  199MOL0     H26811   7.603  -0.129   6.542  1.1446  0.0216  1.6699
  199MOL0     H26812   7.761  -0.328   6.374  0.4748  0.2069  3.8046
  199MOL0     H26813   7.653  -0.228   6.288 -1.6199 -2.6654 -0.4344
  199MOL0     H26814   7.472  -0.310   6.462  1.2492  5.9408 -2.1378
  199MOL0     H26815   7.536  -0.404   6.329 -0.1352  1.4645  0.1391
  199MOL0     H26816   7.530  -0.381   6.706 -0.2592 -1.0715  1.8963
  199MOL0     H26817   7.567  -0.545   6.917 -1.0526  1.2429 -0.8521
  199MOL0     H26818   7.618  -0.698   6.866 -0.4320 -0.6312 -1.0780
  199MOL0     H26819   7.798  -0.465   6.952 -0.2698  0.2554  0.5396
  199MOL0     H26820   7.773  -0.610   7.045 -0.0853  1.8807  1.2633
  199MOL0     H26821   7.907  -0.574   6.777 -1.0645  2.1976  1.9447
  199MOL0     H26822   7.863  -0.734   6.847 -0.8581  0.2058 -1.4030
  199MOL0     H26823   8.094  -0.687   6.901  0.1617 -1.7332  0.2914
  199MOL0     H26824   7.997  -0.697   7.047  0.4893  0.6832  1.2343
  199MOL0     H26825   8.200  -0.296   6.959  1.0033  0.2634 -1.4368
  199MOL0     H26826   8.440  -0.264   7.043 -1.4767  0.5468  4.1630
  199MOL0     H26827   8.681  -0.384   7.428 -1.6895 -2.4537 -2.9791
  199MOL0     H26828   8.884  -0.363   7.550  0.9738 -0.7926 -0.5322
  199MOL0     H26829   9.078  -0.296   7.629  1.4456  4.7829 -1.5242
  199MOL0     H26830   9.135  -0.462   7.567  1.5953  0.4966 -0.9236
  199MOL0     H26831   9.342  -0.388   7.518 -0.0175  0.9384 -0.4625
  199MOL0     H26832   9.310  -0.222   7.569  1.3376  0.2866  0.6056
  199MOL0     H26833   9.273  -0.305   7.809  0.5272  0.7241  0.1924
  199MOL0     H26834   9.318  -0.469   7.762 -0.8473  0.5729 -0.4589
  199MOL0     H26835   9.503  -0.229   7.781  1.7367 -0.2927  4.1362
  199MOL0     H26836   9.551  -0.383   7.703 -2.0515 -4.6357  1.5105
  199MOL0     H26837   9.426  -0.370   7.977 -0.2300  0.6238  1.1166
  199MOL0     H26838   9.593  -0.326   7.960 -2.9103  1.6650  2.7097
  199MOL0     H26839   9.566  -0.537   8.050  2.1518  2.9227  0.0379
  199MOL0     H26840   9.472  -0.597   7.904  0.3052 -2.0344  0.7087
  199MOL0     H26841   9.768  -0.509   7.880 -0.0302  0.0774 -2.0698
  199MOL0     H26842   9.662  -0.569   7.757  1.2326  1.7999 -1.0089
  199MOL0     H26843   9.835  -0.718   7.851  0.1469  3.2324  0.2106
  199MOL0     H26844   9.735  -0.726   8.010  1.5426  2.4536 -0.8355
  199MOL0     H26845   9.075  -0.249   7.169 -3.8028  2.9151 -2.8751
  199MOL0     H26846   8.868  -0.290   7.062 -0.5811 -3.0535  0.3548
  199MOL0     H26847   8.454  -0.668   7.179  1.6583  0.3939  0.4492
  199MOL0     H26848   8.207  -0.685   7.135  2.5735 -1.3290  0.8993
  199MOL0     H26849   7.685   0.564   6.732  0.3496 -0.6911 -0.2290
  199MOL0     H26850   7.466   0.527   6.859  0.0597 -0.1425 -0.9648
  199MOL0     H26851   7.219   0.339   7.127 -0.7939  2.5439 -3.3054
  199MOL0     H26852   6.997   0.331   7.206  1.0907 -1.7099  1.8125
  199MOL0     H26853   6.818   0.602   7.279  2.5904  0.7000  0.9262
  199MOL0     H26854   6.793   0.626   7.456  0.3815 -0.9166  1.0700
  199MOL0     H26855   6.687   0.384   7.425  1.3660 -0.1291 -0.9298
  199MOL0     H26856   6.633   0.451   7.272 -0.8045 -2.4998  0.5882
  199MOL0     H26857   6.524   0.636   7.352  1.1531  0.7356  0.1447
  199MOL0     H26858   6.584   0.620   7.518  2.2788 -0.6740  0.0772
  199MOL0     H26859   6.383   0.431   7.378 -2.0352  2.0601  0.5311
  199MOL0     H26860   6.437   0.429   7.555 -1.2744 -0.5365 -0.4480
  199MOL0     H26861   6.109   0.683   7.549  0.4962  1.5569 -1.0784
  199MOL0     H26862   7.069   0.636   7.477 -1.5078  1.1479 -2.0761
  199MOL0     H26863   7.375   0.771   7.355  1.8486 -2.2540 -3.7877
  199MOL0     H26864   7.279   0.754   7.501  2.3227 -2.6630  2.4496
  199MOL0     H26865   7.410   0.649   7.479 -1.0045 -1.1401  1.5834
  200MOL0     O26866   2.361  10.530   1.188 -0.4672  0.2177  0.0521
  200MOL0     C26867   2.389  10.578   1.291  0.4447 -0.5203  0.8205
  200MOL0     O26868   2.342  10.535   1.419 -0.3552  0.3194  0.2800
  200MOL0     C26869   2.290  10.408   1.435  0.3543 -0.1194 -0.6321
  200MOL0     C26870   2.363  10.297   1.409  0.4489  0.4800 -0.6623
  200MOL0     C26871   2.302  10.174   1.417 -0.0148 -0.0953  0.3604
  200MOL0     C26872   2.158  10.164   1.456 -0.2774  0.0063 -0.2173
  200MOL0     O26873   2.082  10.045   1.446 -0.2311  0.2183  0.1809
  200MOL0     C26874   2.018   9.992   1.560 -0.0975  0.9814  0.1461
  200MOL0     C26875   1.874   9.935   1.535  0.0026 -0.9616 -0.1559
  200MOL0     C26876   1.802   9.893   1.665  0.8094  0.4303  0.8008
  200MOL0     C26877   1.848   9.768   1.736 -0.7189  0.2527  0.4198
  200MOL0     C26878   1.799   9.735   1.874  0.2679  0.0967  0.3017
  200MOL0     C26879   1.875   9.607   1.926  0.2817 -0.6031  0.5238
  200MOL0     C26880   1.828   9.540   2.061  0.4081 -0.7813  0.4070
  200MOL0     C26881   1.709   9.443   2.055  0.1327 -0.4059 -1.0250
  200MOL0     N26882   1.602   9.477   1.965  0.2777 -0.1606 -0.2530
  200MOL0     C26883   1.580   9.428   1.839  0.4041  0.3621  0.1278
  200MOL0     C26884   1.470   9.485   1.794 -0.4887 -0.1043  0.4721
  200MOL0     C26885   1.400   9.450   1.663  0.1022 -0.1318  0.0146
  200MOL0     C26886   1.494   9.382   1.563 -0.6568  0.1704  0.2780
  200MOL0     C26887   1.613   9.469   1.517 -0.1120 -0.2605  0.4981
  200MOL0     C26888   1.688   9.402   1.398 -0.8193 -0.7320 -0.1192
  200MOL0     O26889   1.771   9.295   1.437 -0.0097  0.5988  0.4245
  200MOL0     C26890   1.864   9.321   1.527 -0.2848 -0.2811  0.0677
  200MOL0     C26891   1.970   9.411   1.507 -0.1443 -0.3411 -0.1469
  200MOL0     C26892   2.053   9.434   1.621 -0.5312  0.5704  0.5548
  200MOL0     C26893   2.050   9.353   1.741  0.1285 -0.0169  0.0169
  200MOL0     C26894   2.155   9.354   1.846 -0.0469 -0.7952 -0.3639
  200MOL0     O26895   2.259   9.447   1.830  0.7688  0.5334 -0.8700
  200MOL0     C26896   2.365   9.456   1.920  0.6194  0.3038  0.9247
  200MOL0     C26897   2.343   9.486   2.053 -0.4011 -1.1171  0.1615
  200MOL0     C26898   2.458   9.509   2.130  0.1046  0.0840 -0.0785
  200MOL0     C26899   2.587   9.505   2.075 -0.0332  0.6838 -0.0373
  200MOL0     O26900   2.691   9.540   2.162 -0.0462 -0.2025 -0.0265
  200MOL0     C26901   2.816   9.591   2.100  1.2563 -0.9716  0.0132
  200MOL0     C26902   2.912   9.652   2.209  0.1019 -0.2528  0.5017
  200MOL0     C26903   3.063   9.665   2.170 -1.0789  0.3533 -0.7440
  200MOL0     C26904   3.087   9.757   2.056  0.9210 -0.6941  0.5009
  200MOL0     C26905   3.228   9.766   2.005 -0.7238  0.4086 -0.3515
  200MOL0     C26906   3.285   9.632   1.948  0.4723  0.2582 -0.8411
  200MOL0     C26907   3.210   9.559   1.827  0.7798  0.0133 -0.0793
  200MOL0     C26908   3.291   9.431   1.802  0.0518  0.1071  0.6236
  200MOL0    Cl26909   3.452   9.473   1.747 -0.0269 -0.1396 -0.0584
  200MOL0     C26910   2.605   9.476   1.940 -0.9464  0.7713 -0.5768
  200MOL0     C26911   2.490   9.452   1.861 -0.6647  0.0584  0.4918
  200MOL0     O26912   2.152   9.270   1.937 -0.2043  0.5690  0.0542
  200MOL0     C26913   1.939   9.259   1.746 -0.7809  0.7299 -0.9764
  200MOL0     C26914   1.855   9.235   1.639 -0.7503 -0.3090  0.6908
  200MOL0     N26915   1.422   9.575   1.890 -0.2309 -0.4566 -1.0288
  200MOL0     N26916   1.500   9.560   1.999  0.1091  0.5244  0.4496
  200MOL0     C26917   2.088  10.280   1.492 -0.7093  0.0700  0.8117
  200MOL0     C26918   2.155  10.399   1.465  1.1857  0.0390 -1.3778
  200MOL0     C26919   2.487  10.693   1.280 -0.6863 -0.7229 -0.7164
  200MOL0     C26920   2.586  10.698   1.378  0.5015  0.0389  0.3335
  200MOL0     C26921   2.689  10.787   1.373 -0.2017  0.4860 -0.2986
  200MOL0     C26922   2.685  10.887   1.281 -0.0941 -0.2598 -1.0533
  200MOL0     O26923   2.791  10.989   1.298  0.5578 -0.0060 -0.3209
  200MOL0     C26924   2.793  11.086   1.193 -0.7044  0.4349  0.4601
  200MOL0     C26925   2.920  11.166   1.203 -0.6015 -0.1263 -0.5870
  200MOL0     C26926   2.942  11.276   1.098 -0.0708 -0.6791 -0.5630
  200MOL0     C26927   2.815  11.358   1.051  0.2533  0.0142 -0.2126
  200MOL0     C26928   2.744  11.294   0.944  0.5174 -0.9020 -0.1096
  200MOL0     C26929   2.683  11.241   0.856  0.1370 -1.1104 -0.0761
  200MOL0     C26930   2.589  10.888   1.180  0.0034 -0.3507 -0.3429
  200MOL0     C26931   2.482  10.797   1.186 -0.9030  1.0072  0.1963
  200MOL0     C26932   2.376  10.804   1.084  0.7900 -0.2801 -0.4168
  200MOL0     H26933   2.457  10.288   1.356  0.0589 -0.5575 -1.2005
  200MOL0     H26934   2.345  10.083   1.378 -1.0184  0.3678 -2.0063
  200MOL0     H26935   2.072   9.904   1.595 -3.3746 -1.2139  0.1909
  200MOL0     H26936   2.010  10.071   1.636 -2.3005  0.2766  0.7200
  200MOL0     H26937   1.868   9.842   1.476 -0.6830 -2.0980  1.6372
  200MOL0     H26938   1.818  10.011   1.481  0.0512 -0.8191 -0.0040
  200MOL0     H26939   1.697   9.869   1.644  0.5480 -2.0251  4.0115
  200MOL0     H26940   1.818   9.979   1.731  4.3334 -0.0144  0.6858
  200MOL0     H26941   1.844   9.684   1.666  0.1122  3.2039 -3.5501
  200MOL0     H26942   1.954   9.784   1.758 -1.4206 -0.0505  4.9334
  200MOL0     H26943   1.827   9.819   1.937  1.8744 -0.4968  0.4256
  200MOL0     H26944   1.690   9.723   1.870  0.1349  1.0654  0.7327
  200MOL0     H26945   1.860   9.529   1.851  1.2928 -0.5002  0.1958
  200MOL0     H26946   1.982   9.630   1.928  0.0316  0.7517 -0.4955
  200MOL0     H26947   1.792   9.615   2.133  0.4966 -2.3294  2.1314
  200MOL0     H26948   1.913   9.491   2.109  1.0722 -1.8091 -1.7081
  200MOL0     H26949   1.755   9.345   2.036 -0.1195 -0.7158 -0.0858
  200MOL0     H26950   1.647   9.438   2.145 -0.9881 -0.3497 -1.7786
  200MOL0     H26951   1.634   9.343   1.799  1.1860  0.2672  1.3397
  200MOL0     H26952   1.314   9.393   1.698 -0.1661  0.9121  1.1105
  200MOL0     H26953   1.363   9.537   1.609 -1.0737 -0.7260 -0.1530
  200MOL0     H26954   1.536   9.290   1.604  1.6972  0.6848 -0.8274
  200MOL0     H26955   1.429   9.357   1.479 -1.0856  1.5165  0.1801
  200MOL0     H26956   1.687   9.486   1.596  0.5291  0.2972 -0.2102
  200MOL0     H26957   1.566   9.567   1.509 -2.7226 -1.5276 -0.7860
  200MOL0     H26958   1.746   9.469   1.335  1.3446 -0.3177  2.1586
  200MOL0     H26959   1.612   9.366   1.329 -2.2249  1.8980 -0.0550
  200MOL0     H26960   1.963   9.464   1.412 -1.3271 -0.7680 -0.3192
  200MOL0     H26961   2.130   9.509   1.634  2.1537 -2.2186  2.0400
  200MOL0     H26962   2.246   9.491   2.101 -0.9806  0.2969 -1.0577
  200MOL0     H26963   2.452   9.520   2.238  1.7797 -2.2076  0.3197
  200MOL0     H26964   2.861   9.512   2.040  0.2878 -0.6393 -1.1997
  200MOL0     H26965   2.792   9.663   2.022 -0.8247  0.2180  1.6450
  200MOL0     H26966   2.878   9.744   2.257 -1.8081 -2.3784  3.5507
  200MOL0     H26967   2.911   9.577   2.289  1.2319  0.3641  1.1196
  200MOL0     H26968   3.117   9.720   2.248 -0.5931 -0.1425 -0.7264
  200MOL0     H26969   3.097   9.568   2.134  2.4646  0.9229  0.6694
  200MOL0     H26970   3.043   9.854   2.082  1.4454 -0.4025  0.3175
  200MOL0     H26971   3.032   9.716   1.970  3.2948 -1.7975 -0.5874
  200MOL0     H26972   3.280   9.806   2.093 -2.8853 -1.4958  1.9836
  200MOL0     H26973   3.229   9.848   1.933 -2.9618  1.2004  0.4425
  200MOL0     H26974   3.378   9.672   1.906  0.3932  1.3804 -0.0116
  200MOL0     H26975   3.295   9.556   2.026  0.6201  2.6869  1.6903
  200MOL0     H26976   3.211   9.616   1.734  0.6093 -3.1842 -2.1950
  200MOL0     H26977   3.110   9.524   1.854  0.8784 -0.3935 -0.2351
  200MOL0     H26978   3.305   9.365   1.887  1.6202  1.2936  1.3406
  200MOL0     H26979   3.241   9.374   1.723 -0.4553  2.1474 -0.6163
  200MOL0     H26980   2.702   9.476   1.891 -0.3366  1.5181  0.5718
  200MOL0     H26981   2.499   9.426   1.756 -2.7627 -0.9403  0.4977
  200MOL0     H26982   1.924   9.196   1.833 -2.3478  2.4127  0.0478
  200MOL0     H26983   1.784   9.153   1.638 -1.2432  0.1218  0.3065
  200MOL0     H26984   1.984  10.277   1.523 -0.6438  3.8124  1.8697
  200MOL0     H26985   2.098  10.491   1.462  2.9775  1.2106 -1.1163
  200MOL0     H26986   2.599  10.627   1.459  0.8172 -0.5971 -0.2617
  200MOL0     H26987   2.767  10.785   1.449  1.1096  2.2277 -1.4938
  200MOL0     H26988   2.708  11.152   1.212 -1.4283 -0.1435 -0.6788
  200MOL0     H26989   2.798  11.039   1.094 -2.0040  0.2424  0.4770
  200MOL0     H26990   3.003  11.096   1.196 -1.0904 -0.5396 -3.6774
  200MOL0     H26991   2.927  11.211   1.302 -1.6879 -0.6940 -0.2289
  200MOL0     H26992   3.003  11.236   1.016  1.6055 -1.7263  1.0964
  200MOL0     H26993   3.001  11.346   1.159 -3.4583 -1.1510  3.7759
  200MOL0     H26994   2.746  11.374   1.135  0.6821  1.6324 -0.1294
  200MOL0     H26995   2.857  11.454   1.020 -3.7463  2.1699  0.3283
  200MOL0     H26996   2.631  11.195   0.774 -0.4414 -2.2984  0.9295
  200MOL0     H26997   2.586  10.968   1.106  1.8625 -0.6779 -0.8115
  200MOL0     H26998   2.386  10.883   1.009  3.2605  0.1248  0.2487
  200MOL0     H26999   2.381  10.711   1.026  0.2011 -0.0664 -0.8168
  200MOL0     H27000   2.279  10.815   1.132  0.3932  0.1518 -1.2999
  201MOL0     O27001   6.961  11.260  10.954 -0.6430 -0.5826 -0.1092
  201MOL0     C27002   6.878  11.316  11.026 -0.3672  0.1606  0.1785
  201MOL0     O27003   6.860  11.312  11.163  0.4109  0.8571  0.0259
  201MOL0     C27004   6.962  11.253  11.233 -0.5489  0.3218 -0.4854
  201MOL0     C27005   6.935  11.136  11.298 -0.0548  0.8205  0.3864
  201MOL0     C27006   7.021  11.093  11.402  0.0542  0.8210  0.6204
  201MOL0     C27007   7.140  11.159  11.440 -0.4587  0.6381 -0.0457
  201MOL0     O27008   7.223  11.109  11.544  0.6547 -1.0792  0.4644
  201MOL0     C27009   7.159  11.037  11.650 -0.7564  0.6967 -0.2683
  201MOL0     C27010   7.042  11.108  11.722  0.1556 -0.6987 -0.0128
  201MOL0     C27011   6.994  11.020  11.847 -0.1501 -0.4337  0.2301
  201MOL0     C27012   7.073  11.079  11.978  0.4246 -0.1786  0.7419
  201MOL0     C27013   7.081  10.963  12.070  0.6682 -0.0839 -0.4252
  201MOL0     C27014   6.948  10.911  12.119  0.4427 -0.3743  0.3938
  201MOL0     C27015   6.853  11.015  12.185  0.1831  0.3220  0.2711
  201MOL0     C27016   6.921  11.086  12.301 -0.5595  0.4598 -0.3568
  201MOL0     N27017   6.978  10.995  12.401 -0.0390  0.0552  0.1149
  201MOL0     C27018   6.925  10.885  12.448  0.7617  0.0227  0.2049
  201MOL0     C27019   7.016  10.824  12.527 -0.3367 -0.1110  0.3149
  201MOL0     C27020   6.998  10.689  12.593 -0.1922 -0.3611 -0.2602
  201MOL0     C27021   6.958  10.703  12.741 -0.0777 -0.7585  0.2039
  201MOL0     C27022   7.068  10.744  12.835  0.5210 -0.3422  0.4043
  201MOL0     C27023   7.203  10.664  12.813  0.9666 -0.2251  0.6556
  201MOL0     O27024   7.174  10.524  12.823  0.4226 -0.1476  0.0888
  201MOL0     C27025   7.259  10.434  12.763  0.0518  0.8019  0.4908
  201MOL0     C27026   7.398  10.451  12.749  0.0306 -0.3529  0.5103
  201MOL0     C27027   7.475  10.343  12.710  0.1395 -0.4973  0.2444
  201MOL0     C27028   7.426  10.216  12.693  0.5985  0.3504 -0.3214
  201MOL0     C27029   7.529  10.123  12.648  0.4663  0.0763  0.3617
  201MOL0     O27030   7.477   9.996  12.633 -0.0604  0.8980  0.2005
  201MOL0     C27031   7.565   9.894  12.621 -0.7524  0.2837 -0.3614
  201MOL0     C27032   7.624   9.845  12.743  1.0064 -1.3629  0.6961
  201MOL0     C27033   7.694   9.728  12.741 -0.1435  0.5426  0.0694
  201MOL0     C27034   7.704   9.642  12.629  0.2520 -1.1085 -0.1628
  201MOL0     O27035   7.768   9.528  12.643  0.1155  0.0066  0.0441
  201MOL0     C27036   7.758   9.436  12.536  0.7842  0.1182 -0.3037
  201MOL0     C27037   7.838   9.309  12.552  0.5354  0.2684  0.9379
  201MOL0     C27038   7.785   9.194  12.461 -0.0449  0.2079  0.1489
  201MOL0     C27039   7.897   9.072  12.454 -0.2432 -0.6340 -0.1047
  201MOL0     C27040   7.848   8.975  12.341  0.1699  0.0657 -0.4688
  201MOL0     C27041   7.956   8.870  12.322  0.3256 -0.1644 -0.2993
  201MOL0     C27042   7.900   8.756  12.237 -0.3201  0.0027  1.1240
  201MOL0     C27043   7.860   8.788  12.090  0.2247 -0.1088  0.0592
  201MOL0    Cl27044   7.736   8.686  12.013  0.2149  0.1194 -0.3182
  201MOL0     C27045   7.637   9.694  12.515 -0.4084  0.2058  1.0733
  201MOL0     C27046   7.559   9.810  12.508  0.9610 -0.3340 -0.2535
  201MOL0     O27047   7.650  10.150  12.656  0.0679  0.1349  0.8962
  201MOL0     C27048   7.282  10.198  12.696 -0.1413  0.3663 -0.3492
  201MOL0     C27049   7.199  10.308  12.728 -0.1483 -0.6997 -0.1052
  201MOL0     N27050   7.132  10.891  12.520 -0.2161  0.1065  0.5676
  201MOL0     N27051   7.110  10.990  12.436 -0.1847  0.2908 -0.1548
  201MOL0     C27052   7.170  11.271  11.364  1.0778  0.4724  1.0744
  201MOL0     C27053   7.087  11.318  11.265 -0.0868 -0.4436  0.3456
  201MOL0     C27054   6.765  11.384  10.956 -0.5858  0.1369  0.5261
  201MOL0     C27055   6.678  11.462  11.044 -0.3925 -0.1904 -0.2331
  201MOL0     C27056   6.580  11.541  10.982  0.1792 -0.4652  0.8448
  201MOL0     C27057   6.555  11.555  10.848  0.4090 -0.1043  0.0970
  201MOL0     O27058   6.454  11.639  10.812 -0.8320  0.9107 -0.0518
  201MOL0     C27059   6.458  11.673  10.665  0.1503  0.4470 -0.7440
  201MOL0     C27060   6.383  11.810  10.646  0.4603 -0.1375 -0.1428
  201MOL0     C27061   6.252  11.795  10.582  0.7050  0.2154 -0.6418
  201MOL0     C27062   6.134  11.854  10.673 -1.1456 -0.1747  0.3930
  201MOL0     C27063   5.994  11.828  10.626 -0.3297  0.1395 -0.0522
  201MOL0     C27064   5.880  11.821  10.586 -0.6050 -0.3843  0.4890
  201MOL0     C27065   6.632  11.475  10.761  0.3230  0.0974 -0.8184
  201MOL0     C27066   6.741  11.400  10.817 -0.3881  0.8230 -0.4674
  201MOL0     C27067   6.825  11.322  10.717  0.2373 -0.8097 -0.0813
  201MOL0     H27068   6.840  11.087  11.282  0.7870  0.0059 -2.8394
  201MOL0     H27069   6.995  10.996  11.443 -0.0566 -1.0313 -3.3722
  201MOL0     H27070   7.120  10.942  11.613 -1.0259  0.6499  0.1312
  201MOL0     H27071   7.238  11.007  11.719  0.6072 -0.8645 -2.3928
  201MOL0     H27072   6.961  11.110  11.647  0.3116  1.7997 -0.2190
  201MOL0     H27073   7.058  11.211  11.756 -3.0515  0.0023 -0.2896
  201MOL0     H27074   7.029  10.916  11.846  2.1338  0.2821 -0.4635
  201MOL0     H27075   6.887  11.029  11.869  0.1687  3.7788  0.8084
  201MOL0     H27076   7.177  11.097  11.949  1.4597 -3.0501  2.3315
  201MOL0     H27077   7.031  11.174  12.013 -2.9814 -1.4469  0.5191
  201MOL0     H27078   7.148  10.895  12.017 -0.4021 -1.0908 -0.5237
  201MOL0     H27079   7.144  11.002  12.151  0.9335 -0.0883 -0.6267
  201MOL0     H27080   6.893  10.866  12.036  0.6167 -0.9950  0.6119
  201MOL0     H27081   6.970  10.829  12.188  0.1714  0.4742  1.5331
  201MOL0     H27082   6.762  10.961  12.214  0.7247 -1.3510 -1.0265
  201MOL0     H27083   6.815  11.085  12.111 -0.2154 -0.9585 -0.7698
  201MOL0     H27084   7.006  11.147  12.268 -0.0986 -1.0329 -2.0715
  201MOL0     H27085   6.840  11.138  12.352 -1.1874  0.7826 -1.6374
  201MOL0     H27086   6.823  10.851  12.442  1.2493 -1.4643  0.0167
  201MOL0     H27087   6.916  10.636  12.544  0.8408  0.5785 -3.2086
  201MOL0     H27088   7.088  10.630  12.576 -0.2216 -0.2320 -0.8828
  201MOL0     H27089   6.879  10.778  12.749 -0.8875 -1.6616  0.9336
  201MOL0     H27090   6.915  10.608  12.775 -1.4727 -0.9647 -1.9980
  201MOL0     H27091   7.026  10.744  12.936 -2.8193 -0.4575 -0.8463
  201MOL0     H27092   7.082  10.848  12.804 -3.3228  0.2606  0.2084
  201MOL0     H27093   7.282  10.700  12.880  2.6783 -2.1246 -0.2065
  201MOL0     H27094   7.246  10.692  12.716 -0.7297 -1.1715 -0.4123
  201MOL0     H27095   7.439  10.549  12.769  1.0881  0.3081 -3.9351
  201MOL0     H27096   7.577  10.380  12.704 -0.0578  0.4560  1.9323
  201MOL0     H27097   7.619   9.911  12.829 -0.2674 -0.3128 -0.1252
  201MOL0     H27098   7.723   9.693  12.839  0.9610  1.0522 -0.0539
  201MOL0     H27099   7.656   9.399  12.521  2.1230 -2.7062 -4.4926
  201MOL0     H27100   7.797   9.481  12.444 -0.3866 -2.2034 -2.0591
  201MOL0     H27101   7.944   9.333  12.537  0.7296  0.6077  2.5776
  201MOL0     H27102   7.822   9.269  12.653  0.6065 -0.9411  0.4825
  201MOL0     H27103   7.697   9.147  12.505 -0.2491 -1.2105 -1.6802
  201MOL0     H27104   7.765   9.239  12.364  2.8213  0.3354 -0.4856
  201MOL0     H27105   7.891   9.023  12.551  2.3872 -1.7927 -0.4519
  201MOL0     H27106   7.999   9.107  12.436 -0.4050  0.2417  0.6302
  201MOL0     H27107   7.841   9.029  12.246  1.3608  0.5095 -0.3181
  201MOL0     H27108   7.754   8.924  12.368  0.6531 -0.3640  0.4477
  201MOL0     H27109   8.040   8.927  12.279 -0.0929  1.4932  0.9976
  201MOL0     H27110   7.983   8.823  12.417  2.1446 -1.9934 -1.6227
  201MOL0     H27111   7.818   8.721  12.301 -0.3013 -0.7518  0.7456
  201MOL0     H27112   7.981   8.683  12.234 -0.0755  0.2447  1.7443
  201MOL0     H27113   7.818   8.888  12.080  2.6779  1.1841  1.7006
  201MOL0     H27114   7.948   8.800  12.026 -0.2953  1.7481 -0.3442
  201MOL0     H27115   7.631   9.624  12.432 -0.4280 -0.6274  1.7618
  201MOL0     H27116   7.490   9.828  12.427  1.3789 -1.7215 -0.9461
  201MOL0     H27117   7.243  10.098  12.677 -3.0707  0.9788  1.8030
  201MOL0     H27118   7.091  10.304  12.731 -0.2159  0.8738  0.2210
  201MOL0     H27119   7.263  11.316  11.397  1.8987  0.8288 -1.4505
  201MOL0     H27120   7.101  11.419  11.227 -1.8353 -0.1529  0.4130
  201MOL0     H27121   6.670  11.452  11.152 -0.9997  2.2238  0.0008
  201MOL0     H27122   6.495  11.587  11.032 -2.9784  1.3013 -5.1339
  201MOL0     H27123   6.415  11.591  10.607  1.2685  0.0787 -1.0782
  201MOL0     H27124   6.556  11.672  10.618 -0.5714 -0.3271 -2.3133
  201MOL0     H27125   6.448  11.869  10.581  0.0141 -3.3198 -3.8563
  201MOL0     H27126   6.370  11.864  10.741 -1.8192 -1.5826  0.4413
  201MOL0     H27127   6.231  11.689  10.566  1.6394  0.1422 -1.4892
  201MOL0     H27128   6.260  11.858  10.493 -1.9763  1.2932 -0.2281
  201MOL0     H27129   6.157  11.811  10.771  3.6758 -1.7417 -1.1288
  201MOL0     H27130   6.156  11.960  10.687  2.9034 -0.8394  0.1215
  201MOL0     H27131   5.782  11.802  10.547  0.0991 -0.7624 -1.1413
  201MOL0     H27132   6.619  11.465  10.654 -0.8132  1.1536 -0.8038
  201MOL0     H27133   6.927  11.362  10.718 -0.0087  0.2595 -3.5585
  201MOL0     H27134   6.831  11.215  10.742  1.0805 -0.3506  1.8026
  201MOL0     H27135   6.787  11.328  10.614 -2.0691 -0.0126  0.7661
  202MOL0     O27136   4.785   7.776   7.408 -0.6586  0.1988  0.1888
  202MOL0     C27137   4.782   7.881   7.481 -0.5939 -0.1594  0.8212
  202MOL0     O27138   4.753   8.009   7.441  0.0593  0.0300  0.2454
  202MOL0     C27139   4.685   8.047   7.335  0.8028  0.7952 -0.1920
  202MOL0     C27140   4.624   7.958   7.246 -0.3223  0.2864 -0.9557
  202MOL0     C27141   4.551   8.018   7.150  0.3397 -0.7312  0.3689
  202MOL0     C27142   4.519   8.157   7.133 -0.8830  0.1965  0.5280
  202MOL0     O27143   4.446   8.204   7.022  0.4095  0.5495 -0.5716
  202MOL0     C27144   4.476   8.142   6.895 -0.7246  0.6680  0.0627
  202MOL0     C27145   4.419   8.216   6.779 -0.0023  0.3712 -0.1550
  202MOL0     C27146   4.452   8.156   6.644  0.1290  0.8843 -0.8904
  202MOL0     C27147   4.600   8.154   6.601  0.2008 -0.4566  0.0841
  202MOL0     C27148   4.615   8.121   6.456  0.9963 -0.0248 -1.1682
  202MOL0     C27149   4.753   8.128   6.408 -1.3587 -0.0407 -0.0075
  202MOL0     C27150   4.763   8.170   6.256 -0.0328  0.3942  0.0108
  202MOL0     C27151   4.895   8.164   6.198  0.4026 -0.0162 -0.0221
  202MOL0     N27152   4.976   8.267   6.258  0.4073  1.1192  0.1639
  202MOL0     C27153   5.062   8.242   6.359  0.0448 -0.1497 -0.1854
  202MOL0     C27154   5.132   8.357   6.374  0.0543  0.6323 -0.6603
  202MOL0     C27155   5.229   8.379   6.490  0.0102 -0.5067  0.5248
  202MOL0     C27156   5.172   8.475   6.600  0.3790  1.0324 -0.0289
  202MOL0     C27157   5.122   8.608   6.550 -0.0856 -0.1582 -0.0275
  202MOL0     C27158   5.095   8.713   6.659 -0.4286  0.1671 -0.2923
  202MOL0     O27159   5.023   8.830   6.619 -0.0993  0.2416  0.0343
  202MOL0     C27160   5.087   8.948   6.629 -0.1150 -0.0761 -0.4592
  202MOL0     C27161   5.088   9.021   6.748  0.5451 -0.0203  0.7894
  202MOL0     C27162   5.164   9.139   6.752  0.0222  0.0327  0.3840
  202MOL0     C27163   5.226   9.196   6.641  0.2363  0.8402  0.2516
  202MOL0     C27164   5.313   9.310   6.665  0.3709 -0.2657  0.4800
  202MOL0     O27165   5.309   9.382   6.779 -0.7631  0.3590  0.2022
  202MOL0     C27166   5.407   9.484   6.780  0.3780  0.1991  0.9657
  202MOL0     C27167   5.365   9.620   6.750  0.1702 -0.7144 -0.4314
  202MOL0     C27168   5.452   9.729   6.758 -0.4665  0.6742  0.1760
  202MOL0     C27169   5.583   9.702   6.800  0.9987  0.6119 -1.0392
  202MOL0     O27170   5.668   9.805   6.843 -0.5297  0.0523  0.2910
  202MOL0     C27171   5.626   9.932   6.832 -0.1822 -0.5357  0.0847
  202MOL0     C27172   5.713  10.019   6.912  0.3339 -0.4572 -0.2472
  202MOL0     C27173   5.701  10.016   7.069 -0.1736  0.3199  0.5726
  202MOL0     C27174   5.795  10.113   7.129  0.1422 -0.0512 -0.1502
  202MOL0     C27175   5.941  10.075   7.103  0.1228 -0.5449  0.1218
  202MOL0     C27176   5.973   9.927   7.126  0.6857  0.2633 -0.3583
  202MOL0     C27177   6.130   9.899   7.101  1.0532 -0.7768  0.0274
  202MOL0     C27178   6.173   9.751   7.109  1.0900 -0.3426  0.3518
  202MOL0    Cl27179   6.062   9.658   7.020  0.0454  0.0319 -0.0133
  202MOL0     C27180   5.619   9.575   6.835  0.3448 -0.1031 -0.7407
  202MOL0     C27181   5.529   9.468   6.829  0.1961  1.6390  0.7513
  202MOL0     O27182   5.385   9.332   6.566  0.1527  0.1128  0.1753
  202MOL0     C27183   5.224   9.119   6.516  0.0212  0.2396 -0.2655
  202MOL0     C27184   5.145   9.007   6.517  0.2939 -0.0824 -0.0757
  202MOL0     N27185   5.079   8.452   6.294  0.0499  0.8241  0.5549
  202MOL0     N27186   4.990   8.393   6.216 -0.4392 -0.8274  1.1573
  202MOL0     C27187   4.584   8.247   7.225  0.1225  0.1823 -0.4198
  202MOL0     C27188   4.663   8.187   7.331  0.4518  1.4157  0.2156
  202MOL0     C27189   4.832   7.860   7.610 -1.5789 -0.1161 -0.3765
  202MOL0     C27190   4.866   7.726   7.637 -0.4768  0.7284  0.1606
  202MOL0     C27191   4.932   7.690   7.752 -0.2354  0.0311  0.1507
  202MOL0     C27192   4.959   7.792   7.852 -0.5572  0.9461  0.1139
  202MOL0     O27193   5.027   7.768   7.969 -0.2597  0.0980  0.6593
  202MOL0     C27194   5.127   7.663   7.960 -1.0967 -0.6420 -0.6784
  202MOL0     C27195   5.203   7.642   8.089  0.8203 -0.3842  0.1643
  202MOL0     C27196   5.115   7.618   8.217 -0.7114 -0.1408  0.9102
  202MOL0     C27197   5.183   7.518   8.316  0.5803 -0.0592 -0.5574
  202MOL0     C27198   5.317   7.567   8.362 -0.1383  0.1435  0.2861
  202MOL0     C27199   5.435   7.602   8.382  0.0379 -0.1370 -0.1254
  202MOL0     C27200   4.920   7.921   7.834 -0.3435 -1.2271 -0.0681
  202MOL0     C27201   4.871   7.962   7.710 -0.4769 -0.0006 -0.4691
  202MOL0     C27202   4.858   8.103   7.683 -0.0592 -0.6936  0.3435
  202MOL0     H27203   4.640   7.851   7.248  2.5191  0.6450 -0.7277
  202MOL0     H27204   4.516   7.946   7.077  1.9482 -0.2448 -0.9336
  202MOL0     H27205   4.585   8.139   6.880 -0.4918 -1.1366  1.7449
  202MOL0     H27206   4.440   8.039   6.886 -0.1709  0.5999 -1.8613
  202MOL0     H27207   4.464   8.316   6.784  0.1286  0.5439 -3.0149
  202MOL0     H27208   4.312   8.236   6.780 -0.0424  0.2392  1.7315
  202MOL0     H27209   4.415   8.215   6.559 -0.3215  3.2327  0.8294
  202MOL0     H27210   4.403   8.059   6.640  0.0147  0.6958  2.3796
  202MOL0     H27211   4.653   8.249   6.615 -2.9298  1.8042 -2.0844
  202MOL0     H27212   4.655   8.085   6.666 -0.8372 -0.1616  1.3161
  202MOL0     H27213   4.568   8.024   6.436 -0.7850  0.3034  1.0285
  202MOL0     H27214   4.558   8.195   6.399  3.2138  0.6716 -2.6228
  202MOL0     H27215   4.800   8.198   6.478  4.1912 -1.7564 -1.5143
  202MOL0     H27216   4.803   8.030   6.415 -0.4228  0.4370  0.1194
  202MOL0     H27217   4.716   8.267   6.238 -3.5514 -1.0411  0.6012
  202MOL0     H27218   4.707   8.092   6.204 -0.4180 -0.9865  2.3176
  202MOL0     H27219   4.934   8.063   6.215 -1.4451 -0.3950  2.4334
  202MOL0     H27220   4.876   8.176   6.091  0.8067  0.3826 -0.0536
  202MOL0     H27221   5.077   8.154   6.422  0.4816 -1.0224 -1.4726
  202MOL0     H27222   5.253   8.281   6.531  1.6107  0.3201  1.6601
  202MOL0     H27223   5.328   8.417   6.464  1.0618 -3.1525  0.3757
  202MOL0     H27224   5.101   8.420   6.663 -0.4923  1.0977 -0.9279
  202MOL0     H27225   5.251   8.489   6.675 -0.5325 -1.4079  1.4974
  202MOL0     H27226   5.028   8.595   6.495  0.0801  1.1823 -0.6658
  202MOL0     H27227   5.194   8.642   6.476  0.4149 -2.2391 -0.5686
  202MOL0     H27228   5.187   8.754   6.702 -2.1844  5.5791 -1.0139
  202MOL0     H27229   5.040   8.670   6.743 -0.7745  0.9770 -0.0990
  202MOL0     H27230   5.052   8.991   6.846 -2.1755 -0.8482 -0.3646
  202MOL0     H27231   5.176   9.189   6.848  0.2889  2.5020 -0.8432
  202MOL0     H27232   5.265   9.620   6.708 -0.8019  0.6151  1.7316
  202MOL0     H27233   5.415   9.827   6.732 -4.6082 -0.8124 -0.2480
  202MOL0     H27234   5.625   9.964   6.727 -1.7836  0.6584  0.4300
  202MOL0     H27235   5.525   9.947   6.871 -1.3722 -2.1417 -2.1428
  202MOL0     H27236   5.819  10.006   6.886  1.2700  4.4114  0.0844
  202MOL0     H27237   5.686  10.119   6.876  1.6837  0.5420  1.3045
  202MOL0     H27238   5.597  10.047   7.084  0.0411  1.1888  0.3488
  202MOL0     H27239   5.717   9.918   7.114 -0.0434 -0.6768 -1.5434
  202MOL0     H27240   5.781  10.113   7.238  0.6770  1.5829 -0.0396
  202MOL0     H27241   5.771  10.213   7.089  2.7896  0.9000  0.4492
  202MOL0     H27242   5.995  10.139   7.174 -1.2381  1.4523 -0.5635
  202MOL0     H27243   5.971  10.106   7.003 -0.0373 -0.1718  0.1887
  202MOL0     H27244   5.946   9.898   7.228  1.4023 -1.1299 -0.5433
  202MOL0     H27245   5.909   9.859   7.069 -2.3914  2.4669  0.2677
  202MOL0     H27246   6.194   9.956   7.169 -2.2198 -0.7278  3.3607
  202MOL0     H27247   6.148   9.935   6.999 -0.4316 -1.0395 -0.3509
  202MOL0     H27248   6.269   9.731   7.061  0.5021  0.1797 -1.1197
  202MOL0     H27249   6.171   9.714   7.212 -4.4920 -2.3291 -0.1286
  202MOL0     H27250   5.710   9.551   6.888  0.3114  0.6920 -0.3080
  202MOL0     H27251   5.548   9.368   6.867 -1.2320  1.5387  1.2567
  202MOL0     H27252   5.272   9.155   6.426 -1.0601  0.6960 -0.6640
  202MOL0     H27253   5.150   8.956   6.422  3.1789  0.7780 -0.4911
  202MOL0     H27254   4.572   8.355   7.224 -1.2820  0.1146  1.8272
  202MOL0     H27255   4.709   8.249   7.407  0.2063  1.6113  0.2039
  202MOL0     H27256   4.841   7.638   7.579 -2.1735  0.3961  1.3201
  202MOL0     H27257   4.952   7.589   7.786 -1.2113 -0.1615  0.1867
  202MOL0     H27258   5.200   7.696   7.886  2.1273  0.4203  2.6781
  202MOL0     H27259   5.077   7.568   7.939 -0.1814 -0.9534 -1.4972
  202MOL0     H27260   5.276   7.723   8.105 -0.5286  1.0682 -0.7931
  202MOL0     H27261   5.249   7.544   8.070  3.2314  0.7414 -0.2559
  202MOL0     H27262   5.012   7.592   8.188 -0.3167 -1.5012  0.6750
  202MOL0     H27263   5.111   7.713   8.271 -0.1770  1.6263 -1.9447
  202MOL0     H27264   5.118   7.522   8.404  1.4427  2.0567  0.0320
  202MOL0     H27265   5.197   7.413   8.287  3.7052 -1.2479  4.1265
  202MOL0     H27266   5.537   7.603   8.415  0.2176  1.1859 -0.6635
  202MOL0     H27267   4.944   7.993   7.912 -2.0415  2.3266 -2.5606
  202MOL0     H27268   4.882   8.158   7.774 -0.1615 -1.1929  0.6815
  202MOL0     H27269   4.915   8.135   7.595  0.5942 -1.5365  0.4450
  202MOL0     H27270   4.755   8.137   7.668 -0.5562 -2.6832 -1.4651
  203MOL0     O27271   6.069   1.804   5.529  0.4800  0.0404  0.0884
  203MOL0     C27272   6.167   1.746   5.486 -0.7013  1.7301  0.2880
  203MOL0     O27273   6.271   1.690   5.559  0.2713 -0.0787 -0.1986
  203MOL0     C27274   6.283   1.722   5.682  0.5716 -1.6473  0.3922
  203MOL0     C27275   6.234   1.633   5.786 -0.1089  0.4245  0.0988
  203MOL0     C27276   6.250   1.655   5.919 -0.1092  0.4879  0.1837
  203MOL0     C27277   6.298   1.778   5.963  0.5577 -0.4740 -0.6688
  203MOL0     O27278   6.316   1.806   6.097  0.2382 -0.1926 -0.0354
  203MOL0     C27279   6.378   1.929   6.139 -0.5219  0.1309 -0.5628
  203MOL0     C27280   6.424   1.903   6.282  0.3015 -0.4349 -0.2467
  203MOL0     C27281   6.308   1.898   6.380  1.1004 -0.1111  0.4548
  203MOL0     C27282   6.338   1.818   6.511 -0.2482 -0.2373 -0.6820
  203MOL0     C27283   6.449   1.880   6.590 -0.4973  0.1840 -0.6394
  203MOL0     C27284   6.452   1.847   6.746 -0.0737  0.3132 -0.0105
  203MOL0     C27285   6.491   1.710   6.774 -0.9780  0.6278  0.0806
  203MOL0     C27286   6.646   1.694   6.767 -0.9516 -0.0645  0.3580
  203MOL0     N27287   6.686   1.552   6.801 -0.4839 -0.0769 -0.1069
  203MOL0     C27288   6.685   1.451   6.716  1.0381 -0.9268 -0.2528
  203MOL0     C27289   6.728   1.341   6.768  0.4675  0.4029  0.0188
  203MOL0     C27290   6.732   1.198   6.709 -1.0108 -0.2782  0.6879
  203MOL0     C27291   6.869   1.142   6.715 -0.2700  0.2149 -0.5615
  203MOL0     C27292   6.889   1.003   6.669  0.4076  0.2111 -0.6280
  203MOL0     C27293   6.823   0.970   6.536 -0.1316  0.2827 -0.0225
  203MOL0     O27294   6.682   0.939   6.556  0.0077  0.1511  0.2082
  203MOL0     C27295   6.645   0.821   6.609  0.1512 -0.4828 -0.7981
  203MOL0     C27296   6.536   0.815   6.698  0.4210  0.0100  0.7941
  203MOL0     C27297   6.484   0.687   6.728 -0.7911  0.2027 -1.2350
  203MOL0     C27298   6.549   0.574   6.696 -0.1378  0.9830  0.4197
  203MOL0     C27299   6.502   0.444   6.731 -0.8312 -0.4820  0.0972
  203MOL0     O27300   6.596   0.347   6.741 -0.2086  0.1567 -0.7314
  203MOL0     C27301   6.542   0.225   6.770  0.1485  0.7522  1.0412
  203MOL0     C27302   6.515   0.185   6.902 -0.1341 -0.0995 -1.0163
  203MOL0     C27303   6.436   0.074   6.922  1.3690  0.8813  1.6267
  203MOL0     C27304   6.410  -0.028   6.825 -0.2555 -0.1065  1.0491
  203MOL0     O27305   6.350  -0.149   6.856 -0.9014  0.3278 -0.0378
  203MOL0     C27306   6.379  -0.212   6.978 -0.4576  0.4337 -0.3559
  203MOL0     C27307   6.338  -0.356   6.974 -0.8242 -0.5941 -0.4855
  203MOL0     C27308   6.439  -0.449   6.900 -0.2094  0.7864  0.2540
  203MOL0     C27309   6.388  -0.588   6.870  0.3241 -0.1483  0.2733
  203MOL0     C27310   6.509  -0.684   6.858  0.7258  0.5859  0.9803
  203MOL0     C27311   6.457  -0.821   6.811 -0.4249  0.0642  0.2468
  203MOL0     C27312   6.541  -0.932   6.877 -0.7204 -0.1910  0.0258
  203MOL0     C27313   6.486  -1.074   6.854  0.4294  0.1808  0.5254
  203MOL0    Cl27314   6.366  -1.113   6.988  0.1609 -0.1495  0.4653
  203MOL0     C27315   6.443   0.011   6.690 -0.7021  0.1367 -0.4281
  203MOL0     C27316   6.502   0.139   6.659 -0.8068  0.5458  0.1047
  203MOL0     O27317   6.379   0.418   6.736 -0.0509 -0.7467 -0.1685
  203MOL0     C27318   6.668   0.574   6.624  0.1066 -0.7269  0.7200
  203MOL0     C27319   6.708   0.701   6.581  0.4336 -0.3353  0.3720
  203MOL0     N27320   6.767   1.376   6.898  0.7898  0.5932 -0.2294
  203MOL0     N27321   6.740   1.512   6.911  0.2283  0.2806 -0.4082
  203MOL0     C27322   6.336   1.871   5.862  0.6288 -0.2230  0.9460
  203MOL0     C27323   6.333   1.845   5.724 -0.4282 -0.0589 -0.6191
  203MOL0     C27324   6.175   1.727   5.337  0.2871 -0.5344 -0.2244
  203MOL0     C27325   6.212   1.606   5.282 -0.6164  0.2666 -0.3716
  203MOL0     C27326   6.207   1.580   5.145  0.8029  0.7111  0.0843
  203MOL0     C27327   6.132   1.657   5.056  1.0392  0.6703  0.7238
  203MOL0     O27328   6.123   1.619   4.923 -0.8786  0.5237  0.5236
  203MOL0     C27329   5.988   1.627   4.866  0.6603 -0.0878  0.2153
  203MOL0     C27330   5.951   1.487   4.836  0.9778  0.7395  0.2498
  203MOL0     C27331   6.047   1.433   4.721  0.1741  0.5967  0.4758
  203MOL0     C27332   5.991   1.456   4.585 -0.9021  0.2052 -0.0084
  203MOL0     C27333   6.045   1.359   4.490  0.3425 -0.5037  0.4275
  203MOL0     C27334   6.086   1.286   4.395 -0.4763 -0.5234  0.0751
  203MOL0     C27335   6.096   1.781   5.111 -0.6840  1.0024  0.5996
  203MOL0     C27336   6.118   1.817   5.243 -1.5026 -0.8359  0.5967
  203MOL0     C27337   6.076   1.963   5.271  0.1527  0.1209 -0.4778
  203MOL0     H27338   6.201   1.534   5.757  0.3292  0.7757 -1.6813
  203MOL0     H27339   6.218   1.582   5.992 -0.7995  1.1517  0.5634
  203MOL0     H27340   6.460   1.956   6.073  0.1196  0.0373  0.1856
  203MOL0     H27341   6.312   2.017   6.132 -0.1564  0.4762  0.1450
  203MOL0     H27342   6.473   1.994   6.318 -1.5788  0.1011  1.1178
  203MOL0     H27343   6.490   1.816   6.271  1.7352  0.7887 -1.9863
  203MOL0     H27344   6.218   1.860   6.330  0.3324  0.1459  1.6082
  203MOL0     H27345   6.275   1.996   6.415 -2.7118 -1.1083  0.0604
  203MOL0     H27346   6.250   1.808   6.576  1.3415 -3.1106  1.2231
  203MOL0     H27347   6.376   1.719   6.484  1.5685  0.3669 -0.4417
  203MOL0     H27348   6.538   1.838   6.543 -1.6464 -3.7446  0.3165
  203MOL0     H27349   6.452   1.989   6.590  2.6609  0.2025  0.0251
  203MOL0     H27350   6.523   1.916   6.792 -0.5396  0.3743  0.6345
  203MOL0     H27351   6.354   1.877   6.783  1.2691  5.2214  0.2166
  203MOL0     H27352   6.440   1.645   6.702  0.8896  0.3647 -1.0614
  203MOL0     H27353   6.453   1.684   6.873 -3.0513  1.7441 -0.3662
  203MOL0     H27354   6.691   1.717   6.670  0.0892  0.7774  1.0130
  203MOL0     H27355   6.696   1.766   6.833  0.4101 -0.7720  0.1421
  203MOL0     H27356   6.658   1.476   6.613 -1.7428  2.7396  1.1504
  203MOL0     H27357   6.664   1.140   6.771 -2.7657 -0.3869 -1.2074
  203MOL0     H27358   6.689   1.204   6.608  1.7044  2.5424 -0.4512
  203MOL0     H27359   6.938   1.206   6.659  0.8257  0.5741  1.1024
  203MOL0     H27360   6.909   1.150   6.817  0.3953 -1.0358 -0.7068
  203MOL0     H27361   6.850   0.934   6.745  1.3612  1.6484  1.2445
  203MOL0     H27362   6.997   0.998   6.656  1.1619 -6.9655  3.0666
  203MOL0     H27363   6.883   0.884   6.506 -0.3861  0.3958 -0.8671
  203MOL0     H27364   6.848   1.046   6.462  2.2545 -1.1131 -0.7651
  203MOL0     H27365   6.484   0.901   6.738  0.9771  0.2715  0.9696
  203MOL0     H27366   6.400   0.672   6.796  0.8590  0.3490  0.9414
  203MOL0     H27367   6.526   0.256   6.983  2.5773  0.5157 -1.8228
  203MOL0     H27368   6.398   0.058   7.023  2.6309 -0.4349  1.9200
  203MOL0     H27369   6.483  -0.218   7.012 -1.2487 -2.6351  1.8901
  203MOL0     H27370   6.309  -0.170   7.051 -2.7784 -1.7984 -1.1437
  203MOL0     H27371   6.339  -0.399   7.074  2.9432  0.9645  0.3070
  203MOL0     H27372   6.235  -0.361   6.936 -1.8696 -1.7534  2.2535
  203MOL0     H27373   6.467  -0.402   6.805  0.1547 -0.5384 -0.3125
  203MOL0     H27374   6.530  -0.458   6.959 -2.2249  0.0948  3.4831
  203MOL0     H27375   6.321  -0.588   6.784 -0.0439 -0.1453  0.5539
  203MOL0     H27376   6.324  -0.623   6.952 -2.5324  1.6745 -1.0253
  203MOL0     H27377   6.547  -0.704   6.958 -0.5159  1.4925  1.6550
  203MOL0     H27378   6.589  -0.651   6.790 -1.7629  5.0137 -0.1576
  203MOL0     H27379   6.351  -0.821   6.834 -0.7082  1.9770 -0.8461
  203MOL0     H27380   6.459  -0.837   6.703 -0.2590  0.1387  0.2386
  203MOL0     H27381   6.557  -0.911   6.983  1.7898 -0.9023 -0.1462
  203MOL0     H27382   6.638  -0.929   6.826  0.1933 -0.8630  1.6476
  203MOL0     H27383   6.430  -1.083   6.761  0.8759  1.9166  0.0577
  203MOL0     H27384   6.573  -1.140   6.859  0.6894  0.5096  0.3027
  203MOL0     H27385   6.429  -0.069   6.617 -0.5687 -1.8760  1.6591
  203MOL0     H27386   6.520   0.173   6.558 -2.8341  3.3311  0.5586
  203MOL0     H27387   6.709   0.480   6.588 -0.6155 -0.6767 -0.2793
  203MOL0     H27388   6.789   0.695   6.509 -1.2733  0.7667 -1.7266
  203MOL0     H27389   6.354   1.976   5.880 -4.2016  1.8601 -3.6871
  203MOL0     H27390   6.361   1.929   5.661  1.2760  0.0737  0.2338
  203MOL0     H27391   6.262   1.548   5.359  1.8795  2.5256 -0.1275
  203MOL0     H27392   6.255   1.486   5.123 -1.5799 -1.0048  1.6989
  203MOL0     H27393   5.986   1.682   4.772 -0.7978  2.4104  1.5951
  203MOL0     H27394   5.913   1.690   4.915  0.0240  0.2358 -1.1446
  203MOL0     H27395   5.849   1.491   4.798  0.4203 -0.8594  1.4688
  203MOL0     H27396   5.947   1.419   4.922  2.7247 -0.3010 -0.4243
  203MOL0     H27397   6.060   1.325   4.736  1.0328  0.4523 -1.0425
  203MOL0     H27398   6.148   1.476   4.722 -0.6086  2.4948  1.7537
  203MOL0     H27399   5.882   1.456   4.579 -0.8374 -1.0481 -2.1775
  203MOL0     H27400   6.031   1.555   4.560  0.7463  0.0923  1.8868
  203MOL0     H27401   6.124   1.227   4.314 -1.8669 -1.1511 -0.1599
  203MOL0     H27402   6.050   1.848   5.038 -2.8317 -2.4692 -1.5404
  203MOL0     H27403   6.131   2.017   5.349 -0.3600 -1.4746  1.0562
  203MOL0     H27404   6.075   2.019   5.177 -3.2608 -0.6113 -1.0294
  203MOL0     H27405   5.973   1.966   5.309 -0.0133  0.1931 -0.9215
  204MOL0     O27406   2.327   8.223   6.387 -0.4230 -0.0735  0.3765
  204MOL0     C27407   2.411   8.305   6.348 -1.2873  0.4496  0.9252
  204MOL0     O27408   2.520   8.283   6.271  0.0691 -0.7495  0.1595
  204MOL0     C27409   2.558   8.150   6.257 -0.5505 -1.0348  0.4228
  204MOL0     C27410   2.490   8.066   6.177  0.9652 -0.1567  0.2207
  204MOL0     C27411   2.535   7.935   6.153  0.3422 -0.2399  0.0480
  204MOL0     C27412   2.642   7.885   6.229  0.1500 -0.0926  0.2909
  204MOL0     O27413   2.656   7.742   6.214 -0.5530  0.2734 -0.6398
  204MOL0     C27414   2.777   7.679   6.264  0.6487 -0.6302  0.5797
  204MOL0     C27415   2.781   7.533   6.226  0.0771  0.0601 -0.0506
  204MOL0     C27416   2.696   7.448   6.324 -0.0387 -0.6415  0.6806
  204MOL0     C27417   2.677   7.308   6.282  0.0145 -0.4056  0.1336
  204MOL0     C27418   2.591   7.216   6.378  1.0209  0.4830  0.0583
  204MOL0     C27419   2.544   7.089   6.313  0.5683 -0.2336  0.0709
  204MOL0     C27420   2.419   7.105   6.229  0.2301  0.4488  0.7065
  204MOL0     C27421   2.296   7.131   6.307 -0.4236  0.1424  0.9761
  204MOL0     N27422   2.190   7.137   6.208 -0.7876 -0.7230 -0.6753
  204MOL0     C27423   2.190   7.140   6.069 -0.2819 -1.7949  0.1259
  204MOL0     C27424   2.058   7.142   6.034  0.2020  0.3837  0.8934
  204MOL0     C27425   2.018   7.126   5.889 -0.1373  0.3460  0.2882
  204MOL0     C27426   1.997   7.262   5.819  0.3875  0.0264  1.2298
  204MOL0     C27427   1.967   7.248   5.673  0.4557  1.1335  0.1170
  204MOL0     C27428   1.965   7.385   5.602  0.1248  0.8151 -0.8378
  204MOL0     O27429   1.874   7.364   5.489 -0.3081  0.1723  0.7448
  204MOL0     C27430   1.913   7.339   5.357 -0.6405  0.8816 -0.0902
  204MOL0     C27431   1.822   7.273   5.281  0.6419  0.6640  0.7484
  204MOL0     C27432   1.858   7.252   5.139 -0.3137 -0.0264 -1.2892
  204MOL0     C27433   1.994   7.278   5.082 -0.2186  0.3400  0.3777
  204MOL0     C27434   2.029   7.256   4.942 -0.5501 -0.3161  0.2190
  204MOL0     O27435   2.152   7.298   4.898 -0.1833  0.5415  0.6808
  204MOL0     C27436   2.192   7.260   4.768  0.2324 -0.6863  0.8425
  204MOL0     C27437   2.225   7.366   4.681  0.6481  0.1292 -0.1745
  204MOL0     C27438   2.278   7.331   4.566  0.0655 -0.0988 -0.3068
  204MOL0     C27439   2.287   7.200   4.515  0.3085  0.0388 -0.2305
  204MOL0     O27440   2.348   7.180   4.391 -0.0031  0.7835  0.5948
  204MOL0     C27441   2.421   7.059   4.380 -0.1104 -0.6186  0.6358
  204MOL0     C27442   2.460   7.066   4.229 -0.8706 -0.0012 -0.0751
  204MOL0     C27443   2.339   7.026   4.150  0.5830  0.5095  0.5435
  204MOL0     C27444   2.324   6.871   4.149 -0.6500 -0.2545  0.3181
  204MOL0     C27445   2.175   6.829   4.142  0.0646  0.6006  0.2765
  204MOL0     C27446   2.173   6.677   4.095 -0.3654 -0.6108 -0.5348
  204MOL0     C27447   2.272   6.589   4.166  0.3089 -0.6264 -0.2312
  204MOL0     C27448   2.235   6.437   4.159  0.0383  0.3893  0.9525
  204MOL0    Cl27449   2.228   6.375   3.981 -0.3459 -0.5263 -0.0104
  204MOL0     C27450   2.236   7.099   4.591 -0.2587 -0.4823 -0.0409
  204MOL0     C27451   2.198   7.122   4.722 -0.3435 -1.4056 -0.5870
  204MOL0     O27452   1.943   7.211   4.863  0.3171  0.6568 -0.5158
  204MOL0     C27453   2.086   7.332   5.175 -0.0989 -0.2072 -0.6935
  204MOL0     C27454   2.044   7.366   5.305  0.7160  0.7560  0.0314
  204MOL0     N27455   1.985   7.155   6.146 -1.0473  0.7105  0.1869
  204MOL0     N27456   2.059   7.143   6.249 -0.0020  0.6248 -1.0172
  204MOL0     C27457   2.704   7.965   6.323  1.1328  0.3356  0.2447
  204MOL0     C27458   2.670   8.102   6.333  0.6139 -0.7007  0.4434
  204MOL0     C27459   2.387   8.450   6.367  0.4751  0.3059  0.8878
  204MOL0     C27460   2.401   8.534   6.255 -0.2530  0.3692  0.1491
  204MOL0     C27461   2.401   8.667   6.260  0.8265  0.3152  0.5140
  204MOL0     C27462   2.373   8.726   6.380 -0.3329  0.7895 -0.4784
  204MOL0     O27463   2.351   8.860   6.394 -0.2597 -0.4889  0.5032
  204MOL0     C27464   2.362   8.960   6.282  0.6508  0.7733 -1.1348
  204MOL0     C27465   2.327   9.103   6.335  0.9284  0.3276 -0.0666
  204MOL0     C27466   2.409   9.138   6.461 -0.7579  0.0733 -0.1468
  204MOL0     C27467   2.567   9.135   6.451  0.3526 -0.3309  0.0740
  204MOL0     C27468   2.630   9.232   6.365  0.2741 -1.1888  0.7484
  204MOL0     C27469   2.693   9.304   6.287  0.5499 -0.8436 -0.0220
  204MOL0     C27470   2.370   8.651   6.502  0.3730 -0.1274  0.5177
  204MOL0     C27471   2.372   8.509   6.494 -0.1807 -0.5505  0.0286
  204MOL0     C27472   2.353   8.425   6.624 -0.4527 -0.6758  0.6466
  204MOL0     H27473   2.399   8.104   6.133 -0.5497 -0.8990  2.5121
  204MOL0     H27474   2.472   7.894   6.075 -0.7371  2.8552 -0.8820
  204MOL0     H27475   2.866   7.733   6.229 -0.1846 -0.0702 -0.7472
  204MOL0     H27476   2.770   7.678   6.373  0.5775  1.3663  0.6320
  204MOL0     H27477   2.879   7.486   6.240  0.1588 -0.2978 -1.5741
  204MOL0     H27478   2.754   7.522   6.120  0.5058  1.2444 -0.2916
  204MOL0     H27479   2.603   7.504   6.337  1.0983  2.2276 -2.0058
  204MOL0     H27480   2.764   7.433   6.408 -0.0079  0.4514  0.8706
  204MOL0     H27481   2.629   7.327   6.186  2.9080  1.3169 -1.0720
  204MOL0     H27482   2.772   7.260   6.256  0.2642 -0.3624  0.9452
  204MOL0     H27483   2.658   7.178   6.456  1.1832  1.0524  0.2017
  204MOL0     H27484   2.506   7.267   6.426 -0.6739 -0.9579 -1.2572
  204MOL0     H27485   2.626   7.044   6.257 -0.7531  0.3179 -2.4623
  204MOL0     H27486   2.520   7.024   6.398 -2.7690  1.2867  0.4567
  204MOL0     H27487   2.393   7.010   6.182  1.7728 -2.1926  4.6512
  204MOL0     H27488   2.441   7.178   6.152 -1.8671  2.4156  1.8461
  204MOL0     H27489   2.275   7.043   6.370  0.7358  0.3575  1.6958
  204MOL0     H27490   2.291   7.220   6.371 -3.0082  3.2751 -3.1337
  204MOL0     H27491   2.276   7.131   6.004 -1.8683 -0.7547 -2.2949
  204MOL0     H27492   2.102   7.081   5.835  1.7754  2.6440  1.2062
  204MOL0     H27493   1.937   7.052   5.886  0.1293 -0.0272  1.7805
  204MOL0     H27494   1.925   7.332   5.861  1.1953  2.9585 -1.8341
  204MOL0     H27495   2.084   7.328   5.819 -1.2445  2.8022 -4.1014
  204MOL0     H27496   1.870   7.196   5.669  2.0183 -2.2956  2.0817
  204MOL0     H27497   2.030   7.180   5.613 -0.9899  0.4000 -0.6273
  204MOL0     H27498   2.065   7.424   5.583  0.9413  1.2843  3.4215
  204MOL0     H27499   1.916   7.457   5.668 -0.4490  1.0458 -1.5044
  204MOL0     H27500   1.723   7.237   5.306 -0.0159  1.5360 -0.5181
  204MOL0     H27501   1.782   7.205   5.078 -0.4618  0.6580 -1.6382
  204MOL0     H27502   2.219   7.468   4.717 -1.0585  1.0826 -2.8760
  204MOL0     H27503   2.315   7.411   4.503 -2.1647  1.0558 -0.2620
  204MOL0     H27504   2.511   7.059   4.444 -0.0637  2.3177  0.6917
  204MOL0     H27505   2.361   6.969   4.395  2.0535 -2.1086  0.8806
  204MOL0     H27506   2.490   7.167   4.200  3.4289 -1.2994 -0.8732
  204MOL0     H27507   2.549   7.003   4.218 -2.6815 -2.6995 -0.1927
  204MOL0     H27508   2.247   7.072   4.189 -0.4834  1.1498 -2.4584
  204MOL0     H27509   2.345   7.072   4.051 -0.1741  0.9390  0.6864
  204MOL0     H27510   2.377   6.827   4.234  0.7603 -2.8212 -1.7485
  204MOL0     H27511   2.371   6.821   4.064 -0.6092 -1.0548  0.7935
  204MOL0     H27512   2.119   6.895   4.074  3.5454  1.8554 -1.6161
  204MOL0     H27513   2.130   6.832   4.241  0.6919  1.4018  0.5421
  204MOL0     H27514   2.071   6.643   4.114 -0.2166 -0.1969  1.1351
  204MOL0     H27515   2.194   6.665   3.988  0.6467 -1.0302 -0.2969
  204MOL0     H27516   2.283   6.620   4.271 -1.0342  0.7024 -0.4523
  204MOL0     H27517   2.370   6.609   4.121 -0.5922  1.9632 -1.1815
  204MOL0     H27518   2.315   6.375   4.199  1.5308 -1.1710 -3.7715
  204MOL0     H27519   2.138   6.420   4.206  0.0039  3.7619  2.3830
  204MOL0     H27520   2.222   6.997   4.558  0.8408 -0.7852  0.3743
  204MOL0     H27521   2.166   7.043   4.789  0.9732 -0.6002  1.0519
  204MOL0     H27522   2.188   7.339   5.140  0.0427 -0.6467 -0.3668
  204MOL0     H27523   2.115   7.421   5.365 -0.1748  2.3221 -0.2798
  204MOL0     H27524   2.787   7.923   6.377  0.5105 -1.0318  0.1694
  204MOL0     H27525   2.725   8.160   6.405 -1.2785  3.2130 -0.9605
  204MOL0     H27526   2.419   8.490   6.158  3.0781 -0.0846  0.8580
  204MOL0     H27527   2.382   8.718   6.167 -2.0608 -2.7025 -0.7744
  204MOL0     H27528   2.305   8.923   6.197  4.0896 -1.6749 -2.5864
  204MOL0     H27529   2.468   8.954   6.254  0.9484 -2.3061  0.2729
  204MOL0     H27530   2.228   9.103   6.382  1.0468 -0.4982  0.1962
  204MOL0     H27531   2.315   9.186   6.264 -2.8706  0.6933  0.7640
  204MOL0     H27532   2.388   9.064   6.539  1.3512  2.2005  2.6532
  204MOL0     H27533   2.368   9.229   6.507 -2.5508 -0.9013  0.2924
  204MOL0     H27534   2.618   9.164   6.543  2.9752 -0.3769 -1.2817
  204MOL0     H27535   2.597   9.036   6.418 -0.9021 -1.2968  1.6628
  204MOL0     H27536   2.757   9.366   6.228 -1.0027  0.2401 -0.6505
  204MOL0     H27537   2.364   8.694   6.601  0.4746  1.7148 -0.2387
  204MOL0     H27538   2.251   8.413   6.660 -2.3925  1.0156 -3.5687
  204MOL0     H27539   2.381   8.323   6.599 -1.9868 -0.6389 -1.5043
  204MOL0     H27540   2.426   8.444   6.703  0.0670 -1.3935  0.3459
  205MOL0     O27541   1.813   9.657   2.680 -0.3024 -0.1736  0.3447
  205MOL0     C27542   1.830   9.666   2.556  0.8298  0.0006 -0.0357
  205MOL0     O27543   1.771   9.574   2.473  0.8868  0.0668 -0.2003
  205MOL0     C27544   1.666   9.497   2.533 -0.0029  0.0699  0.0963
  205MOL0     C27545   1.540   9.556   2.566  0.2313  0.4982  0.4719
  205MOL0     C27546   1.428   9.481   2.618 -0.6805 -0.0432 -0.6447
  205MOL0     C27547   1.445   9.346   2.630 -1.0792  0.7284 -0.2787
  205MOL0     O27548   1.356   9.262   2.692  0.3067  0.4721  0.4223
  205MOL0     C27549   1.241   9.224   2.612 -0.1402  0.1813  0.1439
  205MOL0     C27550   1.145   9.162   2.707  0.3812 -0.1639 -1.3268
  205MOL0     C27551   1.203   9.032   2.776  0.4242 -0.2422 -0.2115
  205MOL0     C27552   1.123   8.991   2.890  0.8749  0.4130 -0.0692
  205MOL0     C27553   1.181   8.853   2.936 -0.2265 -0.1486  1.4577
  205MOL0     C27554   1.081   8.791   3.035  0.4677 -0.3739  0.2375
  205MOL0     C27555   1.146   8.662   3.097  0.3634 -0.1469 -0.4892
  205MOL0     C27556   1.207   8.561   2.998  0.4150 -0.3273  0.0643
  205MOL0     N27557   1.238   8.438   3.072 -0.8552  0.0996  0.6348
  205MOL0     C27558   1.335   8.426   3.172  0.1658 -0.6364  0.3694
  205MOL0     C27559   1.326   8.299   3.224  0.0665 -0.4212  0.9115
  205MOL0     C27560   1.399   8.242   3.336 -0.9057  0.3507 -0.2833
  205MOL0     C27561   1.561   8.238   3.315  0.0405  0.6270  0.5569
  205MOL0     C27562   1.628   8.268   3.440  0.4911 -0.3633 -0.3696
  205MOL0     C27563   1.764   8.195   3.435  0.1476 -0.2817  0.2016
  205MOL0     O27564   1.823   8.184   3.564  0.1311  0.3309 -0.7096
  205MOL0     C27565   1.896   8.289   3.602  0.0168  0.3658 -0.8156
  205MOL0     C27566   1.954   8.258   3.724 -0.2992  0.0407 -0.3333
  205MOL0     C27567   2.049   8.353   3.785 -0.7619  0.2580 -0.9227
  205MOL0     C27568   2.083   8.470   3.707 -0.5743  0.1470  0.1233
  205MOL0     C27569   2.182   8.563   3.761 -0.4638 -0.1740 -0.4450
  205MOL0     O27570   2.274   8.626   3.679 -0.3907 -0.2036 -0.3940
  205MOL0     C27571   2.349   8.738   3.730 -0.6153  0.2966 -0.1065
  205MOL0     C27572   2.446   8.724   3.829  0.0646 -0.2422  1.2705
  205MOL0     C27573   2.502   8.838   3.895  0.2410  0.4777 -0.8566
  205MOL0     C27574   2.466   8.963   3.840  0.5787 -0.5907 -0.4903
  205MOL0     O27575   2.528   9.077   3.887 -0.0770 -0.4089  0.7353
  205MOL0     C27576   2.650   9.086   3.960 -0.0324  0.8995 -0.0014
  205MOL0     C27577   2.758   9.109   3.860 -0.4724 -0.3234 -0.4926
  205MOL0     C27578   2.893   9.075   3.927 -0.4794  0.4508 -0.3144
  205MOL0     C27579   2.962   8.946   3.854  0.4548 -0.5762 -0.8646
  205MOL0     C27580   2.884   8.816   3.849  0.3421 -0.6657  0.7183
  205MOL0     C27581   2.890   8.751   3.984 -0.1701  0.1656  0.8654
  205MOL0     C27582   2.816   8.619   3.996  0.5993 -0.1288  0.3401
  205MOL0     C27583   2.846   8.515   3.890 -0.0026  0.8386  0.0835
  205MOL0    Cl27584   2.751   8.360   3.926 -0.3350  0.1056 -0.2611
  205MOL0     C27585   2.370   8.967   3.740 -0.2574  0.0857  0.0309
  205MOL0     C27586   2.306   8.862   3.692  0.8631  0.7488 -0.1148
  205MOL0     O27587   2.183   8.582   3.883  0.0634  0.2704 -0.3910
  205MOL0     C27588   2.012   8.502   3.588 -0.0033 -0.4043  0.2248
  205MOL0     C27589   1.916   8.412   3.541  0.1416 -0.0666  0.6530
  205MOL0     N27590   1.224   8.241   3.160 -0.0854  0.3598 -0.0572
  205MOL0     N27591   1.165   8.320   3.069 -0.3078  0.8243  0.4943
  205MOL0     C27592   1.573   9.286   2.598 -0.2302 -0.0477  0.1205
  205MOL0     C27593   1.685   9.357   2.544 -0.0841  0.6049 -0.3356
  205MOL0     C27594   1.915   9.759   2.495  0.1074  0.2945 -0.6719
  205MOL0     C27595   1.999   9.704   2.395  0.1045  0.2452  0.3271
  205MOL0     C27596   2.079   9.782   2.316 -1.1468 -0.7798 -0.4038
  205MOL0     C27597   2.089   9.921   2.346 -0.3173 -0.2087  0.7554
  205MOL0     O27598   2.174  10.010   2.276  0.5486 -0.4759  0.7701
  205MOL0     C27599   2.235   9.975   2.158 -0.1640 -0.1166 -0.4539
  205MOL0     C27600   2.364   9.894   2.189  0.3038  0.5296 -0.7447
  205MOL0     C27601   2.448   9.931   2.315 -0.1174  0.0538 -0.3139
  205MOL0     C27602   2.580   9.862   2.329 -0.4690 -0.9943 -0.8868
  205MOL0     C27603   2.669   9.916   2.224 -0.7364  0.4393  0.1188
  205MOL0     C27604   2.744   9.968   2.144  0.2996  0.3349 -1.0104
  205MOL0     C27605   2.021   9.970   2.458  0.4294 -0.7629 -0.2922
  205MOL0     C27606   1.926   9.896   2.524 -0.1930  0.3174  0.2597
  205MOL0     C27607   1.841   9.967   2.622 -0.4997 -0.2318 -0.0116
  205MOL0     H27608   1.526   9.663   2.553 -0.1412  0.4925  0.8332
  205MOL0     H27609   1.329   9.525   2.633 -0.3356  1.4810 -2.4245
  205MOL0     H27610   1.187   9.303   2.559 -0.8325 -1.0015 -0.9693
  205MOL0     H27611   1.259   9.145   2.539 -1.5696 -0.5230  0.5296
  205MOL0     H27612   1.058   9.125   2.653  0.8941 -2.0729 -0.9292
  205MOL0     H27613   1.120   9.241   2.779  3.3274  1.5201 -1.9573
  205MOL0     H27614   1.304   9.051   2.813  0.3545  1.7636 -0.8882
  205MOL0     H27615   1.213   8.960   2.694 -0.6470 -0.8427  0.1710
  205MOL0     H27616   1.122   9.074   2.962  1.8677  1.5424 -1.3106
  205MOL0     H27617   1.021   8.980   2.852 -0.0041  0.8023  2.0189
  205MOL0     H27618   1.204   8.791   2.849  0.1176  0.8110  0.8553
  205MOL0     H27619   1.276   8.854   2.991 -0.7294  2.7787  2.4459
  205MOL0     H27620   1.048   8.863   3.111 -1.8974 -2.2050  1.0760
  205MOL0     H27621   0.986   8.765   2.987 -0.3955 -0.0903  1.7351
  205MOL0     H27622   1.074   8.609   3.160  0.2303  0.2057 -0.3419
  205MOL0     H27623   1.232   8.700   3.154  2.5726 -5.1407  0.0008
  205MOL0     H27624   1.130   8.534   2.925  0.6165 -0.1506 -0.2146
  205MOL0     H27625   1.291   8.612   2.950 -1.4710 -0.5576 -3.8834
  205MOL0     H27626   1.404   8.502   3.208 -0.2952 -0.9615  2.0232
  205MOL0     H27627   1.368   8.296   3.427 -0.8618  2.6904 -1.5763
  205MOL0     H27628   1.367   8.139   3.351 -0.1033 -0.0988 -1.5093
  205MOL0     H27629   1.595   8.143   3.274  1.3430  0.8734  1.0180
  205MOL0     H27630   1.588   8.318   3.246  1.1858  0.9542  1.3400
  205MOL0     H27631   1.568   8.232   3.524  1.4608  1.4770  1.1964
  205MOL0     H27632   1.643   8.372   3.470  0.5610 -1.2354  3.0492
  205MOL0     H27633   1.841   8.233   3.367  0.2881  0.6035  0.8422
  205MOL0     H27634   1.747   8.094   3.396  1.6421 -1.2589  1.9424
  205MOL0     H27635   1.937   8.171   3.787 -0.6205 -1.2135 -2.0734
  205MOL0     H27636   2.099   8.324   3.877 -1.4075  0.9870 -0.3349
  205MOL0     H27637   2.473   8.624   3.859  0.7967  0.0593  1.6230
  205MOL0     H27638   2.578   8.823   3.971  1.6957 -0.2073 -2.3824
  205MOL0     H27639   2.645   9.169   4.031  0.2712  0.8365  0.0952
  205MOL0     H27640   2.659   8.997   4.024  3.3639  1.3013  0.2718
  205MOL0     H27641   2.743   9.044   3.773 -2.3714  0.6225 -0.9206
  205MOL0     H27642   2.760   9.209   3.817 -0.2137 -0.2984 -0.4249
  205MOL0     H27643   2.952   9.165   3.913  0.3589 -0.0674 -0.1912
  205MOL0     H27644   2.887   9.057   4.035 -1.6980  1.1751 -0.2435
  205MOL0     H27645   3.062   8.935   3.899 -0.3761 -0.6976  1.0344
  205MOL0     H27646   2.984   8.982   3.753  1.3317  0.1640 -0.4249
  205MOL0     H27647   2.922   8.748   3.772 -0.8879 -0.0607 -0.4394
  205MOL0     H27648   2.786   8.843   3.810  1.4026  0.8850 -1.0081
  205MOL0     H27649   2.992   8.725   4.015 -1.3408 -2.3912  2.9766
  205MOL0     H27650   2.847   8.820   4.057 -2.5242 -1.3965  1.0601
  205MOL0     H27651   2.709   8.640   3.993  0.4990 -0.6943 -0.0938
  205MOL0     H27652   2.839   8.578   4.095 -0.2871  1.2328  1.1529
  205MOL0     H27653   2.820   8.554   3.792 -0.9175  2.7278  1.0227
  205MOL0     H27654   2.949   8.478   3.889  0.5021  2.1911  0.4263
  205MOL0     H27655   2.345   9.061   3.690 -3.2395  0.1765  1.4498
  205MOL0     H27656   2.221   8.861   3.625  0.2843  2.6301  0.5243
  205MOL0     H27657   2.035   8.589   3.528  0.3182 -1.6855 -1.5886
  205MOL0     H27658   1.862   8.441   3.451  0.2543 -1.1897  0.2095
  205MOL0     H27659   1.587   9.183   2.630  1.4502  0.0906 -0.1125
  205MOL0     H27660   1.782   9.310   2.540 -0.1200  0.4575  0.4624
  205MOL0     H27661   1.986   9.599   2.375  3.7490 -0.5457  1.3487
  205MOL0     H27662   2.129   9.747   2.226  1.4230 -0.0142  0.6555
  205MOL0     H27663   2.280  10.068   2.123 -0.0320  1.3226  3.1158
  205MOL0     H27664   2.162   9.924   2.095  0.5960 -2.8779  0.7649
  205MOL0     H27665   2.436   9.908   2.108  0.6553 -0.3819 -0.6059
  205MOL0     H27666   2.340   9.787   2.194 -0.7162  0.6633 -2.2299
  205MOL0     H27667   2.387   9.901   2.401 -0.6160  3.3010  0.6220
  205MOL0     H27668   2.465  10.039   2.308  0.9905 -0.0121  0.9253
  205MOL0     H27669   2.624   9.877   2.428  0.5470 -1.2180 -1.2886
  205MOL0     H27670   2.563   9.754   2.325 -2.9669 -0.8147  1.8288
  205MOL0     H27671   2.796  10.044   2.089  2.0349 -0.0018  0.0690
  205MOL0     H27672   2.043  10.074   2.480 -2.0230  0.1034 -1.5485
  205MOL0     H27673   1.892   9.943   2.716  2.8323  0.3970 -1.5124
  205MOL0     H27674   1.842  10.076   2.626  5.1473 -0.0301  2.7722
  205MOL0     H27675   1.737   9.933   2.622  0.0282 -2.3714 -3.5917
  206MOL0     O27676   4.824  11.357   4.471 -0.5771 -0.4197  0.5983
  206MOL0     C27677   4.917  11.439   4.451 -0.4342 -0.0704 -1.0091
  206MOL0     O27678   5.013  11.466   4.539 -0.1786 -0.7789 -0.6979
  206MOL0     C27679   4.993  11.448   4.672  0.3614  0.4225  0.2975
  206MOL0     C27680   4.865  11.459   4.732  0.8763  0.4367  0.3747
  206MOL0     C27681   4.849  11.438   4.865  0.9458 -0.1031  0.0644
  206MOL0     C27682   4.951  11.426   4.959  0.1192 -1.1039 -0.4151
  206MOL0     O27683   4.931  11.420   5.090 -0.6755 -0.2008 -0.4219
  206MOL0     C27684   4.818  11.353   5.146 -0.8228  0.0015  0.9558
  206MOL0     C27685   4.795  11.398   5.288  0.4650  0.2224  0.8409
  206MOL0     C27686   4.799  11.558   5.297 -0.1569 -0.5487  0.6700
  206MOL0     C27687   4.699  11.621   5.193 -0.0211 -0.4504 -0.0085
  206MOL0     C27688   4.693  11.767   5.207 -0.5829 -0.4352 -0.1122
  206MOL0     C27689   4.585  11.827   5.115 -0.5375 -0.1218 -0.3762
  206MOL0     C27690   4.630  11.832   4.966  0.2411 -0.1690 -0.6707
  206MOL0     C27691   4.557  11.723   4.891 -0.2420  0.6427 -0.0672
  206MOL0     N27692   4.415  11.753   4.884 -0.0257  0.2852 -0.2802
  206MOL0     C27693   4.362  11.825   4.787 -0.1366  1.0228  0.2460
  206MOL0     C27694   4.232  11.816   4.803  0.7565  0.6234  0.3247
  206MOL0     C27695   4.112  11.864   4.726 -0.2965 -0.1312  0.1294
  206MOL0     C27696   3.983  11.904   4.804  0.3778 -0.4684 -0.6041
  206MOL0     C27697   4.002  12.046   4.869  0.1458 -0.3698  0.2920
  206MOL0     C27698   3.962  12.174   4.785 -0.0154 -0.4676 -0.2368
  206MOL0     O27699   3.933  12.266   4.888 -0.1980  0.0882 -0.1643
  206MOL0     C27700   3.851  12.374   4.863 -0.3027 -0.2696  0.1824
  206MOL0     C27701   3.796  12.443   4.969  1.0036  0.4044 -0.2702
  206MOL0     C27702   3.723  12.561   4.953  0.2045  0.2079  0.2881
  206MOL0     C27703   3.692  12.604   4.820 -0.2527  0.0999 -0.7698
  206MOL0     C27704   3.622  12.728   4.790 -0.8350  0.2283 -0.3182
  206MOL0     O27705   3.579  12.749   4.663 -0.6016 -0.5824 -0.0673
  206MOL0     C27706   3.483  12.845   4.631 -0.5758  0.4050 -1.3319
  206MOL0     C27707   3.353  12.835   4.673  0.1809  0.7298  0.5200
  206MOL0     C27708   3.265  12.939   4.627  0.4873 -0.2718 -0.5953
  206MOL0     C27709   3.298  13.037   4.541  0.3742  0.2872  0.0485
  206MOL0     O27710   3.210  13.135   4.507 -0.3397  0.5632 -0.0293
  206MOL0     C27711   3.150  13.096   4.379  0.2202 -0.4475  0.1734
  206MOL0     C27712   3.232  13.152   4.262  0.3179  0.1568  0.7615
  206MOL0     C27713   3.238  13.306   4.266  0.2685 -0.1672 -0.2908
  206MOL0     C27714   3.307  13.371   4.149  0.1512 -0.4896 -0.3975
  206MOL0     C27715   3.357  13.516   4.172 -0.0522 -0.8986 -0.0399
  206MOL0     C27716   3.284  13.609   4.263 -0.4634 -1.0284 -0.6617
  206MOL0     C27717   3.300  13.763   4.227 -0.6275 -0.3828  0.0932
  206MOL0     C27718   3.257  13.851   4.349 -0.1721 -0.7249  0.4249
  206MOL0    Cl27719   3.256  14.027   4.311  0.4431 -0.1832  0.0642
  206MOL0     C27720   3.434  13.043   4.501  0.6176  0.3478 -0.0418
  206MOL0     C27721   3.529  12.954   4.551 -1.0396  0.2581  0.1651
  206MOL0     O27722   3.591  12.797   4.888  0.1983  0.0721  0.0011
  206MOL0     C27723   3.731  12.521   4.711  0.5644 -0.3342 -0.2829
  206MOL0     C27724   3.806  12.412   4.729 -0.5397  0.2902 -0.5168
  206MOL0     N27725   4.209  11.741   4.916  0.5924 -0.5252 -0.9780
  206MOL0     N27726   4.321  11.695   4.960 -0.2926  0.8182 -0.4452
  206MOL0     C27727   5.075  11.419   4.900 -0.2734 -0.9129 -0.5281
  206MOL0     C27728   5.100  11.439   4.761 -0.8225  0.4115 -0.4808
  206MOL0     C27729   4.924  11.500   4.320 -0.3625  0.4094  0.3907
  206MOL0     C27730   4.985  11.627   4.311 -0.1248 -0.1080 -0.4087
  206MOL0     C27731   4.993  11.687   4.189 -0.0713  0.1956  0.6095
  206MOL0     C27732   4.963  11.626   4.070 -0.1945  0.2261  0.1169
  206MOL0     O27733   4.989  11.666   3.943 -0.3928 -0.9026  0.1859
  206MOL0     C27734   5.005  11.811   3.926 -0.9862 -0.1867  0.0733
  206MOL0     C27735   5.016  11.837   3.781  0.1847 -0.7569  0.3104
  206MOL0     C27736   4.880  11.849   3.709 -0.0189  0.2414  0.2180
  206MOL0     C27737   4.908  11.916   3.570 -1.0157  0.6544 -0.6972
  206MOL0     C27738   4.779  11.945   3.511  0.2882  0.8464  0.6463
  206MOL0     C27739   4.674  11.966   3.456  0.7607  0.4656  0.0634
  206MOL0     C27740   4.918  11.492   4.079 -0.5400  0.1669  0.9241
  206MOL0     C27741   4.892  11.432   4.199  0.4357 -0.2724 -0.8499
  206MOL0     C27742   4.831  11.288   4.196 -0.2322  0.5332  0.2800
  206MOL0     H27743   4.786  11.489   4.664 -1.4351  1.1789  3.2037
  206MOL0     H27744   4.751  11.457   4.909  1.2114 -3.0755  2.2090
  206MOL0     H27745   4.727  11.364   5.086 -0.1055 -1.4750 -0.5161
  206MOL0     H27746   4.836  11.245   5.157 -2.1892 -0.1477  2.0272
  206MOL0     H27747   4.870  11.363   5.360  1.9942  0.6139 -0.5060
  206MOL0     H27748   4.693  11.370   5.313 -0.4301  2.0609 -0.4845
  206MOL0     H27749   4.897  11.592   5.264 -0.2277 -1.1927 -0.2433
  206MOL0     H27750   4.774  11.588   5.399 -0.0311  0.8327  0.3151
  206MOL0     H27751   4.744  11.604   5.095  0.0457  0.5203 -0.1619
  206MOL0     H27752   4.598  11.581   5.198 -0.8747  1.6749  3.1079
  206MOL0     H27753   4.666  11.795   5.309 -2.8635 -1.3915 -0.3975
  206MOL0     H27754   4.790  11.812   5.183 -1.0376  0.3782 -0.4371
  206MOL0     H27755   4.489  11.778   5.134  1.0227 -2.0152  3.8335
  206MOL0     H27756   4.579  11.931   5.148  1.1705  0.0818 -0.6058
  206MOL0     H27757   4.738  11.846   4.957  0.2540  1.4461  1.2640
  206MOL0     H27758   4.584  11.930   4.948  0.5732 -0.0636 -0.9528
  206MOL0     H27759   4.593  11.726   4.787 -2.6462 -0.0217 -1.0051
  206MOL0     H27760   4.581  11.623   4.927  0.6268  1.1254  0.7329
  206MOL0     H27761   4.407  11.884   4.708  1.1261  1.2312  1.0877
  206MOL0     H27762   4.149  11.950   4.670 -0.6735  0.8838  1.3947
  206MOL0     H27763   4.085  11.791   4.649 -2.0591  0.2758  0.3327
  206MOL0     H27764   3.907  11.907   4.726 -1.7125  0.4743  1.3730
  206MOL0     H27765   3.949  11.827   4.873 -1.5884 -2.5502 -3.6400
  206MOL0     H27766   4.107  12.063   4.895  0.1992 -0.1133 -0.0864
  206MOL0     H27767   3.936  12.040   4.956 -4.3840  0.9981 -2.7268
  206MOL0     H27768   3.870  12.153   4.730  0.3375 -0.3291 -0.8818
  206MOL0     H27769   4.037  12.216   4.717  1.2161  0.1646  1.4379
  206MOL0     H27770   3.818  12.415   5.072  0.5106  0.6902 -0.0860
  206MOL0     H27771   3.704  12.612   5.047 -0.6045  1.5923 -0.6058
  206MOL0     H27772   3.333  12.748   4.735 -0.9976  0.0194 -0.7825
  206MOL0     H27773   3.164  12.948   4.666  0.2637  0.7846 -1.3689
  206MOL0     H27774   3.118  12.992   4.369 -0.5949 -0.2308  0.4337
  206MOL0     H27775   3.052  13.145   4.376  0.7832  0.7762  0.8870
  206MOL0     H27776   3.328  13.103   4.243  0.6653 -0.6069  3.9050
  206MOL0     H27777   3.170  13.121   4.178  0.5602  1.4797  0.0707
  206MOL0     H27778   3.137  13.348   4.264  0.0788 -0.4995  1.1374
  206MOL0     H27779   3.289  13.347   4.354 -1.2296  0.1124  0.4962
  206MOL0     H27780   3.219  13.387   4.086  1.2023  3.5066 -1.0595
  206MOL0     H27781   3.377  13.299   4.106 -0.4846 -2.3101  1.4023
  206MOL0     H27782   3.360  13.553   4.069  1.9083  0.8415  0.5758
  206MOL0     H27783   3.461  13.506   4.205  0.6193  0.2864 -1.6375
  206MOL0     H27784   3.175  13.597   4.255 -1.0888  1.4756  1.9823
  206MOL0     H27785   3.312  13.591   4.367  1.4240 -0.2902 -0.9981
  206MOL0     H27786   3.252  13.781   4.130  0.4957 -2.2034 -0.8654
  206MOL0     H27787   3.407  13.770   4.205 -0.4686 -3.6673 -0.7329
  206MOL0     H27788   3.165  13.811   4.392 -2.4492  0.6760 -2.7833
  206MOL0     H27789   3.341  13.835   4.418  2.2316  2.0029 -1.6123
  206MOL0     H27790   3.472  13.131   4.449  0.5655  1.0864  1.1405
  206MOL0     H27791   3.633  12.978   4.533 -1.7814  2.1240 -2.0529
  206MOL0     H27792   3.715  12.551   4.608  1.6280 -2.6034 -1.1852
  206MOL0     H27793   3.847  12.358   4.644  0.1206 -0.0658  0.0234
  206MOL0     H27794   5.162  11.410   4.964 -0.7105  2.1445  0.6614
  206MOL0     H27795   5.201  11.447   4.721 -0.9764  1.6349 -0.6604
  206MOL0     H27796   5.003  11.684   4.402  0.2036  0.8189 -1.0348
  206MOL0     H27797   5.034  11.787   4.199  0.9658 -0.4372  4.1211
  206MOL0     H27798   5.092  11.854   3.976 -1.4799  1.2197 -0.2432
  206MOL0     H27799   4.915  11.857   3.969 -1.8498 -0.8764 -0.9383
  206MOL0     H27800   5.078  11.755   3.744 -0.7418 -2.8983  3.1089
  206MOL0     H27801   5.056  11.938   3.773  2.3908 -1.6982 -1.3426
  206MOL0     H27802   4.826  11.913   3.780  0.7650  0.9543  0.1846
  206MOL0     H27803   4.823  11.757   3.697  2.0637 -1.0235 -0.4035
  206MOL0     H27804   4.956  12.014   3.578 -0.9038  0.5436  0.1187
  206MOL0     H27805   4.959  11.849   3.501 -1.1192  2.0348 -2.1722
  206MOL0     H27806   4.580  11.987   3.409 -0.5807  1.9049  3.0683
  206MOL0     H27807   4.907  11.443   3.983  0.1047  0.4956  0.6797
  206MOL0     H27808   4.733  11.296   4.243 -1.7784  0.1348 -2.6157
  206MOL0     H27809   4.815  11.242   4.098  1.0078 -1.2164  0.8552
  206MOL0     H27810   4.902  11.213   4.233 -1.7427 -0.7794  0.5922
  207MOL0     O27811   7.782  10.755   1.597  0.0741  1.0540 -0.4748
  207MOL0     C27812   7.872  10.767   1.683  0.2008 -0.2127  0.6444
  207MOL0     O27813   8.007  10.781   1.649 -0.1666  0.3871  0.1141
  207MOL0     C27814   8.041  10.738   1.518 -0.3001  0.0357 -0.0917
  207MOL0     C27815   8.081  10.829   1.420 -0.0288 -0.0177  0.7704
  207MOL0     C27816   8.133  10.772   1.302 -0.6960 -0.1693 -0.2072
  207MOL0     C27817   8.152  10.637   1.276  0.6948  0.3462  0.7127
  207MOL0     O27818   8.219  10.589   1.167 -0.2433  0.0265 -0.5306
  207MOL0     C27819   8.201  10.453   1.114  0.7845 -0.1915 -0.3140
  207MOL0     C27820   8.273  10.449   0.979 -0.2565 -0.1974  0.7649
  207MOL0     C27821   8.244  10.315   0.922 -0.1370 -0.3806  0.4547
  207MOL0     C27822   8.334  10.268   0.793  0.0475 -0.1932 -0.6543
  207MOL0     C27823   8.438  10.179   0.836 -1.0784  0.3126  0.6018
  207MOL0     C27824   8.521  10.144   0.707  0.3095  0.1982 -0.2277
  207MOL0     C27825   8.605  10.259   0.656 -0.2591 -1.1292 -1.0271
  207MOL0     C27826   8.711  10.318   0.755 -0.0021 -0.0456 -0.1035
  207MOL0     N27827   8.803  10.207   0.789  0.0092  0.0187  0.0663
  207MOL0     C27828   8.914  10.178   0.715 -0.9198  0.7338 -0.0084
  207MOL0     C27829   8.988  10.099   0.800  0.2059  0.2023 -0.2256
  207MOL0     C27830   9.115  10.035   0.762 -0.1994  1.0151 -0.2067
  207MOL0     C27831   9.215  10.131   0.689  0.0665 -0.6206 -0.3960
  207MOL0     C27832   9.256  10.244   0.785 -0.2204  0.8987  0.0829
  207MOL0     C27833   9.390  10.313   0.748  0.7959 -0.4973 -0.4352
  207MOL0     O27834   9.369  10.451   0.746  0.2645  0.3935 -0.1417
  207MOL0     C27835   9.472  10.533   0.704  0.0960  0.2915  0.3415
  207MOL0     C27836   9.600  10.498   0.659 -0.0963  0.1527 -1.2281
  207MOL0     C27837   9.694  10.590   0.605 -0.2071 -0.0164 -0.2641
  207MOL0     C27838   9.652  10.721   0.598  0.8888  0.2191 -0.5609
  207MOL0     C27839   9.730  10.823   0.529  0.8512 -0.0432  0.2469
  207MOL0     O27840   9.668  10.952   0.536 -0.6183 -0.0586 -0.3407
  207MOL0     C27841   9.735  11.060   0.480 -1.1533  0.5111  0.0036
  207MOL0     C27842   9.870  11.090   0.525 -0.2522 -0.9969 -0.5939
  207MOL0     C27843   9.933  11.211   0.500 -0.7096 -0.1915 -0.2852
  207MOL0     C27844   9.867  11.315   0.423  0.0426  0.1940  0.2779
  207MOL0     O27845   9.923  11.429   0.377 -0.0767 -0.5168  0.2979
  207MOL0     C27846  10.067  11.433   0.370  0.0246 -0.8267  0.6759
  207MOL0     C27847  10.116  11.582   0.363 -0.2891  0.0536 -0.0047
  207MOL0     C27848  10.086  11.651   0.236  0.1758  0.4040  0.1785
  207MOL0     C27849   9.985  11.765   0.244  0.5884  0.0218  1.6176
  207MOL0     C27850   9.998  11.842   0.111  0.0506 -0.5746 -0.0306
  207MOL0     C27851   9.900  11.959   0.099 -1.1874 -0.4704 -0.3587
  207MOL0     C27852   9.918  12.041  -0.033 -0.7733 -0.1593  1.2345
  207MOL0     C27853   9.871  11.973  -0.155  0.3083  0.3891  1.0939
  207MOL0    Cl27854   9.683  11.959  -0.160 -0.1282 -0.0177  0.1572
  207MOL0     C27855   9.727  11.293   0.390 -0.4944  1.2153  0.0393
  207MOL0     C27856   9.668  11.161   0.407  0.0287 -0.6440 -0.3499
  207MOL0     O27857   9.834  10.801   0.467 -0.4910 -0.1413  0.2596
  207MOL0     C27858   9.531  10.755   0.649 -1.0032 -1.3065  0.2680
  207MOL0     C27859   9.439  10.668   0.695 -0.4831  0.0054 -1.0678
  207MOL0     N27860   8.920  10.081   0.920 -0.3007  0.6707 -0.2342
  207MOL0     N27861   8.812  10.152   0.911 -0.1650 -0.2020 -0.4762
  207MOL0     C27862   8.092  10.549   1.368 -0.0601 -0.6022  0.0865
  207MOL0     C27863   8.038  10.602   1.490  0.5085 -0.0704  0.0679
  207MOL0     C27864   7.839  10.801   1.820 -0.5887 -0.7074 -0.0927
  207MOL0     C27865   7.934  10.868   1.893  0.0367 -0.0480  0.3472
  207MOL0     C27866   7.922  10.884   2.028 -0.0130 -0.7131  0.0897
  207MOL0     C27867   7.812  10.837   2.105 -0.2979 -0.6347 -0.0856
  207MOL0     O27868   7.814  10.840   2.243 -0.0669  0.7519 -0.6978
  207MOL0     C27869   7.932  10.876   2.318 -0.0319  0.1834  0.2860
  207MOL0     C27870   7.890  10.863   2.462  0.2138 -0.4027 -0.2361
  207MOL0     C27871   7.758  10.930   2.501  0.7974 -0.2585  0.0665
  207MOL0     C27872   7.740  10.918   2.655  0.2798  0.2222  0.0740
  207MOL0     C27873   7.615  10.995   2.686 -0.6904 -0.5579  0.2719
  207MOL0     C27874   7.517  11.056   2.724 -0.0088 -0.6497  0.6003
  207MOL0     C27875   7.705  10.782   2.029  0.1517 -0.2333 -0.8011
  207MOL0     C27876   7.722  10.760   1.889  0.9498 -0.0656  1.4417
  207MOL0     C27877   7.612  10.695   1.818 -0.7316  0.3546 -0.5109
  207MOL0     H27878   8.062  10.936   1.425 -1.8904 -0.1533 -1.5542
  207MOL0     H27879   8.173  10.840   1.228 -0.1799 -0.1511  0.0859
  207MOL0     H27880   8.240  10.374   1.179 -2.4162 -0.7229  1.1785
  207MOL0     H27881   8.095  10.424   1.111  1.2733 -1.9888 -2.0753
  207MOL0     H27882   8.381  10.459   0.997 -0.4084 -0.4023  1.8770
  207MOL0     H27883   8.237  10.519   0.904 -0.0732 -4.0758 -3.3465
  207MOL0     H27884   8.137  10.317   0.898  0.1291  1.7157 -0.7877
  207MOL0     H27885   8.251  10.242   1.003  0.0729  0.6525  1.3914
  207MOL0     H27886   8.272  10.227   0.712  0.2039  0.3341 -1.0499
  207MOL0     H27887   8.378  10.356   0.743  1.6049 -0.5817 -0.0227
  207MOL0     H27888   8.502  10.220   0.916 -0.6371 -0.3796  0.6114
  207MOL0     H27889   8.402  10.079   0.862  0.6500 -0.7196 -0.7541
  207MOL0     H27890   8.581  10.056   0.734  1.0940  1.0336  0.8413
  207MOL0     H27891   8.447  10.107   0.636 -1.0592  0.7386  0.8684
  207MOL0     H27892   8.528  10.334   0.635 -0.0791  0.5948  3.4141
  207MOL0     H27893   8.659  10.222   0.568  1.5988 -2.5739  0.6217
  207MOL0     H27894   8.764  10.403   0.712 -1.3624  1.3966  0.9372
  207MOL0     H27895   8.659  10.354   0.844  0.2172  0.4062 -0.1567
  207MOL0     H27896   8.927  10.201   0.609 -3.9715 -0.1841 -0.6918
  207MOL0     H27897   9.168   9.997   0.849 -0.1882 -0.1386 -0.6946
  207MOL0     H27898   9.097   9.948   0.697 -1.2091  3.1510 -3.0383
  207MOL0     H27899   9.310  10.082   0.663  0.9659  0.3590  0.9039
  207MOL0     H27900   9.168  10.185   0.607  0.0594  1.1192  0.7007
  207MOL0     H27901   9.269  10.205   0.886 -1.0794  4.9208  1.9425
  207MOL0     H27902   9.185  10.328   0.787 -0.1541  0.9443  0.6758
  207MOL0     H27903   9.426  10.275   0.652 -4.5416 -2.3958 -2.0418
  207MOL0     H27904   9.462  10.292   0.827  0.2213  1.2635  0.6123
  207MOL0     H27905   9.629  10.393   0.663 -1.7266 -0.2874 -0.1387
  207MOL0     H27906   9.785  10.561   0.554 -0.4390  5.1061 -4.4628
  207MOL0     H27907   9.914  11.035   0.607  1.9416  2.0061  0.4292
  207MOL0     H27908  10.031  11.232   0.540 -0.5465  3.7588 -2.2509
  207MOL0     H27909  10.116  11.390   0.457 -1.0144 -1.2624  1.0549
  207MOL0     H27910  10.097  11.381   0.279 -0.0619  0.4855 -0.1352
  207MOL0     H27911  10.073  11.626   0.454 -0.0989 -0.4885  0.3541
  207MOL0     H27912  10.225  11.589   0.368 -0.2946  1.6976 -1.5927
  207MOL0     H27913  10.174  11.692   0.187  0.1168 -2.0224 -2.1479
  207MOL0     H27914  10.056  11.582   0.157  1.5588  2.2103 -2.0285
  207MOL0     H27915   9.997  11.845   0.318 -3.2106  2.2679  0.1241
  207MOL0     H27916   9.883  11.730   0.262  0.3999  0.9573  2.4172
  207MOL0     H27917   9.978  11.768   0.034 -2.7981  0.6151 -0.5691
  207MOL0     H27918  10.102  11.877   0.104  0.2874  1.4645  6.5477
  207MOL0     H27919   9.801  11.912   0.097 -1.2609 -0.7172  3.1549
  207MOL0     H27920   9.913  12.030   0.181  2.1268  0.2312 -1.3754
  207MOL0     H27921  10.022  12.070  -0.050 -1.8598  4.1388  0.7658
  207MOL0     H27922   9.875  12.140  -0.016 -0.0426  0.3493  0.2174
  207MOL0     H27923   9.913  12.026  -0.241  3.0319 -1.3646  1.2161
  207MOL0     H27924   9.923  11.877  -0.160  0.0332  0.2767 -2.9937
  207MOL0     H27925   9.697  11.382   0.337 -1.3222  0.0666 -1.5191
  207MOL0     H27926   9.566  11.140   0.379  0.2053 -2.4799  0.2636
  207MOL0     H27927   9.513  10.861   0.659 -0.7824 -0.9886 -2.0972
  207MOL0     H27928   9.344  10.705   0.734  0.6722  0.5144  1.4525
  207MOL0     H27929   8.105  10.441   1.361  0.5629 -0.4899 -0.7831
  207MOL0     H27930   7.994  10.529   1.557  1.2884 -0.0712  0.6013
  207MOL0     H27931   8.030  10.899   1.854  0.2458 -1.4637 -0.3427
  207MOL0     H27932   8.010  10.928   2.073  0.1282  1.7534 -2.3589
  207MOL0     H27933   7.968  10.974   2.285  2.0351 -0.1778  1.2949
  207MOL0     H27934   8.016  10.811   2.292  0.2286  1.5718 -2.8032
  207MOL0     H27935   7.976  10.890   2.525  0.8249 -2.7780  0.0543
  207MOL0     H27936   7.882  10.756   2.482  0.3893 -0.2746  0.5659
  207MOL0     H27937   7.672  10.876   2.460 -0.6749  1.1493  1.1629
  207MOL0     H27938   7.754  11.034   2.468 -1.8633 -0.4009 -0.3218
  207MOL0     H27939   7.726  10.815   2.687 -0.3250 -0.3458 -1.8382
  207MOL0     H27940   7.820  10.965   2.713 -1.1882  0.2399  2.1982
  207MOL0     H27941   7.428  11.099   2.766  0.8287  2.6652 -0.7266
  207MOL0     H27942   7.624  10.748   2.093  3.3044 -4.4071  1.4934
  207MOL0     H27943   7.540  10.652   1.888  3.2127 -0.7021  3.3476
  207MOL0     H27944   7.564  10.766   1.749 -4.4789  0.8553  2.2818
  207MOL0     H27945   7.659  10.605   1.777 -0.3188 -1.0926  2.8246
  208MOL0     O27946   4.128   9.274   0.985 -0.3157  0.3637  0.5035
  208MOL0     C27947   4.095   9.160   1.006 -0.0815  0.0362  0.6435
  208MOL0     O27948   4.058   9.108   1.124  0.5934 -0.0295  0.2925
  208MOL0     C27949   4.099   9.173   1.234  0.8865  0.2267 -0.2221
  208MOL0     C27950   4.225   9.233   1.264  0.5665  0.0011 -0.1672
  208MOL0     C27951   4.252   9.267   1.398 -0.0558  0.8732  0.2647
  208MOL0     C27952   4.163   9.246   1.504  0.1009  0.3045 -0.2751
  208MOL0     O27953   4.183   9.283   1.634 -0.0471 -0.1082 -0.5317
  208MOL0     C27954   4.303   9.355   1.666  0.1115 -0.1891 -0.3735
  208MOL0     C27955   4.322   9.368   1.820  0.1812 -0.7202 -0.5148
  208MOL0     C27956   4.337   9.240   1.897  0.3032 -0.2606  0.6838
  208MOL0     C27957   4.192   9.202   1.940  0.0125 -0.1513 -0.5751
  208MOL0     C27958   4.194   9.063   1.992 -0.1866 -0.6532 -0.3579
  208MOL0     C27959   4.195   8.950   1.889 -0.2460 -0.4177 -0.0296
  208MOL0     C27960   4.063   8.923   1.825  0.2971  0.1134  0.0885
  208MOL0     C27961   4.074   8.802   1.728  0.7848  0.6097 -0.3575
  208MOL0     N27962   4.113   8.668   1.788 -0.0948  0.4204 -0.0289
  208MOL0     C27963   4.026   8.574   1.841 -0.3302  0.5856  0.7153
  208MOL0     C27964   4.105   8.465   1.881 -0.6167 -0.6113 -0.3217
  208MOL0     C27965   4.059   8.342   1.953  0.6601  0.2423  0.6859
  208MOL0     C27966   4.049   8.213   1.860  0.0433 -1.1385 -0.2603
  208MOL0     C27967   3.995   8.103   1.951 -0.5850 -0.4168  0.2859
  208MOL0     C27968   4.004   7.960   1.882 -0.7414  0.6664  0.3168
  208MOL0     O27969   3.906   7.876   1.946 -0.1535  0.7784  1.3591
  208MOL0     C27970   3.924   7.736   1.944 -0.3368 -0.0089  0.3481
  208MOL0     C27971   4.013   7.667   1.860  0.2653 -0.0981  0.1086
  208MOL0     C27972   4.047   7.520   1.865 -0.0041  0.8536 -0.1316
  208MOL0     C27973   3.959   7.445   1.941  0.5409  0.9933 -0.6400
  208MOL0     C27974   3.980   7.295   1.929  0.9111 -0.5337 -0.6103
  208MOL0     O27975   4.109   7.251   1.895  0.2784  0.3814 -0.4962
  208MOL0     C27976   4.112   7.126   1.843 -0.3633  0.5425  0.1842
  208MOL0     C27977   4.132   7.117   1.707  1.1279 -0.0544  0.2549
  208MOL0     C27978   4.136   6.992   1.649 -0.1317  0.0821 -0.9387
  208MOL0     C27979   4.126   6.873   1.715  0.6744 -1.2316 -0.0095
  208MOL0     O27980   4.139   6.749   1.658  0.1306  0.2997  0.2924
  208MOL0     C27981   4.037   6.729   1.556  0.3856  0.4053  0.1859
  208MOL0     C27982   4.089   6.633   1.451  0.2842  0.6334  0.0409
  208MOL0     C27983   3.976   6.601   1.355 -0.0297 -0.0988  0.5974
  208MOL0     C27984   3.952   6.709   1.250  0.6630 -0.5310 -0.1406
  208MOL0     C27985   3.867   6.659   1.124 -0.3356 -0.7601 -0.0094
  208MOL0     C27986   3.732   6.613   1.184 -0.1216  0.2634  1.1863
  208MOL0     C27987   3.631   6.579   1.077 -0.8958 -0.9014 -0.0025
  208MOL0     C27988   3.672   6.482   0.981  0.6979 -0.2650  0.2629
  208MOL0    Cl27989   3.519   6.430   0.915 -1.0655  0.2127  0.1192
  208MOL0     C27990   4.104   6.884   1.849  0.5446  0.5910 -0.0946
  208MOL0     C27991   4.093   7.004   1.909  0.9801 -0.6268 -0.2260
  208MOL0     O27992   3.869   7.236   1.934 -0.3035 -0.0732  0.0982
  208MOL0     C27993   3.866   7.507   2.028  0.7474  0.4819 -0.3727
  208MOL0     C27994   3.860   7.653   2.041  0.2338  1.2103  0.1751
  208MOL0     N27995   4.241   8.502   1.860 -0.5977  0.5479 -1.0800
  208MOL0     N27996   4.239   8.619   1.809 -1.0773 -0.6399 -0.0101
  208MOL0     C27997   4.035   9.188   1.475 -0.0366 -0.4276 -0.3925
  208MOL0     C27998   4.007   9.154   1.342 -1.4115 -0.4772  0.1588
  208MOL0     C27999   4.119   9.066   0.889 -0.0783  0.7122 -0.7053
  208MOL0     C28000   4.079   9.113   0.764  0.3567  0.4886  0.1951
  208MOL0     C28001   4.073   9.033   0.651  0.4485  0.8846 -0.4863
  208MOL0     C28002   4.132   8.903   0.660 -0.9244 -0.3469  0.1661
  208MOL0     O28003   4.146   8.808   0.562 -0.2703  0.1364 -0.3806
  208MOL0     C28004   4.029   8.778   0.481 -0.5015 -0.4374  0.0039
  208MOL0     C28005   4.073   8.670   0.377  0.4018 -0.1392  0.0992
  208MOL0     C28006   4.114   8.534   0.432  0.1240 -0.3028 -1.2353
  208MOL0     C28007   4.156   8.426   0.331  0.1721 -0.2197  0.8374
  208MOL0     C28008   4.294   8.442   0.271 -1.1225  0.1281  0.0780
  208MOL0     C28009   4.395   8.459   0.213 -0.7405  0.7105  0.3535
  208MOL0     C28010   4.194   8.867   0.782 -0.7141  0.7101 -0.5849
  208MOL0     C28011   4.177   8.935   0.901 -0.6949  0.1782  1.3271
  208MOL0     C28012   4.240   8.886   1.025 -1.2525  0.6217 -0.3484
  208MOL0     H28013   4.294   9.264   1.186  0.9650 -0.6277 -0.0762
  208MOL0     H28014   4.349   9.316   1.405  0.8646  0.0263 -3.9349
  208MOL0     H28015   4.387   9.295   1.629 -1.1011 -2.7145  0.8001
  208MOL0     H28016   4.307   9.449   1.610  0.5339 -1.0169 -1.7971
  208MOL0     H28017   4.245   9.435   1.857  0.7073  1.4253 -3.0375
  208MOL0     H28018   4.413   9.420   1.853  0.2195 -0.4806 -1.0009
  208MOL0     H28019   4.402   9.259   1.983 -0.1078  0.6140  0.8090
  208MOL0     H28020   4.380   9.159   1.837 -0.7852 -0.7709  0.5680
  208MOL0     H28021   4.174   9.276   2.019  1.2545  2.0452 -2.2090
  208MOL0     H28022   4.119   9.210   1.858 -0.3252 -0.4871 -0.3078
  208MOL0     H28023   4.280   9.064   2.059  0.4713  1.7990 -1.1199
  208MOL0     H28024   4.105   9.039   2.050 -0.2571 -3.5439 -1.4818
  208MOL0     H28025   4.274   8.974   1.817 -0.4564 -2.5723 -1.0532
  208MOL0     H28026   4.222   8.865   1.951 -0.6551  2.4260  4.4646
  208MOL0     H28027   4.013   9.013   1.788 -0.3956  2.3308  5.4846
  208MOL0     H28028   4.003   8.887   1.909  2.3713 -1.4832  0.9918
  208MOL0     H28029   3.974   8.796   1.684 -0.3807  0.5584  2.1368
  208MOL0     H28030   4.144   8.835   1.650 -3.2184  3.1266 -3.2686
  208MOL0     H28031   3.920   8.590   1.859 -0.6152  1.2085 -1.3438
  208MOL0     H28032   4.116   8.321   2.043 -2.2158 -1.5389  2.2537
  208MOL0     H28033   3.961   8.367   1.994  0.1429 -0.2829 -0.1894
  208MOL0     H28034   3.972   8.231   1.785 -1.5383 -1.1938  1.2833
  208MOL0     H28035   4.145   8.195   1.811 -0.5853 -1.2189 -1.4935
  208MOL0     H28036   3.892   8.116   1.988 -0.2177 -0.2720  1.2731
  208MOL0     H28037   4.062   8.107   2.037  1.6843  2.8030 -1.4196
  208MOL0     H28038   4.104   7.920   1.904 -1.2679 -0.3541  0.9240
  208MOL0     H28039   3.982   7.969   1.775 -2.2057 -2.8688  0.1755
  208MOL0     H28040   4.077   7.724   1.792 -1.9864  0.5042 -1.6299
  208MOL0     H28041   4.141   7.491   1.820  0.3271  0.9021  0.5172
  208MOL0     H28042   4.139   7.203   1.641 -2.5447  1.9019  2.0897
  208MOL0     H28043   4.152   6.987   1.542 -0.0668 -0.3054 -0.9118
  208MOL0     H28044   3.958   6.671   1.605  1.5665  0.5800  2.4153
  208MOL0     H28045   3.998   6.819   1.507 -1.0760  1.6558  3.4304
  208MOL0     H28046   4.179   6.669   1.399  2.8985 -0.9224  3.1196
  208MOL0     H28047   4.122   6.538   1.493 -0.9424  0.3740  0.4480
  208MOL0     H28048   3.995   6.501   1.315 -2.0836 -0.5082  0.5297
  208MOL0     H28049   3.885   6.595   1.415  0.7827 -2.9359  1.7056
  208MOL0     H28050   4.054   6.739   1.225  1.7899 -1.3473  2.9453
  208MOL0     H28051   3.898   6.792   1.296  1.7727  0.9668 -1.4316
  208MOL0     H28052   3.901   6.580   1.056  0.1025  0.3520 -1.1181
  208MOL0     H28053   3.843   6.747   1.063  0.5039 -0.5993 -0.1257
  208MOL0     H28054   3.734   6.541   1.266  0.6724  1.7971  2.5732
  208MOL0     H28055   3.691   6.705   1.225  1.2096  2.7705 -2.5585
  208MOL0     H28056   3.626   6.669   1.014 -1.2424  0.6499  2.1197
  208MOL0     H28057   3.534   6.556   1.122 -1.1390 -0.4802 -0.2951
  208MOL0     H28058   3.733   6.529   0.903 -2.5235  0.3652 -2.1055
  208MOL0     H28059   3.727   6.400   1.029 -1.3336 -3.3336 -2.2044
  208MOL0     H28060   4.085   6.787   1.893  0.2061  0.3560 -0.7487
  208MOL0     H28061   4.059   7.015   2.012  0.4162  1.0425 -0.5521
  208MOL0     H28062   3.803   7.436   2.082  2.4574 -4.3080 -3.8878
  208MOL0     H28063   3.805   7.701   2.122 -2.4880  1.2427 -1.5693
  208MOL0     H28064   3.971   9.164   1.560 -1.2242  2.8374 -0.2335
  208MOL0     H28065   3.916   9.096   1.328 -1.4467 -0.7242  1.3105
  208MOL0     H28066   4.033   9.211   0.766 -1.0882  0.0893 -3.7025
  208MOL0     H28067   4.026   9.078   0.564  0.2097 -0.2996 -0.9918
  208MOL0     H28068   4.005   8.865   0.420  0.9227  1.8336  2.4943
  208MOL0     H28069   3.948   8.740   0.544  0.8340 -0.3586  1.8274
  208MOL0     H28070   4.149   8.710   0.310 -0.5482 -1.2940 -1.7543
  208MOL0     H28071   3.983   8.649   0.318  2.5127 -0.8470 -3.0902
  208MOL0     H28072   4.030   8.485   0.481 -1.3639 -1.1767 -4.4340
  208MOL0     H28073   4.199   8.534   0.501  2.1160 -4.9869 -3.2399
  208MOL0     H28074   4.161   8.346   0.405 -0.7139 -0.7595  0.3238
  208MOL0     H28075   4.090   8.401   0.247  3.2266 -0.1251 -1.7756
  208MOL0     H28076   4.491   8.468   0.166  0.2296 -3.4750  1.0721
  208MOL0     H28077   4.240   8.768   0.780 -0.1601  0.7744  3.0086
  208MOL0     H28078   4.319   8.952   1.061  0.6268 -2.7108  2.1799
  208MOL0     H28079   4.170   8.885   1.109 -0.9738 -3.6037  0.0286
  208MOL0     H28080   4.276   8.783   1.023 -1.5567  0.4299  1.7181
  209MOL0     O28081   6.523  10.818   6.063 -0.1263  0.1890 -0.1123
  209MOL0     C28082   6.414  10.869   6.093  0.0178 -0.1296 -0.6080
  209MOL0     O28083   6.366  10.988   6.036  0.2557  1.6570  0.6183
  209MOL0     C28084   6.451  11.057   5.948  0.2282 -0.6280  1.2453
  209MOL0     C28085   6.567  11.132   5.980  0.5014 -0.0457  0.5560
  209MOL0     C28086   6.635  11.195   5.870  0.3074 -0.6451 -0.1334
  209MOL0     C28087   6.604  11.185   5.737 -0.3264  0.6632  0.0468
  209MOL0     O28088   6.669  11.253   5.640  0.4255  0.2119  0.2077
  209MOL0     C28089   6.693  11.396   5.652  0.4588  0.6213  0.0082
  209MOL0     C28090   6.660  11.474   5.520 -0.0935  0.0254 -0.1219
  209MOL0     C28091   6.744  11.419   5.402 -0.1318 -0.5280  1.3682
  209MOL0     C28092   6.716  11.495   5.272  0.7972 -0.3334  0.5104
  209MOL0     C28093   6.831  11.472   5.164 -0.1459  0.6362 -1.2544
  209MOL0     C28094   6.782  11.460   5.017  0.5639 -0.4470  0.2957
  209MOL0     C28095   6.893  11.405   4.917 -0.8869  0.3518 -1.1752
  209MOL0     C28096   6.840  11.380   4.778  0.0085  0.2522  0.6446
  209MOL0     N28097   6.800  11.234   4.767  0.0610 -0.1236 -1.0592
  209MOL0     C28098   6.885  11.129   4.755 -0.5550  0.7740 -0.6473
  209MOL0     C28099   6.817  11.016   4.740 -0.4087 -0.7150  0.7090
  209MOL0     C28100   6.884  10.876   4.717  0.2797 -0.2797 -0.1366
  209MOL0     C28101   6.904  10.845   4.570  0.8202  0.1311 -0.0883
  209MOL0     C28102   6.964  10.711   4.545 -0.3115 -0.9318  0.3433
  209MOL0     C28103   6.863  10.598   4.564  0.5065 -0.0350  0.8290
  209MOL0     O28104   6.905  10.480   4.495 -0.3351 -0.3351  0.9795
  209MOL0     C28105   6.833  10.366   4.522  0.5468  0.2174 -0.4628
  209MOL0     C28106   6.892  10.243   4.509  1.0162  0.2994 -0.2608
  209MOL0     C28107   6.826  10.120   4.536 -0.0383 -1.0445  0.7656
  209MOL0     C28108   6.685  10.127   4.578 -0.7596 -0.4911  0.3338
  209MOL0     C28109   6.611   9.998   4.582 -0.2695 -0.1216 -0.8841
  209MOL0     O28110   6.687   9.886   4.557 -0.1868  0.1657 -0.3340
  209MOL0     C28111   6.647   9.770   4.604  0.7891 -0.0134 -1.1834
  209MOL0     C28112   6.547   9.689   4.551  0.5086 -0.3832  0.7505
  209MOL0     C28113   6.514   9.564   4.610  0.4653 -0.3584  0.6287
  209MOL0     C28114   6.592   9.527   4.725  0.1501 -0.3776 -0.2670
  209MOL0     O28115   6.580   9.404   4.780  0.1981 -0.7804  0.2813
  209MOL0     C28116   6.442   9.357   4.812  0.4729  0.3973  0.0374
  209MOL0     C28117   6.433   9.239   4.895  0.6387 -0.4871 -0.3364
  209MOL0     C28118   6.282   9.212   4.919 -0.4380  0.0146 -0.4652
  209MOL0     C28119   6.265   9.070   4.943 -1.1965  0.5193 -0.6417
  209MOL0     C28120   6.292   9.008   5.085 -0.5963 -0.3539 -0.3608
  209MOL0     C28121   6.195   9.046   5.203 -0.7518  0.2768 -0.3544
  209MOL0     C28122   6.071   8.957   5.215  0.6459  0.1504 -0.3392
  209MOL0     C28123   5.979   9.000   5.333 -0.5412  0.7831  0.7650
  209MOL0    Cl28124   5.826   8.908   5.320 -0.0073 -0.0808  0.3040
  209MOL0     C28125   6.687   9.611   4.776  0.2067 -0.4946 -0.3469
  209MOL0     C28126   6.723   9.720   4.711 -0.1864  0.3704  0.6724
  209MOL0     O28127   6.492   9.988   4.621  0.0202 -0.3191  0.0217
  209MOL0     C28128   6.619  10.254   4.592  0.0045  0.2889  0.2021
  209MOL0     C28129   6.694  10.371   4.563  0.6046  0.3836 -0.4291
  209MOL0     N28130   6.678  11.048   4.721 -0.5705  0.3577 -0.4377
  209MOL0     N28131   6.676  11.176   4.749 -0.8571  0.6228  0.1816
  209MOL0     C28132   6.488  11.103   5.713 -0.4539 -0.1030 -0.2458
  209MOL0     C28133   6.415  11.045   5.814  0.1717  0.2141 -0.7119
  209MOL0     C28134   6.332  10.790   6.185  1.1031  1.1142  0.0304
  209MOL0     C28135   6.218  10.727   6.141 -0.5042 -0.3389  0.8365
  209MOL0     C28136   6.154  10.623   6.215 -0.5681  0.6288 -0.6017
  209MOL0     C28137   6.206  10.597   6.346 -0.1410  0.1229 -0.8621
  209MOL0     O28138   6.146  10.497   6.425 -0.7685 -0.3378 -0.3692
  209MOL0     C28139   6.013  10.528   6.473 -0.2105  0.2930 -0.3006
  209MOL0     C28140   6.012  10.642   6.569  0.3021 -0.7342  1.1040
  209MOL0     C28141   6.104  10.632   6.679 -0.6082  0.9868  0.9768
  209MOL0     C28142   6.046  10.614   6.813 -0.2343  0.0025  0.5774
  209MOL0     C28143   5.990  10.482   6.816 -0.3696 -0.5807 -0.5760
  209MOL0     C28144   5.941  10.373   6.832  0.2420 -0.0252 -0.3350
  209MOL0     C28145   6.312  10.677   6.399  0.3352 -0.5298  0.3991
  209MOL0     C28146   6.382  10.766   6.315  0.6068  0.2870  0.1007
  209MOL0     C28147   6.515  10.811   6.370  0.3600 -0.2322 -0.7063
  209MOL0     H28148   6.598  11.156   6.081 -2.9913 -1.5182  2.1369
  209MOL0     H28149   6.715  11.265   5.890  0.1137  0.1220 -1.8452
  209MOL0     H28150   6.638  11.440   5.735 -0.9488  0.0871 -0.6002
  209MOL0     H28151   6.802  11.397   5.661  0.6289  0.9204 -1.6655
  209MOL0     H28152   6.662  11.582   5.538  0.9671  0.1863 -1.0845
  209MOL0     H28153   6.558  11.437   5.503  0.6679 -2.1792 -0.2271
  209MOL0     H28154   6.734  11.313   5.376 -0.0926  0.1208 -1.6706
  209MOL0     H28155   6.852  11.420   5.416  0.1930  0.2518 -0.7767
  209MOL0     H28156   6.614  11.471   5.240 -0.5543  3.3473  1.5525
  209MOL0     H28157   6.716  11.600   5.302  0.0389 -0.5798  1.3868
  209MOL0     H28158   6.915  11.541   5.177 -2.0938  3.5246 -2.9591
  209MOL0     H28159   6.880  11.375   5.178 -1.0253  0.4805  1.2684
  209MOL0     H28160   6.698  11.391   5.008  1.0804 -1.0504  0.0183
  209MOL0     H28161   6.744  11.560   4.995  0.9212  0.2063  2.4459
  209MOL0     H28162   6.946  11.313   4.941  1.8080  0.8954 -4.2268
  209MOL0     H28163   6.970  11.483   4.908  0.9674 -1.3783 -1.0507
  209MOL0     H28164   6.765  11.453   4.746  0.6900 -0.3158 -2.6417
  209MOL0     H28165   6.929  11.388   4.714 -0.1942  0.4317  0.3827
  209MOL0     H28166   6.993  11.138   4.755 -0.5123  0.4382  0.7798
  209MOL0     H28167   6.984  10.872   4.760  1.3320  0.1018 -2.4020
  209MOL0     H28168   6.820  10.801   4.764 -1.5902  0.0239 -2.0512
  209MOL0     H28169   6.806  10.842   4.521  1.7330 -0.3460 -1.9598
  209MOL0     H28170   6.968  10.926   4.534  1.2039  1.4443  3.1980
  209MOL0     H28171   7.044  10.694   4.619 -1.7326  1.2852  2.5577
  209MOL0     H28172   6.987  10.716   4.438 -3.9381 -1.2079 -0.5512
  209MOL0     H28173   6.765  10.634   4.531  0.3152 -1.7778 -0.6646
  209MOL0     H28174   6.859  10.590   4.673 -0.2291  0.6047  0.8594
  209MOL0     H28175   6.997  10.240   4.481  1.1819 -2.7267  0.3297
  209MOL0     H28176   6.880  10.029   4.510  0.0181 -1.0759  0.9849
  209MOL0     H28177   6.510   9.711   4.452  1.6198 -0.8084  0.2209
  209MOL0     H28178   6.444   9.495   4.564  1.3818 -0.5254 -0.5626
  209MOL0     H28179   6.384   9.434   4.865  1.4858  0.3670  1.2300
  209MOL0     H28180   6.387   9.341   4.719  0.0746  1.3144  0.1040
  209MOL0     H28181   6.465   9.159   4.828  2.8368 -1.4782  1.7928
  209MOL0     H28182   6.493   9.235   4.986  0.3738  4.7453  0.3684
  209MOL0     H28183   6.232   9.276   4.993 -0.9380 -0.3401 -0.4914
  209MOL0     H28184   6.215   9.231   4.835 -2.0132 -2.4864  0.0903
  209MOL0     H28185   6.315   9.015   4.862 -1.6336  0.0981 -0.6311
  209MOL0     H28186   6.160   9.045   4.929 -1.5924  1.9815 -0.4359
  209MOL0     H28187   6.390   9.035   5.125 -0.4222 -1.1581 -0.2137
  209MOL0     H28188   6.300   8.899   5.079  2.7400 -0.1374 -2.0866
  209MOL0     H28189   6.246   9.050   5.300 -0.7868  1.1125 -0.3703
  209MOL0     H28190   6.161   9.149   5.192 -4.0027  0.2036  5.1111
  209MOL0     H28191   6.107   8.854   5.225 -0.7407 -0.1752  2.1115
  209MOL0     H28192   6.020   8.966   5.118  3.4862  0.3011 -1.9221
  209MOL0     H28193   6.035   8.974   5.423  2.4161  2.1713 -0.5233
  209MOL0     H28194   5.962   9.107   5.347 -0.2621  0.4283  4.7568
  209MOL0     H28195   6.744   9.591   4.865  2.2594  0.8294 -1.3035
  209MOL0     H28196   6.800   9.773   4.767  1.2152 -0.5604 -0.3312
  209MOL0     H28197   6.512  10.256   4.609 -0.9693 -3.5470 -3.7251
  209MOL0     H28198   6.651  10.470   4.573  1.3994  0.5052  3.5032
  209MOL0     H28199   6.444  11.086   5.615 -0.6938 -1.8756  0.1271
  209MOL0     H28200   6.316  11.003   5.806  0.4045 -0.4016 -0.3767
  209MOL0     H28201   6.172  10.757   6.047  1.5696  2.3346  0.5330
  209MOL0     H28202   6.061  10.578   6.181  0.1604 -1.0720 -0.4504
  209MOL0     H28203   5.975  10.435   6.516  3.6009 -0.3085  2.2672
  209MOL0     H28204   5.949  10.551   6.387 -1.3144 -1.0639  0.1324
  209MOL0     H28205   5.908  10.649   6.604  0.8256 -1.6286  2.9746
  209MOL0     H28206   6.040  10.737   6.522 -0.7129 -0.9823 -0.0535
  209MOL0     H28207   6.172  10.717   6.692  2.6660 -0.9324 -1.8719
  209MOL0     H28208   6.167  10.548   6.648 -1.9452  1.6545 -4.8001
  209MOL0     H28209   6.125  10.632   6.885  0.3780 -0.0637 -0.0655
  209MOL0     H28210   5.967  10.689   6.831 -0.7589 -0.8920  2.2334
  209MOL0     H28211   5.896  10.276   6.830  1.6996 -0.7413  0.2084
  209MOL0     H28212   6.346  10.666   6.501 -1.2153 -1.2250  0.8728
  209MOL0     H28213   6.595  10.762   6.314 -0.0795  0.5071 -1.9916
  209MOL0     H28214   6.532  10.919   6.367 -0.3801 -0.0123  1.1260
  209MOL0     H28215   6.524  10.780   6.475 -1.2834  0.2507 -0.3928
  210MOL0     O28216   9.946   9.656   6.326 -0.4939  1.2159 -0.3533
  210MOL0     C28217   9.941   9.541   6.285 -0.5004 -0.1494  0.0205
  210MOL0     O28218   9.897   9.506   6.165 -0.4607  0.6756 -0.4305
  210MOL0     C28219   9.860   9.597   6.066 -0.2996  0.4898  0.9748
  210MOL0     C28220   9.893   9.730   6.054  0.0545  0.9151 -0.3276
  210MOL0     C28221   9.851   9.812   5.953 -0.2894 -0.3186  0.0829
  210MOL0     C28222   9.784   9.761   5.845  0.3931  0.8466  0.1705
  210MOL0     O28223   9.739   9.854   5.760  0.1237  0.3983 -0.5434
  210MOL0     C28224   9.796   9.838   5.627  0.3844  0.2644  0.0622
  210MOL0     C28225   9.931   9.904   5.607  0.3251  0.6372 -0.7594
  210MOL0     C28226   9.933  10.050   5.605 -1.1938  0.3364 -1.4005
  210MOL0     C28227   9.865  10.125   5.495 -0.0560 -0.1670  0.0256
  210MOL0     C28228   9.832  10.262   5.540 -0.8859  0.5740  0.4101
  210MOL0     C28229   9.950  10.344   5.596  1.1337 -0.1000  0.0381
  210MOL0     C28230  10.064  10.378   5.504 -0.0174 -0.7681  0.3149
  210MOL0     C28231  10.169  10.464   5.585  0.2876  0.6318 -1.0208
  210MOL0     N28232  10.253  10.555   5.502 -0.4970  0.2179 -0.5375
  210MOL0     C28233  10.274  10.686   5.542 -1.0744 -0.1884  0.2973
  210MOL0     C28234  10.325  10.749   5.428 -0.1076  0.7234  0.1919
  210MOL0     C28235  10.358  10.893   5.417 -0.3811 -0.1211 -1.0145
  210MOL0     C28236  10.227  10.972   5.390 -0.0820  0.2616 -0.2569
  210MOL0     C28237  10.159  10.940   5.259 -0.1678  0.3377  0.5381
  210MOL0     C28238  10.241  10.984   5.140 -0.5048 -0.4617 -0.8524
  210MOL0     O28239  10.181  10.939   5.018 -0.6507  0.0852  0.5734
  210MOL0     C28240  10.145  11.030   4.933 -0.4674  0.1708 -0.5931
  210MOL0     C28241  10.207  11.158   4.920 -0.1880 -0.3808  0.0600
  210MOL0     C28242  10.168  11.255   4.825  0.5188  0.1741  0.4815
  210MOL0     C28243  10.079  11.210   4.728 -0.0053  0.6867 -1.3549
  210MOL0     C28244  10.052  11.294   4.613 -0.4356 -0.6967 -1.1388
  210MOL0     O28245   9.926  11.279   4.560  0.3409 -0.8695  0.3149
  210MOL0     C28246   9.890  11.374   4.467  0.6446  0.0366  0.8835
  210MOL0     C28247   9.792  11.473   4.507 -0.1838  0.3829 -0.0678
  210MOL0     C28248   9.744  11.568   4.413  0.3221 -0.4121  0.3825
  210MOL0     C28249   9.796  11.584   4.282 -0.8036  0.8847 -1.2533
  210MOL0     O28250   9.753  11.693   4.212 -0.4013  0.2269  0.6065
  210MOL0     C28251   9.817  11.714   4.076  0.6894  0.0389  0.5638
  210MOL0     C28252   9.789  11.864   4.054 -0.9506 -0.7586  0.4282
  210MOL0     C28253   9.819  11.895   3.909  0.4632  1.0575  0.4099
  210MOL0     C28254   9.837  12.048   3.894  0.8889  0.9405  0.1585
  210MOL0     C28255   9.716  12.124   3.937  0.8895 -0.0440  0.6787
  210MOL0     C28256   9.603  12.121   3.832 -0.4205  0.6979 -0.8838
  210MOL0     C28257   9.488  12.192   3.887 -0.0791 -0.8813  0.1871
  210MOL0     C28258   9.378  12.200   3.787 -0.1260  0.2972  0.7229
  210MOL0    Cl28259   9.236  12.291   3.850 -0.3803  0.0765 -0.5291
  210MOL0     C28260   9.904  11.501   4.249  0.0742  0.7786  0.5348
  210MOL0     C28261   9.946  11.396   4.336  0.1003 -0.1489 -0.4162
  210MOL0     O28262  10.134  11.381   4.586 -0.6410 -0.7059  0.4443
  210MOL0     C28263  10.016  11.080   4.736 -0.7478 -1.1582 -0.4196
  210MOL0     C28264  10.052  10.986   4.839 -0.1879 -0.0284  0.3741
  210MOL0     N28265  10.346  10.646   5.329  0.4996  0.1123 -1.0501
  210MOL0     N28266  10.293  10.531   5.373 -0.1787  0.3033 -0.2577
  210MOL0     C28267   9.758   9.619   5.840 -0.7330 -0.9724  0.9958
  210MOL0     C28268   9.793   9.542   5.955  0.2158 -0.1755  0.8230
  210MOL0     C28269   9.985   9.426   6.367  0.1221  0.6042 -0.3150
  210MOL0     C28270   9.906   9.308   6.384  0.0264  0.6031 -0.8367
  210MOL0     C28271   9.940   9.203   6.472 -0.2695 -0.6741 -0.3851
  210MOL0     C28272  10.063   9.216   6.533  0.4025  1.0209  0.3020
  210MOL0     O28273  10.112   9.104   6.609  1.0052  0.2805 -0.8803
  210MOL0     C28274  10.022   8.994   6.629  0.4347  0.2048  0.6770
  210MOL0     C28275  10.060   8.883   6.731  1.0425 -0.7266  1.4743
  210MOL0     C28276  10.030   8.935   6.871 -0.2856  0.2218  1.1408
  210MOL0     C28277  10.095   8.846   6.984 -0.6467 -0.7055  0.0691
  210MOL0     C28278  10.078   8.699   6.960 -0.8318 -0.4120  0.3265
  210MOL0     C28279  10.069   8.578   6.935 -0.0850 -0.1479  0.0576
  210MOL0     C28280  10.149   9.326   6.515  0.2980 -0.0570  0.4452
  210MOL0     C28281  10.110   9.434   6.433  0.1319  1.2265 -0.4953
  210MOL0     C28282  10.209   9.550   6.416  0.2181  0.5429  0.3152
  210MOL0     H28283   9.949   9.788   6.126 -2.0237  0.4782  1.7636
  210MOL0     H28284   9.863   9.919   5.964 -1.0546 -0.3690  1.7116
  210MOL0     H28285   9.803   9.738   5.583 -1.1429  1.3390 -2.8912
  210MOL0     H28286   9.719   9.892   5.572 -0.5087  0.5061  1.5013
  210MOL0     H28287   9.979   9.865   5.517  2.2848 -1.2376  0.9756
  210MOL0     H28288  10.006   9.872   5.681  1.1575  1.9895 -0.9885
  210MOL0     H28289  10.041  10.070   5.595 -1.4526  1.5999 -1.7886
  210MOL0     H28290   9.908  10.091   5.703  2.5939 -0.3369  0.0565
  210MOL0     H28291   9.933  10.132   5.410  2.1881 -0.5329  1.6751
  210MOL0     H28292   9.765  10.091   5.467 -2.0357  3.0545  2.3884
  210MOL0     H28293   9.780  10.314   5.459  0.4021  0.4375 -0.5235
  210MOL0     H28294   9.758  10.243   5.619 -2.2631 -2.5695 -1.4681
  210MOL0     H28295   9.912  10.435   5.642 -0.9834 -0.4400 -0.9028
  210MOL0     H28296   9.987  10.291   5.684 -2.1985 -1.6592  0.6536
  210MOL0     H28297  10.038  10.432   5.413  2.5781 -1.4504 -0.9471
  210MOL0     H28298  10.118  10.286   5.478  2.7390  0.7825  0.0562
  210MOL0     H28299  10.119  10.516   5.667  0.1137 -0.2537 -0.5465
  210MOL0     H28300  10.235  10.398   5.643 -1.4536 -0.1160  0.2032
  210MOL0     H28301  10.249  10.738   5.634 -0.0555  0.2895  0.3165
  210MOL0     H28302  10.396  10.930   5.512 -0.1095  1.3596 -1.6674
  210MOL0     H28303  10.432  10.910   5.338  0.1600  1.9036 -0.1575
  210MOL0     H28304  10.156  10.948   5.469 -0.3427 -0.2865 -0.6534
  210MOL0     H28305  10.244  11.080   5.396 -0.2988  0.2203  2.3852
  210MOL0     H28306  10.070  11.003   5.254 -0.2107  0.2524  0.2241
  210MOL0     H28307  10.142  10.834   5.238  1.9769  0.1757 -0.5950
  210MOL0     H28308  10.345  10.953   5.154  0.1696  2.2682  0.8514
  210MOL0     H28309  10.242  11.093   5.153  0.2800 -0.4976 -0.5290
  210MOL0     H28310  10.282  11.182   4.995 -0.7831  2.8665 -0.2489
  210MOL0     H28311  10.218  11.351   4.819  4.0875 -1.4338  1.5950
  210MOL0     H28312   9.751  11.470   4.607 -0.1553  4.1427  0.1653
  210MOL0     H28313   9.664  11.632   4.450  2.2136  2.3500 -0.0163
  210MOL0     H28314   9.925  11.699   4.069  0.3832 -1.6934 -1.6101
  210MOL0     H28315   9.764  11.658   3.998  0.2508 -1.6700  2.0208
  210MOL0     H28316   9.681  11.881   4.062 -1.1986 -0.6363 -2.1020
  210MOL0     H28317   9.847  11.920   4.128 -1.4810 -1.8815  1.7391
  210MOL0     H28318   9.913  11.858   3.867 -1.4568 -0.0403 -3.4066
  210MOL0     H28319   9.748  11.854   3.836  2.2165  1.8231 -1.8784
  210MOL0     H28320   9.862  12.061   3.788 -1.3058 -0.3014 -0.5782
  210MOL0     H28321   9.916  12.086   3.961  1.0390  0.4335  0.2686
  210MOL0     H28322   9.741  12.230   3.947  0.4831  0.1809 -0.5208
  210MOL0     H28323   9.683  12.099   4.039  3.1657 -1.4092  1.1547
  210MOL0     H28324   9.637  12.163   3.737 -3.7500  0.7825 -2.1566
  210MOL0     H28325   9.572  12.019   3.810 -0.6251  0.8266 -1.1991
  210MOL0     H28326   9.503  12.292   3.927 -1.7071 -0.6039  0.1821
  210MOL0     H28327   9.451  12.132   3.971 -1.4634  2.4972  2.1811
  210MOL0     H28328   9.425  12.254   3.704  1.9985  1.2112  2.4265
  210MOL0     H28329   9.348  12.101   3.752 -2.2983  1.9960 -2.7504
  210MOL0     H28330   9.952  11.516   4.153  0.7881  2.3058  1.0903
  210MOL0     H28331  10.030  11.327   4.324  0.4922  0.1523  0.5270
  210MOL0     H28332   9.935  11.048   4.670 -1.2165 -2.1919  0.6247
  210MOL0     H28333  10.011  10.887   4.859  1.6912 -0.4347  2.5726
  210MOL0     H28334   9.726   9.563   5.753 -2.2702  3.1773 -1.4343
  210MOL0     H28335   9.784   9.434   5.961  2.2506 -0.3765  1.0956
  210MOL0     H28336   9.810   9.291   6.336 -0.6499 -0.6647  0.8519
  210MOL0     H28337   9.865   9.131   6.505 -0.3175  0.1506  1.4209
  210MOL0     H28338  10.020   8.944   6.532 -0.6152 -1.4441  1.5186
  210MOL0     H28339   9.929   9.043   6.660  0.5713  0.6573  0.3926
  210MOL0     H28340  10.167   8.862   6.723  1.7053  2.6052 -1.1827
  210MOL0     H28341  10.012   8.785   6.721 -2.7018  1.1590 -2.2749
  210MOL0     H28342   9.922   8.941   6.887 -0.6560 -1.1677 -0.5493
  210MOL0     H28343  10.073   9.036   6.879  0.8762  0.2550 -3.2217
  210MOL0     H28344  10.204   8.859   6.978 -0.5722 -0.9733  0.7177
  210MOL0     H28345  10.067   8.872   7.087  1.2670 -0.7952  0.6626
  210MOL0     H28346  10.043   8.477   6.913  2.2748 -0.6197 -0.9392
  210MOL0     H28347  10.244   9.317   6.566 -0.5548 -0.2580  2.0649
  210MOL0     H28348  10.312   9.512   6.422  0.3485  0.5064 -1.5407
  210MOL0     H28349  10.199   9.596   6.317 -1.5717  1.6301  0.9599
  210MOL0     H28350  10.197   9.626   6.493  1.7002 -0.4125  1.5695
  211MOL0     O28351   5.444   7.294  11.482 -0.3835  0.0898  0.0274
  211MOL0     C28352   5.436   7.183  11.422  0.3687 -0.3903  0.0439
  211MOL0     O28353   5.312   7.130  11.373 -0.4120 -0.2655  0.1629
  211MOL0     C28354   5.218   7.217  11.352  0.2840  0.0926 -1.4586
  211MOL0     C28355   5.177   7.247  11.227  0.4230  0.3953  0.3162
  211MOL0     C28356   5.066   7.332  11.204  0.2539  0.9716 -0.0627
  211MOL0     C28357   4.990   7.378  11.309  0.3384  0.0416 -0.2637
  211MOL0     O28358   4.887   7.442  11.278 -0.0214 -0.1214 -0.3574
  211MOL0     C28359   4.797   7.460  11.388 -0.2710  0.0347 -0.8265
  211MOL0     C28360   4.661   7.510  11.329 -0.4345  0.9281 -0.2431
  211MOL0     C28361   4.687   7.648  11.265  0.6164 -0.3664  0.8097
  211MOL0     C28362   4.729   7.759  11.358 -0.2213 -0.1930  1.0221
  211MOL0     C28363   4.753   7.890  11.274 -0.5743 -0.2970 -0.2024
  211MOL0     C28364   4.780   8.015  11.364 -0.9239 -1.0227 -0.2633
  211MOL0     C28365   4.813   8.147  11.292  0.1175  0.4578  0.3805
  211MOL0     C28366   4.849   8.263  11.395 -0.1880 -0.2565 -0.7861
  211MOL0     N28367   4.887   8.392  11.331  0.3172 -0.1404  0.8845
  211MOL0     C28368   4.856   8.435  11.201  0.2152  0.1555  0.1923
  211MOL0     C28369   4.889   8.564  11.194 -0.6908  0.4088  0.1638
  211MOL0     C28370   4.871   8.637  11.065 -0.3176  0.1109 -0.4220
  211MOL0     C28371   4.889   8.785  11.085  0.3918  0.1453 -0.2768
  211MOL0     C28372   4.875   8.861  10.949 -0.5670  0.2671 -0.0634
  211MOL0     C28373   4.742   8.832  10.879  0.8193 -0.1546  0.4011
  211MOL0     O28374   4.750   8.930  10.767  0.1453 -0.4948  0.4982
  211MOL0     C28375   4.683   9.051  10.777 -0.2577  0.5363  0.1312
  211MOL0     C28376   4.673   9.119  10.655  0.0597 -0.2462  0.0404
  211MOL0     C28377   4.598   9.237  10.649 -1.2230  0.3730  0.4714
  211MOL0     C28378   4.566   9.299  10.772 -0.1044 -0.2949 -0.1090
  211MOL0     C28379   4.495   9.426  10.772 -0.0313 -0.0524  0.3542
  211MOL0     O28380   4.484   9.496  10.653 -0.0350  0.0539  0.1224
  211MOL0     C28381   4.401   9.605  10.647 -0.0117  0.3316  0.0438
  211MOL0     C28382   4.279   9.620  10.712 -0.3189 -0.2440 -0.1074
  211MOL0     C28383   4.203   9.739  10.696 -0.8398  1.1994 -0.6674
  211MOL0     C28384   4.248   9.832  10.595  0.0573  0.7342  0.1432
  211MOL0     O28385   4.171   9.942  10.561  0.1263  0.0124  0.0526
  211MOL0     C28386   4.078   9.925  10.466  0.2103  0.6622  0.1378
  211MOL0     C28387   4.061  10.051  10.390  0.9863 -0.1106  1.7150
  211MOL0     C28388   4.006  10.040  10.247  0.1841 -0.5622 -0.2189
  211MOL0     C28389   3.964  10.183  10.211 -0.7021 -0.8430 -0.1700
  211MOL0     C28390   3.931  10.185  10.056  0.6943  0.4119 -0.0389
  211MOL0     C28391   3.784  10.150  10.031 -1.2408  0.4452  0.0827
  211MOL0     C28392   3.739  10.156   9.882  0.8389 -0.9393  0.8552
  211MOL0     C28393   3.580  10.171   9.866 -0.3973  0.3430 -0.3708
  211MOL0    Cl28394   3.546  10.342   9.841  0.2153  0.3368 -0.0263
  211MOL0     C28395   4.370   9.810  10.524  0.8838  0.7090 -0.3492
  211MOL0     C28396   4.443   9.696  10.551  0.6305 -0.0063  0.1285
  211MOL0     O28397   4.460   9.460  10.882 -0.5662 -0.4050  0.1088
  211MOL0     C28398   4.588   9.235  10.898  0.4670  0.2870  0.6241
  211MOL0     C28399   4.651   9.109  10.897  0.8387  0.4880 -0.1881
  211MOL0     N28400   4.947   8.602  11.309  0.1266 -0.9767 -0.2235
  211MOL0     N28401   4.950   8.494  11.388  0.0730 -0.4307 -0.0487
  211MOL0     C28402   5.024   7.348  11.444  0.3872  0.9321 -0.0996
  211MOL0     C28403   5.137   7.266  11.456 -0.3751  0.4810  0.8360
  211MOL0     C28404   5.558   7.097  11.403 -0.3691 -0.6766  0.1933
  211MOL0     C28405   5.554   6.988  11.309 -0.1515  0.3737  0.5908
  211MOL0     C28406   5.661   6.893  11.306 -0.1772 -0.2479  0.2069
  211MOL0     C28407   5.777   6.911  11.390 -0.9025  0.3988 -0.4484
  211MOL0     O28408   5.872   6.814  11.399  0.7795  0.9693  0.0972
  211MOL0     C28409   5.910   6.739  11.284  0.6826 -1.0454  0.9034
  211MOL0     C28410   5.842   6.599  11.279 -0.1790 -0.3497  0.2192
  211MOL0     C28411   5.899   6.526  11.404  0.2278  0.1055 -0.0855
  211MOL0     C28412   5.860   6.379  11.408  0.9963 -0.5433  0.0795
  211MOL0     C28413   5.876   6.303  11.282 -0.3667 -0.5791  0.2582
  211MOL0     C28414   5.893   6.251  11.180  0.2722 -0.4235  0.8021
  211MOL0     C28415   5.787   7.028  11.458 -0.6370  0.5585 -0.3516
  211MOL0     C28416   5.687   7.128  11.458  0.5668 -0.2359  0.6248
  211MOL0     C28417   5.707   7.249  11.539 -0.4287  0.1635 -1.1262
  211MOL0     H28418   5.230   7.204  11.142 -3.4069 -0.3862 -1.9277
  211MOL0     H28419   5.037   7.349  11.101  1.7426  2.9650 -0.2118
  211MOL0     H28420   4.781   7.362  11.434  1.2760  1.0664  2.1649
  211MOL0     H28421   4.836   7.524  11.467  1.9619 -0.1615 -1.6955
  211MOL0     H28422   4.583   7.516  11.405 -1.3487  0.6874 -1.1475
  211MOL0     H28423   4.633   7.443  11.248 -0.4499 -3.6644  3.1593
  211MOL0     H28424   4.592   7.678  11.219  2.2353  0.6026 -2.1026
  211MOL0     H28425   4.765   7.638  11.189 -2.2560 -2.2102 -2.1665
  211MOL0     H28426   4.643   7.780  11.422 -1.4142  0.9971 -0.8549
  211MOL0     H28427   4.822   7.731  11.408 -0.1287  2.0560  2.2035
  211MOL0     H28428   4.821   7.877  11.189 -0.3439  2.3808 -0.5124
  211MOL0     H28429   4.663   7.915  11.218 -0.2764 -0.8405 -0.9426
  211MOL0     H28430   4.694   8.018  11.432 -1.8793 -0.9654 -1.4445
  211MOL0     H28431   4.872   8.002  11.422 -0.4067  3.2655  0.2241
  211MOL0     H28432   4.732   8.181  11.226 -0.9990 -2.5934 -0.0014
  211MOL0     H28433   4.896   8.119  11.227  0.4526 -2.1103  1.7669
  211MOL0     H28434   4.762   8.290  11.455  0.9828 -1.0802  1.3712
  211MOL0     H28435   4.930   8.232  11.461  0.2907 -2.9580 -2.4910
  211MOL0     H28436   4.823   8.375  11.117  0.3115  0.9813 -0.4520
  211MOL0     H28437   4.940   8.597  10.990  0.2745 -2.4871  1.3575
  211MOL0     H28438   4.772   8.622  11.021 -0.5854  0.9372 -0.1249
  211MOL0     H28439   4.821   8.822  11.163  1.9933 -1.5070  2.0450
  211MOL0     H28440   4.990   8.800  11.125  0.8121 -1.2817 -0.7641
  211MOL0     H28441   4.959   8.831  10.885  1.2680 -0.5482  2.5448
  211MOL0     H28442   4.883   8.968  10.970 -1.5939  0.2875  0.2622
  211MOL0     H28443   4.655   8.861  10.939  1.2633  1.0105  0.5146
  211MOL0     H28444   4.726   8.727  10.852  2.3500 -0.7152  1.5677
  211MOL0     H28445   4.703   9.061  10.568 -1.8308 -0.5863 -0.4324
  211MOL0     H28446   4.576   9.271  10.548  4.6799 -3.2741 -2.5943
  211MOL0     H28447   4.240   9.544  10.780 -1.2901  0.1263 -0.2337
  211MOL0     H28448   4.111   9.743  10.753 -0.1420 -2.0866  1.0025
  211MOL0     H28449   4.095   9.838  10.401 -1.8028  1.5472 -1.7096
  211MOL0     H28450   3.983   9.902  10.516  0.7398  1.2221  1.4421
  211MOL0     H28451   4.003  10.115  10.457 -1.2192  0.1991 -0.3450
  211MOL0     H28452   4.157  10.103  10.375  1.0915 -0.6203  0.4761
  211MOL0     H28453   4.067  10.002  10.164  2.0147  2.8617 -0.6298
  211MOL0     H28454   3.910   9.987  10.245 -1.6222  2.4773 -0.7975
  211MOL0     H28455   4.040  10.261  10.204  1.1118 -2.6497 -3.6236
  211MOL0     H28456   3.885  10.215  10.279  0.8684  2.8249  0.1909
  211MOL0     H28457   3.999  10.120  10.001 -0.2936 -2.1684  1.6146
  211MOL0     H28458   3.939  10.287  10.017 -1.4627 -0.1431 -2.1322
  211MOL0     H28459   3.771  10.052  10.077  0.6113 -0.0918 -0.4570
  211MOL0     H28460   3.722  10.220  10.088 -1.9646  0.8031 -1.0915
  211MOL0     H28461   3.766  10.061   9.836 -0.3532 -1.6119  1.5030
  211MOL0     H28462   3.787  10.241   9.831 -0.0553 -0.2534  1.1319
  211MOL0     H28463   3.543  10.113   9.782  0.8330 -2.0920  0.6651
  211MOL0     H28464   3.528  10.140   9.957 -1.6223 -1.6707 -1.6851
  211MOL0     H28465   4.399   9.874  10.442  0.5027  0.3646 -0.7607
  211MOL0     H28466   4.518   9.676  10.475  2.9476  1.2744  1.9420
  211MOL0     H28467   4.587   9.288  10.993  3.1809  3.2728 -0.8290
  211MOL0     H28468   4.662   9.067  10.996  1.0449  1.5184  0.2347
  211MOL0     H28469   4.969   7.369  11.536 -0.7685  0.5021 -0.6763
  211MOL0     H28470   5.143   7.237  11.561 -0.7663  0.8765  0.9727
  211MOL0     H28471   5.464   6.963  11.255 -0.4245 -0.7141  1.5183
  211MOL0     H28472   5.654   6.805  11.243 -4.7706 -0.5331  0.7542
  211MOL0     H28473   6.015   6.710  11.281  1.1865  0.7672 -0.7595
  211MOL0     H28474   5.885   6.790  11.191  1.0295  1.0260  1.8905
  211MOL0     H28475   5.850   6.550  11.181  0.2515  0.5597 -0.2101
  211MOL0     H28476   5.735   6.617  11.291  0.1217  3.1327 -1.2714
  211MOL0     H28477   5.864   6.572  11.497 -1.0656  0.9742 -0.9665
  211MOL0     H28478   6.009   6.533  11.405  0.1252  2.7737  0.3696
  211MOL0     H28479   5.930   6.336  11.479  1.3073 -1.5913 -0.8182
  211MOL0     H28480   5.757   6.356  11.438  0.3691  2.8762  0.9879
  211MOL0     H28481   5.918   6.210  11.084  3.0415 -0.1454  1.3365
  211MOL0     H28482   5.870   7.040  11.528 -0.3498  1.5237 -0.8478
  211MOL0     H28483   5.644   7.252  11.628  0.6998 -0.4233 -0.2915
  211MOL0     H28484   5.807   7.257  11.582 -1.4666 -0.1482  1.5439
  211MOL0     H28485   5.705   7.341  11.479  1.5376  0.4994 -0.7123
  212MOL0     O28486   8.695   3.531   2.560  0.0391 -0.3258 -1.3059
  212MOL0     C28487   8.731   3.499   2.676 -0.3082 -0.6144  1.0185
  212MOL0     O28488   8.809   3.385   2.701  0.8400 -1.1726 -0.3869
  212MOL0     C28489   8.836   3.297   2.601 -0.6656 -0.6689  0.4970
  212MOL0     C28490   8.964   3.295   2.549 -0.9344 -0.3222 -0.0132
  212MOL0     C28491   8.993   3.213   2.438  0.0768 -0.1880 -0.0320
  212MOL0     C28492   8.888   3.125   2.389 -0.5361 -0.7575  0.2272
  212MOL0     O28493   8.926   3.065   2.272  0.5008 -0.0357 -0.5017
  212MOL0     C28494   8.864   2.943   2.214 -0.8068 -0.8102 -0.7709
  212MOL0     C28495   8.935   2.906   2.086  0.5307 -0.2600  0.6322
  212MOL0     C28496   8.934   3.014   1.975  0.5394  0.6494 -0.3567
  212MOL0     C28497   8.805   3.072   1.927 -0.0605  0.8537 -0.4526
  212MOL0     C28498   8.820   3.211   1.858  0.4086  0.3796 -0.7669
  212MOL0     C28499   8.836   3.318   1.966 -0.3577  0.9077 -0.3769
  212MOL0     C28500   8.721   3.335   2.062 -0.8065 -0.9618  0.1204
  212MOL0     C28501   8.586   3.344   1.999 -0.1590  1.1978 -0.4649
  212MOL0     N28502   8.481   3.381   2.098 -0.4169 -0.0780 -0.0179
  212MOL0     C28503   8.475   3.495   2.159 -0.3875 -0.0306 -1.0268
  212MOL0     C28504   8.394   3.475   2.264 -0.0855 -0.0905  0.0934
  212MOL0     C28505   8.375   3.569   2.376 -0.8405 -0.3072  0.6153
  212MOL0     C28506   8.234   3.564   2.445 -0.1011 -0.5439 -0.2036
  212MOL0     C28507   8.213   3.627   2.579  0.6014 -0.1783 -0.2825
  212MOL0     C28508   8.070   3.592   2.625 -0.0639 -0.0361 -0.5267
  212MOL0     O28509   8.043   3.699   2.712 -0.0536 -0.5317  0.6781
  212MOL0     C28510   8.085   3.694   2.843 -0.4986 -0.3220 -0.5486
  212MOL0     C28511   8.089   3.819   2.903 -0.0607 -0.2121  0.1617
  212MOL0     C28512   8.130   3.817   3.038 -1.2745  0.1467  0.2333
  212MOL0     C28513   8.174   3.701   3.122 -0.4455 -0.0872  0.1023
  212MOL0     C28514   8.237   3.716   3.250 -0.0722 -0.7336 -1.4125
  212MOL0     O28515   8.296   3.599   3.290 -0.1128 -0.5507  0.3861
  212MOL0     C28516   8.318   3.598   3.427  0.0248 -0.1675  0.0808
  212MOL0     C28517   8.415   3.682   3.478 -0.2144 -0.5453 -1.3884
  212MOL0     C28518   8.445   3.681   3.610  0.4530 -0.2048  0.6236
  212MOL0     C28519   8.374   3.595   3.699 -0.3687 -0.1819  0.0757
  212MOL0     O28520   8.399   3.592   3.833  0.1195  0.3550 -0.6284
  212MOL0     C28521   8.350   3.697   3.914 -0.8316 -0.3958 -0.2328
  212MOL0     C28522   8.308   3.634   4.052 -0.8411 -0.6651 -0.1083
  212MOL0     C28523   8.265   3.748   4.150 -0.1597 -0.6791  0.1285
  212MOL0     C28524   8.228   3.677   4.281  0.0228 -0.8615  0.1308
  212MOL0     C28525   8.191   3.779   4.399  0.3079 -0.0547 -0.9260
  212MOL0     C28526   8.051   3.763   4.456 -0.4149 -0.2538 -0.4165
  212MOL0     C28527   8.051   3.808   4.609 -0.8614 -1.0991  0.8932
  212MOL0     C28528   7.921   3.789   4.677  0.7812 -0.0224 -0.3453
  212MOL0    Cl28529   7.944   3.861   4.834  0.2315 -0.0196  0.4817
  212MOL0     C28530   8.276   3.509   3.647 -0.0636 -0.5537  0.0693
  212MOL0     C28531   8.261   3.502   3.511 -0.4683 -0.1255  0.3098
  212MOL0     O28532   8.250   3.826   3.305  0.2448  0.3384  0.0196
  212MOL0     C28533   8.154   3.577   3.060  0.5627 -0.2927  0.5873
  212MOL0     C28534   8.115   3.577   2.923  0.4569 -0.0550  0.2112
  212MOL0     N28535   8.336   3.346   2.256  0.2096  0.3403  0.2835
  212MOL0     N28536   8.390   3.291   2.153  0.3493  0.2644  1.2525
  212MOL0     C28537   8.761   3.126   2.449 -0.5935 -0.1638 -0.4895
  212MOL0     C28538   8.740   3.210   2.552 -0.8036  0.1056  0.9375
  212MOL0     C28539   8.700   3.594   2.787  0.5424 -0.1939 -0.2445
  212MOL0     C28540   8.556   3.617   2.819 -0.8043 -0.6853  0.0571
  212MOL0     C28541   8.534   3.705   2.922  0.6985 -0.4438 -0.3040
  212MOL0     C28542   8.627   3.766   3.000 -0.1546  0.4294  0.1383
  212MOL0     O28543   8.585   3.850   3.094 -0.6188 -0.4987 -0.1377
  212MOL0     C28544   8.669   3.964   3.103  1.3027  0.5872  0.2126
  212MOL0     C28545   8.674   4.055   2.981  0.7937 -0.0896  0.1757
  212MOL0     C28546   8.778   4.169   2.992  0.5752 -0.0444  0.2675
  212MOL0     C28547   8.783   4.278   2.881 -0.2630  0.3034  0.1988
  212MOL0     C28548   8.816   4.211   2.755  0.5187  0.2986  0.0951
  212MOL0     C28549   8.831   4.152   2.649 -0.1709 -0.2040  0.4927
  212MOL0     C28550   8.762   3.730   2.979  0.5744  0.4908  0.6832
  212MOL0     C28551   8.800   3.650   2.870  0.8896 -0.6317  0.7671
  212MOL0     C28552   8.949   3.639   2.833  0.3403  1.0278 -0.5079
  212MOL0     H28553   9.034   3.359   2.602  0.5965 -1.0104 -1.1286
  212MOL0     H28554   9.093   3.223   2.396 -0.7339  2.8828 -1.5600
  212MOL0     H28555   8.877   2.856   2.278 -1.2173 -1.5771 -1.7156
  212MOL0     H28556   8.756   2.955   2.202 -0.8673 -0.9765 -0.4004
  212MOL0     H28557   8.888   2.813   2.052  0.9830 -0.0275 -0.7112
  212MOL0     H28558   9.038   2.888   2.116  1.3390  3.2317  0.4156
  212MOL0     H28559   8.995   2.972   1.894  0.1886 -0.7824  0.0830
  212MOL0     H28560   9.001   3.093   2.010 -0.4520  0.8516  1.1793
  212MOL0     H28561   8.768   2.997   1.856  1.1354 -0.9967  0.7807
  212MOL0     H28562   8.729   3.072   2.005  0.5323  0.7748  0.1388
  212MOL0     H28563   8.893   3.216   1.777 -1.4688 -3.9892 -3.0908
  212MOL0     H28564   8.727   3.225   1.802  0.1907  1.7336 -0.1011
  212MOL0     H28565   8.931   3.304   2.019  0.4411 -1.7299 -2.2652
  212MOL0     H28566   8.852   3.416   1.921  4.6119  0.8926  0.7897
  212MOL0     H28567   8.735   3.427   2.120 -2.2779  1.0938 -2.5682
  212MOL0     H28568   8.720   3.255   2.137  0.1056 -0.6306  0.4971
  212MOL0     H28569   8.597   3.409   1.912  2.5861  1.0080 -0.3446
  212MOL0     H28570   8.559   3.242   1.968  0.2659  1.1624 -0.7170
  212MOL0     H28571   8.525   3.591   2.144  3.2899 -1.5493  0.4890
  212MOL0     H28572   8.454   3.558   2.451 -1.3116  0.2174  1.1996
  212MOL0     H28573   8.395   3.670   2.338 -0.3677  0.1688  2.0428
  212MOL0     H28574   8.161   3.610   2.378  1.0058  1.2127 -0.2635
  212MOL0     H28575   8.212   3.460   2.469 -1.3637 -0.3478 -0.4550
  212MOL0     H28576   8.221   3.734   2.558  0.1110 -0.5607 -2.7727
  212MOL0     H28577   8.299   3.599   2.640  3.9780  2.1771 -3.4958
  212MOL0     H28578   8.060   3.489   2.661  0.7581  0.2170  0.4893
  212MOL0     H28579   7.996   3.603   2.545 -2.4047  3.0437  1.7662
  212MOL0     H28580   8.058   3.911   2.855 -0.5735 -0.2092  0.4950
  212MOL0     H28581   8.134   3.911   3.093 -0.1535  0.6366 -0.6460
  212MOL0     H28582   8.458   3.763   3.421  0.1358  0.1411 -0.1800
  212MOL0     H28583   8.510   3.754   3.658 -1.4544  0.4951  2.3107
  212MOL0     H28584   8.434   3.764   3.934  2.0066 -3.4608 -0.8965
  212MOL0     H28585   8.281   3.761   3.858  0.4588  1.3256  0.0775
  212MOL0     H28586   8.222   3.568   4.039 -0.8431 -0.5024 -0.9814
  212MOL0     H28587   8.400   3.586   4.088 -0.2499 -0.0942 -0.8486
  212MOL0     H28588   8.340   3.828   4.157 -2.9527  2.3044 -1.2886
  212MOL0     H28589   8.178   3.793   4.101  0.3712  1.5796  1.1139
  212MOL0     H28590   8.312   3.614   4.312  0.5344  0.6000  1.9463
  212MOL0     H28591   8.144   3.608   4.269 -1.3943  0.7485  0.3447
  212MOL0     H28592   8.211   3.883   4.370  0.5333  0.4677  0.9765
  212MOL0     H28593   8.269   3.764   4.474 -0.0981  2.8613  0.2081
  212MOL0     H28594   7.975   3.820   4.402 -0.9493 -2.0593 -1.6431
  212MOL0     H28595   8.029   3.657   4.448  0.4291 -0.5335  0.6435
  212MOL0     H28596   8.063   3.917   4.606 -1.4876 -0.9559  2.4110
  212MOL0     H28597   8.131   3.764   4.669  1.9060  1.4092 -0.7022
  212MOL0     H28598   7.839   3.848   4.636  0.7292  0.9325  1.0365
  212MOL0     H28599   7.898   3.683   4.695 -1.4538  0.2847 -1.0405
  212MOL0     H28600   8.229   3.446   3.722  1.0728 -1.7324 -0.1768
  212MOL0     H28601   8.192   3.432   3.467 -1.0596 -0.5291  1.8283
  212MOL0     H28602   8.186   3.483   3.102 -2.9884 -2.5443 -1.3063
  212MOL0     H28603   8.102   3.480   2.876  2.8908  1.3138 -3.7348
  212MOL0     H28604   8.675   3.066   2.419 -1.7208  1.8479 -1.4767
  212MOL0     H28605   8.644   3.214   2.601 -2.1471  1.4397 -1.5721
  212MOL0     H28606   8.471   3.570   2.772 -1.2694  0.9156 -0.7746
  212MOL0     H28607   8.428   3.723   2.934  0.4389 -2.1390  0.3403
  212MOL0     H28608   8.767   3.939   3.146  0.7464  1.4360  2.0491
  212MOL0     H28609   8.617   4.015   3.184 -2.6311 -1.2795 -0.8960
  212MOL0     H28610   8.572   4.095   2.975  0.5420 -0.1850  2.7718
  212MOL0     H28611   8.690   3.983   2.899  0.1959  0.2566 -0.2501
  212MOL0     H28612   8.881   4.137   3.012 -0.0702 -1.6106  1.2854
  212MOL0     H28613   8.744   4.228   3.077  0.6894 -0.4582  0.5998
  212MOL0     H28614   8.695   4.343   2.877 -0.2677  0.2348 -2.0404
  212MOL0     H28615   8.863   4.344   2.915 -0.7356  0.5613  0.8291
  212MOL0     H28616   8.835   4.112   2.550 -0.2127  0.9086  0.0226
  212MOL0     H28617   8.826   3.759   3.061  2.5735  0.5017 -0.8031
  212MOL0     H28618   8.968   3.589   2.737  0.2402 -0.6242  0.3000
  212MOL0     H28619   8.998   3.736   2.838 -1.3965  1.8596  1.3900
  212MOL0     H28620   8.993   3.572   2.908  1.1200  2.2445  0.1373
  213MOL0     O28621   8.218   7.242  10.486 -0.0070  0.9387  0.3931
  213MOL0     C28622   8.241   7.362  10.472  0.3313  0.0655 -1.0966
  213MOL0     O28623   8.258   7.427  10.353  0.0384 -0.1461  0.0173
  213MOL0     C28624   8.252   7.357  10.235 -0.4109 -0.3848 -0.1951
  213MOL0     C28625   8.360   7.361  10.145  0.2678 -0.2395  0.6233
  213MOL0     C28626   8.355   7.305  10.023 -0.0294 -0.8742 -0.7682
  213MOL0     C28627   8.237   7.251   9.973 -1.2274  0.0614  1.0651
  213MOL0     O28628   8.219   7.186   9.850 -0.4163  0.1207 -0.1024
  213MOL0     C28629   8.332   7.156   9.767  0.4015  0.0047  0.7501
  213MOL0     C28630   8.278   7.102   9.636  0.9381  0.7683 -0.4967
  213MOL0     C28631   8.389   7.063   9.534  0.2540  1.2071 -0.2154
  213MOL0     C28632   8.337   6.956   9.436  0.2364 -0.4149  0.1522
  213MOL0     C28633   8.376   6.807   9.465 -0.9886  0.2020  0.2697
  213MOL0     C28634   8.346   6.708   9.348 -0.4225 -0.0341 -0.3755
  213MOL0     C28635   8.468   6.672   9.255  0.3409 -0.6461 -0.5734
  213MOL0     C28636   8.429   6.582   9.134  0.5923 -0.7266 -1.2026
  213MOL0     N28637   8.339   6.661   9.043  0.4218  1.3364 -0.2540
  213MOL0     C28638   8.377   6.764   8.967 -0.4630  0.3885  0.0549
  213MOL0     C28639   8.266   6.800   8.899 -0.5636 -1.1084 -0.1967
  213MOL0     C28640   8.272   6.883   8.778  0.2874  0.2624 -0.8559
  213MOL0     C28641   8.242   6.807   8.654  0.3632  0.4031  0.2821
  213MOL0     C28642   8.255   6.878   8.524 -0.6248 -0.4595  0.4287
  213MOL0     C28643   8.390   6.941   8.508 -0.8768  0.5976 -0.5617
  213MOL0     O28644   8.498   6.865   8.562 -0.2214 -0.1318  0.3203
  213MOL0     C28645   8.622   6.920   8.561 -1.2247  0.0378  0.4136
  213MOL0     C28646   8.719   6.835   8.611  0.4086 -0.1438 -0.6827
  213MOL0     C28647   8.846   6.886   8.634 -0.3142  0.6550  0.8066
  213MOL0     C28648   8.881   7.019   8.588  0.2003  0.5222 -0.9268
  213MOL0     C28649   9.013   7.073   8.595  0.2812 -0.1729 -0.0399
  213MOL0     O28650   9.042   7.200   8.532  0.1826  0.2387  0.0984
  213MOL0     C28651   9.163   7.254   8.503 -0.4612 -0.9180 -1.0010
  213MOL0     C28652   9.164   7.390   8.464  0.1250  1.0234  0.4832
  213MOL0     C28653   9.284   7.455   8.432 -1.0553 -0.8123  0.4721
  213MOL0     C28654   9.408   7.389   8.455  0.7148  0.0558  0.7208
  213MOL0     O28655   9.519   7.458   8.428  0.8593  0.4095 -0.6209
  213MOL0     C28656   9.618   7.400   8.358 -0.9573  0.3990 -0.4398
  213MOL0     C28657   9.710   7.501   8.295  0.3135  0.0582  0.2430
  213MOL0     C28658   9.647   7.601   8.191 -0.3443  0.3096  0.0048
  213MOL0     C28659   9.577   7.711   8.270 -0.4457  0.4651 -0.0748
  213MOL0     C28660   9.531   7.822   8.164 -0.0540  1.4211  0.0372
  213MOL0     C28661   9.489   7.954   8.229  0.0746 -0.5514  1.1675
  213MOL0     C28662   9.605   8.043   8.271 -0.1722 -0.4155  0.7779
  213MOL0     C28663   9.664   8.135   8.162 -0.6788 -0.3825  0.7450
  213MOL0    Cl28664   9.523   8.213   8.089  0.0836  0.5108  0.2137
  213MOL0     C28665   9.408   7.249   8.493  0.0949  0.6210 -0.1735
  213MOL0     C28666   9.285   7.188   8.522 -0.9984 -1.4574 -0.2162
  213MOL0     O28667   9.097   6.993   8.636  0.4611 -1.1742 -0.3360
  213MOL0     C28668   8.778   7.106   8.538 -0.9830  0.3335 -0.7292
  213MOL0     C28669   8.652   7.052   8.530 -0.0333 -1.0211  0.5382
  213MOL0     N28670   8.161   6.731   8.949 -0.0441  0.4913 -0.1177
  213MOL0     N28671   8.211   6.645   9.025 -0.2294  0.1828 -0.0762
  213MOL0     C28672   8.130   7.250  10.058  0.0499 -0.0717  1.4723
  213MOL0     C28673   8.133   7.304  10.190  0.4162  0.5800  0.6759
  213MOL0     C28674   8.248   7.442  10.599  0.3264 -0.0442 -0.5804
  213MOL0     C28675   8.278   7.581  10.581  0.0492  0.1291  0.4461
  213MOL0     C28676   8.295   7.664  10.691  0.7466 -0.2522  0.4660
  213MOL0     C28677   8.289   7.624  10.820  0.0191  0.1823 -0.5307
  213MOL0     O28678   8.313   7.712  10.928  0.1578  0.1753  0.2422
  213MOL0     C28679   8.364   7.848  10.901  0.9036  0.9754  0.4803
  213MOL0     C28680   8.379   7.921  11.043 -0.5581 -0.6251  0.4943
  213MOL0     C28681   8.255   7.928  11.129  0.1500 -0.4881 -0.4813
  213MOL0     C28682   8.147   8.004  11.048 -1.5883 -0.1321 -0.1876
  213MOL0     C28683   8.050   8.072  11.142  1.0977  0.9172 -0.1622
  213MOL0     C28684   7.958   8.114  11.210 -0.3005  0.6985 -0.5805
  213MOL0     C28685   8.245   7.491  10.838  0.6133 -0.8370 -0.0459
  213MOL0     C28686   8.223   7.403  10.733 -0.9898  0.4915 -0.3793
  213MOL0     C28687   8.172   7.261  10.770  0.9392 -0.0676  0.2101
  213MOL0     H28688   8.457   7.405  10.165  0.4563 -0.1995 -0.3279
  213MOL0     H28689   8.439   7.319   9.956 -0.7446  0.8177 -1.3602
  213MOL0     H28690   8.393   7.244   9.744  1.0817 -0.4812  0.6654
  213MOL0     H28691   8.400   7.089   9.820  0.8040 -1.0989 -1.0727
  213MOL0     H28692   8.208   7.165   9.581 -0.0433 -1.4299 -1.9032
  213MOL0     H28693   8.218   7.014   9.662 -1.9228  2.5470 -0.6247
  213MOL0     H28694   8.476   7.024   9.588 -1.8612 -4.2050 -0.0970
  213MOL0     H28695   8.416   7.149   9.473  3.4289 -0.7243 -1.7646
  213MOL0     H28696   8.229   6.970   9.424  0.5886  3.1020  0.1607
  213MOL0     H28697   8.382   6.982   9.340 -1.7517  1.4534 -0.3701
  213MOL0     H28698   8.481   6.805   9.497 -0.7454  2.2320 -0.2181
  213MOL0     H28699   8.319   6.786   9.556  0.7907 -0.3145  1.3188
  213MOL0     H28700   8.314   6.613   9.390 -1.8612  0.4210 -0.3814
  213MOL0     H28701   8.275   6.748   9.274  0.2436  1.3626 -0.2934
  213MOL0     H28702   8.540   6.620   9.319 -1.0419  1.4729  3.0287
  213MOL0     H28703   8.518   6.764   9.225 -0.4643 -1.1963 -3.9694
  213MOL0     H28704   8.527   6.561   9.092  1.1146 -1.3853  0.2486
  213MOL0     H28705   8.387   6.485   9.162 -2.7568  0.6222 -1.0255
  213MOL0     H28706   8.477   6.799   8.941  0.1001 -0.9627  0.3225
  213MOL0     H28707   8.204   6.965   8.804  2.0731  1.5106  0.1056
  213MOL0     H28708   8.370   6.929   8.763 -1.2885  3.5035 -2.2388
  213MOL0     H28709   8.311   6.723   8.638  0.3959  0.4634  0.1016
  213MOL0     H28710   8.143   6.760   8.657  0.2732  0.3887 -1.5755
  213MOL0     H28711   8.188   6.961   8.503  1.2785  1.2158  0.7151
  213MOL0     H28712   8.243   6.806   8.442 -3.6622  2.2858 -1.7966
  213MOL0     H28713   8.387   7.040   8.555 -3.2435  2.9002 -4.8752
  213MOL0     H28714   8.416   6.944   8.402 -1.3297 -0.1301 -0.6990
  213MOL0     H28715   8.690   6.735   8.641 -0.5322 -0.4334 -2.3983
  213MOL0     H28716   8.916   6.820   8.684  0.0295  0.4771  0.1118
  213MOL0     H28717   9.069   7.440   8.448  0.6395  2.0271  0.4505
  213MOL0     H28718   9.285   7.559   8.403 -2.1026 -1.1842 -1.0280
  213MOL0     H28719   9.683   7.340   8.422  1.3863  1.0452 -2.0953
  213MOL0     H28720   9.576   7.334   8.281 -1.6219 -2.6668  2.2992
  213MOL0     H28721   9.753   7.567   8.371 -0.5360 -0.5822  1.3053
  213MOL0     H28722   9.789   7.449   8.239 -0.5246 -0.1687 -0.7697
  213MOL0     H28723   9.728   7.651   8.136  0.4395 -1.0124 -0.0833
  213MOL0     H28724   9.586   7.535   8.130  3.5229 -0.4142 -3.5246
  213MOL0     H28725   9.654   7.755   8.335 -0.1787 -1.2536  0.8269
  213MOL0     H28726   9.489   7.674   8.324 -1.1829  4.1783  1.5698
  213MOL0     H28727   9.440   7.786   8.115  0.0228  1.1972  0.0621
  213MOL0     H28728   9.615   7.824   8.094  0.4431 -0.5752  0.5099
  213MOL0     H28729   9.412   7.996   8.164  2.3541  0.5300 -1.0144
  213MOL0     H28730   9.437   7.929   8.322  0.5039 -2.4567  0.9246
  213MOL0     H28731   9.679   7.988   8.328 -0.7141 -2.2892 -0.2374
  213MOL0     H28732   9.567   8.118   8.341 -0.8555 -2.0557  2.2426
  213MOL0     H28733   9.736   8.212   8.191 -2.5395  0.6514  2.8901
  213MOL0     H28734   9.712   8.076   8.083 -0.7735  1.0741 -0.4462
  213MOL0     H28735   9.497   7.187   8.501 -0.2435  0.3055  1.4871
  213MOL0     H28736   9.293   7.083   8.547  3.1277 -0.5255  3.8185
  213MOL0     H28737   8.805   7.205   8.502  3.0645  0.5385  2.1851
  213MOL0     H28738   8.581   7.129   8.501  2.7890  2.0501  1.0733
  213MOL0     H28739   8.036   7.214  10.016 -1.3631  4.1005  0.6258
  213MOL0     H28740   8.040   7.308  10.246  0.1630  0.5343  0.2625
  213MOL0     H28741   8.277   7.615  10.478 -0.5254 -1.1776  0.0045
  213MOL0     H28742   8.301   7.770  10.669  0.9844  0.1730  2.4235
  213MOL0     H28743   8.294   7.908  10.842  0.7279  1.6440  1.3504
  213MOL0     H28744   8.457   7.852  10.843  0.7865 -1.8429 -0.0336
  213MOL0     H28745   8.421   8.021  11.027 -1.7136  0.0146  1.3165
  213MOL0     H28746   8.444   7.850  11.095 -1.4312 -2.6820 -1.1209
  213MOL0     H28747   8.280   7.973  11.226 -1.1029 -2.5876  0.9161
  213MOL0     H28748   8.225   7.827  11.157  0.8255 -0.1353  1.7120
  213MOL0     H28749   8.200   8.081  10.991  0.8485 -0.7413  1.1076
  213MOL0     H28750   8.098   7.930  10.984 -1.2371  0.1240 -0.7610
  213MOL0     H28751   7.888   8.146  11.285  1.0556  3.5808 -0.4049
  213MOL0     H28752   8.219   7.460  10.938 -3.2010  3.4119  0.6328
  213MOL0     H28753   8.237   7.179  10.739  1.0910 -0.0916  0.5847
  213MOL0     H28754   8.141   7.255  10.875 -2.7649  0.3316 -0.7424
  213MOL0     H28755   8.075   7.253  10.721  0.0900  3.8647  0.8616
  214MOL0     O28756   3.979   2.274   3.579  0.2088 -0.5973  0.3575
  214MOL0     C28757   3.953   2.327   3.692 -1.3498 -1.1273  0.2659
  214MOL0     O28758   3.878   2.270   3.786 -0.1935 -0.2967  0.9432
  214MOL0     C28759   3.793   2.169   3.768 -0.1174  1.1538 -1.3095
  214MOL0     C28760   3.662   2.175   3.816 -0.1829  0.0647  0.2514
  214MOL0     C28761   3.566   2.086   3.796  0.3136  0.0463  0.5156
  214MOL0     C28762   3.605   1.959   3.734  0.1511  0.2241 -0.4818
  214MOL0     O28763   3.500   1.869   3.725 -0.1266  0.1710  0.1198
  214MOL0     C28764   3.497   1.754   3.640 -0.6908 -0.2729  0.1283
  214MOL0     C28765   3.434   1.782   3.502 -1.0458  0.6654 -0.8757
  214MOL0     C28766   3.298   1.861   3.509 -0.0075 -0.4038  0.7517
  214MOL0     C28767   3.313   1.974   3.417  0.5868 -0.4089 -0.0324
  214MOL0     C28768   3.200   2.079   3.391  0.2786  0.5609  0.6504
  214MOL0     C28769   3.170   2.177   3.506  0.2492  0.2126 -0.4085
  214MOL0     C28770   3.281   2.263   3.565  0.7436  0.4395  0.5954
  214MOL0     C28771   3.235   2.349   3.678  0.4766  0.9639  0.3014
  214MOL0     N28772   3.344   2.408   3.752 -0.3314  0.8813  0.0420
  214MOL0     C28773   3.456   2.463   3.701 -0.9821 -0.7466 -0.3199
  214MOL0     C28774   3.529   2.506   3.802  0.6162  0.2499  0.4057
  214MOL0     C28775   3.662   2.572   3.795  0.2864 -1.4602  0.4627
  214MOL0     C28776   3.657   2.682   3.689  1.3488 -0.4825  0.2147
  214MOL0     C28777   3.801   2.726   3.650 -0.6495  0.1355  0.2803
  214MOL0     C28778   3.794   2.843   3.550  0.5165 -0.2059  0.4680
  214MOL0     O28779   3.917   2.856   3.471  0.7768 -0.0186  0.0949
  214MOL0     C28780   4.022   2.930   3.512 -0.2415  0.5854 -0.3861
  214MOL0     C28781   4.036   3.007   3.631 -0.2766 -0.6740  0.1995
  214MOL0     C28782   4.160   3.071   3.652 -0.4493 -0.3647  0.7114
  214MOL0     C28783   4.269   3.052   3.567 -0.7793 -0.3427 -0.3868
  214MOL0     C28784   4.394   3.118   3.602  0.2834  0.0205 -0.4093
  214MOL0     O28785   4.486   3.111   3.519  0.1691  0.0103 -0.2916
  214MOL0     C28786   4.610   3.169   3.516 -0.3782  0.1910 -0.4500
  214MOL0     C28787   4.716   3.112   3.444  0.7645  0.0557  0.0226
  214MOL0     C28788   4.837   3.180   3.439 -0.7456 -0.5887 -0.2896
  214MOL0     C28789   4.848   3.312   3.509 -0.6567  0.4310 -0.8416
  214MOL0     O28790   4.949   3.398   3.512 -0.3555 -0.3065  0.1067
  214MOL0     C28791   5.047   3.383   3.405 -0.6827 -0.4499  0.3338
  214MOL0     C28792   5.158   3.489   3.428 -0.3204 -0.3817 -0.5276
  214MOL0     C28793   5.121   3.634   3.450 -0.4315  0.4645 -0.5775
  214MOL0     C28794   5.234   3.725   3.397  0.6534  1.3443  0.1770
  214MOL0     C28795   5.179   3.874   3.383  0.3492  0.7911 -0.4077
  214MOL0     C28796   5.289   3.969   3.360 -0.0611 -0.4625 -0.3090
  214MOL0     C28797   5.249   4.115   3.308  0.2904  0.1113  0.9380
  214MOL0     C28798   5.164   4.192   3.411  0.4019 -0.9344 -0.1115
  214MOL0    Cl28799   5.243   4.205   3.563 -0.4465 -0.2568  0.1067
  214MOL0     C28800   4.739   3.365   3.578 -0.6505  0.3594  0.6800
  214MOL0     C28801   4.621   3.297   3.579 -0.2095  0.0108 -0.6283
  214MOL0     O28802   4.406   3.170   3.708 -0.4035  0.5143 -0.2230
  214MOL0     C28803   4.248   2.984   3.451  0.4114  0.9633  0.5119
  214MOL0     C28804   4.128   2.915   3.427 -0.5132 -0.3472  0.5168
  214MOL0     N28805   3.472   2.463   3.920  1.0612 -0.4260  0.6321
  214MOL0     N28806   3.359   2.410   3.886  0.2848  0.6836 -0.5070
  214MOL0     C28807   3.743   1.934   3.704  0.4716  0.3982  0.8575
  214MOL0     C28808   3.831   2.039   3.721 -0.1007 -0.4129  0.0398
  214MOL0     C28809   4.027   2.455   3.719  0.3975  0.8801 -0.4680
  214MOL0     C28810   4.024   2.487   3.855  0.2230  0.4537  0.0780
  214MOL0     C28811   4.078   2.599   3.901  0.0239 -0.2280 -0.6613
  214MOL0     C28812   4.151   2.691   3.822  1.5548  0.2565  0.1730
  214MOL0     O28813   4.192   2.816   3.859 -0.1374  0.0698  0.0810
  214MOL0     C28814   4.180   2.863   3.991  0.0626 -0.4342  0.0389
  214MOL0     C28815   4.319   2.867   4.057  0.2461 -0.2687  0.6146
  214MOL0     C28816   4.360   2.736   4.123  0.3126  0.5121 -0.0998
  214MOL0     C28817   4.306   2.712   4.261  0.2015  0.2770  0.1313
  214MOL0     C28818   4.354   2.596   4.327 -0.5339  1.0176 -0.2445
  214MOL0     C28819   4.382   2.489   4.390 -0.0453  0.1478 -0.1191
  214MOL0     C28820   4.161   2.660   3.687 -0.1134 -0.7345  0.1808
  214MOL0     C28821   4.100   2.545   3.630  1.2361 -0.3395  0.0673
  214MOL0     C28822   4.112   2.512   3.483  0.0439 -0.0787  0.1596
  214MOL0     H28823   3.633   2.270   3.860  0.4226  0.3903 -0.0302
  214MOL0     H28824   3.466   2.102   3.835 -0.9444 -0.6210 -2.2309
  214MOL0     H28825   3.600   1.718   3.637  0.7053  3.1685  2.0829
  214MOL0     H28826   3.446   1.672   3.692  0.7733 -0.9762  0.5017
  214MOL0     H28827   3.415   1.687   3.453  2.0087 -0.3634 -0.2749
  214MOL0     H28828   3.510   1.843   3.453 -2.1839  0.9916 -2.3215
  214MOL0     H28829   3.301   1.896   3.612  2.9710 -1.8028  1.2335
  214MOL0     H28830   3.203   1.810   3.489 -0.9731  2.0951 -1.6688
  214MOL0     H28831   3.408   2.026   3.435 -0.4505  2.6615 -2.4799
  214MOL0     H28832   3.331   1.930   3.318  0.1965 -1.9593  0.5678
  214MOL0     H28833   3.223   2.134   3.299 -0.6481 -0.4695 -0.2316
  214MOL0     H28834   3.108   2.027   3.362  1.0876  0.4733 -2.0267
  214MOL0     H28835   3.088   2.245   3.482  0.1078  1.0365  2.1149
  214MOL0     H28836   3.144   2.108   3.587 -1.9071 -0.4795 -1.6085
  214MOL0     H28837   3.307   2.333   3.485  2.9141  0.6098  1.3780
  214MOL0     H28838   3.362   2.203   3.607  0.4788 -1.1715 -1.0934
  214MOL0     H28839   3.179   2.435   3.641  1.3091  1.7988  0.9358
  214MOL0     H28840   3.163   2.290   3.734  0.0513  1.4393  0.2620
  214MOL0     H28841   3.502   2.468   3.602 -0.3616 -2.5270 -0.1460
  214MOL0     H28842   3.695   2.619   3.888 -2.1863 -1.3837  1.3722
  214MOL0     H28843   3.737   2.501   3.757  1.6271  1.1902 -2.2667
  214MOL0     H28844   3.595   2.653   3.604  2.2320 -3.6774  0.5178
  214MOL0     H28845   3.602   2.764   3.736 -1.6646 -0.6072 -2.7312
  214MOL0     H28846   3.852   2.637   3.613 -0.6382  1.6708 -3.8629
  214MOL0     H28847   3.865   2.757   3.733  1.7317  1.6079 -1.9533
  214MOL0     H28848   3.783   2.937   3.605  1.4642 -1.0032  2.0868
  214MOL0     H28849   3.705   2.817   3.491  0.8087 -2.9775  1.0972
  214MOL0     H28850   3.954   3.003   3.702 -1.2362 -3.5762 -0.9346
  214MOL0     H28851   4.166   3.136   3.739 -3.4171 -2.9649  3.1109
  214MOL0     H28852   4.706   3.016   3.393 -1.8234  0.3587 -0.1532
  214MOL0     H28853   4.919   3.128   3.391 -1.1290 -1.8598  0.3899
  214MOL0     H28854   5.090   3.284   3.386  1.2517  0.6848 -1.7472
  214MOL0     H28855   4.994   3.410   3.312 -2.0211 -0.8786  0.9475
  214MOL0     H28856   5.236   3.466   3.501  0.1383  4.9274  1.0393
  214MOL0     H28857   5.212   3.480   3.334 -0.0535 -2.7265 -0.2144
  214MOL0     H28858   5.018   3.651   3.416 -0.9047 -0.1069  0.4927
  214MOL0     H28859   5.115   3.651   3.558  1.8306 -2.4479  0.1041
  214MOL0     H28860   5.268   3.687   3.300 -2.2892  1.4406 -0.9849
  214MOL0     H28861   5.319   3.722   3.466 -1.3747 -0.4096  2.8114
  214MOL0     H28862   5.124   3.898   3.475 -0.9825  0.3421 -1.0583
  214MOL0     H28863   5.103   3.883   3.305 -0.3307  1.1996  0.2746
  214MOL0     H28864   5.325   3.997   3.459 -2.2360 -2.0394  1.0121
  214MOL0     H28865   5.373   3.928   3.303 -0.4931 -1.1148 -0.4881
  214MOL0     H28866   5.197   4.108   3.212 -0.9378 -2.6662  1.6877
  214MOL0     H28867   5.335   4.180   3.288 -0.4911  1.1170  0.8001
  214MOL0     H28868   5.147   4.294   3.378  4.7182 -0.1587 -0.5553
  214MOL0     H28869   5.071   4.139   3.437 -0.5217  0.5981 -0.2055
  214MOL0     H28870   4.740   3.467   3.616  0.9899  0.7840 -0.4210
  214MOL0     H28871   4.552   3.361   3.632  1.5257  1.8388 -0.4763
  214MOL0     H28872   4.326   2.974   3.377 -0.0203 -0.9010  0.2674
  214MOL0     H28873   4.114   2.853   3.339 -1.7476  0.9726 -0.2781
  214MOL0     H28874   3.771   1.838   3.661 -0.5348 -0.2015  1.5010
  214MOL0     H28875   3.935   2.022   3.692 -0.5746  1.1179 -3.0458
  214MOL0     H28876   3.971   2.430   3.931  1.0049  0.8688  0.9549
  214MOL0     H28877   4.069   2.625   4.006 -3.0620  1.0545 -1.1353
  214MOL0     H28878   4.116   2.800   4.054 -1.3230 -0.4490 -1.3326
  214MOL0     H28879   4.137   2.961   3.968 -1.2500 -1.2905 -1.3199
  214MOL0     H28880   4.329   2.945   4.134  1.0544 -0.2968  0.5467
  214MOL0     H28881   4.382   2.888   3.970  0.5756 -1.5799  0.5299
  214MOL0     H28882   4.469   2.745   4.133  0.8203 -1.3908 -2.8105
  214MOL0     H28883   4.338   2.657   4.051  0.4510  1.6544 -1.4291
  214MOL0     H28884   4.338   2.790   4.329 -1.6599  2.8120 -1.7036
  214MOL0     H28885   4.197   2.727   4.258  0.5258  3.2136  0.0846
  214MOL0     H28886   4.407   2.402   4.448  3.8211 -1.1493 -3.2826
  214MOL0     H28887   4.236   2.718   3.635  2.6042 -5.3311 -1.6447
  214MOL0     H28888   4.014   2.511   3.435 -0.1984  1.6624  0.5229
  214MOL0     H28889   4.182   2.584   3.439  2.9270 -1.9110  1.4596
  214MOL0     H28890   4.173   2.422   3.475  1.6996  1.0711 -0.8321
  215MOL0     O28891  10.790  10.435   1.524 -0.4555  0.4162 -0.2970
  215MOL0     C28892  10.914  10.455   1.561  0.3019  0.7488  0.0392
  215MOL0     O28893  10.961  10.503   1.674 -0.2093 -0.1148 -0.2702
  215MOL0     C28894  10.868  10.566   1.748 -0.4793 -0.8039  0.0895
  215MOL0     C28895  10.774  10.662   1.708  0.0155  0.2353 -0.3913
  215MOL0     C28896  10.668  10.688   1.801 -0.3396 -0.8061 -0.2238
  215MOL0     C28897  10.665  10.650   1.938 -0.1560  0.1017 -0.2078
  215MOL0     O28898  10.565  10.683   2.021  0.8462 -0.0679  0.3853
  215MOL0     C28899  10.615  10.729   2.144  0.3295  0.5722 -0.4007
  215MOL0     C28900  10.507  10.726   2.247 -0.5764  0.2341 -0.4273
  215MOL0     C28901  10.395  10.834   2.240  0.6357  0.2268  0.7366
  215MOL0     C28902  10.437  10.955   2.321 -0.3628 -0.8846 -0.1074
  215MOL0     C28903  10.342  11.065   2.319  0.2758 -0.0103 -0.1283
  215MOL0     C28904  10.398  11.186   2.398  0.4940  0.2065 -0.1659
  215MOL0     C28905  10.298  11.284   2.438 -1.1209 -0.1318  0.5583
  215MOL0     C28906  10.231  11.253   2.579 -0.0175 -0.7213 -0.1817
  215MOL0     N28907  10.141  11.359   2.627 -0.2725 -0.9966 -0.9910
  215MOL0     C28908  10.014  11.370   2.582  0.3967  0.4324 -1.0152
  215MOL0     C28909   9.964  11.478   2.651 -0.4134  0.3970 -0.2154
  215MOL0     C28910   9.830  11.545   2.638  1.0230  0.7537 -1.1523
  215MOL0     C28911   9.729  11.494   2.745  0.3002 -0.3144 -0.1946
  215MOL0     C28912   9.734  11.606   2.861  0.2588 -0.4022 -0.0728
  215MOL0     C28913   9.599  11.603   2.921  0.4808 -0.0044 -0.6494
  215MOL0     O28914   9.600  11.691   3.042 -0.7955  1.2816  0.4882
  215MOL0     C28915   9.483  11.755   3.077 -0.5813 -0.4151 -0.4341
  215MOL0     C28916   9.504  11.891   3.120 -0.7589  0.7410  0.0468
  215MOL0     C28917   9.396  11.966   3.171  0.0063  0.5219  0.3978
  215MOL0     C28918   9.266  11.912   3.188 -0.0297 -0.7274 -0.2768
  215MOL0     C28919   9.149  11.989   3.236 -0.1217 -0.4093  0.2586
  215MOL0     O28920   9.169  12.126   3.255 -0.3560  0.2818  0.2194
  215MOL0     C28921   9.066  12.199   3.296  0.6127 -0.3035  0.0412
  215MOL0     C28922   8.998  12.281   3.198 -0.9162 -0.4863 -0.5606
  215MOL0     C28923   8.904  12.370   3.245 -0.2428 -0.2320 -0.7948
  215MOL0     C28924   8.876  12.386   3.383 -0.0629  0.0603  0.4229
  215MOL0     O28925   8.802  12.491   3.418 -0.6944 -0.1420 -0.0213
  215MOL0     C28926   8.683  12.436   3.485 -1.0674 -0.2929  0.4223
  215MOL0     C28927   8.578  12.540   3.521 -0.8187 -0.3215 -0.5438
  215MOL0     C28928   8.630  12.659   3.607  0.1631  0.9120  0.3047
  215MOL0     C28929   8.522  12.714   3.703  0.7634  0.3095  0.0034
  215MOL0     C28930   8.539  12.857   3.771 -1.0571  0.2053 -0.0106
  215MOL0     C28931   8.675  12.885   3.846  1.4962  0.4739  0.0121
  215MOL0     C28932   8.667  13.032   3.910 -0.1182  0.6085  0.5310
  215MOL0     C28933   8.571  13.071   4.017  1.4789 -0.6795 -0.7643
  215MOL0    Cl28934   8.639  13.070   4.183  0.2102  0.0081  0.1680
  215MOL0     C28935   8.953  12.313   3.467  0.6670  0.0898 -0.3670
  215MOL0     C28936   9.045  12.218   3.432 -0.8681 -0.4199  0.7624
  215MOL0     O28937   9.040  11.939   3.216 -0.5413  0.4462 -0.0349
  215MOL0     C28938   9.256  11.772   3.158 -0.2802 -0.5407 -0.8637
  215MOL0     C28939   9.359  11.698   3.104  0.0475  0.7396  0.1015
  215MOL0     N28940  10.070  11.525   2.730  0.0634  0.3982 -0.2363
  215MOL0     N28941  10.184  11.463   2.706  0.1485 -0.5886 -1.2037
  215MOL0     C28942  10.776  10.566   1.976  0.1011  0.3393 -0.4430
  215MOL0     C28943  10.866  10.521   1.882 -0.5004  0.9842  0.3877
  215MOL0     C28944  11.016  10.410   1.465  0.6639 -0.2533  0.3580
  215MOL0     C28945  11.134  10.347   1.515  0.5213  0.3437  1.6987
  215MOL0     C28946  11.236  10.306   1.429 -0.1355 -0.1063 -0.5610
  215MOL0     C28947  11.225  10.327   1.294 -0.6336 -0.3962 -0.4276
  215MOL0     O28948  11.320  10.299   1.199  0.7444 -0.6096 -0.1601
  215MOL0     C28949  11.403  10.189   1.218  0.4060 -0.9463  0.0696
  215MOL0     C28950  11.435  10.126   1.085 -0.2484 -0.2424  0.0469
  215MOL0     C28951  11.551  10.041   1.109 -0.4181 -0.3884  0.9692
  215MOL0     C28952  11.593   9.961   0.978  0.3105 -0.3882  0.2521
  215MOL0     C28953  11.480   9.870   0.939 -0.5720  0.8154 -0.1129
  215MOL0     C28954  11.386   9.791   0.915  0.0451 -0.3514  0.6128
  215MOL0     C28955  11.116  10.389   1.246  0.5940  1.0961  0.6244
  215MOL0     C28956  11.010  10.430   1.327 -0.5744  0.0763 -0.0873
  215MOL0     C28957  10.906  10.514   1.271 -0.0830 -0.5534 -0.1951
  215MOL0     H28958  10.780  10.682   1.602  2.1230 -2.7982 -0.9946
  215MOL0     H28959  10.582  10.747   1.770  0.8330  1.0430 -0.1094
  215MOL0     H28960  10.699  10.680   2.194  1.5582  2.0156 -0.9655
  215MOL0     H28961  10.648  10.833   2.136  2.8337 -0.0102  1.2708
  215MOL0     H28962  10.546  10.717   2.349  1.2286 -0.6892 -1.1560
  215MOL0     H28963  10.451  10.632   2.245 -2.8970  1.5427 -1.0902
  215MOL0     H28964  10.302  10.803   2.289 -0.0125 -1.6494 -1.5394
  215MOL0     H28965  10.369  10.854   2.136 -0.7564  0.4720  1.1111
  215MOL0     H28966  10.449  10.929   2.427 -1.0567  0.4395  0.3198
  215MOL0     H28967  10.533  10.994   2.285 -1.1036 -1.4933 -2.9791
  215MOL0     H28968  10.323  11.104   2.218 -0.7973  3.2831  1.2037
  215MOL0     H28969  10.251  11.046   2.376  0.8876  0.1953  0.9285
  215MOL0     H28970  10.436  11.144   2.492  2.9935  0.8876 -0.8151
  215MOL0     H28971  10.478  11.234   2.341  1.0262  1.7363  1.7741
  215MOL0     H28972  10.229  11.285   2.352  1.9304 -3.3010 -2.2538
  215MOL0     H28973  10.346  11.382   2.441 -1.0968 -0.1633  2.6490
  215MOL0     H28974  10.173  11.162   2.566  2.9775 -2.8009 -0.1719
  215MOL0     H28975  10.303  11.235   2.660  2.7979 -0.4360 -2.4551
  215MOL0     H28976   9.964  11.305   2.510  1.6931 -0.6187 -1.0112
  215MOL0     H28977   9.858  11.650   2.656  0.8296  0.2979  2.4292
  215MOL0     H28978   9.781  11.534   2.540 -0.1989 -0.6709 -0.4171
  215MOL0     H28979   9.629  11.474   2.705  0.4964 -2.2952  0.1883
  215MOL0     H28980   9.772  11.405   2.793  0.5127  0.2830  0.7468
  215MOL0     H28981   9.739  11.703   2.811 -0.8833  0.0093  0.5738
  215MOL0     H28982   9.811  11.587   2.936  1.0163 -1.0546 -0.9857
  215MOL0     H28983   9.571  11.503   2.955 -2.0301  0.9080  0.2873
  215MOL0     H28984   9.521  11.639   2.852 -0.9108 -0.2862  0.7108
  215MOL0     H28985   9.601  11.939   3.117 -0.6076  0.4889 -3.6146
  215MOL0     H28986   9.391  12.071   3.200  0.3336  1.4630 -2.6348
  215MOL0     H28987   9.020  12.263   3.094  0.8453  0.0283 -0.2981
  215MOL0     H28988   8.836  12.421   3.177 -1.3291 -1.6597 -0.8208
  215MOL0     H28989   8.640  12.355   3.426 -3.3950 -0.3462  2.0502
  215MOL0     H28990   8.713  12.395   3.582 -1.6692 -1.6603  0.0560
  215MOL0     H28991   8.556  12.590   3.426  2.4535  1.7492 -0.3610
  215MOL0     H28992   8.485  12.498   3.561 -1.4661 -0.6146 -2.2622
  215MOL0     H28993   8.717  12.625   3.663  0.7358 -1.2171 -1.7079
  215MOL0     H28994   8.648  12.738   3.533 -2.6400  0.1780 -1.3411
  215MOL0     H28995   8.528  12.634   3.777 -3.0966 -0.6430 -0.4793
  215MOL0     H28996   8.427  12.709   3.649 -1.0589 -3.5972  3.0940
  215MOL0     H28997   8.458  12.856   3.844  0.7040  1.3292  2.0489
  215MOL0     H28998   8.523  12.932   3.692 -4.0183 -2.2382 -1.9499
  215MOL0     H28999   8.704  12.811   3.921  0.7478  1.1303  0.9827
  215MOL0     H29000   8.757  12.869   3.776  1.6642  0.0313  0.3046
  215MOL0     H29001   8.660  13.099   3.824 -2.4357 -1.1574 -0.7568
  215MOL0     H29002   8.763  13.059   3.955  0.0507  2.9711 -1.0905
  215MOL0     H29003   8.544  13.175   3.996  0.6192 -0.8045 -0.3283
  215MOL0     H29004   8.480  13.010   4.012  1.5576 -0.8241 -0.4100
  215MOL0     H29005   8.940  12.346   3.569 -0.9797  3.1739 -1.4381
  215MOL0     H29006   9.084  12.155   3.511 -1.2844 -1.2405  0.3303
  215MOL0     H29007   9.155  11.736   3.179  0.2454 -1.1273  0.8110
  215MOL0     H29008   9.344  11.591   3.094 -1.6709  0.9034  0.6975
  215MOL0     H29009  10.782  10.525   2.076  1.4750 -2.4743 -1.5816
  215MOL0     H29010  10.941  10.447   1.907 -0.2414  1.3889  0.8353
  215MOL0     H29011  11.164  10.319   1.615  1.3539  0.3061  1.4505
  215MOL0     H29012  11.322  10.245   1.452  0.1026  0.3387 -0.2783
  215MOL0     H29013  11.356  10.113   1.283  0.4632  0.5878  2.0047
  215MOL0     H29014  11.495  10.226   1.264  0.3025 -0.5552 -0.0405
  215MOL0     H29015  11.466  10.197   1.007  2.1898 -1.1073  0.1666
  215MOL0     H29016  11.349  10.063   1.061 -1.0912  1.4028 -1.5624
  215MOL0     H29017  11.515   9.967   1.181 -2.1606  0.2786  0.8485
  215MOL0     H29018  11.640  10.092   1.145  1.4402 -1.1976 -2.0910
  215MOL0     H29019  11.610  10.027   0.893  2.8465 -1.0325  0.1722
  215MOL0     H29020  11.681   9.897   0.995  0.6994 -1.0071 -3.2569
  215MOL0     H29021  11.319   9.709   0.895  1.3584 -1.6851  1.4877
  215MOL0     H29022  11.101  10.383   1.138 -0.9658 -4.3073  0.8898
  215MOL0     H29023  10.806  10.482   1.303 -0.9069  0.8481 -1.2710
  215MOL0     H29024  10.920  10.617   1.305 -0.3033 -0.6364  0.1615
  215MOL0     H29025  10.899  10.496   1.164  2.2884 -0.3559 -0.4172
  216MOL0     O29026   9.504  10.739   3.833 -0.8722 -0.6385  0.8886
  216MOL0     C29027   9.534  10.856   3.832  0.0807  1.2675  0.9432
  216MOL0     O29028   9.462  10.959   3.782  0.7178  0.8240 -1.1562
  216MOL0     C29029   9.351  10.919   3.721  0.7028  0.2736 -0.8309
  216MOL0     C29030   9.348  10.898   3.587  0.6158 -0.0517  0.6627
  216MOL0     C29031   9.237  10.832   3.528 -1.1196 -0.9904  0.0380
  216MOL0     C29032   9.119  10.820   3.597  0.6370  0.3411  0.1950
  216MOL0     O29033   9.006  10.779   3.522 -0.2950  0.2872  0.4225
  216MOL0     C29034   8.880  10.793   3.580 -0.1917  0.1133  0.6281
  216MOL0     C29035   8.769  10.755   3.481 -0.4427  1.2733  0.8348
  216MOL0     C29036   8.817  10.715   3.338 -0.5328  0.3420  0.4115
  216MOL0     C29037   8.694  10.681   3.250  0.1760  0.0661 -0.1993
  216MOL0     C29038   8.730  10.614   3.112 -0.0012 -0.5245  0.3208
  216MOL0     C29039   8.619  10.602   3.004  1.3524  1.0139  0.0594
  216MOL0     C29040   8.672  10.588   2.862  0.8138  0.5233 -0.7411
  216MOL0     C29041   8.756  10.458   2.832  0.2279 -0.2921  0.1860
  216MOL0     N29042   8.859  10.493   2.738 -0.1738  0.8661 -0.0930
  216MOL0     C29043   8.842  10.493   2.608  0.6840  0.5881  0.6673
  216MOL0     C29044   8.964  10.515   2.547 -0.1783  0.1060 -0.7925
  216MOL0     C29045   8.974  10.563   2.398  0.7807  0.9352  0.2904
  216MOL0     C29046   8.971  10.717   2.396 -0.0566  0.1393 -0.4983
  216MOL0     C29047   8.853  10.775   2.487  0.1590  0.6157 -0.2501
  216MOL0     C29048   8.816  10.923   2.470 -0.6048 -0.5846 -0.3584
  216MOL0     O29049   8.684  10.954   2.503  0.2350 -0.0628 -0.2665
  216MOL0     C29050   8.663  11.091   2.505 -0.4873  0.0514  0.1508
  216MOL0     C29051   8.626  11.170   2.623 -0.0862  0.6540 -1.1678
  216MOL0     C29052   8.611  11.309   2.629 -0.1747  0.5794  0.8017
  216MOL0     C29053   8.614  11.378   2.513 -0.8489 -0.3921 -0.0746
  216MOL0     C29054   8.597  11.522   2.513 -1.3679  0.3432 -0.9162
  216MOL0     O29055   8.627  11.591   2.405  0.0276  0.0030 -0.1946
  216MOL0     C29056   8.641  11.723   2.419 -0.0598 -0.3193 -0.3497
  216MOL0     C29057   8.570  11.804   2.333  0.7807  0.3867 -0.3543
  216MOL0     C29058   8.609  11.936   2.314 -0.4402 -0.1999 -0.5629
  216MOL0     C29059   8.712  11.995   2.391  0.4543 -0.5289 -0.3437
  216MOL0     O29060   8.737  12.131   2.358  0.4364  0.7981 -0.5896
  216MOL0     C29061   8.617  12.219   2.368 -0.5272  0.3408 -0.7889
  216MOL0     C29062   8.667  12.362   2.348  0.1544 -0.2009 -0.1262
  216MOL0     C29063   8.561  12.463   2.376 -0.4397  0.0257 -0.2802
  216MOL0     C29064   8.483  12.498   2.249 -0.4115 -0.2516  0.3684
  216MOL0     C29065   8.549  12.600   2.159  0.8096 -0.3553 -0.1522
  216MOL0     C29066   8.537  12.556   2.010  0.3450  0.2981 -0.2344
  216MOL0     C29067   8.547  12.664   1.904  0.6267  0.2665  1.3000
  216MOL0     C29068   8.694  12.691   1.876  0.9144 -0.9417  1.1045
  216MOL0    Cl29069   8.801  12.735   2.013 -0.7322 -0.1811 -0.2661
  216MOL0     C29070   8.773  11.923   2.492  1.0850  0.0821 -0.1840
  216MOL0     C29071   8.732  11.785   2.507 -0.5722 -0.3237  0.3761
  216MOL0     O29072   8.546  11.573   2.614  0.0425 -0.3131 -0.8209
  216MOL0     C29073   8.657  11.316   2.403  0.1994  0.3509  0.0704
  216MOL0     C29074   8.675  11.174   2.393  0.4301  0.6872  1.3326
  216MOL0     N29075   9.058  10.535   2.651  0.5425  0.5224  0.3593
  216MOL0     N29076   8.995  10.525   2.760 -0.3909  0.7829 -0.0596
  216MOL0     C29077   9.121  10.845   3.732 -0.1374  0.6484 -0.5815
  216MOL0     C29078   9.241  10.892   3.798  0.9928  0.3125  0.0883
  216MOL0     C29079   9.671  10.872   3.901  1.1754 -0.3282  0.5854
  216MOL0     C29080   9.687  11.002   3.954  0.5587 -0.0023  0.0774
  216MOL0     C29081   9.799  11.048   4.013 -0.2702 -0.3569 -0.3224
  216MOL0     C29082   9.902  10.960   4.042 -0.2588 -0.1347  1.2055
  216MOL0     O29083  10.005  11.015   4.116 -0.4711 -0.2904 -1.2800
  216MOL0     C29084  10.098  10.927   4.170  0.2362  0.1103 -0.3656
  216MOL0     C29085  10.226  10.918   4.075 -0.2637  0.1588 -0.0682
  216MOL0     C29086  10.351  10.882   4.155  0.2673  0.2966  0.2926
  216MOL0     C29087  10.459  10.834   4.065  0.5141 -0.0417 -0.0584
  216MOL0     C29088  10.481  10.931   3.957  1.0854 -0.3677  0.2826
  216MOL0     C29089  10.497  10.991   3.858  0.6950  0.0884  0.0569
  216MOL0     C29090   9.895  10.827   3.977  0.2744 -0.5624 -0.3160
  216MOL0     C29091   9.777  10.781   3.918 -0.3532 -0.0980  0.0983
  216MOL0     C29092   9.778  10.635   3.867 -0.1469 -0.1250 -0.5451
  216MOL0     H29093   9.432  10.912   3.520 -0.9406  0.7986 -1.1837
  216MOL0     H29094   9.242  10.790   3.428 -1.0868  1.4770 -1.0693
  216MOL0     H29095   8.872  10.730   3.670  1.3238  0.1781  0.8368
  216MOL0     H29096   8.874  10.900   3.601  1.3328  1.2009 -3.5587
  216MOL0     H29097   8.692  10.832   3.486 -1.1322  1.1647 -3.9295
  216MOL0     H29098   8.718  10.664   3.512  0.2135  0.8936  0.8286
  216MOL0     H29099   8.886  10.633   3.359  1.3670  2.0785  1.3229
  216MOL0     H29100   8.863  10.801   3.287 -2.7284  2.4362  1.7118
  216MOL0     H29101   8.630  10.604   3.295  0.9885 -1.7092 -1.9093
  216MOL0     H29102   8.642  10.774   3.226 -0.0283 -0.4727 -2.0190
  216MOL0     H29103   8.818  10.664   3.070 -1.5937  1.6300 -0.6111
  216MOL0     H29104   8.770  10.512   3.114  2.8828  0.4376 -1.6267
  216MOL0     H29105   8.542  10.528   3.027 -0.3553  3.0712  1.4024
  216MOL0     H29106   8.558  10.693   3.004 -1.3457 -0.6614 -0.5501
  216MOL0     H29107   8.730  10.679   2.841 -0.3607  0.7148 -3.6156
  216MOL0     H29108   8.581  10.584   2.801  2.2560 -0.4558 -2.9672
  216MOL0     H29109   8.805  10.416   2.920 -0.1335 -0.0128  0.5264
  216MOL0     H29110   8.686  10.380   2.802  0.0744  0.3281 -1.1281
  216MOL0     H29111   8.748  10.486   2.554  0.1214  0.1488  1.6806
  216MOL0     H29112   9.072  10.538   2.355 -0.4321  0.9202 -2.6448
  216MOL0     H29113   8.902  10.515   2.332  1.1736  0.3848  0.2551
  216MOL0     H29114   9.070  10.749   2.429 -0.3494  0.8705 -0.3177
  216MOL0     H29115   8.959  10.756   2.295  2.1727  1.8748 -0.1537
  216MOL0     H29116   8.877  10.763   2.593  2.2741  0.7646 -0.6691
  216MOL0     H29117   8.759  10.724   2.463  0.8512 -0.3745 -0.9587
  216MOL0     H29118   8.834  10.951   2.365 -1.6321  0.5416 -0.2572
  216MOL0     H29119   8.886  10.983   2.529 -2.6861  2.2508 -0.5295
  216MOL0     H29120   8.606  11.099   2.703  3.1790 -0.4805 -1.2080
  216MOL0     H29121   8.594  11.364   2.721  0.8661  0.9688  0.7764
  216MOL0     H29122   8.499  11.764   2.260  0.2951  0.7498 -0.0788
  216MOL0     H29123   8.553  11.994   2.241 -0.7711 -0.0966 -0.2271
  216MOL0     H29124   8.538  12.193   2.297 -1.1386 -2.6403  0.8259
  216MOL0     H29125   8.581  12.197   2.469  2.6623 -2.6994 -0.1496
  216MOL0     H29126   8.754  12.385   2.410 -2.0180  0.2187  2.9967
  216MOL0     H29127   8.709  12.379   2.249 -3.4622  1.0969 -1.6312
  216MOL0     H29128   8.490  12.423   2.448 -2.0052 -2.4132 -2.9502
  216MOL0     H29129   8.616  12.548   2.417  1.8460 -0.3206 -2.3586
  216MOL0     H29130   8.396  12.550   2.291  1.2211  1.6303  1.5747
  216MOL0     H29131   8.458  12.410   2.188  0.3243  0.9695 -1.7806
  216MOL0     H29132   8.656  12.618   2.172  0.1096  3.6072  1.9407
  216MOL0     H29133   8.504  12.698   2.178  0.9881 -0.4839  1.0258
  216MOL0     H29134   8.614  12.479   2.002 -0.8864 -1.0884  0.7050
  216MOL0     H29135   8.441  12.505   1.998 -0.8397  2.2529  0.4432
  216MOL0     H29136   8.497  12.757   1.930  0.4834  0.2604  1.0465
  216MOL0     H29137   8.513  12.632   1.806 -0.8174  0.0504  1.8526
  216MOL0     H29138   8.746  12.617   1.814 -1.7535 -1.6190 -0.5152
  216MOL0     H29139   8.691  12.781   1.814 -2.3092 -0.8225  1.2236
  216MOL0     H29140   8.849  11.973   2.552  0.1369  0.7398  0.5013
  216MOL0     H29141   8.780  11.716   2.576  0.8046 -1.1789 -1.3605
  216MOL0     H29142   8.674  11.374   2.313  1.5982  1.6627  1.1138
  216MOL0     H29143   8.709  11.133   2.298  0.3258  1.6907  0.8544
  216MOL0     H29144   9.042  10.823   3.803  0.0375 -2.1348 -1.1445
  216MOL0     H29145   9.244  10.895   3.907  0.7809 -1.3100  0.1684
  216MOL0     H29146   9.598  11.064   3.952 -1.5770 -2.8176 -2.7157
  216MOL0     H29147   9.803  11.149   4.052  0.1011  0.0016 -1.2649
  216MOL0     H29148  10.066  10.824   4.185 -1.1587  0.8885  2.9563
  216MOL0     H29149  10.131  10.956   4.271  2.7958 -2.1753 -0.4223
  216MOL0     H29150  10.231  11.011   4.017 -3.5707  2.5191  2.9486
  216MOL0     H29151  10.201  10.841   4.002  1.5434 -0.9517  0.4386
  216MOL0     H29152  10.320  10.810   4.231  1.5474 -1.8664 -1.1444
  216MOL0     H29153  10.393  10.974   4.196  1.3639  0.7218 -1.6515
  216MOL0     H29154  10.553  10.823   4.121  1.0210  3.1881 -0.0558
  216MOL0     H29155  10.439  10.737   4.019  1.8839  0.1643 -1.1822
  216MOL0     H29156  10.520  11.023   3.758  1.0490  0.4186  0.2419
  216MOL0     H29157   9.979  10.760   3.989 -0.1769 -1.0549  0.2037
  216MOL0     H29158   9.703  10.577   3.920 -0.7300  0.0208 -1.1933
  216MOL0     H29159   9.746  10.640   3.762  3.2006 -0.0129 -1.6942
  216MOL0     H29160   9.874  10.582   3.864 -1.1339 -1.9749 -2.8041
  217MOL0     O29161   2.463   3.395   5.406 -0.1134  0.6620  0.2296
  217MOL0     C29162   2.484   3.453   5.511 -0.6461 -0.3166 -0.0872
  217MOL0     O29163   2.411   3.558   5.548 -0.5134  0.5170 -0.5266
  217MOL0     C29164   2.310   3.585   5.459  0.2121  0.0024 -0.3281
  217MOL0     C29165   2.327   3.667   5.340  0.2683  0.5506 -0.1522
  217MOL0     C29166   2.227   3.674   5.244  0.6054  0.0672  0.5643
  217MOL0     C29167   2.107   3.608   5.266 -0.4790 -0.4644  1.1483
  217MOL0     O29168   2.012   3.617   5.165 -0.3706 -0.4476  0.3288
  217MOL0     C29169   2.054   3.587   5.030 -0.0957 -0.4649  0.1269
  217MOL0     C29170   1.936   3.629   4.930  0.3290  0.1996  0.4006
  217MOL0     C29171   1.989   3.638   4.782 -0.3375 -0.7661  0.5706
  217MOL0     C29172   1.872   3.665   4.686 -0.5932 -0.5439  0.6306
  217MOL0     C29173   1.920   3.677   4.537  0.0925 -0.0838 -0.2938
  217MOL0     C29174   1.798   3.700   4.437 -0.3132 -1.1483  1.2934
  217MOL0     C29175   1.718   3.577   4.401  0.6594  0.3632 -0.7331
  217MOL0     C29176   1.622   3.588   4.289 -0.5836  0.4118  0.7399
  217MOL0     N29177   1.519   3.696   4.321 -0.2444 -0.3507 -0.2247
  217MOL0     C29178   1.525   3.823   4.282 -0.2035 -0.0248  0.9622
  217MOL0     C29179   1.403   3.884   4.316  0.1031  0.6877  0.4760
  217MOL0     C29180   1.356   4.021   4.287 -0.3919  0.7384 -0.6577
  217MOL0     C29181   1.208   4.024   4.237  0.6033  0.2109  0.2456
  217MOL0     C29182   1.181   4.146   4.151  0.2727  0.5730  0.5678
  217MOL0     C29183   1.187   4.276   4.223  0.0159  1.5675 -0.1577
  217MOL0     O29184   1.121   4.276   4.342  0.6859  0.2879 -0.2703
  217MOL0     C29185   1.126   4.397   4.411  0.7495  1.2396 -0.5048
  217MOL0     C29186   1.214   4.496   4.403  0.0114 -0.3205 -0.2731
  217MOL0     C29187   1.209   4.608   4.492 -0.4583 -0.0559  0.0534
  217MOL0     C29188   1.109   4.618   4.587  0.5064  0.2732  0.0234
  217MOL0     C29189   1.081   4.735   4.676  0.0084  0.5537  0.2218
  217MOL0     O29190   1.170   4.834   4.655  0.4751 -0.2055  0.0776
  217MOL0     C29191   1.171   4.948   4.730 -0.5510  0.2696 -0.2128
  217MOL0     C29192   1.172   5.071   4.674  0.2036  0.2767  0.0501
  217MOL0     C29193   1.176   5.186   4.753 -0.0385  0.2443 -1.7743
  217MOL0     C29194   1.206   5.176   4.888 -1.3631  0.0726  0.3508
  217MOL0     O29195   1.218   5.287   4.963 -0.5368 -0.4770 -0.4294
  217MOL0     C29196   1.174   5.283   5.095 -0.0430 -0.4938  0.4490
  217MOL0     C29197   1.144   5.418   5.157  0.0325 -0.4379 -0.8727
  217MOL0     C29198   1.267   5.463   5.226 -0.0858 -0.0446  0.2286
  217MOL0     C29199   1.252   5.609   5.271 -0.5725  0.5721  0.3784
  217MOL0     C29200   1.339   5.619   5.394 -0.8934  0.2867  0.7583
  217MOL0     C29201   1.354   5.775   5.435  0.8326  1.5639  1.0039
  217MOL0     C29202   1.419   5.808   5.567 -0.1678 -0.2597  0.0120
  217MOL0     C29203   1.366   5.939   5.633  0.7007  0.0613 -0.2572
  217MOL0    Cl29204   1.356   6.071   5.511  0.1524  0.4659 -0.4633
  217MOL0     C29205   1.209   5.047   4.945  0.6444 -0.6593  0.3828
  217MOL0     C29206   1.192   4.928   4.866 -0.6087  0.1000 -0.1732
  217MOL0     O29207   0.978   4.743   4.741 -0.1229 -0.1133 -0.1460
  217MOL0     C29208   1.012   4.518   4.583 -1.4692  0.9723 -0.3246
  217MOL0     C29209   1.021   4.407   4.503  0.3262  0.4138  1.0149
  217MOL0     N29210   1.333   3.787   4.380 -0.7260  0.0683 -0.5148
  217MOL0     N29211   1.400   3.673   4.376 -0.2053  0.0813 -0.0664
  217MOL0     C29212   2.081   3.536   5.372 -0.5756 -0.6968 -0.2454
  217MOL0     C29213   2.179   3.527   5.469 -0.6209 -0.1499  0.0154
  217MOL0     C29214   2.598   3.407   5.586 -0.2801 -0.2393 -0.9305
  217MOL0     C29215   2.595   3.436   5.726 -0.1002  0.0500  0.1437
  217MOL0     C29216   2.701   3.405   5.816  0.5695  0.5433 -0.1796
  217MOL0     C29217   2.798   3.316   5.776  0.5679  1.3617 -1.5985
  217MOL0     O29218   2.902   3.271   5.850  0.3117  0.9393  0.7387
  217MOL0     C29219   2.883   3.207   5.982 -1.0753 -0.2259  0.1149
  217MOL0     C29220   3.003   3.104   5.994  0.0126 -0.4622  0.5871
  217MOL0     C29221   3.121   3.200   6.017 -0.8128  0.5608 -0.5321
  217MOL0     C29222   3.250   3.121   6.008  0.2326 -0.0754 -0.3477
  217MOL0     C29223   3.258   3.008   6.104 -0.2526 -0.3948  0.2774
  217MOL0     C29224   3.267   2.900   6.175 -0.1219 -0.6720  0.6302
  217MOL0     C29225   2.797   3.274   5.640  0.0940 -0.0602 -0.5070
  217MOL0     C29226   2.702   3.320   5.539 -0.2295 -1.0575  0.3746
  217MOL0     C29227   2.713   3.276   5.395  0.4605  0.2114 -0.1192
  217MOL0     H29228   2.423   3.709   5.312  0.8454  0.9577  2.1719
  217MOL0     H29229   2.229   3.742   5.160 -2.2659 -0.2977  0.1017
  217MOL0     H29230   2.146   3.637   4.999  0.9087 -2.7794 -0.8516
  217MOL0     H29231   2.075   3.480   5.018 -3.3117 -1.3697  1.3560
  217MOL0     H29232   1.897   3.727   4.959 -0.7612  0.3993 -1.5823
  217MOL0     H29233   1.853   3.559   4.923  0.5931 -0.0592 -0.1837
  217MOL0     H29234   2.045   3.547   4.758  0.1968 -0.7260  1.5809
  217MOL0     H29235   2.061   3.720   4.778 -1.3988  0.5284  4.0194
  217MOL0     H29236   1.799   3.584   4.699 -0.7511 -1.0101 -2.4721
  217MOL0     H29237   1.833   3.766   4.706 -0.3757 -0.3635  0.1591
  217MOL0     H29238   1.980   3.769   4.529 -2.3482  1.5387 -0.8668
  217MOL0     H29239   1.969   3.584   4.507 -3.2924 -1.7415 -1.1480
  217MOL0     H29240   1.722   3.761   4.486  0.8427  0.6946  0.8967
  217MOL0     H29241   1.829   3.750   4.344 -3.7470 -2.5281 -0.7984
  217MOL0     H29242   1.656   3.552   4.488  0.6822 -1.0169 -1.0882
  217MOL0     H29243   1.777   3.490   4.369 -1.6338 -1.7152  0.2813
  217MOL0     H29244   1.685   3.610   4.203  0.6207 -2.2486  0.8480
  217MOL0     H29245   1.573   3.492   4.272  1.2002 -0.6143  1.1679
  217MOL0     H29246   1.594   3.887   4.227 -3.1337  2.7197  0.1649
  217MOL0     H29247   1.358   4.093   4.370 -1.1785  2.6450 -2.2278
  217MOL0     H29248   1.424   4.054   4.208 -2.6777  2.8387 -1.8826
  217MOL0     H29249   1.183   3.942   4.168 -0.6455  1.2572 -0.5980
  217MOL0     H29250   1.135   4.017   4.319  2.0352  1.3123  1.6721
  217MOL0     H29251   1.084   4.137   4.103  0.2424  1.7911  0.3738
  217MOL0     H29252   1.256   4.146   4.072 -1.2080 -0.0902 -0.8855
  217MOL0     H29253   1.139   4.353   4.162 -0.5975  2.5076  1.4709
  217MOL0     H29254   1.290   4.311   4.233  1.0268 -1.4012  1.0063
  217MOL0     H29255   1.278   4.489   4.316 -1.4225  2.5053 -1.6898
  217MOL0     H29256   1.283   4.687   4.484 -1.1851  0.5907 -0.3331
  217MOL0     H29257   1.175   5.072   4.566 -2.9837 -1.1191 -0.1622
  217MOL0     H29258   1.166   5.286   4.710 -1.7418  1.6394  1.4882
  217MOL0     H29259   1.084   5.221   5.102 -0.8671  0.6707  0.4923
  217MOL0     H29260   1.254   5.234   5.151  2.6240  0.1763 -2.4862
  217MOL0     H29261   1.109   5.477   5.071 -2.5277 -1.3385 -0.5362
  217MOL0     H29262   1.064   5.399   5.229  1.1153 -1.3284  0.1196
  217MOL0     H29263   1.272   5.404   5.318 -0.9722 -0.0864  0.2549
  217MOL0     H29264   1.355   5.455   5.162 -1.3667  2.5632 -2.0489
  217MOL0     H29265   1.148   5.631   5.295 -1.4608 -2.3121 -0.4590
  217MOL0     H29266   1.282   5.677   5.190  2.1479  0.1485  0.9174
  217MOL0     H29267   1.435   5.568   5.379 -1.8382 -0.9569 -1.7239
  217MOL0     H29268   1.297   5.565   5.480  0.8199 -1.0382  0.8127
  217MOL0     H29269   1.425   5.812   5.361 -0.2195  3.4904  0.9078
  217MOL0     H29270   1.261   5.829   5.411  2.0296  2.3860 -2.2747
  217MOL0     H29271   1.526   5.827   5.558 -0.2181 -0.0197 -0.0976
  217MOL0     H29272   1.408   5.730   5.642 -6.0769  2.4104  2.6011
  217MOL0     H29273   1.263   5.934   5.668  1.2084 -1.3360  1.1475
  217MOL0     H29274   1.433   5.949   5.719  0.6969  0.7981 -0.3398
  217MOL0     H29275   1.207   5.035   5.053 -0.2206  0.0069  0.4485
  217MOL0     H29276   1.197   4.828   4.908 -0.1948  1.0062  2.1294
  217MOL0     H29277   0.924   4.521   4.647 -1.5238  0.0030 -0.3333
  217MOL0     H29278   0.939   4.335   4.514  1.2302 -0.9614 -0.7104
  217MOL0     H29279   1.982   3.493   5.385  0.1011 -1.6744  2.3340
  217MOL0     H29280   2.150   3.490   5.567 -3.2896  1.1517 -0.1650
  217MOL0     H29281   2.503   3.481   5.762 -0.6220 -2.9376  3.0714
  217MOL0     H29282   2.692   3.437   5.919 -4.6269 -1.6078  0.3551
  217MOL0     H29283   2.783   3.162   5.982 -1.2191  0.0792  0.9581
  217MOL0     H29284   2.878   3.280   6.063  1.4494  1.5012 -1.1669
  217MOL0     H29285   3.006   3.045   5.903  2.1586 -1.3502  1.1594
  217MOL0     H29286   2.985   3.031   6.073  0.6988  1.3993  2.5987
  217MOL0     H29287   3.112   3.245   6.117 -1.9350  2.2933 -1.3609
  217MOL0     H29288   3.117   3.286   5.949 -1.4474  1.3040  0.4124
  217MOL0     H29289   3.271   3.085   5.907 -1.5274  1.1901 -1.2216
  217MOL0     H29290   3.328   3.197   6.019 -1.6859  1.7585  1.5696
  217MOL0     H29291   3.261   2.809   6.232 -1.0180 -1.2000 -0.2666
  217MOL0     H29292   2.855   3.185   5.617 -3.6706 -3.4353  1.6903
  217MOL0     H29293   2.619   3.222   5.381 -0.4559  1.6863  0.1492
  217MOL0     H29294   2.717   3.368   5.337 -3.2875  0.3621 -0.4314
  217MOL0     H29295   2.796   3.214   5.360 -1.0485  0.0517 -3.9358
  218MOL0     O29296   8.485   5.555   3.028  0.0823  0.3267  0.2594
  218MOL0     C29297   8.441   5.539   3.142  0.6306 -0.0087  0.3572
  218MOL0     O29298   8.527   5.535   3.250  1.2916  0.4950  0.1130
  218MOL0     C29299   8.510   5.446   3.357 -0.9183  0.1434  0.9140
  218MOL0     C29300   8.449   5.325   3.347  0.4530 -0.0694 -0.6219
  218MOL0     C29301   8.428   5.242   3.461  0.5534 -0.3436  0.3336
  218MOL0     C29302   8.492   5.283   3.581  0.3205  0.5815  0.1024
  218MOL0     O29303   8.485   5.218   3.697 -0.2026  0.3941 -0.5319
  218MOL0     C29304   8.493   5.068   3.693 -0.4138  0.3282  0.5350
  218MOL0     C29305   8.567   4.994   3.821  0.5997  0.3717  0.3014
  218MOL0     C29306   8.493   5.025   3.948  0.9742 -0.2386  0.8154
  218MOL0     C29307   8.526   4.916   4.057  0.3662  0.1779  0.0045
  218MOL0     C29308   8.661   4.932   4.118  0.4263 -0.1455  0.2439
  218MOL0     C29309   8.685   4.840   4.235  0.2796  0.0103 -0.2977
  218MOL0     C29310   8.827   4.867   4.282  0.4548 -0.1642  0.6134
  218MOL0     C29311   8.843   4.795   4.421  0.9267 -0.2219 -0.0340
  218MOL0     N29312   8.976   4.812   4.475 -0.2223 -0.3362  0.1766
  218MOL0     C29313   9.035   4.923   4.526  0.2300  0.8979  0.1426
  218MOL0     C29314   9.152   4.888   4.591 -0.4000  0.9666  0.6421
  218MOL0     C29315   9.238   4.984   4.666  0.3045  0.8608  1.4664
  218MOL0     C29316   9.276   4.921   4.805  1.0675 -0.8131 -0.5643
  218MOL0     C29317   9.328   5.029   4.905  0.1334  0.1641 -0.8902
  218MOL0     C29318   9.357   4.973   5.044 -0.9805  0.6068 -0.0603
  218MOL0     O29319   9.397   4.837   5.055  0.2534 -0.3583  0.8010
  218MOL0     C29320   9.515   4.823   5.122  0.3655 -0.0312 -0.1037
  218MOL0     C29321   9.513   4.748   5.237  0.1452 -0.2214 -0.8118
  218MOL0     C29322   9.625   4.730   5.322  0.1930 -0.6590  0.6244
  218MOL0     C29323   9.747   4.785   5.279  0.0257 -0.1922 -0.3252
  218MOL0     C29324   9.875   4.778   5.360  0.0529 -0.3676 -0.1823
  218MOL0     O29325   9.988   4.847   5.318 -0.0252 -1.5177  0.1457
  218MOL0     C29326  10.115   4.844   5.369 -0.4985  0.2037 -0.3482
  218MOL0     C29327  10.154   4.759   5.475 -0.0909 -0.0448 -0.0029
  218MOL0     C29328  10.286   4.760   5.521 -0.1267  1.1141 -0.1161
  218MOL0     C29329  10.373   4.858   5.479 -0.6155 -0.6439  0.8574
  218MOL0     O29330  10.494   4.882   5.536 -0.1833 -0.3159  0.3654
  218MOL0     C29331  10.570   4.779   5.599 -0.2869  0.2888  0.0292
  218MOL0     C29332  10.669   4.857   5.678 -0.5456  0.1039 -0.0918
  218MOL0     C29333  10.806   4.788   5.715  0.4154 -0.3438  0.3912
  218MOL0     C29334  10.910   4.888   5.773  0.4332 -0.3251 -0.1108
  218MOL0     C29335  10.862   4.973   5.901  0.4154  0.7360  0.5543
  218MOL0     C29336  10.852   4.888   6.025 -0.5468 -0.5526 -0.4420
  218MOL0     C29337  10.778   4.956   6.142  0.2103 -0.2001 -1.5310
  218MOL0     C29338  10.638   4.928   6.129  0.5333 -0.1806 -0.0739
  218MOL0    Cl29339  10.551   4.971   6.269 -0.1060 -0.1480  0.4563
  218MOL0     C29340  10.338   4.935   5.365  0.2859 -0.3335 -0.8607
  218MOL0     C29341  10.212   4.920   5.306  0.2095  0.0333  0.6247
  218MOL0     O29342   9.867   4.716   5.459 -0.0390  0.0781 -0.1530
  218MOL0     C29343   9.751   4.864   5.161 -0.1261 -0.2979  1.1208
  218MOL0     C29344   9.634   4.877   5.076  0.5768 -0.5005  0.1760
  218MOL0     N29345   9.162   4.746   4.578 -1.0713 -0.5236 -0.5788
  218MOL0     N29346   9.057   4.703   4.515  1.2668 -0.2878 -0.7051
  218MOL0     C29347   8.560   5.406   3.585  0.1781 -0.2421 -0.9003
  218MOL0     C29348   8.572   5.488   3.476  0.4415 -0.6695 -0.1549
  218MOL0     C29349   8.302   5.545   3.159  0.4534 -0.3362 -0.3322
  218MOL0     C29350   8.220   5.486   3.064  0.0474  1.0484 -1.0622
  218MOL0     C29351   8.077   5.497   3.074 -0.3787  0.0752  0.6459
  218MOL0     C29352   8.015   5.570   3.174 -0.2720 -0.6435  0.3392
  218MOL0     O29353   7.883   5.588   3.187  1.3426 -0.9413 -0.2220
  218MOL0     C29354   7.806   5.604   3.064  0.3678  0.0523  0.2753
  218MOL0     C29355   7.867   5.730   2.980  0.2333  0.0185 -0.7694
  218MOL0     C29356   7.857   5.859   3.060  0.1485 -0.0825 -0.0578
  218MOL0     C29357   7.880   5.992   2.979  0.0660 -0.6960  0.5810
  218MOL0     C29358   7.989   5.983   2.884 -0.4982  0.2631 -0.3026
  218MOL0     C29359   8.076   5.958   2.805 -0.9230  0.5204 -0.6290
  218MOL0     C29360   8.104   5.624   3.266  0.7707 -0.4407  0.3105
  218MOL0     C29361   8.238   5.623   3.261  0.3093  0.0699  0.4357
  218MOL0     C29362   8.309   5.709   3.367  0.0046 -0.4482  0.0707
  218MOL0     H29363   8.390   5.285   3.266 -2.4298 -2.7707  2.4774
  218MOL0     H29364   8.382   5.144   3.455  1.5083 -0.8318  0.6707
  218MOL0     H29365   8.390   5.030   3.691 -0.4461  0.3039  2.1129
  218MOL0     H29366   8.543   5.037   3.600  3.1242  0.0161  2.3810
  218MOL0     H29367   8.671   5.024   3.833  0.7662 -1.1924  4.4260
  218MOL0     H29368   8.580   4.888   3.798 -3.4068  0.0804 -1.4324
  218MOL0     H29369   8.385   5.016   3.936  0.9770 -1.1680  1.3931
  218MOL0     H29370   8.524   5.124   3.982 -1.9532  0.2684  2.3627
  218MOL0     H29371   8.449   4.917   4.135 -1.6718  0.0816 -1.9110
  218MOL0     H29372   8.525   4.816   4.013  0.6450  1.0881 -2.1773
  218MOL0     H29373   8.740   4.923   4.043  2.5758 -2.8237  2.6061
  218MOL0     H29374   8.669   5.034   4.157  2.0008 -0.5614  1.0675
  218MOL0     H29375   8.615   4.858   4.317 -0.8419  0.2675 -1.2775
  218MOL0     H29376   8.675   4.735   4.206  0.1940 -0.8891  2.6801
  218MOL0     H29377   8.840   4.975   4.293 -0.6360  0.0809 -0.4132
  218MOL0     H29378   8.899   4.834   4.206 -1.1739 -2.0973 -0.1904
  218MOL0     H29379   8.767   4.824   4.494  0.1152 -0.5932 -0.7046
  218MOL0     H29380   8.821   4.688   4.419  0.3262 -0.3244  4.2629
  218MOL0     H29381   8.998   5.025   4.516  0.3700  0.7611 -2.1041
  218MOL0     H29382   9.331   5.008   4.612 -1.0521  1.4550 -0.7636
  218MOL0     H29383   9.175   5.071   4.684  1.4258  2.0540 -0.0776
  218MOL0     H29384   9.186   4.875   4.845  0.8433 -1.3325 -1.6060
  218MOL0     H29385   9.356   4.847   4.794  2.5497  0.5847  0.4117
  218MOL0     H29386   9.257   5.112   4.913 -0.2488  0.0500 -2.7186
  218MOL0     H29387   9.424   5.069   4.870 -0.0153  0.4513 -0.9692
  218MOL0     H29388   9.282   4.993   5.121 -1.7269 -1.9984 -0.0479
  218MOL0     H29389   9.447   5.029   5.073 -0.9040 -0.9200  2.9786
  218MOL0     H29390   9.413   4.718   5.267 -0.4349  4.2456  3.1006
  218MOL0     H29391   9.630   4.674   5.415  2.1363  0.1439  1.0517
  218MOL0     H29392  10.087   4.684   5.516  0.9029  0.9407  3.7564
  218MOL0     H29393  10.311   4.702   5.609  1.7910  1.1939 -0.5583
  218MOL0     H29394  10.508   4.709   5.657 -3.5532  1.2115 -2.0293
  218MOL0     H29395  10.622   4.707   5.536  0.6888 -0.5593  1.7317
  218MOL0     H29396  10.700   4.950   5.630  2.3149  0.8996  2.9066
  218MOL0     H29397  10.615   4.887   5.768 -1.8191 -0.8753 -0.5048
  218MOL0     H29398  10.781   4.709   5.787  3.5837 -1.5105  0.3596
  218MOL0     H29399  10.854   4.735   5.632 -2.2203  0.1488 -1.5809
  218MOL0     H29400  10.924   4.972   5.704  2.7304 -2.0703 -1.9075
  218MOL0     H29401  11.005   4.836   5.785 -0.3977 -1.5413  1.5718
  218MOL0     H29402  10.763   5.014   5.876  0.8151  0.5361 -1.5544
  218MOL0     H29403  10.932   5.056   5.914  0.3514  0.9323 -0.3095
  218MOL0     H29404  10.820   4.785   6.010 -0.4955 -0.5077 -0.9030
  218MOL0     H29405  10.957   4.866   6.046 -0.7643 -2.0599 -0.8387
  218MOL0     H29406  10.790   5.065   6.140 -0.9047 -0.0597 -1.1091
  218MOL0     H29407  10.817   4.926   6.240  0.4983  1.3436 -1.1416
  218MOL0     H29408  10.592   4.989   6.051 -0.6464 -1.2465 -0.2369
  218MOL0     H29409  10.616   4.821   6.120 -0.1077 -0.7775  5.2354
  218MOL0     H29410  10.403   5.011   5.323 -3.1540  1.8024 -2.8281
  218MOL0     H29411  10.173   4.986   5.230  0.4495 -0.5384 -0.0053
  218MOL0     H29412   9.836   4.907   5.107  1.2630 -3.0562  0.9076
  218MOL0     H29413   9.638   4.933   4.983  1.6482 -0.6261  0.1310
  218MOL0     H29414   8.615   5.424   3.676 -0.2499 -0.7639 -0.5283
  218MOL0     H29415   8.634   5.577   3.479  0.3649 -0.6159 -0.1790
  218MOL0     H29416   8.275   5.440   2.982  0.3697 -0.4014 -0.0558
  218MOL0     H29417   8.013   5.448   3.002 -1.2747  1.2317  0.6334
  218MOL0     H29418   7.697   5.617   3.073  0.7817  3.1726  1.8125
  218MOL0     H29419   7.815   5.522   2.991 -0.9125  1.5461 -1.6875
  218MOL0     H29420   7.807   5.747   2.890 -1.3270  2.3371  0.6231
  218MOL0     H29421   7.970   5.712   2.947  0.9843 -3.8222  2.7342
  218MOL0     H29422   7.940   5.857   3.131  0.0589 -0.8783  0.0384
  218MOL0     H29423   7.762   5.867   3.114  0.0767  0.1394 -0.2157
  218MOL0     H29424   7.789   6.029   2.932  1.6587  2.1985 -0.4772
  218MOL0     H29425   7.892   6.079   3.044  0.7443  0.9149 -1.5521
  218MOL0     H29426   8.146   5.928   2.730  0.3934 -0.2727  0.8530
  218MOL0     H29427   8.058   5.664   3.355 -0.1907 -0.1276 -0.3103
  218MOL0     H29428   8.270   5.809   3.387  2.3278 -0.1700  4.4161
  218MOL0     H29429   8.293   5.662   3.464 -1.2400  1.1121  0.6574
  218MOL0     H29430   8.417   5.722   3.357  0.0774 -0.6974  0.4877
  219MOL0     O29431   6.430   8.918   1.583 -0.3781  0.2119 -0.7288
  219MOL0     C29432   6.477   8.968   1.686 -0.6790  1.0595  0.3691
  219MOL0     O29433   6.502   9.096   1.706  0.0381 -0.3773 -0.0647
  219MOL0     C29434   6.423   9.186   1.631 -0.8449 -0.5392 -0.4386
  219MOL0     C29435   6.285   9.187   1.646  0.9274 -0.8448 -0.5284
  219MOL0     C29436   6.206   9.298   1.593 -0.2446 -0.3169 -0.1777
  219MOL0     C29437   6.278   9.413   1.544  0.9094 -0.2418  0.3138
  219MOL0     O29438   6.203   9.520   1.510  0.6093 -0.1909 -0.3579
  219MOL0     C29439   6.100   9.570   1.599 -0.1660  0.7775  0.0143
  219MOL0     C29440   6.157   9.604   1.746 -0.5075  0.0020 -0.1078
  219MOL0     C29441   6.051   9.689   1.816 -0.8201  0.3612 -0.5428
  219MOL0     C29442   6.025   9.832   1.763 -0.2645  1.1737 -0.7392
  219MOL0     C29443   5.910   9.908   1.850 -0.9214  0.7104 -0.4554
  219MOL0     C29444   5.838  10.021   1.767 -0.9227  0.0664  0.1066
  219MOL0     C29445   5.809  10.015   1.615 -1.0021  0.1450 -0.9848
  219MOL0     C29446   5.714   9.901   1.582 -0.5108  0.2056  0.1106
  219MOL0     N29447   5.580   9.923   1.637  0.0268  0.4000 -0.2057
  219MOL0     C29448   5.539   9.923   1.767 -0.2568  1.0587  0.5329
  219MOL0     C29449   5.406   9.942   1.767 -0.5785  0.0578  0.0536
  219MOL0     C29450   5.315   9.957   1.888  0.7260 -0.3472 -0.6585
  219MOL0     C29451   5.274  10.096   1.918 -0.0400 -0.0085  0.1965
  219MOL0     C29452   5.388  10.194   1.965  0.9364  0.2002 -0.1410
  219MOL0     C29453   5.430  10.173   2.113  0.9322 -0.2830 -0.7658
  219MOL0     O29454   5.498  10.047   2.113  0.6330  0.4765  0.6022
  219MOL0     C29455   5.528   9.988   2.236  0.3318  0.3318  0.8901
  219MOL0     C29456   5.443   9.992   2.346 -0.6404  0.6822  0.6725
  219MOL0     C29457   5.468   9.917   2.468  0.7343 -0.1404  0.4448
  219MOL0     C29458   5.594   9.855   2.475 -0.0893 -1.2305  0.6940
  219MOL0     C29459   5.621   9.786   2.602 -0.5389  0.8633 -0.5027
  219MOL0     O29460   5.594   9.854   2.722  1.1134  0.3127  0.1203
  219MOL0     C29461   5.633   9.802   2.841 -0.9295  0.1933  0.0005
  219MOL0     C29462   5.548   9.741   2.939 -0.6809  0.2982 -0.3520
  219MOL0     C29463   5.604   9.695   3.062  0.0203 -0.2804  0.2211
  219MOL0     C29464   5.737   9.713   3.099 -0.5477 -0.2528 -0.4189
  219MOL0     O29465   5.783   9.669   3.222 -0.1597 -0.1478  0.4331
  219MOL0     C29466   5.744   9.533   3.257 -0.5692  0.9772 -0.6083
  219MOL0     C29467   5.839   9.472   3.358 -0.6287  0.0781 -0.0670
  219MOL0     C29468   5.850   9.559   3.480  0.3102 -0.3975  0.0747
  219MOL0     C29469   5.927   9.494   3.595 -0.9167  0.1984  0.4620
  219MOL0     C29470   5.931   9.591   3.720  0.2748 -0.0297  0.0006
  219MOL0     C29471   5.804   9.629   3.782  0.3060 -1.4200  0.2846
  219MOL0     C29472   5.756   9.520   3.873  0.3662  0.0773  0.0980
  219MOL0     C29473   5.610   9.539   3.926 -1.4704  0.2070 -0.7683
  219MOL0    Cl29474   5.614   9.680   4.029 -0.1266  0.0731 -0.4583
  219MOL0     C29475   5.816   9.770   2.997  1.1434 -0.5944  0.4306
  219MOL0     C29476   5.768   9.807   2.867  0.3205 -0.0576  0.5401
  219MOL0     O29477   5.697   9.684   2.591 -0.5538  0.9496  0.7781
  219MOL0     C29478   5.691   9.862   2.372 -0.0517  0.1990  0.6893
  219MOL0     C29479   5.654   9.937   2.255 -1.2578  0.1334 -0.1893
  219MOL0     N29480   5.376   9.949   1.634  0.1334  0.3790  0.3032
  219MOL0     N29481   5.474   9.924   1.553  0.0814 -0.6429 -0.2519
  219MOL0     C29482   6.416   9.411   1.536 -0.1518  0.4503  0.1028
  219MOL0     C29483   6.487   9.295   1.577  0.5892  0.7569 -0.7185
  219MOL0     C29484   6.550   8.871   1.786 -0.7684  0.2256  0.1227
  219MOL0     C29485   6.599   8.925   1.903  1.2888  0.1315 -0.0294
  219MOL0     C29486   6.643   8.858   2.010  0.7626 -0.6396  0.2237
  219MOL0     C29487   6.634   8.718   1.999 -0.0081 -0.1028 -0.3744
  219MOL0     O29488   6.684   8.631   2.095 -0.6218  0.2675 -0.1026
  219MOL0     C29489   6.734   8.677   2.221  1.2147  0.8713  1.1070
  219MOL0     C29490   6.852   8.597   2.273 -0.2328  0.4261 -0.8936
  219MOL0     C29491   6.827   8.446   2.265 -0.2667  1.0085  0.2296
  219MOL0     C29492   6.940   8.358   2.310 -0.0512  0.2473 -0.0248
  219MOL0     C29493   7.048   8.340   2.208  0.0637  0.3069  0.1082
  219MOL0     C29494   7.124   8.327   2.117 -0.1736  0.1800  1.1329
  219MOL0     C29495   6.588   8.655   1.885 -0.7477 -0.5464  0.1245
  219MOL0     C29496   6.546   8.733   1.774 -0.2848 -0.0888  0.1919
  219MOL0     C29497   6.491   8.663   1.654  0.1359  1.3740  0.1854
  219MOL0     H29498   6.233   9.105   1.695  2.8662 -0.2650  2.8631
  219MOL0     H29499   6.099   9.280   1.595 -0.4553  0.7667 -0.6301
  219MOL0     H29500   6.055   9.658   1.551 -3.2402 -1.7235 -2.1501
  219MOL0     H29501   6.010   9.507   1.593  0.1153  0.1849  1.6043
  219MOL0     H29502   6.254   9.655   1.738 -1.3085  1.7599  0.7082
  219MOL0     H29503   6.168   9.514   1.807 -1.9825  2.2431  3.7973
  219MOL0     H29504   6.071   9.708   1.922 -0.0570  1.9183 -0.9369
  219MOL0     H29505   5.956   9.634   1.811  0.0210 -1.2943  0.6442
  219MOL0     H29506   6.120   9.885   1.772 -1.2011  2.5367  2.2760
  219MOL0     H29507   5.994   9.824   1.658 -1.0631  1.6673 -0.5534
  219MOL0     H29508   5.836   9.832   1.877 -0.2411  0.0954 -0.2866
  219MOL0     H29509   5.956   9.941   1.944  0.3812  0.3937 -0.9481
  219MOL0     H29510   5.755  10.064   1.823  1.6999  1.8863  2.9088
  219MOL0     H29511   5.917  10.096   1.779 -2.6063  2.2040 -1.3963
  219MOL0     H29512   5.906   9.990   1.570 -1.7936 -2.3876 -1.4274
  219MOL0     H29513   5.783  10.115   1.580 -0.7555  0.7130  0.3797
  219MOL0     H29514   5.694   9.888   1.476 -3.5486  0.4106  0.5693
  219MOL0     H29515   5.758   9.805   1.613  0.4337  1.2726  2.3438
  219MOL0     H29516   5.607   9.907   1.850  1.5813  0.0309 -1.0763
  219MOL0     H29517   5.224   9.897   1.876 -0.4548  0.4941  2.7924
  219MOL0     H29518   5.364   9.927   1.981 -0.3900  0.2462  0.1494
  219MOL0     H29519   5.232  10.133   1.824  3.6569 -1.2363 -2.1389
  219MOL0     H29520   5.197  10.103   1.996 -0.9057  0.1307 -0.6398
  219MOL0     H29521   5.362  10.300   1.962 -1.8286 -0.2387  2.5397
  219MOL0     H29522   5.471  10.196   1.893  0.9930  2.4696 -0.0683
  219MOL0     H29523   5.339  10.184   2.173  2.0253 -1.3815  1.2071
  219MOL0     H29524   5.505  10.237   2.160  0.5308 -0.4701  0.1649
  219MOL0     H29525   5.351  10.034   2.306  0.9066  1.7202 -1.9976
  219MOL0     H29526   5.393   9.904   2.545 -0.4637  3.6061  0.1285
  219MOL0     H29527   5.443   9.728   2.914 -1.1556  2.5667  0.2254
  219MOL0     H29528   5.543   9.650   3.140  1.0188 -1.4009  0.3791
  219MOL0     H29529   5.642   9.543   3.296 -1.3328 -2.7237 -1.2718
  219MOL0     H29530   5.737   9.467   3.170 -1.1832  0.0303  0.1261
  219MOL0     H29531   5.798   9.375   3.388 -3.6898  1.1516 -0.4542
  219MOL0     H29532   5.932   9.461   3.302 -0.7879  0.7359 -0.4656
  219MOL0     H29533   5.894   9.656   3.452  1.3466 -0.2003  2.2294
  219MOL0     H29534   5.747   9.575   3.513  0.6697  4.0474 -0.2405
  219MOL0     H29535   6.031   9.473   3.567 -0.4906  2.2850  0.3000
  219MOL0     H29536   5.875   9.401   3.622  1.4863 -1.4635 -0.2464
  219MOL0     H29537   5.974   9.685   3.683  2.5530 -0.2823  1.7785
  219MOL0     H29538   5.998   9.557   3.799 -1.9411 -0.6207  1.7259
  219MOL0     H29539   5.813   9.720   3.843  3.6485 -1.2738 -0.2148
  219MOL0     H29540   5.726   9.650   3.709  0.6929 -1.7823 -0.2474
  219MOL0     H29541   5.820   9.515   3.962 -0.8901  1.3130  1.1353
  219MOL0     H29542   5.754   9.419   3.833 -2.3379 -0.2079  0.7577
  219MOL0     H29543   5.538   9.557   3.846 -0.3142 -0.2290 -1.9450
  219MOL0     H29544   5.579   9.449   3.980 -2.0346  1.1650  0.5563
  219MOL0     H29545   5.919   9.777   3.029  1.2135 -0.1431  0.0992
  219MOL0     H29546   5.837   9.855   2.798 -0.7396  0.9126  0.1306
  219MOL0     H29547   5.785   9.811   2.387  0.4084  0.9864  0.5356
  219MOL0     H29548   5.724   9.932   2.173 -0.5890 -1.0224  0.4219
  219MOL0     H29549   6.460   9.505   1.505 -0.9226  0.4257 -1.1567
  219MOL0     H29550   6.595   9.299   1.566  0.4426  1.0819 -2.4546
  219MOL0     H29551   6.604   9.032   1.920 -1.0642 -0.0466  2.4797
  219MOL0     H29552   6.665   8.909   2.103 -0.8277 -2.7336  1.8439
  219MOL0     H29553   6.645   8.667   2.284  1.6313  0.8617  1.6994
  219MOL0     H29554   6.757   8.784   2.223  2.4351  0.6921 -0.9895
  219MOL0     H29555   6.869   8.626   2.377  0.0793  1.7125 -1.2810
  219MOL0     H29556   6.941   8.624   2.215 -0.1444 -0.0913 -1.0045
  219MOL0     H29557   6.786   8.408   2.171 -0.2174 -0.8867  0.9365
  219MOL0     H29558   6.760   8.430   2.350  0.6504 -0.5486  0.7048
  219MOL0     H29559   6.994   8.395   2.398 -0.4539 -0.0591  0.3553
  219MOL0     H29560   6.895   8.260   2.327 -2.5674  1.1747 -0.8556
  219MOL0     H29561   7.195   8.310   2.038  0.0260 -3.7200  1.9302
  219MOL0     H29562   6.586   8.547   1.876 -0.3192 -0.4584 -1.4283
  219MOL0     H29563   6.540   8.699   1.563 -1.9149 -1.6962 -2.3519
  219MOL0     H29564   6.516   8.557   1.657  2.7710  1.9153 -0.2636
  219MOL0     H29565   6.382   8.673   1.654 -0.0018  0.5804  2.7477
  220MOL0     O29566   8.196   4.809   6.471  0.3163 -0.2345  0.3061
  220MOL0     C29567   8.262   4.854   6.377 -0.2304  0.0270 -0.2365
  220MOL0     O29568   8.213   4.934   6.276  0.2847  0.1643  0.2283
  220MOL0     C29569   8.128   5.034   6.306 -0.1754 -0.8850  0.4498
  220MOL0     C29570   8.064   5.098   6.205  0.4032 -0.0950 -1.0919
  220MOL0     C29571   7.977   5.201   6.242  0.6115 -0.2476 -0.1312
  220MOL0     C29572   7.958   5.245   6.374  0.8347  0.4224  0.7366
  220MOL0     O29573   7.852   5.340   6.383  0.2497  0.2194  0.1646
  220MOL0     C29574   7.797   5.357   6.511 -0.2281  0.0730  0.0898
  220MOL0     C29575   7.717   5.228   6.555 -0.5308 -0.4642 -0.4101
  220MOL0     C29576   7.656   5.262   6.691  0.1263 -0.3018 -0.2770
  220MOL0     C29577   7.591   5.136   6.753  0.4387 -0.1251 -0.2713
  220MOL0     C29578   7.514   5.170   6.877 -0.3527 -0.3663 -0.4824
  220MOL0     C29579   7.468   5.055   6.962  0.2071  0.2674 -0.9197
  220MOL0     C29580   7.581   4.962   7.017 -0.2795 -0.4454 -0.3149
  220MOL0     C29581   7.536   4.888   7.144  0.5351  0.6934  0.4134
  220MOL0     N29582   7.514   4.973   7.261 -0.1334 -0.4309  0.5023
  220MOL0     C29583   7.606   5.049   7.330 -1.0699  0.9951 -0.2834
  220MOL0     C29584   7.558   5.123   7.426 -0.0401 -1.3546 -0.2210
  220MOL0     C29585   7.642   5.188   7.534  0.4141 -0.7923  0.5684
  220MOL0     C29586   7.559   5.211   7.662 -0.6565  0.1385  0.6180
  220MOL0     C29587   7.642   5.289   7.762  0.8481  0.3478 -0.1200
  220MOL0     C29588   7.554   5.311   7.886  0.4377  0.6340  0.3032
  220MOL0     O29589   7.584   5.419   7.970 -0.0467  0.4354 -0.2637
  220MOL0     C29590   7.714   5.447   7.994 -0.3153  0.2851 -1.2291
  220MOL0     C29591   7.819   5.354   8.010  0.4260  0.3505 -0.1769
  220MOL0     C29592   7.952   5.389   8.028  0.0018 -0.0971  0.3795
  220MOL0     C29593   7.992   5.519   8.037 -0.3397 -0.1842 -1.3823
  220MOL0     C29594   8.139   5.549   8.039 -0.6265  0.0219 -0.4677
  220MOL0     O29595   8.216   5.473   7.966  0.7157 -0.0508  0.2586
  220MOL0     C29596   8.345   5.502   7.935  0.4007 -0.1943 -0.1357
  220MOL0     C29597   8.440   5.515   8.033  0.2276  0.9653 -0.2469
  220MOL0     C29598   8.569   5.551   8.001 -0.9793 -0.0430  0.3873
  220MOL0     C29599   8.607   5.569   7.863 -0.3189 -0.2848 -0.1997
  220MOL0     O29600   8.735   5.590   7.812  0.4270 -0.4496  0.3375
  220MOL0     C29601   8.843   5.643   7.897  0.2200 -0.5296 -0.2150
  220MOL0     C29602   8.968   5.568   7.859 -0.9813  1.1236 -0.0045
  220MOL0     C29603   8.972   5.411   7.883  0.0060  0.3169 -0.4298
  220MOL0     C29604   8.903   5.363   8.010 -0.3853  0.3082  0.3873
  220MOL0     C29605   8.933   5.231   8.053  0.4745 -0.1549 -0.7654
  220MOL0     C29606   8.833   5.172   8.150 -0.5350 -0.2393  0.3791
  220MOL0     C29607   8.683   5.196   8.121  0.6061  0.3102  0.2485
  220MOL0     C29608   8.630   5.164   7.983  0.6834 -0.6799  0.1019
  220MOL0    Cl29609   8.706   5.003   7.916  0.3268  0.3654 -0.2232
  220MOL0     C29610   8.504   5.553   7.766 -0.8016  0.3823  1.2877
  220MOL0     C29611   8.375   5.522   7.802  0.6200 -0.9794 -0.2766
  220MOL0     O29612   8.179   5.646   8.108 -0.0495  1.2142  0.6409
  220MOL0     C29613   7.894   5.611   8.047  0.5520  0.4022 -0.2832
  220MOL0     C29614   7.756   5.576   8.026 -0.3996 -0.2695  0.3973
  220MOL0     N29615   7.421   5.092   7.425 -0.6809 -0.1726  0.0977
  220MOL0     N29616   7.398   4.999   7.327  0.2180  0.4165  0.5096
  220MOL0     C29617   8.034   5.184   6.473  0.3642 -0.5808  0.0122
  220MOL0     C29618   8.121   5.084   6.437 -0.1884 -0.5311  0.2412
  220MOL0     C29619   8.401   4.811   6.355 -1.0000  1.0521  1.0475
  220MOL0     C29620   8.432   4.679   6.385  0.5124  0.0300 -0.0099
  220MOL0     C29621   8.543   4.617   6.330 -0.0789 -0.3855 -0.6696
  220MOL0     C29622   8.644   4.693   6.275 -0.1699  0.7674 -1.5476
  220MOL0     O29623   8.775   4.657   6.259 -0.3788  1.1467 -0.1980
  220MOL0     C29624   8.802   4.518   6.225 -0.0253 -0.6657  0.2599
  220MOL0     C29625   8.940   4.529   6.164  0.0101  0.3746 -0.7492
  220MOL0     C29626   9.003   4.396   6.128 -0.1613 -0.6798  0.6187
  220MOL0     C29627   9.140   4.417   6.069 -0.2820  0.2054  0.1870
  220MOL0     C29628   9.223   4.295   6.048  1.2505 -0.4248  1.1741
  220MOL0     C29629   9.292   4.197   6.022 -1.0121 -0.8562 -0.0601
  220MOL0     C29630   8.625   4.824   6.249  0.7377 -0.0927 -0.8942
  220MOL0     C29631   8.501   4.883   6.287 -0.5386  0.3768  0.2974
  220MOL0     C29632   8.489   5.031   6.250 -0.0919 -0.7895 -0.6343
  220MOL0     H29633   8.086   5.078   6.101  3.1339  0.1820 -0.6224
  220MOL0     H29634   7.929   5.255   6.161 -1.5708 -0.5021  0.9105
  220MOL0     H29635   7.867   5.387   6.590 -2.6904 -0.9644  2.8413
  220MOL0     H29636   7.732   5.444   6.515  1.1814  1.4990 -3.6210
  220MOL0     H29637   7.782   5.142   6.578 -1.2602 -0.9684 -0.1976
  220MOL0     H29638   7.656   5.190   6.473 -1.7935 -0.2768  0.4080
  220MOL0     H29639   7.581   5.340   6.678 -1.3635 -1.3571  1.4693
  220MOL0     H29640   7.733   5.299   6.760 -1.7648  1.1178  1.1732
  220MOL0     H29641   7.521   5.083   6.687 -1.7021 -0.4268  2.0617
  220MOL0     H29642   7.676   5.081   6.795 -0.3380  0.4395  2.2360
  220MOL0     H29643   7.574   5.239   6.936 -1.3836  0.6192 -0.5352
  220MOL0     H29644   7.424   5.232   6.868  1.0108  1.9375  0.9444
  220MOL0     H29645   7.405   5.090   7.044  0.7650 -0.5474 -0.1236
  220MOL0     H29646   7.410   4.985   6.901  0.1374 -1.5748  1.1526
  220MOL0     H29647   7.675   5.016   7.028 -0.0995 -1.1078  1.7898
  220MOL0     H29648   7.592   4.889   6.937 -2.9791 -0.7848 -0.4796
  220MOL0     H29649   7.437   4.847   7.124  0.7349 -0.9094  2.3844
  220MOL0     H29650   7.601   4.805   7.171 -0.1339  0.3676  1.0486
  220MOL0     H29651   7.712   5.035   7.311 -1.5013 -1.1339 -1.4213
  220MOL0     H29652   7.736   5.137   7.553  1.5089 -0.0783 -2.3900
  220MOL0     H29653   7.675   5.278   7.481 -0.9585  0.7686  2.1873
  220MOL0     H29654   7.463   5.256   7.637  0.3349  0.2877 -3.8646
  220MOL0     H29655   7.525   5.115   7.703  3.7548 -2.2541 -0.6023
  220MOL0     H29656   7.666   5.390   7.728 -0.3911  1.2667  1.5583
  220MOL0     H29657   7.732   5.240   7.801  1.7961  1.0705 -1.3527
  220MOL0     H29658   7.555   5.217   7.941 -1.2794  0.9127  0.8549
  220MOL0     H29659   7.453   5.328   7.849  0.9687 -0.9930 -2.1650
  220MOL0     H29660   7.788   5.250   8.014  2.3901 -0.2451  0.6777
  220MOL0     H29661   8.013   5.300   8.023  1.7365  1.1140 -0.9686
  220MOL0     H29662   8.425   5.504   8.140  2.7950  1.0871  0.1902
  220MOL0     H29663   8.643   5.562   8.080  0.5354 -2.6767 -0.5350
  220MOL0     H29664   8.852   5.750   7.877  0.0766 -0.1871  1.4115
  220MOL0     H29665   8.834   5.632   8.006 -0.7246 -1.0318 -0.3343
  220MOL0     H29666   8.983   5.582   7.752 -0.7608 -1.6449 -0.4020
  220MOL0     H29667   9.051   5.617   7.911  0.7721 -2.4289  0.7797
  220MOL0     H29668   8.917   5.356   7.807  0.7648 -3.0943  1.2835
  220MOL0     H29669   9.076   5.377   7.885  0.1030  0.6262  0.2771
  220MOL0     H29670   8.795   5.374   7.997 -0.4744 -1.2266 -0.4212
  220MOL0     H29671   8.921   5.425   8.097 -1.4263  0.7046  0.3420
  220MOL0     H29672   9.031   5.227   8.102  0.1033  3.2391  0.5391
  220MOL0     H29673   8.949   5.165   7.967  0.6804  2.3679 -2.8065
  220MOL0     H29674   8.859   5.067   8.142 -0.6646 -0.1217 -3.2047
  220MOL0     H29675   8.857   5.211   8.249 -0.1617  2.8605 -0.8164
  220MOL0     H29676   8.660   5.298   8.152  2.6632  0.4252  1.6216
  220MOL0     H29677   8.632   5.136   8.197  0.4942  1.1497  0.8566
  220MOL0     H29678   8.521   5.154   7.982  0.5775  0.3662 -0.8953
  220MOL0     H29679   8.656   5.243   7.912  3.3575 -1.8422 -0.3493
  220MOL0     H29680   8.532   5.558   7.662 -1.2413 -2.7969  0.8875
  220MOL0     H29681   8.293   5.518   7.731  1.5328 -1.6886 -1.3290
  220MOL0     H29682   7.920   5.716   8.049 -0.8481  0.7661  1.2972
  220MOL0     H29683   7.688   5.658   8.041  1.1049  1.1964 -0.4487
  220MOL0     H29684   8.040   5.218   6.576  5.4470  0.7244 -0.4103
  220MOL0     H29685   8.176   5.043   6.521 -1.9771 -1.8406  0.8168
  220MOL0     H29686   8.357   4.614   6.429 -1.3666  1.9592 -0.1765
  220MOL0     H29687   8.567   4.513   6.350  3.6757  0.5783  0.6980
  220MOL0     H29688   8.727   4.479   6.156 -2.0704  1.8402  0.8852
  220MOL0     H29689   8.801   4.469   6.323 -0.2239  2.5126  2.0247
  220MOL0     H29690   9.001   4.592   6.230 -1.3523  1.3521 -0.3692
  220MOL0     H29691   8.945   4.585   6.070  0.3245 -1.7866 -2.0843
  220MOL0     H29692   8.939   4.346   6.054  0.0482  1.9814 -1.5134
  220MOL0     H29693   9.017   4.330   6.214  1.3822 -0.3500  0.6522
  220MOL0     H29694   9.116   4.465   5.974 -1.3022 -0.3475  0.1541
  220MOL0     H29695   9.190   4.481   6.143 -0.2090 -0.2968  0.5822
  220MOL0     H29696   9.335   4.099   6.010 -2.5433 -1.4665 -0.7316
  220MOL0     H29697   8.699   4.886   6.199 -0.2573  0.8935 -1.2014
  220MOL0     H29698   8.403   5.045   6.183 -0.7483 -4.7863 -0.8626
  220MOL0     H29699   8.492   5.083   6.346  3.4854 -2.7360  0.4970
  220MOL0     H29700   8.581   5.064   6.200 -0.5430  3.6099  0.9759
  221MOL0     O29701   2.034   3.112   7.119  0.3548 -0.7076  0.6722
  221MOL0     C29702   2.140   3.103   7.167 -0.8953 -0.3494 -0.0106
  221MOL0     O29703   2.254   3.094   7.096  0.4753 -0.3592 -0.4787
  221MOL0     C29704   2.254   3.050   6.972 -0.7059 -0.3924  0.0778
  221MOL0     C29705   2.363   3.081   6.900 -0.1590  0.6484 -0.1310
  221MOL0     C29706   2.384   3.022   6.776  0.7474 -0.0366  0.1360
  221MOL0     C29707   2.292   2.930   6.716  0.1293 -0.3018  0.1578
  221MOL0     O29708   2.319   2.867   6.583 -0.6050 -0.3671 -0.9091
  221MOL0     C29709   2.427   2.925   6.503  0.4029 -0.0788 -1.2119
  221MOL0     C29710   2.547   2.831   6.537  0.5170 -0.6816 -0.5093
  221MOL0     C29711   2.674   2.893   6.474  1.0078 -0.7245  0.1213
  221MOL0     C29712   2.780   2.788   6.463 -0.5169  0.0226 -0.1301
  221MOL0     C29713   2.771   2.678   6.352  0.0136 -0.2784 -0.4709
  221MOL0     C29714   2.889   2.584   6.353 -0.2063  0.0248 -0.0136
  221MOL0     C29715   2.927   2.537   6.210 -0.2676  0.4651 -1.9645
  221MOL0     C29716   3.015   2.410   6.226 -0.6717 -0.0835 -0.0950
  221MOL0     N29717   3.151   2.444   6.269 -0.2814 -0.8664  0.0240
  221MOL0     C29718   3.221   2.376   6.367  0.3903 -0.1933  0.5263
  221MOL0     C29719   3.331   2.452   6.402  0.9604 -0.3978 -0.7438
  221MOL0     C29720   3.430   2.406   6.511  0.1344  0.1747 -0.4580
  221MOL0     C29721   3.565   2.374   6.439  1.0069  0.3570  0.5034
  221MOL0     C29722   3.666   2.304   6.539 -0.4690 -1.0456 -0.2151
  221MOL0     C29723   3.774   2.211   6.466 -0.2539  0.4061  0.2541
  221MOL0     O29724   3.864   2.293   6.390 -0.2317 -0.7089 -0.4526
  221MOL0     C29725   3.930   2.385   6.470 -0.6478 -0.9176 -0.6120
  221MOL0     C29726   3.915   2.523   6.441  0.6027  0.2342  0.2015
  221MOL0     C29727   3.967   2.628   6.515  0.9305  0.6269  1.6526
  221MOL0     C29728   4.038   2.591   6.633  0.4063 -0.9093  0.4734
  221MOL0     C29729   4.106   2.697   6.719  0.1239 -0.9108  0.1618
  221MOL0     O29730   4.154   2.644   6.840  0.4304 -0.4125 -0.4041
  221MOL0     C29731   4.242   2.719   6.923 -0.1739 -0.0636  0.5010
  221MOL0     C29732   4.200   2.767   7.046 -0.1460  0.0484 -0.4293
  221MOL0     C29733   4.286   2.832   7.129 -0.5512 -0.9916  0.0458
  221MOL0     C29734   4.418   2.860   7.092 -0.2606  0.5469  0.1844
  221MOL0     O29735   4.514   2.920   7.173 -0.1980 -0.0628 -0.0185
  221MOL0     C29736   4.513   2.865   7.313 -0.2619  0.1749  1.0978
  221MOL0     C29737   4.614   2.921   7.420  0.3480  0.3746 -0.2262
  221MOL0     C29738   4.611   3.074   7.404 -0.0423  0.9480  0.3825
  221MOL0     C29739   4.665   3.142   7.534  1.6168  0.1991  0.6042
  221MOL0     C29740   4.625   3.292   7.530  0.8668  0.5358 -0.1700
  221MOL0     C29741   4.666   3.363   7.666  0.2608  0.0099  1.4598
  221MOL0     C29742   4.817   3.362   7.688  0.3404  0.3568  0.4174
  221MOL0     C29743   4.871   3.497   7.742  0.1550  0.0748  0.6075
  221MOL0    Cl29744   4.851   3.636   7.629 -0.1058  0.1795  0.1678
  221MOL0     C29745   4.463   2.822   6.964 -0.0403  0.2220 -0.1653
  221MOL0     C29746   4.376   2.740   6.894 -0.1837  0.7695  0.3032
  221MOL0     O29747   4.106   2.812   6.683 -0.5991 -0.1967 -0.1292
  221MOL0     C29748   4.060   2.455   6.659  0.8874  0.2803 -0.9266
  221MOL0     C29749   4.001   2.351   6.583 -0.2497  0.3310 -0.1813
  221MOL0     N29750   3.334   2.555   6.311  0.5998  0.4944  0.2460
  221MOL0     N29751   3.225   2.546   6.233 -0.4557  0.8804 -0.3819
  221MOL0     C29752   2.191   2.886   6.802  0.2769  0.7249  0.5099
  221MOL0     C29753   2.168   2.949   6.923  0.2905 -0.6594 -0.8443
  221MOL0     C29754   2.154   3.116   7.318  0.2889  0.0745  0.7921
  221MOL0     C29755   2.283   3.127   7.376 -0.1181 -0.0681 -0.4704
  221MOL0     C29756   2.311   3.166   7.508 -0.7597  0.6392 -1.3426
  221MOL0     C29757   2.200   3.193   7.587 -0.1529  0.6561  0.1090
  221MOL0     O29758   2.212   3.240   7.721  0.2337 -0.4040  0.1095
  221MOL0     C29759   2.330   3.272   7.783 -0.7562 -0.1932  0.2590
  221MOL0     C29760   2.301   3.363   7.888  1.2193 -0.0700 -0.1968
  221MOL0     C29761   2.240   3.300   8.020  0.3379 -0.8050  0.4835
  221MOL0     C29762   2.086   3.307   8.020  0.1104 -0.1924  0.5433
  221MOL0     C29763   2.037   3.436   8.071 -0.1103 -0.0854  0.1138
  221MOL0     C29764   1.988   3.543   8.105 -0.0073  0.2549  0.2382
  221MOL0     C29765   2.074   3.174   7.537 -0.5023 -0.5354  1.1141
  221MOL0     C29766   2.045   3.152   7.407 -0.6140  0.2481  0.8294
  221MOL0     C29767   1.906   3.159   7.363  0.3906  0.2880  0.5102
  221MOL0     H29768   2.427   3.151   6.952  1.2318  0.0675 -0.9899
  221MOL0     H29769   2.482   3.044   6.734  0.6676 -1.6559 -0.9748
  221MOL0     H29770   2.420   2.917   6.394 -2.4332 -2.6780 -0.9568
  221MOL0     H29771   2.452   3.029   6.528 -1.5484 -0.0452  0.8727
  221MOL0     H29772   2.525   2.737   6.486 -0.2229 -1.1952  0.7236
  221MOL0     H29773   2.562   2.817   6.644  1.3437  1.4786 -0.2812
  221MOL0     H29774   2.710   2.974   6.538  0.1727 -0.7563  0.6427
  221MOL0     H29775   2.656   2.947   6.381 -0.1537  0.9560  1.2549
  221MOL0     H29776   2.877   2.834   6.441 -1.0930  0.5672 -1.6709
  221MOL0     H29777   2.786   2.724   6.552 -0.4546 -1.4585 -1.1599
  221MOL0     H29778   2.675   2.626   6.356 -0.8399  1.2148 -0.8663
  221MOL0     H29779   2.785   2.743   6.265  2.2869 -0.3579 -0.2387
  221MOL0     H29780   2.975   2.636   6.397  0.7817  0.2816 -2.1261
  221MOL0     H29781   2.855   2.505   6.420 -0.6826  1.8451  2.0195
  221MOL0     H29782   2.983   2.609   6.150  2.4862  1.5708  1.5825
  221MOL0     H29783   2.835   2.508   6.159 -1.3052 -0.7329  0.4161
  221MOL0     H29784   2.961   2.341   6.291 -2.0599 -1.9609 -2.9800
  221MOL0     H29785   3.019   2.349   6.135 -3.0994 -1.2814  0.5293
  221MOL0     H29786   3.187   2.282   6.408  0.2712 -0.0033  0.8695
  221MOL0     H29787   3.455   2.483   6.584 -0.0192  0.9520 -1.2058
  221MOL0     H29788   3.383   2.320   6.560 -1.8634  0.5983 -1.5284
  221MOL0     H29789   3.545   2.305   6.356  0.5871  0.4382  0.5369
  221MOL0     H29790   3.611   2.461   6.391 -0.2126  0.1036 -1.2118
  221MOL0     H29791   3.607   2.238   6.604 -1.2837 -0.2824 -0.1696
  221MOL0     H29792   3.713   2.369   6.612  1.6611 -1.7309 -0.9051
  221MOL0     H29793   3.721   2.134   6.410 -0.7457  0.6165  0.4245
  221MOL0     H29794   3.823   2.144   6.538 -3.1923 -2.4568 -0.1829
  221MOL0     H29795   3.849   2.549   6.359 -1.2921 -3.7513  0.2365
  221MOL0     H29796   3.945   2.728   6.479 -0.8697 -0.6188 -1.0638
  221MOL0     H29797   4.096   2.758   7.076  0.3885 -2.0583  0.9972
  221MOL0     H29798   4.256   2.875   7.225 -0.2051  0.3511 -0.4199
  221MOL0     H29799   4.420   2.853   7.369 -0.8992 -1.9675 -0.2779
  221MOL0     H29800   4.537   2.761   7.286 -2.3402  0.1400 -0.9695
  221MOL0     H29801   4.560   2.910   7.515 -2.2327  2.5963 -1.2926
  221MOL0     H29802   4.703   2.858   7.414  0.1610 -0.1773  1.8992
  221MOL0     H29803   4.672   3.113   7.323  2.5408 -0.4490  1.5304
  221MOL0     H29804   4.510   3.104   7.374  0.4554  1.1379 -1.1723
  221MOL0     H29805   4.775   3.138   7.530  1.5701 -2.2142 -0.3343
  221MOL0     H29806   4.613   3.090   7.615 -0.6960  1.1998 -0.1479
  221MOL0     H29807   4.518   3.302   7.511  0.8605 -0.8604 -0.9643
  221MOL0     H29808   4.665   3.339   7.440  0.0513 -2.0236 -1.9730
  221MOL0     H29809   4.630   3.463   7.641 -2.6656 -1.6430 -1.6123
  221MOL0     H29810   4.609   3.316   7.747  0.1528 -4.2492 -0.8151
  221MOL0     H29811   4.865   3.357   7.590 -2.5675  1.3691 -1.1932
  221MOL0     H29812   4.840   3.282   7.758  0.6144  2.0293  2.3470
  221MOL0     H29813   4.826   3.525   7.837  0.1178  1.0601  0.3093
  221MOL0     H29814   4.978   3.476   7.749  0.0001 -1.7553 -1.3471
  221MOL0     H29815   4.556   2.846   6.913 -0.8105 -1.8680 -2.8068
  221MOL0     H29816   4.415   2.706   6.798  1.7643  2.2114  0.5185
  221MOL0     H29817   4.120   2.421   6.743 -0.3805 -0.5610 -0.3380
  221MOL0     H29818   4.011   2.245   6.604 -1.7021  0.1192 -0.4483
  221MOL0     H29819   2.125   2.811   6.759 -3.0262  3.7826 -0.2522
  221MOL0     H29820   2.092   2.914   6.992 -0.8808  0.7642 -1.3482
  221MOL0     H29821   2.369   3.101   7.316 -0.6794 -0.5345 -1.0928
  221MOL0     H29822   2.410   3.170   7.553 -0.6861  1.1813 -1.5475
  221MOL0     H29823   2.392   3.336   7.719 -0.2165 -0.0747  0.8848
  221MOL0     H29824   2.378   3.182   7.821  3.4215  2.4307  1.9196
  221MOL0     H29825   2.244   3.447   7.849 -0.5158 -1.0475  0.1580
  221MOL0     H29826   2.403   3.387   7.922  1.9288 -2.1696 -0.6570
  221MOL0     H29827   2.294   3.345   8.104  1.6762 -1.0663 -0.2040
  221MOL0     H29828   2.260   3.192   8.024 -0.5261 -1.1198 -1.7938
  221MOL0     H29829   2.051   3.294   7.917  4.0524  0.5765 -1.0723
  221MOL0     H29830   2.060   3.226   8.088 -0.0805 -0.7630 -0.2008
  221MOL0     H29831   1.928   3.627   8.134 -0.4252  0.0374  0.0219
  221MOL0     H29832   1.993   3.177   7.610  0.5784  0.9123  2.2980
  221MOL0     H29833   1.834   3.154   7.445 -1.0511 -1.8158 -0.8024
  221MOL0     H29834   1.888   3.246   7.300 -3.1430  2.4229  4.0305
  221MOL0     H29835   1.887   3.064   7.312  2.7028 -1.2451  2.2634
  222MOL0     O29836   4.646   7.188  10.094 -0.6111  0.4872  0.0606
  222MOL0     C29837   4.600   7.075  10.095  0.2304  0.5967 -0.1175
  222MOL0     O29838   4.549   7.008   9.985  0.7330 -0.5994 -0.0489
  222MOL0     C29839   4.530   7.080   9.863  0.2518 -0.5669 -0.0269
  222MOL0     C29840   4.415   7.160   9.852  0.7255 -1.2301  0.8448
  222MOL0     C29841   4.388   7.225   9.730 -1.1835  0.2887 -0.6065
  222MOL0     C29842   4.471   7.207   9.621  0.3065 -0.0307 -0.2021
  222MOL0     O29843   4.453   7.285   9.504 -0.3261  0.6301 -0.7860
  222MOL0     C29844   4.499   7.230   9.374  0.7719 -0.0910  1.0164
  222MOL0     C29845   4.445   7.316   9.253  0.2766  0.4524  0.1746
  222MOL0     C29846   4.442   7.236   9.119  0.8101  0.5527 -0.1220
  222MOL0     C29847   4.562   7.141   9.094 -0.3969  0.2617  0.5634
  222MOL0     C29848   4.591   7.103   8.941 -0.2133  0.8085 -0.3272
  222MOL0     C29849   4.625   7.233   8.864 -0.7669 -0.2997  1.2269
  222MOL0     C29850   4.686   7.188   8.724 -0.0120  0.5523 -0.1743
  222MOL0     C29851   4.724   7.303   8.629  0.0930 -0.5790 -0.2661
  222MOL0     N29852   4.721   7.273   8.489 -0.5723  0.1255 -0.1147
  222MOL0     C29853   4.635   7.324   8.403 -0.0158  0.1972  0.7010
  222MOL0     C29854   4.635   7.232   8.308  0.5111  0.0918  0.7083
  222MOL0     C29855   4.536   7.230   8.192 -0.1354  0.3705  0.1917
  222MOL0     C29856   4.553   7.134   8.071 -0.4942  0.2341  0.1553
  222MOL0     C29857   4.509   6.992   8.112  0.0748 -0.2156  0.2546
  222MOL0     C29858   4.570   6.880   8.028 -0.6633  0.2143  0.0391
  222MOL0     O29859   4.525   6.900   7.891 -0.1809 -0.1919  0.5142
  222MOL0     C29860   4.385   6.874   7.872 -0.0731  0.4833  0.0261
  222MOL0     C29861   4.317   6.751   7.910  0.2003 -0.0830 -0.3421
  222MOL0     C29862   4.178   6.741   7.901 -1.0094  1.1202  0.2054
  222MOL0     C29863   4.093   6.849   7.870  0.4187 -0.1430 -0.3488
  222MOL0     C29864   3.944   6.840   7.871  0.6530 -0.1406  0.7478
  222MOL0     O29865   3.870   6.948   7.826  0.1270  0.6912 -0.4727
  222MOL0     C29866   3.731   6.947   7.798 -0.9216  1.2687  0.6325
  222MOL0     C29867   3.640   6.851   7.813  0.4554  0.4189 -0.6391
  222MOL0     C29868   3.508   6.872   7.778  0.6672  0.2128 -0.0786
  222MOL0     C29869   3.474   6.986   7.709  1.1471 -0.0672 -0.6383
  222MOL0     O29870   3.336   7.002   7.677 -0.1396 -0.6983  0.3199
  222MOL0     C29871   3.318   7.097   7.568 -0.3167 -0.1913 -0.0768
  222MOL0     C29872   3.186   7.099   7.499  0.3011  0.4804 -0.0811
  222MOL0     C29873   3.162   6.980   7.398 -0.3945  0.3799 -0.7956
  222MOL0     C29874   3.028   6.970   7.330 -0.6969 -1.1141 -0.9446
  222MOL0     C29875   3.049   6.911   7.188 -0.0492 -0.3867  0.4254
  222MOL0     C29876   3.069   6.756   7.195  0.5157  0.3957 -0.4467
  222MOL0     C29877   3.033   6.694   7.063 -0.2272  0.2866 -0.1972
  222MOL0     C29878   3.056   6.538   7.056  0.9052  0.2441 -0.3744
  222MOL0    Cl29879   3.080   6.482   6.894  0.2262 -0.0831  0.0620
  222MOL0     C29880   3.579   7.080   7.676  0.8405  0.2638 -0.1971
  222MOL0     C29881   3.702   7.059   7.728 -0.0985 -0.4872  0.9903
  222MOL0     O29882   3.893   6.742   7.921  0.6260 -0.1487  0.5831
  222MOL0     C29883   4.166   6.970   7.834  0.1786  0.4548  0.6862
  222MOL0     C29884   4.306   6.982   7.841  0.1118  0.2398  0.3732
  222MOL0     N29885   4.728   7.132   8.337  0.0360 -0.1671 -0.6220
  222MOL0     N29886   4.773   7.152   8.455 -0.5738  0.7336 -0.2642
  222MOL0     C29887   4.598   7.134   9.634  0.0918  0.3030 -0.7839
  222MOL0     C29888   4.624   7.073   9.758 -0.2006  0.9922  0.0024
  222MOL0     C29889   4.606   7.013  10.229  0.0075 -0.3560  0.1910
  222MOL0     C29890   4.717   7.031  10.304  0.1871 -0.3657 -0.2754
  222MOL0     C29891   4.728   6.966  10.428  0.1024 -0.2823  0.1706
  222MOL0     C29892   4.621   6.898  10.485  0.4198  0.7495  0.5186
  222MOL0     O29893   4.656   6.834  10.599  0.7643 -0.8029  0.3076
  222MOL0     C29894   4.592   6.710  10.640 -0.6363  0.4035  1.1114
  222MOL0     C29895   4.685   6.629  10.733 -0.0805  0.5925 -0.4320
  222MOL0     C29896   4.814   6.588  10.653 -0.0435  0.2412  1.2935
  222MOL0     C29897   4.782   6.491  10.533 -0.4841 -0.5531 -0.7528
  222MOL0     C29898   4.913   6.465  10.467  0.9250  0.3961  0.1237
  222MOL0     C29899   5.016   6.432  10.417  0.5030  1.1443 -0.6761
  222MOL0     C29900   4.496   6.898  10.412  0.6684 -0.1665  0.1975
  222MOL0     C29901   4.493   6.952  10.282 -0.4150  0.2950  0.1554
  222MOL0     C29902   4.357   6.951  10.215  0.2537  0.1031 -0.2814
  222MOL0     H29903   4.343   7.180   9.931  1.9882 -1.6225  2.1523
  222MOL0     H29904   4.295   7.283   9.734 -0.1661  1.9551  2.5045
  222MOL0     H29905   4.608   7.226   9.373  0.8144 -1.2756  3.3754
  222MOL0     H29906   4.455   7.131   9.360 -1.2478  0.9089 -0.2643
  222MOL0     H29907   4.492   7.414   9.257  0.3125  0.3980  2.2465
  222MOL0     H29908   4.338   7.326   9.274 -1.1198 -4.3560 -2.8647
  222MOL0     H29909   4.445   7.315   9.044 -1.2209  0.3521 -0.4907
  222MOL0     H29910   4.345   7.186   9.113  0.1773  0.6540  4.8898
  222MOL0     H29911   4.644   7.185   9.150 -1.1510  3.3997 -0.5462
  222MOL0     H29912   4.537   7.046   9.143 -1.1263  1.3277  2.3627
  222MOL0     H29913   4.674   7.032   8.944 -0.3358  0.6880  0.8057
  222MOL0     H29914   4.505   7.051   8.897 -2.4295  2.3852  1.8453
  222MOL0     H29915   4.534   7.291   8.851 -1.2726 -0.7023  2.7894
  222MOL0     H29916   4.699   7.298   8.914  0.5182 -1.7534  1.2949
  222MOL0     H29917   4.637   7.115   8.660 -1.8401  1.6969 -0.1461
  222MOL0     H29918   4.780   7.136   8.747 -0.9122  0.4536  3.9201
  222MOL0     H29919   4.671   7.396   8.653  3.4428  0.9326  1.9719
  222MOL0     H29920   4.830   7.318   8.652  0.8246 -1.1909 -2.9368
  222MOL0     H29921   4.575   7.414   8.418 -2.3865 -0.8388 -1.7561
  222MOL0     H29922   4.436   7.223   8.237 -0.3301  2.4793  0.2048
  222MOL0     H29923   4.535   7.336   8.164  0.4415  0.7634  1.5695
  222MOL0     H29924   4.511   7.173   7.978  0.2784  4.7756  1.4561
  222MOL0     H29925   4.662   7.134   8.057  0.0288 -2.4827  3.2192
  222MOL0     H29926   4.400   6.983   8.119 -0.4774  4.4762  0.9461
  222MOL0     H29927   4.537   6.973   8.216 -1.8616 -0.8818  0.7055
  222MOL0     H29928   4.540   6.780   8.060 -0.7912  0.0242 -0.6765
  222MOL0     H29929   4.678   6.893   8.027 -0.6017  0.2080  2.1027
  222MOL0     H29930   4.371   6.671   7.960 -1.1287 -0.1592  1.0541
  222MOL0     H29931   4.131   6.645   7.921 -2.4283  1.2844 -1.9874
  222MOL0     H29932   3.655   6.752   7.854 -2.1892  1.1378  2.4579
  222MOL0     H29933   3.431   6.806   7.818  0.4308  1.5299  1.7362
  222MOL0     H29934   3.336   7.201   7.599 -1.6263  1.1805 -3.4527
  222MOL0     H29935   3.389   7.075   7.488 -1.8451 -3.4013 -0.7025
  222MOL0     H29936   3.104   7.107   7.571  1.3960  3.5460  1.0158
  222MOL0     H29937   3.169   7.195   7.449 -0.1227  0.2568 -0.3699
  222MOL0     H29938   3.232   6.987   7.314 -0.4611  0.9263 -0.8036
  222MOL0     H29939   3.184   6.884   7.447 -0.7509  1.0890  0.8178
  222MOL0     H29940   2.982   7.069   7.339  1.7272  0.3185 -2.8212
  222MOL0     H29941   2.962   6.915   7.397 -0.3839 -0.6257 -0.2140
  222MOL0     H29942   3.129   6.955   7.127 -1.5687  0.3461 -1.1229
  222MOL0     H29943   2.957   6.931   7.132 -0.5120  2.5874  2.0835
  222MOL0     H29944   3.177   6.742   7.210  0.6370  1.8978  0.2874
  222MOL0     H29945   3.007   6.722   7.278 -0.5304  2.2385 -0.4347
  222MOL0     H29946   3.077   6.752   6.982 -1.3524  2.1671  0.4875
  222MOL0     H29947   2.924   6.705   7.060 -0.1329  2.7951  2.2883
  222MOL0     H29948   3.140   6.505   7.118  1.5267  3.3976  0.6615
  222MOL0     H29949   2.973   6.474   7.085  0.2882 -0.1598 -2.8253
  222MOL0     H29950   3.562   7.172   7.621 -1.9949  0.4283  0.8338
  222MOL0     H29951   3.782   7.122   7.690  0.1654 -1.4737 -0.1294
  222MOL0     H29952   4.106   7.057   7.810  0.2671  0.6536  1.1659
  222MOL0     H29953   4.360   7.073   7.816  0.1089 -0.3501 -2.0205
  222MOL0     H29954   4.670   7.130   9.554  0.1346  1.2067 -0.7925
  222MOL0     H29955   4.718   7.024   9.781  0.0291  1.7329  0.6876
  222MOL0     H29956   4.805   7.081  10.266 -0.4686  0.6406 -0.4922
  222MOL0     H29957   4.826   6.970  10.474 -0.3286  2.6084  1.0516
  222MOL0     H29958   4.563   6.658  10.548  0.2962 -0.8465  1.5013
  222MOL0     H29959   4.506   6.729  10.705  1.0789 -0.9391  3.9877
  222MOL0     H29960   4.628   6.538  10.756 -0.6321  0.7272 -1.1949
  222MOL0     H29961   4.710   6.687  10.822  2.7571 -0.1822 -0.6441
  222MOL0     H29962   4.887   6.530  10.710 -0.9541 -1.4239  0.8421
  222MOL0     H29963   4.868   6.675  10.614 -0.0722 -0.7548 -1.1060
  222MOL0     H29964   4.742   6.407  10.590 -0.8689 -1.4256 -2.2694
  222MOL0     H29965   4.710   6.518  10.456  0.0499 -1.0310 -1.4263
  222MOL0     H29966   5.112   6.396  10.387  0.2497 -0.8641  0.6992
  222MOL0     H29967   4.404   6.859  10.453  1.2987 -4.1457 -1.6680
  222MOL0     H29968   4.290   6.924  10.297  1.6309  0.9281  1.1698
  222MOL0     H29969   4.321   7.048  10.183  1.0435 -0.1640 -2.1108
  222MOL0     H29970   4.347   6.883  10.130 -2.8876  1.4657 -1.1439
  223MOL0     O29971  10.519   8.995  10.466  0.6395 -1.1852 -0.5859
  223MOL0     C29972  10.554   8.926  10.563  0.0884  0.5822  0.2145
  223MOL0     O29973  10.475   8.828  10.620  0.2910 -0.9355  0.1329
  223MOL0     C29974  10.359   8.793  10.558  0.1498  0.0892  0.0694
  223MOL0     C29975  10.374   8.691  10.475  0.3137  0.0370 -0.3588
  223MOL0     C29976  10.262   8.646  10.401  0.1213 -0.2534  0.6709
  223MOL0     C29977  10.126   8.710  10.428  0.3880 -0.0849  1.0782
  223MOL0     O29978  10.012   8.678  10.355 -0.2444 -0.0296  0.1429
  223MOL0     C29979  10.028   8.673  10.217 -0.5443 -0.4746  0.4677
  223MOL0     C29980   9.891   8.673  10.147 -0.0913  1.1035 -0.1335
  223MOL0     C29981   9.887   8.592  10.020  0.1024  0.5072  0.4707
  223MOL0     C29982   9.981   8.644   9.911 -0.1781  0.6577  0.5447
  223MOL0     C29983   9.991   8.570   9.780  0.2664  1.0931  0.1054
  223MOL0     C29984   9.856   8.558   9.712  0.9967 -0.7018 -0.3621
  223MOL0     C29985   9.814   8.695   9.646  0.3185  0.0199  0.1763
  223MOL0     C29986   9.693   8.764   9.718 -0.0213  1.4650  0.0511
  223MOL0     N29987   9.575   8.686   9.676  1.1286 -0.9463  0.7479
  223MOL0     C29988   9.467   8.652   9.751  0.0970  0.2521  0.3830
  223MOL0     C29989   9.359   8.651   9.674  0.5996 -0.4057 -0.3467
  223MOL0     C29990   9.222   8.624   9.726 -0.4292 -0.0634  0.5285
  223MOL0     C29991   9.111   8.696   9.643 -0.2378 -0.0981 -0.3363
  223MOL0     C29992   8.968   8.650   9.678 -0.4023  0.1118  0.2430
  223MOL0     C29993   8.915   8.670   9.813  0.7002 -0.4702  0.3055
  223MOL0     O29994   8.915   8.811   9.843 -0.2156 -0.4801  0.3416
  223MOL0     C29995   8.786   8.869   9.843  0.2822  0.8113 -0.2379
  223MOL0     C29996   8.748   8.964   9.936  0.4152 -0.4485 -0.1938
  223MOL0     C29997   8.618   9.024   9.937 -0.4569  0.4396 -0.4793
  223MOL0     C29998   8.514   8.978   9.854  0.0314  0.9118 -0.5992
  223MOL0     C29999   8.381   9.014   9.876  0.3405 -0.1452  0.6852
  223MOL0     O30000   8.301   8.974   9.773  0.2092  0.5474 -0.2062
  223MOL0     C30001   8.206   9.068   9.728  0.2614  0.5257  0.3293
  223MOL0     C30002   8.088   9.020   9.653 -0.6109 -0.4269  0.1054
  223MOL0     C30003   7.979   9.106   9.620 -0.0915  0.4752 -0.0887
  223MOL0     C30004   7.989   9.244   9.645 -0.6179 -0.2844 -0.6579
  223MOL0     O30005   7.881   9.324   9.613  0.5165  0.2322 -0.0931
  223MOL0     C30006   7.924   9.435   9.530  0.1671 -0.2518  0.6688
  223MOL0     C30007   7.817   9.455   9.438  0.0616 -0.3916  0.6137
  223MOL0     C30008   7.831   9.351   9.317  0.2561 -0.0004  0.4310
  223MOL0     C30009   7.715   9.377   9.211 -0.3055  0.5911 -1.1205
  223MOL0     C30010   7.750   9.497   9.118 -0.1098  0.6624 -0.5516
  223MOL0     C30011   7.694   9.472   8.978 -1.0530  0.0029 -0.2443
  223MOL0     C30012   7.735   9.586   8.877 -0.0719 -0.2761  1.0289
  223MOL0     C30013   7.639   9.598   8.754 -0.6080 -0.9090 -0.4552
  223MOL0    Cl30014   7.634   9.444   8.671  0.0493  0.3054 -0.0806
  223MOL0     C30015   8.095   9.291   9.723 -0.6318 -0.4158 -0.0121
  223MOL0     C30016   8.201   9.209   9.768 -0.5611 -0.5839  0.0824
  223MOL0     O30017   8.343   9.068   9.984 -0.2283 -0.0527 -0.2418
  223MOL0     C30018   8.544   8.876   9.762  0.1207  0.3418 -0.1215
  223MOL0     C30019   8.682   8.830   9.752 -0.0441 -0.0245 -0.4295
  223MOL0     N30020   9.393   8.702   9.547 -0.6615  1.1072  1.2578
  223MOL0     N30021   9.522   8.711   9.549  0.0033  0.5777 -0.2843
  223MOL0     C30022  10.118   8.813  10.519 -0.1860 -0.3723  0.2385
  223MOL0     C30023  10.233   8.859  10.575 -0.8487 -0.1410 -0.2283
  223MOL0     C30024  10.687   8.957  10.627  0.6528 -0.4176 -0.7294
  223MOL0     C30025  10.763   9.071  10.586  0.2591  0.4007  0.7613
  223MOL0     C30026  10.884   9.097  10.640 -0.5080  0.5022 -0.5246
  223MOL0     C30027  10.940   9.018  10.729 -0.5428 -0.5856 -0.1226
  223MOL0     O30028  11.071   9.058  10.761  0.4885  0.9967  0.2126
  223MOL0     C30029  11.160   8.955  10.814  1.0290  0.9229 -0.4345
  223MOL0     C30030  11.211   8.854  10.700 -0.5101 -1.0452  0.2005
  223MOL0     C30031  11.297   8.914  10.598 -0.3576  0.1007 -0.5201
  223MOL0     C30032  11.219   8.991  10.488 -0.1551  0.2804  0.5634
  223MOL0     C30033  11.332   9.024  10.395 -0.1336 -0.1298 -0.0688
  223MOL0     C30034  11.422   9.075  10.325  0.4874  0.7649  0.3872
  223MOL0     C30035  10.877   8.898  10.765  0.6708  0.4517 -0.0115
  223MOL0     C30036  10.749   8.866  10.717 -0.9631 -0.1999  0.0972
  223MOL0     C30037  10.681   8.737  10.773 -0.2773  0.2330  0.2581
  223MOL0     H30038  10.470   8.643  10.454  0.2067 -0.7773  0.9075
  223MOL0     H30039  10.275   8.571  10.324  2.1388  0.1478  0.5787
  223MOL0     H30040  10.086   8.761  10.187  0.7457 -0.3356  3.0084
  223MOL0     H30041  10.093   8.590  10.188  1.4007  1.4398 -1.0359
  223MOL0     H30042   9.861   8.777  10.130  1.5231  1.5601 -0.3680
  223MOL0     H30043   9.820   8.623  10.213  0.3669  1.2151  0.4525
  223MOL0     H30044   9.783   8.588   9.986 -1.0774 -0.6020  3.8477
  223MOL0     H30045   9.919   8.493  10.053  1.7776  1.3076  1.3619
  223MOL0     H30046   9.948   8.746   9.889  0.5828  0.4771 -1.8121
  223MOL0     H30047  10.080   8.646   9.958 -0.4060  4.2572  1.2027
  223MOL0     H30048  10.056   8.637   9.722  2.5484 -0.3890  0.8110
  223MOL0     H30049  10.022   8.467   9.797 -0.4251  0.9947  0.8215
  223MOL0     H30050   9.845   8.477   9.639 -1.3659 -1.2715  0.5391
  223MOL0     H30051   9.772   8.543   9.780 -0.7296 -1.5887 -2.5590
  223MOL0     H30052   9.782   8.679   9.543 -2.9771  0.4936  1.0103
  223MOL0     H30053   9.892   8.771   9.660  1.2469 -1.1388  1.5912
  223MOL0     H30054   9.702   8.765   9.828  0.4006 -1.1083  0.1060
  223MOL0     H30055   9.671   8.866   9.685  1.3120  1.7981  0.1234
  223MOL0     H30056   9.462   8.630   9.858 -2.1480 -0.0154  0.2659
  223MOL0     H30057   9.221   8.515   9.723 -4.2225 -0.1241 -0.2169
  223MOL0     H30058   9.204   8.654   9.830 -1.2659 -1.6251  0.8644
  223MOL0     H30059   9.122   8.805   9.644 -1.4690  0.0473 -0.5604
  223MOL0     H30060   9.125   8.655   9.542 -0.3861 -1.9133  0.3341
  223MOL0     H30061   8.967   8.547   9.640  2.1141  0.5688 -1.3059
  223MOL0     H30062   8.904   8.705   9.609 -0.4898  2.0532  1.7872
  223MOL0     H30063   8.993   8.625   9.876  3.6913  0.0983 -2.6946
  223MOL0     H30064   8.818   8.621   9.821  1.6703 -2.9980 -2.1016
  223MOL0     H30065   8.822   9.010  10.001  0.0662  0.1453 -0.2038
  223MOL0     H30066   8.595   9.101  10.011  5.2182  3.3663 -1.2021
  223MOL0     H30067   8.076   8.915   9.629 -0.7142 -0.2370 -0.7083
  223MOL0     H30068   7.878   9.076   9.595 -1.2415  1.8879  2.4616
  223MOL0     H30069   7.959   9.518   9.591  3.2602  0.8342 -2.2997
  223MOL0     H30070   8.013   9.402   9.475 -0.4532 -1.1198  0.1528
  223MOL0     H30071   7.717   9.446   9.482 -0.3609 -0.1986 -0.2810
  223MOL0     H30072   7.822   9.552   9.386 -0.4241 -2.0814 -2.8968
  223MOL0     H30073   7.930   9.357   9.272  0.4194  0.4237  0.8356
  223MOL0     H30074   7.818   9.250   9.356  0.9950 -0.5140 -0.6176
  223MOL0     H30075   7.623   9.406   9.263  1.9813 -1.5861  5.0605
  223MOL0     H30076   7.700   9.287   9.151  1.5118 -1.8789  1.8676
  223MOL0     H30077   7.858   9.508   9.103  0.5425 -2.3499  1.0758
  223MOL0     H30078   7.713   9.594   9.153 -1.6270  0.4899 -1.5941
  223MOL0     H30079   7.729   9.377   8.936  0.6922  1.5819 -2.5990
  223MOL0     H30080   7.586   9.464   8.989 -0.6625 -2.1149  3.9516
  223MOL0     H30081   7.840   9.582   8.847 -0.8254  1.6574 -2.4148
  223MOL0     H30082   7.722   9.679   8.933  2.3851 -1.2118  3.3491
  223MOL0     H30083   7.539   9.627   8.786 -1.1079 -1.0454 -1.8436
  223MOL0     H30084   7.688   9.676   8.696  1.1962 -0.6221  1.3349
  223MOL0     H30085   8.096   9.396   9.750  0.6651 -0.4655  0.1622
  223MOL0     H30086   8.273   9.261   9.829 -1.0588  0.0207  0.1646
  223MOL0     H30087   8.468   8.822   9.706 -0.9475  1.2317  0.4268
  223MOL0     H30088   8.698   8.764   9.667 -0.6301  1.6815 -1.9329
  223MOL0     H30089  10.022   8.861  10.540 -0.2424  0.1936 -1.2281
  223MOL0     H30090  10.226   8.932  10.655 -1.9363 -2.4135  1.8990
  223MOL0     H30091  10.729   9.138  10.507 -0.1555 -0.5743  0.0863
  223MOL0     H30092  10.936   9.187  10.608  1.8013 -1.1720 -1.6902
  223MOL0     H30093  11.116   8.897  10.895  1.5351 -0.4437 -1.1025
  223MOL0     H30094  11.244   9.001  10.867  0.9326  0.9815 -0.3332
  223MOL0     H30095  11.121   8.805  10.661  0.0654 -1.2122 -0.9624
  223MOL0     H30096  11.276   8.776  10.742  0.4607 -0.0969  0.4966
  223MOL0     H30097  11.361   8.836  10.557 -1.4363  0.2956 -2.7270
  223MOL0     H30098  11.371   8.978  10.646 -0.7275  0.9473 -1.0524
  223MOL0     H30099  11.141   8.932  10.439 -2.9985  2.1137  2.5320
  223MOL0     H30100  11.175   9.087  10.516 -1.6701  0.0280 -0.8149
  223MOL0     H30101  11.503   9.122  10.272  0.9012  1.4028  1.5535
  223MOL0     H30102  10.927   8.840  10.843 -0.3762 -0.6543 -0.1339
  223MOL0     H30103  10.752   8.683  10.837 -2.5600 -2.9178  0.3838
  223MOL0     H30104  10.591   8.770  10.825 -1.2297 -0.2560 -1.0280
  223MOL0     H30105  10.672   8.657  10.699  1.9038  0.3549 -0.2104
  224MOL0     O30106   6.804   6.225   9.385  0.4428 -0.2375  0.6729
  224MOL0     C30107   6.883   6.254   9.292  0.2106 -0.5101 -0.5265
  224MOL0     O30108   6.890   6.378   9.233  0.6009  0.0570  0.5885
  224MOL0     C30109   6.803   6.482   9.280  0.4040 -0.1114  0.5418
  224MOL0     C30110   6.697   6.491   9.371  0.2412 -0.0492 -1.4426
  224MOL0     C30111   6.641   6.621   9.418  0.4009  0.4775 -0.2944
  224MOL0     C30112   6.688   6.743   9.366 -0.3861 -0.1849  1.0529
  224MOL0     O30113   6.650   6.869   9.402 -0.1850  0.3883  0.3005
  224MOL0     C30114   6.576   6.886   9.526 -0.5499  0.8423  0.0252
  224MOL0     C30115   6.571   7.040   9.550 -0.6191 -0.0913  0.1786
  224MOL0     C30116   6.472   7.068   9.663  0.7254  0.1349 -0.2522
  224MOL0     C30117   6.454   7.217   9.689 -0.1965  0.0527 -0.2653
  224MOL0     C30118   6.347   7.231   9.793 -0.5600  0.0890  0.0518
  224MOL0     C30119   6.317   7.377   9.830 -0.4811  0.3528  0.0549
  224MOL0     C30120   6.203   7.452   9.755  0.1648  0.2472  0.2485
  224MOL0     C30121   6.078   7.375   9.743  0.6132 -0.6602 -0.4913
  224MOL0     N30122   5.952   7.454   9.742 -0.6951  0.3956 -0.7630
  224MOL0     C30123   5.923   7.546   9.834  0.3478  0.1284  0.3436
  224MOL0     C30124   5.817   7.616   9.790  1.4257  0.1486 -0.2486
  224MOL0     C30125   5.746   7.723   9.863  0.8564 -0.6038 -0.5117
  224MOL0     C30126   5.672   7.655   9.985  0.7712  1.1635  0.9872
  224MOL0     C30127   5.571   7.748  10.042 -0.3855  0.4547  0.4524
  224MOL0     C30128   5.467   7.678  10.132  0.2679  0.2556  0.0410
  224MOL0     O30129   5.538   7.627  10.243  0.8108 -0.1400  0.0080
  224MOL0     C30130   5.484   7.534  10.329  0.5479  0.4240  0.6416
  224MOL0     C30131   5.553   7.421  10.358 -0.7154 -0.2399  0.0700
  224MOL0     C30132   5.497   7.318  10.435 -0.9697  0.5917  0.2958
  224MOL0     C30133   5.364   7.328  10.478 -0.4573 -0.0374 -0.3492
  224MOL0     C30134   5.315   7.227  10.567  0.1166  0.1749 -0.1112
  224MOL0     O30135   5.183   7.244  10.593  0.2291  0.5774 -0.4726
  224MOL0     C30136   5.123   7.144  10.665 -0.3496  0.0856  0.3123
  224MOL0     C30137   5.124   7.167  10.806  0.4090  0.8872 -0.3963
  224MOL0     C30138   5.079   7.062  10.892 -0.9986  0.2466 -0.2875
  224MOL0     C30139   5.049   6.931  10.846  0.3616  0.9221 -0.5883
  224MOL0     O30140   5.014   6.829  10.936 -0.3387  0.2777 -0.0644
  224MOL0     C30141   5.061   6.845  11.075  0.1634  0.4050  0.4976
  224MOL0     C30142   5.067   6.711  11.149  0.3272  0.4409  0.2725
  224MOL0     C30143   5.163   6.607  11.090 -0.1101 -0.0766 -0.9208
  224MOL0     C30144   5.301   6.655  11.054  0.4359 -0.3994 -0.3866
  224MOL0     C30145   5.390   6.536  11.021 -0.6158 -0.1108 -1.2644
  224MOL0     C30146   5.373   6.456  10.891 -0.2208 -0.0908  0.2945
  224MOL0     C30147   5.380   6.557  10.770 -0.1662 -0.4945  0.3126
  224MOL0     C30148   5.378   6.486  10.634  0.2790 -0.7945 -0.4850
  224MOL0    Cl30149   5.535   6.399  10.608  0.4390  0.2928  0.1512
  224MOL0     C30150   5.047   6.915  10.705  0.1527  0.1644 -0.6476
  224MOL0     C30151   5.079   7.023  10.618 -0.0622 -0.1705  0.5831
  224MOL0     O30152   5.381   7.126  10.591 -0.1516  0.0133 -0.7083
  224MOL0     C30153   5.294   7.441  10.446  0.1599  0.0350  1.2946
  224MOL0     C30154   5.354   7.542  10.368  0.1834  0.6481  0.0431
  224MOL0     N30155   5.771   7.550   9.682  0.8286  0.1758  0.6166
  224MOL0     N30156   5.856   7.453   9.651  0.6476 -0.6341 -0.4510
  224MOL0     C30157   6.780   6.726   9.260 -0.2996  0.1933 -0.9535
  224MOL0     C30158   6.836   6.601   9.221  0.2684 -0.4561  0.0268
  224MOL0     C30159   6.976   6.149   9.236  0.7528  0.1434  0.1154
  224MOL0     C30160   6.937   6.014   9.285 -0.0270 -0.2896 -0.5057
  224MOL0     C30161   7.012   5.899   9.241  0.9185 -0.2774  0.7675
  224MOL0     C30162   7.116   5.922   9.144  0.8489  0.1634  0.2515
  224MOL0     O30163   7.179   5.818   9.087 -0.6254 -0.2484  0.1071
  224MOL0     C30164   7.157   5.688   9.137  0.6290  0.0675 -0.1476
  224MOL0     C30165   7.277   5.607   9.088 -0.7791  0.2557 -0.0572
  224MOL0     C30166   7.286   5.591   8.933 -0.0718 -0.2106  0.2565
  224MOL0     C30167   7.415   5.526   8.881 -0.0813  0.7098  0.2302
  224MOL0     C30168   7.448   5.400   8.952  0.1634  0.3853  0.0751
  224MOL0     C30169   7.459   5.282   8.992 -1.2668 -0.2241  0.0461
  224MOL0     C30170   7.148   6.051   9.102 -0.3260  0.3657 -0.2920
  224MOL0     C30171   7.092   6.164   9.153 -0.0882 -0.3344 -0.8438
  224MOL0     C30172   7.152   6.293   9.124 -0.3828  0.1035  0.1843
  224MOL0     H30173   6.663   6.407   9.430 -2.0736  2.5034  1.1343
  224MOL0     H30174   6.584   6.627   9.510 -4.1711  0.9469 -2.8484
  224MOL0     H30175   6.473   6.849   9.520 -1.0758  1.7225  2.4093
  224MOL0     H30176   6.630   6.831   9.604  1.4644 -0.3100 -2.0412
  224MOL0     H30177   6.543   7.078   9.451  0.9254 -2.4498 -1.2785
  224MOL0     H30178   6.667   7.084   9.578 -1.6069  1.9422  0.5621
  224MOL0     H30179   6.495   7.019   9.758 -0.4766  1.7163  0.9176
  224MOL0     H30180   6.383   7.030   9.611  1.1341  2.7653 -3.1673
  224MOL0     H30181   6.550   7.256   9.725  1.0709 -0.1418 -3.1751
  224MOL0     H30182   6.424   7.265   9.596 -4.7300  0.3229  1.0846
  224MOL0     H30183   6.255   7.185   9.758  0.7085 -1.8885 -0.8820
  224MOL0     H30184   6.384   7.184   9.885 -0.9995  2.3497  1.4487
  224MOL0     H30185   6.291   7.384   9.936  0.0154  1.3710  0.1128
  224MOL0     H30186   6.409   7.434   9.819  0.3672 -1.3097 -2.2847
  224MOL0     H30187   6.223   7.475   9.650 -0.8716 -1.7564 -0.4263
  224MOL0     H30188   6.186   7.543   9.814  0.0693 -0.5618  1.5168
  224MOL0     H30189   6.084   7.303   9.661 -1.4668  1.7875 -3.0395
  224MOL0     H30190   6.073   7.318   9.836  1.0645  3.9015  2.6908
  224MOL0     H30191   5.972   7.554   9.930  0.1263  2.5566  0.3110
  224MOL0     H30192   5.812   7.799   9.906  2.0747 -2.6589  1.5020
  224MOL0     H30193   5.668   7.766   9.799  2.1741 -1.3778 -2.7306
  224MOL0     H30194   5.618   7.563   9.962  0.7394  1.5586 -0.6075
  224MOL0     H30195   5.747   7.625  10.059 -0.2270  0.8349  1.8983
  224MOL0     H30196   5.522   7.802   9.960 -0.8740  0.1419  0.5404
  224MOL0     H30197   5.630   7.812  10.108  3.3928 -1.9761 -0.2736
  224MOL0     H30198   5.410   7.603  10.076  0.7492  0.3840 -0.6397
  224MOL0     H30199   5.398   7.760  10.149 -0.3799 -0.4905  1.0913
  224MOL0     H30200   5.656   7.418  10.323 -1.2433  1.0690 -1.7213
  224MOL0     H30201   5.554   7.228  10.458 -0.5110  0.0615 -2.5805
  224MOL0     H30202   5.157   7.265  10.838  2.4666 -0.1714  0.9772
  224MOL0     H30203   5.081   7.090  10.997 -1.3086  0.7013 -0.3975
  224MOL0     H30204   5.156   6.897  11.084 -1.6364  3.7849  1.4861
  224MOL0     H30205   4.994   6.915  11.126  0.9657  0.7112  1.1504
  224MOL0     H30206   5.103   6.733  11.250 -3.2684  1.2422  1.5209
  224MOL0     H30207   4.970   6.665  11.168  0.9376 -1.8846 -1.6930
  224MOL0     H30208   5.179   6.527  11.162 -2.6211  0.3446  0.2159
  224MOL0     H30209   5.100   6.563  11.013  0.3644 -0.5643 -1.0338
  224MOL0     H30210   5.345   6.715  11.134 -0.1436 -0.2993 -0.1347
  224MOL0     H30211   5.299   6.728  10.973 -3.3299  1.7019  1.3206
  224MOL0     H30212   5.378   6.470  11.107 -2.5688  2.4702  0.6224
  224MOL0     H30213   5.495   6.560  11.040 -0.6964 -1.7403  1.7928
  224MOL0     H30214   5.449   6.378  10.887  1.4248  1.2543  2.9037
  224MOL0     H30215   5.273   6.411  10.889 -0.3447  0.1332  1.1642
  224MOL0     H30216   5.476   6.609  10.763 -0.6118  0.1805 -1.2058
  224MOL0     H30217   5.294   6.623  10.782 -0.9243 -0.9704 -2.0676
  224MOL0     H30218   5.287   6.425  10.642 -0.9542  1.1756  1.6474
  224MOL0     H30219   5.373   6.569  10.563  2.5553 -0.5462 -0.4207
  224MOL0     H30220   5.031   6.824  10.647  1.8970 -1.8346  1.7798
  224MOL0     H30221   5.090   7.013  10.511  0.5063 -0.6608  0.6870
  224MOL0     H30222   5.192   7.450  10.482  0.2696  1.2080  1.3278
  224MOL0     H30223   5.290   7.626  10.340 -2.6506 -0.7254  1.9368
  224MOL0     H30224   6.815   6.809   9.199 -1.9864 -0.8524 -3.5159
  224MOL0     H30225   6.909   6.606   9.141  1.9373 -1.2218  1.4180
  224MOL0     H30226   6.856   5.995   9.354 -0.3365  4.8619  0.9662
  224MOL0     H30227   6.974   5.804   9.277  0.4296 -0.0793  0.7867
  224MOL0     H30228   7.061   5.651   9.101 -0.1878  0.9213  1.0680
  224MOL0     H30229   7.160   5.678   9.246  1.5395  1.2563 -0.0454
  224MOL0     H30230   7.277   5.508   9.135  2.1161  0.4248  0.5000
  224MOL0     H30231   7.366   5.657   9.127 -0.0205 -1.0943  0.0311
  224MOL0     H30232   7.278   5.683   8.874 -0.3038 -0.0777  0.4959
  224MOL0     H30233   7.208   5.521   8.903  0.2012 -1.7585  2.8544
  224MOL0     H30234   7.408   5.490   8.777  0.4364 -3.3667  1.4110
  224MOL0     H30235   7.502   5.591   8.893 -0.1871  0.6616  1.2711
  224MOL0     H30236   7.450   5.178   9.018  1.9977 -0.4915  0.4719
  224MOL0     H30237   7.231   6.054   9.033  2.0929 -3.7947  2.0233
  224MOL0     H30238   7.261   6.280   9.132  0.0380  3.5702  2.0362
  224MOL0     H30239   7.122   6.322   9.023 -0.1550  1.3769  0.4608
  224MOL0     H30240   7.134   6.361   9.208  1.9372  1.5575 -0.3750
  225MOL0     O30241   4.996   8.487   0.841  0.7547 -0.3349 -0.5542
  225MOL0     C30242   5.111   8.514   0.882  0.9026 -0.1619 -0.0632
  225MOL0     O30243   5.218   8.435   0.860 -0.2666 -0.1700  1.0317
  225MOL0     C30244   5.202   8.311   0.808 -0.0446  0.9879 -1.0368
  225MOL0     C30245   5.124   8.220   0.878 -0.4644  0.5752 -0.3966
  225MOL0     C30246   5.080   8.103   0.816 -0.4468  0.0758  0.0078
  225MOL0     C30247   5.145   8.057   0.700 -0.3618 -0.1601  0.8667
  225MOL0     O30248   5.114   7.939   0.642  0.1279 -0.2844  0.5707
  225MOL0     C30249   5.123   7.828   0.730 -1.3130 -0.0875  1.6351
  225MOL0     C30250   5.119   7.697   0.637  0.6097  0.3724  0.6543
  225MOL0     C30251   5.246   7.685   0.555 -0.1515  0.4853  0.5525
  225MOL0     C30252   5.249   7.535   0.514  0.5991 -1.1333  0.1825
  225MOL0     C30253   5.376   7.512   0.424 -0.5609 -0.1263  0.5625
  225MOL0     C30254   5.412   7.362   0.422 -0.3354  0.1921 -0.5603
  225MOL0     C30255   5.488   7.301   0.553 -1.1452 -0.4728  0.0332
  225MOL0     C30256   5.529   7.160   0.534 -0.3012 -0.0777 -0.2931
  225MOL0     N30257   5.583   7.086   0.652  0.6679 -0.2349 -0.4492
  225MOL0     C30258   5.694   7.125   0.727  0.1786  0.7384  0.1857
  225MOL0     C30259   5.685   7.064   0.849 -0.2297 -0.3006  0.3152
  225MOL0     C30260   5.782   7.072   0.969  0.2699 -0.0068  0.9070
  225MOL0     C30261   5.721   7.021   1.098 -0.3066  0.3074 -0.3686
  225MOL0     C30262   5.783   7.072   1.228 -0.5349  0.2831  0.0752
  225MOL0     C30263   5.719   7.011   1.358 -0.3634 -0.2710  1.4635
  225MOL0     O30264   5.745   6.871   1.374 -0.1993  0.0480 -0.2478
  225MOL0     C30265   5.859   6.829   1.436  0.0671  0.1378 -0.0559
  225MOL0     C30266   5.867   6.684   1.441 -0.8238  0.1582 -0.9692
  225MOL0     C30267   5.960   6.619   1.523 -0.3239 -0.1031  0.5387
  225MOL0     C30268   6.047   6.691   1.599 -0.2947  0.0544  0.2233
  225MOL0     C30269   6.134   6.639   1.707 -0.1269  0.5669 -0.3878
  225MOL0     O30270   6.210   6.724   1.781  0.2486  0.4676  0.5275
  225MOL0     C30271   6.290   6.670   1.870 -0.2743  0.4199 -1.4857
  225MOL0     C30272   6.251   6.594   1.983 -0.5289  0.0975  0.2874
  225MOL0     C30273   6.342   6.548   2.076  0.0951 -0.0286 -0.3087
  225MOL0     C30274   6.476   6.584   2.064  0.3813 -1.6078  0.2726
  225MOL0     O30275   6.572   6.546   2.161 -0.6250 -0.4054  0.4359
  225MOL0     C30276   6.524   6.491   2.289 -0.0304 -0.6997  0.2841
  225MOL0     C30277   6.645   6.493   2.390  0.9190 -0.2180 -0.0660
  225MOL0     C30278   6.750   6.385   2.356  0.0933  0.1018  0.0958
  225MOL0     C30279   6.880   6.402   2.445 -0.2427 -0.4733 -0.3062
  225MOL0     C30280   6.951   6.265   2.443 -0.3145  0.2482  0.0719
  225MOL0     C30281   7.097   6.290   2.497 -0.7630 -0.9491 -0.8310
  225MOL0     C30282   7.174   6.159   2.505 -0.4311 -0.3279 -0.4293
  225MOL0     C30283   7.256   6.131   2.633 -0.0550 -0.4829  1.2759
  225MOL0    Cl30284   7.313   5.965   2.622 -0.3236 -0.2466 -0.0540
  225MOL0     C30285   6.511   6.680   1.965 -0.3818  0.7786 -0.1235
  225MOL0     C30286   6.422   6.716   1.864 -0.2113  0.3883  0.7443
  225MOL0     O30287   6.139   6.520   1.714  0.0493  0.8248 -0.0253
  225MOL0     C30288   6.042   6.826   1.596  0.4153 -0.5784 -0.4745
  225MOL0     C30289   5.945   6.897   1.519 -0.1458  0.3793  0.4375
  225MOL0     N30290   5.577   6.976   0.845 -0.3088 -0.1889 -0.5663
  225MOL0     N30291   5.514   6.996   0.739 -0.5799  0.3433  0.1411
  225MOL0     C30292   5.243   8.140   0.640  0.6637  0.4653 -1.1362
  225MOL0     C30293   5.265   8.272   0.695  0.9334 -0.0955 -0.2807
  225MOL0     C30294   5.135   8.644   0.948  0.3973 -0.5156  1.0820
  225MOL0     C30295   5.258   8.653   1.014  0.0806 -0.4515  0.3077
  225MOL0     C30296   5.289   8.763   1.084 -0.2309 -0.6876 -0.6181
  225MOL0     C30297   5.207   8.881   1.089  0.2662  1.2372 -0.3570
  225MOL0     O30298   5.254   8.990   1.161 -0.2539 -0.0430 -0.3129
  225MOL0     C30299   5.175   9.114   1.150  0.1430 -0.1691 -0.2076
  225MOL0     C30300   5.252   9.236   1.223 -0.2352  0.5403  0.3095
  225MOL0     C30301   5.345   9.304   1.130 -0.1979  0.0063 -1.4420
  225MOL0     C30302   5.460   9.216   1.074  0.7471  0.6608 -0.7946
  225MOL0     C30303   5.555   9.291   1.001  0.0274 -0.0457  0.0174
  225MOL0     C30304   5.641   9.364   0.955 -0.2858 -0.0009 -0.0027
  225MOL0     C30305   5.088   8.874   1.015 -0.0702  0.3385 -0.0888
  225MOL0     C30306   5.051   8.763   0.941  0.4723 -0.4531 -0.5477
  225MOL0     C30307   4.910   8.779   0.866  0.0807 -0.5485 -0.0324
  225MOL0     H30308   5.090   8.245   0.978  1.0427 -0.6306  0.4554
  225MOL0     H30309   5.005   8.037   0.859  0.2380 -0.8846 -0.2664
  225MOL0     H30310   5.215   7.831   0.790 -1.1932 -0.2394  1.4631
  225MOL0     H30311   5.029   7.827   0.785 -3.6521  0.2632 -2.0130
  225MOL0     H30312   5.034   7.695   0.567  1.4605  2.3369 -0.5233
  225MOL0     H30313   5.117   7.609   0.703 -0.6055 -0.2088 -0.1087
  225MOL0     H30314   5.327   7.708   0.625 -0.9164 -0.1375  1.6711
  225MOL0     H30315   5.240   7.751   0.468 -1.6665  0.0651  0.3182
  225MOL0     H30316   5.256   7.473   0.604 -3.3622 -1.2988  0.5724
  225MOL0     H30317   5.161   7.507   0.454  1.0808  2.0520 -2.2354
  225MOL0     H30318   5.362   7.551   0.323  2.9426 -0.2805 -0.1201
  225MOL0     H30319   5.466   7.563   0.463  1.1276 -1.5500 -1.2738
  225MOL0     H30320   5.326   7.296   0.409  1.1214 -2.2301  1.2596
  225MOL0     H30321   5.474   7.336   0.336  1.4840 -2.3715  1.3674
  225MOL0     H30322   5.416   7.315   0.634  0.4208 -2.0265  1.8088
  225MOL0     H30323   5.580   7.358   0.568 -2.5483  2.0448 -0.3584
  225MOL0     H30324   5.431   7.112   0.524 -3.0486  4.5207  1.1827
  225MOL0     H30325   5.594   7.157   0.446 -0.2009 -1.7055 -0.1863
  225MOL0     H30326   5.763   7.206   0.704  0.3052  0.1071 -1.8806
  225MOL0     H30327   5.873   7.013   0.953 -0.4655 -1.1603  0.8920
  225MOL0     H30328   5.813   7.176   0.984 -1.4262  0.1455  4.1220
  225MOL0     H30329   5.613   7.034   1.106 -0.0634  2.1673  0.4355
  225MOL0     H30330   5.744   6.915   1.093  1.9707  0.7321  0.0461
  225MOL0     H30331   5.774   7.181   1.227 -1.4126  0.2239  0.7090
  225MOL0     H30332   5.891   7.056   1.223 -0.7104 -1.4212  1.0804
  225MOL0     H30333   5.611   7.031   1.354  0.0061  1.9243 -2.6433
  225MOL0     H30334   5.762   7.068   1.440 -0.8691  0.2464  1.3809
  225MOL0     H30335   5.801   6.623   1.380  1.4972 -2.5718 -1.0141
  225MOL0     H30336   5.974   6.511   1.529  0.3574 -0.1551 -1.3075
  225MOL0     H30337   6.146   6.564   1.983 -1.0740  1.8371 -1.0752
  225MOL0     H30338   6.321   6.479   2.157  2.3413 -1.2865 -0.7077
  225MOL0     H30339   6.446   6.554   2.332 -0.5826  1.5424 -3.5535
  225MOL0     H30340   6.483   6.390   2.278  0.4337 -0.7941 -0.6275
  225MOL0     H30341   6.696   6.589   2.394  2.8045 -1.2324  2.6439
  225MOL0     H30342   6.598   6.465   2.485  0.0818  1.9068  0.1935
  225MOL0     H30343   6.703   6.289   2.381 -1.7559  0.8167 -0.4557
  225MOL0     H30344   6.791   6.388   2.255  0.4744  1.7287  0.2705
  225MOL0     H30345   6.847   6.433   2.545 -1.5097  0.4495 -0.9685
  225MOL0     H30346   6.945   6.483   2.410  2.5024 -1.5398  1.9207
  225MOL0     H30347   6.954   6.219   2.344  0.4246 -0.7336  0.5399
  225MOL0     H30348   6.899   6.193   2.507 -1.2529  0.7641 -0.0938
  225MOL0     H30349   7.158   6.365   2.445 -1.0079  1.0066  1.5359
  225MOL0     H30350   7.089   6.337   2.595  1.2703 -0.6773 -0.7499
  225MOL0     H30351   7.238   6.175   2.418 -0.7162  4.3324 -0.0440
  225MOL0     H30352   7.092   6.088   2.490 -1.8442  0.3177  3.1071
  225MOL0     H30353   7.345   6.194   2.640  0.3105 -0.9139  0.6473
  225MOL0     H30354   7.196   6.156   2.720 -0.8799 -0.6618  0.7641
  225MOL0     H30355   6.614   6.715   1.961  1.3606 -3.3739  1.8323
  225MOL0     H30356   6.441   6.777   1.776 -1.7449 -2.1467 -1.4641
  225MOL0     H30357   6.100   6.891   1.661 -0.2384 -0.1105 -0.3468
  225MOL0     H30358   5.942   7.005   1.529  0.7408  0.5186 -0.5666
  225MOL0     H30359   5.304   8.115   0.554  2.2074  2.0682 -0.5763
  225MOL0     H30360   5.345   8.323   0.644  2.8653 -2.4593  0.1802
  225MOL0     H30361   5.324   8.567   1.009 -0.9161 -1.1806 -2.0993
  225MOL0     H30362   5.384   8.780   1.133 -0.0701 -2.5184 -0.2378
  225MOL0     H30363   5.077   9.098   1.196 -0.0754 -1.8388 -1.1668
  225MOL0     H30364   5.156   9.145   1.047  0.8320  1.9254  0.2411
  225MOL0     H30365   5.311   9.192   1.303  2.6557  2.9081 -0.3569
  225MOL0     H30366   5.187   9.318   1.257 -0.0008  0.5266  0.7958
  225MOL0     H30367   5.390   9.393   1.175 -1.1875  0.4033 -1.2261
  225MOL0     H30368   5.287   9.326   1.040 -1.4372 -0.9001 -0.8957
  225MOL0     H30369   5.514   9.169   1.157 -0.0145  1.6776  0.3058
  225MOL0     H30370   5.408   9.139   1.016  1.6249  0.0652 -0.8107
  225MOL0     H30371   5.708   9.440   0.922 -1.4976  0.7058 -0.9285
  225MOL0     H30372   5.018   8.956   1.027 -1.9367 -1.4916  2.6782
  225MOL0     H30373   4.924   8.842   0.778 -2.8639  2.9584  1.7566
  225MOL0     H30374   4.858   8.687   0.835  1.3051 -0.8048 -1.4594
  225MOL0     H30375   4.844   8.838   0.929 -1.2599  1.1552 -2.8414
  226MOL0     O30376   5.217   2.581   7.365 -0.4236 -1.1130  1.0712
  226MOL0     C30377   5.110   2.627   7.330  1.1695 -0.4349  0.2915
  226MOL0     O30378   5.057   2.745   7.373 -0.1439 -0.2550  0.3280
  226MOL0     C30379   5.096   2.821   7.479 -0.3355 -0.1590  0.0223
  226MOL0     C30380   5.220   2.810   7.534 -0.5058 -0.7511 -0.4534
  226MOL0     C30381   5.244   2.871   7.648  0.2023 -0.0190  0.5034
  226MOL0     C30382   5.147   2.953   7.704  0.1223  0.1350  0.0611
  226MOL0     O30383   5.188   3.007   7.820  0.6337 -0.5076  0.0160
  226MOL0     C30384   5.204   3.145   7.804  0.3386 -0.4666  0.0204
  226MOL0     C30385   5.346   3.189   7.759 -0.0334  0.0239  0.7865
  226MOL0     C30386   5.472   3.116   7.836  1.0197  0.7438  0.9019
  226MOL0     C30387   5.613   3.164   7.791 -0.3181 -0.0647  0.4874
  226MOL0     C30388   5.722   3.070   7.852  0.3266  0.2791 -0.1327
  226MOL0     C30389   5.849   3.076   7.776  0.8072  0.8561  0.8866
  226MOL0     C30390   5.891   3.208   7.705  0.2533 -0.0303  0.4030
  226MOL0     C30391   5.892   3.335   7.794 -0.8293 -0.6965 -0.1439
  226MOL0     N30392   5.871   3.461   7.726  0.3555 -0.0990 -0.4510
  226MOL0     C30393   5.954   3.565   7.701 -0.0821 -0.3176  0.1285
  226MOL0     C30394   5.880   3.662   7.636  0.0107  0.2594 -0.0842
  226MOL0     C30395   5.929   3.808   7.614 -0.1156  0.8277  0.9285
  226MOL0     C30396   6.051   3.819   7.515  0.3186  0.2162  0.3778
  226MOL0     C30397   6.015   3.774   7.373 -0.0001  0.1251 -0.3566
  226MOL0     C30398   6.129   3.808   7.282  0.1973  0.0284  0.6353
  226MOL0     O30399   6.129   3.727   7.165  0.3390  0.5441 -0.2075
  226MOL0     C30400   6.205   3.762   7.056 -0.4786  0.5789 -0.1707
  226MOL0     C30401   6.178   3.674   6.952 -0.6777 -1.0678  0.9376
  226MOL0     C30402   6.252   3.670   6.835  0.0694 -0.2334  0.0263
  226MOL0     C30403   6.361   3.762   6.821  0.4517  1.0992  0.5705
  226MOL0     C30404   6.439   3.764   6.686  0.9470 -0.9200  0.1183
  226MOL0     O30405   6.551   3.852   6.670  0.0002 -0.1038  0.2139
  226MOL0     C30406   6.597   3.880   6.541  0.9872  0.3695  0.2159
  226MOL0     C30407   6.607   3.790   6.440  0.3476  0.2410  1.4288
  226MOL0     C30408   6.656   3.830   6.321 -0.4427  0.8689 -0.2450
  226MOL0     C30409   6.708   3.957   6.302  0.2127  0.1212 -0.0472
  226MOL0     O30410   6.761   4.000   6.186  0.2919 -0.2130 -0.1863
  226MOL0     C30411   6.771   3.911   6.077 -1.0494  0.3008  0.4677
  226MOL0     C30412   6.839   3.984   5.969  0.1307 -0.0039  0.8604
  226MOL0     C30413   6.847   3.894   5.846  0.5240 -0.6058 -0.0719
  226MOL0     C30414   6.708   3.872   5.782 -0.2833  0.4860 -0.0287
  226MOL0     C30415   6.730   3.833   5.636 -0.1962 -0.0468  0.2996
  226MOL0     C30416   6.590   3.816   5.565 -0.1579 -0.0906  0.0703
  226MOL0     C30417   6.544   3.952   5.508 -0.5995  0.2185 -0.6589
  226MOL0     C30418   6.427   3.923   5.412 -0.2826  0.0098 -0.6784
  226MOL0    Cl30419   6.293   3.838   5.491  0.0668  0.0639 -0.4561
  226MOL0     C30420   6.696   4.051   6.400  0.1682 -0.5861 -1.2654
  226MOL0     C30421   6.642   4.014   6.526  0.2463 -0.2063 -0.0754
  226MOL0     O30422   6.366   3.732   6.594 -1.0329 -0.5638 -0.0797
  226MOL0     C30423   6.391   3.841   6.934  0.6725 -0.3843  0.5069
  226MOL0     C30424   6.325   3.834   7.054 -0.1802 -0.3312 -0.4118
  226MOL0     N30425   5.749   3.616   7.635  0.4186 -0.5384 -0.0534
  226MOL0     N30426   5.749   3.493   7.682  0.8658  0.1558 -0.2248
  226MOL0     C30427   5.019   2.964   7.650  0.0590 -0.6952  0.4338
  226MOL0     C30428   5.001   2.913   7.522 -0.9223  0.7606 -0.7209
  226MOL0     C30429   5.033   2.551   7.235  0.3606  0.5072  0.6869
  226MOL0     C30430   4.907   2.607   7.207 -0.2029 -0.2327 -0.4127
  226MOL0     C30431   4.805   2.539   7.143 -0.5366  0.0491  0.0337
  226MOL0     C30432   4.812   2.401   7.118  0.7388  0.9748 -0.4120
  226MOL0     O30433   4.712   2.318   7.065  0.2725  0.0680 -0.4038
  226MOL0     C30434   4.637   2.365   6.949  0.3088  0.2931  0.1536
  226MOL0     C30435   4.575   2.256   6.861  0.1327 -0.3621  0.0111
  226MOL0     C30436   4.498   2.317   6.739  0.2335 -0.4393  0.2167
  226MOL0     C30437   4.399   2.221   6.671  0.4598  0.7919 -0.2256
  226MOL0     C30438   4.292   2.179   6.764  0.2108 -0.4224  0.2674
  226MOL0     C30439   4.199   2.147   6.835  0.1572  0.3121  0.0894
  226MOL0     C30440   4.937   2.342   7.146 -0.2003  1.0814  0.0608
  226MOL0     C30441   5.050   2.407   7.202 -0.3815 -0.1658 -0.2094
  226MOL0     C30442   5.181   2.322   7.221 -0.0191  0.0261  0.5232
  226MOL0     H30443   5.303   2.751   7.495 -0.2919  0.0100 -1.1685
  226MOL0     H30444   5.338   2.859   7.701  0.6949 -2.6422 -0.8039
  226MOL0     H30445   5.127   3.202   7.752 -0.1449  0.5843  1.8279
  226MOL0     H30446   5.203   3.179   7.907  1.6131 -2.2249  0.6676
  226MOL0     H30447   5.364   3.295   7.777  1.8044 -0.2053  0.4830
  226MOL0     H30448   5.359   3.169   7.652  1.3912  0.8273  0.7876
  226MOL0     H30449   5.459   3.009   7.822 -0.5595  0.9154  0.9364
  226MOL0     H30450   5.460   3.138   7.942  0.9527  0.0142  1.0474
  226MOL0     H30451   5.619   3.162   7.682 -1.4000 -3.1951  0.3736
  226MOL0     H30452   5.622   3.268   7.822  0.1106  0.1149 -0.2320
  226MOL0     H30453   5.734   3.109   7.954  0.7920  0.4213 -0.2365
  226MOL0     H30454   5.691   2.967   7.871 -1.6637  0.8946  0.1108
  226MOL0     H30455   5.928   3.042   7.844  1.2655 -0.2154 -0.1507
  226MOL0     H30456   5.844   3.004   7.694 -2.3340  0.4103  1.3551
  226MOL0     H30457   5.829   3.225   7.617  1.0933 -1.4248 -0.4966
  226MOL0     H30458   5.989   3.187   7.661 -1.0901  0.8590 -3.4012
  226MOL0     H30459   5.821   3.327   7.877 -0.1492  0.3443  0.5524
  226MOL0     H30460   5.986   3.350   7.847  0.6385  0.2336 -2.8067
  226MOL0     H30461   6.059   3.579   7.727  0.1112 -1.3744 -0.0172
  226MOL0     H30462   5.847   3.870   7.575 -1.9573 -1.5787  0.7475
  226MOL0     H30463   5.967   3.842   7.711  1.4367 -2.6400  1.6899
  226MOL0     H30464   6.095   3.919   7.509  1.6281 -0.3588 -0.1205
  226MOL0     H30465   6.133   3.761   7.558  0.1530  1.0671  1.9204
  226MOL0     H30466   5.918   3.818   7.348 -0.5087 -1.3519 -1.0973
  226MOL0     H30467   6.005   3.665   7.377  0.4407 -0.1717 -3.7663
  226MOL0     H30468   6.224   3.804   7.336 -0.3365  3.6960  2.1123
  226MOL0     H30469   6.111   3.909   7.245  0.3217  0.4481  1.6953
  226MOL0     H30470   6.094   3.611   6.978  0.0242 -1.5581  2.1067
  226MOL0     H30471   6.228   3.591   6.764  1.4824  0.7379 -1.6259
  226MOL0     H30472   6.558   3.694   6.441  1.0640 -0.1698 -0.1855
  226MOL0     H30473   6.646   3.757   6.241  1.2321 -2.9140  2.6396
  226MOL0     H30474   6.834   3.831   6.119 -1.3412 -0.2507 -0.1246
  226MOL0     H30475   6.679   3.862   6.045 -0.4941  0.7996 -2.0729
  226MOL0     H30476   6.783   4.067   5.925 -1.9649 -1.3895  0.7360
  226MOL0     H30477   6.936   4.030   5.989  0.0322  2.8467 -3.7262
  226MOL0     H30478   6.909   3.948   5.773  1.1866 -1.1151  0.1033
  226MOL0     H30479   6.906   3.808   5.878  3.0412  1.2103  0.4952
  226MOL0     H30480   6.655   3.968   5.779 -3.0110 -0.7560  2.7829
  226MOL0     H30481   6.642   3.796   5.824 -0.0446  0.5701  0.5071
  226MOL0     H30482   6.786   3.739   5.635 -0.2403 -0.0895  1.2247
  226MOL0     H30483   6.787   3.909   5.582 -1.8151 -0.5545 -2.2954
  226MOL0     H30484   6.603   3.737   5.490  1.5703  0.7392 -0.5748
  226MOL0     H30485   6.511   3.774   5.627 -0.5299 -1.1433 -1.0711
  226MOL0     H30486   6.623   4.005   5.455 -1.0417  0.2515 -1.2963
  226MOL0     H30487   6.510   4.017   5.589  0.1351  1.9369 -1.6600
  226MOL0     H30488   6.380   4.017   5.383  4.0953  2.4753 -0.6223
  226MOL0     H30489   6.464   3.864   5.328  1.5921 -1.4318  1.0756
  226MOL0     H30490   6.733   4.150   6.373 -1.3095 -0.1651 -1.8328
  226MOL0     H30491   6.632   4.084   6.608  1.1216 -0.2970  0.1175
  226MOL0     H30492   6.476   3.908   6.927  1.0305 -0.9613 -1.3685
  226MOL0     H30493   6.346   3.897   7.140 -2.3022 -1.4920  1.0599
  226MOL0     H30494   4.952   3.041   7.687  0.3646 -0.9546  1.5736
  226MOL0     H30495   4.907   2.906   7.469  0.2279 -0.2512 -2.7193
  226MOL0     H30496   4.902   2.714   7.224  3.1291 -0.2317  1.3666
  226MOL0     H30497   4.724   2.587   7.090  0.5743 -0.4957 -2.2923
  226MOL0     H30498   4.705   2.421   6.883 -0.6214 -1.9138 -2.8872
  226MOL0     H30499   4.559   2.421   7.001 -1.2593  0.1761 -1.9656
  226MOL0     H30500   4.508   2.195   6.923 -1.9432  0.0793 -1.6855
  226MOL0     H30501   4.659   2.200   6.818 -1.7162 -2.7161 -0.7834
  226MOL0     H30502   4.577   2.345   6.670  0.5147  0.1396  0.7646
  226MOL0     H30503   4.444   2.400   6.785  1.9621 -1.0963  3.8265
  226MOL0     H30504   4.357   2.278   6.587  0.6388  0.3650 -0.6059
  226MOL0     H30505   4.440   2.127   6.634  0.1669  0.3267  0.5944
  226MOL0     H30506   4.119   2.109   6.896 -0.3976  2.5844  0.8760
  226MOL0     H30507   4.934   2.242   7.104 -3.3605  0.5005  1.3729
  226MOL0     H30508   5.251   2.347   7.141  1.0644 -3.9681  0.0090
  226MOL0     H30509   5.220   2.336   7.322  0.5815 -0.3648  0.3525
  226MOL0     H30510   5.165   2.213   7.217  1.3661 -0.2183  1.1486
  227MOL0     O30511   3.222   3.925   3.416  0.9075 -0.0409  0.6419
  227MOL0     C30512   3.321   3.848   3.406  0.1000  0.0844  0.2314
  227MOL0     O30513   3.348   3.751   3.499  0.2514  0.2952 -0.0724
  227MOL0     C30514   3.274   3.743   3.615  0.2022  0.2762  0.1989
  227MOL0     C30515   3.346   3.772   3.728 -0.2088 -0.5249  0.5782
  227MOL0     C30516   3.295   3.772   3.852  0.8534 -0.3382 -0.2656
  227MOL0     C30517   3.164   3.741   3.868  0.7197 -0.5315 -0.1557
  227MOL0     O30518   3.124   3.746   3.993  0.2971  0.0161 -0.1590
  227MOL0     C30519   3.021   3.661   4.046  0.3102 -0.4431 -1.1756
  227MOL0     C30520   2.930   3.740   4.151 -0.7145 -0.5232  1.5554
  227MOL0     C30521   2.847   3.629   4.228 -0.3332  0.4665 -0.8013
  227MOL0     C30522   2.736   3.687   4.310 -0.5425  0.3965  0.0405
  227MOL0     C30523   2.718   3.622   4.449  0.2094  0.0307  0.4346
  227MOL0     C30524   2.603   3.682   4.524 -0.4042  0.1642 -0.5708
  227MOL0     C30525   2.469   3.646   4.472  0.4238  0.4002  0.5152
  227MOL0     C30526   2.348   3.678   4.569 -0.0289 -0.0983  0.6996
  227MOL0     N30527   2.339   3.587   4.681  0.4009  0.7763  0.3436
  227MOL0     C30528   2.380   3.617   4.804 -0.0612 -0.6799 -0.0718
  227MOL0     C30529   2.394   3.500   4.862  0.1923 -1.0404  0.3168
  227MOL0     C30530   2.445   3.492   5.008 -0.6634  1.5237  0.4372
  227MOL0     C30531   2.590   3.553   5.029 -0.3413 -0.0151 -0.6241
  227MOL0     C30532   2.696   3.476   4.935  0.4328  0.8414 -0.4470
  227MOL0     C30533   2.840   3.548   4.916 -0.1739  1.1390 -0.5054
  227MOL0     O30534   2.803   3.682   4.883 -1.6375  0.0203  0.4872
  227MOL0     C30535   2.871   3.779   4.950  0.2847  0.7734  0.0221
  227MOL0     C30536   2.989   3.834   4.909  0.0152 -0.8232 -0.0159
  227MOL0     C30537   3.046   3.943   4.985 -0.6620  1.3902 -0.1725
  227MOL0     C30538   2.985   3.995   5.096  0.7000 -0.6038 -0.6017
  227MOL0     C30539   3.049   4.105   5.181 -0.0557  0.2098  0.4258
  227MOL0     O30540   3.176   4.152   5.156  1.1602 -0.2531  0.3110
  227MOL0     C30541   3.236   4.238   5.245  0.2036  0.9046 -0.1565
  227MOL0     C30542   3.187   4.354   5.304 -0.0588 -0.4108 -1.2204
  227MOL0     C30543   3.271   4.427   5.386 -0.8071  0.1326  0.3357
  227MOL0     C30544   3.394   4.382   5.432 -1.2830  0.1621  0.1119
  227MOL0     O30545   3.439   4.470   5.529 -0.0344 -0.9500 -0.1549
  227MOL0     C30546   3.536   4.417   5.629  0.3543 -0.0372  0.3110
  227MOL0     C30547   3.480   4.300   5.702  0.4322  0.8134  0.0524
  227MOL0     C30548   3.362   4.348   5.789 -0.2951 -0.1523 -0.7171
  227MOL0     C30549   3.293   4.218   5.829 -0.4981  0.6125  0.4218
  227MOL0     C30550   3.171   4.238   5.931  0.1485 -0.5825  0.1714
  227MOL0     C30551   3.104   4.124   5.992 -0.6672  0.5156 -0.0545
  227MOL0     C30552   3.005   4.045   5.898 -0.7636  0.0251  0.7020
  227MOL0     C30553   2.891   4.121   5.841  0.2281  0.5334 -0.8432
  227MOL0    Cl30554   2.798   4.179   5.976  0.3884 -0.3933  0.4553
  227MOL0     C30555   3.437   4.257   5.388 -1.0449 -0.7160 -0.5155
  227MOL0     C30556   3.359   4.193   5.285 -0.3949  0.1487  0.1898
  227MOL0     O30557   2.976   4.132   5.277 -1.0684 -0.2380  1.0008
  227MOL0     C30558   2.878   3.929   5.143  1.1117  0.3412 -0.3711
  227MOL0     C30559   2.826   3.816   5.074 -0.4835  0.2769 -0.4909
  227MOL0     N30560   2.349   3.403   4.771 -0.3361 -0.7296 -0.3192
  227MOL0     N30561   2.319   3.456   4.655  0.0150 -0.1325 -0.8358
  227MOL0     C30562   3.083   3.736   3.750 -0.1276  0.6559  0.4746
  227MOL0     C30563   3.136   3.726   3.618  0.6768 -0.2532 -0.9188
  227MOL0     C30564   3.401   3.853   3.287 -0.3913 -0.2249  0.1804
  227MOL0     C30565   3.542   3.827   3.304  0.1843  0.6239  0.1502
  227MOL0     C30566   3.627   3.841   3.197 -0.2984  0.3581  0.1452
  227MOL0     C30567   3.569   3.858   3.066  0.7716  0.3461  0.3342
  227MOL0     O30568   3.638   3.851   2.951  0.6182  0.0906  0.4397
  227MOL0     C30569   3.706   3.725   2.926 -0.3882  0.1843 -0.4786
  227MOL0     C30570   3.601   3.641   2.854  0.1223  0.8769  0.5882
  227MOL0     C30571   3.644   3.489   2.829  0.1516 -0.2477 -0.4649
  227MOL0     C30572   3.557   3.426   2.718 -0.1837  0.8240 -0.1881
  227MOL0     C30573   3.616   3.293   2.693 -0.1094 -1.2233  0.3451
  227MOL0     C30574   3.674   3.193   2.672 -0.6363  0.2339  0.7642
  227MOL0     C30575   3.432   3.890   3.050 -0.8764  0.3332 -0.7320
  227MOL0     C30576   3.350   3.883   3.158 -0.4980 -0.2871  0.5714
  227MOL0     C30577   3.213   3.929   3.133 -0.1679  0.1838 -0.7984
  227MOL0     H30578   3.452   3.794   3.719 -0.2637  1.4141  3.2626
  227MOL0     H30579   3.350   3.792   3.944  1.0507 -1.4536 -0.1237
  227MOL0     H30580   2.962   3.627   3.960  1.6944  0.1643 -2.4196
  227MOL0     H30581   3.061   3.570   4.090  1.4894 -0.1508 -1.6129
  227MOL0     H30582   2.873   3.811   4.091 -1.2234 -0.9917  1.4786
  227MOL0     H30583   2.992   3.803   4.216 -1.9672 -0.1429  2.4298
  227MOL0     H30584   2.903   3.559   4.291 -0.0494  1.2705 -0.1442
  227MOL0     H30585   2.804   3.569   4.146 -0.4838 -3.3096  1.7729
  227MOL0     H30586   2.755   3.792   4.332 -3.0297  1.0358 -0.6327
  227MOL0     H30587   2.647   3.679   4.248  0.2481 -0.7242 -1.0067
  227MOL0     H30588   2.708   3.513   4.448 -2.3781  0.1966  0.4191
  227MOL0     H30589   2.807   3.650   4.506 -1.1827 -0.3460  2.9444
  227MOL0     H30590   2.616   3.652   4.629  0.0113  1.7641 -0.1327
  227MOL0     H30591   2.617   3.790   4.514  0.0674 -0.0776 -3.1622
  227MOL0     H30592   2.461   3.542   4.440 -3.0493  0.4209  0.9439
  227MOL0     H30593   2.447   3.714   4.390  2.6070  3.2665  2.1154
  227MOL0     H30594   2.361   3.782   4.599 -0.2584 -0.3084  1.5330
  227MOL0     H30595   2.258   3.678   4.507 -1.1568  1.4056  2.2624
  227MOL0     H30596   2.401   3.715   4.845 -1.9262 -0.1016 -0.4216
  227MOL0     H30597   2.376   3.533   5.083 -0.5100  0.4048  1.2007
  227MOL0     H30598   2.446   3.389   5.044  0.6114  1.3145 -0.1535
  227MOL0     H30599   2.575   3.659   5.008  0.7980  0.4928  0.9667
  227MOL0     H30600   2.611   3.546   5.136 -1.6581  0.0904 -0.3373
  227MOL0     H30601   2.657   3.474   4.833  0.3919  1.2106 -0.4383
  227MOL0     H30602   2.718   3.378   4.978  2.0833  1.9284  1.3199
  227MOL0     H30603   2.893   3.507   4.830  2.2286 -2.1005  2.2797
  227MOL0     H30604   2.900   3.542   5.007 -3.1814  1.0225  1.6087
  227MOL0     H30605   3.019   3.797   4.811  0.6325 -0.4140  0.0126
  227MOL0     H30606   3.145   3.972   4.951  0.7299 -2.0356  0.4841
  227MOL0     H30607   3.090   4.397   5.279  0.2579  1.1626  0.0445
  227MOL0     H30608   3.231   4.520   5.426 -1.7663 -0.5796  1.1033
  227MOL0     H30609   3.626   4.382   5.579  1.0606  0.5401  1.1483
  227MOL0     H30610   3.573   4.495   5.696  1.3155 -0.5303  0.3679
  227MOL0     H30611   3.447   4.221   5.634 -2.0663  0.3041  1.7097
  227MOL0     H30612   3.552   4.256   5.772 -1.0418  1.8790  2.3622
  227MOL0     H30613   3.410   4.408   5.866 -0.0708  0.9125 -1.6631
  227MOL0     H30614   3.288   4.411   5.739 -0.3892  1.2499  1.0815
  227MOL0     H30615   3.363   4.151   5.881 -2.3497 -2.7213 -1.0929
  227MOL0     H30616   3.258   4.178   5.734  1.4348  1.9430 -0.9460
  227MOL0     H30617   3.092   4.303   5.891  0.4317  0.1227  0.7321
  227MOL0     H30618   3.218   4.288   6.016 -0.2245 -0.4460  0.2975
  227MOL0     H30619   3.189   4.061   6.019  0.1622  2.1255  1.2539
  227MOL0     H30620   3.055   4.151   6.087  2.3020 -1.4091  2.2059
  227MOL0     H30621   2.969   3.964   5.962  0.2907 -0.3061  0.8921
  227MOL0     H30622   3.052   4.001   5.810  1.7312 -0.2997  2.0954
  227MOL0     H30623   2.928   4.194   5.769  1.3516  0.6379 -0.1786
  227MOL0     H30624   2.823   4.044   5.804 -0.2365 -0.4272  1.7459
  227MOL0     H30625   3.538   4.227   5.412  1.6487  3.5413 -4.7565
  227MOL0     H30626   3.392   4.094   5.255 -3.2373 -1.2580  1.3286
  227MOL0     H30627   2.839   3.948   5.243  2.1913  0.9337 -0.0422
  227MOL0     H30628   2.739   3.766   5.114  0.1521  2.3635  4.0561
  227MOL0     H30629   2.974   3.739   3.754 -0.3430 -1.2064 -1.8593
  227MOL0     H30630   3.084   3.719   3.523  0.9088 -0.0033 -1.0650
  227MOL0     H30631   3.578   3.807   3.405  0.0611 -2.6328 -0.3365
  227MOL0     H30632   3.735   3.832   3.202 -0.1180  1.5829 -0.9695
  227MOL0     H30633   3.740   3.682   3.021  0.3266  1.3577 -0.1860
  227MOL0     H30634   3.788   3.753   2.860 -0.2272 -0.3174 -0.4967
  227MOL0     H30635   3.570   3.694   2.763 -1.9801 -0.8767  0.1980
  227MOL0     H30636   3.519   3.645   2.927  0.9932 -0.3426  1.6800
  227MOL0     H30637   3.621   3.436   2.922  2.8759 -0.7642 -0.0167
  227MOL0     H30638   3.751   3.485   2.811 -0.0639  3.1806 -4.0530
  227MOL0     H30639   3.460   3.400   2.762  0.5220  1.9691  2.2186
  227MOL0     H30640   3.541   3.483   2.627  0.7967  1.3408 -0.0536
  227MOL0     H30641   3.720   3.096   2.675 -3.3226 -1.1451  0.5119
  227MOL0     H30642   3.386   3.906   2.953 -2.4404 -2.2933 -0.5240
  227MOL0     H30643   3.203   4.031   3.171  2.7507 -0.6553  2.8190
  227MOL0     H30644   3.198   3.919   3.025 -1.4141 -4.1416 -0.4226
  227MOL0     H30645   3.135   3.864   3.174 -0.6738  2.2297  1.8047
  228MOL0     O30646   2.970   1.516   4.971  0.6123 -0.2842  0.9084
  228MOL0     C30647   3.068   1.479   5.034 -0.5042 -0.0177  0.2642
  228MOL0     O30648   3.142   1.554   5.128 -0.4534  0.9072 -0.3855
  228MOL0     C30649   3.118   1.688   5.149  0.1338  0.4998 -0.5723
  228MOL0     C30650   3.102   1.782   5.049 -0.7866 -0.0015  0.2805
  228MOL0     C30651   3.061   1.914   5.086 -1.0628 -1.0295 -0.2350
  228MOL0     C30652   3.049   1.970   5.208  0.0100  0.0083  1.1225
  228MOL0     O30653   3.033   2.105   5.211  0.2189 -0.5615  0.8025
  228MOL0     C30654   2.963   2.155   5.316  0.0574  0.4268  0.2675
  228MOL0     C30655   2.926   2.305   5.304  0.5838  0.8378  0.5583
  228MOL0     C30656   3.024   2.389   5.221 -0.4272 -0.7706  0.7749
  228MOL0     C30657   2.994   2.536   5.253  1.3974 -0.0255 -0.3161
  228MOL0     C30658   2.845   2.579   5.228 -0.0556 -0.8411 -0.4510
  228MOL0     C30659   2.812   2.728   5.272  0.2593 -0.2242 -0.0326
  228MOL0     C30660   2.916   2.833   5.209  1.1128  0.6633  0.0496
  228MOL0     C30661   2.880   2.978   5.207  0.1326  0.4510 -0.1924
  228MOL0     N30662   2.764   3.007   5.120  0.1022  1.3807 -0.4208
  228MOL0     C30663   2.762   3.015   4.981 -0.4667  0.8115 -0.4077
  228MOL0     C30664   2.634   3.004   4.949  0.2845  0.9844  0.4773
  228MOL0     C30665   2.580   3.021   4.810 -0.3733 -0.8613 -0.4531
  228MOL0     C30666   2.468   2.922   4.787 -0.5877  0.6629  0.3487
  228MOL0     C30667   2.412   2.965   4.653  0.4879 -0.5612  1.0669
  228MOL0     C30668   2.298   2.879   4.601  0.2901 -0.2420 -0.4666
  228MOL0     O30669   2.241   2.921   4.480  0.4045  1.2199 -0.0404
  228MOL0     C30670   2.117   2.879   4.445  0.1640 -0.3749  0.0862
  228MOL0     C30671   2.092   2.917   4.307 -1.3694  0.0773 -0.8423
  228MOL0     C30672   1.972   2.886   4.256  0.1520 -0.0565 -0.4655
  228MOL0     C30673   1.870   2.820   4.333  0.6202 -1.1233  0.3378
  228MOL0     C30674   1.753   2.774   4.263  0.1670 -0.9371  0.2682
  228MOL0     O30675   1.740   2.817   4.137  0.3552  1.0084  0.2773
  228MOL0     C30676   1.619   2.799   4.064  1.0833  0.7594  0.0204
  228MOL0     C30677   1.491   2.775   4.120 -0.3785  0.2512  1.0036
  228MOL0     C30678   1.374   2.744   4.038 -0.0065  0.2916  1.2053
  228MOL0     C30679   1.388   2.719   3.899  0.0913  0.2782  0.5219
  228MOL0     O30680   1.281   2.684   3.819 -0.1473  0.2472 -0.4157
  228MOL0     C30681   1.312   2.598   3.703 -0.6956  0.5462 -0.3044
  228MOL0     C30682   1.198   2.493   3.672 -0.1854 -0.2614 -0.0592
  228MOL0     C30683   1.224   2.425   3.541  0.4083  0.2626  0.2145
  228MOL0     C30684   1.169   2.271   3.520  0.6364  0.3928 -0.3323
  228MOL0     C30685   1.013   2.260   3.538 -0.7097 -0.0489 -0.6383
  228MOL0     C30686   0.950   2.347   3.436  0.0863 -0.1035  0.7269
  228MOL0     C30687   0.802   2.356   3.432  1.0714 -0.7386  0.3583
  228MOL0     C30688   0.760   2.453   3.322 -0.0161  0.1358 -0.5658
  228MOL0    Cl30689   0.598   2.496   3.370  0.5260 -0.3076 -0.4030
  228MOL0     C30690   1.514   2.751   3.838  0.3603 -0.2451  0.3261
  228MOL0     C30691   1.620   2.802   3.921 -0.2246 -0.2187  1.1226
  228MOL0     O30692   1.695   2.681   4.315  0.5157 -0.0624 -0.7789
  228MOL0     C30693   1.897   2.776   4.464 -0.1126  0.1287 -0.4933
  228MOL0     C30694   2.026   2.806   4.518 -0.1530  0.4227  0.4424
  228MOL0     N30695   2.555   2.994   5.059  0.1370  0.1322 -0.4704
  228MOL0     N30696   2.636   3.003   5.162  0.0296 -0.6578 -0.2110
  228MOL0     C30697   3.080   1.874   5.307 -0.4924 -0.4097  0.3095
  228MOL0     C30698   3.111   1.740   5.280 -0.2018  0.2506  0.0432
  228MOL0     C30699   3.128   1.340   5.001 -0.3685  0.3005 -0.0584
  228MOL0     C30700   3.267   1.325   5.014  0.7792  0.4272  0.0433
  228MOL0     C30701   3.322   1.190   5.008 -0.3552  0.0190 -0.3113
  228MOL0     C30702   3.251   1.080   4.971  0.0624 -0.3148 -0.3874
  228MOL0     O30703   3.320   0.968   4.940  0.4440 -0.0877  0.3404
  228MOL0     C30704   3.240   0.855   4.899 -1.0020 -0.1440 -1.0614
  228MOL0     C30705   3.326   0.731   4.865 -0.3542 -0.3408 -0.1994
  228MOL0     C30706   3.401   0.744   4.726  1.2061 -0.4985  0.4927
  228MOL0     C30707   3.538   0.685   4.728  0.2471 -1.2974  0.3995
  228MOL0     C30708   3.544   0.542   4.757  0.1445  0.7328  0.4060
  228MOL0     C30709   3.549   0.427   4.797 -0.2154 -0.4394 -0.7968
  228MOL0     C30710   3.112   1.098   4.964  0.1000  0.1025  0.2257
  228MOL0     C30711   3.048   1.223   4.985 -0.3408  0.0611 -0.4725
  228MOL0     C30712   2.896   1.228   4.965 -0.5209 -0.4480 -0.3759
  228MOL0     H30713   3.129   1.727   4.959 -0.8570 -2.9148  1.8963
  228MOL0     H30714   3.064   1.983   5.002 -0.0143 -1.1219 -0.2858
  228MOL0     H30715   2.869   2.103   5.340  0.4433  0.4599  2.0076
  228MOL0     H30716   3.031   2.150   5.402  0.4960  1.0415 -0.0383
  228MOL0     H30717   2.899   2.346   5.401 -1.2327 -1.8698  1.3187
  228MOL0     H30718   2.829   2.307   5.253 -0.2876 -1.4130  1.9670
  228MOL0     H30719   2.985   2.369   5.120 -1.5279 -1.2705  1.2784
  228MOL0     H30720   3.128   2.357   5.222  0.1987  1.1289 -0.2000
  228MOL0     H30721   3.024   2.568   5.353 -0.4600  4.5720 -0.9712
  228MOL0     H30722   3.055   2.603   5.192  0.1896  2.2848  0.8798
  228MOL0     H30723   2.828   2.562   5.121 -2.2552  1.4427 -0.5464
  228MOL0     H30724   2.771   2.511   5.272 -1.7075  1.5868  0.7010
  228MOL0     H30725   2.710   2.760   5.253 -0.2145 -0.5779  1.7142
  228MOL0     H30726   2.819   2.731   5.381 -1.2857  1.8345  0.0708
  228MOL0     H30727   2.925   2.788   5.110 -2.1556 -1.1965  0.4214
  228MOL0     H30728   3.006   2.826   5.270  0.5697 -0.2215  0.7918
  228MOL0     H30729   2.851   3.010   5.308 -3.9701 -1.9641 -0.4033
  228MOL0     H30730   2.974   3.024   5.176  0.8449 -2.1477 -2.1957
  228MOL0     H30731   2.850   3.029   4.920  0.4173  0.7391  0.8220
  228MOL0     H30732   2.552   3.127   4.805  0.6441 -0.6431 -2.4166
  228MOL0     H30733   2.660   3.017   4.735 -1.5146 -1.5363 -1.6921
  228MOL0     H30734   2.515   2.823   4.780  2.1738  1.5737  3.4546
  228MOL0     H30735   2.382   2.916   4.855 -1.0648 -2.7572 -0.3679
  228MOL0     H30736   2.499   2.951   4.588 -0.0716  0.3446  0.1109
  228MOL0     H30737   2.387   3.071   4.652  0.0516 -0.6229 -1.8892
  228MOL0     H30738   2.219   2.884   4.676 -0.2875 -1.5063 -0.9643
  228MOL0     H30739   2.326   2.773   4.598 -2.8624 -1.2291  0.9261
  228MOL0     H30740   2.170   2.970   4.253  1.8183 -2.3786  1.0240
  228MOL0     H30741   1.960   2.906   4.150  1.6052  1.3487 -0.4083
  228MOL0     H30742   1.484   2.776   4.229 -2.3347  0.9369  0.9005
  228MOL0     H30743   1.280   2.740   4.092 -0.0870  2.2140  1.2812
  228MOL0     H30744   1.336   2.658   3.615  1.6491  1.0629  0.6011
  228MOL0     H30745   1.400   2.536   3.721 -0.3191  0.5918 -1.8771
  228MOL0     H30746   1.190   2.421   3.754  1.6033  0.9130  1.2393
  228MOL0     H30747   1.105   2.549   3.661 -0.7005 -1.4317 -2.2375
  228MOL0     H30748   1.176   2.473   3.456 -1.6278 -0.6056  0.7964
  228MOL0     H30749   1.330   2.422   3.516  0.2888 -3.3952 -0.3904
  228MOL0     H30750   1.207   2.195   3.590  0.7681  3.2042  2.9032
  228MOL0     H30751   1.196   2.244   3.418 -0.9858  1.3971 -1.0523
  228MOL0     H30752   0.989   2.301   3.636  2.5315  1.1127 -0.2172
  228MOL0     H30753   0.977   2.156   3.537  3.1186 -1.6497  2.5512
  228MOL0     H30754   0.974   2.452   3.458  1.0755 -0.1337 -0.1104
  228MOL0     H30755   0.977   2.302   3.340 -1.3344 -1.6794  1.0232
  228MOL0     H30756   0.763   2.381   3.531 -1.0860 -2.3172  0.0063
  228MOL0     H30757   0.752   2.260   3.413  0.1939  0.1898 -2.8191
  228MOL0     H30758   0.822   2.543   3.312 -0.7391  0.4806 -2.2893
  228MOL0     H30759   0.766   2.412   3.221 -0.2952 -3.8811  0.8784
  228MOL0     H30760   1.522   2.737   3.730 -3.5503 -0.0038 -0.1547
  228MOL0     H30761   1.719   2.828   3.886  0.6844 -2.1269  2.1235
  228MOL0     H30762   1.823   2.720   4.519  0.8600 -1.0533 -0.3373
  228MOL0     H30763   2.032   2.775   4.622 -2.3699  0.5366  0.6530
  228MOL0     H30764   3.080   1.888   5.415  2.7315 -3.6382  0.9329
  228MOL0     H30765   3.141   1.679   5.366  3.0828 -0.5775 -1.5038
  228MOL0     H30766   3.333   1.409   5.027 -0.7346  1.8696 -1.0656
  228MOL0     H30767   3.429   1.176   5.018 -0.3548  0.4551  0.4116
  228MOL0     H30768   3.179   0.869   4.809  0.0147 -1.5316 -2.0151
  228MOL0     H30769   3.165   0.841   4.978 -0.7517  0.7628 -0.6580
  228MOL0     H30770   3.265   0.640   4.858 -1.3073  0.1771  1.0399
  228MOL0     H30771   3.396   0.713   4.947  1.1703  1.3205 -1.0745
  228MOL0     H30772   3.427   0.843   4.689  2.5436 -0.3751  1.6811
  228MOL0     H30773   3.339   0.683   4.660  2.8037 -0.7832 -0.8037
  228MOL0     H30774   3.601   0.700   4.640  1.5537 -2.0131  1.1784
  228MOL0     H30775   3.585   0.750   4.803 -1.7666  1.9475 -0.9406
  228MOL0     H30776   3.574   0.334   4.843  4.5283  1.7450  1.7584
  228MOL0     H30777   3.058   1.014   4.923  2.5513 -0.0979 -2.9182
  228MOL0     H30778   2.847   1.304   5.027  0.9504  0.0553  0.2374
  228MOL0     H30779   2.883   1.251   4.859 -1.5615  3.3783  0.4313
  228MOL0     H30780   2.855   1.128   4.980 -1.0474 -0.9597 -4.2542
  229MOL0     O30781   1.889   2.440   7.548  0.4045  0.4123 -0.3194
  229MOL0     C30782   1.863   2.392   7.435 -1.4883  1.1907 -0.6484
  229MOL0     O30783   1.743   2.392   7.375  0.5434  0.3134  0.1872
  229MOL0     C30784   1.637   2.444   7.446  0.0240 -0.9077  0.3957
  229MOL0     C30785   1.562   2.388   7.545  0.0995  0.2323 -0.0148
  229MOL0     C30786   1.462   2.449   7.616 -0.0303  0.6664 -1.2653
  229MOL0     C30787   1.427   2.579   7.579 -0.6515 -0.1045 -0.5612
  229MOL0     O30788   1.321   2.639   7.647 -0.3831 -0.1427 -0.0159
  229MOL0     C30789   1.305   2.611   7.787 -0.1063 -0.0175 -0.6718
  229MOL0     C30790   1.214   2.712   7.846 -0.7822  0.5616  0.1014
  229MOL0     C30791   1.082   2.711   7.774  0.2988 -0.1499 -0.3565
  229MOL0     C30792   1.021   2.571   7.766 -0.5608 -0.5080 -0.6450
  229MOL0     C30793   1.003   2.511   7.907 -0.2762 -0.0324 -0.3202
  229MOL0     C30794   0.923   2.390   7.894  0.6349 -0.5623  0.3371
  229MOL0     C30795   0.770   2.435   7.885 -1.0263  0.6139 -0.5993
  229MOL0     C30796   0.702   2.341   7.797  0.1685  0.9138 -0.3280
  229MOL0     N30797   0.678   2.214   7.863  0.3134  0.1446  0.6497
  229MOL0     C30798   0.762   2.110   7.863 -0.1541 -0.4710  0.0442
  229MOL0     C30799   0.710   2.033   7.960 -0.3946 -0.5157  0.3480
  229MOL0     C30800   0.779   1.908   8.003  0.0499  1.0017  0.0210
  229MOL0     C30801   0.891   1.930   8.093  0.0572 -0.7012 -1.2334
  229MOL0     C30802   0.865   2.017   8.213 -0.6931 -0.2230  0.8288
  229MOL0     C30803   0.791   1.950   8.327  0.5394  0.7066  0.1451
  229MOL0     O30804   0.822   1.807   8.355 -0.0050 -0.2904  0.1443
  229MOL0     C30805   0.901   1.782   8.462  0.0068 -0.2476  0.1335
  229MOL0     C30806   1.034   1.816   8.452 -0.0093 -0.1285 -0.2037
  229MOL0     C30807   1.137   1.772   8.542  0.2381 -0.1118  0.4849
  229MOL0     C30808   1.101   1.681   8.641 -0.5987 -0.1823  0.3447
  229MOL0     C30809   1.203   1.617   8.738  0.1162 -0.3877 -0.6124
  229MOL0     O30810   1.332   1.652   8.727 -0.0719  0.3053 -0.2163
  229MOL0     C30811   1.416   1.572   8.807 -1.0949 -0.1428 -0.5281
  229MOL0     C30812   1.425   1.435   8.800 -0.3560  0.6766 -1.1040
  229MOL0     C30813   1.492   1.362   8.893 -0.1790  0.4424 -1.2103
  229MOL0     C30814   1.540   1.426   9.006  0.5519  0.3744 -0.5764
  229MOL0     O30815   1.595   1.354   9.114  0.4460  0.9328 -0.0641
  229MOL0     C30816   1.714   1.395   9.171  0.8121 -0.2197 -0.4585
  229MOL0     C30817   1.835   1.361   9.089 -1.1185  0.0413  0.8371
  229MOL0     C30818   1.819   1.205   9.054 -0.0680 -0.3262 -0.3885
  229MOL0     C30819   1.961   1.148   9.019  0.3611  0.7751  0.4671
  229MOL0     C30820   1.933   1.019   8.948 -0.5945 -0.2229  0.6788
  229MOL0     C30821   2.049   0.913   8.960 -0.2601  0.6985  0.7461
  229MOL0     C30822   2.097   0.854   8.824 -0.5316 -0.1496 -0.9675
  229MOL0     C30823   2.180   0.958   8.743  0.5278 -0.2415  0.1150
  229MOL0    Cl30824   2.242   0.893   8.589 -0.2648 -0.5122 -0.3182
  229MOL0     C30825   1.539   1.568   9.002 -1.4652  0.1853  0.3886
  229MOL0     C30826   1.485   1.642   8.910 -0.2335 -0.7113  1.1593
  229MOL0     O30827   1.159   1.513   8.799  0.0776  0.9581  0.4117
  229MOL0     C30828   0.970   1.644   8.652  0.3684 -0.3031 -0.4996
  229MOL0     C30829   0.864   1.695   8.567 -0.0888 -0.0239 -0.0951
  229MOL0     N30830   0.584   2.074   7.994 -0.1722 -0.1029  0.6052
  229MOL0     N30831   0.564   2.191   7.930  0.6472  0.3107 -0.2925
  229MOL0     C30832   1.503   2.650   7.488  0.1374 -0.1862 -0.1782
  229MOL0     C30833   1.605   2.580   7.418 -0.0709 -1.4003  0.5646
  229MOL0     C30834   1.972   2.332   7.351  0.0572 -0.0880 -0.4894
  229MOL0     C30835   1.934   2.290   7.215  0.9358 -0.6332  0.6001
  229MOL0     C30836   2.027   2.229   7.134 -0.5130  0.1167  0.1382
  229MOL0     C30837   2.161   2.224   7.159  0.1408  0.6290  0.1372
  229MOL0     O30838   2.262   2.164   7.086  0.0195 -0.3148 -0.0295
  229MOL0     C30839   2.231   2.100   6.962 -0.3239 -0.4906 -0.5620
  229MOL0     C30840   2.356   2.036   6.906  0.4456 -0.0283 -0.0328
  229MOL0     C30841   2.413   1.929   7.010  0.8104 -0.6520  0.2184
  229MOL0     C30842   2.546   1.879   6.958  0.1873  0.4049 -0.1746
  229MOL0     C30843   2.649   1.981   6.984  1.1352 -0.0633  0.2797
  229MOL0     C30844   2.736   2.059   6.992 -0.8641 -0.1871  0.5271
  229MOL0     C30845   2.200   2.282   7.288 -0.3963  0.4446  0.3779
  229MOL0     C30846   2.109   2.319   7.388  0.0170 -0.1079  0.5138
  229MOL0     C30847   2.152   2.339   7.528 -0.4005  0.5452 -0.4127
  229MOL0     H30848   1.581   2.285   7.575  0.4152  0.7773  1.7738
  229MOL0     H30849   1.398   2.405   7.692 -0.7732  0.3455 -2.0556
  229MOL0     H30850   1.266   2.512   7.815  1.6864 -0.7722 -0.6945
  229MOL0     H30851   1.396   2.623   7.846 -0.3021 -1.0584 -0.1330
  229MOL0     H30852   1.261   2.810   7.835  3.2315 -1.4115 -2.7728
  229MOL0     H30853   1.205   2.671   7.947 -1.2273  1.8738  0.6233
  229MOL0     H30854   1.086   2.747   7.671  1.6345 -1.9795 -0.9859
  229MOL0     H30855   1.022   2.782   7.832  1.6844 -1.7475  3.3151
  229MOL0     H30856   0.924   2.591   7.718 -0.8539 -0.1164  0.0960
  229MOL0     H30857   1.075   2.511   7.692 -0.4481  0.1182 -1.0714
  229MOL0     H30858   1.094   2.492   7.964 -0.7304  0.7508  0.6950
  229MOL0     H30859   0.947   2.575   7.975 -2.4719 -2.1613  0.0165
  229MOL0     H30860   0.948   2.344   7.798 -0.2149  1.4992 -0.9418
  229MOL0     H30861   0.939   2.328   7.983 -2.7806  1.9954  3.0181
  229MOL0     H30862   0.752   2.537   7.850  0.5793  0.4649 -1.9938
  229MOL0     H30863   0.717   2.425   7.981 -2.1624 -2.2861 -1.4373
  229MOL0     H30864   0.606   2.373   7.757 -0.3168 -0.0420  0.0246
  229MOL0     H30865   0.764   2.314   7.711 -0.6508 -1.1633 -0.3297
  229MOL0     H30866   0.861   2.097   7.821  0.3909 -0.7355  1.3354
  229MOL0     H30867   0.707   1.840   8.049  2.0660 -1.5162 -0.3078
  229MOL0     H30868   0.816   1.849   7.918  0.2640 -0.4682  1.0946
  229MOL0     H30869   0.933   1.838   8.135  1.5628  1.6387  2.9408
  229MOL0     H30870   0.970   1.981   8.037  1.3256  2.0736  2.6661
  229MOL0     H30871   0.808   2.103   8.176  1.0006  1.5561  2.1717
  229MOL0     H30872   0.961   2.044   8.258 -1.3977  2.5451  0.8547
  229MOL0     H30873   0.688   1.943   8.292  0.6119 -0.4447  0.1126
  229MOL0     H30874   0.788   2.013   8.417 -0.6762  0.2475  0.4468
  229MOL0     H30875   1.074   1.881   8.375 -1.1644  1.7436  0.6955
  229MOL0     H30876   1.242   1.794   8.527  0.1010  0.7461  0.7065
  229MOL0     H30877   1.362   1.385   8.727 -0.5285  1.2085 -1.3300
  229MOL0     H30878   1.494   1.253   8.899  4.1982  0.3934  1.8256
  229MOL0     H30879   1.713   1.502   9.193 -4.1228 -0.2938  0.9383
  229MOL0     H30880   1.713   1.344   9.267  1.9776 -0.2694 -0.4587
  229MOL0     H30881   1.856   1.431   9.008  0.3638  0.1239  1.2597
  229MOL0     H30882   1.933   1.365   9.138 -1.0345  1.6999  0.5915
  229MOL0     H30883   1.768   1.158   9.139 -3.4779  1.8732 -0.9858
  229MOL0     H30884   1.749   1.188   8.971 -2.3155 -3.0401  1.8435
  229MOL0     H30885   2.018   1.136   9.111 -0.6398  3.7125  1.5871
  229MOL0     H30886   2.015   1.213   8.949  1.0696 -0.6022 -0.3078
  229MOL0     H30887   1.917   1.033   8.840 -2.2662 -0.1948  0.8991
  229MOL0     H30888   1.836   0.980   8.981 -1.8282  0.1496 -2.1969
  229MOL0     H30889   2.133   0.954   9.016  0.8968  0.9319 -1.0561
  229MOL0     H30890   2.016   0.836   9.030  1.5943 -0.3997  0.4899
  229MOL0     H30891   2.008   0.823   8.767 -1.9814 -0.8688  1.5155
  229MOL0     H30892   2.160   0.768   8.848  2.6566  2.4486  0.8210
  229MOL0     H30893   2.133   1.055   8.723  1.3861  0.1513 -0.0575
  229MOL0     H30894   2.261   0.998   8.804  0.8282  1.1604 -1.1271
  229MOL0     H30895   1.569   1.607   9.098 -2.8791  0.1493  0.8758
  229MOL0     H30896   1.477   1.750   8.919 -2.4505 -0.6300 -0.9165
  229MOL0     H30897   0.952   1.564   8.723  1.9539 -1.5082 -1.3844
  229MOL0     H30898   0.761   1.661   8.560 -0.1676  0.4739 -1.5865
  229MOL0     H30899   1.483   2.756   7.476  1.1972  0.2529  1.6186
  229MOL0     H30900   1.676   2.637   7.359 -3.5825  1.9639 -0.8729
  229MOL0     H30901   1.837   2.319   7.177 -0.2738 -1.1729  3.0404
  229MOL0     H30902   1.998   2.177   7.043  4.1750  1.4620 -2.4499
  229MOL0     H30903   2.184   2.176   6.900  1.4371  1.9863  0.9432
  229MOL0     H30904   2.152   2.029   6.991  0.6885 -0.4732  2.6139
  229MOL0     H30905   2.430   2.114   6.885  1.1331 -0.5735  0.3392
  229MOL0     H30906   2.319   1.981   6.819 -1.6228  0.3724  0.5257
  229MOL0     H30907   2.349   1.841   7.025  1.8097 -1.9995 -2.7500
  229MOL0     H30908   2.431   1.983   7.104 -0.0671 -0.0617  0.0583
  229MOL0     H30909   2.566   1.780   7.000 -3.1775 -1.6171 -2.7550
  229MOL0     H30910   2.542   1.870   6.849  1.2069 -1.5053 -0.0950
  229MOL0     H30911   2.820   2.125   7.004 -1.3242  0.6793 -0.7544
  229MOL0     H30912   2.307   2.298   7.299 -0.6391  2.0340  0.6884
  229MOL0     H30913   2.148   2.448   7.538 -2.7974  0.7682 -2.7602
  229MOL0     H30914   2.088   2.289   7.602 -0.0680 -0.0254 -0.5026
  229MOL0     H30915   2.255   2.308   7.545  0.2635  2.0711 -1.5144
  230MOL0     O30916   8.491   9.374   4.774 -0.4503  0.1733 -0.1112
  230MOL0     C30917   8.392   9.305   4.795  0.8172  0.1034 -0.3098
  230MOL0     O30918   8.282   9.354   4.860  0.1360 -0.0610 -0.5117
  230MOL0     C30919   8.276   9.486   4.898 -0.5473  1.3412  0.3154
  230MOL0     C30920   8.297   9.587   4.806 -0.6568  0.1160 -0.1428
  230MOL0     C30921   8.287   9.720   4.849 -0.2763  0.4192 -0.0131
  230MOL0     C30922   8.251   9.743   4.985  0.1716 -1.0222  0.0959
  230MOL0     O30923   8.242   9.872   5.040  0.2415 -0.2813 -0.4755
  230MOL0     C30924   8.144   9.964   4.976 -0.4068 -0.3454 -0.0970
  230MOL0     C30925   8.136  10.092   5.060  0.4855  0.2507 -0.0891
  230MOL0     C30926   8.259  10.183   5.061  0.0377  0.3228  0.6366
  230MOL0     C30927   8.286  10.261   5.191  0.2612  0.3494 -0.0976
  230MOL0     C30928   8.421  10.330   5.184 -0.6920 -0.2657 -0.3579
  230MOL0     C30929   8.438  10.413   5.059 -0.5993  0.5238  0.5353
  230MOL0     C30930   8.530  10.540   5.081 -0.1832  0.2451  0.3080
  230MOL0     C30931   8.546  10.630   4.951 -0.5403 -0.1429  0.7252
  230MOL0     N30932   8.596  10.561   4.825  0.3111  0.6498  0.7339
  230MOL0     C30933   8.520  10.489   4.739 -0.8018 -0.3753  0.4835
  230MOL0     C30934   8.613  10.424   4.662  0.8081  0.5368  0.6004
  230MOL0     C30935   8.570  10.344   4.540 -0.0407 -0.6438 -0.8197
  230MOL0     C30936   8.464  10.234   4.553  1.1225 -0.1938  0.1066
  230MOL0     C30937   8.460  10.153   4.688  1.1355  0.0785 -0.2228
  230MOL0     C30938   8.599  10.083   4.705 -0.6768 -0.1933 -0.2675
  230MOL0     O30939   8.592   9.950   4.655 -0.2093 -0.1704 -0.0946
  230MOL0     C30940   8.679   9.855   4.717  0.3249 -0.4940 -0.5871
  230MOL0     C30941   8.638   9.727   4.731  0.0787  1.0111  0.1060
  230MOL0     C30942   8.724   9.624   4.767 -0.7360 -0.2447  0.6909
  230MOL0     C30943   8.858   9.658   4.796  0.1923  0.5465 -0.1348
  230MOL0     C30944   8.945   9.549   4.852  0.8619  0.0037  0.1313
  230MOL0     O30945   9.084   9.555   4.839 -0.3734 -0.1440  0.2666
  230MOL0     C30946   9.159   9.453   4.903 -0.7012  0.2816  0.0421
  230MOL0     C30947   9.276   9.495   4.970 -1.3400  0.2164  0.0919
  230MOL0     C30948   9.368   9.400   5.024  0.4996 -0.4637  0.6122
  230MOL0     C30949   9.355   9.264   5.001  0.0346 -0.0739  0.0594
  230MOL0     O30950   9.445   9.173   5.039  0.5689  0.3083  0.5446
  230MOL0     C30951   9.408   9.033   5.044  0.1744  0.5666 -0.1421
  230MOL0     C30952   9.529   8.963   5.105 -0.2104  0.3941 -0.2371
  230MOL0     C30953   9.496   8.816   5.131  0.1056  0.1316  0.3506
  230MOL0     C30954   9.451   8.715   5.018 -0.4916 -0.8403 -0.1068
  230MOL0     C30955   9.368   8.605   5.080  0.3484 -0.6586  0.6247
  230MOL0     C30956   9.435   8.511   5.176 -0.6656  0.7340 -0.1759
  230MOL0     C30957   9.329   8.399   5.205 -0.3561 -0.0849 -0.3622
  230MOL0     C30958   9.412   8.286   5.271 -0.3086 -0.5310  0.7728
  230MOL0    Cl30959   9.470   8.344   5.429 -0.3012  0.2836 -0.3738
  230MOL0     C30960   9.235   9.230   4.935 -1.1527  0.0222  0.0212
  230MOL0     C30961   9.146   9.319   4.889 -0.0825  0.2547 -0.0881
  230MOL0     O30962   8.875   9.460   4.904  0.8881  0.0233 -0.9298
  230MOL0     C30963   8.906   9.787   4.781 -0.2989  0.2700  0.3601
  230MOL0     C30964   8.818   9.893   4.743 -0.8605 -0.2224 -0.8571
  230MOL0     N30965   8.739  10.462   4.703 -0.3499 -0.3954  0.2063
  230MOL0     N30966   8.732  10.550   4.794  0.8921 -0.5917  0.5083
  230MOL0     C30967   8.236   9.635   5.067  0.2803 -0.5628 -0.4163
  230MOL0     C30968   8.246   9.507   5.029  0.0150 -0.2173 -0.2406
  230MOL0     C30969   8.384   9.169   4.733 -0.1146  0.6425 -0.4561
  230MOL0     C30970   8.482   9.137   4.627 -0.2411 -1.0967 -0.3825
  230MOL0     C30971   8.492   9.015   4.566 -0.5383 -0.8451  0.3018
  230MOL0     C30972   8.388   8.920   4.597  0.3390  0.4619  0.3199
  230MOL0     O30973   8.372   8.798   4.524  0.1452 -0.0496  0.3347
  230MOL0     C30974   8.433   8.789   4.398  0.0968  0.0834  0.2527
  230MOL0     C30975   8.574   8.715   4.386  0.5863 -0.5448 -0.3068
  230MOL0     C30976   8.568   8.569   4.443  0.9279  0.2246 -0.6370
  230MOL0     C30977   8.429   8.487   4.426  0.4493 -0.2644 -0.2235
  230MOL0     C30978   8.397   8.474   4.286  0.6663  0.7056 -0.0350
  230MOL0     C30979   8.362   8.473   4.165 -0.4697 -0.7331  0.1301
  230MOL0     C30980   8.301   8.948   4.699  0.6743  0.9398 -1.2681
  230MOL0     C30981   8.295   9.063   4.770 -0.2268 -0.2722  0.5793
  230MOL0     C30982   8.189   9.082   4.878 -0.1213  0.7496  0.8178
  230MOL0     H30983   8.313   9.574   4.699 -1.3017  1.0146 -0.3566
  230MOL0     H30984   8.291   9.809   4.786 -1.0773 -0.4230 -1.3090
  230MOL0     H30985   8.174   9.981   4.872 -0.0790 -1.8090 -0.2679
  230MOL0     H30986   8.051   9.907   4.984 -1.2854  1.0342 -0.1381
  230MOL0     H30987   8.133  10.057   5.164  0.1841  0.7678  0.0823
  230MOL0     H30988   8.044  10.146   5.033 -0.4536 -0.3237  1.7478
  230MOL0     H30989   8.232  10.257   4.986 -0.3026  0.7710  1.1854
  230MOL0     H30990   8.347  10.127   5.029 -0.3768 -0.3294  0.6048
  230MOL0     H30991   8.200  10.329   5.199  1.9127  2.4791  0.3521
  230MOL0     H30992   8.284  10.202   5.283 -2.4125  2.3912  1.2990
  230MOL0     H30993   8.427  10.400   5.268  0.2671  0.7463 -1.2398
  230MOL0     H30994   8.505  10.264   5.207 -0.8518  0.2092  1.8140
  230MOL0     H30995   8.487  10.349   4.984 -0.3069 -0.1043  1.2550
  230MOL0     H30996   8.345  10.442   5.009  0.8232 -1.1186 -3.5738
  230MOL0     H30997   8.631  10.504   5.106 -1.0465 -0.7088  2.7953
  230MOL0     H30998   8.496  10.604   5.163 -2.2577  2.8616 -2.4083
  230MOL0     H30999   8.448  10.668   4.922  0.8071  1.1246 -2.7237
  230MOL0     H31000   8.623  10.701   4.984 -0.9719 -0.6625  3.0273
  230MOL0     H31001   8.411  10.487   4.735 -0.8115 -1.5185  0.8226
  230MOL0     H31002   8.534  10.418   4.467 -0.5535  0.3155  0.3758
  230MOL0     H31003   8.664  10.312   4.495  3.6507  2.9153  3.3946
  230MOL0     H31004   8.368  10.286   4.544  2.1186  1.5220 -1.1710
  230MOL0     H31005   8.476  10.173   4.463 -0.9521  0.4317 -0.6774
  230MOL0     H31006   8.399  10.063   4.675  2.4799 -0.9416  0.2324
  230MOL0     H31007   8.429  10.219   4.770  0.2850 -1.5034  0.7705
  230MOL0     H31008   8.635  10.074   4.808 -0.4145 -2.2011 -0.4900
  230MOL0     H31009   8.670  10.152   4.660 -1.3456  1.4229  1.0237
  230MOL0     H31010   8.536   9.696   4.708 -0.3092  1.1622  1.5530
  230MOL0     H31011   8.698   9.518   4.768  2.0782 -1.1954 -3.2539
  230MOL0     H31012   9.310   9.598   4.981 -0.4262  0.0330 -0.8540
  230MOL0     H31013   9.462   9.441   5.059  0.0383  0.5776  0.6647
  230MOL0     H31014   9.317   9.026   5.105  0.0150  0.2251 -0.4140
  230MOL0     H31015   9.406   8.988   4.944  3.4303  3.4256 -1.7083
  230MOL0     H31016   9.606   8.971   5.028  0.0036 -1.2863 -0.2189
  230MOL0     H31017   9.555   9.007   5.202  1.6102 -2.1120  0.5217
  230MOL0     H31018   9.584   8.764   5.171  1.3261  1.4966 -0.4320
  230MOL0     H31019   9.420   8.827   5.209  0.5826 -0.0178  0.8461
  230MOL0     H31020   9.539   8.677   4.965  1.0094  0.0842  1.6028
  230MOL0     H31021   9.386   8.770   4.950  0.4573  2.3250  1.3710
  230MOL0     H31022   9.324   8.559   4.991  1.7423  1.1382 -1.0906
  230MOL0     H31023   9.280   8.648   5.129 -1.7732 -2.6667 -1.1407
  230MOL0     H31024   9.516   8.460   5.124  1.5504 -1.3974  4.6724
  230MOL0     H31025   9.490   8.561   5.256 -2.3702  1.3735  0.6686
  230MOL0     H31026   9.267   8.367   5.121 -2.4754  2.7272 -0.0464
  230MOL0     H31027   9.256   8.438   5.277  1.2288 -1.1190  1.9358
  230MOL0     H31028   9.355   8.193   5.277 -0.4482 -0.4831  0.2924
  230MOL0     H31029   9.498   8.266   5.207 -0.2984  0.7348  0.3535
  230MOL0     H31030   9.211   9.125   4.916 -3.7287  0.9326 -2.5200
  230MOL0     H31031   9.062   9.288   4.829 -2.5103  2.7268  1.7659
  230MOL0     H31032   9.004   9.818   4.816  1.5604 -2.8086 -1.7290
  230MOL0     H31033   8.858   9.994   4.743 -1.2039 -0.0691  0.2166
  230MOL0     H31034   8.184   9.654   5.160  1.8098  0.0819  0.3478
  230MOL0     H31035   8.224   9.419   5.089 -3.8956 -0.3013 -1.4848
  230MOL0     H31036   8.556   9.216   4.615  0.6807 -2.0049 -0.8548
  230MOL0     H31037   8.578   8.995   4.503  0.3270  0.2628  1.0931
  230MOL0     H31038   8.429   8.883   4.342 -1.3415  0.5636  1.1179
  230MOL0     H31039   8.364   8.726   4.341 -2.4567  0.4611  2.7189
  230MOL0     H31040   8.660   8.764   4.433  2.1552 -1.4125 -2.0902
  230MOL0     H31041   8.587   8.713   4.277 -0.6167 -1.2427 -0.4524
  230MOL0     H31042   8.578   8.554   4.551  0.6617  0.3432 -0.5967
  230MOL0     H31043   8.645   8.515   4.386  1.1052  1.3244 -1.4783
  230MOL0     H31044   8.432   8.383   4.458  1.4528 -0.7351 -1.7589
  230MOL0     H31045   8.354   8.541   4.485  0.7596 -0.4498  0.3469
  230MOL0     H31046   8.344   8.465   4.060 -1.5382 -2.7857  0.4203
  230MOL0     H31047   8.224   8.871   4.711  0.4889  1.4875  1.9481
  230MOL0     H31048   8.232   9.080   4.978  3.7157 -0.5071 -0.6426
  230MOL0     H31049   8.137   9.176   4.858 -0.5141  0.4450  0.3804
  230MOL0     H31050   8.119   9.000   4.862 -0.0304  0.8250 -0.0334
  231MOL0     O31051   8.097   2.941   6.165  0.7700  0.1531 -0.8188
  231MOL0     C31052   8.111   3.041   6.096 -0.3269  0.5138  0.2871
  231MOL0     O31053   8.048   3.068   5.980 -0.4226  0.5905  0.5947
  231MOL0     C31054   7.923   3.014   5.955 -0.8536 -0.4461  0.1096
  231MOL0     C31055   7.889   2.999   5.823  0.1444  0.0933  0.7880
  231MOL0     C31056   7.762   2.959   5.785 -0.1909  0.2772 -0.3023
  231MOL0     C31057   7.663   2.941   5.887 -0.3581 -0.0819  0.6811
  231MOL0     O31058   7.536   2.899   5.869  0.0380 -0.8176 -0.2560
  231MOL0     C31059   7.499   2.858   5.741 -0.4463 -0.0944  0.0168
  231MOL0     C31060   7.358   2.797   5.744 -0.6247  0.4807  0.1308
  231MOL0     C31061   7.265   2.902   5.795  0.1153  0.4133 -0.2839
  231MOL0     C31062   7.116   2.868   5.765  0.6889  0.2074 -0.3173
  231MOL0     C31063   7.026   2.948   5.864  0.4227  0.2552  0.3369
  231MOL0     C31064   6.881   2.897   5.846 -0.1905  0.2724 -0.3890
  231MOL0     C31065   6.842   2.793   5.946 -0.6165  0.2830 -0.3574
  231MOL0     C31066   6.806   2.856   6.089  0.0340 -0.6711  0.9806
  231MOL0     N31067   6.689   2.938   6.085 -0.0474 -0.3616  0.4457
  231MOL0     C31068   6.559   2.893   6.102 -0.2338 -0.4564 -0.3976
  231MOL0     C31069   6.494   3.012   6.104 -0.3973 -0.0128 -0.0599
  231MOL0     C31070   6.349   3.039   6.136  0.1985 -0.0483  0.3855
  231MOL0     C31071   6.273   3.094   6.015  0.4067 -0.0009 -0.4180
  231MOL0     C31072   6.122   3.113   6.037 -0.0463  0.2029  0.2870
  231MOL0     C31073   6.056   3.175   5.917  0.5139 -0.1035 -0.2245
  231MOL0     O31074   5.912   3.177   5.948 -0.8892 -0.4893  0.0226
  231MOL0     C31075   5.854   3.297   5.977 -0.0789 -0.2223 -0.7212
  231MOL0     C31076   5.765   3.353   5.894  1.1229 -0.4927  0.4133
  231MOL0     C31077   5.713   3.484   5.921 -0.0128  0.5529 -0.5308
  231MOL0     C31078   5.740   3.539   6.043 -0.3436 -0.1528 -1.0385
  231MOL0     C31079   5.662   3.664   6.087 -0.7074  0.0617  0.2039
  231MOL0     O31080   5.718   3.750   6.172 -0.5626  0.6738 -0.5389
  231MOL0     C31081   5.659   3.868   6.187  0.7252  0.0395  0.2398
  231MOL0     C31082   5.549   3.887   6.272  0.2012  0.6491 -0.2373
  231MOL0     C31083   5.499   4.010   6.300 -0.1286 -0.0902 -0.9973
  231MOL0     C31084   5.553   4.122   6.237  0.4062 -0.9498 -0.3053
  231MOL0     O31085   5.520   4.254   6.260 -0.3502 -0.4756  0.8200
  231MOL0     C31086   5.394   4.278   6.307 -0.8180  0.6417 -1.1887
  231MOL0     C31087   5.365   4.413   6.315 -0.5685 -0.5359  0.5772
  231MOL0     C31088   5.430   4.486   6.429  0.6446 -0.6019 -0.7039
  231MOL0     C31089   5.403   4.638   6.431  0.6249  0.2162 -0.5325
  231MOL0     C31090   5.471   4.693   6.555  0.2373  0.6060 -0.6994
  231MOL0     C31091   5.490   4.846   6.542  0.5096 -0.7627 -0.3630
  231MOL0     C31092   5.600   4.898   6.649  0.3719 -0.4282 -0.1816
  231MOL0     C31093   5.631   5.045   6.625  0.3860 -0.7495 -0.5917
  231MOL0    Cl31094   5.736   5.110   6.758  0.4548  0.1147 -0.1401
  231MOL0     C31095   5.659   4.113   6.156  0.0861  0.7656 -0.0924
  231MOL0     C31096   5.716   3.982   6.129  0.2653  0.8560 -0.1760
  231MOL0     O31097   5.557   3.690   6.026 -0.1698 -0.0585 -0.0904
  231MOL0     C31098   5.833   3.483   6.133  0.6477  0.1690  0.2817
  231MOL0     C31099   5.884   3.369   6.097 -0.2718  0.5886  0.4946
  231MOL0     N31100   6.577   3.117   6.071  0.4721  0.2110  0.2112
  231MOL0     N31101   6.697   3.068   6.059 -0.1075  0.1560  0.0885
  231MOL0     C31102   7.701   2.965   6.021 -0.5531  0.0956 -0.6681
  231MOL0     C31103   7.832   3.007   6.054 -0.1517  0.3709 -0.4401
  231MOL0     C31104   8.238   3.121   6.106 -0.3662  1.1924 -0.4610
  231MOL0     C31105   8.237   3.247   6.043 -1.8731  0.0588 -0.5532
  231MOL0     C31106   8.347   3.327   6.046 -0.5374  0.6563  0.0100
  231MOL0     C31107   8.461   3.294   6.109 -0.2437  0.3731 -0.6174
  231MOL0     O31108   8.556   3.392   6.123 -0.0885  0.4408  0.7475
  231MOL0     C31109   8.673   3.382   6.214  0.8432  0.2549  1.2852
  231MOL0     C31110   8.775   3.487   6.177 -0.0252  0.5051 -0.7664
  231MOL0     C31111   8.860   3.438   6.050 -0.1108  0.3689  0.3575
  231MOL0     C31112   8.987   3.516   6.047  0.1218  0.0998 -0.2442
  231MOL0     C31113   9.066   3.488   5.925  0.1956  0.5842 -0.6229
  231MOL0     C31114   9.142   3.465   5.839 -0.5239 -0.5274 -0.3492
  231MOL0     C31115   8.470   3.161   6.165  0.3668 -1.9322  0.9060
  231MOL0     C31116   8.359   3.078   6.164  0.5659  0.3942  1.2376
  231MOL0     C31117   8.387   2.944   6.219  0.0029  0.1227 -1.5246
  231MOL0     H31118   7.960   3.000   5.742 -3.0127  0.7056 -2.2051
  231MOL0     H31119   7.748   2.938   5.680  0.7871  0.1446 -0.4170
  231MOL0     H31120   7.504   2.944   5.673 -1.0684 -1.5920 -2.0222
  231MOL0     H31121   7.563   2.774   5.716 -2.5894 -1.7269 -0.2404
  231MOL0     H31122   7.350   2.710   5.810 -1.6306 -0.5235 -1.2559
  231MOL0     H31123   7.347   2.753   5.644  1.4769  0.4721 -0.1566
  231MOL0     H31124   7.285   3.002   5.755  0.7016  0.4317  0.0442
  231MOL0     H31125   7.279   2.916   5.902 -1.9488  0.9591 -0.0543
  231MOL0     H31126   7.103   2.897   5.661 -0.1790  1.4815  0.1198
  231MOL0     H31127   7.112   2.761   5.789  0.4104  0.9341  3.5090
  231MOL0     H31128   7.063   2.920   5.962  0.0999  1.9185  0.9770
  231MOL0     H31129   7.033   3.057   5.850  0.4771  0.0219 -1.9529
  231MOL0     H31130   6.809   2.978   5.857  0.9928  1.0669  2.4390
  231MOL0     H31131   6.870   2.866   5.742  0.0379  2.6955 -1.2040
  231MOL0     H31132   6.920   2.716   5.950 -0.2810  0.5970 -0.7631
  231MOL0     H31133   6.754   2.753   5.894  0.9185 -1.5654 -1.6910
  231MOL0     H31134   6.790   2.767   6.150 -0.1545 -1.7818 -0.6225
  231MOL0     H31135   6.896   2.911   6.119  0.7562 -1.2705 -0.0168
  231MOL0     H31136   6.518   2.793   6.119  0.6176 -0.7933 -0.2613
  231MOL0     H31137   6.299   2.955   6.184 -0.8849  1.1191  1.3785
  231MOL0     H31138   6.345   3.130   6.196  4.0799  3.7601 -4.2584
  231MOL0     H31139   6.312   3.191   5.983  1.9720  0.5485  2.7366
  231MOL0     H31140   6.277   3.018   5.937 -1.7472 -2.7452  1.8931
  231MOL0     H31141   6.115   3.176   6.126  0.1315  2.6300 -1.2918
  231MOL0     H31142   6.081   3.015   6.059  2.4184 -1.0963 -0.5119
  231MOL0     H31143   6.068   3.127   5.819 -5.7177 -1.3000 -0.8320
  231MOL0     H31144   6.093   3.277   5.906  2.6967 -0.7151  1.0647
  231MOL0     H31145   5.744   3.284   5.814  0.7569  1.3903 -1.1971
  231MOL0     H31146   5.633   3.528   5.862 -0.0001  0.1063 -0.8853
  231MOL0     H31147   5.502   3.797   6.312  0.3661  0.0277 -1.4141
  231MOL0     H31148   5.409   4.019   6.359 -0.1595 -0.8380 -0.9206
  231MOL0     H31149   5.312   4.230   6.253 -1.0823 -0.6785  0.3079
  231MOL0     H31150   5.388   4.244   6.411  0.3730  0.3704 -1.1901
  231MOL0     H31151   5.398   4.453   6.219 -1.4508 -1.6227 -0.1956
  231MOL0     H31152   5.257   4.429   6.318 -0.4273  1.5241 -1.9975
  231MOL0     H31153   5.390   4.450   6.524  1.1102  0.1944 -0.1888
  231MOL0     H31154   5.537   4.461   6.432  0.0954 -3.0528  0.1463
  231MOL0     H31155   5.295   4.652   6.425  0.2419 -2.5843 -2.0420
  231MOL0     H31156   5.454   4.686   6.347  1.2519  1.4940  0.5285
  231MOL0     H31157   5.575   4.659   6.558  0.0589 -0.1885 -2.5458
  231MOL0     H31158   5.416   4.663   6.645 -1.6798  0.2977 -1.9102
  231MOL0     H31159   5.534   4.877   6.447 -0.0076  0.9568 -0.0842
  231MOL0     H31160   5.396   4.902   6.547  0.2234 -1.3085  0.6573
  231MOL0     H31161   5.688   4.833   6.636  1.4960  0.5058  2.0874
  231MOL0     H31162   5.565   4.895   6.753 -0.2015  3.6795 -0.0858
  231MOL0     H31163   5.666   5.065   6.523  0.5088  0.5739 -0.3013
  231MOL0     H31164   5.533   5.091   6.641  0.5971 -0.8163  1.0433
  231MOL0     H31165   5.690   4.201   6.101 -0.1991  2.1772  1.8910
  231MOL0     H31166   5.807   3.965   6.072  1.4566 -1.2027  2.1373
  231MOL0     H31167   5.847   3.517   6.235 -3.9447  2.1444  0.4814
  231MOL0     H31168   5.937   3.321   6.179  0.5747 -4.3086 -2.4683
  231MOL0     H31169   7.629   2.943   6.099 -1.2595 -2.1956 -1.8679
  231MOL0     H31170   7.851   3.036   6.157 -2.1589  3.5096 -0.8256
  231MOL0     H31171   8.146   3.284   5.998 -1.1592 -1.0020 -3.0495
  231MOL0     H31172   8.329   3.433   6.029 -4.0800  0.2133  0.3141
  231MOL0     H31173   8.719   3.283   6.215 -0.0561 -0.3147 -2.0974
  231MOL0     H31174   8.624   3.383   6.312 -1.4575 -3.1162  0.3799
  231MOL0     H31175   8.838   3.500   6.266  0.0687  1.2620 -0.9322
  231MOL0     H31176   8.724   3.582   6.159 -0.9025  0.3020  0.5214
  231MOL0     H31177   8.781   3.455   5.976 -3.3221 -0.7164  3.2723
  231MOL0     H31178   8.882   3.331   6.051 -0.8105  0.2137  0.3462
  231MOL0     H31179   8.976   3.624   6.048  0.2746  0.1151  0.3329
  231MOL0     H31180   9.054   3.493   6.131 -1.5657 -0.8318  0.9191
  231MOL0     H31181   9.210   3.438   5.760  1.2540  2.4878 -0.0028
  231MOL0     H31182   8.561   3.123   6.211  1.4404 -2.2972 -1.4087
  231MOL0     H31183   8.354   2.926   6.322  1.5817 -3.3741 -1.4707
  231MOL0     H31184   8.344   2.857   6.169 -1.7986 -1.0095  1.6750
  231MOL0     H31185   8.494   2.926   6.232 -0.1351  1.5162  3.7451
  232MOL0     O31186   1.937   9.228   0.270 -0.5486 -0.1412 -0.8284
  232MOL0     C31187   1.898   9.108   0.246 -0.0417  0.2634  0.4186
  232MOL0     O31188   1.944   9.001   0.308  0.1480  0.1484 -0.4404
  232MOL0     C31189   2.014   9.017   0.423  0.0856 -0.0902 -0.1347
  232MOL0     C31190   2.125   8.941   0.433  0.4521  0.8926 -0.5326
  232MOL0     C31191   2.198   8.930   0.546 -0.3120 -0.4068 -0.5425
  232MOL0     C31192   2.165   8.997   0.656  0.4757  0.1480 -0.0189
  232MOL0     O31193   2.245   8.983   0.765 -1.0497 -0.2763 -0.0409
  232MOL0     C31194   2.174   9.002   0.890  1.1452 -0.3213 -0.5047
  232MOL0     C31195   2.226   8.921   1.005  0.8375 -0.4366 -0.3956
  232MOL0     C31196   2.349   8.995   1.068 -0.2165  0.1077 -0.1846
  232MOL0     C31197   2.457   9.048   0.967 -0.0172  0.4930 -1.8745
  232MOL0     C31198   2.567   9.140   1.036  0.7270 -0.1806  0.7678
  232MOL0     C31199   2.522   9.279   1.070  0.2006 -0.9744  0.0736
  232MOL0     C31200   2.645   9.383   1.079 -0.7564  0.4478  0.7973
  232MOL0     C31201   2.752   9.362   1.189  0.1306 -0.5743  0.3319
  232MOL0     N31202   2.697   9.350   1.321  0.5569 -0.3440  0.0399
  232MOL0     C31203   2.644   9.234   1.372 -0.5697 -1.0084  0.5050
  232MOL0     C31204   2.562   9.271   1.480 -0.6222 -0.1472  0.5022
  232MOL0     C31205   2.496   9.180   1.572 -0.0285  0.9972  0.2660
  232MOL0     C31206   2.384   9.101   1.488 -1.2599  0.3314  0.0187
  232MOL0     C31207   2.407   8.946   1.494 -0.8852  0.1541 -0.1159
  232MOL0     C31208   2.291   8.869   1.444  1.3027 -0.3950 -0.1804
  232MOL0     O31209   2.170   8.914   1.514  0.0512  0.0679 -0.1026
  232MOL0     C31210   2.052   8.843   1.484 -0.3094  0.1399  0.9624
  232MOL0     C31211   1.929   8.897   1.535  0.3556  0.7540 -0.0998
  232MOL0     C31212   1.806   8.859   1.495  0.9947 -0.4006  0.4995
  232MOL0     C31213   1.796   8.748   1.413  0.4306  1.3417  0.4342
  232MOL0     C31214   1.665   8.695   1.368 -0.0607 -0.3800 -0.5553
  232MOL0     O31215   1.657   8.598   1.271 -0.2461 -0.1915 -0.0408
  232MOL0     C31216   1.524   8.560   1.226 -0.1780  0.4472  0.3497
  232MOL0     C31217   1.402   8.646   1.223  0.2955 -0.6177  0.2398
  232MOL0     C31218   1.295   8.589   1.159  0.5656 -0.4525 -0.0453
  232MOL0     C31219   1.294   8.466   1.096  0.0718 -0.1592 -0.9266
  232MOL0     O31220   1.179   8.423   1.027 -0.5702  0.1576  0.3293
  232MOL0     C31221   1.152   8.278   1.004 -0.4674 -0.7780 -0.3830
  232MOL0     C31222   1.212   8.210   0.875  0.0387 -0.1159 -0.3937
  232MOL0     C31223   1.176   8.282   0.741 -0.2315  0.3418 -0.6826
  232MOL0     C31224   1.038   8.343   0.734 -0.1739 -0.5575  0.6787
  232MOL0     C31225   0.994   8.365   0.584  0.5491  0.0261  0.7841
  232MOL0     C31226   0.894   8.486   0.573 -0.4571 -0.0634  0.9746
  232MOL0     C31227   0.842   8.503   0.431 -0.2865  0.1906  0.5705
  232MOL0     C31228   0.794   8.642   0.401  0.3510 -0.2900  0.4051
  232MOL0    Cl31229   0.631   8.680   0.482 -0.1212 -0.2502  0.1392
  232MOL0     C31230   1.406   8.388   1.111  0.0231  0.3192  0.0350
  232MOL0     C31231   1.525   8.437   1.166  0.5587  0.9497 -0.1177
  232MOL0     O31232   1.578   8.739   1.427  0.7428 -0.6283  0.3830
  232MOL0     C31233   1.911   8.681   1.368 -0.1703  0.2390  0.0666
  232MOL0     C31234   2.040   8.734   1.396  0.4567  0.1597 -0.3499
  232MOL0     N31235   2.581   9.410   1.494 -0.2081 -0.8674 -0.2623
  232MOL0     N31236   2.652   9.459   1.391 -0.3316  0.6265 -0.6106
  232MOL0     C31237   2.056   9.083   0.652  0.3692  0.1411  0.5700
  232MOL0     C31238   1.987   9.104   0.534  0.5444 -0.2385  0.5381
  232MOL0     C31239   1.817   9.088   0.119 -0.3329 -0.3576  0.3416
  232MOL0     C31240   1.770   8.956   0.092 -0.4708  0.2845  0.3844
  232MOL0     C31241   1.693   8.934  -0.013  0.6288 -0.6404 -0.2204
  232MOL0     C31242   1.659   9.029  -0.111 -1.1379  0.2732 -0.1391
  232MOL0     O31243   1.581   8.996  -0.218  0.2661  0.1889 -0.6780
  232MOL0     C31244   1.482   9.083  -0.277 -0.3764 -0.2518 -0.2630
  232MOL0     C31245   1.374   9.107  -0.168 -0.1505  0.3811 -0.0202
  232MOL0     C31246   1.307   8.976  -0.114 -0.9646 -0.0863 -0.0306
  232MOL0     C31247   1.229   8.906  -0.218 -0.9792 -0.0206  0.3018
  232MOL0     C31248   1.164   8.800  -0.153  0.0396  0.8522 -0.6234
  232MOL0     C31249   1.112   8.707  -0.101 -0.6704 -0.5871  1.3515
  232MOL0     C31250   1.696   9.162  -0.087 -1.2442  0.4197  0.5199
  232MOL0     C31251   1.789   9.190   0.017 -0.8498 -0.7609  0.1463
  232MOL0     C31252   1.833   9.324   0.014  0.8715 -0.2147 -0.8557
  232MOL0     H31253   2.161   8.891   0.344 -2.3747 -3.2175  0.3140
  232MOL0     H31254   2.293   8.878   0.544 -0.9499 -1.6688  0.5515
  232MOL0     H31255   2.169   9.102   0.934  4.1666 -1.9733  4.5171
  232MOL0     H31256   2.074   8.959   0.878  1.3427 -1.0328  0.3422
  232MOL0     H31257   2.243   8.818   0.975  3.8606 -0.5180  1.1984
  232MOL0     H31258   2.152   8.917   1.085  2.0462  1.3706  0.9040
  232MOL0     H31259   2.396   8.932   1.144 -1.5078  2.1466  2.4370
  232MOL0     H31260   2.317   9.084   1.121  0.7906  0.4491 -0.1206
  232MOL0     H31261   2.506   8.966   0.914 -2.6281 -2.4344 -0.0908
  232MOL0     H31262   2.410   9.111   0.891 -0.5129 -1.4845 -3.2809
  232MOL0     H31263   2.595   9.084   1.126  0.3033 -0.9211  0.4445
  232MOL0     H31264   2.656   9.145   0.972 -0.2360  1.1223 -0.5343
  232MOL0     H31265   2.468   9.332   0.992 -0.5124 -2.1297 -0.2359
  232MOL0     H31266   2.457   9.274   1.158  1.4198 -1.8624  0.9565
  232MOL0     H31267   2.602   9.483   1.093 -0.6436  0.4579  1.0861
  232MOL0     H31268   2.688   9.395   0.979 -0.3286  4.3563  1.2778
  232MOL0     H31269   2.815   9.276   1.165  0.1730 -0.3739 -0.2869
  232MOL0     H31270   2.819   9.448   1.192  2.0107 -1.9745  0.1381
  232MOL0     H31271   2.657   9.131   1.338  1.7762 -0.0852 -1.7602
  232MOL0     H31272   2.573   9.120   1.623  0.9264  4.1534  2.8532
  232MOL0     H31273   2.439   9.236   1.646  0.2644  3.3090 -1.1427
  232MOL0     H31274   2.284   9.116   1.529 -1.4409 -1.2577  0.2174
  232MOL0     H31275   2.370   9.136   1.385 -1.5436 -0.6049 -0.2684
  232MOL0     H31276   2.425   8.920   1.598  4.2133  3.0787  0.0397
  232MOL0     H31277   2.494   8.922   1.432 -0.6342 -0.2933  0.4048
  232MOL0     H31278   2.304   8.760   1.448 -0.1227 -0.5659  0.5191
  232MOL0     H31279   2.284   8.901   1.340  0.4348  1.5040  0.4187
  232MOL0     H31280   1.942   8.971   1.613 -2.2855  0.7258  0.4630
  232MOL0     H31281   1.714   8.904   1.529  2.0633  1.8370  0.5869
  232MOL0     H31282   1.407   8.752   1.246  0.4303 -0.6738  0.4695
  232MOL0     H31283   1.207   8.651   1.147 -0.6707 -2.2100 -0.5496
  232MOL0     H31284   1.196   8.219   1.085  2.1530 -1.3922 -2.1344
  232MOL0     H31285   1.044   8.264   1.010 -0.2135 -2.6474  0.5336
  232MOL0     H31286   1.319   8.199   0.890  0.0101 -2.5723 -1.5255
  232MOL0     H31287   1.162   8.113   0.865 -2.0736  1.0663 -2.5176
  232MOL0     H31288   1.239   8.371   0.732  0.4707 -0.0900 -0.1862
  232MOL0     H31289   1.188   8.219   0.653 -0.5450  1.8572 -1.8497
  232MOL0     H31290   1.043   8.438   0.787  0.6652  0.2927 -0.8431
  232MOL0     H31291   0.953   8.284   0.770 -1.5429  1.1397  0.3307
  232MOL0     H31292   0.945   8.274   0.549  2.3245 -0.8274  0.4047
  232MOL0     H31293   1.082   8.372   0.519 -0.7905 -1.1130 -1.2698
  232MOL0     H31294   0.810   8.470   0.642 -0.9909  1.1304  0.6327
  232MOL0     H31295   0.953   8.574   0.600  0.9096 -1.1780  1.7440
  232MOL0     H31296   0.756   8.436   0.425 -0.8133  0.9549 -0.7492
  232MOL0     H31297   0.911   8.481   0.350 -1.5586  0.4806 -0.6359
  232MOL0     H31298   0.878   8.711   0.405  0.8278 -0.7516 -1.1047
  232MOL0     H31299   0.768   8.657   0.296 -0.5716  2.0384  0.9066
  232MOL0     H31300   1.412   8.296   1.054 -2.0001  0.4682 -0.5033
  232MOL0     H31301   1.609   8.369   1.156 -3.3529 -5.0279  1.8221
  232MOL0     H31302   1.908   8.591   1.306  2.2490 -0.9181  1.4949
  232MOL0     H31303   2.122   8.686   1.343 -1.1482  1.4410 -4.4430
  232MOL0     H31304   2.027   9.160   0.723 -3.4084 -0.1686 -0.4723
  232MOL0     H31305   1.908   9.177   0.550  0.8628 -0.1729  2.0131
  232MOL0     H31306   1.789   8.866   0.149 -1.8678 -0.8056 -0.7883
  232MOL0     H31307   1.646   8.840  -0.042  2.8221 -2.3797  1.5539
  232MOL0     H31308   1.431   9.038  -0.363 -0.0775 -1.7415  0.2925
  232MOL0     H31309   1.519   9.181  -0.307 -0.9673  0.7971  2.2017
  232MOL0     H31310   1.295   9.172  -0.205  0.8206  0.5129 -2.0220
  232MOL0     H31311   1.414   9.159  -0.081 -2.1759  0.3769  0.9632
  232MOL0     H31312   1.260   8.992  -0.017 -0.6279  0.7092  0.0109
  232MOL0     H31313   1.388   8.904  -0.094 -1.3378  0.0801  2.3398
  232MOL0     H31314   1.151   8.979  -0.244 -0.3091  0.6084  0.0177
  232MOL0     H31315   1.286   8.864  -0.300 -0.1742  2.3583 -0.4506
  232MOL0     H31316   1.076   8.613  -0.064  2.6667 -3.1720 -1.2662
  232MOL0     H31317   1.664   9.241  -0.154 -0.7248  1.6817  1.6960
  232MOL0     H31318   1.821   9.382  -0.078  3.8233 -0.8689 -1.7540
  232MOL0     H31319   1.780   9.379   0.092 -1.6685 -3.1295 -0.3401
  232MOL0     H31320   1.942   9.321   0.026  0.9565  2.5220 -0.1394
  233MOL0     O31321   1.199   9.776   6.747  0.1662 -0.7858  0.1810
  233MOL0     C31322   1.226   9.662   6.727  0.6546 -0.4204 -0.3617
  233MOL0     O31323   1.343   9.605   6.770  0.2489 -0.1840  0.3798
  233MOL0     C31324   1.419   9.696   6.839 -0.6467 -0.3175  0.3798
  233MOL0     C31325   1.373   9.758   6.958  0.7190 -0.5622  0.4278
  233MOL0     C31326   1.462   9.834   7.039  0.5356 -0.3567  0.1611
  233MOL0     C31327   1.586   9.889   6.984 -0.3045  0.2274  0.0499
  233MOL0     O31328   1.671   9.954   7.067  0.2177 -0.2612  0.2930
  233MOL0     C31329   1.816   9.964   7.056 -0.1574 -0.2732  0.0710
  233MOL0     C31330   1.861  10.089   7.126 -0.4488 -0.6674 -1.0810
  233MOL0     C31331   1.821  10.215   7.049  0.3172  0.9041 -0.2715
  233MOL0     C31332   1.889  10.332   7.102 -0.3988 -0.4882 -0.8292
  233MOL0     C31333   1.800  10.453   7.070  0.4789 -0.7277 -0.4603
  233MOL0     C31334   1.887  10.585   7.105  0.5217  1.4180 -0.4315
  233MOL0     C31335   1.794  10.705   7.095 -0.0501 -0.5169  0.5756
  233MOL0     C31336   1.866  10.836   7.128 -0.8577 -0.2600 -0.0338
  233MOL0     N31337   1.775  10.950   7.110  0.6959 -0.4918 -0.2345
  233MOL0     C31338   1.728  11.036   7.207 -0.4190  0.3169  0.1168
  233MOL0     C31339   1.678  11.141   7.137  0.3169 -0.3277  0.1051
  233MOL0     C31340   1.612  11.264   7.190 -0.6836  0.5315 -0.9317
  233MOL0     C31341   1.540  11.340   7.087 -0.2267  0.8081 -0.1034
  233MOL0     C31342   1.457  11.462   7.146  0.0707  0.7253 -0.7737
  233MOL0     C31343   1.545  11.578   7.178 -0.2255  0.0829  0.6929
  233MOL0     O31344   1.473  11.700   7.195  0.4384 -0.0849 -0.5232
  233MOL0     C31345   1.531  11.825   7.223  0.3889  0.5394 -0.0502
  233MOL0     C31346   1.460  11.905   7.316  0.0971  0.5254 -0.2899
  233MOL0     C31347   1.521  12.021   7.361 -0.5429 -1.0837 -0.2674
  233MOL0     C31348   1.641  12.064   7.310  0.1961  0.6319 -0.7204
  233MOL0     C31349   1.690  12.199   7.358  0.9740 -0.6251  0.2888
  233MOL0     O31350   1.626  12.232   7.479 -0.0456 -0.2323 -1.3130
  233MOL0     C31351   1.678  12.339   7.538 -0.8797 -0.1106 -0.4804
  233MOL0     C31352   1.802  12.332   7.604 -0.2879 -0.1425  0.2177
  233MOL0     C31353   1.847  12.444   7.661  0.6876  0.7206 -0.0974
  233MOL0     C31354   1.779  12.558   7.666  0.8005 -0.4581  1.2539
  233MOL0     O31355   1.832  12.655   7.741  0.8337  0.1177 -0.0093
  233MOL0     C31356   1.774  12.785   7.735  0.2934  1.3081 -0.2102
  233MOL0     C31357   1.855  12.872   7.838 -0.7633  0.3025 -1.1336
  233MOL0     C31358   1.993  12.900   7.779  0.0637 -0.1136 -0.0054
  233MOL0     C31359   2.080  12.966   7.894 -0.9001  0.1362  0.3818
  233MOL0     C31360   2.229  12.931   7.868  0.1030 -0.1997 -0.3219
  233MOL0     C31361   2.326  12.973   7.979  0.5909  0.0536  0.2169
  233MOL0     C31362   2.378  13.116   7.970  0.1706 -0.4910  0.3640
  233MOL0     C31363   2.480  13.132   8.093  1.0826 -0.7158  0.3767
  233MOL0    Cl31364   2.644  13.072   8.043 -0.1041  0.1128 -0.4638
  233MOL0     C31365   1.655  12.566   7.597 -0.0181  0.1058  0.2621
  233MOL0     C31366   1.602  12.456   7.534 -0.2749 -0.0707 -0.5159
  233MOL0     O31367   1.782  12.261   7.298  0.2257  0.2651  0.7277
  233MOL0     C31368   1.700  11.993   7.203  0.0716  0.3745  0.3441
  233MOL0     C31369   1.643  11.869   7.169  0.2105 -0.1789  0.4098
  233MOL0     N31370   1.670  11.097   7.005 -0.7033 -0.6976  0.5270
  233MOL0     N31371   1.738  10.996   6.987 -0.5036 -0.3985  0.5349
  233MOL0     C31372   1.620   9.838   6.855 -1.4087  0.1882 -0.0948
  233MOL0     C31373   1.548   9.737   6.786  0.4774 -0.4219  0.2046
  233MOL0     C31374   1.125   9.574   6.655  0.0878 -0.1554 -0.0577
  233MOL0     C31375   1.163   9.445   6.610 -0.3223  0.4137 -0.7024
  233MOL0     C31376   1.073   9.368   6.544  0.2003 -0.3660  0.5440
  233MOL0     C31377   0.938   9.405   6.532 -0.9919 -0.5222 -0.3031
  233MOL0     O31378   0.844   9.336   6.453  0.0370 -0.0970  0.0481
  233MOL0     C31379   0.847   9.187   6.428 -0.2462 -0.7126 -0.3685
  233MOL0     C31380   0.721   9.108   6.480  0.9705  0.4935 -1.2358
  233MOL0     C31381   0.622   9.084   6.364  0.0216  0.2643  0.0267
  233MOL0     C31382   0.570   9.213   6.304  0.0004 -0.3969  0.5810
  233MOL0     C31383   0.455   9.196   6.213  0.6173  0.0285 -0.0331
  233MOL0     C31384   0.375   9.184   6.127  0.2854 -0.2177  0.3820
  233MOL0     C31385   0.902   9.531   6.574  0.2079 -0.3233 -0.5276
  233MOL0     C31386   0.993   9.612   6.635 -0.6469 -0.5378  0.0506
  233MOL0     C31387   0.923   9.729   6.692  0.2204  0.1822  0.4014
  233MOL0     H31388   1.272   9.730   6.984 -0.9261  3.3573 -0.8495
  233MOL0     H31389   1.442   9.858   7.143  1.2777 -0.5624  0.3530
  233MOL0     H31390   1.862   9.875   7.102  0.8829  0.4147  0.4045
  233MOL0     H31391   1.848   9.956   6.952 -4.6178 -0.8998 -1.4534
  233MOL0     H31392   1.970  10.089   7.130 -0.3720  0.6704 -2.4044
  233MOL0     H31393   1.815  10.088   7.225  0.8004  0.1479 -0.4715
  233MOL0     H31394   1.713  10.224   7.065  0.2851 -0.4489  0.3604
  233MOL0     H31395   1.837  10.200   6.941 -3.3030 -2.6837 -0.5729
  233MOL0     H31396   1.912  10.323   7.208  3.7752 -0.4820 -1.5848
  233MOL0     H31397   1.987  10.343   7.056 -0.5769  3.5366 -0.5844
  233MOL0     H31398   1.789  10.448   6.961  1.7714 -1.4548 -0.5837
  233MOL0     H31399   1.706  10.448   7.125  0.9893 -4.1717  0.3434
  233MOL0     H31400   1.922  10.569   7.207  2.2241  0.4543 -1.1246
  233MOL0     H31401   1.965  10.598   7.029 -0.4923 -0.1067 -1.8213
  233MOL0     H31402   1.708  10.694   7.163  0.1453 -1.4673  0.6920
  233MOL0     H31403   1.750  10.715   6.995 -0.4196  0.5670  0.8375
  233MOL0     H31404   1.925  10.842   7.220  2.1775  2.7783 -1.9585
  233MOL0     H31405   1.939  10.868   7.053 -0.6478  1.1557  0.7459
  233MOL0     H31406   1.751  11.036   7.313 -0.5621  0.6645  0.1479
  233MOL0     H31407   1.544  11.228   7.269 -4.2101 -0.3196 -4.0783
  233MOL0     H31408   1.685  11.330   7.239  0.2684 -2.0003  1.3132
  233MOL0     H31409   1.610  11.377   7.012  0.6587 -2.2647 -0.9408
  233MOL0     H31410   1.466  11.278   7.037  0.2209  0.0555  0.1561
  233MOL0     H31411   1.397  11.454   7.237  0.2784 -0.8066 -0.7527
  233MOL0     H31412   1.392  11.497   7.066  1.0243 -1.1607 -2.4705
  233MOL0     H31413   1.626  11.594   7.107  0.3783 -0.0417  1.3310
  233MOL0     H31414   1.604  11.574   7.271  0.6530  1.2896  0.2132
  233MOL0     H31415   1.360  11.874   7.347  0.1972 -0.3672 -0.8227
  233MOL0     H31416   1.479  12.069   7.449  0.6939 -0.6303  0.1000
  233MOL0     H31417   1.854  12.237   7.594 -1.3354 -0.4575 -4.0055
  233MOL0     H31418   1.945  12.442   7.709  1.3891  0.2335 -1.4737
  233MOL0     H31419   1.783  12.825   7.634  0.9481 -0.6307 -0.9649
  233MOL0     H31420   1.670  12.808   7.761  1.2168  4.3751  1.2222
  233MOL0     H31421   1.811  12.972   7.841  0.8309  1.0148 -0.8159
  233MOL0     H31422   1.855  12.824   7.937 -3.4221  1.4623 -0.4751
  233MOL0     H31423   2.033  12.807   7.738  0.4797 -0.2711  0.7344
  233MOL0     H31424   1.975  12.962   7.691 -2.3126 -0.8629 -0.1400
  233MOL0     H31425   2.059  12.924   7.993 -3.0492  0.5070  0.1434
  233MOL0     H31426   2.072  13.075   7.895 -3.6943  0.0195  1.4982
  233MOL0     H31427   2.263  12.972   7.773  1.4300 -0.7690 -0.1173
  233MOL0     H31428   2.240  12.822   7.870  1.8187 -0.1502  3.9943
  233MOL0     H31429   2.280  12.976   8.078  4.1722  1.2157  2.0231
  233MOL0     H31430   2.409  12.902   7.967  0.1143 -0.6427  0.9425
  233MOL0     H31431   2.286  13.173   7.979 -0.1855 -0.5321 -2.2290
  233MOL0     H31432   2.413  13.139   7.869 -0.0547 -0.1398  0.3649
  233MOL0     H31433   2.485  13.234   8.134  0.6480  0.3916 -2.1537
  233MOL0     H31434   2.449  13.071   8.178 -1.5296 -0.0939 -0.0580
  233MOL0     H31435   1.603  12.660   7.591  1.2055  0.8139  0.4843
  233MOL0     H31436   1.503  12.460   7.490  0.2668 -2.3777 -2.1114
  233MOL0     H31437   1.783  12.017   7.137 -1.2282 -2.0835 -2.4033
  233MOL0     H31438   1.686  11.815   7.085  0.1291  0.6958 -0.2092
  233MOL0     H31439   1.723   9.859   6.828 -1.3815  1.1681  0.6974
  233MOL0     H31440   1.581   9.689   6.695  0.5020 -1.5976  0.8086
  233MOL0     H31441   1.260   9.399   6.627  0.5012  2.0407 -0.7636
  233MOL0     H31442   1.111   9.277   6.499  0.5573  0.9246 -1.9246
  233MOL0     H31443   0.935   9.145   6.478  1.5956  3.0399 -0.0967
  233MOL0     H31444   0.869   9.160   6.324  0.9206 -3.0022  0.4052
  233MOL0     H31445   0.664   9.150   6.563 -0.1624 -0.9183 -1.2575
  233MOL0     H31446   0.767   9.013   6.510 -1.0201 -0.0095  0.4778
  233MOL0     H31447   0.531   9.036   6.401  0.7327 -2.4749 -1.4547
  233MOL0     H31448   0.670   9.025   6.285 -0.6013  3.7095 -3.2212
  233MOL0     H31449   0.535   9.283   6.380 -2.1401 -1.0046  0.2358
  233MOL0     H31450   0.648   9.260   6.244  0.0578  0.1722  1.0940
  233MOL0     H31451   0.296   9.167   6.057 -0.1351 -0.2683  0.8558
  233MOL0     H31452   0.796   9.548   6.554  0.1842  0.0402 -0.0907
  233MOL0     H31453   0.907   9.723   6.800  1.7480 -1.2933  0.5863
  233MOL0     H31454   0.977   9.821   6.670  0.1708  0.3032  0.7656
  233MOL0     H31455   0.827   9.757   6.647  0.9193  2.8938  0.4453
  234MOL0     O31456   0.767   1.430   8.917  0.0672 -0.0712  0.4155
  234MOL0     C31457   0.688   1.342   8.879 -0.3115  0.1312 -0.2033
  234MOL0     O31458   0.717   1.214   8.853 -0.3011  0.4311 -0.2446
  234MOL0     C31459   0.834   1.149   8.858 -0.1936 -0.2556 -0.1074
  234MOL0     C31460   0.955   1.214   8.895 -0.7940  0.2064 -0.1344
  234MOL0     C31461   1.070   1.140   8.893  0.4331 -0.8658 -0.1763
  234MOL0     C31462   1.075   1.000   8.872  0.3136 -0.3872 -0.6318
  234MOL0     O31463   1.207   0.952   8.865  0.0925  0.0757  0.3938
  234MOL0     C31464   1.227   0.814   8.829 -0.3803 -0.1575 -0.0873
  234MOL0     C31465   1.239   0.794   8.682 -0.3599 -0.5045 -1.1063
  234MOL0     C31466   1.352   0.707   8.640 -0.4230  0.1266 -0.1264
  234MOL0     C31467   1.355   0.678   8.496  0.5695 -0.9514  0.1527
  234MOL0     C31468   1.476   0.599   8.449 -0.1441  0.0088  0.1224
  234MOL0     C31469   1.455   0.555   8.297  0.2395 -0.1246  0.3003
  234MOL0     C31470   1.576   0.462   8.255  1.2644 -0.1739  0.7147
  234MOL0     C31471   1.566   0.328   8.327 -0.2965 -0.2068 -0.8175
  234MOL0     N31472   1.441   0.250   8.313 -0.4821 -0.9793  0.3728
  234MOL0     C31473   1.392   0.207   8.192  0.0399 -0.1825  0.0787
  234MOL0     C31474   1.276   0.135   8.223 -0.8350 -0.2974 -0.4824
  234MOL0     C31475   1.200   0.057   8.125 -0.3337  0.4015 -0.5491
  234MOL0     C31476   1.063   0.018   8.168  0.1489  1.0449 -0.5015
  234MOL0     C31477   0.981   0.140   8.212 -0.5160 -0.9058  0.6118
  234MOL0     C31478   0.862   0.093   8.290 -0.6966  0.6073 -0.0176
  234MOL0     O31479   0.774   0.194   8.335 -0.6631 -0.1233  0.2835
  234MOL0     C31480   0.698   0.248   8.232  0.6486  0.3917 -0.0211
  234MOL0     C31481   0.651   0.377   8.250  0.6208 -0.0222 -0.4403
  234MOL0     C31482   0.575   0.449   8.165  0.2131  0.1197  0.5343
  234MOL0     C31483   0.534   0.389   8.047 -0.8586  0.8545 -0.7278
  234MOL0     C31484   0.444   0.466   7.948  0.1585  0.1735 -0.1771
  234MOL0     O31485   0.413   0.600   7.980 -0.0736 -0.1951  0.6244
  234MOL0     C31486   0.345   0.671   7.886  0.3455 -0.6775 -0.0717
  234MOL0     C31487   0.212   0.651   7.877 -0.9914  1.2449  0.7183
  234MOL0     C31488   0.132   0.718   7.784  0.3944  0.3001 -0.9658
  234MOL0     C31489   0.174   0.837   7.714 -0.2996  0.3881 -0.2665
  234MOL0     O31490   0.099   0.922   7.639  0.5686  0.1699  0.5333
  234MOL0     C31491  -0.024   0.876   7.583  0.0161 -0.1019  0.0035
  234MOL0     C31492  -0.084   0.990   7.505  0.0184 -0.1775  0.4911
  234MOL0     C31493   0.000   1.014   7.366  0.6919  0.1904  0.1093
  234MOL0     C31494   0.115   1.121   7.400 -0.0520  0.9088  0.0642
  234MOL0     C31495   0.222   1.135   7.291  0.6485  0.2801  0.8364
  234MOL0     C31496   0.324   1.253   7.320  0.4970  0.8091 -0.6200
  234MOL0     C31497   0.425   1.278   7.205 -0.1094 -0.0127 -0.6440
  234MOL0     C31498   0.496   1.410   7.204  0.5687 -0.1267 -0.5332
  234MOL0    Cl31499   0.592   1.399   7.049  0.3231 -0.5319  0.0056
  234MOL0     C31500   0.310   0.864   7.737  0.0932  0.0505 -0.4023
  234MOL0     C31501   0.387   0.791   7.829 -0.2953 -0.6022  0.7144
  234MOL0     O31502   0.403   0.402   7.851  0.7522 -0.3999 -0.1723
  234MOL0     C31503   0.587   0.262   8.014  0.5984 -1.1803  0.1423
  234MOL0     C31504   0.667   0.193   8.112  0.3388  0.1760  0.1981
  234MOL0     N31505   1.271   0.131   8.364 -0.4610  0.5637 -0.1670
  234MOL0     N31506   1.367   0.202   8.416 -0.3755 -0.2685 -0.4681
  234MOL0     C31507   0.957   0.940   8.838 -0.3231 -0.5833 -0.1133
  234MOL0     C31508   0.840   1.006   8.835 -0.5206 -0.9953  0.1179
  234MOL0     C31509   0.543   1.393   8.853 -0.5072  1.1963  0.0974
  234MOL0     C31510   0.449   1.286   8.852  0.7444 -0.7961 -0.4778
  234MOL0     C31511   0.317   1.317   8.841 -0.5764  0.0931  1.0008
  234MOL0     C31512   0.273   1.453   8.836 -0.2872 -0.0382 -0.1765
  234MOL0     O31513   0.144   1.495   8.814 -0.1881  0.0163  1.3125
  234MOL0     C31514   0.041   1.414   8.863  1.0966 -0.6591  0.2194
  234MOL0     C31515  -0.044   1.484   8.966 -0.1882 -0.8417 -0.0676
  234MOL0     C31516  -0.122   1.601   8.908  0.7158  0.9239  0.2186
  234MOL0     C31517  -0.249   1.545   8.835  0.2889  0.0746 -0.0996
  234MOL0     C31518  -0.313   1.662   8.777 -0.4089  0.3536 -0.0659
  234MOL0     C31519  -0.350   1.764   8.725 -0.1927 -0.0576  0.3343
  234MOL0     C31520   0.364   1.560   8.817 -0.7200  0.8256 -0.8197
  234MOL0     C31521   0.502   1.526   8.822 -0.3412  0.8186 -0.1486
  234MOL0     C31522   0.609   1.640   8.802  0.4164  0.2991 -0.3307
  234MOL0     H31523   0.972   1.317   8.924  0.6803 -0.0749  0.0849
  234MOL0     H31524   1.158   1.201   8.911 -1.0104  0.5708  2.7855
  234MOL0     H31525   1.323   0.805   8.880 -0.9926  0.0818  1.1740
  234MOL0     H31526   1.167   0.735   8.875  0.4429 -1.2745 -0.8863
  234MOL0     H31527   1.247   0.898   8.650 -0.3818  0.1643  0.9398
  234MOL0     H31528   1.148   0.744   8.646  0.4767 -0.4325 -3.4942
  234MOL0     H31529   1.364   0.616   8.700 -0.4921  1.4123  1.9412
  234MOL0     H31530   1.442   0.767   8.659  0.5295 -0.7125 -1.7854
  234MOL0     H31531   1.258   0.630   8.477 -1.7255  2.1059  2.9243
  234MOL0     H31532   1.349   0.771   8.440  0.1302 -0.5907  0.7845
  234MOL0     H31533   1.569   0.655   8.461 -0.3584  0.3580  0.1379
  234MOL0     H31534   1.493   0.518   8.520  2.5767 -1.8087 -2.3510
  234MOL0     H31535   1.360   0.500   8.293  0.7566 -1.1494  1.5737
  234MOL0     H31536   1.458   0.642   8.230  0.8818 -0.0411  0.4388
  234MOL0     H31537   1.670   0.516   8.270  2.9618 -2.6160 -0.5290
  234MOL0     H31538   1.556   0.444   8.149 -2.2304 -0.2823  1.2775
  234MOL0     H31539   1.649   0.260   8.307  0.2312  0.3954 -0.7006
  234MOL0     H31540   1.590   0.353   8.431  1.9148 -1.8352 -0.8624
  234MOL0     H31541   1.427   0.226   8.091 -0.2048 -0.7565 -0.1178
  234MOL0     H31542   1.204   0.112   8.030  0.8411  0.1660 -0.6455
  234MOL0     H31543   1.254  -0.036   8.110  0.8830  0.8660  0.7353
  234MOL0     H31544   1.010  -0.036   8.089  1.1868  0.7837 -1.0365
  234MOL0     H31545   1.074  -0.049   8.253  2.3441 -0.4421 -1.8660
  234MOL0     H31546   0.945   0.209   8.135  1.7560  1.2145  1.3208
  234MOL0     H31547   1.042   0.204   8.277 -0.0721 -0.6988 -0.0010
  234MOL0     H31548   0.900   0.051   8.384 -0.5145 -0.4574 -0.5485
  234MOL0     H31549   0.817   0.009   8.236 -1.7332  0.0958  1.5461
  234MOL0     H31550   0.668   0.431   8.342 -0.9044  0.7687 -0.5843
  234MOL0     H31551   0.532   0.546   8.185 -1.0256  0.6926 -3.7924
  234MOL0     H31552   0.161   0.573   7.934  4.6815 -1.8039  2.4012
  234MOL0     H31553   0.025   0.701   7.789 -0.3754  4.3337 -0.4782
  234MOL0     H31554  -0.015   0.798   7.507  2.0003 -0.8828  0.9501
  234MOL0     H31555  -0.095   0.846   7.661  0.9991 -1.5060  0.4059
  234MOL0     H31556  -0.190   0.981   7.478  0.5337  1.4993 -2.6552
  234MOL0     H31557  -0.077   1.084   7.559  1.4591  0.4718 -0.7606
  234MOL0     H31558   0.035   0.926   7.311  1.8283  0.4063  0.4465
  234MOL0     H31559  -0.067   1.068   7.299  1.6083  0.5090 -0.5859
  234MOL0     H31560   0.158   1.108   7.500  0.6769 -0.2085 -0.3796
  234MOL0     H31561   0.069   1.220   7.402 -1.1526  0.4204  2.1179
  234MOL0     H31562   0.177   1.157   7.194 -0.8270 -0.7955  1.2339
  234MOL0     H31563   0.269   1.040   7.264 -0.8879 -0.1303 -0.5757
  234MOL0     H31564   0.263   1.339   7.348 -1.0798 -1.2152  2.8740
  234MOL0     H31565   0.375   1.228   7.414 -2.3687  1.2497  1.1614
  234MOL0     H31566   0.374   1.258   7.110  0.7183  2.7786 -1.7715
  234MOL0     H31567   0.497   1.196   7.214  1.7579  1.6300  0.3201
  234MOL0     H31568   0.439   1.503   7.208  0.5909 -0.0491 -1.7848
  234MOL0     H31569   0.566   1.395   7.287 -0.3303  1.6488  0.6012
  234MOL0     H31570   0.355   0.947   7.683 -0.1136 -0.7597 -1.8797
  234MOL0     H31571   0.490   0.822   7.844 -0.1059  0.7626 -2.5805
  234MOL0     H31572   0.583   0.221   7.914 -0.2014 -1.2535  0.1986
  234MOL0     H31573   0.699   0.096   8.075 -2.5379 -0.5703 -0.6145
  234MOL0     H31574   0.931   0.837   8.817  0.8222 -1.2157  1.4047
  234MOL0     H31575   0.755   0.958   8.789 -0.4848 -0.5964 -0.3761
  234MOL0     H31576   0.489   1.187   8.872  2.4237  0.3824  2.7073
  234MOL0     H31577   0.245   1.236   8.838 -0.3968 -0.0985  1.8229
  234MOL0     H31578   0.082   1.326   8.913  2.4881 -0.5842 -0.7341
  234MOL0     H31579  -0.025   1.385   8.780  0.1095  1.1783  0.3158
  234MOL0     H31580   0.023   1.521   9.044  0.6430 -0.6920 -0.8331
  234MOL0     H31581  -0.105   1.403   9.005 -2.2679  0.8127  0.2563
  234MOL0     H31582  -0.062   1.663   8.840  2.2440  0.5872  1.2102
  234MOL0     H31583  -0.149   1.662   8.995  2.6323  1.0638  0.7533
  234MOL0     H31584  -0.226   1.474   8.756  0.0665 -1.1485  0.8986
  234MOL0     H31585  -0.320   1.506   8.909  0.0656  1.0367  0.2118
  234MOL0     H31586  -0.384   1.849   8.671 -0.3726  0.4589  1.2383
  234MOL0     H31587   0.334   1.663   8.800 -0.4845  1.3848  1.6969
  234MOL0     H31588   0.590   1.696   8.710 -1.6530 -0.4981 -0.4320
  234MOL0     H31589   0.625   1.692   8.897  1.6978 -0.8805  0.1420
  234MOL0     H31590   0.702   1.600   8.761 -0.8361  0.6132 -3.7782
  235MOL0     O31591   6.360   7.476   4.331  0.0094 -0.1846  0.0983
  235MOL0     C31592   6.339   7.576   4.408 -0.0375 -0.3567  0.1835
  235MOL0     O31593   6.279   7.571   4.530  0.2640 -0.2124 -0.4636
  235MOL0     C31594   6.235   7.449   4.586 -0.5128 -0.4787 -0.3653
  235MOL0     C31595   6.097   7.410   4.599  1.0069  1.1303 -0.4594
  235MOL0     C31596   6.068   7.293   4.671 -0.4371 -0.1328  0.3045
  235MOL0     C31597   6.169   7.219   4.731  0.7717  0.0629  0.1470
  235MOL0     O31598   6.127   7.103   4.795  0.0586  1.0912  0.5606
  235MOL0     C31599   6.233   7.026   4.864 -0.0833  0.4430  0.2856
  235MOL0     C31600   6.181   6.888   4.911  0.8742  0.2775 -0.2256
  235MOL0     C31601   6.153   6.770   4.807 -0.1487 -0.5484  0.1325
  235MOL0     C31602   6.023   6.755   4.727 -0.5505  0.0558 -1.5455
  235MOL0     C31603   6.011   6.643   4.634 -1.1052  0.2518 -0.2016
  235MOL0     C31604   5.999   6.507   4.702  0.2887 -0.6772  0.1788
  235MOL0     C31605   5.986   6.383   4.608  0.3007  0.7354 -0.6524
  235MOL0     C31606   6.119   6.305   4.603  0.9275  0.0672  0.1491
  235MOL0     N31607   6.095   6.169   4.541 -0.4509  0.8719  0.3291
  235MOL0     C31608   6.004   6.084   4.586  0.8653 -0.3287 -0.2064
  235MOL0     C31609   6.028   5.967   4.517 -0.4979  0.2588  0.5822
  235MOL0     C31610   5.940   5.849   4.533  0.1829  0.6538  1.1487
  235MOL0     C31611   5.944   5.756   4.407 -0.7960  1.0398  0.6561
  235MOL0     C31612   5.853   5.638   4.412  0.0151 -0.7942 -0.5750
  235MOL0     C31613   5.704   5.668   4.390 -0.3564 -1.0251  0.8022
  235MOL0     O31614   5.679   5.711   4.259  0.2131 -0.8954 -0.5776
  235MOL0     C31615   5.542   5.709   4.222 -0.6215 -0.9270 -0.4176
  235MOL0     C31616   5.431   5.708   4.313 -0.0797  0.5557  0.4976
  235MOL0     C31617   5.302   5.728   4.267 -0.5074  0.0714  0.1102
  235MOL0     C31618   5.270   5.733   4.129  0.0847  0.4418  0.2852
  235MOL0     C31619   5.125   5.724   4.086  0.6994 -0.3254  0.3124
  235MOL0     O31620   5.030   5.732   4.191 -0.3370 -0.0655  0.7413
  235MOL0     C31621   4.899   5.748   4.166  0.5747 -0.0291  0.0896
  235MOL0     C31622   4.817   5.654   4.217 -0.1700  0.3863  1.0879
  235MOL0     C31623   4.676   5.662   4.195  0.3443 -0.5746  0.6463
  235MOL0     C31624   4.617   5.765   4.116 -0.3441 -0.6201 -0.2159
  235MOL0     O31625   4.484   5.773   4.088  0.6704  0.2179  0.0995
  235MOL0     C31626   4.381   5.720   4.179  0.4550  0.1882  0.0949
  235MOL0     C31627   4.245   5.731   4.116  0.7767 -1.3052  0.0544
  235MOL0     C31628   4.131   5.675   4.199 -0.1265 -0.5429  0.5005
  235MOL0     C31629   4.009   5.690   4.105 -0.0806 -0.8682 -0.6115
  235MOL0     C31630   3.889   5.607   4.151  0.0715  0.6333  0.6241
  235MOL0     C31631   3.827   5.680   4.274 -0.1271 -0.1265 -1.3293
  235MOL0     C31632   3.716   5.597   4.354 -0.3958  0.1910  0.4987
  235MOL0     C31633   3.772   5.529   4.480 -0.5272  0.1109 -0.8606
  235MOL0    Cl31634   3.906   5.436   4.435  0.1081  0.4736 -0.4660
  235MOL0     C31635   4.705   5.848   4.053 -0.0087  0.2707  0.2023
  235MOL0     C31636   4.843   5.849   4.076 -0.2627  0.6813 -0.2116
  235MOL0     O31637   5.105   5.731   3.967  0.2556  0.6173 -0.4825
  235MOL0     C31638   5.380   5.707   4.040 -0.4054  0.0664 -0.1380
  235MOL0     C31639   5.514   5.706   4.086  0.7652 -1.1497 -0.4004
  235MOL0     N31640   6.144   5.985   4.450 -0.1218 -0.2954 -0.8012
  235MOL0     N31641   6.192   6.104   4.467  0.6722  0.6137  0.0316
  235MOL0     C31642   6.303   7.264   4.722  0.3648  1.1603 -0.7849
  235MOL0     C31643   6.336   7.375   4.652  0.8262 -0.2910  0.3198
  235MOL0     C31644   6.435   7.692   4.395  0.1585  0.4809  0.1333
  235MOL0     C31645   6.566   7.664   4.362 -0.6850  0.7183 -0.4981
  235MOL0     C31646   6.656   7.770   4.387 -0.4015 -0.5361  0.0286
  235MOL0     C31647   6.624   7.897   4.430 -0.0660 -0.3056 -0.3584
  235MOL0     O31648   6.722   7.990   4.450 -0.3141 -0.5371  0.2253
  235MOL0     C31649   6.741   8.045   4.580 -0.4666 -1.0319  0.6309
  235MOL0     C31650   6.863   8.138   4.593 -0.6893  0.1573  0.1012
  235MOL0     C31651   6.867   8.255   4.502 -0.0463  0.1286  0.2012
  235MOL0     C31652   6.738   8.333   4.507  0.2963 -0.2467  0.1764
  235MOL0     C31653   6.696   8.376   4.649 -0.2432  0.2837  0.2135
  235MOL0     C31654   6.669   8.413   4.764 -0.9080 -0.5598 -0.2536
  235MOL0     C31655   6.489   7.928   4.443 -0.1546 -0.1887 -0.6217
  235MOL0     C31656   6.394   7.823   4.423 -0.5370 -0.0371  0.7386
  235MOL0     C31657   6.244   7.862   4.432 -0.2842  0.6009  0.4025
  235MOL0     H31658   6.021   7.463   4.542  0.5248  0.0413 -0.8416
  235MOL0     H31659   5.973   7.242   4.663  0.5613 -2.0117 -0.1780
  235MOL0     H31660   6.322   7.007   4.803  2.7986  2.9716  3.3053
  235MOL0     H31661   6.269   7.081   4.952  4.5575 -3.2156  1.0368
  235MOL0     H31662   6.085   6.908   4.961 -0.4422 -1.8200 -1.7642
  235MOL0     H31663   6.252   6.851   4.986 -1.1516 -0.7341  1.2896
  235MOL0     H31664   6.186   6.681   4.860  3.3356  2.4474  3.6945
  235MOL0     H31665   6.225   6.779   4.725 -4.8482 -1.6138 -4.6859
  235MOL0     H31666   5.940   6.755   4.798 -0.4946  1.3291 -1.4533
  235MOL0     H31667   6.011   6.850   4.674 -2.8587  0.4081 -0.5340
  235MOL0     H31668   5.919   6.665   4.579 -1.0291  1.8961  0.2584
  235MOL0     H31669   6.092   6.655   4.562  0.0966  4.8601  1.5430
  235MOL0     H31670   6.083   6.486   4.769  0.0361 -1.4449  0.2644
  235MOL0     H31671   5.903   6.510   4.754 -0.6162 -0.0910 -1.4617
  235MOL0     H31672   5.961   6.405   4.504 -1.0903 -0.2376 -0.5483
  235MOL0     H31673   5.901   6.321   4.636  0.9036  1.0048  2.1387
  235MOL0     H31674   6.190   6.375   4.558  0.4567  0.7661  0.4848
  235MOL0     H31675   6.147   6.295   4.708  1.3864 -0.5544 -0.0267
  235MOL0     H31676   5.924   6.104   4.655  0.5584 -0.7871 -0.4204
  235MOL0     H31677   5.968   5.805   4.629  1.4942  2.2249  1.5425
  235MOL0     H31678   5.836   5.883   4.538 -0.1905 -0.5216  1.8355
  235MOL0     H31679   5.902   5.805   4.319 -1.9677  0.1650  0.7038
  235MOL0     H31680   6.050   5.735   4.390 -1.0180  0.6121 -0.3101
  235MOL0     H31681   5.866   5.580   4.504 -1.5402 -1.1028 -0.5143
  235MOL0     H31682   5.887   5.569   4.334  0.1797 -1.4258  0.0388
  235MOL0     H31683   5.677   5.753   4.454  2.2515  0.0077  0.6764
  235MOL0     H31684   5.631   5.589   4.406 -0.2025 -0.7014  3.7022
  235MOL0     H31685   5.452   5.706   4.419  1.6005 -0.3820  0.1733
  235MOL0     H31686   5.229   5.746   4.345  1.9149  0.8579  2.3520
  235MOL0     H31687   4.862   5.575   4.276  0.0006 -0.5029 -0.1802
  235MOL0     H31688   4.606   5.599   4.249  0.4943  0.9274  2.7106
  235MOL0     H31689   4.391   5.615   4.206  2.7786  0.1607 -0.6265
  235MOL0     H31690   4.387   5.774   4.274 -1.3093 -1.2572  1.0791
  235MOL0     H31691   4.226   5.839   4.107  1.8599 -0.6183  3.9095
  235MOL0     H31692   4.241   5.685   4.017  1.1774 -1.9302  0.3252
  235MOL0     H31693   4.151   5.570   4.223 -4.8587 -1.1960  2.7612
  235MOL0     H31694   4.128   5.726   4.296 -2.4653 -0.4381  0.4293
  235MOL0     H31695   4.036   5.650   4.007 -1.1529 -0.9065 -0.8950
  235MOL0     H31696   3.976   5.794   4.091  0.4222 -0.5064  0.7035
  235MOL0     H31697   3.916   5.506   4.182 -0.6882  1.0101  2.6391
  235MOL0     H31698   3.811   5.609   4.074  0.0004  1.5406  0.7121
  235MOL0     H31699   3.902   5.694   4.352 -2.3640  0.6225  0.7990
  235MOL0     H31700   3.785   5.775   4.239 -0.4696  0.8351  1.4774
  235MOL0     H31701   3.667   5.528   4.285 -2.1870  0.7287  1.1552
  235MOL0     H31702   3.649   5.674   4.396 -1.6906 -2.1641  3.0882
  235MOL0     H31703   3.810   5.601   4.552  1.6654 -0.0974 -1.7500
  235MOL0     H31704   3.697   5.465   4.528  1.0035 -1.6215 -0.6826
  235MOL0     H31705   4.660   5.922   3.987 -0.3994  0.6077  0.8376
  235MOL0     H31706   4.908   5.920   4.027 -0.1749  0.3271 -0.6186
  235MOL0     H31707   5.377   5.708   3.931  2.9070  3.3560 -0.4011
  235MOL0     H31708   5.598   5.716   4.018  0.9697  2.7628  0.1464
  235MOL0     H31709   6.392   7.215   4.759 -1.7241 -1.9046  0.5521
  235MOL0     H31710   6.435   7.419   4.647  0.5077  0.3629 -0.6206
  235MOL0     H31711   6.592   7.573   4.310 -0.9123 -0.3749  1.2279
  235MOL0     H31712   6.759   7.746   4.365 -0.8616 -2.2104 -0.4815
  235MOL0     H31713   6.753   7.962   4.650  0.4263  0.4626  2.3389
  235MOL0     H31714   6.649   8.095   4.612 -2.2577 -4.0653  0.6045
  235MOL0     H31715   6.961   8.090   4.587 -0.7472 -0.1267  1.1271
  235MOL0     H31716   6.874   8.175   4.696  1.8481  2.3216 -0.8166
  235MOL0     H31717   6.884   8.233   4.397 -1.5769  1.7504 -0.4438
  235MOL0     H31718   6.947   8.320   4.538 -2.3459  2.1478  2.1128
  235MOL0     H31719   6.760   8.424   4.452  1.0972 -2.2197 -3.0048
  235MOL0     H31720   6.655   8.291   4.451  2.4287 -0.1689 -3.3339
  235MOL0     H31721   6.644   8.444   4.863 -1.2649 -1.0668 -0.1826
  235MOL0     H31722   6.474   8.029   4.480  0.7152 -0.7677  1.4171
  235MOL0     H31723   6.190   7.806   4.355  0.1750 -0.7136  1.0009
  235MOL0     H31724   6.199   7.843   4.530 -0.1487  1.1367  0.5748
  235MOL0     H31725   6.230   7.970   4.425 -1.2447  0.4048 -1.1538
  236MOL0     O31726   7.854   9.595   6.016  0.3184  0.3971 -0.3489
  236MOL0     C31727   7.809   9.697   6.054 -0.9218 -0.1032  0.1238
  236MOL0     O31728   7.819   9.763   6.177 -0.4544  0.1212 -0.8625
  236MOL0     C31729   7.891   9.715   6.285 -0.5642  1.2229 -0.7472
  236MOL0     C31730   7.880   9.775   6.406  0.4882 -0.1239  0.1417
  236MOL0     C31731   7.940   9.728   6.520  0.2546  0.0034 -0.0006
  236MOL0     C31732   8.017   9.608   6.527 -0.2116 -0.5589 -0.2623
  236MOL0     O31733   8.074   9.575   6.646 -0.8647  0.9710  0.2769
  236MOL0     C31734   8.217   9.555   6.626  0.2121  0.6302 -0.2580
  236MOL0     C31735   8.270   9.571   6.772 -0.0523 -0.0986 -0.5738
  236MOL0     C31736   8.418   9.548   6.778  0.1413 -0.3446 -1.2252
  236MOL0     C31737   8.478   9.583   6.920 -0.0967 -0.4737  0.2699
  236MOL0     C31738   8.602   9.506   6.967 -0.6822 -0.1886 -1.0774
  236MOL0     C31739   8.663   9.579   7.085  0.9938 -0.0345  0.2136
  236MOL0     C31740   8.792   9.518   7.140  1.0186 -0.7418  0.2797
  236MOL0     C31741   8.778   9.392   7.217 -0.0003  0.9026  0.5101
  236MOL0     N31742   8.914   9.328   7.239  0.2514  0.1478 -0.5317
  236MOL0     C31743   8.943   9.211   7.182 -0.3024  0.2762  0.0178
  236MOL0     C31744   9.035   9.151   7.262 -0.1115 -0.1876 -0.3836
  236MOL0     C31745   9.113   9.019   7.253 -0.1474  1.1235 -0.5338
  236MOL0     C31746   9.044   8.896   7.319 -0.3667  0.7339  0.3893
  236MOL0     C31747   9.142   8.780   7.344  0.0239  0.0776 -0.5425
  236MOL0     C31748   9.070   8.674   7.431  0.1093  0.2274  0.8585
  236MOL0     O31749   9.086   8.708   7.568 -0.1369  0.1129  0.3656
  236MOL0     C31750   9.056   8.613   7.662  0.1811  0.9507 -0.7248
  236MOL0     C31751   9.112   8.644   7.791  0.5677 -1.1469 -0.3098
  236MOL0     C31752   9.099   8.556   7.895  0.6236 -0.0006 -0.6835
  236MOL0     C31753   9.025   8.441   7.880 -0.8265  0.9294 -0.3367
  236MOL0     C31754   8.994   8.349   8.001 -0.7979 -0.1321  0.3798
  236MOL0     O31755   9.096   8.337   8.095 -0.1903 -0.2718 -0.4028
  236MOL0     C31756   9.081   8.239   8.188  0.4053  0.6117  0.1264
  236MOL0     C31757   8.966   8.238   8.271  0.0340 -0.2833 -0.2543
  236MOL0     C31758   8.954   8.154   8.374 -0.4660 -0.6866 -0.4273
  236MOL0     C31759   9.046   8.063   8.403 -0.7283  1.4229  0.5780
  236MOL0     O31760   9.045   7.984   8.514  0.3291 -0.5186  0.1528
  236MOL0     C31761   8.954   7.875   8.504 -0.6238 -0.2112  0.0664
  236MOL0     C31762   8.846   7.894   8.601  0.0866  1.0832 -0.4004
  236MOL0     C31763   8.875   7.837   8.743 -0.3004 -0.2509 -1.1501
  236MOL0     C31764   8.776   7.880   8.857 -0.4260  0.5847  0.8127
  236MOL0     C31765   8.826   7.832   8.994 -0.5151 -0.4566 -0.4376
  236MOL0     C31766   8.736   7.891   9.104 -1.1188  1.1028 -0.0083
  236MOL0     C31767   8.769   7.837   9.246  0.4386  0.0398 -0.1397
  236MOL0     C31768   8.674   7.882   9.353  0.3693 -0.3821 -0.2935
  236MOL0    Cl31769   8.733   7.823   9.497  0.1893  0.2315 -0.8065
  236MOL0     C31770   9.158   8.050   8.314 -0.0011 -0.4377  1.0756
  236MOL0     C31771   9.169   8.133   8.205 -0.8332  0.9315 -0.4603
  236MOL0     O31772   8.881   8.300   8.003 -0.5485  0.2703  0.7031
  236MOL0     C31773   8.956   8.414   7.764  0.8256  0.9060  0.2505
  236MOL0     C31774   8.969   8.502   7.649  0.7405 -0.3707  0.4078
  236MOL0     N31775   9.056   9.235   7.368  0.5829  0.2438  0.9181
  236MOL0     N31776   8.984   9.339   7.353 -0.3770 -0.2277 -0.3495
  236MOL0     C31777   8.028   9.545   6.401 -0.1376  0.8389  0.0617
  236MOL0     C31778   7.970   9.597   6.288  0.3416  0.1692 -0.3954
  236MOL0     C31779   7.754   9.786   5.955  0.4884 -0.1431 -0.1989
  236MOL0     C31780   7.649   9.881   5.987  0.4110  1.0922 -0.0705
  236MOL0     C31781   7.589   9.957   5.896  0.2954  0.5156 -0.1041
  236MOL0     C31782   7.647   9.973   5.770 -0.6550  1.6009  1.5123
  236MOL0     O31783   7.595  10.060   5.676 -0.0860  0.3727  0.4785
  236MOL0     C31784   7.479  10.139   5.710  0.1620  0.7933 -1.3620
  236MOL0     C31785   7.412  10.233   5.608  0.5232 -0.0842 -1.4568
  236MOL0     C31786   7.505  10.297   5.509 -0.0860 -0.0820 -0.5528
  236MOL0     C31787   7.431  10.371   5.401 -0.1348  0.4458 -0.5639
  236MOL0     C31788   7.493  10.490   5.339  0.2625  0.5125 -0.0357
  236MOL0     C31789   7.566  10.568   5.285 -0.2070  0.7716  0.4432
  236MOL0     C31790   7.765   9.895   5.743 -1.4121  0.5280 -0.1510
  236MOL0     C31791   7.819   9.798   5.830 -0.3825 -0.2209 -0.3300
  236MOL0     C31792   7.953   9.747   5.811  0.4575  0.5982 -0.2031
  236MOL0     H31793   7.823   9.868   6.412  1.5281  0.6799 -1.6138
  236MOL0     H31794   7.927   9.798   6.601 -0.8912  0.3506 -0.4720
  236MOL0     H31795   8.240   9.453   6.592  4.6868  2.3205 -3.1164
  236MOL0     H31796   8.262   9.622   6.553  0.3902 -0.3097 -1.0313
  236MOL0     H31797   8.223   9.494   6.835 -1.5022 -0.1835 -1.7136
  236MOL0     H31798   8.230   9.663   6.815 -0.7194 -0.0268 -1.3431
  236MOL0     H31799   8.460   9.607   6.696 -3.0486  1.2757 -1.8333
  236MOL0     H31800   8.445   9.442   6.770  2.4029  0.1191 -0.4783
  236MOL0     H31801   8.502   9.690   6.914 -2.8325  0.1657 -0.8666
  236MOL0     H31802   8.400   9.573   6.995 -0.0630  0.4636  0.4439
  236MOL0     H31803   8.576   9.405   7.002  0.6640  0.0548  0.8390
  236MOL0     H31804   8.676   9.508   6.887  2.1059  0.1052  1.3232
  236MOL0     H31805   8.699   9.678   7.058  2.8023 -0.3929  1.1214
  236MOL0     H31806   8.587   9.582   7.164  0.0367  1.0765 -0.7134
  236MOL0     H31807   8.825   9.585   7.220  0.7655 -0.8528  0.4791
  236MOL0     H31808   8.865   9.512   7.059  2.2707 -0.4920  1.3492
  236MOL0     H31809   8.746   9.423   7.317 -1.0415  1.2701  0.0794
  236MOL0     H31810   8.700   9.326   7.177  0.5501 -0.4381  1.5632
  236MOL0     H31811   8.895   9.171   7.093  0.2707  3.0675 -1.6684
  236MOL0     H31812   9.118   9.009   7.144 -0.1942  2.7818 -0.7099
  236MOL0     H31813   9.212   9.032   7.298 -0.0579  0.9610 -0.6828
  236MOL0     H31814   8.997   8.922   7.415  2.4767  0.6360  1.9154
  236MOL0     H31815   8.962   8.869   7.252 -0.7078 -0.6929  1.3467
  236MOL0     H31816   9.226   8.815   7.404 -3.9235  3.8255  3.5401
  236MOL0     H31817   9.173   8.742   7.246  0.9336  0.1502 -0.2999
  236MOL0     H31818   9.134   8.587   7.415 -2.2554 -1.4358 -0.0468
  236MOL0     H31819   8.968   8.664   7.393  0.2469  1.0702  0.2322
  236MOL0     H31820   9.178   8.730   7.798 -0.2289 -0.6548  2.6818
  236MOL0     H31821   9.150   8.583   7.987  2.6769 -1.3680 -1.3469
  236MOL0     H31822   8.887   8.309   8.246  1.4637  1.3299 -0.3292
  236MOL0     H31823   8.861   8.164   8.429  0.9066 -1.6118  2.2567
  236MOL0     H31824   8.910   7.855   8.406  1.4693 -0.7076 -0.8304
  236MOL0     H31825   9.023   7.793   8.527  0.7512  1.1198  0.8595
  236MOL0     H31826   8.827   8.001   8.611  0.8244  1.1021  0.9040
  236MOL0     H31827   8.756   7.848   8.558  1.1673 -1.2956 -0.2267
  236MOL0     H31828   8.872   7.728   8.737 -2.7821 -0.3076  0.0873
  236MOL0     H31829   8.978   7.865   8.770  0.2613 -1.5953 -1.7930
  236MOL0     H31830   8.680   7.830   8.839 -0.8374  0.8296  2.2113
  236MOL0     H31831   8.756   7.987   8.850 -1.5423  0.2934 -1.2933
  236MOL0     H31832   8.928   7.863   9.019 -0.5444  2.3660 -3.1864
  236MOL0     H31833   8.824   7.723   9.004  2.5197 -0.5327  0.5485
  236MOL0     H31834   8.748   8.000   9.107  2.8034  0.8066  0.6222
  236MOL0     H31835   8.639   7.857   9.069 -0.3133 -1.4685  0.0519
  236MOL0     H31836   8.872   7.868   9.265  0.8944 -1.2288 -0.4625
  236MOL0     H31837   8.761   7.729   9.258 -3.1341  0.5089  3.8275
  236MOL0     H31838   8.646   7.988   9.357 -3.3468 -0.8337 -4.9177
  236MOL0     H31839   8.576   7.837   9.334 -0.2997 -0.1274  2.2236
  236MOL0     H31840   9.233   7.976   8.339 -2.3461 -3.0633  0.8797
  236MOL0     H31841   9.259   8.127   8.145 -0.1359 -2.6493  0.6523
  236MOL0     H31842   8.899   8.322   7.752 -0.6236  1.3760  2.9337
  236MOL0     H31843   8.921   8.478   7.554  2.2835 -1.2610 -0.1782
  236MOL0     H31844   8.079   9.449   6.390 -0.5526  0.6483 -0.2157
  236MOL0     H31845   7.995   9.554   6.191  0.0213 -2.8786  0.7958
  236MOL0     H31846   7.593   9.867   6.080 -3.3755  0.9215 -2.1782
  236MOL0     H31847   7.507  10.015   5.936 -4.0017 -3.4443 -2.2546
  236MOL0     H31848   7.508  10.202   5.795 -2.4160 -1.2033  1.2320
  236MOL0     H31849   7.407  10.073   5.759  0.6918  3.1441  3.1695
  236MOL0     H31850   7.363  10.315   5.660  0.8532 -1.3043  0.9187
  236MOL0     H31851   7.340  10.174   5.551 -0.6215 -1.0024  0.8621
  236MOL0     H31852   7.573  10.226   5.460  1.9765  1.2366  0.2519
  236MOL0     H31853   7.580  10.361   5.556  0.6821 -2.0986  1.1642
  236MOL0     H31854   7.413  10.300   5.320 -2.5720  0.2836  0.0507
  236MOL0     H31855   7.333  10.407   5.433 -1.6902 -2.0480 -2.2185
  236MOL0     H31856   7.640  10.633   5.242  0.2989 -0.9567 -1.4114
  236MOL0     H31857   7.810   9.929   5.650 -1.7586  1.6237  0.0734
  236MOL0     H31858   8.014   9.753   5.901 -2.0932 -1.1359  1.8272
  236MOL0     H31859   7.943   9.642   5.783 -1.1130  1.7545 -4.9027
  236MOL0     H31860   8.008   9.783   5.724  0.8546 -1.4894 -0.8829
  237MOL0     O31861   3.777   0.526  11.453 -0.1685  0.7432 -0.1272
  237MOL0     C31862   3.706   0.453  11.380  0.1902  0.2801 -0.2906
  237MOL0     O31863   3.577   0.486  11.336 -0.3295  0.0661 -0.1402
  237MOL0     C31864   3.525   0.600  11.392  0.0902 -0.3225  0.2267
  237MOL0     C31865   3.517   0.631  11.530 -0.4523 -0.5603 -0.2665
  237MOL0     C31866   3.469   0.753  11.574  0.3633  0.0755 -0.3862
  237MOL0     C31867   3.419   0.844  11.485  1.0470 -0.2856  0.2706
  237MOL0     O31868   3.376   0.963  11.533 -0.5739  0.2686  0.1279
  237MOL0     C31869   3.245   1.014  11.495  0.7411 -0.0693 -0.6982
  237MOL0     C31870   3.141   0.969  11.599 -0.1275  0.0422 -0.6395
  237MOL0     C31871   3.009   1.016  11.544 -0.0760  0.0994  0.0194
  237MOL0     C31872   2.901   0.974  11.648 -0.7107  0.2916  0.0358
  237MOL0     C31873   2.761   1.037  11.606 -0.5083 -0.3570 -0.3319
  237MOL0     C31874   2.645   0.959  11.673  0.4921  0.5071  0.9542
  237MOL0     C31875   2.660   0.931  11.820  0.1209  0.2414 -0.0509
  237MOL0     C31876   2.512   0.921  11.879 -0.8112 -0.3985 -0.1623
  237MOL0     N31877   2.531   0.889  12.025  0.1043  0.0946 -0.8482
  237MOL0     C31878   2.533   0.971  12.129  0.2293 -0.5494  0.2844
  237MOL0     C31879   2.565   0.894  12.237  0.3264 -0.2404 -0.3368
  237MOL0     C31880   2.574   0.933  12.383 -0.6655 -0.0919  0.0353
  237MOL0     C31881   2.513   1.063  12.431 -0.5134 -0.4268  0.5526
  237MOL0     C31882   2.564   1.113  12.565 -0.3606  0.6707  0.3963
  237MOL0     C31883   2.456   1.206  12.625  0.8539 -1.1803  0.0970
  237MOL0     O31884   2.492   1.235  12.769 -0.0532  0.2756  0.1592
  237MOL0     C31885   2.422   1.316  12.853  0.9178 -0.5017  0.7355
  237MOL0     C31886   2.484   1.399  12.943  0.5069 -0.4956 -0.9275
  237MOL0     C31887   2.418   1.492  13.028 -0.2838 -0.2188  0.8343
  237MOL0     C31888   2.279   1.501  13.007  1.0892  0.8042 -0.5052
  237MOL0     C31889   2.203   1.593  13.087 -0.4022  0.0492 -0.7093
  237MOL0     O31890   2.272   1.675  13.168 -0.1755  0.2215 -0.0331
  237MOL0     C31891   2.209   1.720  13.286  0.3114 -0.0595  0.5929
  237MOL0     C31892   2.206   1.861  13.296  0.9049  0.1518 -0.0095
  237MOL0     C31893   2.141   1.917  13.404 -0.7843  0.0032  0.1499
  237MOL0     C31894   2.064   1.845  13.488 -0.2921  0.3879  0.1832
  237MOL0     O31895   1.993   1.921  13.579  0.2458  0.1163  0.5227
  237MOL0     C31896   1.965   1.846  13.705  0.3330  0.9514  0.0791
  237MOL0     C31897   1.897   1.933  13.809  0.6562 -0.4183 -1.1032
  237MOL0     C31898   1.981   2.054  13.874  1.0744  0.7959  0.1094
  237MOL0     C31899   1.894   2.124  13.980  0.3385  0.1754 -0.0913
  237MOL0     C31900   1.886   2.058  14.118  0.0629 -0.1425  0.6640
  237MOL0     C31901   1.803   2.146  14.229  0.0201  0.0339  0.0887
  237MOL0     C31902   1.656   2.168  14.195  0.0026 -0.4652 -0.1395
  237MOL0     C31903   1.582   2.219  14.316 -0.0586 -0.5501  0.2623
  237MOL0    Cl31904   1.399   2.220  14.289 -0.2311 -0.1192  0.0680
  237MOL0     C31905   2.067   1.705  13.479 -0.1453  0.8468  0.5975
  237MOL0     C31906   2.143   1.641  13.381 -0.7922 -0.0529 -0.1596
  237MOL0     O31907   2.082   1.595  13.088 -0.0179 -0.3475 -0.3486
  237MOL0     C31908   2.208   1.407  12.923  0.1282  0.1987 -0.5165
  237MOL0     C31909   2.280   1.324  12.834 -0.3760 -0.8703 -1.0715
  237MOL0     N31910   2.584   0.767  12.199  0.4113  1.5007 -0.0188
  237MOL0     N31911   2.555   0.761  12.073  0.1349  1.0370 -0.3765
  237MOL0     C31912   3.411   0.810  11.346 -0.9106  0.1625 -0.1132
  237MOL0     C31913   3.474   0.695  11.301  0.4599 -0.7926  0.3530
  237MOL0     C31914   3.768   0.344  11.299 -0.1332 -0.2694  0.0818
  237MOL0     C31915   3.744   0.333  11.163 -0.0770 -0.3786 -0.1092
  237MOL0     C31916   3.781   0.229  11.085 -0.0983  0.4268  0.8136
  237MOL0     C31917   3.879   0.143  11.142  0.3484 -0.6092  0.1063
  237MOL0     O31918   3.932   0.044  11.064 -0.5718 -0.3079 -0.0505
  237MOL0     C31919   3.911  -0.083  11.101  0.7664  1.2762 -0.2802
  237MOL0     C31920   3.815  -0.150  11.008 -1.3839 -0.0595 -0.6912
  237MOL0     C31921   3.674  -0.091  11.033 -0.4285  0.5165  0.6565
  237MOL0     C31922   3.589  -0.130  11.155 -0.2268  0.0420 -0.3406
  237MOL0     C31923   3.592  -0.277  11.169  0.1960  0.2959  0.2489
  237MOL0     C31924   3.590  -0.400  11.183 -0.2661 -0.0582 -0.8153
  237MOL0     C31925   3.908   0.148  11.280  0.0176  0.1616 -0.1897
  237MOL0     C31926   3.860   0.254  11.353  0.7257 -0.5558 -0.3961
  237MOL0     C31927   3.909   0.257  11.490  0.8311  0.0107 -0.2760
  237MOL0     H31928   3.568   0.554  11.587 -0.4843 -1.4377 -1.3721
  237MOL0     H31929   3.478   0.775  11.680  0.0119  0.7593 -0.4931
  237MOL0     H31930   3.241   1.122  11.480  0.5048 -0.3116 -2.7762
  237MOL0     H31931   3.221   0.970  11.398 -0.0553 -3.3429  0.8452
  237MOL0     H31932   3.156   1.025  11.692 -1.8002 -0.2913 -0.1481
  237MOL0     H31933   3.131   0.861  11.618 -3.6618  0.2209 -0.9242
  237MOL0     H31934   2.990   0.984  11.442 -1.0562 -2.5427  0.9323
  237MOL0     H31935   3.007   1.125  11.551 -0.3705  0.0802  0.2535
  237MOL0     H31936   2.893   0.864  11.648 -1.2252  0.2994 -1.3925
  237MOL0     H31937   2.935   1.002  11.747  1.8205 -2.9700  0.2661
  237MOL0     H31938   2.761   1.141  11.638 -3.1810  0.0744 -1.4781
  237MOL0     H31939   2.751   1.034  11.497  1.4400  3.8086 -0.8192
  237MOL0     H31940   2.561   1.027  11.654  1.1121  1.4921  1.6350
  237MOL0     H31941   2.631   0.860  11.628  0.4468 -0.4521  2.9889
  237MOL0     H31942   2.717   1.013  11.866  3.3293 -2.4812  1.1693
  237MOL0     H31943   2.717   0.838  11.828 -1.6076 -0.8543  0.1756
  237MOL0     H31944   2.458   1.014  11.861  2.3451  1.3702 -1.2357
  237MOL0     H31945   2.463   0.830  11.843  1.6597 -1.6737 -0.5491
  237MOL0     H31946   2.522   1.078  12.115  1.3049 -0.6491 -1.5707
  237MOL0     H31947   2.542   0.855  12.452 -1.4369 -0.5124 -0.7815
  237MOL0     H31948   2.679   0.958  12.405 -0.4824 -0.0900 -0.8161
  237MOL0     H31949   2.529   1.135  12.350  1.3398  0.0606  1.2923
  237MOL0     H31950   2.405   1.048  12.437 -0.5062 -0.2481  1.1732
  237MOL0     H31951   2.663   1.155  12.543  0.2472 -0.8640  0.0796
  237MOL0     H31952   2.592   1.032  12.633  1.4534  0.3215 -0.6924
  237MOL0     H31953   2.361   1.152  12.628 -1.7388  2.6418 -2.9605
  237MOL0     H31954   2.435   1.292  12.561 -1.6529 -0.5242  1.6723
  237MOL0     H31955   2.593   1.397  12.943  0.8286  4.1498  0.7861
  237MOL0     H31956   2.471   1.559  13.095  0.4042  2.2180 -1.9383
  237MOL0     H31957   2.260   1.918  13.221 -0.1499  0.6517 -0.4167
  237MOL0     H31958   2.138   2.026  13.404  1.5475  0.1307 -0.4466
  237MOL0     H31959   1.892   1.767  13.683  0.4499  0.9083 -0.1566
  237MOL0     H31960   2.051   1.793  13.747  0.4733 -1.2024 -2.6673
  237MOL0     H31961   1.821   1.986  13.750  2.0287  2.5646 -0.3716
  237MOL0     H31962   1.853   1.871  13.887  1.2080 -1.8716 -1.8962
  237MOL0     H31963   2.082   2.020  13.898  2.4232  2.9488 -2.0743
  237MOL0     H31964   1.996   2.126  13.792  0.7661  0.7013 -0.0310
  237MOL0     H31965   1.790   2.124  13.947  0.1933  0.7125  0.3654
  237MOL0     H31966   1.919   2.230  13.984  1.4571 -0.1027  1.2323
  237MOL0     H31967   1.987   2.062  14.161 -0.9601 -0.0248  3.2288
  237MOL0     H31968   1.845   1.957  14.110  0.7163 -0.2947 -1.6359
  237MOL0     H31969   1.811   2.092  14.324 -1.6269 -1.5489 -0.6049
  237MOL0     H31970   1.850   2.245  14.229 -0.8209  0.5050 -2.1373
  237MOL0     H31971   1.606   2.075  14.166 -2.3880  1.1240 -1.5171
  237MOL0     H31972   1.637   2.231  14.108 -1.9785  0.5002  0.9271
  237MOL0     H31973   1.605   2.158  14.404 -1.9668 -3.4540 -1.1034
  237MOL0     H31974   1.609   2.323  14.334 -0.8393 -0.7864  3.2474
  237MOL0     H31975   2.001   1.639  13.536  1.2534 -0.7773  0.4164
  237MOL0     H31976   2.152   1.533  13.372 -2.6061 -0.1581 -1.0557
  237MOL0     H31977   2.100   1.414  12.929  0.0076 -1.0521 -0.7557
  237MOL0     H31978   2.226   1.248  12.778 -4.1511  1.3013 -0.7199
  237MOL0     H31979   3.366   0.863  11.262 -3.4817 -2.3278 -0.4782
  237MOL0     H31980   3.468   0.665  11.197  4.7577 -1.2789  0.0862
  237MOL0     H31981   3.681   0.407  11.114 -0.0732 -1.0487 -1.1592
  237MOL0     H31982   3.761   0.231  10.978  1.8269  0.4805  0.4199
  237MOL0     H31983   3.882  -0.097  11.206  4.8218 -0.7979  0.7989
  237MOL0     H31984   4.007  -0.136  11.106  0.4931  0.8057  0.1220
  237MOL0     H31985   3.825  -0.257  11.026  3.1883 -0.0145 -1.6134
  237MOL0     H31986   3.854  -0.140  10.906  4.4944  0.0680  1.1737
  237MOL0     H31987   3.610  -0.124  10.950 -1.4437 -0.1156  1.6773
  237MOL0     H31988   3.682   0.018  11.038  1.2442  0.3972  1.2663
  237MOL0     H31989   3.646  -0.088  11.239  0.3959 -0.0649 -0.7105
  237MOL0     H31990   3.491  -0.083  11.145 -0.0509  0.2277 -1.2553
  237MOL0     H31991   3.571  -0.505  11.195 -1.0290  0.0159 -1.2819
  237MOL0     H31992   3.965   0.069  11.327 -2.0088 -0.5920  1.1293
  237MOL0     H31993   3.830   0.267  11.564  3.3771  0.1803  2.6077
  237MOL0     H31994   3.955   0.167  11.532 -1.3353 -1.2808 -0.5278
  237MOL0     H31995   3.973   0.343  11.511 -0.7257  1.0461  0.4158
  238MOL0     O31996   4.789   1.086  10.762  0.1755 -0.6150  0.2293
  238MOL0     C31997   4.895   1.054  10.814 -0.1114  1.3824 -0.3617
  238MOL0     O31998   4.921   1.076  10.950  0.3004  0.3801 -0.1954
  238MOL0     C31999   4.837   1.145  11.041  0.2146  0.4810  0.1342
  238MOL0     C32000   4.704   1.129  11.047 -0.0306  0.0731 -0.5719
  238MOL0     C32001   4.627   1.205  11.145  0.0842 -0.1233  0.2562
  238MOL0     C32002   4.681   1.301  11.229 -0.5022  0.1059  0.5664
  238MOL0     O32003   4.601   1.368  11.320  0.8295  0.3923  0.6143
  238MOL0     C32004   4.623   1.504  11.345  0.2072  0.4915 -0.6667
  238MOL0     C32005   4.702   1.529  11.475  0.5202  0.4557  1.0906
  238MOL0     C32006   4.621   1.505  11.604 -0.1307  0.8826  0.4987
  238MOL0     C32007   4.708   1.509  11.734 -0.2524  0.4473  0.3822
  238MOL0     C32008   4.627   1.494  11.853 -0.0970 -0.2278  0.3359
  238MOL0     C32009   4.705   1.520  11.977  0.3894  0.3552  0.4021
  238MOL0     C32010   4.615   1.496  12.100 -0.6966 -0.1685 -0.4453
  238MOL0     C32011   4.696   1.485  12.234 -0.3206 -0.0747  0.1840
  238MOL0     N32012   4.599   1.482  12.342 -0.2563  0.8300 -0.7644
  238MOL0     C32013   4.568   1.585  12.425  0.2415 -0.2911 -0.1417
  238MOL0     C32014   4.472   1.527  12.511 -1.3449 -0.6392 -0.0280
  238MOL0     C32015   4.390   1.599  12.614 -0.9252 -0.2254  0.8628
  238MOL0     C32016   4.406   1.526  12.753 -0.5088 -0.6520  0.1682
  238MOL0     C32017   4.358   1.608  12.867  0.0492  0.0138  0.0751
  238MOL0     C32018   4.206   1.622  12.879  0.4832 -0.8357  0.1292
  238MOL0     O32019   4.147   1.624  13.014  0.0706 -0.1196  0.6790
  238MOL0     C32020   4.201   1.709  13.093  0.2706 -0.2822  0.1076
  238MOL0     C32021   4.305   1.667  13.172  0.6210  0.0007  0.7240
  238MOL0     C32022   4.381   1.759  13.246 -0.1142 -0.0037  0.3192
  238MOL0     C32023   4.332   1.886  13.263  0.3297  0.5036  0.7167
  238MOL0     C32024   4.398   1.971  13.364  0.6368  0.9562 -0.5019
  238MOL0     O32025   4.319   2.075  13.412  0.2359 -0.4078 -0.3905
  238MOL0     C32026   4.366   2.157  13.504  0.2440 -0.3356  0.6883
  238MOL0     C32027   4.454   2.262  13.466  0.2956  0.2089 -1.4962
  238MOL0     C32028   4.505   2.338  13.565 -0.5569 -0.9861  0.1200
  238MOL0     C32029   4.487   2.310  13.703  0.5642  0.2971 -0.9384
  238MOL0     O32030   4.557   2.371  13.807 -0.6370 -0.5695 -1.1778
  238MOL0     C32031   4.652   2.474  13.786 -0.1649  0.0864  0.8793
  238MOL0     C32032   4.754   2.497  13.901  0.2885  1.0051  0.3688
  238MOL0     C32033   4.709   2.580  14.020 -0.0175 -0.1478 -0.0521
  238MOL0     C32034   4.823   2.591  14.145  0.1908  0.5194  0.9924
  238MOL0     C32035   4.780   2.700  14.244 -0.0895 -0.2850 -0.6779
  238MOL0     C32036   4.883   2.725  14.352 -0.4348  0.3403  0.1894
  238MOL0     C32037   4.832   2.802  14.475  0.1043 -0.5085  0.3435
  238MOL0     C32038   4.944   2.852  14.559 -0.5096 -0.1094 -0.9512
  238MOL0    Cl32039   5.032   2.712  14.646 -0.3859 -0.5969  0.2544
  238MOL0     C32040   4.403   2.200  13.738 -0.3950  1.3238 -0.1768
  238MOL0     C32041   4.336   2.132  13.634  1.2660 -1.1088  0.5588
  238MOL0     O32042   4.514   1.946  13.394  0.4341 -0.0371 -0.0802
  238MOL0     C32043   4.218   1.929  13.189  1.0190 -0.1352  0.5354
  238MOL0     C32044   4.157   1.840  13.097  0.8122 -0.1011 -0.6206
  238MOL0     N32045   4.473   1.392  12.498 -0.2821  1.3390 -0.2587
  238MOL0     N32046   4.553   1.365  12.398 -0.0990 -0.1049  0.2095
  238MOL0     C32047   4.819   1.311  11.223  0.8787 -0.3200 -0.2651
  238MOL0     C32048   4.900   1.230  11.134  0.2100  0.6506  0.5603
  238MOL0     C32049   4.998   0.988  10.729 -0.0565 -0.2076 -0.8152
  238MOL0     C32050   4.944   0.914  10.615  0.2184 -0.3955 -0.3458
  238MOL0     C32051   5.020   0.846  10.521  0.3325  0.5121 -0.8978
  238MOL0     C32052   5.162   0.848  10.543  0.0046 -0.6641  0.1497
  238MOL0     O32053   5.251   0.783  10.458 -0.8888 -0.5413 -0.1631
  238MOL0     C32054   5.207   0.696  10.352 -0.5962 -0.3259 -0.3866
  238MOL0     C32055   5.166   0.782  10.234  0.0742  0.1072  0.4023
  238MOL0     C32056   5.288   0.857  10.171  0.1358 -0.2167  0.7478
  238MOL0     C32057   5.383   0.770  10.084  0.4800  0.7521 -0.0068
  238MOL0     C32058   5.500   0.851  10.060  0.4940 -0.6423 -0.1085
  238MOL0     C32059   5.590   0.928  10.063 -0.2264  0.7515 -0.3994
  238MOL0     C32060   5.212   0.922  10.646 -1.0126  0.7004  0.2136
  238MOL0     C32061   5.135   1.000  10.738  0.0766  1.3483 -0.7129
  238MOL0     C32062   5.214   1.067  10.848  0.4294 -0.0053  0.5013
  238MOL0     H32063   4.643   1.072  10.978 -2.8601 -0.6036  2.2608
  238MOL0     H32064   4.521   1.186  11.138  0.0536 -0.7562  2.0261
  238MOL0     H32065   4.670   1.545  11.255  1.9809 -0.9577 -0.4638
  238MOL0     H32066   4.527   1.556  11.352  0.6888  1.2422  0.7864
  238MOL0     H32067   4.740   1.631  11.459 -0.6119  0.9449  1.4139
  238MOL0     H32068   4.801   1.482  11.473  1.8378  3.0151 -1.4443
  238MOL0     H32069   4.574   1.409  11.582  0.2526  1.2964 -2.5004
  238MOL0     H32070   4.542   1.580  11.615  0.0873  1.4458 -1.5356
  238MOL0     H32071   4.777   1.425  11.727 -1.1663 -0.2366 -0.9588
  238MOL0     H32072   4.769   1.600  11.739  2.5734 -1.3795  1.4378
  238MOL0     H32073   4.546   1.567  11.841  0.7906  0.3831 -2.9250
  238MOL0     H32074   4.571   1.400  11.849  1.0977 -0.9258 -3.6309
  238MOL0     H32075   4.793   1.456  11.989 -0.8042 -0.8305  5.5515
  238MOL0     H32076   4.738   1.624  11.983 -0.7057  0.7122  0.3745
  238MOL0     H32077   4.563   1.400  12.089  0.3402 -0.9332  0.9675
  238MOL0     H32078   4.542   1.576  12.112  0.7608  0.9098  1.7531
  238MOL0     H32079   4.754   1.393  12.236 -2.2447 -1.5134  4.8090
  238MOL0     H32080   4.762   1.572  12.245 -0.5271  0.7326 -3.6203
  238MOL0     H32081   4.597   1.689  12.414 -0.7081  0.2294  1.8909
  238MOL0     H32082   4.420   1.704  12.623  1.8641 -1.0764  2.9911
  238MOL0     H32083   4.286   1.587  12.582 -0.1968 -1.3716 -1.3137
  238MOL0     H32084   4.356   1.429  12.761  0.1776 -0.8771  2.3954
  238MOL0     H32085   4.509   1.515  12.789 -0.7730  0.8317  1.4914
  238MOL0     H32086   4.395   1.710  12.849  0.7832 -0.5668 -1.9896
  238MOL0     H32087   4.399   1.566  12.959  0.7187 -0.6832 -0.5290
  238MOL0     H32088   4.159   1.539  12.825  0.3042 -2.1779  2.2290
  238MOL0     H32089   4.172   1.709  12.823 -1.7572 -0.1429  2.3598
  238MOL0     H32090   4.333   1.562  13.171 -0.7458 -0.4224 -2.3573
  238MOL0     H32091   4.472   1.728  13.297  0.3093  1.3221  0.3920
  238MOL0     H32092   4.469   2.291  13.362  2.3827  0.9432 -1.0436
  238MOL0     H32093   4.565   2.425  13.539  0.7675 -1.8430  0.1949
  238MOL0     H32094   4.717   2.447  13.702 -2.1841  0.8053 -1.0034
  238MOL0     H32095   4.602   2.570  13.770  2.7154  1.7948  1.3096
  238MOL0     H32096   4.790   2.399  13.935  2.4824  0.2506 -3.5671
  238MOL0     H32097   4.840   2.556  13.868 -0.1083  3.0669  2.6815
  238MOL0     H32098   4.691   2.685  13.992  0.2383  0.4539  1.8969
  238MOL0     H32099   4.610   2.553  14.056 -0.2999  0.2985 -0.4745
  238MOL0     H32100   4.918   2.620  14.099 -0.0520  2.6835  1.7105
  238MOL0     H32101   4.838   2.498  14.201  0.7776 -0.0222 -0.0472
  238MOL0     H32102   4.689   2.670  14.295 -0.2063 -0.1392 -0.7999
  238MOL0     H32103   4.756   2.790  14.186  2.9712  0.3469 -1.1574
  238MOL0     H32104   4.925   2.634  14.396  2.0766  2.3582  2.3053
  238MOL0     H32105   4.963   2.785  14.308 -1.3070  3.6306  2.7249
  238MOL0     H32106   4.768   2.740  14.538  0.5756 -0.5454  0.7967
  238MOL0     H32107   4.773   2.887  14.438 -1.6912 -2.3277 -1.1789
  238MOL0     H32108   5.018   2.904  14.497 -2.4137  2.5243 -1.1601
  238MOL0     H32109   4.901   2.925  14.628  2.1939  1.7327 -1.0391
  238MOL0     H32110   4.379   2.165  13.838 -0.1183 -0.1693 -0.5999
  238MOL0     H32111   4.255   2.070  13.670  1.4169 -0.9511  1.1822
  238MOL0     H32112   4.197   2.035  13.180  2.4155  0.2359  1.3990
  238MOL0     H32113   4.072   1.863  13.032 -0.1852  0.1877  0.7312
  238MOL0     H32114   4.868   1.373  11.298  2.0589 -1.9737  0.4023
  238MOL0     H32115   5.007   1.246  11.125 -0.1231  2.0909 -2.0944
  238MOL0     H32116   4.836   0.907  10.612  0.1090 -0.5872  2.0030
  238MOL0     H32117   4.968   0.801  10.436 -1.4477  1.0739 -0.1592
  238MOL0     H32118   5.127   0.633  10.392  0.0915  1.0121  3.5313
  238MOL0     H32119   5.283   0.629  10.310 -0.9676  0.0858 -1.7759
  238MOL0     H32120   5.096   0.861  10.261 -1.6838 -1.6394  1.1755
  238MOL0     H32121   5.123   0.714  10.160 -1.4318 -1.9168  3.0094
  238MOL0     H32122   5.339   0.911  10.251 -0.5867  1.0606  0.3857
  238MOL0     H32123   5.241   0.931  10.104 -2.2634 -1.6190  0.7639
  238MOL0     H32124   5.412   0.675  10.130 -0.6966 -1.3100 -3.1852
  238MOL0     H32125   5.343   0.734   9.989 -1.7171 -0.3851  1.2843
  238MOL0     H32126   5.689   0.966  10.048  0.5362 -0.0849  2.0206
  238MOL0     H32127   5.319   0.942  10.641 -1.2399  1.6965 -2.7192
  238MOL0     H32128   5.313   1.100  10.815  0.4129 -1.2739 -0.9126
  238MOL0     H32129   5.161   1.153  10.889  0.6571  1.1841 -1.5863
  238MOL0     H32130   5.235   0.994  10.927  2.1337  1.5339  1.5616
  239MOL0     O32131   8.000  10.118   0.830 -0.3729 -0.1509  0.6868
  239MOL0     C32132   7.900  10.050   0.836 -0.3117  0.2950 -0.2561
  239MOL0     O32133   7.904   9.906   0.859 -0.6612  0.5075 -0.1949
  239MOL0     C32134   8.026   9.834   0.823 -0.1735 -0.1243 -0.4185
  239MOL0     C32135   8.122   9.882   0.730 -0.7385  0.0167  0.1500
  239MOL0     C32136   8.224   9.797   0.691  0.2537  0.3744 -0.0623
  239MOL0     C32137   8.253   9.680   0.767  0.6987 -0.2904  0.4612
  239MOL0     O32138   8.368   9.612   0.739  0.5810 -0.3780 -0.0711
  239MOL0     C32139   8.382   9.488   0.812  0.5410 -0.0264  0.4017
  239MOL0     C32140   8.529   9.426   0.789  0.6977 -0.2258 -0.8473
  239MOL0     C32141   8.574   9.415   0.640  0.1772  0.7754  0.3633
  239MOL0     C32142   8.730   9.392   0.623  0.1891 -0.6595 -0.6380
  239MOL0     C32143   8.773   9.408   0.477 -0.1766  0.1517  0.3740
  239MOL0     C32144   8.716   9.306   0.385  0.7059  0.1026 -0.7842
  239MOL0     C32145   8.716   9.334   0.235 -1.1876  0.3695  0.6305
  239MOL0     C32146   8.680   9.206   0.168  0.1668  0.6075 -0.6214
  239MOL0     N32147   8.788   9.110   0.143  0.0361  0.4011 -1.0022
  239MOL0     C32148   8.773   8.981   0.153 -0.7661 -0.8094 -0.2732
  239MOL0     C32149   8.889   8.926   0.120 -0.0292 -0.9310 -0.2662
  239MOL0     C32150   8.921   8.773   0.101  0.5688 -1.0830  0.2582
  239MOL0     C32151   9.073   8.742   0.100 -0.0928 -0.5276 -0.2617
  239MOL0     C32152   9.104   8.611   0.029  1.2338 -0.3458 -0.3547
  239MOL0     C32153   9.249   8.589   0.008 -0.6632 -0.5844  0.7573
  239MOL0     O32154   9.288   8.460  -0.037  0.1291  0.0741 -0.2639
  239MOL0     C32155   9.255   8.433  -0.170  0.0013 -1.1030 -0.6735
  239MOL0     C32156   9.207   8.535  -0.266  0.3270  0.3044 -0.7010
  239MOL0     C32157   9.177   8.493  -0.392 -0.4196 -0.6773  0.0997
  239MOL0     C32158   9.196   8.366  -0.437  0.3695 -0.7692 -1.0674
  239MOL0     C32159   9.155   8.296  -0.563 -0.5237 -1.1784  1.0984
  239MOL0     O32160   9.133   8.165  -0.568  0.3907 -0.3745 -0.2910
  239MOL0     C32161   9.101   8.121  -0.693  0.4975  0.5584  0.0699
  239MOL0     C32162   8.984   8.150  -0.772  0.1426  0.2871 -0.2962
  239MOL0     C32163   8.986   8.132  -0.906  0.9282 -0.4501  1.1273
  239MOL0     C32164   9.084   8.052  -0.971  0.0087  0.0298 -0.3837
  239MOL0     O32165   9.081   7.999  -1.095  0.2467  0.5075  0.2037
  239MOL0     C32166   9.001   8.065  -1.198 -0.4450  0.1800 -0.0575
  239MOL0     C32167   8.930   7.962  -1.278  0.2823  0.7162 -0.1616
  239MOL0     C32168   9.036   7.885  -1.365 -0.0430 -0.1021  0.2432
  239MOL0     C32169   8.961   7.811  -1.481  0.4184  0.1153 -0.1133
  239MOL0     C32170   8.901   7.885  -1.598  0.5160  0.1599  0.0443
  239MOL0     C32171   8.993   7.992  -1.657 -0.3763 -0.2281 -0.3752
  239MOL0     C32172   8.954   8.057  -1.791 -0.5591 -0.0839 -0.6063
  239MOL0     C32173   9.058   8.155  -1.843  0.2059  0.5731 -0.5864
  239MOL0    Cl32174   9.078   8.289  -1.733  0.2303  0.0660  0.0086
  239MOL0     C32175   9.191   8.009  -0.889  0.0025  0.3424 -0.6197
  239MOL0     C32176   9.192   8.039  -0.754 -0.6030  0.2899  0.9155
  239MOL0     O32177   9.152   8.372  -0.660 -0.2168  0.1751  0.0153
  239MOL0     C32178   9.255   8.269  -0.344  0.1827  0.0873 -0.2436
  239MOL0     C32179   9.283   8.307  -0.211  0.2399  1.3018  1.3325
  239MOL0     N32180   8.975   9.042   0.103  0.2792  0.0202  0.0371
  239MOL0     N32181   8.914   9.152   0.123 -1.0579 -0.3912  0.8199
  239MOL0     C32182   8.159   9.640   0.857  0.3278  0.0335 -0.6809
  239MOL0     C32183   8.057   9.721   0.896  0.3902 -0.9881 -0.2341
  239MOL0     C32184   7.773  10.111   0.819 -0.5494 -0.4006 -1.1637
  239MOL0     C32185   7.665  10.037   0.764  0.2074  0.4669 -0.4166
  239MOL0     C32186   7.538  10.099   0.741  0.0842 -0.3729  0.1498
  239MOL0     C32187   7.512  10.233   0.773  0.3697  0.4115 -0.2736
  239MOL0     O32188   7.394  10.290   0.743 -0.5733  0.3103 -0.3435
  239MOL0     C32189   7.292  10.239   0.832  0.0018  0.3601  1.9941
  239MOL0     C32190   7.188  10.339   0.859 -0.3286 -0.4492 -0.0603
  239MOL0     C32191   7.105  10.377   0.729 -0.4881  0.9053  0.2062
  239MOL0     C32192   7.015  10.493   0.763  0.1532 -0.8771  0.3160
  239MOL0     C32193   6.913  10.525   0.663  0.2718  0.4754 -0.6305
  239MOL0     C32194   6.819  10.544   0.583 -0.1438  0.9609 -0.2224
  239MOL0     C32195   7.613  10.303   0.835 -0.8914  0.2473  0.7942
  239MOL0     C32196   7.742  10.247   0.857 -0.0580 -0.3362 -0.2718
  239MOL0     C32197   7.840  10.330   0.933  0.0123 -0.9919 -0.4475
  239MOL0     H32198   8.096   9.971   0.674 -2.5953 -2.1659 -2.7713
  239MOL0     H32199   8.290   9.825   0.609  1.2753  0.5140  0.7842
  239MOL0     H32200   8.374   9.503   0.920 -1.2731  0.0720  0.2746
  239MOL0     H32201   8.303   9.420   0.778 -0.1643 -0.2757  2.3933
  239MOL0     H32202   8.534   9.332   0.845  1.4843 -0.0690 -0.6463
  239MOL0     H32203   8.602   9.491   0.837 -1.0717  1.1588  0.0981
  239MOL0     H32204   8.564   9.512   0.590  2.6406  1.8639  1.8213
  239MOL0     H32205   8.519   9.338   0.584  4.2452 -1.2943 -1.2393
  239MOL0     H32206   8.786   9.472   0.673  1.1547 -0.9250 -1.2656
  239MOL0     H32207   8.770   9.294   0.653  0.9093 -0.6712 -1.5893
  239MOL0     H32208   8.733   9.508   0.459  0.4927  0.6359  1.4741
  239MOL0     H32209   8.881   9.425   0.468 -0.1739 -0.3820 -0.6846
  239MOL0     H32210   8.786   9.222   0.394  1.4523  0.7626 -0.3160
  239MOL0     H32211   8.616   9.274   0.416  0.8909 -1.0269 -1.2977
  239MOL0     H32212   8.819   9.356   0.208 -1.6161 -1.2131 -2.9038
  239MOL0     H32213   8.644   9.415   0.222 -0.2526  1.0398 -0.5141
  239MOL0     H32214   8.597   9.153   0.216  0.5663 -1.0874 -1.6945
  239MOL0     H32215   8.630   9.243   0.077 -0.0833 -1.7148 -1.4866
  239MOL0     H32216   8.682   8.923   0.167 -0.6307 -1.0173 -0.2424
  239MOL0     H32217   8.889   8.714   0.187 -0.7967 -0.5338  0.1549
  239MOL0     H32218   8.867   8.743   0.011 -2.6844 -1.2911  2.1017
  239MOL0     H32219   9.102   8.814   0.023 -2.2130  2.3250  1.4175
  239MOL0     H32220   9.133   8.756   0.190 -3.3708 -2.2573  2.4295
  239MOL0     H32221   9.050   8.605  -0.066 -3.1387 -0.9967  1.9293
  239MOL0     H32222   9.068   8.522   0.081  0.9004 -0.8735 -1.4687
  239MOL0     H32223   9.301   8.606   0.102 -1.5095 -2.1498  1.5629
  239MOL0     H32224   9.290   8.666  -0.058 -1.7585 -1.0924 -0.5712
  239MOL0     H32225   9.184   8.638  -0.244  1.2450  0.2072  0.9222
  239MOL0     H32226   9.128   8.556  -0.465  2.6853  0.2725 -1.3153
  239MOL0     H32227   8.903   8.213  -0.736  1.2901  1.7867 -0.2025
  239MOL0     H32228   8.896   8.165  -0.959  1.9160 -0.0861 -0.3836
  239MOL0     H32229   8.922   8.122  -1.148 -0.7382 -0.6100  0.3886
  239MOL0     H32230   9.059   8.126  -1.268  3.2757 -3.0505 -0.1251
  239MOL0     H32231   8.881   7.888  -1.214  1.1409  0.4605  0.2192
  239MOL0     H32232   8.853   8.013  -1.335 -0.2021 -0.4549 -0.5866
  239MOL0     H32233   9.088   7.969  -1.413  0.2493 -0.1891  0.4068
  239MOL0     H32234   9.114   7.822  -1.322 -0.9503 -0.5789  1.2238
  239MOL0     H32235   8.875   7.753  -1.446 -1.5194  3.1129  0.5221
  239MOL0     H32236   9.040   7.742  -1.512  2.1733  2.0892 -0.2887
  239MOL0     H32237   8.807   7.932  -1.565  2.8432  3.6966  2.4467
  239MOL0     H32238   8.872   7.816  -1.677  0.8372 -3.1856  2.5960
  239MOL0     H32239   9.002   8.075  -1.586 -0.0050 -0.3459 -0.2843
  239MOL0     H32240   9.094   7.951  -1.658 -1.3535 -2.8242 -1.1055
  239MOL0     H32241   8.860   8.114  -1.790  0.6453  2.0547 -1.3983
  239MOL0     H32242   8.936   7.971  -1.856  0.4830 -0.1423 -0.8322
  239MOL0     H32243   9.141   8.090  -1.871  0.3701 -0.9445  2.9278
  239MOL0     H32244   9.028   8.194  -1.941 -1.7810 -1.2575 -0.7750
  239MOL0     H32245   9.278   7.953  -0.922  0.2834 -0.9475  2.0447
  239MOL0     H32246   9.259   8.017  -0.671 -2.7200 -1.6456  2.2424
  239MOL0     H32247   9.273   8.168  -0.379  3.0177 -0.2412  1.8512
  239MOL0     H32248   9.342   8.241  -0.148  2.2172  0.5321 -1.1211
  239MOL0     H32249   8.155   9.549   0.917 -3.5933 -0.0623 -0.8375
  239MOL0     H32250   7.983   9.696   0.971  0.5711  0.7408  0.5706
  239MOL0     H32251   7.673   9.932   0.738 -2.2455 -0.6152  2.5646
  239MOL0     H32252   7.472  10.031   0.688  1.1921 -1.0558 -0.3987
  239MOL0     H32253   7.337  10.212   0.929  1.5563  1.3783  1.5913
  239MOL0     H32254   7.261  10.150   0.778  1.5706  0.3642  1.0336
  239MOL0     H32255   7.230  10.429   0.905 -2.6428  0.1821  0.9502
  239MOL0     H32256   7.117  10.288   0.925 -1.9142  0.9774 -0.5930
  239MOL0     H32257   7.045  10.291   0.698 -1.1615  1.2627  0.5120
  239MOL0     H32258   7.180  10.399   0.652  0.8806 -0.7166  0.9884
  239MOL0     H32259   6.968  10.479   0.861 -2.4989 -1.2463 -0.9139
  239MOL0     H32260   7.085  10.576   0.774  0.0962 -0.6803 -0.7293
  239MOL0     H32261   6.739  10.563   0.514 -0.8487  0.2657  0.3779
  239MOL0     H32262   7.605  10.401   0.882 -0.3195  1.4526 -1.4503
  239MOL0     H32263   7.793  10.427   0.949  1.4317 -0.0789 -1.5876
  239MOL0     H32264   7.869  10.289   1.030 -1.3144 -1.6191 -0.2899
  239MOL0     H32265   7.934  10.347   0.880  0.4332 -0.1191  0.5567
  240MOL0     O32266   8.352   1.154   6.802  1.1714 -0.4499 -0.6007
  240MOL0     C32267   8.395   1.066   6.727  0.2338 -1.0172 -0.4734
  240MOL0     O32268   8.497   0.979   6.760 -0.1410 -0.5967 -0.0039
  240MOL0     C32269   8.559   0.970   6.878  0.3870  0.0226 -0.6272
  240MOL0     C32270   8.577   1.073   6.971 -0.4564  0.2391 -0.1433
  240MOL0     C32271   8.631   1.054   7.101 -0.7229  0.0064  0.4447
  240MOL0     C32272   8.669   0.922   7.138 -0.4928  0.8775 -0.2729
  240MOL0     O32273   8.709   0.894   7.272  0.0213  0.3259  0.5602
  240MOL0     C32274   8.772   0.766   7.300 -0.3429  0.1482 -0.5878
  240MOL0     C32275   8.828   0.752   7.443  0.1128 -0.4690 -0.9738
  240MOL0     C32276   8.732   0.806   7.549  0.3919  0.0303 -0.2248
  240MOL0     C32277   8.785   0.774   7.682 -0.6796  0.3391 -0.5108
  240MOL0     C32278   8.718   0.840   7.802 -0.5580  0.9328  0.1187
  240MOL0     C32279   8.789   0.803   7.933 -0.0698 -0.5359  0.6241
  240MOL0     C32280   8.757   0.668   7.984  0.3404  0.1004 -0.2510
  240MOL0     C32281   8.797   0.635   8.125 -0.0747 -0.3532 -0.1011
  240MOL0     N32282   8.940   0.611   8.146 -0.4464  0.1648  0.6005
  240MOL0     C32283   9.030   0.680   8.215  0.7001  0.3580  0.1901
  240MOL0     C32284   9.144   0.597   8.213 -0.9540 -0.2392 -0.3809
  240MOL0     C32285   9.281   0.623   8.267 -0.3866 -0.8683 -0.1275
  240MOL0     C32286   9.339   0.762   8.202 -0.7022 -0.3259 -0.0847
  240MOL0     C32287   9.482   0.788   8.255  0.7042 -0.1188 -0.5184
  240MOL0     C32288   9.573   0.667   8.235 -0.9974 -1.1380 -0.0267
  240MOL0     O32289   9.584   0.641   8.092  0.3196  0.6225 -0.4035
  240MOL0     C32290   9.660   0.531   8.059 -0.3456  0.2149  1.0200
  240MOL0     C32291   9.649   0.472   7.931  0.6777  0.2032  0.7699
  240MOL0     C32292   9.727   0.354   7.900  0.7770 -0.1734 -0.0421
  240MOL0     C32293   9.802   0.286   7.994  1.0838 -0.0582 -0.0470
  240MOL0     C32294   9.863   0.159   7.960 -0.4311 -0.1816  1.1577
  240MOL0     O32295   9.878   0.137   7.821 -0.3456 -0.6046 -0.1134
  240MOL0     C32296   9.896   0.012   7.789  0.0486  0.3684 -0.8086
  240MOL0     C32297   9.799  -0.081   7.791 -0.1130  0.2916 -0.0362
  240MOL0     C32298   9.823  -0.217   7.777 -0.3640  1.0322  0.8284
  240MOL0     C32299   9.948  -0.269   7.737 -0.0916 -0.2510  0.0190
  240MOL0     O32300   9.955  -0.400   7.720 -0.6685 -1.3784 -0.2852
  240MOL0     C32301  10.084  -0.467   7.701 -0.0231 -0.3662  0.7113
  240MOL0     C32302  10.048  -0.605   7.659 -0.4074  0.2607  0.3985
  240MOL0     C32303  10.177  -0.692   7.626  0.1743  0.2728 -0.0292
  240MOL0     C32304  10.289  -0.633   7.552  0.1559  0.1424  0.5759
  240MOL0     C32305  10.411  -0.717   7.524  0.0442  0.1109 -0.2278
  240MOL0     C32306  10.488  -0.765   7.644 -0.0130  0.6055 -0.7224
  240MOL0     C32307  10.615  -0.836   7.600  0.3696  0.2780  0.4628
  240MOL0     C32308  10.726  -0.812   7.697 -0.0518  0.1060  0.4905
  240MOL0    Cl32309  10.819  -0.666   7.662 -0.3843  0.0783 -0.0048
  240MOL0     C32310  10.048  -0.176   7.730 -0.1952  0.1909  0.4155
  240MOL0     C32311  10.018  -0.048   7.766 -0.6147 -0.1836 -0.1610
  240MOL0     O32312   9.903   0.084   8.042 -0.2982 -0.0789  0.1463
  240MOL0     C32313   9.804   0.345   8.126 -0.1901  0.8770  0.4833
  240MOL0     C32314   9.745   0.472   8.152 -0.5136  0.1455 -1.2443
  240MOL0     N32315   9.115   0.491   8.119 -0.6098  0.3947 -0.2601
  240MOL0     N32316   8.997   0.508   8.080  0.8287 -0.2781  0.7754
  240MOL0     C32317   8.655   0.818   7.043  0.2292  0.0809 -0.4824
  240MOL0     C32318   8.609   0.837   6.909 -0.0992 -0.4275  0.2843
  240MOL0     C32319   8.343   1.063   6.588 -0.9724 -0.7997  0.2046
  240MOL0     C32320   8.408   0.976   6.494  0.0881  0.5758 -0.4231
  240MOL0     C32321   8.366   0.965   6.364  0.4396 -0.1835 -0.0396
  240MOL0     C32322   8.263   1.039   6.311 -0.4803  0.2209  0.0814
  240MOL0     O32323   8.216   1.020   6.185 -0.3565 -0.5933 -0.4639
  240MOL0     C32324   8.292   0.959   6.079 -0.0648  0.6130 -0.5243
  240MOL0     C32325   8.234   0.828   6.032 -0.1510  0.7812  0.3548
  240MOL0     C32326   8.093   0.846   5.977  0.0225 -0.4297 -0.5842
  240MOL0     C32327   8.036   0.736   5.894  0.6276 -0.1874  0.2436
  240MOL0     C32328   8.005   0.623   5.985 -0.2303 -0.1920  0.6191
  240MOL0     C32329   8.002   0.539   6.069 -0.3100 -0.3206 -0.4607
  240MOL0     C32330   8.209   1.130   6.397 -0.8563 -0.3805 -0.0675
  240MOL0     C32331   8.237   1.139   6.532 -0.6733  0.6085 -0.2006
  240MOL0     C32332   8.165   1.240   6.612  0.1734 -0.3679  0.3684
  240MOL0     H32333   8.559   1.173   6.932  3.9177  0.6178 -1.7169
  240MOL0     H32334   8.642   1.144   7.160 -0.4972  0.2636  0.0171
  240MOL0     H32335   8.696   0.688   7.289 -0.5005  0.2329 -0.1186
  240MOL0     H32336   8.855   0.746   7.232 -0.3318 -0.7062 -0.3395
  240MOL0     H32337   8.919   0.812   7.437 -0.0869 -0.1327 -0.6503
  240MOL0     H32338   8.847   0.646   7.464  3.2694 -0.0930 -1.5062
  240MOL0     H32339   8.640   0.749   7.538  0.6893 -0.0812 -2.4846
  240MOL0     H32340   8.716   0.912   7.526 -0.5989 -0.8721 -4.4800
  240MOL0     H32341   8.781   0.665   7.691 -0.1659  0.4594  1.9396
  240MOL0     H32342   8.891   0.804   7.681 -0.2873  0.0876  4.7094
  240MOL0     H32343   8.717   0.947   7.779 -1.6040  1.3498  1.8863
  240MOL0     H32344   8.620   0.792   7.804  0.0038 -0.2257  1.0359
  240MOL0     H32345   8.896   0.819   7.916  0.0848 -0.9187  1.2199
  240MOL0     H32346   8.752   0.864   8.016 -1.0683 -0.2923  0.0197
  240MOL0     H32347   8.803   0.595   7.917 -2.1851 -3.1832  1.3500
  240MOL0     H32348   8.651   0.645   7.969  0.1964  1.2709 -1.1991
  240MOL0     H32349   8.769   0.717   8.191  0.9276 -1.7659  2.1730
  240MOL0     H32350   8.733   0.554   8.161 -1.2845  0.7053  0.2241
  240MOL0     H32351   9.025   0.783   8.250  0.8911  1.5358 -2.9774
  240MOL0     H32352   9.282   0.618   8.376  1.1085  0.3394 -0.0554
  240MOL0     H32353   9.344   0.536   8.245 -1.8160 -2.2325  0.9895
  240MOL0     H32354   9.349   0.738   8.096 -0.6236  0.8751 -0.3664
  240MOL0     H32355   9.272   0.848   8.217 -0.8458 -0.6463  1.2884
  240MOL0     H32356   9.476   0.829   8.356  1.8402  0.0692 -0.5220
  240MOL0     H32357   9.523   0.869   8.194  1.5655 -0.4626 -0.4102
  240MOL0     H32358   9.546   0.582   8.297 -0.6647  0.8666  3.1191
  240MOL0     H32359   9.666   0.694   8.286 -2.2644  0.7393  1.4366
  240MOL0     H32360   9.584   0.513   7.854 -0.3104 -3.4314 -0.5286
  240MOL0     H32361   9.712   0.312   7.801  3.2749  2.5500 -1.7649
  240MOL0     H32362   9.703  -0.042   7.824  0.4701  1.6200  0.1741
  240MOL0     H32363   9.752  -0.299   7.776  0.7287  0.0487 -0.7430
  240MOL0     H32364  10.139  -0.412   7.624 -1.6414 -0.1133 -0.2972
  240MOL0     H32365  10.142  -0.463   7.793  1.1761  2.0788 -0.0767
  240MOL0     H32366   9.989  -0.654   7.738 -1.6220  2.1311  0.7174
  240MOL0     H32367   9.968  -0.599   7.584 -0.6718 -0.8923  0.5785
  240MOL0     H32368  10.217  -0.732   7.720 -0.7588 -0.9787 -0.1349
  240MOL0     H32369  10.142  -0.779   7.569 -0.9532  0.8571 -0.2601
  240MOL0     H32370  10.320  -0.537   7.594 -2.4572 -0.2619  3.8280
  240MOL0     H32371  10.244  -0.609   7.455 -2.9388 -1.6846  1.4146
  240MOL0     H32372  10.484  -0.651   7.477  0.8139  2.0841  3.4320
  240MOL0     H32373  10.378  -0.793   7.452 -1.3172  0.1512  0.3145
  240MOL0     H32374  10.517  -0.679   7.705  0.7165 -0.9717  1.2757
  240MOL0     H32375  10.424  -0.825   7.708  1.6881  3.1183  3.7964
  240MOL0     H32376  10.640  -0.836   7.493 -0.5596  0.2734  0.2321
  240MOL0     H32377  10.590  -0.942   7.611  0.3283  0.4596  2.3642
  240MOL0     H32378  10.673  -0.795   7.791  0.7693 -0.5585  1.0910
  240MOL0     H32379  10.772  -0.911   7.704 -3.9530 -1.9224  0.1186
  240MOL0     H32380  10.149  -0.201   7.698  0.0954  0.3460  1.2022
  240MOL0     H32381  10.086   0.033   7.792  0.2271 -1.7463  2.9319
  240MOL0     H32382   9.846   0.290   8.211  1.1152 -1.2501 -1.4188
  240MOL0     H32383   9.766   0.517   8.249 -0.0748 -0.4870 -1.0381
  240MOL0     H32384   8.677   0.715   7.069 -0.5151  0.1342  0.4018
  240MOL0     H32385   8.598   0.763   6.832  1.2091 -1.3695  0.9636
  240MOL0     H32386   8.474   0.903   6.539  0.8320  3.8406  4.6115
  240MOL0     H32387   8.420   0.890   6.307 -0.2468 -0.0312 -0.9149
  240MOL0     H32388   8.394   0.944   6.116 -0.6575  0.2872  1.0229
  240MOL0     H32389   8.295   1.018   5.987  1.6337  0.5058 -0.5723
  240MOL0     H32390   8.241   0.756   6.114  3.7088 -0.3751 -0.7623
  240MOL0     H32391   8.296   0.789   5.950 -0.6824 -1.4857  0.9661
  240MOL0     H32392   8.072   0.930   5.911  1.9587  1.4055  1.0027
  240MOL0     H32393   8.030   0.874   6.063  0.2024  1.4232 -1.0148
  240MOL0     H32394   7.948   0.780   5.846  0.9530 -1.3033 -1.5114
  240MOL0     H32395   8.098   0.703   5.810 -0.4715 -0.5120 -0.4635
  240MOL0     H32396   7.997   0.457   6.137 -1.4607  0.4718  0.4416
  240MOL0     H32397   8.134   1.193   6.350  1.6610  0.7151 -2.8645
  240MOL0     H32398   8.080   1.275   6.553  0.6952  2.5373  1.1769
  240MOL0     H32399   8.133   1.195   6.707 -2.2483 -3.4236 -1.6888
  240MOL0     H32400   8.220   1.330   6.641 -0.1650  0.1226 -0.4697
  241MOL0     O32401   0.312   5.956   7.805  0.0146  0.0137  0.5589
  241MOL0     C32402   0.367   5.862   7.858  0.6251  1.0747 -0.3404
  241MOL0     O32403   0.470   5.789   7.803  0.8090 -0.0703 -0.4111
  241MOL0     C32404   0.471   5.780   7.672  0.6692  0.8176 -0.7840
  241MOL0     C32405   0.349   5.761   7.592 -0.7011  0.0892  0.2932
  241MOL0     C32406   0.371   5.742   7.458  0.9303 -0.4667 -0.2810
  241MOL0     C32407   0.500   5.723   7.401  0.7120 -0.3096  0.5542
  241MOL0     O32408   0.532   5.689   7.278 -0.0236  0.1506  0.1110
  241MOL0     C32409   0.425   5.684   7.188  0.5523  0.1484  0.2837
  241MOL0     C32410   0.484   5.678   7.052 -0.5416 -0.8075  0.4812
  241MOL0     C32411   0.534   5.825   7.004  0.2616 -0.4482  0.1518
  241MOL0     C32412   0.594   5.820   6.868 -0.0565  0.2550  0.0410
  241MOL0     C32413   0.669   5.950   6.847 -0.2030  0.0648 -0.0699
  241MOL0     C32414   0.733   5.971   6.700 -1.1569  0.2151 -0.9791
  241MOL0     C32415   0.846   5.860   6.673  0.0695  0.3502  0.9226
  241MOL0     C32416   0.928   5.885   6.558 -1.1512  0.2508  0.3818
  241MOL0     N32417   1.036   5.780   6.541  0.0023 -0.1608  0.4928
  241MOL0     C32418   1.085   5.715   6.424 -0.0442 -0.2361  0.4519
  241MOL0     C32419   1.183   5.634   6.464 -0.4566  0.4096 -0.2556
  241MOL0     C32420   1.265   5.544   6.378 -1.0250  0.4592  0.4786
  241MOL0     C32421   1.181   5.420   6.350  0.1803  0.2248  0.5863
  241MOL0     C32422   1.159   5.332   6.474  0.1350 -0.2641  0.4991
  241MOL0     C32423   1.013   5.346   6.527 -1.1764 -0.0798 -0.1347
  241MOL0     O32424   1.001   5.239   6.634  1.2425 -0.4090  0.6349
  241MOL0     C32425   0.944   5.296   6.750 -0.0696  0.9124 -0.0804
  241MOL0     C32426   0.977   5.412   6.812  0.4474 -0.3700 -1.3744
  241MOL0     C32427   0.909   5.445   6.934  0.6466  0.2772 -0.3472
  241MOL0     C32428   0.821   5.355   7.004  0.2329 -0.9121 -0.4523
  241MOL0     C32429   0.780   5.363   7.152  0.9405  0.0059 -0.5286
  241MOL0     O32430   0.695   5.266   7.198 -0.0873  0.4506 -0.3011
  241MOL0     C32431   0.668   5.269   7.332 -0.8080  0.0890 -1.1013
  241MOL0     C32432   0.716   5.176   7.422 -0.3358 -1.0934  0.4148
  241MOL0     C32433   0.685   5.190   7.562 -0.8425 -0.3713  0.0798
  241MOL0     C32434   0.589   5.287   7.604  0.0379  0.1719  0.0357
  241MOL0     O32435   0.560   5.301   7.743  0.1212 -0.7127  0.6280
  241MOL0     C32436   0.446   5.385   7.782  0.6625  0.2864  0.0190
  241MOL0     C32437   0.399   5.349   7.921 -0.5326 -0.3703 -0.1809
  241MOL0     C32438   0.294   5.437   7.970 -0.3900  0.1442 -0.3035
  241MOL0     C32439   0.218   5.375   8.086 -0.7885  0.2802  0.0140
  241MOL0     C32440   0.098   5.461   8.122  0.2694  0.0899 -0.0907
  241MOL0     C32441  -0.021   5.449   8.028  0.0051  0.2122 -0.8928
  241MOL0     C32442  -0.151   5.512   8.079 -0.0070  0.5938  0.0141
  241MOL0     C32443  -0.209   5.429   8.198  0.1080 -0.3863  0.0988
  241MOL0    Cl32444  -0.287   5.289   8.132 -0.2116 -0.1211  0.0566
  241MOL0     C32445   0.532   5.371   7.512 -0.2352  0.8453  0.5631
  241MOL0     C32446   0.579   5.367   7.382 -0.0206  0.8084  0.4026
  241MOL0     O32447   0.829   5.454   7.221  0.4147  1.0308  0.9550
  241MOL0     C32448   0.785   5.235   6.935  0.3463 -0.8412 -0.1014
  241MOL0     C32449   0.854   5.210   6.812  0.3780  0.2161 -0.9027
  241MOL0     N32450   1.197   5.657   6.604  0.3406 -0.3953  0.7370
  241MOL0     N32451   1.125   5.753   6.638  1.4225  0.0608 -0.4111
  241MOL0     C32452   0.611   5.726   7.479  0.5619 -0.4782  0.2471
  241MOL0     C32453   0.598   5.744   7.618  0.0138  1.4021  0.1982
  241MOL0     C32454   0.325   5.852   7.996 -0.6860  0.1123 -0.3560
  241MOL0     C32455   0.426   5.835   8.097  0.2595 -0.1041 -0.5624
  241MOL0     C32456   0.395   5.832   8.233  0.4709  0.2841 -0.1801
  241MOL0     C32457   0.261   5.853   8.276  0.1091 -0.6860 -0.2504
  241MOL0     O32458   0.250   5.845   8.411  0.9291 -0.0663  0.4005
  241MOL0     C32459   0.133   5.875   8.479 -0.4854 -0.0587  0.6542
  241MOL0     C32460   0.071   5.762   8.565  0.0181 -0.4501  1.0359
  241MOL0     C32461   0.039   5.642   8.473 -0.0039  0.3465  0.0487
  241MOL0     C32462   0.002   5.520   8.544  1.0833  0.7711  0.2504
  241MOL0     C32463   0.113   5.463   8.617 -0.6421  0.8772  0.8450
  241MOL0     C32464   0.208   5.413   8.662 -0.3784 -0.3807  0.2640
  241MOL0     C32465   0.160   5.855   8.182 -0.2154 -0.3263  0.4817
  241MOL0     C32466   0.189   5.868   8.047 -0.5921  0.2991 -0.1103
  241MOL0     C32467   0.062   5.853   7.955 -0.3252  0.4125  0.2839
  241MOL0     H32468   0.249   5.769   7.632 -0.5326 -0.3871  0.8214
  241MOL0     H32469   0.280   5.731   7.400 -1.1001  1.9032  2.2028
  241MOL0     H32470   0.359   5.598   7.203  2.6544 -1.4873  0.7939
  241MOL0     H32471   0.371   5.778   7.181 -0.4729 -0.4831 -0.5476
  241MOL0     H32472   0.419   5.633   6.977  3.4377 -0.6993 -3.4369
  241MOL0     H32473   0.564   5.604   7.038  0.5772  0.7462 -2.2241
  241MOL0     H32474   0.601   5.871   7.077 -0.1037 -0.9564  0.8296
  241MOL0     H32475   0.447   5.891   6.995  1.3994  0.9706 -0.9066
  241MOL0     H32476   0.665   5.738   6.852  0.1471  0.3863  0.2640
  241MOL0     H32477   0.509   5.822   6.799 -0.5950 -0.1274  0.6920
  241MOL0     H32478   0.595   6.027   6.867 -0.3536 -0.1159  0.0688
  241MOL0     H32479   0.747   5.946   6.924 -1.2893 -3.3201  1.0349
  241MOL0     H32480   0.652   5.964   6.627 -1.1067 -4.1520 -0.8768
  241MOL0     H32481   0.777   6.071   6.690 -3.0592  1.1698 -0.2044
  241MOL0     H32482   0.801   5.762   6.653 -2.3333  1.2685  1.4875
  241MOL0     H32483   0.917   5.854   6.756  1.0122  0.1426  0.1115
  241MOL0     H32484   0.860   5.878   6.473  2.5482 -0.4127 -2.8408
  241MOL0     H32485   0.970   5.986   6.560 -0.5716  0.0783 -1.2479
  241MOL0     H32486   1.063   5.717   6.317 -2.7850  2.8643  0.9196
  241MOL0     H32487   1.294   5.601   6.289  2.6812 -2.4200 -0.4129
  241MOL0     H32488   1.360   5.522   6.428 -0.4898  2.0836  0.2200
  241MOL0     H32489   1.096   5.451   6.290  1.2131  1.1919 -0.4435
  241MOL0     H32490   1.242   5.358   6.283  0.0826  0.6588  0.0905
  241MOL0     H32491   1.229   5.357   6.554  0.8156  0.8629 -0.4063
  241MOL0     H32492   1.179   5.230   6.443 -0.5765  0.0787 -1.2319
  241MOL0     H32493   0.942   5.321   6.447 -0.2378  3.0634 -2.1432
  241MOL0     H32494   0.992   5.450   6.555  1.2840  0.8642 -1.4471
  241MOL0     H32495   1.055   5.473   6.768  1.1806 -2.2657 -2.8054
  241MOL0     H32496   0.949   5.534   6.982  1.2157 -0.0148 -0.2722
  241MOL0     H32497   0.786   5.100   7.388  0.0581 -1.8087  2.6669
  241MOL0     H32498   0.738   5.126   7.632 -0.6643  0.1318  0.4108
  241MOL0     H32499   0.478   5.490   7.782  0.7574  0.3159 -2.5844
  241MOL0     H32500   0.363   5.376   7.712  0.8571  4.0244 -0.9105
  241MOL0     H32501   0.358   5.249   7.907  1.3352 -1.0407 -1.2709
  241MOL0     H32502   0.489   5.350   7.983  0.2511 -1.3142 -1.2753
  241MOL0     H32503   0.337   5.535   7.993 -0.0674 -0.3662  1.3597
  241MOL0     H32504   0.223   5.450   7.887 -0.9468 -0.4345  0.0677
  241MOL0     H32505   0.289   5.380   8.169  2.0908  2.1665 -2.3580
  241MOL0     H32506   0.190   5.271   8.071  1.3808 -0.4006  0.3525
  241MOL0     H32507   0.126   5.565   8.142 -2.1074  0.6278  0.7484
  241MOL0     H32508   0.071   5.415   8.217 -1.4204  1.0610 -0.0689
  241MOL0     H32509  -0.005   5.502   7.933  1.6766 -1.2132 -1.4589
  241MOL0     H32510  -0.038   5.346   7.997 -2.2881  0.7699 -1.7114
  241MOL0     H32511  -0.225   5.547   8.007  2.5785  3.0764 -1.6550
  241MOL0     H32512  -0.128   5.612   8.119 -1.0878  1.7910 -2.1785
  241MOL0     H32513  -0.128   5.405   8.267  1.2826 -0.3448 -1.2277
  241MOL0     H32514  -0.284   5.500   8.232  0.1513 -0.3902  0.2005
  241MOL0     H32515   0.452   5.443   7.530 -0.1335  1.3450 -0.8675
  241MOL0     H32516   0.533   5.429   7.305 -1.4486 -0.0685  0.5203
  241MOL0     H32517   0.721   5.166   6.988 -1.7283  1.0785  0.0360
  241MOL0     H32518   0.841   5.113   6.763 -1.0810  0.9001 -1.9481
  241MOL0     H32519   0.709   5.709   7.436  0.1533 -0.8347 -0.5644
  241MOL0     H32520   0.678   5.728   7.690 -1.1843  2.2573  1.7972
  241MOL0     H32521   0.530   5.811   8.076  0.2418 -0.8686  0.1865
  241MOL0     H32522   0.482   5.818   8.297  1.2821  3.2021 -0.5087
  241MOL0     H32523   0.056   5.908   8.409  0.0836 -1.5981 -0.7583
  241MOL0     H32524   0.153   5.961   8.543 -1.0684  1.5926 -1.2770
  241MOL0     H32525  -0.018   5.799   8.617  1.5539  1.1551  2.6608
  241MOL0     H32526   0.140   5.740   8.648  1.2141  2.6265  0.9702
  241MOL0     H32527   0.125   5.613   8.412  1.2132  0.7486  1.5000
  241MOL0     H32528  -0.052   5.672   8.420 -0.9659  0.2611  1.5704
  241MOL0     H32529  -0.082   5.537   8.611  1.1591  0.3962  0.4444
  241MOL0     H32530  -0.028   5.447   8.468  0.6231  2.5239 -1.3449
  241MOL0     H32531   0.287   5.361   8.713 -1.2242 -0.7450  1.2418
  241MOL0     H32532   0.054   5.854   8.205 -0.0462 -0.7492  1.2591
  241MOL0     H32533   0.091   5.780   7.879 -0.5814  1.3468 -0.7543
  241MOL0     H32534  -0.010   5.806   8.022  2.1883 -2.5414  1.1493
  241MOL0     H32535   0.022   5.948   7.918  0.7485  0.8610  0.2434
  242MOL0     O32536   4.090   8.447   9.022  0.6032  0.5622 -0.0317
  242MOL0     C32537   4.177   8.373   8.970  0.2108  0.5229  1.2551
  242MOL0     O32538   4.248   8.274   9.029  0.1879  0.3675  0.1430
  242MOL0     C32539   4.194   8.208   9.142 -1.3962 -0.6744  0.0585
  242MOL0     C32540   4.060   8.183   9.144 -0.3668 -0.3127  0.2053
  242MOL0     C32541   4.001   8.122   9.251  0.4873 -0.8997 -0.0556
  242MOL0     C32542   4.076   8.095   9.364 -0.4748  0.1206 -0.5487
  242MOL0     O32543   4.017   8.042   9.473  0.1694  0.0531  0.1304
  242MOL0     C32544   4.035   8.101   9.594  0.2754 -0.2060  0.1721
  242MOL0     C32545   3.994   8.251   9.593 -0.2678  0.4106  0.5276
  242MOL0     C32546   4.033   8.317   9.737 -0.0370  0.4533  0.4538
  242MOL0     C32547   4.002   8.465   9.733  0.4619 -0.1027 -0.3988
  242MOL0     C32548   4.033   8.510   9.877 -0.4325 -0.6013 -0.1082
  242MOL0     C32549   3.983   8.654   9.892  0.5839 -0.2344 -0.2200
  242MOL0     C32550   4.051   8.729  10.011 -0.3834 -0.1949 -0.0274
  242MOL0     C32551   4.037   8.882  10.003  0.3595  0.4555  0.3490
  242MOL0     N32552   3.890   8.915  10.011 -0.0168 -0.2439  0.4224
  242MOL0     C32553   3.798   8.918   9.901  0.2577 -0.0836 -0.2428
  242MOL0     C32554   3.678   8.926   9.963  0.7423  0.4489  0.1130
  242MOL0     C32555   3.544   8.920   9.895 -0.1603  0.5574 -1.0308
  242MOL0     C32556   3.491   8.791   9.832  0.6512  0.9547  0.7189
  242MOL0     C32557   3.337   8.809   9.808  1.1134 -0.6134  0.2204
  242MOL0     C32558   3.289   8.786   9.662  0.6871 -0.4778 -0.3475
  242MOL0     O32559   3.352   8.669   9.606 -0.0011 -0.2507 -0.1852
  242MOL0     C32560   3.287   8.615   9.504  0.0859  0.2031  0.3135
  242MOL0     C32561   3.217   8.694   9.405  0.4135 -0.0239  0.5586
  242MOL0     C32562   3.141   8.623   9.306 -0.5104 -1.1245 -0.0652
  242MOL0     C32563   3.139   8.478   9.306 -0.2574 -0.8997  0.5098
  242MOL0     C32564   3.059   8.407   9.206 -0.3408  1.4974 -0.5110
  242MOL0     O32565   3.041   8.477   9.083  0.1491  0.4148 -0.4559
  242MOL0     C32566   2.943   8.434   8.990  0.8344  0.2182  0.6112
  242MOL0     C32567   2.813   8.456   9.025  0.6889  0.8673 -0.0026
  242MOL0     C32568   2.724   8.390   8.944 -0.1098  0.1317 -0.4583
  242MOL0     C32569   2.755   8.312   8.830  0.0899 -0.0521 -0.0017
  242MOL0     O32570   2.662   8.252   8.751  0.1483 -0.5596 -0.1567
  242MOL0     C32571   2.575   8.162   8.827  0.1227 -0.3633 -0.1809
  242MOL0     C32572   2.611   8.019   8.776  0.7524 -0.4268  0.8833
  242MOL0     C32573   2.557   8.001   8.632 -0.7411  0.4155  0.4772
  242MOL0     C32574   2.529   7.852   8.605  0.0625  0.6233 -0.6639
  242MOL0     C32575   2.385   7.826   8.610 -1.0523  1.0087  0.4448
  242MOL0     C32576   2.326   7.697   8.543  0.0098 -0.5469 -0.7589
  242MOL0     C32577   2.368   7.564   8.608 -0.6534 -0.3071 -0.1350
  242MOL0     C32578   2.308   7.534   8.746 -0.0568 -0.0242  0.6086
  242MOL0    Cl32579   2.147   7.465   8.725  0.0475 -0.4374 -0.4513
  242MOL0     C32580   2.883   8.310   8.789 -0.0548 -0.1638 -0.1592
  242MOL0     C32581   2.978   8.367   8.874 -0.0420  0.2371 -0.5026
  242MOL0     O32582   3.014   8.296   9.228  0.0557 -0.5839  0.5419
  242MOL0     C32583   3.223   8.415   9.400 -0.1338 -0.6355 -0.4484
  242MOL0     C32584   3.305   8.480   9.496 -0.3165 -0.0943  0.6244
  242MOL0     N32585   3.693   8.933  10.102  0.7174  0.6109 -0.0506
  242MOL0     N32586   3.820   8.917  10.127 -0.4615 -0.1677 -0.8171
  242MOL0     C32587   4.220   8.099   9.360  0.9891  0.8835 -0.2773
  242MOL0     C32588   4.276   8.163   9.253  0.2893 -0.9205  0.7338
  242MOL0     C32589   4.211   8.392   8.828  0.2369  0.4219  0.7884
  242MOL0     C32590   4.318   8.312   8.772 -0.6419  0.1062  0.1657
  242MOL0     C32591   4.349   8.312   8.633  0.4027  0.8887  0.9076
  242MOL0     C32592   4.277   8.401   8.550 -0.0087 -1.4464 -0.3607
  242MOL0     O32593   4.317   8.415   8.419 -0.1162  0.9170 -0.2995
  242MOL0     C32594   4.264   8.326   8.321  0.1189 -0.5526  0.0573
  242MOL0     C32595   4.299   8.368   8.177 -0.6098  0.6646 -0.5346
  242MOL0     C32596   4.229   8.504   8.147  0.7583 -0.8502 -0.0746
  242MOL0     C32597   4.267   8.544   8.007  0.6026  0.5447 -0.4607
  242MOL0     C32598   4.209   8.455   7.905  0.7396  0.2186  0.3551
  242MOL0     C32599   4.152   8.384   7.827 -1.0510  0.2143 -0.2048
  242MOL0     C32600   4.177   8.485   8.599 -0.5268  0.2027  0.5495
  242MOL0     C32601   4.134   8.464   8.733  0.4578 -0.9001  0.0826
  242MOL0     C32602   4.000   8.524   8.769  0.1946 -0.2223  0.0038
  242MOL0     H32603   4.000   8.209   9.058  2.3732  0.6021 -1.5533
  242MOL0     H32604   3.898   8.088   9.247  0.0196  0.2749  1.3722
  242MOL0     H32605   3.983   8.043   9.671 -1.7449  1.2344 -0.0148
  242MOL0     H32606   4.141   8.108   9.621 -0.1445  2.3298  1.5228
  242MOL0     H32607   3.886   8.241   9.578 -0.1876 -3.9312  1.5827
  242MOL0     H32608   4.046   8.299   9.510  0.8298 -1.1053  0.3107
  242MOL0     H32609   4.139   8.295   9.751 -0.5123 -2.1725  0.4580
  242MOL0     H32610   3.979   8.258   9.812 -2.3310  2.6544  0.6691
  242MOL0     H32611   4.051   8.515   9.649  1.1790  0.3049  0.2423
  242MOL0     H32612   3.897   8.484   9.709  0.0986  0.4957  1.5016
  242MOL0     H32613   3.983   8.444   9.949 -0.1269 -1.3066 -0.5292
  242MOL0     H32614   4.141   8.506   9.893 -0.8996 -3.2993  3.9546
  242MOL0     H32615   4.010   8.712   9.804  1.1649  1.5168  1.0585
  242MOL0     H32616   3.875   8.660   9.910  0.9117  2.0166  1.4427
  242MOL0     H32617   4.159   8.713  10.009 -0.1230  1.3814 -1.8383
  242MOL0     H32618   4.004   8.692  10.103  0.5613 -1.4977 -0.0395
  242MOL0     H32619   4.093   8.937  10.078  0.6589  0.0299  0.4392
  242MOL0     H32620   4.072   8.904   9.901 -2.6542 -1.2795 -1.2135
  242MOL0     H32621   3.813   8.916   9.793  2.1834 -0.7857  0.0052
  242MOL0     H32622   3.480   8.942   9.981 -1.0205  2.2886 -2.0482
  242MOL0     H32623   3.527   9.001   9.823 -1.6501  1.4051  0.2131
  242MOL0     H32624   3.558   8.768   9.749  0.1820  0.7322  0.3987
  242MOL0     H32625   3.489   8.707   9.902 -0.1986 -0.9333 -1.4384
  242MOL0     H32626   3.292   8.905   9.832  1.0678 -0.4433 -0.5204
  242MOL0     H32627   3.279   8.733   9.862 -2.3564 -0.6031 -3.0404
  242MOL0     H32628   3.305   8.879   9.606 -2.2676  1.5356  1.8494
  242MOL0     H32629   3.180   8.787   9.658  0.6060  3.0404 -0.1530
  242MOL0     H32630   3.209   8.801   9.420  0.0836  0.1811 -0.9843
  242MOL0     H32631   3.075   8.678   9.240  1.1803  2.3078  0.8722
  242MOL0     H32632   2.788   8.530   9.100 -3.6913  0.8524 -1.1713
  242MOL0     H32633   2.619   8.409   8.965  0.3986 -0.9763  4.2641
  242MOL0     H32634   2.600   8.166   8.933 -0.5666 -2.9503  0.1469
  242MOL0     H32635   2.468   8.178   8.812 -0.4438 -3.7642 -0.5773
  242MOL0     H32636   2.720   8.010   8.775  0.6901 -1.6292 -1.5104
  242MOL0     H32637   2.562   7.948   8.843  0.1836 -2.6524 -1.7416
  242MOL0     H32638   2.475   8.066   8.600  0.2251  0.5648 -1.8834
  242MOL0     H32639   2.629   8.043   8.562 -1.3504 -1.5399 -1.4370
  242MOL0     H32640   2.590   7.795   8.675  0.4050  0.9757 -0.6701
  242MOL0     H32641   2.571   7.828   8.508  1.8308 -1.6708  0.5775
  242MOL0     H32642   2.337   7.911   8.559  1.9017  0.8796 -2.9188
  242MOL0     H32643   2.358   7.835   8.716  0.1247  1.0827  0.7547
  242MOL0     H32644   2.217   7.694   8.533 -0.0555 -1.3676 -0.0172
  242MOL0     H32645   2.375   7.692   8.445  1.8980 -0.2463  0.1203
  242MOL0     H32646   2.476   7.562   8.596 -0.2310 -0.8746  3.0475
  242MOL0     H32647   2.322   7.490   8.542 -0.5734  0.0430 -0.5883
  242MOL0     H32648   2.374   7.469   8.805 -0.4547 -0.2451  0.8187
  242MOL0     H32649   2.302   7.626   8.806  2.0834  1.0810 -0.7474
  242MOL0     H32650   2.915   8.238   8.715  0.1215 -1.6976  1.3355
  242MOL0     H32651   3.084   8.365   8.848  0.9728  0.9132  3.0970
  242MOL0     H32652   3.228   8.307   9.397  0.0631 -0.7546  2.0346
  242MOL0     H32653   3.366   8.418   9.560 -1.1498 -1.5203  0.0902
  242MOL0     H32654   4.268   8.054   9.446 -0.3949  0.4183  0.2794
  242MOL0     H32655   4.383   8.164   9.267  0.4757  0.0710 -0.5866
  242MOL0     H32656   4.384   8.242   8.822 -0.0406  0.0173 -0.7384
  242MOL0     H32657   4.435   8.259   8.593  0.1951  0.6692  0.7543
  242MOL0     H32658   4.155   8.335   8.312  0.4113  1.9352 -2.6000
  242MOL0     H32659   4.304   8.225   8.332  1.5835  0.2856  4.4232
  242MOL0     H32660   4.288   8.292   8.099  0.5951  1.7084 -1.7708
  242MOL0     H32661   4.405   8.392   8.165 -0.7931  0.2788 -4.3221
  242MOL0     H32662   4.263   8.587   8.210  0.7074  0.3686 -1.5875
  242MOL0     H32663   4.120   8.506   8.151  0.7737  1.8737  1.4590
  242MOL0     H32664   4.227   8.644   7.985 -2.1211 -0.0806  1.1890
  242MOL0     H32665   4.374   8.557   7.991  0.8606 -1.7286 -0.8810
  242MOL0     H32666   4.080   8.336   7.764 -1.0345  1.5227 -1.2752
  242MOL0     H32667   4.120   8.555   8.539 -2.2105 -1.2533  0.3718
  242MOL0     H32668   3.942   8.558   8.683 -1.3446  1.5179  1.6371
  242MOL0     H32669   3.940   8.451   8.824  1.4790 -1.9816 -0.8122
  242MOL0     H32670   4.012   8.604   8.843 -0.7771 -0.7379  0.7425
  243MOL0     O32671  10.773   0.533   6.137 -0.0436  0.3829 -0.4608
  243MOL0     C32672  10.768   0.563   6.254 -0.1399  0.2013 -1.2610
  243MOL0     O32673  10.864   0.632   6.323  1.0011  0.2601 -0.5928
  243MOL0     C32674  10.983   0.680   6.261  0.2981 -0.6648  0.2897
  243MOL0     C32675  11.115   0.615   6.271  0.0989 -0.0475 -0.4694
  243MOL0     C32676  11.232   0.676   6.215  0.6460  0.4315  0.6075
  243MOL0     C32677  11.218   0.785   6.133 -0.2720  0.6166  0.4666
  243MOL0     O32678  11.331   0.820   6.057 -0.2384  0.1769  0.4557
  243MOL0     C32679  11.400   0.939   6.095  0.7452 -0.0439  0.4443
  243MOL0     C32680  11.529   0.967   6.006 -0.0090  0.6155 -0.1293
  243MOL0     C32681  11.642   0.883   6.036  0.2474 -0.0721  0.6538
  243MOL0     C32682  11.624   0.742   5.976  1.3497  0.3996  0.3125
  243MOL0     C32683  11.756   0.652   5.963  0.1019 -0.1352  0.0657
  243MOL0     C32684  11.851   0.685   6.081 -1.2802 -0.6193 -0.1057
  243MOL0     C32685  11.965   0.589   6.107  1.0493  0.0734 -0.3186
  243MOL0     C32686  12.052   0.635   6.224 -0.3205 -0.6110  0.9902
  243MOL0     N32687  12.153   0.539   6.250  0.3741 -0.4139 -0.3095
  243MOL0     C32688  12.237   0.470   6.168  0.0298 -0.0804 -0.2185
  243MOL0     C32689  12.323   0.409   6.252  0.1545  0.9336  0.7799
  243MOL0     C32690  12.433   0.323   6.203 -1.1513 -0.4665  0.4959
  243MOL0     C32691  12.390   0.233   6.087  0.0861 -0.1447 -0.4720
  243MOL0     C32692  12.494   0.120   6.081  0.0927 -0.0499  0.1917
  243MOL0     C32693  12.456   0.034   5.957  0.2624  0.2678 -0.9369
  243MOL0     O32694  12.519  -0.098   5.970  0.2753 -0.8493 -0.3247
  243MOL0     C32695  12.508  -0.194   5.866 -0.0217 -0.4876  0.2129
  243MOL0     C32696  12.543  -0.323   5.894 -0.4210 -0.0275  0.3044
  243MOL0     C32697  12.535  -0.417   5.785  0.8592 -0.0659  0.6551
  243MOL0     C32698  12.471  -0.390   5.666 -0.9054  0.1889 -0.8294
  243MOL0     C32699  12.443  -0.498   5.567 -0.4140 -0.2039  0.4313
  243MOL0     O32700  12.461  -0.629   5.600  0.0908 -0.7422 -0.5494
  243MOL0     C32701  12.455  -0.718   5.500 -0.9660  0.2384  0.8853
  243MOL0     C32702  12.361  -0.815   5.497  0.4069 -0.1955  0.5149
  243MOL0     C32703  12.356  -0.919   5.402 -0.6346 -0.7925 -0.5438
  243MOL0     C32704  12.461  -0.928   5.314 -0.2149  0.7619  1.1800
  243MOL0     O32705  12.467  -1.031   5.220  0.2998  0.0644 -0.7965
  243MOL0     C32706  12.365  -1.019   5.117  0.0327 -1.0082  0.6296
  243MOL0     C32707  12.405  -1.126   5.018  0.1681  0.1588 -0.1685
  243MOL0     C32708  12.542  -1.124   4.953  0.1069 -0.2886  0.5797
  243MOL0     C32709  12.560  -1.227   4.839 -0.2001  0.1010  0.2002
  243MOL0     C32710  12.697  -1.213   4.772 -0.3759 -0.4600  0.8777
  243MOL0     C32711  12.717  -1.068   4.708 -0.0484  0.3997  0.6873
  243MOL0     C32712  12.838  -1.066   4.608 -0.8367 -0.1495  0.4358
  243MOL0     C32713  12.977  -1.084   4.668  1.0781 -0.9218 -0.4746
  243MOL0    Cl32714  13.011  -0.939   4.764 -0.4709  0.5400 -0.0515
  243MOL0     C32715  12.561  -0.832   5.314 -0.2721  0.2386  0.8581
  243MOL0     C32716  12.556  -0.717   5.401  0.2268  0.2030 -0.5680
  243MOL0     O32717  12.411  -0.457   5.459  0.1487  0.2590  0.6785
  243MOL0     C32718  12.430  -0.260   5.646  0.6864  0.3629  0.7498
  243MOL0     C32719  12.448  -0.166   5.741  0.2719  0.1471 -1.0378
  243MOL0     N32720  12.285   0.426   6.382  0.0634  0.0059  0.1833
  243MOL0     N32721  12.191   0.504   6.373 -0.7076 -0.2048  0.4102
  243MOL0     C32722  11.096   0.860   6.130 -0.5120 -0.0114  0.0790
  243MOL0     C32723  10.985   0.809   6.197 -0.2795 -0.3257  0.4036
  243MOL0     C32724  10.644   0.511   6.337  0.6353  0.8457  0.2693
  243MOL0     C32725  10.645   0.541   6.473  0.4844  0.4785  0.7874
  243MOL0     C32726  10.532   0.517   6.550  0.1818 -1.1607 -0.1763
  243MOL0     C32727  10.413   0.459   6.509  0.5712  1.0722  0.8951
  243MOL0     O32728  10.314   0.419   6.600 -0.0126  1.1154  0.4218
  243MOL0     C32729  10.215   0.320   6.569 -0.5960  0.1804  0.2339
  243MOL0     C32730  10.075   0.384   6.530 -0.5241  0.1728 -0.8441
  243MOL0     C32731   9.955   0.291   6.561 -0.1130  0.6071 -0.9854
  243MOL0     C32732   9.824   0.355   6.530  0.3658  0.2734  0.0881
  243MOL0     C32733   9.713   0.263   6.577  0.4770 -0.1125 -1.0588
  243MOL0     C32734   9.625   0.166   6.593  0.4947 -0.1911  0.4683
  243MOL0     C32735  10.413   0.428   6.367 -0.4601 -0.3304  0.7241
  243MOL0     C32736  10.517   0.463   6.280 -1.2093 -0.2630 -0.2150
  243MOL0     C32737  10.507   0.445   6.134 -0.3146  0.5715  0.8943
  243MOL0     H32738  11.123   0.522   6.325  2.2038 -1.6627 -3.2903
  243MOL0     H32739  11.318   0.609   6.224  0.4566  0.0235 -0.4317
  243MOL0     H32740  11.335   1.027   6.090 -0.8974 -1.2767 -1.8606
  243MOL0     H32741  11.430   0.926   6.200  1.8305  0.7466  0.2518
  243MOL0     H32742  11.563   1.070   6.015  0.6902  0.7023 -2.7454
  243MOL0     H32743  11.498   0.954   5.901 -0.8924 -2.4858  0.4141
  243MOL0     H32744  11.672   0.878   6.142 -0.1519 -1.9112  0.7210
  243MOL0     H32745  11.716   0.928   5.970  0.1326  0.3326  0.7980
  243MOL0     H32746  11.558   0.686   6.044  0.8299  2.2041  1.3490
  243MOL0     H32747  11.592   0.755   5.872  2.3140  2.9215  0.2728
  243MOL0     H32748  11.723   0.548   5.970  1.6119 -0.6047  0.3829
  243MOL0     H32749  11.800   0.666   5.864  1.6135 -3.6391  0.0913
  243MOL0     H32750  11.903   0.780   6.067  2.5802 -2.6599 -1.2240
  243MOL0     H32751  11.796   0.688   6.175 -0.0209 -0.1555  0.6376
  243MOL0     H32752  12.031   0.590   6.021  0.8077 -0.1860 -0.5089
  243MOL0     H32753  11.940   0.484   6.126  2.3522 -0.2173 -0.1282
  243MOL0     H32754  12.110   0.723   6.196  0.0741 -0.1350  3.1408
  243MOL0     H32755  11.989   0.668   6.307 -4.6444 -1.5970 -1.5775
  243MOL0     H32756  12.234   0.466   6.060 -0.3557  1.4313 -0.2833
  243MOL0     H32757  12.519   0.382   6.170 -1.0248  0.5237  2.4494
  243MOL0     H32758  12.465   0.254   6.281  0.9201 -0.9032 -0.6690
  243MOL0     H32759  12.304   0.178   6.128  2.0933 -3.9414 -0.9217
  243MOL0     H32760  12.368   0.282   5.992 -2.9684 -0.9345 -0.2779
  243MOL0     H32761  12.492   0.057   6.170 -2.0486  1.2852  1.1485
  243MOL0     H32762  12.593   0.167   6.073 -0.5544  1.4739  0.6976
  243MOL0     H32763  12.477   0.081   5.861 -0.0709 -0.4634 -1.3697
  243MOL0     H32764  12.348   0.022   5.954  0.2009  0.7761 -0.9764
  243MOL0     H32765  12.593  -0.345   5.987  0.3361  1.6195  0.3302
  243MOL0     H32766  12.572  -0.518   5.801 -0.2633 -0.7316 -0.7624
  243MOL0     H32767  12.280  -0.812   5.569  2.5796 -0.0672  3.1087
  243MOL0     H32768  12.279  -0.996   5.408 -1.0548 -0.2610  2.1428
  243MOL0     H32769  12.262  -1.020   5.152 -0.8654  3.1619 -1.3271
  243MOL0     H32770  12.383  -0.925   5.064 -1.3415 -1.7132 -1.1806
  243MOL0     H32771  12.385  -1.224   5.064 -2.5516  0.5465 -0.3708
  243MOL0     H32772  12.345  -1.132   4.927 -0.4419  0.9696  0.1663
  243MOL0     H32773  12.553  -1.023   4.911 -0.0687  0.5906  2.5303
  243MOL0     H32774  12.617  -1.142   5.031 -1.2236  0.3185  2.0673
  243MOL0     H32775  12.482  -1.232   4.763 -0.2906  2.0033  0.1180
  243MOL0     H32776  12.551  -1.323   4.890  0.1344 -0.0591 -0.0406
  243MOL0     H32777  12.704  -1.294   4.699  0.1317 -0.3397  0.7910
  243MOL0     H32778  12.772  -1.239   4.848  0.8049 -0.2180 -0.1640
  243MOL0     H32779  12.628  -1.023   4.665  1.2909  2.4158 -0.0997
  243MOL0     H32780  12.736  -0.992   4.784 -1.4996 -0.6471  2.1654
  243MOL0     H32781  12.842  -0.967   4.561  3.0093  0.0386  0.8565
  243MOL0     H32782  12.820  -1.135   4.524  1.5648  2.4574 -2.5105
  243MOL0     H32783  12.969  -1.169   4.737 -0.9570 -0.1132  0.4035
  243MOL0     H32784  13.044  -1.104   4.585  1.2426 -1.7909 -0.1411
  243MOL0     H32785  12.643  -0.836   5.243 -1.8971 -0.7368 -1.0693
  243MOL0     H32786  12.633  -0.641   5.405  0.7815 -0.3792  1.3935
  243MOL0     H32787  12.382  -0.227   5.555 -2.4838 -0.9357  1.8221
  243MOL0     H32788  12.406  -0.071   5.709  0.6464  0.0294 -1.9237
  243MOL0     H32789  11.096   0.952   6.072  3.9051 -0.6110 -1.2493
  243MOL0     H32790  10.892   0.866   6.195 -2.7797 -3.8978  2.8973
  243MOL0     H32791  10.739   0.579   6.513  1.8929 -1.0391 -0.9048
  243MOL0     H32792  10.532   0.525   6.659 -4.8220  1.1908 -0.1072
  243MOL0     H32793  10.201   0.269   6.665  2.8573 -2.4151 -0.4714
  243MOL0     H32794  10.243   0.239   6.502 -0.9295  0.0431  0.2531
  243MOL0     H32795  10.071   0.400   6.422 -3.4417  2.4123 -0.5395
  243MOL0     H32796  10.072   0.483   6.577 -1.1129  0.0061 -0.5123
  243MOL0     H32797   9.980   0.270   6.666  1.4414  1.0072 -1.2601
  243MOL0     H32798   9.958   0.198   6.504  0.1436 -0.0341  0.0371
  243MOL0     H32799   9.826   0.451   6.582 -1.8484  0.4277 -0.0319
  243MOL0     H32800   9.819   0.377   6.423  4.2465  0.2233 -0.2536
  243MOL0     H32801   9.546   0.095   6.604  0.5681 -0.3229  0.1751
  243MOL0     H32802  10.325   0.386   6.318 -0.0183  1.1076 -1.4629
  243MOL0     H32803  10.565   0.357   6.106 -2.0212 -1.1795  2.5934
  243MOL0     H32804  10.406   0.422   6.098  0.6263 -0.8982 -1.0205
  243MOL0     H32805  10.550   0.530   6.080 -0.3695  0.3457  0.4895
  244MOL0     O32806  11.441   0.735   2.446 -0.3789  0.3722 -0.1802
  244MOL0     C32807  11.370   0.660   2.509 -0.2299  1.1106  0.0813
  244MOL0     O32808  11.262   0.699   2.585 -0.4644  0.1822 -0.0700
  244MOL0     C32809  11.255   0.830   2.621 -0.3064 -1.1354 -0.1963
  244MOL0     C32810  11.290   0.950   2.551 -0.3682  0.5091 -0.4180
  244MOL0     C32811  11.294   1.083   2.595  0.4603  0.3432 -0.4895
  244MOL0     C32812  11.248   1.100   2.731 -0.0964 -0.4862 -0.5849
  244MOL0     O32813  11.254   1.223   2.802 -0.5579  0.1913 -0.3104
  244MOL0     C32814  11.323   1.338   2.747 -0.0767  0.0133 -0.3859
  244MOL0     C32815  11.339   1.447   2.857  0.2022 -0.4612  0.1894
  244MOL0     C32816  11.421   1.380   2.968  0.4271  0.3292  0.2389
  244MOL0     C32817  11.536   1.454   3.027 -0.7745 -0.6393  0.3236
  244MOL0     C32818  11.642   1.497   2.920  0.4451 -0.1957  0.1221
  244MOL0     C32819  11.785   1.485   2.972  0.2248 -0.7802  0.9722
  244MOL0     C32820  11.809   1.604   3.072 -0.0146 -0.4216 -0.1305
  244MOL0     C32821  11.964   1.597   3.123 -0.1470 -0.5113 -0.5504
  244MOL0     N32822  11.983   1.468   3.192 -0.2891 -0.3664 -0.2978
  244MOL0     C32823  11.973   1.453   3.324 -0.5165  0.0408  0.0765
  244MOL0     C32824  12.001   1.327   3.339 -0.3124  0.6147  0.3407
  244MOL0     C32825  12.007   1.250   3.465 -0.2451  0.2953  0.6246
  244MOL0     C32826  11.906   1.297   3.568  0.3416  0.3008 -0.3497
  244MOL0     C32827  11.766   1.303   3.520  0.0595  0.8926  0.2360
  244MOL0     C32828  11.662   1.331   3.627 -0.4352 -0.2523  0.0513
  244MOL0     O32829  11.667   1.464   3.688  0.1726  0.1368 -0.0360
  244MOL0     C32830  11.585   1.567   3.649 -0.0414 -0.9239 -0.4989
  244MOL0     C32831  11.562   1.679   3.730  0.3905  0.0387  0.8001
  244MOL0     C32832  11.459   1.775   3.703  0.3547 -0.5662  0.4191
  244MOL0     C32833  11.403   1.769   3.572  0.1828  0.7706 -1.2053
  244MOL0     C32834  11.291   1.865   3.520 -0.1758  0.2615  0.0195
  244MOL0     O32835  11.251   1.960   3.604  0.0328 -0.4002 -0.5213
  244MOL0     C32836  11.176   2.077   3.585 -1.2040 -0.4419 -0.7557
  244MOL0     C32837  11.149   2.138   3.459  0.8572  0.0220 -0.3081
  244MOL0     C32838  11.066   2.247   3.446  0.3735  0.5684 -0.0810
  244MOL0     C32839  11.021   2.309   3.560  0.0903 -0.0885  0.3662
  244MOL0     O32840  10.946   2.418   3.538  1.0020  0.8739  1.0847
  244MOL0     C32841  10.860   2.457   3.641 -0.7623 -0.8208  0.4327
  244MOL0     C32842  10.720   2.507   3.594 -0.1788  0.0183 -0.3359
  244MOL0     C32843  10.610   2.512   3.700  0.9102 -0.5145 -0.2528
  244MOL0     C32844  10.467   2.508   3.640 -0.6818 -0.0736 -0.5201
  244MOL0     C32845  10.439   2.642   3.556 -0.2130  0.8800 -0.1119
  244MOL0     C32846  10.465   2.788   3.618 -0.2467  0.1518 -0.3045
  244MOL0     C32847  10.368   2.809   3.734  0.5358 -0.4279 -0.1511
  244MOL0     C32848  10.397   2.955   3.794  0.4641  0.6755  0.5073
  244MOL0    Cl32849  10.342   3.087   3.688  0.5313  0.3119  0.4998
  244MOL0     C32850  11.069   2.268   3.686  0.0836 -0.1424 -0.4080
  244MOL0     C32851  11.136   2.148   3.700 -0.5730  0.4554  0.2078
  244MOL0     O32852  11.253   1.859   3.406 -0.1383  0.2501  0.2233
  244MOL0     C32853  11.441   1.662   3.488 -0.1947  0.4121  0.4116
  244MOL0     C32854  11.522   1.564   3.531  0.1201 -0.4415 -0.5748
  244MOL0     N32855  12.029   1.267   3.221 -0.3708  0.7115  0.1183
  244MOL0     N32856  12.039   1.352   3.139 -0.1306 -0.3431 -0.2604
  244MOL0     C32857  11.209   0.988   2.807  1.0809  0.0068  0.5200
  244MOL0     C32858  11.214   0.863   2.754 -0.2353  0.2300 -0.5558
  244MOL0     C32859  11.396   0.512   2.496 -0.3752 -0.4815 -0.7381
  244MOL0     C32860  11.279   0.430   2.536  0.2269  1.0171  0.1804
  244MOL0     C32861  11.290   0.293   2.536  0.1686  0.4073 -0.6557
  244MOL0     C32862  11.415   0.235   2.507 -0.4428  0.4088 -0.6023
  244MOL0     O32863  11.419   0.097   2.520 -0.2667 -0.0844 -0.2126
  244MOL0     C32864  11.541   0.027   2.490  0.3307 -0.8829 -0.2321
  244MOL0     C32865  11.526  -0.126   2.486  0.1217 -0.3414  0.4191
  244MOL0     C32866  11.651  -0.199   2.504  0.0876 -0.2527 -0.6754
  244MOL0     C32867  11.644  -0.346   2.529  0.9257  0.5112  0.6540
  244MOL0     C32868  11.551  -0.423   2.444  0.8390  0.1751  0.1006
  244MOL0     C32869  11.484  -0.484   2.359  0.0726  0.3109 -0.9056
  244MOL0     C32870  11.526   0.314   2.477  0.4009 -0.6154 -0.9940
  244MOL0     C32871  11.519   0.452   2.463 -1.0075  0.4683  0.3757
  244MOL0     C32872  11.648   0.519   2.434 -0.7909  0.3308  0.3922
  244MOL0     H32873  11.345   0.930   2.460 -0.3029 -1.3070 -0.0132
  244MOL0     H32874  11.326   1.159   2.524  1.5402 -0.8419 -1.3100
  244MOL0     H32875  11.422   1.312   2.709 -0.0037 -2.0113  1.0038
  244MOL0     H32876  11.263   1.380   2.665 -0.2905 -1.4413 -1.0171
  244MOL0     H32877  11.240   1.474   2.895  0.5762 -1.2856  1.8871
  244MOL0     H32878  11.389   1.538   2.823  1.2629 -1.1343 -0.1227
  244MOL0     H32879  11.468   1.289   2.929  0.3230 -0.9902  2.9619
  244MOL0     H32880  11.355   1.346   3.048  0.4289 -1.1737 -0.3634
  244MOL0     H32881  11.507   1.544   3.081  5.2032  0.4385  2.4270
  244MOL0     H32882  11.591   1.400   3.104  2.2627  0.5342 -0.8870
  244MOL0     H32883  11.635   1.442   2.826 -2.7371  1.3870 -0.7164
  244MOL0     H32884  11.617   1.601   2.896 -2.1960 -0.8389 -0.1869
  244MOL0     H32885  11.802   1.392   3.027 -0.8790 -1.3573  0.3567
  244MOL0     H32886  11.861   1.495   2.894  2.2406  1.1843  3.0087
  244MOL0     H32887  11.742   1.600   3.158 -1.3275  1.5411 -0.9812
  244MOL0     H32888  11.797   1.703   3.026  5.7867  0.4837 -0.4881
  244MOL0     H32889  12.033   1.608   3.038 -2.0960  1.7073 -1.9575
  244MOL0     H32890  11.990   1.677   3.193  1.1745 -0.8078 -0.6686
  244MOL0     H32891  11.940   1.514   3.407  0.4562  1.8942 -0.8418
  244MOL0     H32892  11.977   1.152   3.428 -2.9368  0.9972  0.7548
  244MOL0     H32893  12.099   1.247   3.524  2.1806  0.4686 -2.8457
  244MOL0     H32894  11.919   1.223   3.648 -2.7281  1.3478  1.2823
  244MOL0     H32895  11.928   1.394   3.615 -0.1185 -1.0501  2.9024
  244MOL0     H32896  11.743   1.203   3.484  1.2532  1.0046 -0.8842
  244MOL0     H32897  11.745   1.381   3.446  3.8281  3.0783  1.2197
  244MOL0     H32898  11.683   1.269   3.715  1.0627  1.1380  0.7434
  244MOL0     H32899  11.562   1.304   3.593 -0.0869 -1.7431  0.1594
  244MOL0     H32900  11.627   1.675   3.817 -0.2246  0.1731  1.2725
  244MOL0     H32901  11.435   1.857   3.770  2.2889  0.9157 -0.6008
  244MOL0     H32902  11.167   2.092   3.362 -2.7672  0.4682 -1.3497
  244MOL0     H32903  11.030   2.285   3.351 -2.3947  1.3469  1.1771
  244MOL0     H32904  10.836   2.366   3.698  3.0624 -1.1543  1.8070
  244MOL0     H32905  10.919   2.524   3.704  0.1181  0.3310 -1.5380
  244MOL0     H32906  10.733   2.602   3.542 -0.0720 -1.1058 -2.5299
  244MOL0     H32907  10.695   2.437   3.513 -0.5641  1.1546 -1.2219
  244MOL0     H32908  10.600   2.427   3.768  0.9632 -0.5480 -0.2874
  244MOL0     H32909  10.633   2.605   3.753  0.8645  0.3197 -1.6636
  244MOL0     H32910  10.392   2.514   3.719 -1.6065  1.2742 -1.4494
  244MOL0     H32911  10.469   2.414   3.584  6.7617  0.2187 -1.7519
  244MOL0     H32912  10.332   2.650   3.535 -0.1708 -0.9025 -1.2065
  244MOL0     H32913  10.492   2.641   3.460  1.4908  1.3615  0.7792
  244MOL0     H32914  10.569   2.793   3.653 -0.5330 -0.1976  0.6264
  244MOL0     H32915  10.452   2.873   3.551 -3.3381  2.6145  3.0690
  244MOL0     H32916  10.369   2.739   3.817 -0.8339  2.6469  2.6891
  244MOL0     H32917  10.266   2.818   3.695  1.5695  1.0575 -2.7825
  244MOL0     H32918  10.346   2.970   3.890  3.0319 -4.1120  3.0152
  244MOL0     H32919  10.505   2.966   3.807  0.5007 -0.5722  1.4316
  244MOL0     H32920  11.044   2.330   3.771  0.8302 -1.0693  0.5180
  244MOL0     H32921  11.171   2.114   3.797  1.1074 -0.8094 -0.7785
  244MOL0     H32922  11.401   1.649   3.388 -1.3830  0.5043  0.8549
  244MOL0     H32923  11.538   1.482   3.461 -0.5356  0.3613 -1.7093
  244MOL0     H32924  11.174   0.996   2.910  0.5527 -0.1815  0.3628
  244MOL0     H32925  11.191   0.775   2.814 -2.4680  0.3194 -1.1958
  244MOL0     H32926  11.183   0.473   2.563 -0.5299 -0.3532 -0.2471
  244MOL0     H32927  11.200   0.234   2.551 -0.2959  1.4422  0.9029
  244MOL0     H32928  11.609   0.053   2.571 -0.9654 -0.2175  0.6669
  244MOL0     H32929  11.590   0.054   2.395  0.0980 -1.6364 -0.5715
  244MOL0     H32930  11.486  -0.153   2.388  1.6813  1.1264 -0.6720
  244MOL0     H32931  11.463  -0.158   2.569 -0.7036  1.6624  0.6063
  244MOL0     H32932  11.695  -0.147   2.590 -0.8090  1.7839 -1.4030
  244MOL0     H32933  11.708  -0.174   2.415 -1.2704  0.2428 -1.4391
  244MOL0     H32934  11.745  -0.390   2.528 -0.0669 -1.9489 -0.8460
  244MOL0     H32935  11.616  -0.364   2.634 -0.9970 -0.8186 -0.0454
  244MOL0     H32936  11.405  -0.527   2.302 -0.4475 -0.3643  0.2941
  244MOL0     H32937  11.623   0.267   2.462  0.4797 -0.6022 -0.5266
  244MOL0     H32938  11.633   0.574   2.341 -0.5952 -0.9524 -0.4298
  244MOL0     H32939  11.669   0.593   2.511 -0.2221  1.8658 -1.1842
  244MOL0     H32940  11.733   0.451   2.433 -0.5480  0.6092  1.3143
  245MOL0     O32941   0.006   6.977   9.475 -0.8541  0.3397  0.0553
  245MOL0     C32942   0.002   7.091   9.516  0.2368  0.2220  0.0902
  245MOL0     O32943  -0.111   7.158   9.533 -0.6891 -0.2963 -0.6845
  245MOL0     C32944  -0.226   7.090   9.568  0.0255  0.1443 -0.9631
  245MOL0     C32945  -0.292   7.003   9.488 -0.2588  0.3805  0.5798
  245MOL0     C32946  -0.421   6.959   9.525  0.3084  0.1045  0.1796
  245MOL0     C32947  -0.476   6.994   9.650 -1.0470 -0.2260  0.2831
  245MOL0     O32948  -0.601   6.942   9.674  0.2512 -0.8461 -0.0482
  245MOL0     C32949  -0.671   6.998   9.785  0.0280 -0.6758  0.0531
  245MOL0     C32950  -0.819   6.951   9.770  0.6476 -0.0840 -0.5164
  245MOL0     C32951  -0.893   7.026   9.654 -0.5781 -1.0115 -0.0986
  245MOL0     C32952  -1.035   6.983   9.620 -0.8038  0.6637 -0.6778
  245MOL0     C32953  -1.057   6.840   9.584  0.0260  0.1656  0.7502
  245MOL0     C32954  -1.094   6.842   9.431  0.0468 -0.1037 -0.4495
  245MOL0     C32955  -1.117   6.693   9.402  0.9999 -0.3635  0.3785
  245MOL0     C32956  -1.170   6.652   9.266 -0.1260  0.4588 -0.1457
  245MOL0     N32957  -1.078   6.684   9.159  0.5053  0.9037 -0.2722
  245MOL0     C32958  -0.985   6.595   9.110  0.7455  0.6672 -1.2727
  245MOL0     C32959  -0.960   6.640   8.986 -0.0100 -0.5792 -0.9182
  245MOL0     C32960  -0.875   6.566   8.885 -0.4675  0.8761 -1.1255
  245MOL0     C32961  -0.847   6.648   8.755  0.4798 -0.6918 -0.0191
  245MOL0     C32962  -0.767   6.575   8.652 -0.2093  0.1615 -0.1866
  245MOL0     C32963  -0.704   6.653   8.547  0.5387  0.8833  1.2526
  245MOL0     O32964  -0.577   6.695   8.596 -0.1665 -0.2503 -0.7533
  245MOL0     C32965  -0.497   6.788   8.516  0.8687  0.6602 -0.4783
  245MOL0     C32966  -0.529   6.830   8.389  2.2410 -0.0175 -1.0470
  245MOL0     C32967  -0.443   6.914   8.318  0.9274  0.9222 -0.2936
  245MOL0     C32968  -0.320   6.953   8.375  0.0317  0.2552 -0.3260
  245MOL0     C32969  -0.225   7.047   8.312 -0.6577 -0.2979 -0.4187
  245MOL0     O32970  -0.250   7.086   8.185 -0.2351 -0.0996 -0.6661
  245MOL0     C32971  -0.161   7.172   8.124 -0.1991 -0.4017 -0.3174
  245MOL0     C32972  -0.138   7.311   8.144 -0.5197  0.6561  0.1085
  245MOL0     C32973  -0.024   7.364   8.078 -0.3469  0.1216 -0.2140
  245MOL0     C32974   0.050   7.289   7.984  0.7222  0.3883 -0.3148
  245MOL0     O32975   0.146   7.366   7.927  0.2510 -0.3450  0.7766
  245MOL0     C32976   0.145   7.374   7.779  0.0820  0.6649  0.5074
  245MOL0     C32977   0.252   7.279   7.717  0.3941 -0.1728 -1.1880
  245MOL0     C32978   0.401   7.331   7.740  0.5134  0.2105  0.6390
  245MOL0     C32979   0.489   7.251   7.644  0.4889  0.2453  0.1307
  245MOL0     C32980   0.638   7.261   7.692  0.3568 -0.5143  0.9981
  245MOL0     C32981   0.740   7.242   7.569 -0.2217 -0.6742  0.0263
  245MOL0     C32982   0.710   7.325   7.439  0.3535  0.3412 -0.3426
  245MOL0     C32983   0.682   7.469   7.479  0.3450 -0.6979  0.5348
  245MOL0    Cl32984   0.823   7.544   7.572  0.0318  0.6004  0.1738
  245MOL0     C32985   0.016   7.158   7.959 -0.9667 -0.3194 -0.1473
  245MOL0     C32986  -0.082   7.100   8.033  0.1525  0.6360  0.1559
  245MOL0     O32987  -0.130   7.091   8.381  0.2190 -0.2126  0.2586
  245MOL0     C32988  -0.292   6.902   8.503  0.3859  0.4808 -0.1157
  245MOL0     C32989  -0.383   6.828   8.577  0.6252  0.0733 -0.4458
  245MOL0     N32990  -1.030   6.762   8.966 -0.2724  0.5166 -0.4727
  245MOL0     N32991  -1.089   6.786   9.069  0.6008  0.7086 -1.3002
  245MOL0     C32992  -0.399   7.078   9.741 -0.7748 -1.0771  0.3897
  245MOL0     C32993  -0.282   7.134   9.697  0.7203 -0.3512  0.3106
  245MOL0     C32994   0.127   7.163   9.506 -0.2718 -1.0913  0.1569
  245MOL0     C32995   0.120   7.307   9.511 -0.0387  0.1769  0.2377
  245MOL0     C32996   0.230   7.385   9.541  0.5899  0.4270  0.0171
  245MOL0     C32997   0.349   7.328   9.583  0.5301  0.0983 -0.3937
  245MOL0     O32998   0.453   7.405   9.597  0.5142  0.1346 -0.2545
  245MOL0     C32999   0.538   7.384   9.707  0.1626 -0.4158  0.1297
  245MOL0     C33000   0.496   7.471   9.819  0.1648  0.9328 -0.7109
  245MOL0     C33001   0.604   7.478   9.935  0.1074  0.1447  0.0556
  245MOL0     C33002   0.576   7.595  10.033 -0.8289 -1.4229  0.0040
  245MOL0     C33003   0.441   7.580  10.094  0.3246  0.5799 -0.2594
  245MOL0     C33004   0.334   7.568  10.154  0.1231  0.4411  0.1887
  245MOL0     C33005   0.358   7.187   9.572 -0.4831 -0.5630 -0.8223
  245MOL0     C33006   0.248   7.106   9.554  0.4412 -0.5371 -0.4152
  245MOL0     C33007   0.273   6.961   9.566 -0.1990 -0.5386  0.4578
  245MOL0     H33008  -0.238   6.978   9.397  3.5659 -1.1772  3.0357
  245MOL0     H33009  -0.481   6.907   9.452 -0.5188  2.0541 -0.6088
  245MOL0     H33010  -0.626   6.966   9.880 -1.7213  0.5135  1.3391
  245MOL0     H33011  -0.662   7.107   9.785 -1.9536 -0.4738 -0.0429
  245MOL0     H33012  -0.876   6.965   9.862  2.3118  1.7700  0.3317
  245MOL0     H33013  -0.818   6.844   9.748 -2.7632 -0.5440  0.9495
  245MOL0     H33014  -0.827   7.005   9.569  0.7647  1.0711  0.3583
  245MOL0     H33015  -0.900   7.127   9.694 -0.2497 -1.3432  0.8134
  245MOL0     H33016  -1.070   6.994   9.723 -3.5133 -0.6220 -1.3640
  245MOL0     H33017  -1.081   7.062   9.560  0.6393  0.2767 -2.4078
  245MOL0     H33018  -0.959   6.795   9.599  0.1092 -1.0571 -2.6393
  245MOL0     H33019  -1.138   6.804   9.649  0.4331  0.3625  1.3746
  245MOL0     H33020  -1.177   6.911   9.417  1.2410  1.1642 -1.6611
  245MOL0     H33021  -1.005   6.875   9.377 -1.7866  2.1849 -2.2971
  245MOL0     H33022  -1.190   6.643   9.466  0.3076 -0.1868 -0.2548
  245MOL0     H33023  -1.020   6.643   9.413  1.5177  0.3427 -0.7945
  245MOL0     H33024  -1.188   6.544   9.269  2.3949 -0.2200 -3.4212
  245MOL0     H33025  -1.262   6.708   9.244 -0.4617 -0.4702 -1.1652
  245MOL0     H33026  -0.943   6.513   9.168 -0.2218  1.2517  0.3215
  245MOL0     H33027  -0.787   6.534   8.943 -2.4007 -1.9160  0.5019
  245MOL0     H33028  -0.926   6.470   8.868  0.1158  0.2406  0.5083
  245MOL0     H33029  -0.931   6.706   8.716  1.6971 -0.5206 -2.6437
  245MOL0     H33030  -0.787   6.730   8.796 -1.3360  0.8140 -0.2688
  245MOL0     H33031  -0.830   6.499   8.606 -1.0467 -0.1652  1.4166
  245MOL0     H33032  -0.698   6.509   8.706 -2.1937 -0.5639  1.5930
  245MOL0     H33033  -0.761   6.742   8.519 -1.9337 -1.4654 -1.9368
  245MOL0     H33034  -0.687   6.596   8.455 -2.3667  1.8104  0.0275
  245MOL0     H33035  -0.618   6.802   8.334 -0.0139  2.7652  0.8933
  245MOL0     H33036  -0.471   6.939   8.217 -0.8338 -0.3238 -0.1524
  245MOL0     H33037  -0.205   7.375   8.200 -1.8443  0.0280 -0.7041
  245MOL0     H33038   0.007   7.468   8.084 -1.4694  0.8271 -4.1128
  245MOL0     H33039   0.050   7.337   7.739 -1.4772  2.4508  2.3730
  245MOL0     H33040   0.159   7.478   7.747  0.3618  0.4003 -0.2740
  245MOL0     H33041   0.245   7.175   7.750  2.9596 -0.0158  0.0806
  245MOL0     H33042   0.225   7.265   7.612  1.8859  1.4959 -1.8442
  245MOL0     H33043   0.419   7.437   7.722 -1.1263  0.3377 -0.4741
  245MOL0     H33044   0.438   7.297   7.837 -0.8614 -1.8120  0.5229
  245MOL0     H33045   0.461   7.288   7.545  0.1723 -0.3573 -0.0122
  245MOL0     H33046   0.463   7.145   7.642 -3.1892  1.0154 -1.4463
  245MOL0     H33047   0.661   7.187   7.770  0.2900 -1.7566 -0.1309
  245MOL0     H33048   0.665   7.363   7.722  0.9057  0.3950 -2.2362
  245MOL0     H33049   0.843   7.267   7.598  0.5336 -0.7180 -2.4432
  245MOL0     H33050   0.742   7.136   7.543 -0.7930 -1.1541  1.7820
  245MOL0     H33051   0.625   7.287   7.382  1.4483  0.9463 -2.4681
  245MOL0     H33052   0.801   7.324   7.378  1.0987  3.7514  0.4947
  245MOL0     H33053   0.669   7.528   7.388  1.6586 -1.4012 -0.1400
  245MOL0     H33054   0.585   7.481   7.528 -0.4574 -2.5949 -0.5013
  245MOL0     H33055   0.088   7.116   7.890  0.1264  0.8803  0.2211
  245MOL0     H33056  -0.089   6.994   8.008  1.5374  0.9524 -1.8087
  245MOL0     H33057  -0.207   6.927   8.566 -0.8991 -0.2736  2.0580
  245MOL0     H33058  -0.343   6.798   8.673  0.9616  3.9695  0.8103
  245MOL0     H33059  -0.423   7.134   9.830  2.0537  0.6797  0.1912
  245MOL0     H33060  -0.224   7.205   9.755 -0.0948  0.6771 -0.0833
  245MOL0     H33061   0.032   7.369   9.496 -0.3694 -0.7448 -2.1462
  245MOL0     H33062   0.205   7.490   9.554  1.1904  0.4297  1.2345
  245MOL0     H33063   0.645   7.398   9.690  0.7061 -1.1373  2.5231
  245MOL0     H33064   0.531   7.280   9.741 -0.3680 -0.7247 -0.8811
  245MOL0     H33065   0.403   7.433   9.862  0.9663  0.1757  0.4086
  245MOL0     H33066   0.482   7.569   9.772  2.0333  2.3813  1.5319
  245MOL0     H33067   0.706   7.494   9.899 -0.0813  0.4358 -0.3607
  245MOL0     H33068   0.614   7.384   9.990  0.0745 -0.9995 -1.7992
  245MOL0     H33069   0.658   7.585  10.105 -1.4056 -2.1081  0.5856
  245MOL0     H33070   0.587   7.698   9.998 -2.3011 -0.8550  1.1229
  245MOL0     H33071   0.239   7.572  10.204 -1.4292  0.8719 -2.6112
  245MOL0     H33072   0.450   7.132   9.589 -1.2754 -2.1174 -1.3849
  245MOL0     H33073   0.279   6.912   9.468 -2.5302 -2.2433  1.0690
  245MOL0     H33074   0.375   6.960   9.607  0.4505  0.0676 -1.0663
  245MOL0     H33075   0.201   6.909   9.631 -0.7903 -0.0534  0.1930
  246MOL0     O33076   7.476   6.031  10.454  0.5497 -0.1589  0.4675
  246MOL0     C33077   7.383   5.949  10.429 -0.0933 -0.4149 -0.2739
  246MOL0     O33078   7.378   5.826  10.475 -0.1929 -0.3739 -0.0536
  246MOL0     C33079   7.444   5.799  10.592 -0.6323 -0.6439 -0.0671
  246MOL0     C33080   7.501   5.677  10.601  0.5669 -0.8271 -0.1882
  246MOL0     C33081   7.553   5.623  10.713 -0.6182 -0.0534  0.5379
  246MOL0     C33082   7.553   5.695  10.834 -0.4964 -0.5227  0.2016
  246MOL0     O33083   7.577   5.627  10.951  0.5925 -0.1367 -0.0232
  246MOL0     C33084   7.568   5.702  11.080 -0.1209 -0.4397 -0.3072
  246MOL0     C33085   7.636   5.627  11.193  0.6370  0.5004  0.0357
  246MOL0     C33086   7.548   5.500  11.223 -0.3150  0.2913 -0.2713
  246MOL0     C33087   7.603   5.398  11.329  0.2515  0.1029  0.2541
  246MOL0     C33088   7.495   5.300  11.372 -0.1751  0.5673  0.3034
  246MOL0     C33089   7.551   5.167  11.422 -1.3230 -0.5224 -0.9081
  246MOL0     C33090   7.614   5.072  11.310  0.1656  0.1097 -0.1187
  246MOL0     C33091   7.645   4.938  11.359  0.0355  0.2483 -0.7215
  246MOL0     N33092   7.720   4.853  11.268 -0.3464 -0.1008  0.1018
  246MOL0     C33093   7.716   4.838  11.131  0.4993  0.3048 -0.2470
  246MOL0     C33094   7.817   4.759  11.092 -0.4674 -0.0379 -0.6203
  246MOL0     C33095   7.865   4.704  10.967 -0.4924 -0.6278 -0.4789
  246MOL0     C33096   8.008   4.725  10.925 -0.1076  0.3049  0.3668
  246MOL0     C33097   8.028   4.820  10.811  0.0660 -0.0446 -0.0412
  246MOL0     C33098   8.152   4.801  10.731  0.2262 -0.4169  0.2739
  246MOL0     O33099   8.131   4.701  10.636 -0.0007 -0.2888 -0.0995
  246MOL0     C33100   8.221   4.682  10.530 -0.0823 -0.0090  0.4616
  246MOL0     C33101   8.181   4.613  10.409 -0.1059 -0.5601  0.1294
  246MOL0     C33102   8.267   4.594  10.297 -0.6432  0.6801  0.1047
  246MOL0     C33103   8.395   4.646  10.309  0.7889 -0.3150 -0.0596
  246MOL0     C33104   8.487   4.617  10.195 -0.0562  1.0036 -0.4977
  246MOL0     O33105   8.444   4.539  10.096  0.2496 -0.2581 -1.0956
  246MOL0     C33106   8.500   4.550   9.974 -0.6201 -0.7717 -0.7993
  246MOL0     C33107   8.580   4.656   9.922  0.2921  0.7355 -0.3933
  246MOL0     C33108   8.655   4.636   9.812  0.5911  0.6987 -0.3122
  246MOL0     C33109   8.648   4.510   9.744 -0.4148 -0.1196 -0.4135
  246MOL0     O33110   8.703   4.514   9.621 -0.6668  0.2726  0.1500
  246MOL0     C33111   8.614   4.549   9.511  0.3994 -0.1098 -0.0154
  246MOL0     C33112   8.496   4.457   9.495 -0.3253  0.6510 -0.1813
  246MOL0     C33113   8.540   4.313   9.455  0.7232  0.1498 -0.4972
  246MOL0     C33114   8.426   4.239   9.399  1.0413 -0.1997 -0.1613
  246MOL0     C33115   8.309   4.193   9.483 -0.7477 -0.5605 -0.4205
  246MOL0     C33116   8.179   4.177   9.410 -0.8597  0.1052 -0.0372
  246MOL0     C33117   8.109   4.307   9.372 -0.6653 -0.0294  0.2012
  246MOL0     C33118   7.971   4.269   9.321 -0.1387  0.0376  0.6839
  246MOL0    Cl33119   7.971   4.156   9.180  0.0563  0.0615 -0.2019
  246MOL0     C33120   8.591   4.401   9.798  0.1974 -0.0384  0.2881
  246MOL0     C33121   8.504   4.420   9.916 -0.2765 -0.2371 -0.7768
  246MOL0     O33122   8.597   4.666  10.207 -0.3125  0.2775 -0.5153
  246MOL0     C33123   8.439   4.709  10.424  0.0157  0.5411 -0.5292
  246MOL0     C33124   8.351   4.729  10.533 -0.2250 -0.2272  0.1041
  246MOL0     N33125   7.897   4.749  11.211  0.8088 -0.0677 -0.3148
  246MOL0     N33126   7.838   4.812  11.307 -0.2295  0.8796  0.2498
  246MOL0     C33127   7.497   5.826  10.824 -0.2785  0.4719 -0.5984
  246MOL0     C33128   7.439   5.882  10.707 -1.0813  0.1697 -0.5013
  246MOL0     C33129   7.287   6.003  10.321  0.1935 -0.5370  0.3239
  246MOL0     C33130   7.318   6.123  10.255 -0.5408 -0.9873  1.2300
  246MOL0     C33131   7.236   6.177  10.149 -0.5003 -0.0438 -0.2163
  246MOL0     C33132   7.114   6.119  10.117 -0.0355 -0.4075 -0.1443
  246MOL0     O33133   7.031   6.176  10.027  0.1791 -0.0829  0.9345
  246MOL0     C33134   6.955   6.286  10.077  0.2873  0.0513  0.3985
  246MOL0     C33135   6.816   6.248  10.122 -0.5046  0.0806 -0.4907
  246MOL0     C33136   6.724   6.223  10.003  0.4083 -0.7239  1.0025
  246MOL0     C33137   6.590   6.169  10.045 -0.7944  0.6931 -0.3604
  246MOL0     C33138   6.517   6.248  10.141 -0.4889 -1.7781 -1.1127
  246MOL0     C33139   6.449   6.313  10.216 -0.5289 -0.6408  0.1012
  246MOL0     C33140   7.081   6.003  10.172  0.8260  0.5846 -0.0334
  246MOL0     C33141   7.164   5.940  10.266 -0.1570  0.4673 -0.4197
  246MOL0     C33142   7.111   5.818  10.324  0.7237  0.8250 -0.7041
  246MOL0     H33143   7.500   5.611  10.515  1.6158  0.3195 -1.1261
  246MOL0     H33144   7.588   5.520  10.716  0.6658  0.3637  0.5118
  246MOL0     H33145   7.609   5.803  11.071 -0.2972 -0.4588 -1.4806
  246MOL0     H33146   7.463   5.722  11.105  0.7391  0.5301  3.1002
  246MOL0     H33147   7.634   5.693  11.280 -0.0899  2.1848 -1.2215
  246MOL0     H33148   7.739   5.610  11.159  0.0886 -0.6960 -1.1122
  246MOL0     H33149   7.524   5.442  11.134 -1.7782 -1.1786  1.0011
  246MOL0     H33150   7.448   5.528  11.260 -0.3589  0.6072 -0.6281
  246MOL0     H33151   7.690   5.343  11.291  0.7640 -0.6088  2.3169
  246MOL0     H33152   7.642   5.458  11.412 -0.3440 -0.9066  1.2887
  246MOL0     H33153   7.446   5.348  11.458  2.1985  1.5900  1.1622
  246MOL0     H33154   7.426   5.262  11.296 -0.8444 -0.6960  1.4976
  246MOL0     H33155   7.626   5.208  11.490 -1.4305 -0.7677 -0.6409
  246MOL0     H33156   7.467   5.113  11.465 -0.9404 -3.0079 -3.0580
  246MOL0     H33157   7.695   5.125  11.260  0.1298 -0.7219 -1.0999
  246MOL0     H33158   7.540   5.058  11.231  1.5820 -2.2050 -1.1186
  246MOL0     H33159   7.701   4.954  11.452  0.0370 -3.0903 -0.0128
  246MOL0     H33160   7.551   4.894  11.393 -0.0750  1.6490  0.9489
  246MOL0     H33161   7.640   4.864  11.058  0.1916 -0.3043 -0.1549
  246MOL0     H33162   7.846   4.597  10.981 -3.3361 -0.1995 -0.4357
  246MOL0     H33163   7.791   4.735  10.891  1.3732  0.5616 -1.9147
  246MOL0     H33164   8.067   4.757  11.011  1.9307 -0.3015 -0.7282
  246MOL0     H33165   8.046   4.630  10.886 -0.2892 -0.4433  1.9489
  246MOL0     H33166   8.011   4.919  10.855 -1.6665 -0.0901 -0.5028
  246MOL0     H33167   7.951   4.809  10.733  0.1269  1.0249 -0.2583
  246MOL0     H33168   8.238   4.787  10.796 -0.6494  3.0051  2.4163
  246MOL0     H33169   8.185   4.894  10.684  3.4008 -1.5595  0.0377
  246MOL0     H33170   8.080   4.573  10.407  0.1339 -1.4899  2.9880
  246MOL0     H33171   8.232   4.536  10.213  3.7345  0.5022 -1.8892
  246MOL0     H33172   8.579   4.761   9.951 -0.7986  0.5513  0.3294
  246MOL0     H33173   8.707   4.719   9.765 -1.0462  0.8020 -2.0377
  246MOL0     H33174   8.591   4.644   9.560  3.9204  0.4611  0.8406
  246MOL0     H33175   8.649   4.564   9.409 -1.3789 -0.5645 -0.7158
  246MOL0     H33176   8.439   4.451   9.589  0.3859 -2.8994  0.1620
  246MOL0     H33177   8.432   4.509   9.424  1.3238  1.0680 -1.4101
  246MOL0     H33178   8.623   4.322   9.385  0.5258 -0.0790 -0.7628
  246MOL0     H33179   8.566   4.264   9.549  0.6963  1.5611  0.2832
  246MOL0     H33180   8.480   4.153   9.359  1.1345 -0.2805  0.1370
  246MOL0     H33181   8.387   4.296   9.313  0.3150  2.0617  1.5617
  246MOL0     H33182   8.287   4.257   9.569 -0.8003 -0.1101 -0.7714
  246MOL0     H33183   8.340   4.093   9.517 -2.5487 -0.3404  2.1583
  246MOL0     H33184   8.192   4.122   9.317 -0.6980  0.3998 -0.1919
  246MOL0     H33185   8.108   4.129   9.479 -0.1071 -0.3093  0.4618
  246MOL0     H33186   8.162   4.357   9.290  1.2696 -1.8810  0.2176
  246MOL0     H33187   8.098   4.379   9.453  1.9167 -1.5983  2.0906
  246MOL0     H33188   7.931   4.217   9.408  1.2941 -1.1998  0.6388
  246MOL0     H33189   7.911   4.356   9.296 -0.4029 -0.8118 -1.9669
  246MOL0     H33190   8.607   4.304   9.752  1.4498 -0.3767  1.3860
  246MOL0     H33191   8.457   4.342   9.975 -1.8796  1.3850  0.2087
  246MOL0     H33192   8.542   4.740  10.438  0.1712  2.3889 -4.3762
  246MOL0     H33193   8.386   4.769  10.628 -2.7808  0.5523  0.7945
  246MOL0     H33194   7.513   5.889  10.911  2.4752 -0.1755 -0.5698
  246MOL0     H33195   7.400   5.983  10.720  0.9450  1.0096 -0.4679
  246MOL0     H33196   7.402   6.183  10.288  0.5867 -1.9104  0.1435
  246MOL0     H33197   7.262   6.267  10.094 -1.3549  0.4519  0.1633
  246MOL0     H33198   6.951   6.366  10.002  2.5433 -0.5160 -0.3978
  246MOL0     H33199   7.003   6.332  10.164  2.0097  1.3001 -1.1258
  246MOL0     H33200   6.768   6.335  10.169  1.9581  1.8989 -1.1176
  246MOL0     H33201   6.821   6.163  10.190 -2.2751  2.0003  2.3016
  246MOL0     H33202   6.766   6.141   9.944 -1.8226 -0.8901 -0.4702
  246MOL0     H33203   6.717   6.318   9.950  0.9564 -1.7829 -1.0999
  246MOL0     H33204   6.523   6.147   9.961 -0.6640  0.2327 -0.3421
  246MOL0     H33205   6.609   6.070  10.087  0.4004  1.3031  0.5850
  246MOL0     H33206   6.381   6.354  10.288  1.2821  0.0614  1.5042
  246MOL0     H33207   6.985   5.955  10.162  0.7746  0.7383 -0.2964
  246MOL0     H33208   7.047   5.767  10.252 -3.4638  2.2801  1.6321
  246MOL0     H33209   7.184   5.747  10.366  1.1091  0.4718 -1.9202
  246MOL0     H33210   7.059   5.851  10.414  3.3142  4.7461 -0.3813
  247MOL0     O33211   6.179   3.031   5.014 -0.9407 -0.4992 -0.2340
  247MOL0     C33212   6.166   3.014   5.137 -0.5615  0.5647  0.0407
  247MOL0     O33213   6.218   2.906   5.210 -0.6760 -0.2320  0.4531
  247MOL0     C33214   6.273   2.812   5.127  0.5137 -0.2743 -0.5821
  247MOL0     C33215   6.192   2.724   5.047 -0.4593 -1.1654 -0.4912
  247MOL0     C33216   6.249   2.645   4.943  0.1574 -1.0572 -0.3432
  247MOL0     C33217   6.385   2.642   4.928  0.1327 -0.2408  0.7927
  247MOL0     O33218   6.422   2.559   4.829 -0.2094 -0.5211 -0.3299
  247MOL0     C33219   6.556   2.507   4.830  0.4583  0.3270  0.1388
  247MOL0     C33220   6.576   2.412   4.957 -0.4978  0.4716 -1.2288
  247MOL0     C33221   6.716   2.386   4.989  0.3055  0.3342 -0.1592
  247MOL0     C33222   6.739   2.300   5.113 -0.6562  0.3300  0.3386
  247MOL0     C33223   6.885   2.285   5.150 -0.3745 -0.2936 -0.2994
  247MOL0     C33224   6.967   2.191   5.061  0.6830  0.4071  0.3153
  247MOL0     C33225   6.927   2.036   5.091 -0.1190 -0.5137  0.6776
  247MOL0     C33226   7.048   1.940   5.070 -0.0625  1.1893 -0.9460
  247MOL0     N33227   7.111   1.962   4.940 -0.7877 -0.0971 -0.3369
  247MOL0     C33228   7.061   1.922   4.816 -0.2106  0.2495 -0.2048
  247MOL0     C33229   7.154   1.967   4.730 -0.1522 -0.1051  0.0130
  247MOL0     C33230   7.166   1.940   4.583 -0.5113  0.2859  1.0848
  247MOL0     C33231   7.212   1.794   4.547 -0.2474  0.4946  0.0541
  247MOL0     C33232   7.332   1.741   4.623  0.5311  0.4752 -0.1889
  247MOL0     C33233   7.424   1.655   4.529  0.3983 -0.2526  0.0036
  247MOL0     O33234   7.492   1.736   4.438 -1.0536  0.3961  0.0405
  247MOL0     C33235   7.510   1.677   4.324 -1.2913  0.1814  0.2185
  247MOL0     C33236   7.635   1.687   4.267 -0.2551  0.1699 -0.6998
  247MOL0     C33237   7.657   1.624   4.141  1.2295  0.0629  0.5475
  247MOL0     C33238   7.551   1.553   4.070  0.1768 -0.7928 -0.3926
  247MOL0     C33239   7.566   1.508   3.933  0.4547 -0.2001  0.1799
  247MOL0     O33240   7.704   1.498   3.888 -0.7270 -0.0034 -0.0461
  247MOL0     C33241   7.715   1.429   3.773 -0.2859 -0.2844  0.8247
  247MOL0     C33242   7.692   1.296   3.738  0.4194  0.8142 -0.3178
  247MOL0     C33243   7.713   1.256   3.600 -0.0097  0.0655 -0.1713
  247MOL0     C33244   7.770   1.333   3.499  0.2254 -0.0470  0.5945
  247MOL0     O33245   7.774   1.277   3.376  0.0926  0.3102  0.3045
  247MOL0     C33246   7.822   1.356   3.273  0.6139 -0.3898  0.5929
  247MOL0     C33247   7.804   1.296   3.137 -0.5323  0.3405 -0.0815
  247MOL0     C33248   7.894   1.168   3.111 -0.2516  0.4882 -0.3343
  247MOL0     C33249   7.876   1.147   2.960 -0.0638 -0.1538 -0.0087
  247MOL0     C33250   7.992   1.049   2.915 -0.0030  0.0153  0.9734
  247MOL0     C33251   7.996   1.046   2.759  0.3542 -0.1131 -0.7615
  247MOL0     C33252   8.067   0.916   2.711  0.6067  0.3973  0.0978
  247MOL0     C33253   8.217   0.916   2.735  0.1249 -0.0171 -0.7597
  247MOL0    Cl33254   8.292   1.037   2.633  0.0610  0.5572  0.3078
  247MOL0     C33255   7.792   1.469   3.540 -0.6654  0.0162  0.5123
  247MOL0     C33256   7.765   1.511   3.676 -0.3358  0.3036 -0.8754
  247MOL0     O33257   7.470   1.461   3.867 -0.2938 -0.3890  0.3108
  247MOL0     C33258   7.431   1.552   4.137  0.4767  0.1215  0.2258
  247MOL0     C33259   7.413   1.612   4.256  0.1918 -0.2045  0.1403
  247MOL0     N33260   7.256   2.027   4.809 -0.5318 -0.5472 -0.1506
  247MOL0     N33261   7.228   2.015   4.933  0.1052 -0.7750  0.3710
  247MOL0     C33262   6.465   2.722   5.004  1.1055 -0.6399 -0.5857
  247MOL0     C33263   6.413   2.813   5.097  0.0295 -1.5460  0.2051
  247MOL0     C33264   6.120   3.129   5.223  0.2986 -0.1016  0.5125
  247MOL0     C33265   6.132   3.109   5.364 -0.4583  0.7448  0.2761
  247MOL0     C33266   6.075   3.208   5.445 -0.7118 -0.2875  0.4109
  247MOL0     C33267   6.012   3.320   5.401  0.8163 -0.3619 -0.6275
  247MOL0     O33268   5.966   3.432   5.469 -0.0277  0.2773  0.9622
  247MOL0     C33269   6.028   3.452   5.598 -0.3001  0.6592 -0.2282
  247MOL0     C33270   6.176   3.497   5.592 -0.5440 -0.3108  0.0533
  247MOL0     C33271   6.250   3.474   5.727  0.2433  0.1072  1.1114
  247MOL0     C33272   6.371   3.563   5.738 -0.5504 -0.1521  1.5878
  247MOL0     C33273   6.443   3.541   5.866  0.1973  0.3043  0.1152
  247MOL0     C33274   6.502   3.508   5.967  0.0483  0.0686  0.1767
  247MOL0     C33275   5.987   3.327   5.264 -0.2670  0.1301  0.1326
  247MOL0     C33276   6.043   3.235   5.178 -0.2716 -0.7047 -0.2083
  247MOL0     C33277   6.014   3.268   5.028  0.3279 -1.0252 -0.2411
  247MOL0     H33278   6.084   2.722   5.053 -0.4276  0.2656  2.9856
  247MOL0     H33279   6.185   2.592   4.873 -0.7092  0.0441 -0.4183
  247MOL0     H33280   6.589   2.458   4.738 -2.7282  0.8284 -1.4270
  247MOL0     H33281   6.626   2.590   4.839  2.1281 -1.0977  0.6611
  247MOL0     H33282   6.532   2.315   4.929 -0.6901  1.1102 -3.3210
  247MOL0     H33283   6.526   2.456   5.043  2.8389 -1.1050  1.7787
  247MOL0     H33284   6.774   2.479   4.988  0.3823  0.3290  1.4511
  247MOL0     H33285   6.765   2.333   4.907 -2.0152 -0.6241 -0.9932
  247MOL0     H33286   6.695   2.358   5.196 -1.7415  0.6619 -0.4460
  247MOL0     H33287   6.682   2.207   5.107  0.8514 -0.6904  1.1442
  247MOL0     H33288   6.925   2.387   5.155  1.6376 -1.0707  0.5767
  247MOL0     H33289   6.900   2.236   5.247 -2.9602 -5.5779 -2.1652
  247MOL0     H33290   6.958   2.207   4.954 -1.5077 -0.7202  0.2663
  247MOL0     H33291   7.068   2.211   5.098  0.2892 -1.7512  2.9467
  247MOL0     H33292   6.843   2.014   5.024 -1.4299  2.6885  1.0905
  247MOL0     H33293   6.892   2.029   5.195 -0.5032  2.3876  0.8290
  247MOL0     H33294   7.124   1.958   5.146  0.1478  3.2401 -1.5685
  247MOL0     H33295   7.017   1.836   5.081  1.5678  0.7582 -0.0783
  247MOL0     H33296   6.965   1.870   4.814 -0.1659 -0.4862  4.5128
  247MOL0     H33297   7.069   1.958   4.536  0.5833  0.3904 -1.2973
  247MOL0     H33298   7.237   2.019   4.555 -1.6164  1.4264  1.3648
  247MOL0     H33299   7.127   1.726   4.549  1.3030 -1.6878 -2.0917
  247MOL0     H33300   7.241   1.799   4.441  2.1808 -2.7268  0.4104
  247MOL0     H33301   7.304   1.696   4.719  1.0870  0.0574 -0.2164
  247MOL0     H33302   7.388   1.827   4.661  0.8227 -0.3632  1.3627
  247MOL0     H33303   7.360   1.568   4.512 -0.8860 -0.7313  5.4005
  247MOL0     H33304   7.505   1.604   4.582  0.9004 -0.9193 -1.3615
  247MOL0     H33305   7.712   1.750   4.310  0.0970 -0.9608  0.3518
  247MOL0     H33306   7.754   1.633   4.093  1.0463  2.6181  0.4802
  247MOL0     H33307   7.654   1.232   3.817 -0.7186  0.3970 -1.1676
  247MOL0     H33308   7.697   1.151   3.578  0.6471 -0.2932  0.9823
  247MOL0     H33309   7.785   1.459   3.275  0.6767 -0.3606  2.2236
  247MOL0     H33310   7.929   1.374   3.288  0.7134  1.9647 -2.1608
  247MOL0     H33311   7.699   1.266   3.127 -0.6553  0.9900 -0.7946
  247MOL0     H33312   7.815   1.374   3.062 -0.1393  0.8668  0.5121
  247MOL0     H33313   7.999   1.193   3.126 -0.7254  1.1666  2.4558
  247MOL0     H33314   7.857   1.090   3.178  1.2183 -0.0206 -0.0731
  247MOL0     H33315   7.885   1.239   2.901  1.4390  1.3081  2.3582
  247MOL0     H33316   7.776   1.106   2.939  0.3294 -1.8792  1.2883
  247MOL0     H33317   7.963   0.951   2.954  1.2644 -0.3203  1.1262
  247MOL0     H33318   8.088   1.072   2.963 -0.0220 -0.2039  1.1149
  247MOL0     H33319   7.897   1.056   2.714 -0.0976  2.3202  0.5604
  247MOL0     H33320   8.063   1.129   2.733 -1.5135  1.5266 -0.5649
  247MOL0     H33321   8.058   0.912   2.602 -2.1423 -1.5453  0.2857
  247MOL0     H33322   8.031   0.831   2.769  0.8391 -1.6653 -2.6209
  247MOL0     H33323   8.248   0.924   2.840  2.1382  2.4725 -1.4127
  247MOL0     H33324   8.273   0.832   2.695 -1.1776 -0.5661 -1.4703
  247MOL0     H33325   7.834   1.546   3.476 -0.1365  0.0104  0.8482
  247MOL0     H33326   7.778   1.613   3.710  0.4959 -0.0387 -0.1201
  247MOL0     H33327   7.344   1.500   4.098  0.5797  1.5614 -2.0868
  247MOL0     H33328   7.314   1.614   4.301  0.6274  1.9070  1.1178
  247MOL0     H33329   6.573   2.720   4.988  0.9446 -1.0690 -1.6494
  247MOL0     H33330   6.471   2.890   5.146  1.6146 -1.3463 -1.8615
  247MOL0     H33331   6.174   3.026   5.419 -4.1769 -0.3757  1.6525
  247MOL0     H33332   6.081   3.187   5.552 -0.7706  1.8636  0.8728
  247MOL0     H33333   6.024   3.348   5.632 -0.1221 -0.6775 -3.8587
  247MOL0     H33334   5.971   3.517   5.666  0.9728  1.3760  0.1928
  247MOL0     H33335   6.178   3.605   5.573 -0.6391 -0.3832 -0.3900
  247MOL0     H33336   6.242   3.454   5.517  1.5152 -0.8565  2.0782
  247MOL0     H33337   6.273   3.367   5.728  0.1961  0.0893  2.1608
  247MOL0     H33338   6.182   3.493   5.811 -0.3730 -0.7940  0.8406
  247MOL0     H33339   6.440   3.534   5.659 -2.1519 -0.7652  0.3717
  247MOL0     H33340   6.340   3.667   5.723  1.7549  0.8651  3.2814
  247MOL0     H33341   6.548   3.479   6.060 -0.6118 -2.3186 -0.1601
  247MOL0     H33342   5.933   3.411   5.222  0.0144 -0.6442 -1.8765
  247MOL0     H33343   6.100   3.331   5.002 -0.6949 -0.3266 -2.1957
  247MOL0     H33344   6.015   3.180   4.963  2.5980 -1.3411  0.1435
  247MOL0     H33345   5.917   3.319   5.020  0.7058  0.2422  2.3649
  248MOL0     O33346  10.139   5.969   9.693 -0.1060 -0.1939  0.3952
  248MOL0     C33347  10.152   6.090   9.704 -0.2383  0.4054  0.2137
  248MOL0     O33348  10.098   6.167   9.803  0.0152 -0.2812  0.2947
  248MOL0     C33349  10.012   6.095   9.882 -0.2759 -1.0335  0.1456
  248MOL0     C33350  10.055   6.053  10.006  0.1040 -1.2452  0.4724
  248MOL0     C33351   9.977   5.966  10.084 -0.3088 -0.2950  0.0063
  248MOL0     C33352   9.842   5.940  10.043  0.5564  0.9609 -1.0288
  248MOL0     O33353   9.760   5.852  10.109  1.0133 -0.8733 -0.3783
  248MOL0     C33354   9.732   5.882  10.242  0.2822 -0.0168 -0.3667
  248MOL0     C33355   9.591   5.830  10.284 -1.3292  0.3484  0.2577
  248MOL0     C33356   9.495   5.947  10.306  0.3029  0.1351  0.7468
  248MOL0     C33357   9.529   6.016  10.440  0.1211 -0.6479 -0.1492
  248MOL0     C33358   9.394   6.075  10.503 -0.2305  0.5982 -0.4650
  248MOL0     C33359   9.424   6.118  10.657  0.7159 -0.1261  0.2220
  248MOL0     C33360   9.293   6.153  10.728  0.8745  0.4668 -1.0627
  248MOL0     C33361   9.317   6.141  10.884 -0.0849  0.7429  0.1722
  248MOL0     N33362   9.257   6.262  10.943 -0.2185 -1.2176  0.3328
  248MOL0     C33363   9.120   6.294  10.950  0.6931 -0.3127  0.2314
  248MOL0     C33364   9.105   6.426  10.985 -0.8862 -0.1071  0.5607
  248MOL0     C33365   8.975   6.503  11.001 -0.4922  0.6713  1.0130
  248MOL0     C33366   8.948   6.538  11.148  0.4007 -0.5479 -0.1273
  248MOL0     C33367   9.055   6.638  11.197 -0.5857  1.4670 -0.0796
  248MOL0     C33368   9.011   6.737  11.301 -0.1344 -0.0096  0.1822
  248MOL0     O33369   8.942   6.667  11.401 -0.1762  0.6612  0.1253
  248MOL0     C33370   8.871   6.714  11.503 -0.6866  0.2940 -0.1826
  248MOL0     C33371   8.866   6.842  11.561 -0.5954  0.1877 -0.1696
  248MOL0     C33372   8.783   6.869  11.670  0.2200 -0.8073  0.3991
  248MOL0     C33373   8.698   6.781  11.723  0.4856 -1.2781  0.3814
  248MOL0     C33374   8.598   6.823  11.824 -1.1247  0.6492  0.0211
  248MOL0     O33375   8.539   6.720  11.901 -0.3269 -0.5241 -0.6280
  248MOL0     C33376   8.433   6.755  11.979  0.6037 -0.4796 -0.5306
  248MOL0     C33377   8.441   6.717  12.121  0.8925 -0.0957  0.4606
  248MOL0     C33378   8.331   6.746  12.204 -0.6297  0.3809 -0.2985
  248MOL0     C33379   8.226   6.828  12.152 -0.0058 -0.0042 -0.0849
  248MOL0     O33380   8.114   6.868  12.214  0.0937  0.1643 -0.2149
  248MOL0     C33381   8.098   6.836  12.356 -0.8637  0.5648  1.0938
  248MOL0     C33382   7.961   6.894  12.393 -0.2743  0.4002 -0.0664
  248MOL0     C33383   7.917   6.886  12.544 -0.3992 -0.4592 -0.3439
  248MOL0     C33384   7.772   6.930  12.583  0.7845 -0.2609  0.0890
  248MOL0     C33385   7.652   6.870  12.508  0.0275  0.0227  0.3613
  248MOL0     C33386   7.514   6.920  12.559  0.6103 -0.7587 -0.3204
  248MOL0     C33387   7.495   6.947  12.705  0.0114 -0.6824  0.5070
  248MOL0     C33388   7.517   6.826  12.791  0.6828  1.4074  0.1039
  248MOL0    Cl33389   7.362   6.741  12.846 -0.5450 -0.0328 -0.4431
  248MOL0     C33390   8.229   6.853  12.012  0.5735 -0.0534  0.6030
  248MOL0     C33391   8.331   6.825  11.920  0.4461 -0.2568  0.3979
  248MOL0     O33392   8.582   6.941  11.840 -0.4613  0.5799 -0.2613
  248MOL0     C33393   8.696   6.652  11.661 -0.1457 -0.8931  0.4095
  248MOL0     C33394   8.785   6.618  11.553 -0.8488  0.2862  0.2793
  248MOL0     N33395   9.235   6.479  10.983 -0.0431  0.1886  0.3107
  248MOL0     N33396   9.321   6.381  10.965  0.4947 -0.4461  0.2230
  248MOL0     C33397   9.798   6.010   9.936  0.7760 -0.0237 -0.1255
  248MOL0     C33398   9.875   6.085   9.851  0.1443 -0.3856  0.5131
  248MOL0     C33399  10.225   6.154   9.592 -0.2056  0.6399  0.2914
  248MOL0     C33400  10.263   6.070   9.476  0.7415  0.2959  0.4641
  248MOL0     C33401  10.335   6.118   9.367 -0.2092  0.4502  1.1397
  248MOL0     C33402  10.375   6.249   9.367 -0.6391  0.5564 -0.5319
  248MOL0     O33403  10.435   6.310   9.267 -0.3745 -0.2446  0.4869
  248MOL0     C33404  10.488   6.236   9.154  0.4554  0.1504 -0.1822
  248MOL0     C33405  10.392   6.229   9.041  0.1796  0.3351  0.8049
  248MOL0     C33406  10.461   6.160   8.919  0.2425 -0.1757  0.2207
  248MOL0     C33407  10.490   6.009   8.926 -0.3434  0.0504 -0.8796
  248MOL0     C33408  10.399   5.931   9.005  0.5714  0.4779 -0.0942
  248MOL0     C33409  10.305   5.873   9.059 -0.2803 -0.0555 -0.1611
  248MOL0     C33410  10.339   6.333   9.476  0.0877  0.6541  0.0321
  248MOL0     C33411  10.275   6.290   9.595  0.5923  0.9937 -0.7759
  248MOL0     C33412  10.255   6.378   9.713 -0.1652 -0.9754 -0.1431
  248MOL0     H33413  10.160   6.058  10.035  0.3618  0.4386 -0.6392
  248MOL0     H33414  10.015   5.914  10.171 -1.5595 -1.2945 -0.0090
  248MOL0     H33415   9.812   5.840  10.305 -0.9729 -2.0118 -0.0061
  248MOL0     H33416   9.734   5.990  10.260  0.2477 -0.3557  2.0859
  248MOL0     H33417   9.595   5.759  10.367 -1.8106  1.2004  1.0334
  248MOL0     H33418   9.556   5.778  10.194  0.2905 -0.3731  0.0100
  248MOL0     H33419   9.391   5.916  10.297  0.8679 -2.1716  1.6521
  248MOL0     H33420   9.518   6.020  10.227  2.4048 -1.4965 -0.2608
  248MOL0     H33421   9.568   5.953  10.521 -0.7118  0.3566  1.0806
  248MOL0     H33422   9.600   6.099  10.438  2.3843 -2.4925 -0.7566
  248MOL0     H33423   9.363   6.165  10.449  2.7498  1.4515 -0.9155
  248MOL0     H33424   9.315   5.999  10.507  0.4855 -0.1022  1.9019
  248MOL0     H33425   9.483   6.033  10.694  4.5253  1.1347 -2.3326
  248MOL0     H33426   9.487   6.207  10.663  1.1964 -0.5526  2.6327
  248MOL0     H33427   9.214   6.083  10.700  0.6082 -0.2052  1.1308
  248MOL0     H33428   9.254   6.245  10.684  0.6849 -0.5952 -3.2403
  248MOL0     H33429   9.269   6.049  10.919  0.1733 -0.3006 -2.0561
  248MOL0     H33430   9.425   6.140  10.901 -0.0172 -1.1540 -0.2089
  248MOL0     H33431   9.042   6.222  10.929  1.2614 -0.6278 -0.8695
  248MOL0     H33432   8.975   6.594  10.941 -0.6475 -1.0467 -1.7592
  248MOL0     H33433   8.900   6.433  10.965  0.0296  0.3286  0.5942
  248MOL0     H33434   8.849   6.583  11.161 -0.5793 -2.7116  0.4007
  248MOL0     H33435   8.948   6.445  11.205  0.2027 -0.4329  0.0631
  248MOL0     H33436   9.091   6.699  11.114 -2.7132  0.4415 -1.8773
  248MOL0     H33437   9.141   6.580  11.234 -0.3418  1.3076 -0.8669
  248MOL0     H33438   8.940   6.804  11.251 -1.0263 -1.8669 -1.1626
  248MOL0     H33439   9.093   6.799  11.336  0.6570 -1.0550  0.2275
  248MOL0     H33440   8.928   6.924  11.526  0.9699 -1.8050 -2.3180
  248MOL0     H33441   8.782   6.971  11.707 -0.6964  0.1650 -2.1070
  248MOL0     H33442   8.539   6.685  12.156 -0.0181 -0.3458  2.9316
  248MOL0     H33443   8.333   6.719  12.309 -1.0042  2.3068  0.2324
  248MOL0     H33444   8.096   6.728  12.372 -0.1173  0.4744  0.6231
  248MOL0     H33445   8.168   6.895  12.416 -4.0724  2.3836  3.3727
  248MOL0     H33446   7.953   6.999  12.364 -2.2206  0.2856 -0.1165
  248MOL0     H33447   7.879   6.841  12.344  0.3651 -0.7858  0.1029
  248MOL0     H33448   7.921   6.785  12.584  1.2486 -0.5933 -0.8073
  248MOL0     H33449   7.984   6.951  12.600  2.1237 -2.1943 -1.2071
  248MOL0     H33450   7.755   7.038  12.583 -0.4594 -0.4100  1.5179
  248MOL0     H33451   7.759   6.917  12.691 -0.4588  1.4739  0.1808
  248MOL0     H33452   7.658   6.764  12.535 -2.4445  0.3159  2.3900
  248MOL0     H33453   7.664   6.879  12.400  2.2597 -1.2827  0.4246
  248MOL0     H33454   7.500   7.014  12.505  2.4319  1.6804  3.0600
  248MOL0     H33455   7.436   6.846  12.538  0.3335 -1.2100  2.0046
  248MOL0     H33456   7.396   6.995  12.713  0.3408  0.0646  0.1800
  248MOL0     H33457   7.560   7.029  12.737 -1.2906 -0.1705  1.9902
  248MOL0     H33458   7.580   6.752  12.742  3.5062  3.5855  0.1728
  248MOL0     H33459   7.572   6.857  12.881 -1.6893  0.8336  1.8498
  248MOL0     H33460   8.143   6.907  11.974 -0.1180  0.8973  3.2722
  248MOL0     H33461   8.321   6.835  11.812  1.2451 -2.8903  0.0199
  248MOL0     H33462   8.619   6.583  11.693 -1.9290  1.0318  0.4995
  248MOL0     H33463   8.783   6.524  11.500 -3.4662  0.5647 -0.2569
  248MOL0     H33464   9.695   6.012   9.902 -0.0820  1.6980  2.3443
  248MOL0     H33465   9.829   6.128   9.763 -1.2292  1.4347  2.0409
  248MOL0     H33466  10.226   5.970   9.454 -2.8843  1.1039  2.0407
  248MOL0     H33467  10.349   6.044   9.290 -1.0286  0.2386  1.1860
  248MOL0     H33468  10.505   6.132   9.183 -0.3415 -0.1436 -0.7305
  248MOL0     H33469  10.579   6.291   9.128 -1.0258  2.7323 -0.2795
  248MOL0     H33470  10.361   6.327   9.003  1.1320  0.4477  0.3032
  248MOL0     H33471  10.296   6.181   9.064  0.2337  1.2585  3.2010
  248MOL0     H33472  10.559   6.204   8.899  0.3317 -0.6248 -0.3602
  248MOL0     H33473  10.393   6.170   8.834 -1.2213 -1.6880  1.1625
  248MOL0     H33474  10.501   5.965   8.826  0.4051  0.8610 -1.1738
  248MOL0     H33475  10.587   5.999   8.977 -0.8669 -2.1949 -0.2239
  248MOL0     H33476  10.233   5.827   9.124 -0.3631  0.6579  0.2570
  248MOL0     H33477  10.343   6.441   9.478  1.1445  0.6529 -1.2491
  248MOL0     H33478  10.153   6.418   9.714  0.9019  2.0042 -1.3296
  248MOL0     H33479  10.269   6.330   9.810 -1.3094 -1.7297 -0.3235
  248MOL0     H33480  10.329   6.458   9.718  0.1333 -1.3227  2.6036
  249MOL0     O33481   4.823   5.196   0.029  0.4273 -0.1982 -0.2273
  249MOL0     C33482   4.922   5.154  -0.030  0.0648 -0.6259  0.1285
  249MOL0     O33483   4.927   5.083  -0.140 -1.0008  0.3812  0.9016
  249MOL0     C33484   4.819   5.075  -0.220  0.0117  0.1934 -0.9428
  249MOL0     C33485   4.755   5.187  -0.268  0.4375  0.1073 -0.1002
  249MOL0     C33486   4.671   5.172  -0.377  0.6084  0.0134 -1.3262
  249MOL0     C33487   4.658   5.047  -0.444 -0.3850  0.1854  0.5625
  249MOL0     O33488   4.589   5.045  -0.556  0.6295 -0.3818 -0.3690
  249MOL0     C33489   4.570   4.929  -0.641  0.3459 -0.3730 -0.5698
  249MOL0     C33490   4.667   4.948  -0.755  0.2573 -0.3817  0.5319
  249MOL0     C33491   4.645   4.828  -0.849  0.0387 -0.4754 -0.3838
  249MOL0     C33492   4.720   4.713  -0.792 -0.1732  0.0278  0.4434
  249MOL0     C33493   4.864   4.716  -0.835  0.1664  0.0215 -0.6103
  249MOL0     C33494   4.960   4.721  -0.707  0.4000  0.3850 -0.5258
  249MOL0     C33495   5.101   4.730  -0.750 -0.1188  0.3898 -0.1633
  249MOL0     C33496   5.196   4.720  -0.629  0.0052  0.2780 -0.5569
  249MOL0     N33497   5.190   4.839  -0.540 -0.0356 -0.1282 -0.0892
  249MOL0     C33498   5.260   4.958  -0.550  0.1899 -0.3402  0.3864
  249MOL0     C33499   5.243   5.022  -0.430 -0.6484 -0.0311  0.8344
  249MOL0     C33500   5.305   5.161  -0.389  0.9038 -0.5804  0.0848
  249MOL0     C33501   5.426   5.144  -0.305 -0.0277 -0.1308  0.8443
  249MOL0     C33502   5.444   5.270  -0.217 -0.1052 -0.1991 -0.2903
  249MOL0     C33503   5.574   5.267  -0.129 -0.9862 -0.4557  0.9512
  249MOL0     O33504   5.591   5.401  -0.082  0.1019 -0.6090 -0.0218
  249MOL0     C33505   5.704   5.464  -0.108  0.0221 -0.2627  0.2184
  249MOL0     C33506   5.728   5.571  -0.021  0.9706  0.0164  1.2524
  249MOL0     C33507   5.834   5.658  -0.042  0.4199  0.5403  0.0001
  249MOL0     C33508   5.932   5.647  -0.141  0.8414 -0.1923 -0.0099
  249MOL0     C33509   6.040   5.744  -0.167 -0.3898  0.0179 -0.5362
  249MOL0     O33510   6.089   5.813  -0.060 -0.4954 -0.0054  0.6671
  249MOL0     C33511   6.177   5.911  -0.075 -0.1819 -0.9085  1.7196
  249MOL0     C33512   6.123   6.039  -0.095  0.1385  0.3858  0.1471
  249MOL0     C33513   6.201   6.148  -0.123  0.8372 -0.1467  0.4895
  249MOL0     C33514   6.338   6.144  -0.122 -0.4038  0.4256 -0.2421
  249MOL0     O33515   6.407   6.249  -0.145 -0.6075 -0.5190  0.7758
  249MOL0     C33516   6.486   6.270  -0.023  1.3278 -0.0639  1.1126
  249MOL0     C33517   6.547   6.412  -0.052 -0.2797  0.2665  0.0707
  249MOL0     C33518   6.654   6.445   0.050 -0.1130 -0.1437  0.2180
  249MOL0     C33519   6.756   6.535  -0.018  0.6123  0.0636  0.2014
  249MOL0     C33520   6.885   6.584   0.063 -0.2867 -0.4591  0.0851
  249MOL0     C33521   6.977   6.675  -0.020 -0.5414  0.5121  0.3322
  249MOL0     C33522   6.904   6.796  -0.081 -1.0671 -0.7769  0.3300
  249MOL0     C33523   7.007   6.891  -0.132 -0.9716 -0.2014 -0.3367
  249MOL0    Cl33524   7.105   6.800  -0.249  0.1934 -0.1658  0.3434
  249MOL0     C33525   6.399   6.015  -0.098 -0.9944  0.4441 -0.2560
  249MOL0     C33526   6.320   5.902  -0.072  0.4370  0.4553 -0.2666
  249MOL0     O33527   6.079   5.754  -0.286  0.1290 -0.5286 -0.2702
  249MOL0     C33528   5.907   5.538  -0.236  0.1893  0.4534 -0.6164
  249MOL0     C33529   5.797   5.443  -0.217  0.7619  0.1108  0.4577
  249MOL0     N33530   5.171   4.932  -0.348  0.0252  0.0855 -0.1346
  249MOL0     N33531   5.128   4.825  -0.420  0.2219 -0.2677  0.6957
  249MOL0     C33532   4.724   4.930  -0.401 -0.2094 -0.0508 -0.4540
  249MOL0     C33533   4.802   4.953  -0.288 -0.2777  0.2830 -0.7387
  249MOL0     C33534   5.053   5.185   0.027 -0.8687  0.0211 -1.5646
  249MOL0     C33535   5.162   5.095  -0.005  0.8360 -0.5948 -0.3469
  249MOL0     C33536   5.284   5.101   0.052  0.5131  0.2563 -0.6285
  249MOL0     C33537   5.316   5.203   0.144  0.1083 -0.3574  0.0809
  249MOL0     O33538   5.446   5.207   0.187 -0.5401  0.0976  0.3211
  249MOL0     C33539   5.474   5.288   0.307  1.0050  0.0925  0.7850
  249MOL0     C33540   5.393   5.253   0.435  0.1881 -0.1648 -0.2968
  249MOL0     C33541   5.388   5.368   0.536  0.5639  0.0051  0.6249
  249MOL0     C33542   5.365   5.312   0.675  0.2063  0.0851 -0.0748
  249MOL0     C33543   5.367   5.427   0.759  0.2833 -0.0047 -0.0859
  249MOL0     C33544   5.382   5.524   0.826  0.4329 -0.9299 -1.1633
  249MOL0     C33545   5.211   5.301   0.183  0.2245  0.3042  0.3458
  249MOL0     C33546   5.084   5.290   0.117 -0.2941  0.0365 -0.1438
  249MOL0     C33547   4.994   5.403   0.166  0.2767  0.1798 -0.3421
  249MOL0     H33548   4.766   5.286  -0.224 -2.8543  1.1365 -1.2321
  249MOL0     H33549   4.606   5.253  -0.409  0.3826  0.3672  0.0024
  249MOL0     H33550   4.573   4.831  -0.592  1.6108 -0.4413 -0.7299
  249MOL0     H33551   4.475   4.934  -0.695 -0.3665  1.2187  0.7417
  249MOL0     H33552   4.768   4.945  -0.712 -0.1793  2.2192  1.9591
  249MOL0     H33553   4.646   5.042  -0.806 -2.0067 -0.9290  0.3478
  249MOL0     H33554   4.692   4.866  -0.941  1.9089  1.1592  1.1612
  249MOL0     H33555   4.540   4.809  -0.873 -0.3542  0.4868  0.5192
  249MOL0     H33556   4.712   4.703  -0.683 -3.4773 -1.7929  0.1648
  249MOL0     H33557   4.672   4.622  -0.829 -2.2661  0.5085  1.7844
  249MOL0     H33558   4.892   4.635  -0.903  4.1172  1.3604 -0.8173
  249MOL0     H33559   4.886   4.800  -0.902  0.5692 -2.2035 -3.4992
  249MOL0     H33560   4.942   4.796  -0.629  1.3475  1.7378 -1.5562
  249MOL0     H33561   4.952   4.621  -0.664  0.1524  1.0125  0.9538
  249MOL0     H33562   5.121   4.829  -0.794  1.1713  0.3419  0.2798
  249MOL0     H33563   5.124   4.650  -0.820  2.2762  1.2544 -0.4504
  249MOL0     H33564   5.157   4.635  -0.572  0.5785  0.9939  0.9726
  249MOL0     H33565   5.296   4.705  -0.671  0.1212  2.3136 -1.1250
  249MOL0     H33566   5.322   4.999  -0.629  0.1173  1.1942  1.0866
  249MOL0     H33567   5.335   5.209  -0.482 -2.9605  2.5049  0.1511
  249MOL0     H33568   5.235   5.227  -0.337  0.9576 -0.5407  0.1077
  249MOL0     H33569   5.413   5.053  -0.247 -2.7509  0.1979  0.8563
  249MOL0     H33570   5.517   5.130  -0.365  1.5378  0.4687  2.9758
  249MOL0     H33571   5.364   5.278  -0.143 -1.7371 -2.0265 -1.7642
  249MOL0     H33572   5.443   5.362  -0.276 -0.3208  0.0742  0.1371
  249MOL0     H33573   5.653   5.229  -0.195 -0.1095 -0.3003  1.8897
  249MOL0     H33574   5.574   5.201  -0.042  1.8158 -0.0100  1.3816
  249MOL0     H33575   5.644   5.593   0.045  1.4389 -2.3432  2.7563
  249MOL0     H33576   5.845   5.745   0.021  2.8402 -0.7779  1.5566
  249MOL0     H33577   6.015   6.049  -0.091 -0.0611  0.2414 -2.8244
  249MOL0     H33578   6.144   6.238  -0.142 -2.1804 -1.5320  2.3359
  249MOL0     H33579   6.422   6.287   0.064  0.1454  0.2851  0.2102
  249MOL0     H33580   6.558   6.189  -0.008 -2.0384 -3.1126  2.2361
  249MOL0     H33581   6.592   6.412  -0.152  0.4737  1.0287  0.3912
  249MOL0     H33582   6.474   6.494  -0.047 -1.6765 -0.4744 -4.2025
  249MOL0     H33583   6.634   6.521   0.127  1.2561  1.3842 -0.8715
  249MOL0     H33584   6.700   6.353   0.087  3.3736  0.9526 -0.9921
  249MOL0     H33585   6.703   6.623  -0.056  1.0872 -0.3811 -1.5970
  249MOL0     H33586   6.799   6.482  -0.103 -0.0853  1.6749 -1.2234
  249MOL0     H33587   6.947   6.508   0.110  0.2166 -1.0727 -1.5045
  249MOL0     H33588   6.846   6.650   0.141 -2.1316 -1.5437  0.1527
  249MOL0     H33589   7.061   6.715   0.036 -1.1171  1.3456  0.6194
  249MOL0     H33590   7.019   6.615  -0.101 -0.7228 -0.3437  0.8536
  249MOL0     H33591   6.849   6.845   0.000 -0.8631  0.4959 -0.2823
  249MOL0     H33592   6.832   6.767  -0.158 -0.8850 -0.3943  0.0174
  249MOL0     H33593   6.950   6.972  -0.177  0.5224 -0.2616 -2.4713
  249MOL0     H33594   7.069   6.929  -0.050 -1.1469  3.2087 -1.6607
  249MOL0     H33595   6.507   6.008  -0.108 -1.2474 -3.8142 -2.4904
  249MOL0     H33596   6.365   5.806  -0.050 -1.6204  0.0314  2.5641
  249MOL0     H33597   5.968   5.536  -0.325  1.3972  0.5452  0.1883
  249MOL0     H33598   5.784   5.370  -0.296  1.5583 -0.7903  1.1368
  249MOL0     H33599   4.734   4.837  -0.456  2.6388  1.0762 -2.1196
  249MOL0     H33600   4.860   4.876  -0.237  1.1261  3.3034  2.6070
  249MOL0     H33601   5.148   5.011  -0.072 -4.5803  0.6143 -1.2415
  249MOL0     H33602   5.362   5.028   0.030  0.5747  0.6246 -1.7420
  249MOL0     H33603   5.466   5.397   0.293  1.5763  0.0788  0.3225
  249MOL0     H33604   5.577   5.261   0.331  1.8210  1.2858 -1.0704
  249MOL0     H33605   5.452   5.167   0.467  0.1679 -0.7715 -1.7804
  249MOL0     H33606   5.294   5.216   0.408 -0.3461 -0.3903  1.8540
  249MOL0     H33607   5.318   5.447   0.509  2.5702  1.3309 -0.9633
  249MOL0     H33608   5.491   5.405   0.529 -0.1144  1.7540 -0.6866
  249MOL0     H33609   5.265   5.271   0.692 -0.5368  2.6835  2.6519
  249MOL0     H33610   5.440   5.237   0.700  0.9708  1.7875  3.2851
  249MOL0     H33611   5.406   5.600   0.897  0.2573 -1.2025 -0.8125
  249MOL0     H33612   5.234   5.379   0.255  2.8547 -0.0605  0.0216
  249MOL0     H33613   5.066   5.484   0.183  0.7017 -0.1215 -0.6592
  249MOL0     H33614   4.917   5.433   0.095  0.9460 -2.1238 -2.1665
  249MOL0     H33615   4.943   5.375   0.259 -2.1291  0.2176 -1.5857
  250MOL0     O33616   5.958   0.012   6.038 -0.0908 -0.7934  0.3103
  250MOL0     C33617   5.991   0.062   6.145 -0.0779  0.0152 -1.1831
  250MOL0     O33618   5.912   0.051   6.265 -0.9833  0.4239 -0.1211
  250MOL0     C33619   5.808  -0.042   6.264  0.5775 -0.0093  0.1442
  250MOL0     C33620   5.703  -0.019   6.180  0.0476 -1.1890 -0.2092
  250MOL0     C33621   5.605  -0.114   6.171  0.9149 -0.1554  0.1924
  250MOL0     C33622   5.596  -0.223   6.258 -0.6312 -0.8754  0.3269
  250MOL0     O33623   5.495  -0.313   6.258 -0.1055  0.9348 -0.3066
  250MOL0     C33624   5.468  -0.387   6.132 -0.3709  0.0127 -0.6889
  250MOL0     C33625   5.513  -0.534   6.161 -0.2451 -0.0545  0.2448
  250MOL0     C33626   5.479  -0.595   6.306  0.1331 -0.0039 -0.3071
  250MOL0     C33627   5.552  -0.732   6.336  0.5683  0.6583  0.0921
  250MOL0     C33628   5.499  -0.794   6.465  0.0094 -0.1826 -0.8759
  250MOL0     C33629   5.563  -0.726   6.585 -0.4834  0.4015  1.2135
  250MOL0     C33630   5.509  -0.785   6.725  0.4116 -0.6436  0.9102
  250MOL0     C33631   5.535  -0.704   6.848 -0.5115 -0.0798  0.4053
  250MOL0     N33632   5.660  -0.625   6.835 -0.0768  0.4247 -0.2468
  250MOL0     C33633   5.671  -0.499   6.774 -0.3478  0.1585 -0.1901
  250MOL0     C33634   5.802  -0.471   6.789  0.5051 -0.6297 -0.2227
  250MOL0     C33635   5.874  -0.354   6.743 -0.0549 -0.5232 -0.1905
  250MOL0     C33636   5.954  -0.357   6.610  0.4301  0.4809  0.8265
  250MOL0     C33637   6.078  -0.439   6.631 -0.4231  0.9284 -0.4574
  250MOL0     C33638   6.143  -0.492   6.498 -0.5774  0.1531 -0.3110
  250MOL0     O33639   6.179  -0.387   6.413 -0.1986  0.1059  0.9413
  250MOL0     C33640   6.309  -0.339   6.414 -0.9356  0.3536 -0.8196
  250MOL0     C33641   6.396  -0.334   6.521  0.3566  0.1150 -0.4577
  250MOL0     C33642   6.528  -0.282   6.506  0.0321 -0.3597  0.4426
  250MOL0     C33643   6.562  -0.217   6.387 -0.7121  0.5042  0.3560
  250MOL0     C33644   6.697  -0.150   6.383 -0.5943  0.0712 -0.6452
  250MOL0     O33645   6.772  -0.117   6.499  0.4530  0.3038  0.2881
  250MOL0     C33646   6.896  -0.071   6.479  0.2455 -0.3990 -0.9797
  250MOL0     C33647   7.004  -0.158   6.491  0.1199 -0.0472  0.2356
  250MOL0     C33648   7.135  -0.108   6.488  0.7456  0.1889  0.5866
  250MOL0     C33649   7.160   0.029   6.472  0.5724  1.0299  0.8840
  250MOL0     O33650   7.278   0.083   6.448 -0.0787 -0.3460  0.1593
  250MOL0     C33651   7.361   0.030   6.351  0.3623  0.2981  0.3503
  250MOL0     C33652   7.440   0.139   6.277 -0.3587 -0.4613  0.4963
  250MOL0     C33653   7.535   0.082   6.170  0.0321  0.5500 -0.5098
  250MOL0     C33654   7.472  -0.006   6.057  0.2884 -0.0571 -0.2523
  250MOL0     C33655   7.581  -0.070   5.971 -0.8863  0.8878  0.0896
  250MOL0     C33656   7.596   0.005   5.834 -0.0705  0.4290 -0.3332
  250MOL0     C33657   7.715  -0.056   5.750 -0.0869  0.0383  0.2250
  250MOL0     C33658   7.667  -0.180   5.675  0.4068 -0.4110 -0.1221
  250MOL0    Cl33659   7.810  -0.239   5.589  0.2849 -0.1841  0.1287
  250MOL0     C33660   7.051   0.113   6.466  0.3372  0.2761  1.1023
  250MOL0     C33661   6.916   0.064   6.467  0.9609 -0.5361 -0.2455
  250MOL0     O33662   6.753  -0.135   6.267  0.4764 -0.2526  0.0873
  250MOL0     C33663   6.469  -0.215   6.286  0.3766 -0.9058 -0.1534
  250MOL0     C33664   6.351  -0.281   6.295  0.4909 -0.2711 -0.0336
  250MOL0     N33665   5.858  -0.565   6.865 -0.5718 -0.7345 -0.2843
  250MOL0     N33666   5.776  -0.647   6.902  0.2144 -0.7297  0.3845
  250MOL0     C33667   5.708  -0.247   6.338 -0.2056 -0.0738 -0.3215
  250MOL0     C33668   5.814  -0.154   6.340 -0.8620 -0.2603 -0.6521
  250MOL0     C33669   6.123   0.132   6.146  1.0500 -0.5387  0.4589
  250MOL0     C33670   6.217   0.097   6.250 -1.1030 -0.6269  0.0160
  250MOL0     C33671   6.346   0.157   6.255  0.7895 -1.6672  0.2908
  250MOL0     C33672   6.378   0.244   6.155  0.3521 -0.4082  0.2453
  250MOL0     O33673   6.501   0.304   6.171  0.4023 -0.0825  0.3934
  250MOL0     C33674   6.535   0.433   6.118  0.3311 -0.2679 -0.5464
  250MOL0     C33675   6.641   0.504   6.197 -0.2707 -0.3626 -0.8492
  250MOL0     C33676   6.770   0.414   6.182  0.0165 -0.3388 -0.5664
  250MOL0     C33677   6.874   0.432   6.293 -1.0206 -0.8157  0.2452
  250MOL0     C33678   6.939   0.568   6.282 -0.2604  0.8536  0.3085
  250MOL0     C33679   6.982   0.676   6.289 -1.0277  0.5103  0.0409
  250MOL0     C33680   6.292   0.280   6.056 -0.1442  0.2438  0.2202
  250MOL0     C33681   6.166   0.232   6.047  0.9122  0.2098 -0.1802
  250MOL0     C33682   6.077   0.290   5.937  0.2609  0.4120 -0.3589
  250MOL0     H33683   5.696   0.068   6.116 -0.8098 -1.1158 -0.0372
  250MOL0     H33684   5.525  -0.096   6.100  2.4904  0.5343 -1.4947
  250MOL0     H33685   5.359  -0.399   6.130 -0.3315 -0.6634  0.2675
  250MOL0     H33686   5.514  -0.338   6.046  1.3987  2.2427  1.4048
  250MOL0     H33687   5.622  -0.541   6.158 -0.3245 -1.2268 -0.9971
  250MOL0     H33688   5.469  -0.595   6.081 -0.8967  0.3776  0.2618
  250MOL0     H33689   5.374  -0.613   6.283  0.0332 -3.2788  2.1587
  250MOL0     H33690   5.471  -0.526   6.391 -0.6591 -0.0902 -0.3026
  250MOL0     H33691   5.531  -0.800   6.252  1.6977  0.2512  0.1183
  250MOL0     H33692   5.661  -0.725   6.347  0.5984  0.4470 -0.0542
  250MOL0     H33693   5.389  -0.797   6.458  0.0363  0.7867 -2.1364
  250MOL0     H33694   5.521  -0.901   6.458  2.0625  0.2480 -1.4618
  250MOL0     H33695   5.670  -0.744   6.585 -0.5378 -0.0525 -0.2325
  250MOL0     H33696   5.543  -0.621   6.562 -2.1914 -0.6500 -2.9389
  250MOL0     H33697   5.552  -0.884   6.742 -2.7759 -2.0021  1.8706
  250MOL0     H33698   5.404  -0.810   6.707  1.3613 -2.5413 -3.0050
  250MOL0     H33699   5.449  -0.646   6.880  0.7510  0.9765  2.0198
  250MOL0     H33700   5.550  -0.781   6.924 -1.1249  0.3638  0.9788
  250MOL0     H33701   5.590  -0.446   6.726 -0.0898 -1.5307 -2.6655
  250MOL0     H33702   5.804  -0.270   6.732 -1.9279 -2.1508 -1.1529
  250MOL0     H33703   5.944  -0.331   6.824  0.1852 -0.2437 -0.4708
  250MOL0     H33704   5.892  -0.406   6.535  0.6827 -1.0026  1.5514
  250MOL0     H33705   5.977  -0.254   6.580  0.0502  0.4788  0.5232
  250MOL0     H33706   6.057  -0.526   6.692 -1.0162  0.4487 -1.3240
  250MOL0     H33707   6.154  -0.384   6.688 -1.0881 -2.0301  3.6641
  250MOL0     H33708   6.068  -0.555   6.450 -0.5853 -2.4617  2.8074
  250MOL0     H33709   6.234  -0.552   6.509  1.9554  3.9558  2.3155
  250MOL0     H33710   6.365  -0.356   6.623  2.2928 -1.3724 -0.1322
  250MOL0     H33711   6.595  -0.271   6.591  0.0569  3.4014  0.0773
  250MOL0     H33712   6.975  -0.262   6.495 -1.9425  0.4928  0.4401
  250MOL0     H33713   7.222  -0.174   6.490 -1.7151 -3.3720  0.2800
  250MOL0     H33714   7.428  -0.034   6.409  0.5920  1.4756  1.4229
  250MOL0     H33715   7.308  -0.027   6.275 -2.1146  0.2128  2.0515
  250MOL0     H33716   7.372   0.204   6.221 -0.2652 -0.9563 -0.1949
  250MOL0     H33717   7.493   0.211   6.340 -3.7118 -1.4546  4.9960
  250MOL0     H33718   7.605   0.151   6.122  1.5188  0.3460  1.2419
  250MOL0     H33719   7.597   0.023   6.239  0.3799  1.1069 -0.3387
  250MOL0     H33720   7.407   0.072   6.017 -1.7828  0.0256  2.8843
  250MOL0     H33721   7.394  -0.076   6.091 -0.2153 -0.7505 -2.6628
  250MOL0     H33722   7.550  -0.171   5.944 -0.4366  0.6727  0.3769
  250MOL0     H33723   7.673  -0.063   6.029 -1.9533  1.3516  1.7983
  250MOL0     H33724   7.496   0.011   5.789 -2.1088  1.0322  3.8383
  250MOL0     H33725   7.625   0.110   5.838  1.9038 -0.0563 -1.0246
  250MOL0     H33726   7.794  -0.080   5.822 -0.8068  1.3844  1.5145
  250MOL0     H33727   7.759   0.017   5.681 -0.3686 -1.2964 -1.4310
  250MOL0     H33728   7.635  -0.259   5.744  4.2497 -2.0576  0.0886
  250MOL0     H33729   7.582  -0.156   5.612 -1.1092 -0.7020  1.7153
  250MOL0     H33730   7.080   0.217   6.454  2.8084 -0.3544  0.9967
  250MOL0     H33731   6.822   0.119   6.462 -0.8709 -3.3261  0.9067
  250MOL0     H33732   6.485  -0.144   6.206  1.2707  0.5508  1.2686
  250MOL0     H33733   6.280  -0.270   6.213  2.8808 -1.5752 -2.4385
  250MOL0     H33734   5.714  -0.349   6.374 -1.2571 -0.2225 -0.5234
  250MOL0     H33735   5.909  -0.192   6.378  0.3289 -0.8309 -3.9225
  250MOL0     H33736   6.192   0.015   6.317  0.9185 -3.6875 -2.6370
  250MOL0     H33737   6.421   0.152   6.333 -0.5195 -2.1440  1.5790
  250MOL0     H33738   6.447   0.496   6.129  1.7014  1.6317  0.0672
  250MOL0     H33739   6.572   0.425   6.015  1.2169  2.9483 -0.5727
  250MOL0     H33740   6.614   0.513   6.303 -2.0889  2.3851 -1.4383
  250MOL0     H33741   6.673   0.607   6.176 -0.5716 -0.1851 -0.4488
  250MOL0     H33742   6.818   0.444   6.088 -0.4693 -0.0528 -0.7249
  250MOL0     H33743   6.739   0.309   6.191 -1.3507 -0.0991 -2.0971
  250MOL0     H33744   6.845   0.407   6.396 -3.0360 -2.5736 -0.6844
  250MOL0     H33745   6.962   0.370   6.274 -1.1748 -0.6113 -1.2172
  250MOL0     H33746   7.001   0.781   6.297  0.5183  0.1371  3.3269
  250MOL0     H33747   6.326   0.351   5.982  4.6585 -0.2660  1.6199
  250MOL0     H33748   5.979   0.243   5.926 -0.2319  1.1499  0.7897
  250MOL0     H33749   6.060   0.395   5.960 -3.5022  0.7220 -3.5242
  250MOL0     H33750   6.121   0.290   5.836 -1.0367  1.8112 -0.9453
  251MOL0     O33751   6.071   4.936  10.890 -0.5369  0.7393  0.7694
  251MOL0     C33752   6.113   5.035  10.950  0.1971  0.7691  0.5348
  251MOL0     O33753   6.065   5.161  10.948 -0.3705  0.1927 -0.2111
  251MOL0     C33754   5.930   5.190  10.927 -0.2938  0.2433  0.0153
  251MOL0     C33755   5.904   5.328  10.913  0.5656 -0.6338 -0.0757
  251MOL0     C33756   5.782   5.374  10.875  0.7029  0.2920  0.2220
  251MOL0     C33757   5.677   5.283  10.860  1.4623  0.6353  0.2811
  251MOL0     O33758   5.542   5.316  10.854  0.3637 -0.4682  0.3085
  251MOL0     C33759   5.499   5.427  10.764 -0.7679 -0.0409  0.1841
  251MOL0     C33760   5.498   5.571  10.828 -0.0647 -0.4998 -0.2207
  251MOL0     C33761   5.449   5.559  10.974  0.7386 -0.8185 -0.3263
  251MOL0     C33762   5.451   5.696  11.048 -0.6725 -0.5207  0.5150
  251MOL0     C33763   5.439   5.664  11.200  0.2530  0.4978  0.1946
  251MOL0     C33764   5.416   5.792  11.279 -0.5186 -0.5008  0.2253
  251MOL0     C33765   5.380   5.780  11.436 -0.4686 -0.1986  0.3383
  251MOL0     C33766   5.281   5.671  11.478  0.1378 -1.3169  0.3757
  251MOL0     N33767   5.249   5.683  11.625 -1.2174 -0.4758  0.1085
  251MOL0     C33768   5.133   5.749  11.674  0.4973 -0.4432 -0.6908
  251MOL0     C33769   5.140   5.723  11.805  0.3305  0.2352 -0.2430
  251MOL0     C33770   5.024   5.751  11.899 -0.1982  1.5090  0.2212
  251MOL0     C33771   4.914   5.645  11.898 -0.0835 -0.8557  0.7475
  251MOL0     C33772   4.863   5.639  12.040  0.7478  0.0497  0.0649
  251MOL0     C33773   4.721   5.573  12.043  0.7963  0.0552 -0.4728
  251MOL0     O33774   4.630   5.647  11.955  0.3602 -0.2387  0.0674
  251MOL0     C33775   4.524   5.603  11.891 -0.3826  0.4632 -0.9799
  251MOL0     C33776   4.419   5.688  11.860  0.0342  0.1790 -0.2522
  251MOL0     C33777   4.318   5.644  11.776  0.9476 -0.0354  0.3050
  251MOL0     C33778   4.321   5.515  11.716 -0.2628  0.3377  0.6717
  251MOL0     C33779   4.208   5.481  11.625  0.3646 -0.4843 -0.2084
  251MOL0     O33780   4.138   5.592  11.575  1.1884  0.0712  0.7194
  251MOL0     C33781   4.041   5.578  11.476 -0.8976  0.0371  0.0843
  251MOL0     C33782   3.908   5.599  11.517 -0.1839  0.1911  0.2163
  251MOL0     C33783   3.809   5.592  11.422 -0.7208  0.1674  0.6623
  251MOL0     C33784   3.837   5.564  11.282  0.3925 -0.0765 -0.0752
  251MOL0     O33785   3.742   5.551  11.185  0.3535  0.0292 -0.1558
  251MOL0     C33786   3.602   5.545  11.219  1.2514 -0.3100 -0.4786
  251MOL0     C33787   3.545   5.404  11.251  0.4501  0.7361  0.4676
  251MOL0     C33788   3.580   5.315  11.137  0.3766 -0.8198 -0.0123
  251MOL0     C33789   3.559   5.161  11.181  0.3090 -0.2255  0.0558
  251MOL0     C33790   3.589   5.061  11.071 -0.5349 -0.5576  0.1083
  251MOL0     C33791   3.606   4.920  11.121 -0.4838  0.2904  0.1192
  251MOL0     C33792   3.468   4.867  11.170 -0.4099  0.1587  0.4919
  251MOL0     C33793   3.488   4.732  11.227  0.5900  0.5438  1.1972
  251MOL0    Cl33794   3.552   4.729  11.398  0.4121  0.3360  0.4773
  251MOL0     C33795   3.971   5.539  11.253  0.5213  0.4327 -0.1057
  251MOL0     C33796   4.071   5.547  11.345 -0.5367  0.8168  0.2740
  251MOL0     O33797   4.206   5.364  11.589  0.1758 -0.2057  0.1229
  251MOL0     C33798   4.431   5.431  11.743  0.6124  0.2675 -0.1383
  251MOL0     C33799   4.528   5.472  11.830  0.6013 -0.8418  0.4344
  251MOL0     N33800   5.255   5.666  11.833 -0.1118 -0.0111 -0.7454
  251MOL0     N33801   5.317   5.634  11.726 -0.8905  0.2397  0.7147
  251MOL0     C33802   5.704   5.143  10.868  1.1640 -0.1793  0.6670
  251MOL0     C33803   5.827   5.098  10.892 -0.0296 -0.5751  0.1666
  251MOL0     C33804   6.237   5.016  11.034 -0.3258 -0.3744  0.0384
  251MOL0     C33805   6.295   5.125  11.099 -0.1022 -0.2584 -0.6965
  251MOL0     C33806   6.422   5.116  11.154 -1.4955  0.5964 -0.3063
  251MOL0     C33807   6.497   5.001  11.128  0.2065  0.5589  1.1083
  251MOL0     O33808   6.632   5.018  11.163  0.3015 -0.3632 -0.6782
  251MOL0     C33809   6.730   4.965  11.072  0.1261 -0.2355 -0.2728
  251MOL0     C33810   6.858   4.974  11.147 -0.9026  0.1310 -0.2661
  251MOL0     C33811   6.930   5.115  11.158 -0.2494  0.2043 -0.3690
  251MOL0     C33812   6.828   5.241  11.144  0.0629  0.3554  0.0337
  251MOL0     C33813   6.864   5.371  11.203  0.1501  0.4889  0.2628
  251MOL0     C33814   6.903   5.467  11.268 -0.1420  0.7457 -0.7236
  251MOL0     C33815   6.447   4.898  11.053  0.0258  0.7123  1.0185
  251MOL0     C33816   6.310   4.893  11.028 -0.7929 -0.5823  0.1280
  251MOL0     C33817   6.279   4.757  10.965  0.0682  0.8295  0.6700
  251MOL0     H33818   5.988   5.394  10.933 -0.1938 -0.4896  3.2180
  251MOL0     H33819   5.768   5.482  10.870  2.2252  0.4736 -0.9538
  251MOL0     H33820   5.558   5.440  10.673  0.9381  3.6947  1.6178
  251MOL0     H33821   5.400   5.401  10.726 -0.8713  0.5049  0.0726
  251MOL0     H33822   5.431   5.632  10.767  0.0150  0.1646  0.3441
  251MOL0     H33823   5.602   5.606  10.829  0.6983 -2.5949 -0.8988
  251MOL0     H33824   5.522   5.499  11.029  1.1097  0.2143  0.3408
  251MOL0     H33825   5.351   5.511  10.978 -0.0012  0.4160 -2.1408
  251MOL0     H33826   5.548   5.745  11.034 -2.0803  1.8934 -1.6219
  251MOL0     H33827   5.377   5.766  11.009 -0.2724 -1.5961 -2.3932
  251MOL0     H33828   5.357   5.595  11.224  0.7686  0.4083  1.8383
  251MOL0     H33829   5.532   5.625  11.242  1.4356  1.7730 -1.1517
  251MOL0     H33830   5.504   5.856  11.271 -1.3138  0.6132  0.0807
  251MOL0     H33831   5.330   5.842  11.234  0.8860  1.3143 -0.5657
  251MOL0     H33832   5.325   5.874  11.452  1.1642  1.4346 -2.6532
  251MOL0     H33833   5.476   5.780  11.489  2.0907 -3.7556 -3.6360
  251MOL0     H33834   5.187   5.676  11.421  0.5889  1.7516 -0.2649
  251MOL0     H33835   5.326   5.572  11.469  3.5435 -0.3728  4.2292
  251MOL0     H33836   5.057   5.804  11.621  0.9106  2.0849  1.1665
  251MOL0     H33837   5.065   5.742  12.001 -3.2064 -2.4858  1.3461
  251MOL0     H33838   4.981   5.850  11.882 -1.4692  1.0797  0.8763
  251MOL0     H33839   4.835   5.655  11.823  1.0641  1.6386 -0.2459
  251MOL0     H33840   4.968   5.551  11.882  5.5539  1.9530  0.7278
  251MOL0     H33841   4.848   5.742  12.072 -2.1630 -0.1966 -0.1784
  251MOL0     H33842   4.921   5.585  12.115  0.0696 -2.0726 -0.8324
  251MOL0     H33843   4.685   5.582  12.146 -0.8659  0.8861 -1.0964
  251MOL0     H33844   4.739   5.467  12.022 -0.3949 -0.2683  0.0579
  251MOL0     H33845   4.438   5.786  11.901 -0.3089 -0.0788  0.5311
  251MOL0     H33846   4.243   5.719  11.751  1.6205  0.1562 -1.2116
  251MOL0     H33847   3.892   5.629  11.620 -1.9871  0.3562 -0.0892
  251MOL0     H33848   3.711   5.608  11.466 -0.6192  0.1557  0.8898
  251MOL0     H33849   3.578   5.617  11.298  0.1761 -1.9195  0.7273
  251MOL0     H33850   3.549   5.583  11.131 -0.9603 -0.7122  0.6301
  251MOL0     H33851   3.594   5.363  11.339  0.8337 -2.9370 -1.2853
  251MOL0     H33852   3.436   5.392  11.255  0.6602 -3.9079 -1.8561
  251MOL0     H33853   3.518   5.336  11.050  1.9376  0.1791 -0.9264
  251MOL0     H33854   3.686   5.329  11.112  0.6009 -0.3506  1.1425
  251MOL0     H33855   3.459   5.145  11.222  1.4211  0.8189  3.4604
  251MOL0     H33856   3.628   5.150  11.265  1.4193  0.9778 -0.6617
  251MOL0     H33857   3.681   5.101  11.027 -1.4671  2.5024  0.6967
  251MOL0     H33858   3.510   5.063  10.996 -0.3745 -1.0342 -0.0770
  251MOL0     H33859   3.642   4.855  11.041 -0.2945  0.4757  0.0555
  251MOL0     H33860   3.682   4.926  11.200  0.4090  2.7428 -0.8607
  251MOL0     H33861   3.403   4.858  11.083  1.1324  0.2193 -0.6999
  251MOL0     H33862   3.417   4.926  11.247 -0.6180  1.1919 -0.4206
  251MOL0     H33863   3.391   4.681  11.226  0.3558  0.4523 -4.3037
  251MOL0     H33864   3.563   4.686  11.161  2.6969  0.5511  3.4726
  251MOL0     H33865   3.990   5.531  11.147 -0.9298 -0.2196 -0.3269
  251MOL0     H33866   4.170   5.526  11.307 -2.0299 -3.1848 -2.0465
  251MOL0     H33867   4.426   5.328  11.708 -2.1077 -0.1574  1.1972
  251MOL0     H33868   4.618   5.412  11.820  0.6159 -0.4245 -3.2337
  251MOL0     H33869   5.626   5.072  10.842  1.6357 -1.1375  1.7610
  251MOL0     H33870   5.841   4.992  10.874 -0.3097 -0.6498  0.3818
  251MOL0     H33871   6.250   5.224  11.104  0.8610  0.1054  1.6207
  251MOL0     H33872   6.464   5.195  11.215  1.1694 -1.4382  0.7081
  251MOL0     H33873   6.741   5.011  10.973 -0.1923  2.0805  0.7227
  251MOL0     H33874   6.710   4.858  11.060 -0.2995 -0.2184  0.2323
  251MOL0     H33875   6.929   4.904  11.102 -2.7249 -1.5858 -0.6669
  251MOL0     H33876   6.841   4.931  11.246 -0.8148  1.3652  0.3049
  251MOL0     H33877   6.994   5.123  11.069  0.1058 -0.2662 -0.1617
  251MOL0     H33878   6.995   5.118  11.246  0.0681 -1.8594 -0.4717
  251MOL0     H33879   6.816   5.266  11.038  1.2505  2.3705  0.3334
  251MOL0     H33880   6.728   5.228  11.185 -0.7835 -0.4993 -2.1314
  251MOL0     H33881   6.920   5.545  11.339 -0.5476 -0.3412  0.6048
  251MOL0     H33882   6.505   4.809  11.030 -0.5170  0.4744  0.5403
  251MOL0     H33883   6.347   4.674  10.986 -1.6587 -1.0194 -0.7031
  251MOL0     H33884   6.188   4.726  11.016  0.4279 -0.4715  0.5524
  251MOL0     H33885   6.262   4.755  10.857  1.4863 -2.6852  0.3640
  252MOL0     O33886   0.708   1.956   5.803 -0.4554 -0.1613 -1.4999
  252MOL0     C33887   0.667   1.842   5.826 -0.4138 -0.2208  0.6793
  252MOL0     O33888   0.682   1.739   5.734 -0.3594 -0.0033 -0.2044
  252MOL0     C33889   0.794   1.752   5.654  0.0123 -0.2997 -0.2706
  252MOL0     C33890   0.788   1.815   5.521  0.0878 -0.3031  0.1773
  252MOL0     C33891   0.893   1.817   5.442 -1.0842 -0.0637  0.0235
  252MOL0     C33892   1.016   1.748   5.492  1.4932 -0.5156  0.5793
  252MOL0     O33893   1.127   1.739   5.411 -0.2039  0.0162  0.2083
  252MOL0     C33894   1.134   1.777   5.267  0.5979 -0.4604  0.9574
  252MOL0     C33895   1.263   1.728   5.200 -0.0934  0.5008 -0.0556
  252MOL0     C33896   1.277   1.752   5.050  0.4528 -0.7313 -0.8790
  252MOL0     C33897   1.428   1.740   5.035 -0.7481 -0.4587  0.6946
  252MOL0     C33898   1.478   1.790   4.894  0.2343 -0.4066  0.4571
  252MOL0     C33899   1.617   1.756   4.866 -0.1468 -0.0767 -0.8919
  252MOL0     C33900   1.681   1.790   4.730 -0.5755 -0.3614 -0.4194
  252MOL0     C33901   1.836   1.789   4.749 -0.2772  0.3340 -0.3527
  252MOL0     N33902   1.899   1.672   4.828  0.3444 -0.0869 -0.1233
  252MOL0     C33903   1.874   1.545   4.793  0.2426 -0.0757 -0.2707
  252MOL0     C33904   1.946   1.475   4.897  0.5426  0.5167 -0.5955
  252MOL0     C33905   1.969   1.317   4.901  0.4206 -0.2499  0.6225
  252MOL0     C33906   2.119   1.290   4.878 -0.1795  0.4153  0.1625
  252MOL0     C33907   2.162   1.306   4.737  0.1352 -0.0641 -0.0935
  252MOL0     C33908   2.305   1.253   4.724 -0.3827 -0.1626  0.0799
  252MOL0     O33909   2.284   1.107   4.712 -0.5545 -0.4431 -0.4035
  252MOL0     C33910   2.394   1.029   4.742  0.8960  0.9514  0.0956
  252MOL0     C33911   2.377   0.908   4.798  0.1363 -0.0329  0.6648
  252MOL0     C33912   2.489   0.817   4.810  0.8061 -0.9021  0.0945
  252MOL0     C33913   2.622   0.862   4.780 -0.0418  0.2036 -0.8208
  252MOL0     C33914   2.740   0.775   4.791 -0.0645 -0.9625 -0.0130
  252MOL0     O33915   2.719   0.644   4.766 -0.3725 -0.9534  0.1434
  252MOL0     C33916   2.825   0.566   4.791 -0.3444 -0.1703 -0.3345
  252MOL0     C33917   2.919   0.551   4.691  1.1100  0.0859 -0.4528
  252MOL0     C33918   3.033   0.483   4.720  0.0216  0.9051 -0.1188
  252MOL0     C33919   3.049   0.418   4.842 -0.1188  0.1498  0.1730
  252MOL0     O33920   3.165   0.349   4.868 -0.1995  0.0904  1.0182
  252MOL0     C33921   3.146   0.218   4.912  0.7390 -0.2030  0.3490
  252MOL0     C33922   3.276   0.166   4.971  1.6133 -0.4357 -0.1021
  252MOL0     C33923   3.277   0.178   5.128  0.1912 -0.0660  0.8694
  252MOL0     C33924   3.415   0.152   5.176 -0.3952 -0.2029 -0.8991
  252MOL0     C33925   3.422   0.145   5.324  0.1113 -0.0852 -0.0707
  252MOL0     C33926   3.328   0.051   5.398  0.0676 -0.8713 -0.1422
  252MOL0     C33927   3.335  -0.094   5.358  0.2241  0.5114 -0.0866
  252MOL0     C33928   3.306  -0.192   5.476 -0.7668 -0.1846 -0.1131
  252MOL0    Cl33929   3.423  -0.165   5.613 -0.0225  0.0776  0.2299
  252MOL0     C33930   2.946   0.433   4.942 -0.2719 -0.6364 -0.9021
  252MOL0     C33931   2.830   0.500   4.913 -0.1108  0.3622 -0.1587
  252MOL0     O33932   2.855   0.830   4.787 -0.3674 -0.4546 -0.4103
  252MOL0     C33933   2.634   0.995   4.737 -0.0066 -0.3174 -0.6823
  252MOL0     C33934   2.526   1.072   4.706  0.4447 -1.0590 -1.3064
  252MOL0     N33935   2.003   1.575   4.978  1.0468 -0.3019 -0.3398
  252MOL0     N33936   1.970   1.692   4.943  0.1271 -1.2864  0.3567
  252MOL0     C33937   1.023   1.691   5.622 -0.2178 -0.9821 -0.0274
  252MOL0     C33938   0.913   1.690   5.703  0.3050 -0.6282 -0.4977
  252MOL0     C33939   0.587   1.809   5.953  0.1466  0.7966 -0.5602
  252MOL0     C33940   0.551   1.912   6.039 -0.1960 -0.6671  0.2641
  252MOL0     C33941   0.466   1.892   6.149  0.6803  0.2212 -0.1961
  252MOL0     C33942   0.410   1.760   6.163 -0.2666 -1.3846  0.2462
  252MOL0     O33943   0.317   1.746   6.261  0.3613 -1.1370  0.1535
  252MOL0     C33944   0.262   1.623   6.302  0.0273 -0.0216 -0.6074
  252MOL0     C33945   0.207   1.650   6.440 -0.0148 -0.4954  0.1989
  252MOL0     C33946   0.073   1.571   6.464  0.1921 -0.1431 -0.6489
  252MOL0     C33947   0.000   1.641   6.585  0.5477  0.2908 -0.3023
  252MOL0     C33948  -0.093   1.734   6.529 -1.0329  0.2334  0.2201
  252MOL0     C33949  -0.156   1.817   6.470 -0.5535  0.1189 -0.1132
  252MOL0     C33950   0.445   1.662   6.083 -0.1096  0.0887  0.8517
  252MOL0     C33951   0.542   1.676   5.986 -0.4583 -0.0609  0.4618
  252MOL0     C33952   0.581   1.547   5.911 -1.0610 -0.3994  0.2983
  252MOL0     H33953   0.696   1.869   5.501  0.9116  0.0570 -3.2050
  252MOL0     H33954   0.885   1.860   5.343 -1.4058 -0.7667 -0.2667
  252MOL0     H33955   1.052   1.742   5.204  1.2005  1.1911 -0.8622
  252MOL0     H33956   1.135   1.886   5.281  1.6088 -0.3220 -0.0690
  252MOL0     H33957   1.255   1.619   5.207 -0.6857  0.3610 -2.2885
  252MOL0     H33958   1.351   1.755   5.260 -2.3516  0.1367  3.7706
  252MOL0     H33959   1.238   1.852   5.028  0.9937 -0.4476 -0.5550
  252MOL0     H33960   1.228   1.668   5.000 -2.5801 -0.3857  1.2528
  252MOL0     H33961   1.482   1.812   5.097  0.7031 -0.2935 -0.6788
  252MOL0     H33962   1.466   1.640   5.056 -0.3049 -0.8743 -1.7631
  252MOL0     H33963   1.425   1.734   4.816  1.8252  1.0123 -1.7620
  252MOL0     H33964   1.476   1.899   4.884  0.9112 -0.4404 -0.1646
  252MOL0     H33965   1.665   1.812   4.947  2.7920  0.3393 -2.7681
  252MOL0     H33966   1.614   1.648   4.882  3.4237 -0.1140  0.3172
  252MOL0     H33967   1.645   1.886   4.693 -0.5019  0.4337  1.5035
  252MOL0     H33968   1.646   1.711   4.662 -0.1734 -1.3385  0.4816
  252MOL0     H33969   1.886   1.798   4.652 -1.0303 -1.5961 -0.9765
  252MOL0     H33970   1.867   1.872   4.814 -2.1021 -0.4938  1.7209
  252MOL0     H33971   1.818   1.513   4.705  3.0771 -1.1547 -1.8136
  252MOL0     H33972   1.944   1.263   4.993  2.4974  1.1232  2.0632
  252MOL0     H33973   1.910   1.276   4.818 -1.0836 -0.7275  1.8699
  252MOL0     H33974   2.173   1.357   4.946 -1.3551 -0.7861  2.3867
  252MOL0     H33975   2.118   1.182   4.893 -1.2624  0.2254 -1.0668
  252MOL0     H33976   2.157   1.412   4.710 -2.7450  0.3840  1.7700
  252MOL0     H33977   2.090   1.262   4.667  1.0939  0.2089 -1.2987
  252MOL0     H33978   2.362   1.278   4.814  0.4692  0.6866 -0.6651
  252MOL0     H33979   2.352   1.287   4.631  1.1267 -1.0814  0.4754
  252MOL0     H33980   2.270   0.885   4.797  0.4106 -1.7245  2.9323
  252MOL0     H33981   2.471   0.715   4.841  2.0972 -0.5165  2.3316
  252MOL0     H33982   2.905   0.597   4.594  1.4072  0.0119 -0.5313
  252MOL0     H33983   3.116   0.476   4.651  0.7999  3.4840  0.4281
  252MOL0     H33984   3.068   0.204   4.987  0.9554  0.9407  0.8063
  252MOL0     H33985   3.130   0.147   4.829 -1.1793  1.1890 -0.5461
  252MOL0     H33986   3.305   0.068   4.932  0.0658 -1.0025  0.0905
  252MOL0     H33987   3.351   0.236   4.933 -1.0532  2.3582 -0.6162
  252MOL0     H33988   3.242   0.279   5.150 -3.4862 -1.2076  0.9566
  252MOL0     H33989   3.196   0.105   5.142 -0.5167 -0.5429 -3.9677
  252MOL0     H33990   3.487   0.219   5.129  0.0187 -1.5409 -2.2635
  252MOL0     H33991   3.446   0.053   5.141  2.2087  0.9532 -2.0782
  252MOL0     H33992   3.400   0.240   5.373 -1.0599 -0.3873  0.0372
  252MOL0     H33993   3.521   0.110   5.354  0.0385 -0.4218 -0.2153
  252MOL0     H33994   3.346   0.061   5.505  3.1947 -0.4804 -0.5920
  252MOL0     H33995   3.223   0.075   5.384  0.3250  1.2054  1.1289
  252MOL0     H33996   3.438  -0.111   5.325  0.0524 -0.4847 -0.1327
  252MOL0     H33997   3.271  -0.115   5.272  1.4434 -0.3233 -0.8184
  252MOL0     H33998   3.208  -0.161   5.514 -1.1310 -0.7732 -0.5360
  252MOL0     H33999   3.288  -0.299   5.456 -1.8055 -0.1494  0.5663
  252MOL0     H34000   2.973   0.388   5.037  0.9022 -1.1249 -1.4360
  252MOL0     H34001   2.753   0.520   4.987 -0.7080 -1.3965 -0.2590
  252MOL0     H34002   2.728   1.031   4.698  0.2183  0.7646  0.7779
  252MOL0     H34003   2.550   1.168   4.661  0.5126 -0.9544 -1.0470
  252MOL0     H34004   1.116   1.643   5.651 -0.2384 -2.0971 -1.6942
  252MOL0     H34005   0.918   1.647   5.802  1.0830 -0.8831 -0.6406
  252MOL0     H34006   0.591   2.012   6.023  1.1848 -1.5163 -2.0188
  252MOL0     H34007   0.437   1.970   6.219  0.0685 -0.6531  0.5454
  252MOL0     H34008   0.336   1.543   6.311 -2.1782 -2.1072  0.0575
  252MOL0     H34009   0.182   1.609   6.229 -0.4064  0.9904 -0.3438
  252MOL0     H34010   0.190   1.756   6.458  3.8213  0.1457  0.8886
  252MOL0     H34011   0.281   1.611   6.511 -1.9522 -2.5777  1.2254
  252MOL0     H34012   0.106   1.472   6.497  1.2065  1.2281  2.9017
  252MOL0     H34013   0.004   1.564   6.380 -3.7937  0.4129  2.3094
  252MOL0     H34014  -0.061   1.579   6.651 -0.4689  1.8438  0.2598
  252MOL0     H34015   0.070   1.694   6.650  3.7700  0.3696 -3.5319
  252MOL0     H34016  -0.204   1.883   6.401 -2.2059 -0.9682 -0.0685
  252MOL0     H34017   0.377   1.579   6.094 -2.4079  2.0000  1.9763
  252MOL0     H34018   0.571   1.462   5.978  0.6524 -1.3848 -0.6378
  252MOL0     H34019   0.516   1.547   5.823 -0.7563 -1.0593  0.0671
  252MOL0     H34020   0.685   1.563   5.882 -0.6334  0.0103  1.9435
  253MOL0     O34021   7.380   5.036   8.326 -0.2664 -0.5573 -0.1671
  253MOL0     C34022   7.406   5.136   8.261 -0.2533 -0.0996 -0.4115
  253MOL0     O34023   7.372   5.148   8.124  1.0627  0.2307 -0.1792
  253MOL0     C34024   7.293   5.052   8.061 -0.6013  0.5657 -0.3969
  253MOL0     C34025   7.158   5.049   8.089  0.1665 -0.6692 -0.1464
  253MOL0     C34026   7.067   4.959   8.027  0.0275 -0.6188  0.1170
  253MOL0     C34027   7.119   4.861   7.930  0.3914 -0.1098 -0.5678
  253MOL0     O34028   7.039   4.763   7.865 -0.1705 -0.0264 -0.5856
  253MOL0     C34029   6.909   4.737   7.927 -0.8849  0.4357 -0.4795
  253MOL0     C34030   6.793   4.824   7.894 -0.0204 -0.5649 -0.0559
  253MOL0     C34031   6.707   4.771   7.771 -0.3277 -0.6116  0.1147
  253MOL0     C34032   6.790   4.724   7.653  0.0661 -0.0554  0.5334
  253MOL0     C34033   6.722   4.700   7.515 -0.7019 -0.1003  0.1784
  253MOL0     C34034   6.574   4.647   7.520 -0.1062  0.0271 -0.6981
  253MOL0     C34035   6.541   4.519   7.598  0.2759 -0.8591 -0.0912
  253MOL0     C34036   6.574   4.385   7.532 -0.4392 -0.0573  0.4512
  253MOL0     N34037   6.721   4.374   7.494  0.4984  0.7618  0.0667
  253MOL0     C34038   6.836   4.375   7.563 -1.3055  0.5679  0.4599
  253MOL0     C34039   6.936   4.320   7.482 -0.7314  0.9888  0.1663
  253MOL0     C34040   7.080   4.331   7.518  0.4307  0.0420 -0.2080
  253MOL0     C34041   7.173   4.240   7.435  0.2348 -0.1139 -0.7180
  253MOL0     C34042   7.166   4.282   7.285 -0.1873  0.5368  0.1927
  253MOL0     C34043   7.284   4.222   7.206  0.0694 -0.1870 -0.2213
  253MOL0     O34044   7.240   4.200   7.069  0.1452  0.6161  0.0355
  253MOL0     C34045   7.317   4.156   6.965  0.2488  1.4574 -0.5347
  253MOL0     C34046   7.437   4.088   6.985 -0.0720 -0.4127  0.0363
  253MOL0     C34047   7.505   4.038   6.874 -0.0594  0.1011 -0.6312
  253MOL0     C34048   7.444   4.035   6.743 -0.8053 -0.3441  0.1165
  253MOL0     C34049   7.506   3.963   6.633 -1.2361  0.3715  0.2365
  253MOL0     O34050   7.434   3.938   6.518  0.5719 -0.1937 -0.1001
  253MOL0     C34051   7.492   3.845   6.429  0.3626  0.3619  0.1479
  253MOL0     C34052   7.548   3.712   6.460  0.1756 -0.3434  0.4491
  253MOL0     C34053   7.592   3.624   6.356  0.1282  0.0895 -0.0839
  253MOL0     C34054   7.575   3.658   6.225 -0.9353 -0.3033  0.5419
  253MOL0     O34055   7.632   3.591   6.115  0.0674 -0.0548  0.6093
  253MOL0     C34056   7.677   3.447   6.132 -0.2201  0.1921 -0.5114
  253MOL0     C34057   7.698   3.383   5.997 -0.0991  0.5750  0.1454
  253MOL0     C34058   7.577   3.416   5.898  0.0509 -0.1786 -0.2931
  253MOL0     C34059   7.439   3.385   5.960  0.0825 -0.9865  0.8483
  253MOL0     C34060   7.328   3.419   5.858 -0.3429  0.3529  0.6599
  253MOL0     C34061   7.338   3.555   5.795  0.3738  0.1384 -0.5278
  253MOL0     C34062   7.319   3.674   5.887  0.0429 -0.4751 -0.2717
  253MOL0     C34063   7.351   3.804   5.816 -0.9358  0.2834 -0.0151
  253MOL0    Cl34064   7.311   3.943   5.920 -0.1736 -0.3036  0.3913
  253MOL0     C34065   7.521   3.789   6.196  0.0252  0.7386 -0.0790
  253MOL0     C34066   7.482   3.876   6.291  0.4746  0.1532  0.9037
  253MOL0     O34067   7.626   3.930   6.646 -0.1560 -0.5822  0.2477
  253MOL0     C34068   7.323   4.109   6.724 -0.8319  0.3257 -0.2320
  253MOL0     C34069   7.264   4.173   6.839  0.5349 -0.3052 -1.0778
  253MOL0     N34070   6.885   4.296   7.358 -0.4578 -0.1955  0.3279
  253MOL0     N34071   6.763   4.342   7.366 -0.3406  0.0877 -0.2552
  253MOL0     C34072   7.252   4.865   7.898  0.3445 -0.2522 -0.3515
  253MOL0     C34073   7.343   4.957   7.967 -0.4009 -0.2187 -0.2632
  253MOL0     C34074   7.471   5.255   8.318  0.4983 -0.3890  0.0697
  253MOL0     C34075   7.474   5.375   8.249  0.4277 -0.1375  0.3511
  253MOL0     C34076   7.542   5.484   8.296  0.0664 -0.5871 -0.2067
  253MOL0     C34077   7.621   5.465   8.416  0.4466 -0.2948 -0.1538
  253MOL0     O34078   7.698   5.557   8.477  0.5624 -0.5703 -0.2255
  253MOL0     C34079   7.709   5.686   8.418  0.2587 -0.2787  0.3764
  253MOL0     C34080   7.589   5.779   8.449 -0.3129 -0.1732 -0.4161
  253MOL0     C34081   7.590   5.812   8.603  0.7771 -0.0237  0.9945
  253MOL0     C34082   7.470   5.901   8.651  0.1117  0.9804 -0.9666
  253MOL0     C34083   7.493   6.043   8.625  0.6622  0.6136  0.6713
  253MOL0     C34084   7.527   6.153   8.587 -0.5260  0.5618  0.0120
  253MOL0     C34085   7.611   5.357   8.494  0.3131  0.9385  0.0498
  253MOL0     C34086   7.539   5.246   8.452 -0.0496  0.6515 -0.5637
  253MOL0     C34087   7.564   5.104   8.533 -0.3739 -0.4699  0.0938
  253MOL0     H34088   7.126   5.123   8.162  0.0836 -1.3927  0.5732
  253MOL0     H34089   6.963   4.964   8.057 -0.2180 -2.3589 -0.3382
  253MOL0     H34090   6.883   4.637   7.890 -0.8197  0.0128  0.5608
  253MOL0     H34091   6.930   4.728   8.034  1.6338 -1.9315 -1.0315
  253MOL0     H34092   6.818   4.930   7.891  2.6881 -0.9181  3.2697
  253MOL0     H34093   6.722   4.814   7.977  0.8785 -4.5160  0.4832
  253MOL0     H34094   6.636   4.849   7.743  0.5831  1.3113  2.7383
  253MOL0     H34095   6.649   4.688   7.814  0.7824 -2.7855 -2.3431
  253MOL0     H34096   6.875   4.791   7.640  0.0641 -0.2519 -0.6012
  253MOL0     H34097   6.829   4.630   7.690 -1.1375 -0.2450  1.3690
  253MOL0     H34098   6.729   4.797   7.465 -1.1477  0.8817  1.9124
  253MOL0     H34099   6.780   4.627   7.458  0.3076  0.8453 -0.0303
  253MOL0     H34100   6.518   4.726   7.571  1.7215  0.1044  1.3111
  253MOL0     H34101   6.528   4.616   7.425 -0.0637  2.9272 -1.7606
  253MOL0     H34102   6.432   4.519   7.609  0.1989 -1.1713 -0.8012
  253MOL0     H34103   6.584   4.525   7.698  0.8238  0.3243 -0.3774
  253MOL0     H34104   6.555   4.310   7.610 -4.1104  0.0443 -0.1683
  253MOL0     H34105   6.509   4.360   7.448  0.8264 -0.1480 -0.5269
  253MOL0     H34106   6.856   4.413   7.663 -3.8765 -2.1278  2.1590
  253MOL0     H34107   7.117   4.432   7.496  2.4527 -0.7513 -0.7496
  253MOL0     H34108   7.081   4.315   7.626 -1.4493  1.9146  0.1554
  253MOL0     H34109   7.274   4.262   7.472  0.7450  1.4839 -2.8715
  253MOL0     H34110   7.141   4.137   7.449 -1.8302  0.2357 -2.3137
  253MOL0     H34111   7.160   4.389   7.266 -1.2949  1.0871  3.0779
  253MOL0     H34112   7.079   4.237   7.235  1.5947 -0.4135 -2.2575
  253MOL0     H34113   7.328   4.134   7.254 -0.5470 -1.2084 -1.4661
  253MOL0     H34114   7.359   4.302   7.203  1.3082 -1.3123 -0.3089
  253MOL0     H34115   7.485   4.078   7.082  2.2063  3.3034 -0.4673
  253MOL0     H34116   7.590   3.979   6.905 -1.8779 -0.6801  3.6350
  253MOL0     H34117   7.539   3.673   6.561  0.2750  1.2018  1.0758
  253MOL0     H34118   7.634   3.535   6.402  2.3325  0.5277 -1.1175
  253MOL0     H34119   7.775   3.436   6.180  1.5000  0.4755 -3.6453
  253MOL0     H34120   7.596   3.398   6.187 -0.5056 -6.4133 -5.5285
  253MOL0     H34121   7.789   3.418   5.948 -2.4660  1.3091 -4.2616
  253MOL0     H34122   7.716   3.275   6.004  2.1829  0.6823 -2.4025
  253MOL0     H34123   7.588   3.516   5.856 -0.0720 -0.5812 -1.3188
  253MOL0     H34124   7.586   3.353   5.809  3.0524 -1.0685  0.5124
  253MOL0     H34125   7.422   3.447   6.048 -1.5512 -0.7438  0.3947
  253MOL0     H34126   7.434   3.282   5.997 -2.8822 -0.3387  2.5488
  253MOL0     H34127   7.233   3.417   5.911 -1.0224  2.8147 -0.3180
  253MOL0     H34128   7.338   3.336   5.787  1.7171 -0.4053  1.7427
  253MOL0     H34129   7.438   3.567   5.752  1.6225 -3.3191  1.0224
  253MOL0     H34130   7.252   3.566   5.729 -1.8957  1.4099  2.4062
  253MOL0     H34131   7.388   3.673   5.972 -0.7502  0.3618  0.4111
  253MOL0     H34132   7.221   3.686   5.935 -0.1393 -1.3113 -0.4115
  253MOL0     H34133   7.452   3.797   5.776 -0.6179 -1.6481  1.0046
  253MOL0     H34134   7.283   3.813   5.731 -2.2438  0.2804  0.9920
  253MOL0     H34135   7.515   3.810   6.090 -2.7305  4.0121  0.5679
  253MOL0     H34136   7.441   3.972   6.261 -3.3885 -1.0485  1.7767
  253MOL0     H34137   7.269   4.132   6.632  1.5725  0.7349 -1.6021
  253MOL0     H34138   7.174   4.235   6.838  0.2987 -0.5911  0.4666
  253MOL0     H34139   7.286   4.790   7.828  2.6312 -1.5658  1.9990
  253MOL0     H34140   7.447   4.965   7.937  0.1624  0.0894  1.6108
  253MOL0     H34141   7.431   5.385   8.149  1.6971  1.3708 -0.0798
  253MOL0     H34142   7.549   5.573   8.234 -1.9060 -1.9764 -2.6585
  253MOL0     H34143   7.723   5.682   8.309 -1.4627 -2.5454  0.1548
  253MOL0     H34144   7.805   5.722   8.454  1.2362  0.8301 -2.9578
  253MOL0     H34145   7.491   5.738   8.422 -0.2545  0.8397 -2.4331
  253MOL0     H34146   7.601   5.868   8.386  0.4590 -1.2012 -1.7778
  253MOL0     H34147   7.685   5.864   8.615  0.0089  1.9310 -0.7423
  253MOL0     H34148   7.590   5.711   8.645  2.6873 -0.5908 -0.2371
  253MOL0     H34149   7.378   5.876   8.598 -1.4446 -2.5067  2.8163
  253MOL0     H34150   7.428   5.876   8.749 -2.6890  0.1151 -2.2915
  253MOL0     H34151   7.574   6.246   8.561 -0.9996  1.1466  1.1312
  253MOL0     H34152   7.659   5.340   8.590  1.2351 -0.3846 -0.6027
  253MOL0     H34153   7.470   5.073   8.578 -0.7221  1.9145  1.1895
  253MOL0     H34154   7.618   5.039   8.463 -1.5048  0.5532 -1.8227
  253MOL0     H34155   7.623   5.118   8.624 -1.4344  0.0187  0.7332
  254MOL0     O34156  11.266   3.378   7.631  0.2137 -0.1049 -0.5293
  254MOL0     C34157  11.393   3.392   7.624  0.0437 -0.2615 -0.3462
  254MOL0     O34158  11.478   3.432   7.726 -0.1242  0.1310 -0.0684
  254MOL0     C34159  11.435   3.406   7.861  0.1601  1.2787  1.1800
  254MOL0     C34160  11.389   3.277   7.902  0.5751 -0.9869  0.0970
  254MOL0     C34161  11.366   3.257   8.041 -0.0422  0.8574  0.4200
  254MOL0     C34162  11.352   3.368   8.130  0.3563  0.0387 -1.0946
  254MOL0     O34163  11.326   3.365   8.264 -0.3800  0.7188 -0.0967
  254MOL0     C34164  11.218   3.280   8.297 -0.8330 -0.7806 -0.7327
  254MOL0     C34165  11.242   3.174   8.405 -0.3478  0.4450 -0.0062
  254MOL0     C34166  11.323   3.242   8.519 -0.9401 -0.1118  0.0435
  254MOL0     C34167  11.308   3.157   8.638 -0.4334  0.1651 -1.0932
  254MOL0     C34168  11.409   3.170   8.755  0.7382 -0.2141  0.1099
  254MOL0     C34169  11.542   3.109   8.735  0.4015  0.5274  0.3206
  254MOL0     C34170  11.628   3.132   8.861 -0.1983  0.2024  0.2944
  254MOL0     C34171  11.775   3.104   8.818  0.2744 -0.4061  0.3682
  254MOL0     N34172  11.868   3.104   8.939  0.4738 -0.1953  0.1606
  254MOL0     C34173  11.983   3.032   8.956 -0.8781 -0.0782 -0.3271
  254MOL0     C34174  12.041   3.076   9.067  0.6985 -1.2456  0.6988
  254MOL0     C34175  12.183   3.079   9.107  0.3310  0.7270 -0.0059
  254MOL0     C34176  12.228   2.945   9.152 -0.1392 -0.2123  0.1427
  254MOL0     C34177  12.365   2.942   9.213  0.1962 -0.2743 -0.2154
  254MOL0     C34178  12.425   2.803   9.227  0.2624 -0.2260 -0.6088
  254MOL0     O34179  12.561   2.816   9.278 -0.4255 -0.0866 -0.4024
  254MOL0     C34180  12.625   2.706   9.307  0.0933  0.5320  0.2439
  254MOL0     C34181  12.742   2.727   9.378  0.4365  0.2376  0.5656
  254MOL0     C34182  12.826   2.624   9.423 -0.3888  0.6663  0.1470
  254MOL0     C34183  12.782   2.491   9.393 -0.4158 -0.6868  0.4280
  254MOL0     C34184  12.855   2.373   9.443  0.8047 -0.5463 -1.2696
  254MOL0     O34185  12.966   2.400   9.511  0.4436  0.5144  0.2578
  254MOL0     C34186  13.025   2.295   9.574  0.3482  0.0851 -0.7843
  254MOL0     C34187  13.157   2.267   9.541  0.1973  0.1491  0.2461
  254MOL0     C34188  13.210   2.143   9.580  0.1541  0.2896 -0.5987
  254MOL0     C34189  13.143   2.056   9.673 -0.2201 -0.6517 -0.0834
  254MOL0     O34190  13.200   1.934   9.710  0.1336  0.1999  0.1159
  254MOL0     C34191  13.334   1.927   9.754 -0.2145  1.2216 -0.4271
  254MOL0     C34192  13.365   1.785   9.776 -0.0625  0.0429  0.7872
  254MOL0     C34193  13.507   1.765   9.817 -0.1893  0.1036  0.5780
  254MOL0     C34194  13.565   1.629   9.832 -0.6753  0.1809  0.0049
  254MOL0     C34195  13.700   1.636   9.892 -0.4174  0.9224 -0.5965
  254MOL0     C34196  13.755   1.498   9.952 -0.0427 -0.2817  0.0602
  254MOL0     C34197  13.890   1.513  10.016 -1.5340 -0.4954 -0.4310
  254MOL0     C34198  13.999   1.519   9.912 -0.4343 -0.5305  0.1539
  254MOL0    Cl34199  14.163   1.537   9.967  0.4222 -0.1351  0.3426
  254MOL0     C34200  13.022   2.094   9.726 -1.0320 -0.7012  0.2250
  254MOL0     C34201  12.963   2.219   9.677  0.1050  0.2726  0.4416
  254MOL0     O34202  12.795   2.264   9.441 -0.1152  0.5696 -0.3638
  254MOL0     C34203  12.688   2.473   9.299  0.6888  0.6300  0.6978
  254MOL0     C34204  12.597   2.576   9.262  0.0808  0.2480  0.1559
  254MOL0     N34205  11.964   3.181   9.113  0.9362  0.1920 -0.3208
  254MOL0     N34206  11.856   3.194   9.042 -0.5411  0.3638  0.1395
  254MOL0     C34207  11.398   3.492   8.084 -0.0289 -0.3558  0.3491
  254MOL0     C34208  11.441   3.517   7.953  0.4453 -0.5740 -0.1304
  254MOL0     C34209  11.441   3.399   7.485 -0.9170  0.0444 -0.1146
  254MOL0     C34210  11.502   3.516   7.444  1.5024 -0.6931  0.5789
  254MOL0     C34211  11.540   3.536   7.312 -0.1276 -0.4525  0.6860
  254MOL0     C34212  11.518   3.435   7.219  0.3537  0.8587 -0.6945
  254MOL0     O34213  11.549   3.453   7.093 -0.3473 -0.2359 -0.4008
  254MOL0     C34214  11.439   3.427   7.002  0.5300  0.3736 -0.3082
  254MOL0     C34215  11.355   3.551   6.980  0.5070 -0.4464  0.5681
  254MOL0     C34216  11.421   3.669   6.891  0.0058  0.0197 -0.0921
  254MOL0     C34217  11.319   3.786   6.869 -0.0920  1.1229 -0.7869
  254MOL0     C34218  11.396   3.897   6.810 -0.0331 -0.2454 -0.0311
  254MOL0     C34219  11.458   3.985   6.760 -0.5292  0.1045  0.0574
  254MOL0     C34220  11.467   3.311   7.263  0.9963 -0.0270 -0.0255
  254MOL0     C34221  11.429   3.291   7.397  0.2014 -0.5769  0.4066
  254MOL0     C34222  11.378   3.151   7.425 -0.1848 -0.5505  0.2108
  254MOL0     H34223  11.393   3.185   7.844  0.7339 -1.8776  1.4776
  254MOL0     H34224  11.344   3.154   8.065  0.6110  0.6074 -0.0180
  254MOL0     H34225  11.146   3.350   8.339  0.3933  0.9287 -1.3945
  254MOL0     H34226  11.176   3.224   8.213  1.4526 -3.9852  0.0618
  254MOL0     H34227  11.292   3.085   8.367 -0.7380  0.5369 -0.7454
  254MOL0     H34228  11.147   3.147   8.452  1.2217 -3.4760  1.3274
  254MOL0     H34229  11.284   3.339   8.552 -1.6462 -1.0396  2.1193
  254MOL0     H34230  11.429   3.247   8.491 -0.2212  0.6014  2.5363
  254MOL0     H34231  11.211   3.160   8.690  0.2236  2.5598  0.1365
  254MOL0     H34232  11.333   3.056   8.606  2.0188  0.4155 -0.1724
  254MOL0     H34233  11.421   3.278   8.768  0.8534 -0.3191  0.9009
  254MOL0     H34234  11.371   3.142   8.853  0.2038 -1.4082 -0.4085
  254MOL0     H34235  11.550   3.002   8.715  2.1361 -0.0998  3.5770
  254MOL0     H34236  11.599   3.155   8.653 -0.2186 -0.1795 -0.5185
  254MOL0     H34237  11.597   3.060   8.937  0.8196  1.3835  1.8781
  254MOL0     H34238  11.624   3.237   8.891  1.1190  0.2003  0.5318
  254MOL0     H34239  11.796   3.007   8.772 -1.4440 -0.6719  0.1024
  254MOL0     H34240  11.799   3.187   8.751  1.9038  0.6385  2.1156
  254MOL0     H34241  12.009   2.963   8.876 -2.4069  0.9817 -1.8049
  254MOL0     H34242  12.238   3.130   9.027  2.1307  0.5465  1.0633
  254MOL0     H34243  12.196   3.138   9.199 -1.8092 -0.5663  1.1998
  254MOL0     H34244  12.150   2.903   9.216 -0.8801  1.3723  0.3484
  254MOL0     H34245  12.237   2.877   9.066  0.5275 -0.3923  0.3553
  254MOL0     H34246  12.351   2.986   9.312 -1.0836 -0.2729 -0.3798
  254MOL0     H34247  12.434   2.999   9.150 -0.4983 -1.4503 -2.1521
  254MOL0     H34248  12.414   2.748   9.133 -1.2709  0.5812 -0.9282
  254MOL0     H34249  12.355   2.760   9.299  0.5920 -0.4501 -0.4203
  254MOL0     H34250  12.758   2.829   9.413  2.3459  0.1701  0.0270
  254MOL0     H34251  12.902   2.664   9.489 -0.5052  1.5701 -0.2534
  254MOL0     H34252  13.221   2.328   9.478  0.7640 -0.8182 -0.1363
  254MOL0     H34253  13.308   2.115   9.542 -0.8329 -2.7046 -1.2660
  254MOL0     H34254  13.412   1.977   9.697  1.0006 -1.6397 -1.4520
  254MOL0     H34255  13.342   1.972   9.854 -0.8512  0.4362 -0.0114
  254MOL0     H34256  13.296   1.749   9.853 -1.3168 -2.1836 -1.2231
  254MOL0     H34257  13.329   1.738   9.684 -0.3815  2.8176 -0.6110
  254MOL0     H34258  13.572   1.821   9.749 -0.7372  1.8827  1.4596
  254MOL0     H34259  13.497   1.807   9.917 -0.3655  0.2974  0.4799
  254MOL0     H34260  13.579   1.581   9.734 -2.1834 -0.5989  0.1484
  254MOL0     H34261  13.498   1.566   9.891 -1.6658  1.7635  0.6466
  254MOL0     H34262  13.705   1.708   9.975 -2.1752  0.3929 -0.0034
  254MOL0     H34263  13.774   1.665   9.817 -0.8824  2.0106 -0.6515
  254MOL0     H34264  13.686   1.470  10.032  1.8914 -0.0289  1.8996
  254MOL0     H34265  13.753   1.423   9.872 -0.5205  1.2607 -1.4193
  254MOL0     H34266  13.913   1.430  10.083 -0.0490  0.5342  0.3956
  254MOL0     H34267  13.898   1.600  10.082  0.1024 -1.7682  1.1587
  254MOL0     H34268  14.003   1.439   9.838  4.6436  0.8133 -1.4618
  254MOL0     H34269  13.987   1.607   9.848  2.5520 -2.0864 -2.8587
  254MOL0     H34270  12.966   2.038   9.800 -0.9931  0.2322  0.9750
  254MOL0     H34271  12.862   2.245   9.707  0.4987  1.1702  1.0181
  254MOL0     H34272  12.674   2.380   9.244 -3.2107  1.5480 -0.1905
  254MOL0     H34273  12.516   2.554   9.193 -1.2209 -1.6540  2.1658
  254MOL0     H34274  11.411   3.570   8.158  1.9785  0.1724 -0.4996
  254MOL0     H34275  11.477   3.617   7.930  0.1884 -0.2516  0.8335
  254MOL0     H34276  11.510   3.602   7.509 -3.3192 -0.6611  1.4754
  254MOL0     H34277  11.580   3.629   7.273  2.2057 -1.3610  0.7670
  254MOL0     H34278  11.374   3.350   7.043  2.1617 -1.0072 -0.1823
  254MOL0     H34279  11.482   3.389   6.908  4.7760  1.5579  0.9471
  254MOL0     H34280  11.321   3.586   7.078  0.9244  0.8380  0.2772
  254MOL0     H34281  11.270   3.526   6.915  3.8846 -4.4085 -2.9452
  254MOL0     H34282  11.439   3.639   6.787  2.7324  3.9645 -1.0194
  254MOL0     H34283  11.510   3.704   6.945 -1.1647 -0.1222  2.0316
  254MOL0     H34284  11.230   3.769   6.809  0.0710 -0.3346 -0.6376
  254MOL0     H34285  11.292   3.809   6.972 -0.0162 -0.5804 -0.3732
  254MOL0     H34286  11.523   4.056   6.712  0.2489 -0.2855  0.5203
  254MOL0     H34287  11.466   3.226   7.196 -1.2803  0.9379 -1.3290
  254MOL0     H34288  11.337   3.137   7.525 -2.9069 -0.7580 -0.8672
  254MOL0     H34289  11.310   3.116   7.347 -0.9905 -1.2482  1.2058
  254MOL0     H34290  11.471   3.094   7.422 -0.5587 -1.3725  2.6674
  255MOL0     O34291   3.192  11.108   5.060 -0.1880  0.0255 -0.5831
  255MOL0     C34292   3.256  11.006   5.086 -0.6183  0.4305 -0.1180
  255MOL0     O34293   3.231  10.882   5.033  0.4649 -0.0131  0.3379
  255MOL0     C34294   3.108  10.850   4.975  1.0307  0.5721 -1.0651
  255MOL0     C34295   2.994  10.892   5.046  0.5294 -0.6250  0.2797
  255MOL0     C34296   2.865  10.871   5.003  0.7496  0.0713  0.1317
  255MOL0     C34297   2.841  10.794   4.884 -0.7660 -0.2702 -0.0808
  255MOL0     O34298   2.718  10.741   4.841 -0.2821  0.0023 -1.0908
  255MOL0     C34299   2.612  10.757   4.938  0.2167 -0.1781  0.5068
  255MOL0     C34300   2.494  10.653   4.919 -0.9408 -0.1628  0.2755
  255MOL0     C34301   2.554  10.511   4.905  0.5748  0.4435  1.1142
  255MOL0     C34302   2.431  10.416   4.915 -0.5231 -0.5268  0.6067
  255MOL0     C34303   2.477  10.276   4.914 -1.3467 -0.0092 -0.1862
  255MOL0     C34304   2.540  10.240   5.048 -0.8943  0.8064  0.3716
  255MOL0     C34305   2.597  10.100   5.050  0.3675 -0.1072 -0.2125
  255MOL0     C34306   2.619  10.053   5.192  0.3382  1.0621 -0.2800
  255MOL0     N34307   2.633   9.909   5.206  0.9521  0.4424  0.6290
  255MOL0     C34308   2.710   9.833   5.124 -0.6557 -0.3353  0.2026
  255MOL0     C34309   2.726   9.708   5.178  0.0629  0.1902  0.6295
  255MOL0     C34310   2.794   9.583   5.122 -0.1774  0.6880  0.3949
  255MOL0     C34311   2.937   9.582   5.157 -0.2508 -0.1569  0.2339
  255MOL0     C34312   3.005   9.448   5.106 -0.4171 -0.6950 -0.4953
  255MOL0     C34313   3.150   9.434   5.167  0.6822 -0.5885 -0.6981
  255MOL0     O34314   3.232   9.550   5.123 -0.3043 -0.5245  0.4719
  255MOL0     C34315   3.323   9.599   5.210 -0.2355 -0.5734 -0.2061
  255MOL0     C34316   3.346   9.737   5.211 -0.1325  0.8006  0.6596
  255MOL0     C34317   3.426   9.797   5.298 -0.3272 -0.5500  0.3637
  255MOL0     C34318   3.505   9.728   5.388  0.1661  0.7797 -0.4047
  255MOL0     C34319   3.597   9.792   5.486 -0.8863 -0.1892  0.3512
  255MOL0     O34320   3.679   9.701   5.555  0.5704 -0.4502  0.8534
  255MOL0     C34321   3.778   9.765   5.633  0.8709 -0.2936 -0.0604
  255MOL0     C34322   3.911   9.748   5.590 -0.0954 -0.1712  0.3275
  255MOL0     C34323   4.008   9.821   5.650  0.5063 -0.8864 -0.5495
  255MOL0     C34324   3.990   9.887   5.772  0.1155 -0.3164  0.1543
  255MOL0     O34325   4.087   9.971   5.830  0.3497  0.3659  0.3455
  255MOL0     C34326   4.064  10.097   5.900  0.4332 -1.0001 -0.8455
  255MOL0     C34327   4.203  10.153   5.928  0.2734  0.4325  0.4396
  255MOL0     C34328   4.299  10.165   5.805  0.4108 -0.2011  0.3799
  255MOL0     C34329   4.386  10.276   5.824 -0.3016 -0.6035  0.4810
  255MOL0     C34330   4.474  10.252   5.949  0.2430 -0.2098  0.0078
  255MOL0     C34331   4.561  10.374   5.989 -0.0662  1.1656 -0.3866
  255MOL0     C34332   4.641  10.334   6.110 -0.9301  0.6465  0.8186
  255MOL0     C34333   4.715  10.470   6.146 -0.0996  0.4944 -0.3904
  255MOL0    Cl34334   4.611  10.611   6.171  0.2328  0.3868  0.7869
  255MOL0     C34335   3.857   9.886   5.826 -0.0080 -0.0792 -0.4983
  255MOL0     C34336   3.754   9.838   5.750  0.6065  0.7296 -0.4338
  255MOL0     O34337   3.597   9.912   5.504  0.9245 -0.5754 -0.0036
  255MOL0     C34338   3.485   9.587   5.398 -0.9272 -0.3651 -0.1056
  255MOL0     C34339   3.396   9.526   5.314 -0.5392  0.0951  0.8523
  255MOL0     N34340   2.656   9.718   5.297 -0.2575  0.5256 -0.4353
  255MOL0     N34341   2.599   9.830   5.308 -0.5977  0.3026  0.3935
  255MOL0     C34342   2.955  10.764   4.808 -0.6449  0.4197 -0.7453
  255MOL0     C34343   3.090  10.787   4.855  0.6572  0.4018  0.1935
  255MOL0     C34344   3.379  11.017   5.164 -0.5313  0.2919  0.4093
  255MOL0     C34345   3.466  11.125   5.155 -0.9111 -0.9788 -0.0601
  255MOL0     C34346   3.581  11.137   5.227  1.0065  0.1492  0.3757
  255MOL0     C34347   3.615  11.044   5.314 -0.0328  1.2974 -0.1205
  255MOL0     O34348   3.724  11.064   5.394 -0.5542 -0.2328  0.4577
  255MOL0     C34349   3.819  10.949   5.422  0.3233 -0.1017 -0.0413
  255MOL0     C34350   3.947  10.999   5.483  0.6358 -1.0645 -0.1571
  255MOL0     C34351   3.936  11.009   5.641  0.3507 -0.5780  0.8520
  255MOL0     C34352   4.077  11.035   5.692  0.2242 -0.3718 -0.0478
  255MOL0     C34353   4.060  11.073   5.829  0.2478  0.1468  0.2215
  255MOL0     C34354   4.058  11.091   5.946 -0.5707 -0.9341  0.3902
  255MOL0     C34355   3.534  10.933   5.325 -0.4883  0.7956 -0.1166
  255MOL0     C34356   3.417  10.914   5.258  0.1756 -0.2368 -1.1647
  255MOL0     C34357   3.349  10.781   5.281  0.2371  0.4613 -0.1158
  255MOL0     H34358   3.018  10.929   5.145  4.6283 -2.0452 -0.0036
  255MOL0     H34359   2.792  10.917   5.069  3.3534  0.8348  2.6948
  255MOL0     H34360   2.660  10.741   5.035  2.1181  1.5415 -0.0997
  255MOL0     H34361   2.570  10.858   4.936 -0.1393 -0.2944  1.6322
  255MOL0     H34362   2.433  10.666   4.829  0.4476 -0.5057 -0.7418
  255MOL0     H34363   2.436  10.643   5.012  2.3429 -2.1970  2.3049
  255MOL0     H34364   2.619  10.490   4.991  1.5125 -0.7663  0.1665
  255MOL0     H34365   2.609  10.492   4.811  2.0707  2.8410  1.4194
  255MOL0     H34366   2.367  10.441   5.001 -2.1719 -1.1805 -0.3965
  255MOL0     H34367   2.365  10.438   4.830 -0.7815 -4.1539 -0.2958
  255MOL0     H34368   2.392  10.208   4.905 -1.5143  0.3325 -1.3900
  255MOL0     H34369   2.554  10.256   4.839  2.4634  4.6111  1.9747
  255MOL0     H34370   2.620  10.299   5.093  1.7091 -1.4286 -0.9924
  255MOL0     H34371   2.462  10.261   5.122 -1.1836  0.0593  0.2936
  255MOL0     H34372   2.683  10.088   4.983  2.5365  3.8569  1.5578
  255MOL0     H34373   2.525  10.025   5.015 -0.7845  0.2844  1.2622
  255MOL0     H34374   2.708  10.098   5.237  0.7151 -0.1155  0.1889
  255MOL0     H34375   2.539  10.088   5.257 -2.7498 -2.6369 -1.6813
  255MOL0     H34376   2.758   9.861   5.031 -3.0739 -0.4967 -1.1786
  255MOL0     H34377   2.741   9.490   5.142 -0.7954  0.1836 -2.9736
  255MOL0     H34378   2.786   9.596   5.013 -0.8385  0.1291  0.3679
  255MOL0     H34379   2.978   9.673   5.112 -1.7830  0.3137 -0.2714
  255MOL0     H34380   2.944   9.591   5.266 -0.2940 -1.0690  0.3200
  255MOL0     H34381   3.032   9.465   5.001  1.8615 -2.1688 -0.2106
  255MOL0     H34382   2.949   9.360   5.138  2.5178 -1.8894  1.7629
  255MOL0     H34383   3.192   9.341   5.129 -1.0245 -1.9899  0.6588
  255MOL0     H34384   3.148   9.433   5.277  0.9251  1.0179 -0.6466
  255MOL0     H34385   3.288   9.794   5.139  0.9798 -1.3475 -2.1511
  255MOL0     H34386   3.429   9.904   5.281 -0.0060 -0.6056  0.0554
  255MOL0     H34387   3.934   9.694   5.498 -0.1217 -0.6186  0.5821
  255MOL0     H34388   4.105   9.833   5.603  1.3742  0.8850  1.5297
  255MOL0     H34389   4.010  10.164   5.833 -0.0841  2.3412  2.6101
  255MOL0     H34390   3.996  10.084   5.985  0.5259 -2.0493 -0.9151
  255MOL0     H34391   4.186  10.243   5.987  0.0602 -0.9545  2.6329
  255MOL0     H34392   4.244  10.080   5.999 -1.5079 -2.9544 -1.7049
  255MOL0     H34393   4.340  10.069   5.773 -0.7089 -1.1763  1.7678
  255MOL0     H34394   4.239  10.194   5.718 -0.6890  1.1666  1.5292
  255MOL0     H34395   4.327  10.368   5.821 -1.2209 -1.2154 -0.8907
  255MOL0     H34396   4.458  10.280   5.741  0.1195  0.6386  0.8808
  255MOL0     H34397   4.539  10.165   5.934 -1.6211 -1.3694 -1.8085
  255MOL0     H34398   4.417  10.231   6.040  0.0906  1.4372  0.3220
  255MOL0     H34399   4.617  10.401   5.899 -2.9198  0.5288 -2.5001
  255MOL0     H34400   4.487  10.448   6.021  0.2173  0.7319  1.3812
  255MOL0     H34401   4.706  10.258   6.065 -1.9438 -1.4413  2.6757
  255MOL0     H34402   4.575  10.294   6.187 -2.9417  1.0605 -0.5948
  255MOL0     H34403   4.780  10.464   6.234  0.9615  2.1927 -1.0042
  255MOL0     H34404   4.781  10.486   6.060  0.2366  1.9310  0.1127
  255MOL0     H34405   3.836   9.946   5.914 -0.1103 -2.0362  0.8576
  255MOL0     H34406   3.651   9.843   5.786  1.6726 -0.2315  3.1155
  255MOL0     H34407   3.530   9.527   5.476  1.2584  2.0460  0.6203
  255MOL0     H34408   3.367   9.422   5.322 -0.3303 -0.1120 -0.8605
  255MOL0     H34409   2.950  10.700   4.721  0.8994 -1.4468  0.4542
  255MOL0     H34410   3.186  10.765   4.810  1.0972 -0.0246  1.3142
  255MOL0     H34411   3.441  11.207   5.088  0.1801 -0.9152 -0.4075
  255MOL0     H34412   3.652  11.216   5.203 -0.6222  0.6163 -3.6138
  255MOL0     H34413   3.836  10.901   5.325  1.8985  0.8147 -0.2518
  255MOL0     H34414   3.773  10.874   5.487 -3.6220  1.4082 -0.7506
  255MOL0     H34415   3.970  11.098   5.442  0.4483 -0.5500  0.9486
  255MOL0     H34416   4.031  10.937   5.451  0.4083 -1.8496  0.7381
  255MOL0     H34417   3.902  10.918   5.691 -1.1924 -1.2959 -1.3165
  255MOL0     H34418   3.875  11.093   5.677  1.0941 -0.6641  2.3892
  255MOL0     H34419   4.145  10.949   5.699  1.5828  0.8408  3.2695
  255MOL0     H34420   4.112  11.114   5.625 -1.9936  1.9827  1.3858
  255MOL0     H34421   4.062  11.103   6.053 -0.3595 -3.6521  0.7715
  255MOL0     H34422   3.569  10.860   5.398 -1.5401  1.8527  1.5220
  255MOL0     H34423   3.240  10.788   5.274  0.2562 -0.1472 -1.2250
  255MOL0     H34424   3.377  10.705   5.207 -0.0707  0.6263 -0.4042
  255MOL0     H34425   3.377  10.731   5.374  0.0264  3.1456  1.4824
  256MOL0     O34426   1.909   0.926  10.151  0.3012  1.4724 -0.3734
  256MOL0     C34427   1.843   0.935  10.049 -0.8698  1.0132  0.5784
  256MOL0     O34428   1.900   0.934   9.917  0.1813  0.1483  0.3993
  256MOL0     C34429   2.019   0.992   9.894  0.2396 -0.5303  0.8884
  256MOL0     C34430   2.072   0.962   9.774 -0.3947  0.0501  0.8101
  256MOL0     C34431   2.206   0.992   9.740  0.0795 -0.0256 -0.2144
  256MOL0     C34432   2.281   1.083   9.822  0.9178  0.2184 -0.3448
  256MOL0     O34433   2.412   1.126   9.806  1.0792  0.3380  0.0373
  256MOL0     C34434   2.489   1.077   9.696  0.4868  0.2571  0.1143
  256MOL0     C34435   2.552   0.938   9.728  0.7771  0.0733  0.3675
  256MOL0     C34436   2.644   0.891   9.614 -0.3489  0.9721  0.2407
  256MOL0     C34437   2.719   0.769   9.670 -0.4148 -0.2500 -0.2849
  256MOL0     C34438   2.781   0.684   9.549  0.8283  0.4979 -0.5957
  256MOL0     C34439   2.931   0.726   9.532  0.8741 -0.7024  0.4985
  256MOL0     C34440   3.004   0.620   9.450  0.6607 -0.1306  0.3783
  256MOL0     C34441   3.068   0.681   9.328 -0.4503  0.0179 -0.5741
  256MOL0     N34442   3.167   0.784   9.364  0.1482  0.0111  0.2574
  256MOL0     C34443   3.276   0.770   9.441  0.2276 -0.6864 -0.0650
  256MOL0     C34444   3.328   0.898   9.459 -0.6305 -0.5856 -0.0416
  256MOL0     C34445   3.453   0.918   9.540  1.0702  0.3723 -0.7084
  256MOL0     C34446   3.428   1.005   9.665 -1.1321  0.4306  0.7981
  256MOL0     C34447   3.387   0.917   9.782 -0.1721  0.5888 -0.2656
  256MOL0     C34448   3.365   1.011   9.900  0.5205  1.0998  0.1301
  256MOL0     O34449   3.330   0.915  10.012  0.4054  0.3394 -0.3052
  256MOL0     C34450   3.408   0.924  10.127 -0.8530 -0.4269  0.9288
  256MOL0     C34451   3.408   0.816  10.208  0.2832 -0.1014  0.0779
  256MOL0     C34452   3.470   0.825  10.333 -0.6577 -0.2334 -1.0596
  256MOL0     C34453   3.534   0.945  10.384 -0.5241  0.0108  0.3303
  256MOL0     C34454   3.605   0.964  10.508 -0.2411 -0.0139 -0.0432
  256MOL0     O34455   3.630   1.096  10.557  0.6557  0.3130  0.3283
  256MOL0     C34456   3.717   1.111  10.663 -0.5051  0.1713  0.6626
  256MOL0     C34457   3.846   1.045  10.661  0.6343 -0.8026  0.0646
  256MOL0     C34458   3.941   1.073  10.759 -0.3782 -0.2759 -0.4001
  256MOL0     C34459   3.910   1.153  10.869  0.0386  0.0436  0.1365
  256MOL0     O34460   4.006   1.170  10.976 -0.7277  1.0033 -0.5339
  256MOL0     C34461   3.957   1.239  11.095 -0.3508 -0.9106  0.0365
  256MOL0     C34462   4.071   1.295  11.181  0.3243 -0.7330 -0.4852
  256MOL0     C34463   4.018   1.362  11.306  0.5986 -0.4360 -0.5307
  256MOL0     C34464   4.121   1.433  11.393  1.0665  0.6118  0.3096
  256MOL0     C34465   4.068   1.541  11.482  0.2370 -0.1148  0.0337
  256MOL0     C34466   4.188   1.595  11.564  0.5916 -0.7135 -0.6837
  256MOL0     C34467   4.137   1.696  11.677 -0.1756  0.1572  0.2438
  256MOL0     C34468   4.233   1.781  11.758  0.1337  0.0131  0.6431
  256MOL0    Cl34469   4.299   1.657  11.877  0.1318  0.3628  0.4802
  256MOL0     C34470   3.779   1.198  10.875  0.7612  0.4952 -0.2866
  256MOL0     C34471   3.686   1.190  10.775 -0.1835 -0.0657  0.0624
  256MOL0     O34472   3.632   0.860  10.572 -0.8007 -0.0411  0.2735
  256MOL0     C34473   3.526   1.053  10.300 -0.1946 -0.3970  0.6221
  256MOL0     C34474   3.469   1.043  10.171  1.1573  0.4594  0.3904
  256MOL0     N34475   3.257   0.986   9.382 -0.8404 -0.4796  0.3739
  256MOL0     N34476   3.160   0.919   9.331 -0.2442  0.0022  0.6470
  256MOL0     C34477   2.224   1.129   9.935  0.0352  0.6566  0.0971
  256MOL0     C34478   2.088   1.088   9.976  0.5663 -0.7404  0.1605
  256MOL0     C34479   1.692   0.918  10.065  0.7779 -0.6572 -0.6543
  256MOL0     C34480   1.624   0.887   9.949  0.9357  0.0553 -0.2499
  256MOL0     C34481   1.486   0.890   9.945 -0.4827 -0.5718  0.0017
  256MOL0     C34482   1.410   0.910  10.055  0.0505  1.2970 -0.2831
  256MOL0     O34483   1.273   0.931  10.048 -0.1508 -0.0556  0.0813
  256MOL0     C34484   1.202   0.833  10.123  0.0512 -0.6415  0.6833
  256MOL0     C34485   1.054   0.855  10.091  0.1064 -0.7949 -0.0487
  256MOL0     C34486   0.962   0.770  10.186 -0.4744 -0.0079 -0.3319
  256MOL0     C34487   0.811   0.804  10.189  0.2419  0.3927  1.2670
  256MOL0     C34488   0.780   0.944  10.222  0.7156 -0.0787  0.5481
  256MOL0     C34489   0.732   1.056  10.239  0.8524 -0.0436  0.2806
  256MOL0     C34490   1.472   0.926  10.180 -0.0417 -0.5400 -0.4945
  256MOL0     C34491   1.618   0.928  10.188  0.1642  0.3293 -0.7207
  256MOL0     C34492   1.691   0.939  10.319  1.1957 -0.7794 -0.5897
  256MOL0     H34493   2.019   0.899   9.704 -0.0131 -1.2359  1.6318
  256MOL0     H34494   2.239   0.966   9.640  0.7301  3.0589 -0.9107
  256MOL0     H34495   2.426   1.058   9.608  4.2930 -1.5794 -2.5503
  256MOL0     H34496   2.563   1.154   9.671 -1.4443  1.7565 -1.2866
  256MOL0     H34497   2.467   0.870   9.739 -0.8266  1.8759 -0.2021
  256MOL0     H34498   2.598   0.937   9.826  0.5250 -1.2013  0.4945
  256MOL0     H34499   2.710   0.971   9.578 -1.5510  2.4279  1.1772
  256MOL0     H34500   2.584   0.856   9.530  0.5997 -0.7071  0.2192
  256MOL0     H34501   2.782   0.815   9.747 -3.6082  1.2826  1.6060
  256MOL0     H34502   2.642   0.703   9.713  0.4276 -1.8982 -1.1960
  256MOL0     H34503   2.768   0.577   9.567 -1.2467  0.8848  0.4528
  256MOL0     H34504   2.728   0.710   9.457  1.4930  0.8129 -0.9030
  256MOL0     H34505   2.949   0.825   9.488  0.4496 -1.2911 -1.0836
  256MOL0     H34506   2.971   0.713   9.632  1.3111  0.2183  0.4505
  256MOL0     H34507   2.939   0.543   9.408  1.0262 -0.9542  1.2899
  256MOL0     H34508   3.074   0.568   9.515  1.3206 -0.6802 -0.7367
  256MOL0     H34509   3.115   0.604   9.267  0.3172 -0.8979  1.0828
  256MOL0     H34510   2.990   0.732   9.271 -0.0743  0.0362 -1.0750
  256MOL0     H34511   3.294   0.676   9.493 -0.3915 -0.3916  0.7004
  256MOL0     H34512   3.486   0.818   9.571 -2.5811 -1.0834 -1.1100
  256MOL0     H34513   3.538   0.956   9.482  2.1973 -0.4919  0.3169
  256MOL0     H34514   3.523   1.048   9.700 -0.5141 -0.6373  0.4913
  256MOL0     H34515   3.356   1.082   9.635 -0.6300  0.6369  0.0972
  256MOL0     H34516   3.469   0.852   9.814 -1.9644 -2.2920 -1.2268
  256MOL0     H34517   3.315   0.838   9.762  1.4600 -1.3031  0.8939
  256MOL0     H34518   3.281   1.078   9.877  0.7967  1.5812  0.4962
  256MOL0     H34519   3.456   1.069   9.919  1.4392  0.4460 -2.0260
  256MOL0     H34520   3.350   0.732  10.169 -2.0465  1.8419 -0.8746
  256MOL0     H34521   3.447   0.746  10.403  2.1726  0.6883  1.1537
  256MOL0     H34522   3.876   0.987  10.574  2.7590  1.0846 -0.5401
  256MOL0     H34523   4.039   1.026  10.751  0.0428  0.8115 -2.2191
  256MOL0     H34524   3.894   1.322  11.061 -1.2959 -1.8379 -0.5406
  256MOL0     H34525   3.910   1.166  11.162  1.5890 -0.7175  1.6937
  256MOL0     H34526   4.134   1.213  11.217  1.3277 -0.1003 -0.7795
  256MOL0     H34527   4.135   1.355  11.116  1.1108 -2.4217 -1.3153
  256MOL0     H34528   3.938   1.432  11.280  1.7282  0.9780 -0.3192
  256MOL0     H34529   3.969   1.296  11.378 -0.1899  2.6703  2.0322
  256MOL0     H34530   4.207   1.460  11.332  1.9942 -0.0842  1.2827
  256MOL0     H34531   4.157   1.346  11.450  2.7939  0.1765 -1.3683
  256MOL0     H34532   3.992   1.498  11.549  0.8764 -3.4281 -1.1727
  256MOL0     H34533   4.019   1.615  11.419  0.1269 -1.0371 -1.0076
  256MOL0     H34534   4.225   1.504  11.610  2.1021  0.4934  0.6043
  256MOL0     H34535   4.257   1.645  11.495 -0.7071 -0.0443 -1.5446
  256MOL0     H34536   4.075   1.652  11.756  2.4137 -3.2896  0.5881
  256MOL0     H34537   4.084   1.775  11.624  2.5072  2.2700  0.5192
  256MOL0     H34538   4.319   1.822  11.705  0.7651 -2.0815 -0.0591
  256MOL0     H34539   4.185   1.861  11.815 -1.0551 -0.2683  0.0651
  256MOL0     H34540   3.743   1.252  10.962  1.0560 -3.8984  2.8949
  256MOL0     H34541   3.596   1.248  10.797 -0.1799  1.2196 -2.8127
  256MOL0     H34542   3.569   1.150  10.322 -0.4978 -0.2291  0.4784
  256MOL0     H34543   3.454   1.132  10.112 -2.1473 -1.1689 -1.4825
  256MOL0     H34544   2.282   1.199   9.994 -0.8948  1.4298  0.1119
  256MOL0     H34545   2.042   1.120  10.068 -1.4708 -1.1776 -0.6662
  256MOL0     H34546   1.669   0.870   9.852  3.8438  0.0450  0.9951
  256MOL0     H34547   1.429   0.876   9.854  0.0022  0.4912 -0.4780
  256MOL0     H34548   1.216   0.850  10.230  1.6355  0.3094  0.3520
  256MOL0     H34549   1.240   0.733  10.104 -0.4056 -0.7756  0.4584
  256MOL0     H34550   1.035   0.819   9.989 -1.4061 -1.3930  0.4186
  256MOL0     H34551   1.028   0.959  10.109 -2.5264 -1.4591  0.4237
  256MOL0     H34552   0.991   0.786  10.290 -3.3720 -1.9745  0.9132
  256MOL0     H34553   0.967   0.663  10.162  1.7105 -0.5047  1.9446
  256MOL0     H34554   0.779   0.781  10.087 -1.4309  1.3399  1.5300
  256MOL0     H34555   0.764   0.732  10.257  1.4507  0.6465  2.4131
  256MOL0     H34556   0.698   1.158  10.242  3.7599  1.0125  0.9051
  256MOL0     H34557   1.416   0.932  10.273  3.0789 -1.6543  1.6422
  256MOL0     H34558   1.749   0.847  10.331 -0.1911 -1.4701  1.2917
  256MOL0     H34559   1.761   1.023  10.314  0.0782  0.2932  0.8646
  256MOL0     H34560   1.624   0.965  10.402  0.8138  1.0189 -1.4186
  257MOL0     O34561   3.865  10.982   2.226 -0.7016 -0.4276  0.5387
  257MOL0     C34562   3.868  10.890   2.145 -0.1877  0.4217  0.5171
  257MOL0     O34563   3.967  10.865   2.055 -0.7237 -0.0392 -0.2266
  257MOL0     C34564   4.052  10.955   1.997  0.1164  0.6969 -0.0950
  257MOL0     C34565   4.075  11.083   2.043  0.1877 -0.7560 -0.0175
  257MOL0     C34566   4.150  11.170   1.967 -0.0714 -0.6467 -0.0618
  257MOL0     C34567   4.204  11.119   1.844  0.0122  0.4254 -0.0524
  257MOL0     O34568   4.299  11.180   1.765  1.1231 -0.2087 -0.7381
  257MOL0     C34569   4.386  11.284   1.808  0.3015 -0.5368 -0.4384
  257MOL0     C34570   4.472  11.330   1.689 -0.0496  0.6534 -0.1474
  257MOL0     C34571   4.549  11.209   1.631  0.3637 -0.2275  0.4831
  257MOL0     C34572   4.607  11.232   1.484  0.6581 -0.2177 -0.5883
  257MOL0     C34573   4.671  11.095   1.432  0.1260 -0.4012 -0.1531
  257MOL0     C34574   4.692  11.102   1.278 -0.9203 -0.2105 -0.8782
  257MOL0     C34575   4.830  11.169   1.249 -0.2073 -0.3880 -0.2747
  257MOL0     C34576   4.945  11.069   1.231 -0.8941 -0.0538 -0.5377
  257MOL0     N34577   4.936  10.980   1.115 -0.4512  0.3711 -0.0289
  257MOL0     C34578   4.959  11.007   0.981 -0.1236  0.1867 -0.3201
  257MOL0     C34579   4.945  10.889   0.909 -0.5139  0.1488 -0.7557
  257MOL0     C34580   4.957  10.871   0.759  0.1648  0.4597  0.0609
  257MOL0     C34581   4.831  10.806   0.708 -0.4356 -0.1951 -1.0616
  257MOL0     C34582   4.707  10.888   0.735 -0.2581 -0.4882  0.5722
  257MOL0     C34583   4.582  10.838   0.659 -0.9032  0.1937 -0.0015
  257MOL0     O34584   4.468  10.918   0.704 -0.0704 -0.0196  1.0323
  257MOL0     C34585   4.343  10.850   0.708  0.7371  0.6213 -1.1449
  257MOL0     C34586   4.264  10.869   0.823 -0.2224 -0.2408 -0.7712
  257MOL0     C34587   4.135  10.819   0.843 -0.5101  0.5095 -0.8007
  257MOL0     C34588   4.079  10.731   0.746 -1.0498 -0.5445  0.1313
  257MOL0     C34589   3.951  10.667   0.767 -0.6629  0.0040 -0.1182
  257MOL0     O34590   3.859  10.731   0.845  0.1329 -0.0070  0.0583
  257MOL0     C34591   3.748  10.668   0.892  0.3796 -0.5909  0.0505
  257MOL0     C34592   3.658  10.749   0.967 -0.3584  0.8470 -0.2960
  257MOL0     C34593   3.541  10.693   1.033 -0.5664 -1.1945 -0.5852
  257MOL0     C34594   3.501  10.560   1.007 -1.5983 -0.3133  0.6053
  257MOL0     O34595   3.390  10.505   1.057 -0.0372  0.7945  0.3510
  257MOL0     C34596   3.270  10.583   1.025  0.6004  1.0155  0.1151
  257MOL0     C34597   3.145  10.501   1.057 -0.7132  0.7127  0.5092
  257MOL0     C34598   3.144  10.444   1.201 -0.4637 -0.7013  0.4656
  257MOL0     C34599   2.999  10.392   1.241 -0.4048  0.1494  0.0001
  257MOL0     C34600   2.994  10.330   1.374  0.0161 -0.2782 -0.4014
  257MOL0     C34601   2.854  10.294   1.422  0.1608  0.1490 -0.1071
  257MOL0     C34602   2.854  10.296   1.578  0.3306  0.1774  0.1965
  257MOL0     C34603   2.800  10.435   1.612  0.1784 -0.1946  0.8876
  257MOL0    Cl34604   2.752  10.442   1.782  0.2023 -0.6178  0.5995
  257MOL0     C34605   3.590  10.479   0.938  0.2998  0.2086  0.6166
  257MOL0     C34606   3.712  10.536   0.878  0.8003  0.1569 -0.4170
  257MOL0     O34607   3.925  10.581   0.685 -0.2255 -0.0228 -0.1731
  257MOL0     C34608   4.157  10.702   0.635  0.2982 -0.1124  0.0548
  257MOL0     C34609   4.282  10.765   0.611  0.1302 -0.6106  0.5433
  257MOL0     N34610   4.922  10.790   1.008 -0.4931 -0.8524  0.5623
  257MOL0     N34611   4.912  10.846   1.124 -0.2189 -0.1265  0.8635
  257MOL0     C34612   4.176  10.988   1.800 -0.4656 -0.6140  0.2298
  257MOL0     C34613   4.089  10.909   1.873 -0.5817  0.9107  0.8612
  257MOL0     C34614   3.765  10.783   2.154  0.4140 -0.2562 -0.6081
  257MOL0     C34615   3.756  10.692   2.047  0.0707  0.5037 -0.8580
  257MOL0     C34616   3.657  10.595   2.047 -0.5704  0.0922  0.7474
  257MOL0     C34617   3.577  10.563   2.150  0.1758  0.6075 -0.3455
  257MOL0     O34618   3.502  10.440   2.139 -0.5481 -0.5262 -0.6264
  257MOL0     C34619   3.430  10.397   2.261 -0.0528  0.2648  0.6746
  257MOL0     C34620   3.343  10.265   2.273  0.4647 -0.1197 -1.1125
  257MOL0     C34621   3.224  10.267   2.175 -0.5192 -0.1203 -0.1337
  257MOL0     C34622   3.135  10.144   2.182  0.3361  0.9021  0.7913
  257MOL0     C34623   3.060  10.139   2.055  0.4432  0.5628  0.0181
  257MOL0     C34624   3.012  10.157   1.948  0.1797 -0.3409  0.3062
  257MOL0     C34625   3.595  10.639   2.268  1.1060 -0.2908 -0.2693
  257MOL0     C34626   3.688  10.748   2.276  0.2942 -0.2684  0.3337
  257MOL0     C34627   3.711  10.818   2.406 -0.5578  0.3351  0.8916
  257MOL0     H34628   4.041  11.119   2.140  5.7446  2.6014  1.1585
  257MOL0     H34629   4.179  11.271   1.994  1.1044 -1.6967  3.0060
  257MOL0     H34630   4.335  11.371   1.850  1.4492 -0.3361  0.5708
  257MOL0     H34631   4.448  11.250   1.891  1.7382 -2.3410 -2.1515
  257MOL0     H34632   4.543  11.397   1.736 -0.7597  0.2671  1.5665
  257MOL0     H34633   4.423  11.382   1.606  1.7209  0.9100 -1.0754
  257MOL0     H34634   4.506  11.108   1.633  1.5390 -0.8519 -2.1065
  257MOL0     H34635   4.635  11.199   1.697  0.6258 -1.2568  0.0202
  257MOL0     H34636   4.527  11.256   1.414  1.1274 -0.7651 -1.3325
  257MOL0     H34637   4.669  11.323   1.486 -1.4486  1.3363  1.8423
  257MOL0     H34638   4.766  11.084   1.484 -0.0604  1.1584  0.5732
  257MOL0     H34639   4.611  11.009   1.465 -1.1808  1.6019  3.2435
  257MOL0     H34640   4.691  11.006   1.226 -0.9513  0.0982 -1.4632
  257MOL0     H34641   4.613  11.162   1.232 -0.2989  0.2247 -1.3931
  257MOL0     H34642   4.857  11.251   1.317 -2.0006 -0.2280  0.2843
  257MOL0     H34643   4.821  11.208   1.147 -0.2031 -2.6667 -1.1943
  257MOL0     H34644   5.039  11.125   1.230  1.0610 -2.9389 -4.4437
  257MOL0     H34645   4.944  11.003   1.318  2.1085 -0.3758 -0.6416
  257MOL0     H34646   4.978  11.107   0.943  1.5645  0.1631  0.3637
  257MOL0     H34647   4.966  10.969   0.711 -0.9003  0.5239 -0.0213
  257MOL0     H34648   5.040  10.806   0.730  0.9670  1.5888 -0.2688
  257MOL0     H34649   4.832  10.803   0.598 -1.9428 -0.7634 -1.0842
  257MOL0     H34650   4.815  10.706   0.747  0.8212  0.2760  0.7656
  257MOL0     H34651   4.728  10.990   0.703  1.3752 -0.3937  1.7579
  257MOL0     H34652   4.681  10.882   0.841  0.3398  1.8032  0.8863
  257MOL0     H34653   4.559  10.735   0.686  1.2338  0.0608  1.5650
  257MOL0     H34654   4.599  10.835   0.551 -2.8366  1.6459 -0.4057
  257MOL0     H34655   4.309  10.926   0.904  0.5462 -1.2295 -0.4856
  257MOL0     H34656   4.090  10.846   0.937  0.2938  2.3715 -0.9086
  257MOL0     H34657   3.685  10.854   0.970 -3.0000  1.5700  1.2714
  257MOL0     H34658   3.487  10.752   1.106  0.6427  1.3948 -1.6792
  257MOL0     H34659   3.263  10.665   1.097 -3.0585  1.0295 -0.0345
  257MOL0     H34660   3.273  10.631   0.926 -1.3226  0.0672 -0.4583
  257MOL0     H34661   3.052  10.556   1.039 -2.2611 -1.9911 -0.3145
  257MOL0     H34662   3.137  10.411   0.995  1.6496 -2.0595  3.8058
  257MOL0     H34663   3.221  10.367   1.214 -0.5480 -1.1203 -1.2546
  257MOL0     H34664   3.166  10.520   1.277 -0.8048 -2.2475  2.2001
  257MOL0     H34665   2.970  10.317   1.166 -1.4222 -1.4600  1.9104
  257MOL0     H34666   2.941  10.485   1.239  1.3568  1.2935  0.2704
  257MOL0     H34667   3.037  10.405   1.442 -0.3468  0.3449 -0.8505
  257MOL0     H34668   3.065  10.247   1.383 -1.1925 -1.3675 -0.7531
  257MOL0     H34669   2.776  10.353   1.374 -1.0458 -1.4597 -0.2304
  257MOL0     H34670   2.838  10.191   1.389  1.4139  0.5941 -2.3024
  257MOL0     H34671   2.953  10.279   1.621 -0.6515 -0.2491  2.4749
  257MOL0     H34672   2.784  10.219   1.612 -0.2867  1.3716  1.7823
  257MOL0     H34673   2.885  10.501   1.592 -1.1621  0.1966 -5.6974
  257MOL0     H34674   2.715  10.456   1.546 -0.6778 -5.3437 -0.1161
  257MOL0     H34675   3.562  10.375   0.933 -1.7448  0.6629  1.3821
  257MOL0     H34676   3.772  10.454   0.841 -0.0154 -0.4332 -0.4461
  257MOL0     H34677   4.130  10.637   0.552  1.6726  0.4855 -0.9026
  257MOL0     H34678   4.337  10.747   0.520 -1.3080  1.6793 -0.8567
  257MOL0     H34679   4.207  10.959   1.700 -0.3071  2.5997 -0.7854
  257MOL0     H34680   4.053  10.813   1.836 -0.9277  1.3486  0.0492
  257MOL0     H34681   3.808  10.694   1.952 -0.0231 -0.0214 -0.9208
  257MOL0     H34682   3.631  10.537   1.960 -0.2916  3.3716 -1.7011
  257MOL0     H34683   3.363  10.481   2.284  2.1681  2.4700 -0.4456
  257MOL0     H34684   3.505  10.374   2.337  0.5688 -1.2632 -0.3560
  257MOL0     H34685   3.314  10.252   2.378  4.4067 -2.3965 -0.0997
  257MOL0     H34686   3.406  10.176   2.261  0.2053 -0.5560  0.4809
  257MOL0     H34687   3.274  10.272   2.078 -0.1971  3.4530  0.1039
  257MOL0     H34688   3.160  10.356   2.175 -2.8570 -1.6551 -2.1493
  257MOL0     H34689   3.187  10.052   2.209  1.6408  2.2306  3.1267
  257MOL0     H34690   3.059  10.152   2.261 -0.7555  1.4480 -0.2662
  257MOL0     H34691   2.959  10.196   1.864 -0.0945  3.2905  1.9635
  257MOL0     H34692   3.542  10.613   2.359 -1.3985  0.2441 -1.5110
  257MOL0     H34693   3.817  10.812   2.433 -0.1367 -0.5524 -0.8080
  257MOL0     H34694   3.683  10.924   2.402 -1.6503  0.0923  1.7463
  257MOL0     H34695   3.645  10.770   2.478 -0.8142  0.8471  0.9975
  258MOL0     O34696   7.067  10.584   3.273  0.0524 -0.6546  0.2924
  258MOL0     C34697   7.114  10.522   3.366 -0.2239  0.0026 -0.0791
  258MOL0     O34698   7.070  10.531   3.493 -0.0903  0.8974 -0.5160
  258MOL0     C34699   6.933  10.557   3.506 -0.2836 -0.0741  0.2599
  258MOL0     C34700   6.844  10.466   3.456  0.8772 -0.7069 -0.2822
  258MOL0     C34701   6.705  10.495   3.453  0.5031  1.1279  0.4290
  258MOL0     C34702   6.661  10.611   3.523  0.7928  0.0106  0.2579
  258MOL0     O34703   6.528  10.645   3.533  0.2044 -0.0167 -0.1582
  258MOL0     C34704   6.470  10.596   3.661 -0.0822  0.6528 -0.0634
  258MOL0     C34705   6.426  10.447   3.657 -0.2891 -0.4695 -0.0443
  258MOL0     C34706   6.393  10.399   3.794 -0.3773 -0.4634 -0.1807
  258MOL0     C34707   6.274  10.468   3.868 -0.5031 -0.0967  0.1293
  258MOL0     C34708   6.238  10.405   3.998 -0.5008  0.2335 -0.2319
  258MOL0     C34709   6.355  10.416   4.093 -0.1474 -0.2701  0.4776
  258MOL0     C34710   6.325  10.369   4.234  0.3003 -0.0323  0.1574
  258MOL0     C34711   6.443  10.369   4.335  0.4769  1.0354  0.2004
  258MOL0     N34712   6.467  10.506   4.386 -0.1646 -0.7411 -0.3095
  258MOL0     C34713   6.375  10.583   4.455  0.7679 -0.0648  0.2915
  258MOL0     C34714   6.436  10.698   4.465  1.0592 -0.6650  0.5334
  258MOL0     C34715   6.391  10.816   4.548  0.5087  0.2590  0.7812
  258MOL0     C34716   6.344  10.773   4.687 -0.0019 -0.5525 -0.3841
  258MOL0     C34717   6.464  10.712   4.763 -0.8281  0.1170  0.1076
  258MOL0     C34718   6.413  10.650   4.898  0.1541  0.8065 -0.5705
  258MOL0     O34719   6.523  10.625   4.988  0.6727  0.5510  0.0491
  258MOL0     C34720   6.619  10.531   4.977 -1.2610 -0.1416 -0.6932
  258MOL0     C34721   6.596  10.408   4.915 -0.2210 -0.7168  0.1712
  258MOL0     C34722   6.698  10.315   4.897  0.8280  0.1464 -0.6116
  258MOL0     C34723   6.824  10.327   4.953 -1.9259  0.1343  0.0933
  258MOL0     C34724   6.936  10.235   4.928 -0.0645 -0.1657 -0.7554
  258MOL0     O34725   6.903  10.126   4.852  0.0732  0.0576  0.1668
  258MOL0     C34726   6.998  10.033   4.827 -0.4846 -0.8489 -0.2741
  258MOL0     C34727   7.091  10.059   4.722  0.0829  0.0941  0.4336
  258MOL0     C34728   7.180   9.965   4.670  0.1471 -0.5467  0.2288
  258MOL0     C34729   7.196   9.848   4.739 -0.7182  0.6564  0.5411
  258MOL0     O34730   7.306   9.768   4.715 -0.4175  1.1133  1.2267
  258MOL0     C34731   7.311   9.631   4.753 -0.2029  0.1528  0.2989
  258MOL0     C34732   7.453   9.583   4.793 -0.7341  0.1680  0.6336
  258MOL0     C34733   7.460   9.434   4.827 -0.7744  0.5536 -0.2721
  258MOL0     C34734   7.402   9.416   4.971 -0.5901  0.0999  0.1056
  258MOL0     C34735   7.414   9.281   5.028  0.3593  1.2432 -0.6989
  258MOL0     C34736   7.320   9.166   4.973 -0.2519  0.2858 -0.1017
  258MOL0     C34737   7.290   9.061   5.087  0.5435 -0.7318  0.0243
  258MOL0     C34738   7.159   8.985   5.079 -1.1556  0.6026  0.2626
  258MOL0    Cl34739   7.130   8.903   4.918 -0.9682 -0.2995 -0.2725
  258MOL0     C34740   7.093   9.812   4.831 -0.2002 -0.0640  0.7034
  258MOL0     C34741   6.992   9.901   4.874 -0.4839 -0.7150 -0.3389
  258MOL0     O34742   7.053  10.263   4.964 -0.0240 -0.0626  0.9332
  258MOL0     C34743   6.845  10.458   5.018  0.1009  0.3498  0.2297
  258MOL0     C34744   6.745  10.548   5.041  0.7509 -0.6136 -0.3841
  258MOL0     N34745   6.560  10.695   4.414 -0.1138 -0.3351  0.4268
  258MOL0     N34746   6.585  10.575   4.365  1.1706 -0.7967  0.0737
  258MOL0     C34747   6.752  10.706   3.570 -0.1201  0.0108 -0.0696
  258MOL0     C34748   6.887  10.676   3.551  1.2558 -0.4636 -0.4519
  258MOL0     C34749   7.239  10.438   3.348  0.9629  0.1897  0.4891
  258MOL0     C34750   7.303  10.385   3.459  0.4311 -0.3819  0.2182
  258MOL0     C34751   7.428  10.324   3.447 -0.7613  0.6796  1.3420
  258MOL0     C34752   7.504  10.318   3.328  0.1340 -0.4227  0.4216
  258MOL0     O34753   7.629  10.259   3.300 -0.2397 -0.6178 -0.7920
  258MOL0     C34754   7.709  10.237   3.407 -0.8710 -0.5387 -0.2789
  258MOL0     C34755   7.862  10.236   3.371  0.8234  0.3066 -0.5460
  258MOL0     C34756   7.919  10.104   3.306  0.0795 -0.0685 -0.7950
  258MOL0     C34757   7.852  10.070   3.177 -0.2919 -0.1329  0.7272
  258MOL0     C34758   7.871  10.179   3.073  0.5614 -0.3023 -0.2943
  258MOL0     C34759   7.901  10.252   2.979  0.4496  0.2563 -0.0812
  258MOL0     C34760   7.435  10.373   3.220 -0.4153  0.5331  0.1220
  258MOL0     C34761   7.305  10.422   3.221  0.6064  0.5784 -0.1243
  258MOL0     C34762   7.247  10.476   3.090 -0.2777 -0.1102  0.1922
  258MOL0     H34763   6.875  10.373   3.409 -1.1979 -1.1573 -0.8625
  258MOL0     H34764   6.627  10.434   3.409  1.2167  0.4804  0.0535
  258MOL0     H34765   6.550  10.593   3.736  0.5453 -0.6251 -0.7509
  258MOL0     H34766   6.389  10.658   3.699 -0.7284 -0.9251  1.2929
  258MOL0     H34767   6.508  10.385   3.618 -0.9955 -0.9357 -0.8142
  258MOL0     H34768   6.339  10.436   3.592  0.4414  1.3392 -1.4071
  258MOL0     H34769   6.483  10.407   3.856  0.0816 -1.2511 -0.7336
  258MOL0     H34770   6.373  10.292   3.797 -1.9351 -0.2039 -0.2756
  258MOL0     H34771   6.289  10.574   3.892 -1.1775 -0.1228  0.7058
  258MOL0     H34772   6.181  10.465   3.812  0.0801  2.2444 -1.1136
  258MOL0     H34773   6.157  10.454   4.054  0.6520  0.5844  1.1985
  258MOL0     H34774   6.208  10.300   3.991 -1.8711  0.6259 -0.5421
  258MOL0     H34775   6.443  10.359   4.061  1.0292  1.8492 -0.2289
  258MOL0     H34776   6.372  10.523   4.106  1.9573 -0.6379  1.1928
  258MOL0     H34777   6.295  10.264   4.228  1.1809 -0.4723  2.5834
  258MOL0     H34778   6.244  10.428   4.277  0.6305  1.0588 -0.6532
  258MOL0     H34779   6.403  10.321   4.425  1.2574  0.8692  0.4632
  258MOL0     H34780   6.532  10.320   4.295 -0.0409  0.7404 -0.6285
  258MOL0     H34781   6.277  10.546   4.482  1.5666 -1.9630  0.7956
  258MOL0     H34782   6.474  10.888   4.549  2.7415 -2.1477  0.9898
  258MOL0     H34783   6.297  10.854   4.509 -0.8570 -1.6605  2.0282
  258MOL0     H34784   6.306  10.860   4.741 -1.3230 -2.4308  1.9136
  258MOL0     H34785   6.264  10.699   4.682 -1.7948  1.2511  0.2217
  258MOL0     H34786   6.534  10.793   4.786 -0.3736 -1.0837  3.3986
  258MOL0     H34787   6.505  10.641   4.690 -1.4164  0.2625 -0.3743
  258MOL0     H34788   6.357  10.558   4.878  0.0150  0.9655 -0.9189
  258MOL0     H34789   6.350  10.721   4.952  0.4985  1.1607 -0.6299
  258MOL0     H34790   6.497  10.386   4.877 -2.1548  0.9106  3.7607
  258MOL0     H34791   6.681  10.218   4.851  3.4731 -1.3142  1.2146
  258MOL0     H34792   7.102  10.153   4.669 -1.2295  0.8943  1.5060
  258MOL0     H34793   7.237   9.976   4.578 -1.1863 -2.0554 -0.8291
  258MOL0     H34794   7.235   9.616   4.831 -0.4480  0.5017  0.1352
  258MOL0     H34795   7.283   9.558   4.676  0.1377 -0.4495  0.7421
  258MOL0     H34796   7.513   9.596   4.703  1.3175 -3.0438  1.3343
  258MOL0     H34797   7.498   9.649   4.868  0.7933  1.2131 -1.1153
  258MOL0     H34798   7.405   9.369   4.758  0.6083  0.0974 -0.9716
  258MOL0     H34799   7.562   9.396   4.813 -0.2816  2.0436 -0.8562
  258MOL0     H34800   7.298   9.448   4.963 -0.6045  0.1255  0.3756
  258MOL0     H34801   7.445   9.496   5.032 -1.1447  1.5603 -1.3542
  258MOL0     H34802   7.418   9.280   5.138 -0.2265  1.4255 -0.6677
  258MOL0     H34803   7.513   9.248   4.997 -0.5891 -0.5663 -1.9638
  258MOL0     H34804   7.225   9.200   4.930  0.7303 -0.6176 -3.2780
  258MOL0     H34805   7.371   9.120   4.888  3.0413 -1.2083  2.4374
  258MOL0     H34806   7.288   9.096   5.190  2.4465  1.0637 -0.4926
  258MOL0     H34807   7.368   8.984   5.085 -0.9538 -2.3280  0.2240
  258MOL0     H34808   7.142   8.904   5.152 -0.8822 -0.2946 -0.6495
  258MOL0     H34809   7.066   9.042   5.095 -3.3230 -3.2812  3.4916
  258MOL0     H34810   7.102   9.727   4.897 -0.5510 -2.4692 -2.1645
  258MOL0     H34811   6.913   9.877   4.944 -1.0120 -0.5524 -0.8663
  258MOL0     H34812   6.943  10.478   5.060 -0.0052  1.2957  0.0323
  258MOL0     H34813   6.762  10.626   5.114 -2.1274 -0.0589 -0.1701
  258MOL0     H34814   6.710  10.800   3.605 -0.6166 -0.7724  1.5215
  258MOL0     H34815   6.950  10.755   3.592 -0.8933  2.2724 -2.1381
  258MOL0     H34816   7.268  10.392   3.561  1.7141 -3.5157  0.9984
  258MOL0     H34817   7.460  10.272   3.537 -0.3038 -1.2516  0.1083
  258MOL0     H34818   7.696  10.140   3.456 -2.1864 -0.3152 -0.1565
  258MOL0     H34819   7.692  10.316   3.481  0.5048 -0.8135  0.3588
  258MOL0     H34820   7.922  10.250   3.461 -0.2760 -3.7542  1.0592
  258MOL0     H34821   7.880  10.309   3.292 -0.8569 -1.3211 -2.5626
  258MOL0     H34822   7.903  10.020   3.373  1.3000 -0.6497 -1.1918
  258MOL0     H34823   8.028  10.116   3.297  0.3146  1.6073  2.7771
  258MOL0     H34824   7.887   9.976   3.135  0.0041  0.4364 -0.3474
  258MOL0     H34825   7.746  10.050   3.193 -0.0793  0.2349  2.8926
  258MOL0     H34826   7.919  10.312   2.892 -1.2335 -0.8102 -1.2138
  258MOL0     H34827   7.483  10.350   3.125 -0.4296 -1.1782  0.5033
  258MOL0     H34828   7.263  10.584   3.093 -0.4844 -0.0930  0.7151
  258MOL0     H34829   7.298  10.442   2.998 -0.8466 -2.9368  0.8068
  258MOL0     H34830   7.138  10.466   3.089 -0.1758 -1.3965  0.0458
  259MOL0     O34831   2.797   6.833  11.430 -0.0492 -0.2584 -0.6887
  259MOL0     C34832   2.696   6.858  11.496  0.9523 -0.8230 -0.0212
  259MOL0     O34833   2.682   6.853  11.630 -0.1666  0.1532  1.0189
  259MOL0     C34834   2.770   6.777  11.702  0.4075  0.8405  0.3439
  259MOL0     C34835   2.837   6.652  11.659  0.4321 -0.8594  0.2008
  259MOL0     C34836   2.915   6.575  11.755 -0.3906 -0.4260 -0.1685
  259MOL0     C34837   2.929   6.627  11.883 -1.1910 -0.2676 -0.0219
  259MOL0     O34838   2.978   6.547  11.981 -0.1585 -0.2219  0.3666
  259MOL0     C34839   2.883   6.451  12.029  0.5507 -0.3510 -0.5108
  259MOL0     C34840   2.949   6.377  12.144  0.2741 -0.6408  1.0867
  259MOL0     C34841   2.909   6.234  12.157 -0.0103  0.2799  0.0783
  259MOL0     C34842   2.952   6.190  12.302 -0.1815 -1.0994  0.3608
  259MOL0     C34843   2.876   6.068  12.343 -0.4332 -0.0670 -0.2857
  259MOL0     C34844   2.916   5.999  12.479 -0.4691  0.0136 -0.0889
  259MOL0     C34845   2.918   5.848  12.463  0.2720  0.8740  0.1164
  259MOL0     C34846   3.003   5.774  12.565  0.2505 -0.3179 -0.3404
  259MOL0     N34847   2.946   5.792  12.705 -0.3763  0.5532 -0.4271
  259MOL0     C34848   3.025   5.830  12.821  0.1856  0.2003  0.1131
  259MOL0     C34849   2.928   5.844  12.917 -0.2836 -1.2506  0.2831
  259MOL0     C34850   2.959   5.881  13.058 -1.4451  0.2547 -0.6225
  259MOL0     C34851   3.110   5.837  13.092  0.5787 -0.1729  0.5498
  259MOL0     C34852   3.150   5.847  13.230 -0.3944 -1.2763  0.3480
  259MOL0     C34853   3.279   5.768  13.265  0.1348 -0.3826 -0.1459
  259MOL0     O34854   3.343   5.824  13.376  0.2963  0.6514 -0.3341
  259MOL0     C34855   3.424   5.732  13.446 -1.2666 -0.4145  0.0164
  259MOL0     C34856   3.474   5.607  13.401 -0.4164 -0.3976  0.2804
  259MOL0     C34857   3.522   5.508  13.487  0.1784  0.0832  0.5178
  259MOL0     C34858   3.541   5.539  13.622  0.1130 -0.1229  0.5004
  259MOL0     C34859   3.613   5.447  13.710  0.2974  0.2212 -0.3570
  259MOL0     O34860   3.623   5.484  13.837  1.1147 -0.5591 -0.1393
  259MOL0     C34861   3.697   5.418  13.931 -0.8726 -0.4109  0.1611
  259MOL0     C34862   3.674   5.285  13.947  0.3358  1.1453 -0.4820
  259MOL0     C34863   3.756   5.219  14.037  0.5003  0.8973 -0.4478
  259MOL0     C34864   3.838   5.287  14.120  0.4156 -0.0286  0.2019
  259MOL0     O34865   3.917   5.212  14.203  0.3102  0.1387  0.1140
  259MOL0     C34866   3.956   5.260  14.329 -0.3183  0.1346 -0.2281
  259MOL0     C34867   3.984   5.146  14.432 -0.2309 -0.4670 -0.1713
  259MOL0     C34868   4.086   5.196  14.543 -0.5537  0.1095  0.1569
  259MOL0     C34869   4.104   5.099  14.656 -0.4503 -0.2641  0.2990
  259MOL0     C34870   4.162   5.161  14.783 -0.1109  0.4108  0.0501
  259MOL0     C34871   4.156   5.054  14.907  0.3977 -0.2725 -0.6242
  259MOL0     C34872   4.204   5.126  15.031  0.1842 -0.7250 -0.0591
  259MOL0     C34873   4.285   5.044  15.128 -0.0244 -0.3833 -0.2138
  259MOL0    Cl34874   4.229   4.870  15.117 -0.0971  0.3418 -0.0669
  259MOL0     C34875   3.847   5.430  14.115  0.1083  0.2463  1.1469
  259MOL0     C34876   3.781   5.493  14.009 -0.3004  0.1968  0.2140
  259MOL0     O34877   3.664   5.346  13.658  0.2521 -0.2543 -0.8302
  259MOL0     C34878   3.475   5.657  13.671 -0.8417  0.6088  0.4172
  259MOL0     C34879   3.433   5.753  13.584 -0.5301 -1.1381  0.4852
  259MOL0     N34880   2.803   5.825  12.859 -0.0045 -0.0852  0.3745
  259MOL0     N34881   2.816   5.796  12.731  0.1832 -0.3676 -0.5003
  259MOL0     C34882   2.884   6.758  11.915  0.0049  0.0945 -0.2700
  259MOL0     C34883   2.808   6.836  11.828 -0.1126  1.0948  0.6960
  259MOL0     C34884   2.579   6.893  11.414  0.3347 -0.2537 -0.2869
  259MOL0     C34885   2.501   6.991  11.467 -0.4644  0.4894 -0.4642
  259MOL0     C34886   2.396   7.045  11.394 -0.7711  0.1724 -0.2827
  259MOL0     C34887   2.364   6.999  11.268 -0.2791 -0.2239  0.1815
  259MOL0     O34888   2.267   7.047  11.184  0.7540 -0.8016  0.1901
  259MOL0     C34889   2.155   7.138  11.230  0.2455 -0.0390 -0.0373
  259MOL0     C34890   2.053   7.065  11.316  0.4138 -0.1760 -0.7140
  259MOL0     C34891   1.907   7.134  11.306  0.4326 -0.2104 -0.3000
  259MOL0     C34892   1.809   7.095  11.411  1.1712  0.1682 -0.9427
  259MOL0     C34893   1.760   6.963  11.386  0.0656 -0.0969  0.2357
  259MOL0     C34894   1.712   6.854  11.380 -0.1092  1.2242  0.6720
  259MOL0     C34895   2.436   6.896  11.222 -0.7019  0.1028 -0.4807
  259MOL0     C34896   2.555   6.851  11.282 -0.8118  0.7104  0.7882
  259MOL0     C34897   2.622   6.732  11.222 -0.3938 -0.1038 -0.1386
  259MOL0     H34898   2.810   6.607  11.564 -4.6712  2.8293 -0.5139
  259MOL0     H34899   2.968   6.482  11.736  0.3872 -0.2745  1.1277
  259MOL0     H34900   2.789   6.494  12.066  1.6393  0.8890  0.9358
  259MOL0     H34901   2.871   6.376  11.950  1.4825  1.1749 -2.1616
  259MOL0     H34902   2.954   6.428  12.240  1.9699  0.7333  0.3172
  259MOL0     H34903   3.055   6.366  12.119  1.2817  2.5746  3.3868
  259MOL0     H34904   2.965   6.170  12.087  1.9453  2.4009 -0.4295
  259MOL0     H34905   2.801   6.240  12.145  0.1484  3.2726 -0.7750
  259MOL0     H34906   3.059   6.171  12.300  0.0450 -0.1738  1.8741
  259MOL0     H34907   2.936   6.272  12.372 -1.0452 -0.6364 -0.3574
  259MOL0     H34908   2.768   6.079  12.337 -0.5229 -1.3232 -1.3000
  259MOL0     H34909   2.905   5.992  12.270  2.9910 -1.6829  2.4347
  259MOL0     H34910   3.015   6.033  12.511 -0.6469  1.1882 -0.7286
  259MOL0     H34911   2.864   6.030  12.570  2.0869  1.3829  1.0147
  259MOL0     H34912   2.962   5.830  12.364  0.0990 -1.1264  0.3639
  259MOL0     H34913   2.815   5.809  12.461  0.8063 -0.5842 -1.7004
  259MOL0     H34914   3.015   5.669  12.539 -3.3108 -0.3481 -2.3634
  259MOL0     H34915   3.100   5.823  12.551 -0.3126  1.3559  1.1917
  259MOL0     H34916   3.134   5.832  12.823  0.1992  1.8788 -0.8256
  259MOL0     H34917   2.938   5.987  13.075 -1.8187  0.2501 -1.0234
  259MOL0     H34918   2.888   5.840  13.131 -3.7236  1.9460 -1.7395
  259MOL0     H34919   3.118   5.736  13.050 -0.7625  0.4531 -1.3521
  259MOL0     H34920   3.177   5.899  13.033 -0.5404  1.4970  0.9544
  259MOL0     H34921   3.074   5.800  13.293 -0.1578 -3.6631 -1.0342
  259MOL0     H34922   3.167   5.950  13.261  0.4745 -1.3195  0.0533
  259MOL0     H34923   3.347   5.752  13.181 -1.7994  1.5980 -2.2460
  259MOL0     H34924   3.237   5.670  13.289 -0.2768  0.1478  1.4735
  259MOL0     H34925   3.452   5.575  13.300 -0.4394  2.4856 -0.7212
  259MOL0     H34926   3.542   5.410  13.444 -3.4099 -0.2120 -0.8711
  259MOL0     H34927   3.594   5.233  13.896 -0.3886  0.9021  0.8641
  259MOL0     H34928   3.758   5.111  14.044  3.3066  1.0116  3.1168
  259MOL0     H34929   4.047   5.315  14.304  0.3594 -0.5921  0.6046
  259MOL0     H34930   3.881   5.330  14.367 -1.6949 -0.4789 -1.6782
  259MOL0     H34931   3.891   5.132  14.487  0.6602  1.5605  2.0404
  259MOL0     H34932   4.033   5.056  14.392  0.6124  0.4574 -1.2753
  259MOL0     H34933   4.188   5.203  14.505 -0.4522  2.7550  0.7546
  259MOL0     H34934   4.058   5.294  14.584 -5.0117 -0.3716 -1.1158
  259MOL0     H34935   4.169   5.016  14.624 -1.7336 -0.2939 -2.6305
  259MOL0     H34936   4.009   5.051  14.682  0.6938 -1.1571  3.1859
  259MOL0     H34937   4.118   5.254  14.818  1.0567  0.3696  1.8208
  259MOL0     H34938   4.269   5.171  14.763 -0.1128  0.9413  0.2989
  259MOL0     H34939   4.057   5.008  14.912  1.2987 -2.1561  1.1199
  259MOL0     H34940   4.226   4.974  14.880 -0.7260 -1.2081 -0.8139
  259MOL0     H34941   4.118   5.169  15.084 -1.3720 -2.0669 -1.3826
  259MOL0     H34942   4.270   5.209  15.004  1.4656 -1.2465  1.3248
  259MOL0     H34943   4.393   5.055  15.117  0.0362  0.2413  0.8502
  259MOL0     H34944   4.254   5.088  15.223 -0.7268  1.5140 -1.2819
  259MOL0     H34945   3.900   5.481  14.195 -0.0390  2.8237 -0.2811
  259MOL0     H34946   3.801   5.599  13.992  1.0136 -0.2587 -1.2925
  259MOL0     H34947   3.483   5.689  13.774 -0.6575  0.9734  0.2900
  259MOL0     H34948   3.389   5.844  13.622  2.7217  1.2408 -0.9259
  259MOL0     H34949   2.897   6.793  12.017 -2.7340  3.1163 -0.8018
  259MOL0     H34950   2.771   6.934  11.856  3.3676  2.6588  0.3149
  259MOL0     H34951   2.508   7.024  11.570 -1.2586  3.3949 -1.2762
  259MOL0     H34952   2.341   7.119  11.452 -2.9008 -0.8265 -0.9563
  259MOL0     H34953   2.103   7.166  11.138 -0.9169  0.3857  0.7264
  259MOL0     H34954   2.192   7.230  11.277  0.7576  0.4816 -1.4106
  259MOL0     H34955   2.084   7.078  11.420 -2.3056  0.3886  0.1130
  259MOL0     H34956   2.055   6.958  11.295  2.2526  0.1142 -2.3147
  259MOL0     H34957   1.869   7.110  11.207 -1.3592 -2.3877  0.8303
  259MOL0     H34958   1.922   7.242  11.316 -0.7334 -0.0922  0.3996
  259MOL0     H34959   1.857   7.092  11.509 -0.1575 -0.5538 -0.2901
  259MOL0     H34960   1.728   7.168  11.425 -0.6199 -1.9937  0.9193
  259MOL0     H34961   1.671   6.756  11.367 -1.4111  1.4667  2.5626
  259MOL0     H34962   2.410   6.843  11.131  0.2286  0.8491 -1.2038
  259MOL0     H34963   2.576   6.697  11.129  1.0526  0.2763 -1.0266
  259MOL0     H34964   2.727   6.748  11.194 -0.3162 -2.0724 -1.1526
  259MOL0     H34965   2.610   6.643  11.284 -5.1495  0.2006 -0.2431
  260MOL0     O34966   3.165   6.406   8.144 -0.3638  0.4766 -0.3568
  260MOL0     C34967   3.117   6.441   8.033 -0.4528  0.2242  0.4194
  260MOL0     O34968   2.996   6.490   8.006  0.2936 -0.2006  0.7552
  260MOL0     C34969   2.898   6.466   8.093  1.0754  0.5529  0.1571
  260MOL0     C34970   2.815   6.355   8.079 -0.1789 -0.2898 -0.6295
  260MOL0     C34971   2.723   6.324   8.175 -0.1593 -0.2198  0.2462
  260MOL0     C34972   2.703   6.392   8.293 -0.6279  0.0694 -1.0237
  260MOL0     O34973   2.619   6.330   8.383 -0.0239  0.1567  0.3250
  260MOL0     C34974   2.648   6.350   8.522 -0.7494  0.3060 -0.2408
  260MOL0     C34975   2.553   6.245   8.591 -0.5851 -0.3393 -0.1835
  260MOL0     C34976   2.410   6.292   8.580 -0.6118 -0.9061  0.8231
  260MOL0     C34977   2.373   6.412   8.657 -0.4694  1.0364 -0.0364
  260MOL0     C34978   2.238   6.466   8.624  0.3739  0.1734 -0.3760
  260MOL0     C34979   2.199   6.602   8.695 -0.6272 -0.3169  0.4837
  260MOL0     C34980   2.317   6.704   8.705  0.7548  0.4922 -1.2487
  260MOL0     C34981   2.269   6.850   8.732 -0.0100  0.3365  0.0923
  260MOL0     N34982   2.378   6.939   8.788 -0.4570  0.0268  0.6524
  260MOL0     C34983   2.447   6.934   8.906  0.2013 -1.0662 -0.3842
  260MOL0     C34984   2.544   7.024   8.889  0.3236  0.3727 -0.7622
  260MOL0     C34985   2.654   7.052   8.990 -1.5016  0.7285 -0.0922
  260MOL0     C34986   2.603   7.151   9.099 -0.8931  0.4041 -0.6388
  260MOL0     C34987   2.711   7.199   9.197  0.7947  0.1738  0.1040
  260MOL0     C34988   2.675   7.344   9.264 -0.3789  0.3470  0.1255
  260MOL0     O34989   2.798   7.387   9.295  0.2952  0.3478 -0.6742
  260MOL0     C34990   2.793   7.506   9.362 -1.0554  0.7811 -0.2818
  260MOL0     C34991   2.914   7.538   9.431 -0.0300 -0.1228  0.3411
  260MOL0     C34992   2.922   7.663   9.498 -0.2336 -0.1951  0.1097
  260MOL0     C34993   2.806   7.734   9.529  0.3512 -0.1795  0.0462
  260MOL0     C34994   2.809   7.849   9.618 -0.0275  0.1674 -0.3069
  260MOL0     O34995   2.702   7.922   9.634 -0.6121  0.1423 -0.5714
  260MOL0     C34996   2.712   8.023   9.732  0.4771 -0.5333  0.7042
  260MOL0     C34997   2.747   8.151   9.692  0.5408  0.3162 -0.5764
  260MOL0     C34998   2.761   8.257   9.782 -0.5545 -0.2680  0.8280
  260MOL0     C34999   2.704   8.245   9.910 -0.6743  0.1845  0.6486
  260MOL0     O35000   2.700   8.347  10.004  0.4410  0.6415 -0.1436
  260MOL0     C35001   2.770   8.464   9.986  0.3511  0.4609  0.4765
  260MOL0     C35002   2.731   8.566  10.101 -0.0536  1.0964 -0.2033
  260MOL0     C35003   2.819   8.690  10.097 -0.9606 -0.7752 -0.5937
  260MOL0     C35004   2.737   8.818  10.149 -0.9983  0.1137 -0.3513
  260MOL0     C35005   2.714   8.812  10.301  0.2352  0.5114  0.2695
  260MOL0     C35006   2.659   8.942  10.351 -0.1635  0.3216 -0.0504
  260MOL0     C35007   2.510   8.976  10.320 -0.7762  0.2236 -0.1279
  260MOL0     C35008   2.476   9.108  10.391  1.2227  0.2903 -0.2875
  260MOL0    Cl35009   2.309   9.164  10.341 -0.4648 -0.4522  0.0623
  260MOL0     C35010   2.677   8.118   9.951  0.2451  0.8515 -0.6547
  260MOL0     C35011   2.687   8.010   9.867  0.4431 -0.7576 -0.6072
  260MOL0     O35012   2.916   7.862   9.678 -0.3239  0.0936 -0.0146
  260MOL0     C35013   2.681   7.697   9.478  1.0100 -0.3270 -0.6475
  260MOL0     C35014   2.682   7.586   9.394  0.2352  0.0825  0.0717
  260MOL0     N35015   2.530   7.094   8.766  0.3185 -0.4545 -0.0163
  260MOL0     N35016   2.415   7.044   8.711 -0.6676 -0.0009  0.3907
  260MOL0     C35017   2.789   6.503   8.310  0.1552 -0.4733  0.4311
  260MOL0     C35018   2.874   6.546   8.207 -0.8117  0.3484  0.3439
  260MOL0     C35019   3.204   6.416   7.920  0.7326  0.6587  1.2050
  260MOL0     C35020   3.255   6.286   7.904  1.0666 -1.3602 -0.6790
  260MOL0     C35021   3.367   6.266   7.822  0.4394  0.3223 -0.8736
  260MOL0     C35022   3.395   6.356   7.732  0.0143  0.0829  0.4316
  260MOL0     O35023   3.501   6.336   7.638  0.0118  0.1124 -0.3575
  260MOL0     C35024   3.538   6.201   7.592  0.2246 -0.1241 -0.0724
  260MOL0     C35025   3.650   6.224   7.487 -0.3750  1.2605 -0.2184
  260MOL0     C35026   3.704   6.088   7.444  0.5996 -0.1934  0.2955
  260MOL0     C35027   3.784   6.088   7.312  0.0442 -0.1141  0.7584
  260MOL0     C35028   3.910   6.165   7.321  0.6768  0.9352  0.7306
  260MOL0     C35029   3.998   6.235   7.337  0.1741 -0.3682  0.5101
  260MOL0     C35030   3.324   6.484   7.730  0.5933  0.6757  1.0644
  260MOL0     C35031   3.233   6.512   7.825  1.1069 -0.0253 -0.2814
  260MOL0     C35032   3.194   6.647   7.835  0.6440  0.6795  0.1753
  260MOL0     H35033   2.827   6.295   7.989  0.2600  0.5535 -1.1464
  260MOL0     H35034   2.671   6.232   8.154  2.0524 -1.0873 -1.8325
  260MOL0     H35035   2.753   6.324   8.535 -0.9278 -1.6498 -2.2602
  260MOL0     H35036   2.644   6.454   8.557 -0.6794  0.3568 -0.3825
  260MOL0     H35037   2.568   6.216   8.695 -1.1833 -3.5349 -0.8697
  260MOL0     H35038   2.560   6.152   8.533  1.1452 -0.4841  0.2096
  260MOL0     H35039   2.349   6.207   8.612 -1.3599 -0.8771 -0.4241
  260MOL0     H35040   2.375   6.306   8.477 -1.6075  1.3094  1.4130
  260MOL0     H35041   2.369   6.400   8.765  2.7541 -1.6359 -0.0501
  260MOL0     H35042   2.456   6.481   8.636  3.5390 -3.3486 -0.3641
  260MOL0     H35043   2.229   6.478   8.516  0.9604  1.8604 -0.2759
  260MOL0     H35044   2.159   6.395   8.650 -2.8026  3.3370 -0.6740
  260MOL0     H35045   2.118   6.652   8.641  2.4893  3.1099 -1.4077
  260MOL0     H35046   2.161   6.582   8.795 -1.0132  0.3754  0.4762
  260MOL0     H35047   2.377   6.702   8.613  1.0263 -0.7424 -1.0687
  260MOL0     H35048   2.373   6.676   8.795 -3.8221 -0.5608  1.5555
  260MOL0     H35049   2.237   6.885   8.634 -0.1182  1.2757  0.4568
  260MOL0     H35050   2.188   6.832   8.804  0.4976  1.0574  0.8647
  260MOL0     H35051   2.423   6.880   8.997  0.8609  2.4436  2.1133
  260MOL0     H35052   2.682   6.959   9.041 -1.2731  1.0020  0.2855
  260MOL0     H35053   2.744   7.086   8.939 -1.3371  0.5630  0.0843
  260MOL0     H35054   2.556   7.235   9.047 -2.7572  0.1906  0.6005
  260MOL0     H35055   2.518   7.115   9.158  0.0819 -0.5762  0.2075
  260MOL0     H35056   2.803   7.212   9.138  0.3462  2.8337 -0.1690
  260MOL0     H35057   2.741   7.122   9.268 -2.2479 -1.6198 -0.3813
  260MOL0     H35058   2.600   7.344   9.344  0.0921  1.4130  0.5749
  260MOL0     H35059   2.635   7.415   9.191  0.6394  0.0301 -0.7635
  260MOL0     H35060   3.006   7.483   9.416 -0.6150 -1.5105  1.5623
  260MOL0     H35061   3.012   7.695   9.549 -1.4881 -0.6915  2.8854
  260MOL0     H35062   2.773   8.154   9.587  0.7524  2.6079 -0.5160
  260MOL0     H35063   2.804   8.351   9.747 -0.3975  0.2717  2.3836
  260MOL0     H35064   2.878   8.448   9.991  0.3164 -1.1431 -2.0363
  260MOL0     H35065   2.749   8.502   9.885  2.1574 -2.2297 -1.0552
  260MOL0     H35066   2.632   8.610  10.086 -1.4615 -2.3478 -2.4855
  260MOL0     H35067   2.722   8.508  10.194 -3.1067 -2.3283 -2.3467
  260MOL0     H35068   2.911   8.684  10.155 -1.4506  0.7387  0.3873
  260MOL0     H35069   2.838   8.709   9.991 -0.4418  0.4161 -0.3040
  260MOL0     H35070   2.644   8.822  10.090 -1.6561  0.3878  0.6807
  260MOL0     H35071   2.802   8.901  10.120  0.8297 -1.6531 -1.6088
  260MOL0     H35072   2.802   8.779  10.357  0.1093 -3.0980 -1.4096
  260MOL0     H35073   2.649   8.727  10.323 -1.6268  1.7008 -0.4568
  260MOL0     H35074   2.672   8.946  10.459  1.9902  0.3861 -0.2612
  260MOL0     H35075   2.722   9.020  10.305 -0.3806  1.1786  1.0676
  260MOL0     H35076   2.458   8.901  10.381 -0.4765  0.7697  0.8262
  260MOL0     H35077   2.481   8.985  10.215 -0.2463  0.7056 -0.2408
  260MOL0     H35078   2.479   9.088  10.498  0.5360  0.3225 -0.2600
  260MOL0     H35079   2.548   9.185  10.360 -0.3130  2.7208  1.7780
  260MOL0     H35080   2.644   8.099  10.052  3.2091 -0.2456  0.2127
  260MOL0     H35081   2.645   7.920   9.911  0.6090 -0.1104  0.9492
  260MOL0     H35082   2.591   7.753   9.504  2.1275  0.8973  0.7349
  260MOL0     H35083   2.583   7.553   9.366  0.1857 -0.1893  0.5623
  260MOL0     H35084   2.799   6.552   8.407 -0.8902 -0.1987  0.4154
  260MOL0     H35085   2.955   6.615   8.227 -0.9752  0.6112  0.1068
  260MOL0     H35086   3.242   6.199   7.968 -1.7805 -1.2671 -1.0007
  260MOL0     H35087   3.419   6.171   7.823 -1.4555 -0.8549 -3.2568
  260MOL0     H35088   3.460   6.143   7.541 -0.0784  0.6406 -0.4956
  260MOL0     H35089   3.583   6.145   7.674 -0.2657 -2.2591 -1.1854
  260MOL0     H35090   3.733   6.282   7.528  1.0475 -1.4880  0.9875
  260MOL0     H35091   3.617   6.278   7.398  1.7354  0.5748 -1.4971
  260MOL0     H35092   3.622   6.015   7.451 -1.1633  1.8612  3.2873
  260MOL0     H35093   3.771   6.077   7.529  0.1667  0.7104  0.7693
  260MOL0     H35094   3.821   5.985   7.302 -1.3557 -0.4247 -2.6553
  260MOL0     H35095   3.733   6.119   7.221  3.2852  1.0119 -0.8323
  260MOL0     H35096   4.091   6.288   7.341  1.7577 -2.6408 -2.3892
  260MOL0     H35097   3.346   6.553   7.649  0.3037 -1.4498 -0.9385
  260MOL0     H35098   3.222   6.691   7.931  0.7409  1.7080 -0.3070
  260MOL0     H35099   3.237   6.712   7.758 -0.6176  0.9628 -0.3256
  260MOL0     H35100   3.085   6.647   7.826  0.6899 -1.2627 -0.7784
  261MOL0     O35101   1.487   9.659  10.440 -0.3440  0.1710  0.1636
  261MOL0     C35102   1.454   9.762  10.497 -0.4499  0.2802 -0.0383
  261MOL0     O35103   1.522   9.826  10.593 -0.6442 -0.2498 -0.2624
  261MOL0     C35104   1.652   9.787  10.609  0.3609  0.6602 -0.2948
  261MOL0     C35105   1.758   9.836  10.532 -0.3888  0.2050  0.3660
  261MOL0     C35106   1.886   9.811  10.581  0.2415  0.2897 -0.1158
  261MOL0     C35107   1.916   9.720  10.685  0.0792  0.7148  0.7292
  261MOL0     O35108   2.038   9.701  10.743  0.2352  0.2882 -0.2410
  261MOL0     C35109   2.153   9.704  10.668 -0.4965 -0.0207 -0.4938
  261MOL0     C35110   2.280   9.667  10.750  0.2997 -0.1378 -0.4128
  261MOL0     C35111   2.402   9.643  10.648  0.3995  0.4415  0.2762
  261MOL0     C35112   2.533   9.609  10.721 -0.4740 -0.3306 -0.7824
  261MOL0     C35113   2.644   9.577  10.633 -1.4186  0.2483  1.0878
  261MOL0     C35114   2.762   9.510  10.696 -0.8444 -0.5805 -0.7172
  261MOL0     C35115   2.827   9.590  10.804  1.6316 -0.3414 -0.6166
  261MOL0     C35116   2.962   9.535  10.845 -0.8415  0.1482 -0.2112
  261MOL0     N35117   2.966   9.394  10.889  0.6109 -0.1437  0.1403
  261MOL0     C35118   3.003   9.287  10.813 -0.4697  0.6184 -0.6883
  261MOL0     C35119   2.946   9.177  10.870  0.8860  0.1132 -0.3405
  261MOL0     C35120   2.985   9.040  10.828  0.6990  0.1703  0.0014
  261MOL0     C35121   2.847   8.978  10.781 -0.1768  0.0688  0.6716
  261MOL0     C35122   2.857   8.836  10.743  0.3411 -0.2748 -0.5588
  261MOL0     C35123   2.857   8.755  10.877  0.0421  0.3230 -0.5752
  261MOL0     O35124   2.843   8.625  10.832  0.3360  1.1722  0.4434
  261MOL0     C35125   2.894   8.532  10.915  0.5472  0.2097 -0.8144
  261MOL0     C35126   2.810   8.467  11.000 -0.3532 -0.6235 -0.3124
  261MOL0     C35127   2.862   8.368  11.092  0.5291  0.8082  0.2430
  261MOL0     C35128   2.997   8.329  11.085 -0.1974  0.1159 -0.0906
  261MOL0     C35129   3.054   8.223  11.173  0.8130 -0.6675  0.1705
  261MOL0     O35130   2.966   8.132  11.232  1.0927 -1.1643 -0.6677
  261MOL0     C35131   3.008   8.050  11.333  0.9154  0.0080 -0.7669
  261MOL0     C35132   3.034   8.097  11.467 -0.7148  0.0547  0.6138
  261MOL0     C35133   3.068   8.003  11.564  0.8981 -0.2495 -0.8005
  261MOL0     C35134   3.074   7.868  11.532  1.2754 -0.2058  0.1138
  261MOL0     O35135   3.091   7.775  11.635 -0.3384  0.2207  0.7226
  261MOL0     C35136   3.203   7.687  11.598 -0.2976 -0.6369  0.3438
  261MOL0     C35137   3.177   7.555  11.667  0.6740 -0.6212 -0.0009
  261MOL0     C35138   3.297   7.461  11.634  0.1397 -0.3173  0.0264
  261MOL0     C35139   3.266   7.348  11.533  0.0804  0.2314 -0.9238
  261MOL0     C35140   3.397   7.316  11.457  0.1447 -0.3361 -0.4410
  261MOL0     C35141   3.456   7.193  11.518  0.1868 -0.8218 -0.3272
  261MOL0     C35142   3.585   7.137  11.456  0.0607  0.5582  0.6912
  261MOL0     C35143   3.613   6.990  11.473 -0.0706 -0.5409  1.1081
  261MOL0    Cl35144   3.663   6.965  11.637 -0.0236  0.0526 -0.5577
  261MOL0     C35145   3.042   7.826  11.402 -1.0748 -0.6091  0.3659
  261MOL0     C35146   3.009   7.916  11.299  0.5947 -0.3642 -0.2486
  261MOL0     O35147   3.172   8.231  11.198 -0.1601  0.5934  0.0888
  261MOL0     C35148   3.084   8.404  10.996  0.9679 -0.2677  0.7983
  261MOL0     C35149   3.025   8.499  10.914  0.8581 -0.1715  0.6137
  261MOL0     N35150   2.889   9.211  10.993  0.5440 -0.2912 -0.1727
  261MOL0     N35151   2.903   9.347  11.000  0.2520  0.5926 -0.3982
  261MOL0     C35152   1.812   9.659  10.743 -0.6110  0.4031  0.2711
  261MOL0     C35153   1.678   9.696  10.712  0.1791  0.2281  0.4087
  261MOL0     C35154   1.314   9.802  10.475  0.4221  0.0675 -0.2106
  261MOL0     C35155   1.228   9.832  10.593  0.1489 -0.7436  0.1845
  261MOL0     C35156   1.095   9.865  10.571 -0.3232 -0.8594  1.3131
  261MOL0     C35157   1.042   9.860  10.437 -0.2204 -0.0624  0.7357
  261MOL0     O35158   0.908   9.887  10.413  0.4893 -0.0265  0.7286
  261MOL0     C35159   0.856   9.998  10.480 -0.0981 -0.5380 -0.1067
  261MOL0     C35160   0.916  10.143  10.441 -0.1468  0.7929  0.7301
  261MOL0     C35161   0.858  10.261  10.517 -0.6564  0.5532  0.3694
  261MOL0     C35162   0.868  10.251  10.669  0.7135 -0.0661  0.3365
  261MOL0     C35163   0.828  10.386  10.728 -0.2662  0.0353 -0.5234
  261MOL0     C35164   0.803  10.499  10.769 -0.5518 -0.5890 -0.3112
  261MOL0     C35165   1.120   9.817  10.332  0.2593  0.0236  0.4538
  261MOL0     C35166   1.256   9.786  10.346  0.1871  0.1396  0.7314
  261MOL0     C35167   1.329   9.746  10.217  0.4853  0.8428  0.0235
  261MOL0     H35168   1.727   9.901  10.450  0.3303  2.2559  1.6491
  261MOL0     H35169   1.965   9.858  10.523 -1.5045  4.8200  0.7798
  261MOL0     H35170   2.145   9.625  10.593  1.8171 -1.4773  0.6815
  261MOL0     H35171   2.162   9.798  10.613 -3.1449  1.9784  2.1473
  261MOL0     H35172   2.272   9.570  10.801  0.1080 -1.0805 -2.1542
  261MOL0     H35173   2.295   9.747  10.823 -2.2139 -1.4599  1.7552
  261MOL0     H35174   2.398   9.733  10.586 -1.5255 -0.1078 -0.4894
  261MOL0     H35175   2.383   9.566  10.573  0.1328  2.0912 -1.4007
  261MOL0     H35176   2.567   9.686  10.791 -1.4288 -0.6244  0.0371
  261MOL0     H35177   2.509   9.525  10.788 -2.6827  1.2334  0.5409
  261MOL0     H35178   2.610   9.507  10.557 -1.5917  1.3269  0.1334
  261MOL0     H35179   2.677   9.663  10.573 -0.2061 -1.1532 -0.3458
  261MOL0     H35180   2.729   9.414  10.737  0.1555 -0.1363  1.2322
  261MOL0     H35181   2.844   9.498  10.624  0.5673  0.2688  0.6875
  261MOL0     H35182   2.762   9.606  10.890  2.0265 -0.6209 -0.2685
  261MOL0     H35183   2.854   9.684  10.753 -0.1292  0.0847 -0.8258
  261MOL0     H35184   3.022   9.542  10.754 -1.8517 -0.2806 -0.9199
  261MOL0     H35185   3.001   9.600  10.925 -2.8567  1.8149 -0.5040
  261MOL0     H35186   3.064   9.278  10.724  1.3660  2.1475  0.3639
  261MOL0     H35187   3.061   9.021  10.752  1.4970  1.8789  0.3157
  261MOL0     H35188   3.017   8.987  10.919  0.0540 -1.3229 -0.6034
  261MOL0     H35189   2.766   8.994  10.852  1.5985  0.0084  2.8397
  261MOL0     H35190   2.820   9.028  10.688 -0.4977 -4.1397 -1.8033
  261MOL0     H35191   2.951   8.828  10.688 -0.5896  4.5564 -3.4669
  261MOL0     H35192   2.770   8.814  10.680 -0.8423  1.2570  0.4450
  261MOL0     H35193   2.770   8.779  10.939  1.8733  3.4282  1.0996
  261MOL0     H35194   2.948   8.781  10.933 -0.5836 -1.9772  1.6927
  261MOL0     H35195   2.704   8.494  10.998  0.5256  3.5079 -2.1684
  261MOL0     H35196   2.790   8.321  11.158 -0.1308  3.2578  1.3995
  261MOL0     H35197   3.013   8.202  11.479 -2.2337  0.0550 -1.4563
  261MOL0     H35198   3.089   8.034  11.666 -1.3231  1.0783 -0.6898
  261MOL0     H35199   3.209   7.664  11.491  2.6117 -0.2045  0.3534
  261MOL0     H35200   3.299   7.730  11.629 -0.6307 -0.9439  1.8845
  261MOL0     H35201   3.183   7.566  11.775 -2.0813 -0.6667  0.2427
  261MOL0     H35202   3.076   7.521  11.639  0.1675  1.0113 -0.2777
  261MOL0     H35203   3.381   7.525  11.606  0.7529 -1.3640 -0.6106
  261MOL0     H35204   3.316   7.411  11.730  0.2323  0.4546  0.4192
  261MOL0     H35205   3.184   7.386  11.471 -1.0783  0.8981  0.9257
  261MOL0     H35206   3.218   7.267  11.590  2.6398 -2.4563 -2.3244
  261MOL0     H35207   3.468   7.399  11.454 -1.4557  1.0905 -0.1546
  261MOL0     H35208   3.366   7.303  11.353 -1.1863  2.4556 -0.4686
  261MOL0     H35209   3.464   7.237  11.617  3.8570 -0.6857 -0.5575
  261MOL0     H35210   3.387   7.108  11.524 -1.4947  0.6203  2.9181
  261MOL0     H35211   3.668   7.197  11.494  1.1837  0.5614 -1.5895
  261MOL0     H35212   3.582   7.169  11.351  0.6813  0.1622  0.5465
  261MOL0     H35213   3.520   6.935  11.456  0.3468 -1.2623  1.1155
  261MOL0     H35214   3.693   6.945  11.412  0.5300  0.4505  1.1463
  261MOL0     H35215   3.023   7.723  11.373 -2.3141  0.1533 -1.7485
  261MOL0     H35216   2.993   7.882  11.197  2.2707  0.0032 -0.6666
  261MOL0     H35217   3.189   8.380  10.982  0.5086 -1.0412 -1.9856
  261MOL0     H35218   3.089   8.533  10.834 -1.5789  1.7040 -0.6665
  261MOL0     H35219   1.846   9.583  10.813 -3.1934 -3.9029 -2.7399
  261MOL0     H35220   1.591   9.660  10.766  0.9906  0.8038  2.1659
  261MOL0     H35221   1.264   9.848  10.694 -0.6354  1.1830  0.1988
  261MOL0     H35222   1.029   9.882  10.655 -0.6551  0.8612  0.7353
  261MOL0     H35223   0.879   9.986  10.587  1.5621  1.3717 -0.2090
  261MOL0     H35224   0.747  10.006  10.469 -0.2953  1.7463  2.4016
  261MOL0     H35225   0.900  10.156  10.334 -0.8938 -2.4212  0.3190
  261MOL0     H35226   1.023  10.139  10.462 -0.2226  1.3052  1.2543
  261MOL0     H35227   0.752  10.261  10.493 -0.6287  0.2259  0.2423
  261MOL0     H35228   0.889  10.355  10.470 -2.1318  1.8741  1.9105
  261MOL0     H35229   0.794  10.185  10.714 -1.7442  0.4707 -2.5964
  261MOL0     H35230   0.960  10.219  10.719 -0.7910 -1.7563  2.1862
  261MOL0     H35231   0.782  10.595  10.813  1.7578 -0.9490  1.7778
  261MOL0     H35232   1.072   9.793  10.237  3.3996 -2.3653 -0.6768
  261MOL0     H35233   1.371   9.645  10.223  0.4207  0.8429  0.5260
  261MOL0     H35234   1.264   9.751  10.129 -0.2707  0.7706  0.5619
  261MOL0     H35235   1.400   9.828  10.214 -1.4881  2.7743  2.1552
  262MOL0     O35236   3.864   6.381   0.345  0.2223  0.1377  0.0800
  262MOL0     C35237   3.834   6.479   0.407  0.1389  0.5871  0.7150
  262MOL0     O35238   3.782   6.591   0.351 -0.0582 -0.5350 -0.0143
  262MOL0     C35239   3.743   6.580   0.224 -0.2130  0.0102  0.3622
  262MOL0     C35240   3.651   6.485   0.178 -0.0899  0.0429 -0.7384
  262MOL0     C35241   3.629   6.468   0.047  0.2850  0.0756 -0.0030
  262MOL0     C35242   3.686   6.549  -0.049 -0.6112 -0.2992 -0.5468
  262MOL0     O35243   3.673   6.545  -0.188  0.0076  0.6164  0.1487
  262MOL0     C35244   3.576   6.448  -0.244  0.2159 -0.7025  1.3937
  262MOL0     C35245   3.576   6.439  -0.392 -0.0052 -1.0860  0.2868
  262MOL0     C35246   3.720   6.401  -0.446  0.2440 -0.7203 -0.1381
  262MOL0     C35247   3.743   6.412  -0.596  0.9790 -0.3922  1.2203
  262MOL0     C35248   3.887   6.365  -0.640  0.8236 -0.5429 -0.0570
  262MOL0     C35249   3.892   6.219  -0.678  0.5733  0.6712 -0.5305
  262MOL0     C35250   4.018   6.181  -0.753  0.5424 -0.1290 -0.2495
  262MOL0     C35251   4.142   6.252  -0.727  0.3343 -0.1956 -0.3357
  262MOL0     N35252   4.243   6.205  -0.822 -0.0502  0.0272  0.1913
  262MOL0     C35253   4.294   6.066  -0.827  0.0263 -0.4386 -0.1647
  262MOL0     C35254   4.408   6.077  -0.894  0.4880  0.1754 -0.4804
  262MOL0     C35255   4.497   5.967  -0.924 -0.0980  0.6169 -0.3801
  262MOL0     C35256   4.435   5.836  -0.990  0.1775 -0.5271 -0.4711
  262MOL0     C35257   4.370   5.861  -1.131 -0.3590  0.5074  0.4270
  262MOL0     C35258   4.316   5.731  -1.194  0.2929 -1.4907 -0.5298
  262MOL0     O35259   4.235   5.654  -1.101 -0.1756  0.4635  0.1536
  262MOL0     C35260   4.166   5.554  -1.148  0.0224  0.2448 -0.4722
  262MOL0     C35261   4.085   5.487  -1.055 -1.1781 -0.2970  0.0928
  262MOL0     C35262   3.989   5.392  -1.109 -0.4729 -0.5327 -0.3150
  262MOL0     C35263   3.981   5.370  -1.243 -0.1387  0.2662  0.5461
  262MOL0     C35264   3.877   5.271  -1.287  0.4163 -0.0144 -1.2323
  262MOL0     O35265   3.797   5.223  -1.186 -0.4729  0.2754 -0.3060
  262MOL0     C35266   3.698   5.143  -1.229 -1.1218 -0.7656 -0.2379
  262MOL0     C35267   3.703   5.003  -1.218  0.1558  0.3739 -0.6970
  262MOL0     C35268   3.584   4.922  -1.228 -0.3389 -0.5452  0.2921
  262MOL0     C35269   3.479   4.978  -1.300  0.5651  0.1119 -0.5575
  262MOL0     O35270   3.381   4.889  -1.330  1.0638  0.4504  0.0738
  262MOL0     C35271   3.313   4.898  -1.458  0.3796  0.0322  1.1180
  262MOL0     C35272   3.221   4.781  -1.476  0.4827  0.0612  0.4127
  262MOL0     C35273   3.151   4.780  -1.610  0.9717 -0.5486 -0.2747
  262MOL0     C35274   3.072   4.644  -1.618 -0.2542 -0.1695 -0.3318
  262MOL0     C35275   3.148   4.544  -1.705 -0.0070  0.2533 -0.3364
  262MOL0     C35276   3.088   4.407  -1.693  0.3509 -0.2012 -0.4048
  262MOL0     C35277   3.083   4.331  -1.833  0.1159  0.5295  0.3484
  262MOL0     C35278   3.214   4.314  -1.915  0.4285 -0.6094 -0.1239
  262MOL0    Cl35279   3.174   4.259  -2.084 -0.4377 -0.5369 -0.5119
  262MOL0     C35280   3.475   5.118  -1.322  0.2244 -0.2950 -0.7759
  262MOL0     C35281   3.581   5.202  -1.286  0.1100 -0.0048 -0.2384
  262MOL0     O35282   3.872   5.232  -1.399 -0.1175 -0.5666 -0.4597
  262MOL0     C35283   4.074   5.433  -1.332  0.0439  0.4053 -0.0176
  262MOL0     C35284   4.162   5.533  -1.291  0.2377  0.8229 -0.0866
  262MOL0     N35285   4.431   6.204  -0.937  0.8835  0.3074 -0.5103
  262MOL0     N35286   4.326   6.274  -0.895 -0.8793  0.4370 -0.3386
  262MOL0     C35287   3.759   6.654  -0.003  0.0436  0.9931  0.1053
  262MOL0     C35288   3.797   6.672   0.131  0.3116  1.2999 -0.7103
  262MOL0     C35289   3.894   6.487   0.544 -0.2882 -0.3655 -0.2888
  262MOL0     C35290   3.985   6.597   0.554 -0.0566 -0.2189  0.6285
  262MOL0     C35291   4.047   6.625   0.673 -0.3755  0.5030  0.3496
  262MOL0     C35292   4.032   6.533   0.780  0.8325 -0.2326 -0.3847
  262MOL0     O35293   4.096   6.555   0.905  0.5804 -0.0192  0.6122
  262MOL0     C35294   4.135   6.438   0.985 -0.8926 -0.0049  0.0454
  262MOL0     C35295   4.260   6.477   1.065  0.0096 -0.3798  0.4607
  262MOL0     C35296   4.325   6.361   1.141 -0.1159  0.6023 -0.2674
  262MOL0     C35297   4.460   6.402   1.210 -1.4323  0.1294 -0.5178
  262MOL0     C35298   4.581   6.371   1.135  0.3221  0.6677  0.4553
  262MOL0     C35299   4.685   6.351   1.074  0.6260 -0.2136 -0.1147
  262MOL0     C35300   3.937   6.431   0.771 -0.2357 -0.1398 -0.1699
  262MOL0     C35301   3.865   6.403   0.654  0.7051  0.9867  0.1807
  262MOL0     C35302   3.771   6.292   0.645  0.2701 -0.1707  0.1727
  262MOL0     H35303   3.587   6.437   0.251 -0.7712  0.6700 -0.9035
  262MOL0     H35304   3.562   6.393   0.005 -0.0988  2.0099 -3.1551
  262MOL0     H35305   3.608   6.349  -0.211  1.3954 -1.9670 -2.9185
  262MOL0     H35306   3.476   6.475  -0.209 -1.2273 -1.0797 -2.0307
  262MOL0     H35307   3.562   6.546  -0.408  2.5512 -0.0268  3.7470
  262MOL0     H35308   3.493   6.379  -0.430 -1.2628 -1.1129  2.8705
  262MOL0     H35309   3.742   6.301  -0.408 -2.2982 -0.6208  1.8856
  262MOL0     H35310   3.787   6.467  -0.389 -0.9266  0.5235 -0.1411
  262MOL0     H35311   3.662   6.365  -0.652 -3.2396  1.9503  4.7088
  262MOL0     H35312   3.740   6.518  -0.622 -1.9197 -0.3896  1.2583
  262MOL0     H35313   3.916   6.430  -0.723  0.2939 -0.6934 -0.3633
  262MOL0     H35314   3.965   6.384  -0.566  1.2803  0.6098 -0.8069
  262MOL0     H35315   3.885   6.156  -0.589 -2.2239  0.9354 -0.4884
  262MOL0     H35316   3.806   6.202  -0.743 -1.2353  0.3284  1.8339
  262MOL0     H35317   3.995   6.196  -0.858  0.5484 -5.3351 -1.2437
  262MOL0     H35318   4.027   6.073  -0.741 -0.4802 -0.3571 -1.4884
  262MOL0     H35319   4.122   6.356  -0.755 -0.7186 -1.1754 -3.6140
  262MOL0     H35320   4.154   6.239  -0.619 -1.9609  0.5383  0.0486
  262MOL0     H35321   4.251   5.988  -0.765  0.7589  0.5190  1.6539
  262MOL0     H35322   4.577   6.000  -0.992 -2.4342  3.3917 -2.0472
  262MOL0     H35323   4.542   5.925  -0.834  1.0188 -1.0821 -1.6619
  262MOL0     H35324   4.515   5.760  -0.986  0.4103 -0.2810 -0.4023
  262MOL0     H35325   4.360   5.796  -0.921  0.7435 -4.0078 -1.6479
  262MOL0     H35326   4.450   5.899  -1.196  0.7809  0.1659  1.5837
  262MOL0     H35327   4.292   5.938  -1.129 -0.3727  0.5612 -1.0486
  262MOL0     H35328   4.401   5.675  -1.233  0.8563 -1.3924  0.5264
  262MOL0     H35329   4.265   5.762  -1.286 -0.7021 -0.2856  0.3816
  262MOL0     H35330   4.103   5.517  -0.952 -1.7772  0.3044  0.0264
  262MOL0     H35331   3.929   5.353  -1.027  3.5907  1.1295  3.8773
  262MOL0     H35332   3.786   4.962  -1.162 -2.2959 -3.4691  0.5040
  262MOL0     H35333   3.594   4.824  -1.182  0.6952 -0.1616  0.9224
  262MOL0     H35334   3.255   4.990  -1.455 -2.8598 -1.4241 -3.9118
  262MOL0     H35335   3.376   4.904  -1.548 -3.7610 -0.3868 -2.1650
  262MOL0     H35336   3.277   4.687  -1.465  1.0089 -0.0784 -2.5550
  262MOL0     H35337   3.143   4.783  -1.400 -1.3416  0.0075 -1.3770
  262MOL0     H35338   3.090   4.868  -1.633  0.0050 -2.3621 -6.5279
  262MOL0     H35339   3.224   4.781  -1.692  1.5091 -1.8006  0.1605
  262MOL0     H35340   2.971   4.675  -1.644 -1.5487 -1.6472  2.5880
  262MOL0     H35341   3.072   4.597  -1.520  0.7253 -1.6416 -0.9983
  262MOL0     H35342   3.253   4.544  -1.676 -0.7452  0.6613  2.7270
  262MOL0     H35343   3.145   4.589  -1.805  1.7571  1.6619  0.1926
  262MOL0     H35344   3.136   4.337  -1.624 -3.6934 -2.0131  0.8541
  262MOL0     H35345   2.986   4.412  -1.654  0.7380 -2.7125  1.1360
  262MOL0     H35346   3.019   4.390  -1.900 -3.2094 -0.4148  2.4222
  262MOL0     H35347   3.033   4.234  -1.825 -0.0099  0.2856 -2.4340
  262MOL0     H35348   3.258   4.413  -1.918 -0.3661 -0.2167  0.7372
  262MOL0     H35349   3.282   4.242  -1.869 -0.0005 -2.9371 -2.8303
  262MOL0     H35350   3.386   5.152  -1.374  0.6154  2.1487  0.0216
  262MOL0     H35351   3.563   5.309  -1.296 -2.9884 -0.0021  3.1466
  262MOL0     H35352   4.075   5.410  -1.438 -3.7099  3.5362 -0.9926
  262MOL0     H35353   4.218   5.582  -1.369  3.4354 -0.8249  0.9953
  262MOL0     H35354   3.808   6.711  -0.081  0.1666 -1.5471 -1.8210
  262MOL0     H35355   3.872   6.741   0.167 -0.5049  1.1958  1.3441
  262MOL0     H35356   4.003   6.658   0.467 -2.6688 -0.8513 -0.4383
  262MOL0     H35357   4.108   6.714   0.682 -1.6444  1.6474 -1.6177
  262MOL0     H35358   4.161   6.358   0.916 -0.1127 -0.9480  1.3750
  262MOL0     H35359   4.064   6.398   1.059  4.6081 -2.9891  4.5052
  262MOL0     H35360   4.242   6.549   1.146 -0.9101 -1.6619  1.4509
  262MOL0     H35361   4.328   6.514   0.988 -1.0707 -0.3300 -0.4934
  262MOL0     H35362   4.333   6.272   1.077  0.5392 -0.2140  0.9008
  262MOL0     H35363   4.268   6.315   1.222  1.8628 -1.5464  0.0227
  262MOL0     H35364   4.468   6.509   1.231 -0.1839 -0.5928  3.4888
  262MOL0     H35365   4.474   6.357   1.309  2.1861  2.1807  0.0675
  262MOL0     H35366   4.780   6.325   1.031  0.2306 -2.8137  0.4123
  262MOL0     H35367   3.919   6.358   0.849  0.3412 -0.7422 -0.5821
  262MOL0     H35368   3.816   6.211   0.587  1.1772  0.9725 -0.7563
  262MOL0     H35369   3.720   6.264   0.738  0.8503 -0.8611  0.2891
  262MOL0     H35370   3.682   6.328   0.592  0.1793 -0.5527  0.0622
  263MOL0     O35371   0.799   7.321   2.849 -0.6315  0.2672 -0.7358
  263MOL0     C35372   0.773   7.414   2.922 -0.2487  0.1288 -0.1857
  263MOL0     O35373   0.665   7.498   2.911 -0.4483  0.1355 -0.5767
  263MOL0     C35374   0.585   7.495   2.799 -0.7741  1.1118 -1.0876
  263MOL0     C35375   0.458   7.537   2.814  0.2624 -0.6137 -0.3810
  263MOL0     C35376   0.372   7.557   2.706  0.6334  0.0890 -0.2707
  263MOL0     C35377   0.415   7.522   2.568  0.3710  0.0410  0.2599
  263MOL0     O35378   0.349   7.559   2.452 -0.2849  0.3865 -0.2253
  263MOL0     C35379   0.214   7.616   2.453  0.1153 -0.4154 -0.3561
  263MOL0     C35380   0.229   7.767   2.463  0.5137  0.7196  0.2381
  263MOL0     C35381   0.092   7.844   2.464 -0.7358 -0.1633 -0.2327
  263MOL0     C35382   0.096   7.986   2.508 -1.3289 -0.5592  0.0471
  263MOL0     C35383  -0.035   8.048   2.542  0.1442  0.4547  0.5521
  263MOL0     C35384  -0.125   8.080   2.431  0.8252 -1.2809  0.1521
  263MOL0     C35385  -0.251   8.151   2.493 -0.6234  0.7339  0.3078
  263MOL0     C35386  -0.349   8.177   2.380 -1.0226 -0.2796  0.0846
  263MOL0     N35387  -0.472   8.235   2.438  0.2964  0.1810  0.3924
  263MOL0     C35388  -0.572   8.153   2.479  0.2679  0.1822  0.6084
  263MOL0     C35389  -0.693   8.216   2.472 -0.5290 -0.6355 -0.1993
  263MOL0     C35390  -0.830   8.154   2.481  0.4554  0.2456 -0.0014
  263MOL0     C35391  -0.908   8.195   2.607  0.7995 -0.0053  0.2806
  263MOL0     C35392  -1.022   8.090   2.627 -0.7106 -0.8945 -0.8256
  263MOL0     C35393  -1.109   8.102   2.750 -0.0283  0.7324 -0.6296
  263MOL0     O35394  -1.199   8.210   2.740 -0.2539 -0.4806 -0.4328
  263MOL0     C35395  -1.311   8.202   2.817 -0.1523 -0.1787  0.0724
  263MOL0     C35396  -1.348   8.304   2.898  0.5283  0.0854 -0.1972
  263MOL0     C35397  -1.479   8.306   2.953 -0.5719 -0.7239 -0.4169
  263MOL0     C35398  -1.571   8.207   2.933  0.1511 -1.3781  0.1421
  263MOL0     C35399  -1.704   8.187   3.013 -0.7960  0.3690  0.9461
  263MOL0     O35400  -1.766   8.063   2.990 -0.4018 -0.1790  0.4679
  263MOL0     C35401  -1.847   8.011   3.096 -0.9085  0.0416  1.5115
  263MOL0     C35402  -1.964   7.960   3.061 -0.8079 -0.7127 -0.9002
  263MOL0     C35403  -2.049   7.897   3.154 -0.5399 -0.1753  0.2705
  263MOL0     C35404  -2.003   7.867   3.282 -0.3797  0.2410  0.4237
  263MOL0     O35405  -2.091   7.816   3.374 -0.1018  0.4282  0.4375
  263MOL0     C35406  -2.046   7.699   3.434 -0.5756 -0.4120 -0.9566
  263MOL0     C35407  -2.158   7.630   3.518 -0.0896  0.6382  1.0946
  263MOL0     C35408  -2.207   7.697   3.649 -0.3012 -0.2893  0.8268
  263MOL0     C35409  -2.354   7.723   3.655  0.2425 -0.0573  0.4861
  263MOL0     C35410  -2.402   7.804   3.770  0.5461  0.0847 -0.9974
  263MOL0     C35411  -2.541   7.868   3.767  1.1922  0.6347  1.1006
  263MOL0     C35412  -2.640   7.754   3.745 -0.0864 -0.5029 -1.2570
  263MOL0     C35413  -2.786   7.783   3.765 -0.3641  1.2658  0.0872
  263MOL0    Cl35414  -2.898   7.652   3.720  0.1616 -0.5450 -0.9011
  263MOL0     C35415  -1.868   7.913   3.317 -0.1328  0.2915  0.6429
  263MOL0     C35416  -1.794   7.986   3.217  0.3716  0.1810  0.4200
  263MOL0     O35417  -1.729   8.264   3.112  0.4198  0.2944  1.0276
  263MOL0     C35418  -1.531   8.107   2.841  0.2228 -0.7667  0.0048
  263MOL0     C35419  -1.400   8.105   2.786  0.8635  0.1769 -0.1933
  263MOL0     N35420  -0.657   8.341   2.434  1.0009  0.3075  0.3454
  263MOL0     N35421  -0.530   8.355   2.399  0.4212 -0.6486 -0.3509
  263MOL0     C35422   0.552   7.485   2.562 -0.0170  0.0806 -0.4398
  263MOL0     C35423   0.631   7.474   2.673  0.3666  0.0969 -0.5723
  263MOL0     C35424   0.877   7.448   3.031 -1.2563  0.2619  0.5786
  263MOL0     C35425   0.833   7.540   3.127 -0.4207 -0.5771  0.4248
  263MOL0     C35426   0.916   7.575   3.235 -0.4312  0.3251 -0.2052
  263MOL0     C35427   1.050   7.533   3.230 -1.1843  1.0540 -0.4610
  263MOL0     O35428   1.147   7.569   3.327  0.5993 -0.2043  0.3332
  263MOL0     C35429   1.114   7.627   3.454  0.1833 -0.4227  0.7902
  263MOL0     C35430   1.232   7.653   3.545  0.9471  0.1685  0.3757
  263MOL0     C35431   1.334   7.753   3.488 -0.3379  0.4412  0.8926
  263MOL0     C35432   1.424   7.811   3.608 -0.0348  0.0705  0.4963
  263MOL0     C35433   1.347   7.906   3.685  0.3290 -0.0927  0.0322
  263MOL0     C35434   1.262   7.959   3.749 -0.3522 -1.8263  0.4967
  263MOL0     C35435   1.094   7.436   3.139  0.6894 -0.8286  0.1285
  263MOL0     C35436   1.011   7.395   3.041 -0.5171 -1.0497  0.7818
  263MOL0     C35437   1.065   7.282   2.955 -0.1959 -0.2643 -0.2187
  263MOL0     H35438   0.419   7.553   2.914 -0.1280 -3.6679  0.0377
  263MOL0     H35439   0.275   7.602   2.721 -0.0808 -1.0518 -1.3199
  263MOL0     H35440   0.166   7.585   2.360  1.1764 -2.4647 -0.2750
  263MOL0     H35441   0.153   7.574   2.533 -0.0783 -1.5214 -1.0640
  263MOL0     H35442   0.291   7.787   2.375 -1.0392 -0.3836 -1.1888
  263MOL0     H35443   0.276   7.792   2.558 -2.2756  0.2696  1.8451
  263MOL0     H35444   0.020   7.786   2.522 -1.2731 -4.6885 -4.7354
  263MOL0     H35445   0.053   7.860   2.363 -1.3617  0.3302  0.0859
  263MOL0     H35446   0.149   7.991   2.603 -1.4832  3.4344  0.1027
  263MOL0     H35447   0.137   8.044   2.425  0.5792 -0.3247  1.0954
  263MOL0     H35448  -0.085   7.972   2.603  1.2827 -1.8494 -1.1903
  263MOL0     H35449  -0.021   8.141   2.598 -0.6981 -1.3482  4.0464
  263MOL0     H35450  -0.071   8.148   2.365 -0.7272 -0.8032 -0.6682
  263MOL0     H35451  -0.165   7.992   2.380 -0.6924 -0.6826  0.2413
  263MOL0     H35452  -0.213   8.238   2.547  3.0111  0.1974 -1.0832
  263MOL0     H35453  -0.298   8.090   2.571 -1.3219  1.7351  0.6920
  263MOL0     H35454  -0.312   8.244   2.302  1.0414  0.5936  1.7362
  263MOL0     H35455  -0.354   8.093   2.310  2.3232  0.7770 -1.6671
  263MOL0     H35456  -0.552   8.047   2.492  1.5679  0.0535 -1.9832
  263MOL0     H35457  -0.892   8.194   2.401  0.5837 -2.1365 -1.3951
  263MOL0     H35458  -0.811   8.046   2.476  3.8263  0.6003  1.6984
  263MOL0     H35459  -0.846   8.192   2.697 -0.5353 -2.1903  1.1880
  263MOL0     H35460  -0.935   8.300   2.595  0.0702 -0.2668 -0.3905
  263MOL0     H35461  -0.979   7.993   2.653  0.1632 -0.2359  0.2823
  263MOL0     H35462  -1.083   8.104   2.538 -0.6216  1.4996 -0.5903
  263MOL0     H35463  -1.042   8.122   2.834  0.5964 -0.7317 -0.7534
  263MOL0     H35464  -1.163   8.007   2.763  0.9436  0.0810 -1.2195
  263MOL0     H35465  -1.286   8.393   2.904  1.3904 -0.4780 -0.4714
  263MOL0     H35466  -1.502   8.391   3.015  1.1993 -0.2009 -0.4262
  263MOL0     H35467  -1.999   7.997   2.965  2.1090  2.1079 -1.0853
  263MOL0     H35468  -2.149   7.866   3.126 -1.1268 -1.2825  3.2113
  263MOL0     H35469  -2.011   7.637   3.352  2.3603  1.1995 -1.0650
  263MOL0     H35470  -1.959   7.721   3.498  1.7490 -0.1490 -3.9887
  263MOL0     H35471  -2.239   7.619   3.445 -0.9805  4.3628  1.3362
  263MOL0     H35472  -2.125   7.527   3.536 -0.9643 -0.0922 -1.0866
  263MOL0     H35473  -2.174   7.628   3.727 -0.2979 -2.4713 -1.0061
  263MOL0     H35474  -2.155   7.793   3.660  0.0707 -0.5620  1.5484
  263MOL0     H35475  -2.405   7.626   3.657  0.6302 -0.3715 -1.8680
  263MOL0     H35476  -2.384   7.770   3.560 -0.8795  0.6553  1.1668
  263MOL0     H35477  -2.323   7.880   3.777  0.4383  0.1633 -0.6534
  263MOL0     H35478  -2.392   7.733   3.853 -1.0776 -0.4129 -1.1946
  263MOL0     H35479  -2.568   7.921   3.859 -1.2044 -1.9843  2.0619
  263MOL0     H35480  -2.547   7.936   3.682 -0.3602 -0.1086  0.5781
  263MOL0     H35481  -2.599   7.687   3.820  1.9844  2.1669  0.1672
  263MOL0     H35482  -2.625   7.725   3.641 -0.7491 -0.4606 -1.3708
  263MOL0     H35483  -2.797   7.808   3.871  2.0498  3.4335 -0.0646
  263MOL0     H35484  -2.817   7.868   3.704 -0.6504 -0.4131 -2.2295
  263MOL0     H35485  -1.829   7.917   3.418 -0.5577  0.9115  0.7843
  263MOL0     H35486  -1.693   8.018   3.242  0.1574  1.7572 -0.6039
  263MOL0     H35487  -1.592   8.018   2.830  1.1577 -2.1612  4.1181
  263MOL0     H35488  -1.378   8.024   2.716 -2.1057 -0.9090 -0.0008
  263MOL0     H35489   0.594   7.459   2.466  1.6134 -1.7032  0.6851
  263MOL0     H35490   0.738   7.465   2.658  1.4902  3.1159  3.8100
  263MOL0     H35491   0.732   7.577   3.114 -0.1492 -0.3232 -1.2083
  263MOL0     H35492   0.881   7.636   3.318 -0.1062  1.8273 -1.1329
  263MOL0     H35493   1.047   7.557   3.506  2.3042 -2.1642  1.3550
  263MOL0     H35494   1.057   7.717   3.432 -0.0225 -0.8026 -0.3109
  263MOL0     H35495   1.280   7.555   3.544  0.6523  0.0097 -1.6747
  263MOL0     H35496   1.190   7.683   3.642 -3.4268 -2.8307 -0.2701
  263MOL0     H35497   1.285   7.829   3.427  1.9808  2.9679  1.9435
  263MOL0     H35498   1.400   7.702   3.418  0.5501  1.4559  0.9593
  263MOL0     H35499   1.456   7.734   3.678  0.6663  0.1393  0.2582
  263MOL0     H35500   1.517   7.856   3.573  0.2947  0.2810  1.6259
  263MOL0     H35501   1.190   8.004   3.815  1.3612 -1.1725  2.0144
  263MOL0     H35502   1.198   7.406   3.131  0.2454 -2.1056 -1.2909
  263MOL0     H35503   1.042   7.284   2.848 -1.9967  0.2651  0.1492
  263MOL0     H35504   1.174   7.278   2.964  0.0348 -1.1627 -2.6244
  263MOL0     H35505   1.035   7.188   3.002  0.1010  1.2125  3.2477
  264MOL0     O35506   3.965   0.921   1.224  0.5248 -0.4451 -0.0839
  264MOL0     C35507   3.992   1.035   1.275 -0.1523  0.3585 -0.7324
  264MOL0     O35508   4.107   1.110   1.264 -0.1763 -0.4921 -0.1352
  264MOL0     C35509   4.201   1.054   1.179 -0.1052  0.9653  0.0742
  264MOL0     C35510   4.247   0.921   1.197 -0.2450 -0.4787 -0.3570
  264MOL0     C35511   4.347   0.865   1.118 -0.0232 -0.2975 -0.6252
  264MOL0     C35512   4.400   0.935   1.009 -0.4238 -0.1604  0.9754
  264MOL0     O35513   4.498   0.869   0.924 -0.7615 -0.6476  0.0465
  264MOL0     C35514   4.617   0.947   0.891  1.4025 -0.2124  1.0045
  264MOL0     C35515   4.622   0.999   0.740  0.8106  0.2648 -0.1416
  264MOL0     C35516   4.743   1.072   0.712 -0.5573 -0.3792 -0.5497
  264MOL0     C35517   4.735   1.134   0.563 -0.2283 -1.3391 -0.5967
  264MOL0     C35518   4.777   1.048   0.444 -0.0433  0.0513 -0.7124
  264MOL0     C35519   4.773   1.131   0.315  0.2647  0.0780 -0.2250
  264MOL0     C35520   4.750   1.036   0.189  0.1926  1.0879  0.3292
  264MOL0     C35521   4.858   0.927   0.191  0.0137 -0.1006 -0.0395
  264MOL0     N35522   4.846   0.844   0.066 -0.0765 -0.1672  0.5791
  264MOL0     C35523   4.861   0.896  -0.063  0.7020 -0.0178  0.4334
  264MOL0     C35524   4.811   0.795  -0.142  0.3363 -0.4876  0.0509
  264MOL0     C35525   4.784   0.820  -0.285  0.3639 -0.2178  0.4021
  264MOL0     C35526   4.779   0.685  -0.370 -0.3469 -0.6240  0.8663
  264MOL0     C35527   4.745   0.721  -0.514  0.3032  0.2610 -0.0525
  264MOL0     C35528   4.681   0.602  -0.590  0.0687  0.2235 -0.0039
  264MOL0     O35529   4.755   0.581  -0.719 -0.5861  0.2305 -0.1960
  264MOL0     C35530   4.717   0.473  -0.793 -0.9342 -0.0612  0.3506
  264MOL0     C35531   4.655   0.361  -0.753  0.1400 -0.3282  0.5134
  264MOL0     C35532   4.619   0.260  -0.842  0.0318 -0.5877  0.1167
  264MOL0     C35533   4.661   0.272  -0.976  0.3517 -0.0501 -0.0390
  264MOL0     C35534   4.625   0.183  -1.082 -1.4787 -0.0197  0.3288
  264MOL0     O35535   4.543   0.085  -1.046  0.1395  0.4219 -0.8331
  264MOL0     C35536   4.489  -0.007  -1.127  0.1477 -0.3474 -0.0923
  264MOL0     C35537   4.498  -0.141  -1.087  0.1168 -0.6064  0.3957
  264MOL0     C35538   4.449  -0.235  -1.176 -0.6850  0.3925 -0.5344
  264MOL0     C35539   4.394  -0.205  -1.298 -0.1332  0.3173 -0.9458
  264MOL0     O35540   4.345  -0.315  -1.369 -0.6463 -0.6295  0.1266
  264MOL0     C35541   4.343  -0.298  -1.514 -1.3135  0.4585  0.2237
  264MOL0     C35542   4.284  -0.431  -1.567  0.4617  0.3076 -0.5409
  264MOL0     C35543   4.281  -0.450  -1.715 -0.0636 -0.2674  0.4177
  264MOL0     C35544   4.200  -0.341  -1.789 -0.6487 -1.2054  1.3269
  264MOL0     C35545   4.181  -0.382  -1.935 -0.8703 -0.4139 -0.1284
  264MOL0     C35546   4.088  -0.294  -2.025 -0.1620 -0.2930 -0.2915
  264MOL0     C35547   4.160  -0.159  -2.056 -0.2350  0.3736 -0.2793
  264MOL0     C35548   4.076  -0.071  -2.144 -0.5029  0.6814  0.2999
  264MOL0    Cl35549   4.174   0.077  -2.152 -0.2245  0.0465 -0.6632
  264MOL0     C35550   4.375  -0.069  -1.327  0.3490  0.2673  0.1426
  264MOL0     C35551   4.425   0.028  -1.245 -1.1224 -0.7731 -0.4123
  264MOL0     O35552   4.671   0.197  -1.199 -0.1461  0.1056 -0.3348
  264MOL0     C35553   4.738   0.387  -1.018 -0.5450 -0.0617  0.1202
  264MOL0     C35554   4.770   0.485  -0.922 -0.7123 -0.0307  0.1633
  264MOL0     N35555   4.774   0.696  -0.055  0.4049  1.1771 -0.4093
  264MOL0     N35556   4.788   0.719   0.063  0.2420 -0.0717  0.1051
  264MOL0     C35557   4.341   1.060   0.988 -0.2186 -0.7227 -0.0566
  264MOL0     C35558   4.263   1.123   1.075  0.3342 -0.0266 -0.4711
  264MOL0     C35559   3.883   1.097   1.353 -0.1746 -0.2168  0.0631
  264MOL0     C35560   3.749   1.068   1.309  0.5894  0.5599  0.9748
  264MOL0     C35561   3.642   1.111   1.382  0.6344  0.3899  0.0879
  264MOL0     C35562   3.662   1.183   1.502  0.4169  0.3761 -0.7026
  264MOL0     O35563   3.560   1.244   1.572  0.4558 -0.2170  0.2045
  264MOL0     C35564   3.452   1.304   1.499  0.2203 -0.3232  0.3397
  264MOL0     C35565   3.456   1.459   1.504  0.1955 -0.5634  0.3791
  264MOL0     C35566   3.333   1.522   1.434 -0.3354 -0.4325 -0.0876
  264MOL0     C35567   3.319   1.680   1.426 -0.9428 -0.5262 -0.7473
  264MOL0     C35568   3.292   1.748   1.554  0.5275 -1.4045  0.0630
  264MOL0     C35569   3.256   1.815   1.654  0.5175 -0.4073  0.2376
  264MOL0     C35570   3.790   1.201   1.547  0.7299  0.2013  1.0062
  264MOL0     C35571   3.899   1.162   1.475 -0.5900 -0.4064 -0.6392
  264MOL0     C35572   4.032   1.218   1.532 -0.8617 -0.3415 -0.2350
  264MOL0     H35573   4.196   0.864   1.273 -2.4815  0.7914 -0.8239
  264MOL0     H35574   4.380   0.762   1.129  1.5999 -0.0193 -2.2883
  264MOL0     H35575   4.631   1.028   0.963  3.6334 -1.4721  2.0952
  264MOL0     H35576   4.696   0.872   0.903 -0.0937 -1.7095  1.8378
  264MOL0     H35577   4.543   1.069   0.715  2.2550  0.7892 -3.8885
  264MOL0     H35578   4.624   0.919   0.665 -1.6272  0.8796 -0.9545
  264MOL0     H35579   4.826   1.002   0.728  1.5643  2.2790  0.9846
  264MOL0     H35580   4.755   1.150   0.789 -1.8919 -0.5198 -0.1855
  264MOL0     H35581   4.637   1.179   0.545 -0.1253  0.2296  2.1925
  264MOL0     H35582   4.810   1.214   0.562 -0.5973 -0.9287  1.1998
  264MOL0     H35583   4.880   1.018   0.466  0.5586  0.0601 -3.2182
  264MOL0     H35584   4.705   0.965   0.441 -2.9376  2.3208  0.5310
  264MOL0     H35585   4.682   1.192   0.312 -0.5703 -1.1459 -1.5105
  264MOL0     H35586   4.858   1.197   0.298 -1.5544  2.1208 -2.0523
  264MOL0     H35587   4.758   1.081   0.090  0.1050  0.9760  0.2704
  264MOL0     H35588   4.649   0.993   0.196  1.1732 -1.5169 -0.3927
  264MOL0     H35589   4.953   0.981   0.197 -1.9813  3.6470  0.8624
  264MOL0     H35590   4.839   0.856   0.272 -3.2606 -0.0281 -0.6066
  264MOL0     H35591   4.903   0.993  -0.087 -0.3959  0.8821  1.9737
  264MOL0     H35592   4.681   0.859  -0.286  0.0367 -0.9135 -3.0375
  264MOL0     H35593   4.853   0.891  -0.330 -0.0285  0.2856  0.5763
  264MOL0     H35594   4.883   0.654  -0.369  0.5578  2.0727 -0.4126
  264MOL0     H35595   4.718   0.602  -0.332 -0.7794 -1.1951 -0.9609
  264MOL0     H35596   4.838   0.741  -0.568 -0.0734  0.6902 -0.5525
  264MOL0     H35597   4.683   0.809  -0.528 -0.2800  0.0704  1.1798
  264MOL0     H35598   4.574   0.605  -0.613  0.4367  2.3560 -1.7459
  264MOL0     H35599   4.683   0.504  -0.540  0.5089 -0.3030 -1.0213
  264MOL0     H35600   4.625   0.336  -0.652 -1.8630 -1.8059 -0.3704
  264MOL0     H35601   4.561   0.177  -0.804  2.2360 -1.3971  1.9200
  264MOL0     H35602   4.557  -0.164  -0.999  1.4100  1.1574  0.0288
  264MOL0     H35603   4.445  -0.340  -1.147 -1.3608  0.1758 -1.3670
  264MOL0     H35604   4.271  -0.219  -1.540 -1.5027  0.8730  1.9006
  264MOL0     H35605   4.442  -0.279  -1.557 -1.5931  0.3310 -0.4843
  264MOL0     H35606   4.340  -0.514  -1.523 -2.1379 -0.2162  2.0947
  264MOL0     H35607   4.184  -0.440  -1.524  0.9427  1.1125  0.7891
  264MOL0     H35608   4.384  -0.449  -1.751 -0.6619  0.3336 -1.3607
  264MOL0     H35609   4.244  -0.547  -1.748  2.0833 -1.1025  0.3120
  264MOL0     H35610   4.244  -0.242  -1.779  1.7474 -2.2264  1.5334
  264MOL0     H35611   4.098  -0.336  -1.750 -0.7737 -0.1581  0.9074
  264MOL0     H35612   4.125  -0.476  -1.937 -4.5941  1.6282 -1.6540
  264MOL0     H35613   4.279  -0.389  -1.984 -0.9261  0.0010 -0.3033
  264MOL0     H35614   4.059  -0.344  -2.118  0.3788 -0.5302 -0.3374
  264MOL0     H35615   3.997  -0.270  -1.969 -0.8114  1.7380 -2.0505
  264MOL0     H35616   4.255  -0.176  -2.107 -0.8807  1.6702 -2.0037
  264MOL0     H35617   4.173  -0.113  -1.957 -1.0075 -0.4453  0.2281
  264MOL0     H35618   4.043  -0.116  -2.238  1.6148  0.5022 -0.3910
  264MOL0     H35619   3.982  -0.049  -2.092 -1.5208 -1.2030 -0.6692
  264MOL0     H35620   4.319  -0.036  -1.413 -3.0262 -1.9109  1.2998
  264MOL0     H35621   4.412   0.128  -1.284  2.1737 -0.3331 -0.6896
  264MOL0     H35622   4.791   0.396  -1.112  2.3197 -0.9224  1.5542
  264MOL0     H35623   4.845   0.559  -0.951  1.6890 -2.2862  0.2530
  264MOL0     H35624   4.370   1.124   0.905  0.9220  2.5997  2.6532
  264MOL0     H35625   4.240   1.225   1.047  0.0410 -0.4739 -1.9503
  264MOL0     H35626   3.728   1.003   1.225 -1.4738  1.9277  0.3645
  264MOL0     H35627   3.539   1.091   1.353  1.3851  0.7521 -3.1793
  264MOL0     H35628   3.357   1.286   1.549 -0.7388  2.8376 -0.1128
  264MOL0     H35629   3.437   1.276   1.394  0.4781 -1.0006  0.4826
  264MOL0     H35630   3.546   1.491   1.450  0.4736  0.8816  1.6468
  264MOL0     H35631   3.471   1.492   1.607 -0.1490  0.7611  0.0165
  264MOL0     H35632   3.244   1.487   1.486  0.6136 -2.2545  0.3841
  264MOL0     H35633   3.335   1.480   1.333  0.6837 -0.6549  0.0121
  264MOL0     H35634   3.419   1.716   1.400 -0.3609 -1.7505 -0.2737
  264MOL0     H35635   3.246   1.725   1.357 -1.7692  2.5914  1.9073
  264MOL0     H35636   3.198   1.864   1.730 -1.0394 -1.3323 -0.2950
  264MOL0     H35637   3.817   1.264   1.631  1.7340 -3.9879  4.1516
  264MOL0     H35638   4.077   1.277   1.452 -2.4914  1.0920 -0.1610
  264MOL0     H35639   4.015   1.283   1.618 -0.9582  1.9023 -1.8606
  264MOL0     H35640   4.112   1.149   1.559  0.6929  0.9078 -1.5185
  265MOL0     O35641   0.057   8.902   4.214 -0.3980  0.1532 -0.6356
  265MOL0     C35642   0.065   9.012   4.177 -0.1555  0.0528 -0.8378
  265MOL0     O35643   0.023   9.124   4.252 -0.8932  0.2182  0.0427
  265MOL0     C35644  -0.096   9.113   4.327 -0.2339 -0.8732 -1.1471
  265MOL0     C35645  -0.086   9.115   4.472  0.5639 -0.8905 -0.4278
  265MOL0     C35646  -0.205   9.102   4.549 -0.5801 -0.7309  0.8002
  265MOL0     C35647  -0.325   9.081   4.480  0.7224 -0.3516  0.5749
  265MOL0     O35648  -0.436   9.065   4.559 -0.8556  0.9714  0.1773
  265MOL0     C35649  -0.565   9.049   4.498  0.8829  0.5214 -0.4011
  265MOL0     C35650  -0.673   9.013   4.608 -0.7937 -0.4836 -0.0140
  265MOL0     C35651  -0.810   8.991   4.537  0.0796  0.4894 -0.2125
  265MOL0     C35652  -0.799   8.852   4.463  0.5760  0.1785  0.3846
  265MOL0     C35653  -0.935   8.803   4.409 -0.0945  0.2788 -0.5180
  265MOL0     C35654  -0.980   8.886   4.289 -0.0267  0.5815 -0.0786
  265MOL0     C35655  -1.109   8.835   4.220 -1.6897  0.3191 -0.2230
  265MOL0     C35656  -1.108   8.881   4.073  0.4766 -0.5835 -0.4907
  265MOL0     N35657  -1.230   8.828   4.015  0.5000  0.2516 -0.9709
  265MOL0     C35658  -1.347   8.882   3.965  0.1995  0.0368  0.4362
  265MOL0     C35659  -1.413   8.781   3.903 -0.3278  0.6111  0.1115
  265MOL0     C35660  -1.543   8.774   3.829 -0.1687  0.8623 -0.6867
  265MOL0     C35661  -1.538   8.740   3.680 -1.1239 -0.1519  0.0967
  265MOL0     C35662  -1.674   8.733   3.603  0.0318  0.5892  0.1931
  265MOL0     C35663  -1.747   8.862   3.608  0.2019 -1.0725  0.0178
  265MOL0     O35664  -1.668   8.985   3.603  0.1547  0.2229 -0.3037
  265MOL0     C35665  -1.699   9.101   3.679  0.4320  1.1816 -0.1083
  265MOL0     C35666  -1.773   9.109   3.796  0.2236 -0.5075 -0.5922
  265MOL0     C35667  -1.803   9.227   3.867  0.3135  0.3186 -0.0974
  265MOL0     C35668  -1.772   9.349   3.810 -0.2284  0.4217  0.3686
  265MOL0     C35669  -1.829   9.481   3.868  1.2800  0.0761  0.0070
  265MOL0     O35670  -1.804   9.597   3.794 -0.6685 -0.3111 -0.5927
  265MOL0     C35671  -1.841   9.718   3.855 -0.1017 -0.4625  0.0251
  265MOL0     C35672  -1.763   9.780   3.954 -0.4169 -0.7654  1.1460
  265MOL0     C35673  -1.805   9.899   4.003 -0.5085  0.3138 -0.0392
  265MOL0     C35674  -1.919   9.972   3.963  0.2454  1.3216  0.1657
  265MOL0     O35675  -1.947  10.102   3.984 -0.0127  0.1829  0.0947
  265MOL0     C35676  -1.860  10.174   4.072  1.0952 -0.0304  0.7385
  265MOL0     C35677  -1.902  10.314   4.076  0.6956  0.0275  0.6368
  265MOL0     C35678  -1.803  10.395   4.159  0.7342  0.2990 -0.2315
  265MOL0     C35679  -1.863  10.519   4.214 -0.7934 -0.9183 -0.4101
  265MOL0     C35680  -1.764  10.626   4.275  0.8141 -0.0864  0.4546
  265MOL0     C35681  -1.832  10.679   4.390  1.0297 -0.4644 -0.1813
  265MOL0     C35682  -1.766  10.794   4.478  0.4559  0.5610 -0.3519
  265MOL0     C35683  -1.646  10.727   4.551 -0.7350 -0.3458  0.4760
  265MOL0    Cl35684  -1.505  10.748   4.440 -0.0730  0.4376 -0.1561
  265MOL0     C35685  -1.992   9.910   3.854  0.3573  0.7510 -1.3923
  265MOL0     C35686  -1.959   9.784   3.801  0.7152 -0.3292 -0.0060
  265MOL0     O35687  -1.915   9.475   3.959 -0.4426  0.6304 -0.9102
  265MOL0     C35688  -1.689   9.346   3.698  0.2776 -0.4180 -0.3050
  265MOL0     C35689  -1.661   9.229   3.634 -0.9042  0.4052 -0.1277
  265MOL0     N35690  -1.341   8.666   3.917 -0.2392 -0.2757  0.0265
  265MOL0     N35691  -1.232   8.693   3.979 -0.1443 -0.0554 -1.3722
  265MOL0     C35692  -0.339   9.076   4.340 -1.3787  0.1203  0.5880
  265MOL0     C35693  -0.219   9.102   4.263  0.2391 -0.2702 -0.1090
  265MOL0     C35694   0.123   9.035   4.049 -0.3871  0.9835 -0.2358
  265MOL0     C35695   0.063   9.119   3.955  0.4648 -0.6498  0.2738
  265MOL0     C35696   0.120   9.148   3.825 -0.8045  0.1503  0.2042
  265MOL0     C35697   0.240   9.086   3.783  0.1646 -0.3271  0.3382
  265MOL0     O35698   0.297   9.125   3.666 -0.0300  0.0039  0.3243
  265MOL0     C35699   0.424   9.072   3.602 -0.3673  0.8736  0.2450
  265MOL0     C35700   0.545   9.154   3.632  0.3746 -0.1136  0.8330
  265MOL0     C35701   0.586   9.171   3.782  0.4940  0.0572 -0.8887
  265MOL0     C35702   0.724   9.130   3.819 -0.6647  0.0365 -0.2847
  265MOL0     C35703   0.735   8.979   3.792 -0.3186 -0.7968 -0.3342
  265MOL0     C35704   0.730   8.854   3.791 -1.3401  0.5346  1.4105
  265MOL0     C35705   0.299   8.997   3.875  0.4119  0.5230  0.1757
  265MOL0     C35706   0.239   8.969   4.002 -0.7089 -0.1479 -0.2753
  265MOL0     C35707   0.317   8.889   4.108 -0.6966 -0.4853  0.3452
  265MOL0     H35708   0.007   9.127   4.528 -0.1766  0.4098  0.5952
  265MOL0     H35709  -0.186   9.088   4.655  1.5995  1.8162  0.8668
  265MOL0     H35710  -0.587   9.135   4.435  1.1352  0.0837 -1.1050
  265MOL0     H35711  -0.572   8.960   4.435 -0.6106  0.3881 -0.0821
  265MOL0     H35712  -0.666   9.080   4.693  0.6637  0.2554 -0.6939
  265MOL0     H35713  -0.638   8.924   4.661 -1.9943 -0.9990 -0.0448
  265MOL0     H35714  -0.832   9.067   4.461 -1.2552  1.6063  1.2228
  265MOL0     H35715  -0.887   8.977   4.613 -0.4289 -2.9457 -1.1937
  265MOL0     H35716  -0.734   8.873   4.378  3.1780  1.9988  2.6249
  265MOL0     H35717  -0.768   8.779   4.538 -2.8378 -2.0345 -0.1575
  265MOL0     H35718  -0.925   8.699   4.376 -0.2093 -0.1007  0.6180
  265MOL0     H35719  -1.013   8.813   4.485 -1.2899 -5.7611 -0.4880
  265MOL0     H35720  -0.995   8.990   4.319 -1.2386  0.3207  0.2696
  265MOL0     H35721  -0.895   8.894   4.220  2.2660 -3.7033  1.8218
  265MOL0     H35722  -1.195   8.869   4.277  0.1783  3.2153  1.0917
  265MOL0     H35723  -1.094   8.727   4.219 -2.5868  0.1880 -0.8555
  265MOL0     H35724  -1.110   8.990   4.073  0.5554 -0.5733  0.2787
  265MOL0     H35725  -1.028   8.843   4.009 -1.7380 -0.1467 -3.7265
  265MOL0     H35726  -1.367   8.989   3.967  2.2885  0.5684 -1.7499
  265MOL0     H35727  -1.610   8.701   3.874 -0.9284 -0.0551 -3.1759
  265MOL0     H35728  -1.583   8.875   3.835  0.9408  1.3644 -1.3490
  265MOL0     H35729  -1.469   8.814   3.640 -0.8662  1.8611  3.7928
  265MOL0     H35730  -1.491   8.644   3.655 -1.2936  0.3888 -2.4853
  265MOL0     H35731  -1.733   8.647   3.638  0.6033  1.1524  2.7648
  265MOL0     H35732  -1.646   8.720   3.498  1.1866 -1.3181  0.6776
  265MOL0     H35733  -1.806   8.858   3.700 -0.1556  0.3186 -0.1387
  265MOL0     H35734  -1.822   8.881   3.530  0.0193  3.9659  1.1337
  265MOL0     H35735  -1.812   9.022   3.849  0.0027 -0.3671 -0.5249
  265MOL0     H35736  -1.855   9.215   3.962 -0.8688 -0.2225 -0.7931
  265MOL0     H35737  -1.671   9.738   3.994 -0.1879 -0.2462  1.1728
  265MOL0     H35738  -1.737   9.938   4.078  1.3688  0.0654 -1.5225
  265MOL0     H35739  -1.872  10.134   4.173 -3.8305 -2.1211 -0.3966
  265MOL0     H35740  -1.762  10.162   4.024 -0.6055  1.0747 -3.4991
  265MOL0     H35741  -1.914  10.368   3.982 -0.5824 -0.2754  0.6121
  265MOL0     H35742  -2.004  10.324   4.115  1.0452 -0.0725  1.6028
  265MOL0     H35743  -1.783  10.322   4.238  0.2132 -2.2143 -2.3006
  265MOL0     H35744  -1.708  10.408   4.107  1.2412 -0.7963  0.3813
  265MOL0     H35745  -1.937  10.488   4.288  0.9186  0.5393  2.0424
  265MOL0     H35746  -1.906  10.573   4.129  2.1433  0.8621 -0.8987
  265MOL0     H35747  -1.737  10.707   4.206  0.6968  0.2097  0.7576
  265MOL0     H35748  -1.677  10.582   4.323 -0.0172  2.2429  4.5517
  265MOL0     H35749  -1.925  10.712   4.344 -0.3071 -3.7947 -0.1666
  265MOL0     H35750  -1.856  10.598   4.460  3.0603 -2.1620 -1.3242
  265MOL0     H35751  -1.839  10.831   4.550  0.4568  0.5061 -0.3225
  265MOL0     H35752  -1.723  10.879   4.424 -0.5092  1.3236  0.0558
  265MOL0     H35753  -1.633  10.777   4.648 -0.3312 -0.9296  0.7278
  265MOL0     H35754  -1.663  10.619   4.560  0.1370 -0.3442  2.9929
  265MOL0     H35755  -2.075   9.970   3.817  0.3761  1.9538  0.4279
  265MOL0     H35756  -2.012   9.733   3.721  0.3610  0.9572 -0.6095
  265MOL0     H35757  -1.640   9.432   3.654 -1.1203 -0.3022 -1.7554
  265MOL0     H35758  -1.592   9.240   3.551 -2.3360  0.0124 -1.4305
  265MOL0     H35759  -0.431   9.043   4.294  0.3145 -2.5164 -1.1752
  265MOL0     H35760  -0.227   9.115   4.155  3.7018  3.5349 -0.1435
  265MOL0     H35761  -0.025   9.177   3.978 -0.1396 -1.0026 -1.0604
  265MOL0     H35762   0.079   9.226   3.761  0.3576 -1.3143 -2.4607
  265MOL0     H35763   0.420   9.064   3.493  0.4162 -2.8396  0.3512
  265MOL0     H35764   0.450   8.972   3.640  2.1861  1.9742  1.6332
  265MOL0     H35765   0.509   9.249   3.591 -0.7007 -0.0115  1.9667
  265MOL0     H35766   0.623   9.106   3.572  0.6924 -1.7517  2.4848
  265MOL0     H35767   0.512   9.136   3.855 -1.4238  2.5095 -1.5309
  265MOL0     H35768   0.585   9.275   3.816  0.7702 -1.0697  3.0157
  265MOL0     H35769   0.791   9.191   3.756 -0.5755 -2.3273 -2.6548
  265MOL0     H35770   0.746   9.131   3.926 -2.8526  1.2536  0.2003
  265MOL0     H35771   0.709   8.749   3.792 -3.5391  0.9360  1.6865
  265MOL0     H35772   0.387   8.934   3.864 -1.3611 -2.4000  1.5733
  265MOL0     H35773   0.284   8.788   4.133  2.3452 -1.3691  1.2922
  265MOL0     H35774   0.417   8.873   4.066 -1.0705  1.2466 -1.3436
  265MOL0     H35775   0.325   8.944   4.202 -0.2472  0.2232 -0.1017
  266MOL0     O35776   5.389   5.295   6.671  0.2342  0.1552  0.1022
  266MOL0     C35777   5.269   5.328   6.663  0.2015 -0.6249  0.5698
  266MOL0     O35778   5.185   5.286   6.561  1.1222  0.3303 -0.2647
  266MOL0     C35779   5.234   5.201   6.463 -0.4255 -0.1481 -0.6113
  266MOL0     C35780   5.338   5.239   6.383 -0.6389 -0.1258 -0.4614
  266MOL0     C35781   5.400   5.161   6.280 -0.1024 -0.9799  0.2384
  266MOL0     C35782   5.357   5.032   6.260  0.2536 -1.1857  0.0678
  266MOL0     O35783   5.420   4.949   6.165  0.4736 -0.0285  0.5401
  266MOL0     C35784   5.324   4.855   6.112 -0.2357  0.2848 -0.8159
  266MOL0     C35785   5.371   4.793   5.983 -0.2700  0.3622  0.6891
  266MOL0     C35786   5.348   4.893   5.860  0.5832 -0.3277  0.2176
  266MOL0     C35787   5.407   4.826   5.733 -0.4437  0.4067 -0.2133
  266MOL0     C35788   5.380   4.909   5.619  0.0258 -0.3384  0.5240
  266MOL0     C35789   5.451   5.044   5.632 -0.0583  0.0552 -0.3025
  266MOL0     C35790   5.456   5.135   5.509 -0.2100 -0.6879  0.1938
  266MOL0     C35791   5.541   5.065   5.408  0.0282 -0.2681  0.0466
  266MOL0     N35792   5.561   5.143   5.281  1.0531  0.6751 -0.8148
  266MOL0     C35793   5.485   5.135   5.166 -0.5952  0.2125 -0.1834
  266MOL0     C35794   5.545   5.227   5.086 -0.4878  0.3629  0.9697
  266MOL0     C35795   5.493   5.266   4.940  0.7462  0.7263 -0.2157
  266MOL0     C35796   5.591   5.226   4.831 -0.3706 -0.0091  0.3717
  266MOL0     C35797   5.578   5.301   4.696 -0.4581 -0.7467  0.0552
  266MOL0     C35798   5.425   5.310   4.656 -0.3641 -0.7573  0.2221
  266MOL0     O35799   5.403   5.452   4.628 -0.6696  0.6187 -0.5612
  266MOL0     C35800   5.269   5.499   4.616  0.5112 -0.2018  0.5347
  266MOL0     C35801   5.240   5.629   4.665 -0.0343 -0.1883 -0.0564
  266MOL0     C35802   5.113   5.682   4.645  0.6218 -0.0175 -0.2765
  266MOL0     C35803   5.009   5.606   4.574  1.2121 -0.5365  0.4648
  266MOL0     C35804   4.876   5.663   4.553  0.0234  0.1983  0.3024
  266MOL0     O35805   4.864   5.795   4.593  0.0916  0.2733  0.0895
  266MOL0     C35806   4.747   5.847   4.575 -0.2465  0.0284 -0.0414
  266MOL0     C35807   4.710   5.893   4.453  0.2475 -0.1212  0.6358
  266MOL0     C35808   4.579   5.958   4.443 -0.7217  0.8285 -0.0661
  266MOL0     C35809   4.491   5.961   4.547  0.0154  0.9435 -0.7265
  266MOL0     O35810   4.364   6.021   4.520 -0.0227  0.4215 -0.6488
  266MOL0     C35811   4.257   5.969   4.601 -0.5796 -0.3314 -0.4159
  266MOL0     C35812   4.124   6.035   4.578  0.1466 -0.4374  0.6618
  266MOL0     C35813   4.057   6.003   4.442  0.3644  0.3732  0.1206
  266MOL0     C35814   3.979   6.127   4.383  1.2989 -0.2069 -0.3352
  266MOL0     C35815   3.953   6.117   4.228 -0.0806 -0.2171  0.2917
  266MOL0     C35816   3.880   6.226   4.149 -0.0195 -0.7863  0.8337
  266MOL0     C35817   3.753   6.278   4.227 -0.7720  0.0228  0.0547
  266MOL0     C35818   3.666   6.356   4.136 -0.1113  0.1095  0.1890
  266MOL0    Cl35819   3.530   6.431   4.212 -0.5092  0.1360  0.4170
  266MOL0     C35820   4.536   5.922   4.675  0.0255 -0.4594  0.5033
  266MOL0     C35821   4.660   5.864   4.685  0.6586  0.5488  0.1942
  266MOL0     O35822   4.788   5.591   4.504 -0.2157  0.1079  0.7031
  266MOL0     C35823   5.037   5.480   4.527  0.6586 -0.6902  0.1813
  266MOL0     C35824   5.167   5.422   4.553 -0.7436  0.1767 -0.1966
  266MOL0     N35825   5.661   5.289   5.137 -0.9181 -0.4133 -0.1863
  266MOL0     N35826   5.662   5.227   5.251  0.0826  1.0365 -0.7421
  266MOL0     C35827   5.250   4.988   6.344  0.0297 -0.3644  0.0262
  266MOL0     C35828   5.186   5.075   6.440  0.5637  0.0646 -0.0343
  266MOL0     C35829   5.198   5.422   6.750  0.2965  0.4315 -0.1667
  266MOL0     C35830   5.058   5.428   6.768  0.1011 -0.6148  0.5305
  266MOL0     C35831   4.990   5.510   6.860 -0.6988 -0.7430 -0.9005
  266MOL0     C35832   5.065   5.595   6.937 -0.0202  0.1142 -0.6371
  266MOL0     O35833   5.020   5.675   7.044 -0.5443  0.0802  0.5136
  266MOL0     C35834   4.902   5.639   7.119 -0.2477 -0.2903 -0.0807
  266MOL0     C35835   4.953   5.552   7.235  0.4954 -0.7664  0.5200
  266MOL0     C35836   4.843   5.492   7.324  0.6368 -0.7977  0.3031
  266MOL0     C35837   4.813   5.342   7.298 -0.0265 -0.8284  0.3871
  266MOL0     C35838   4.766   5.323   7.158 -1.2866  0.5854  0.4015
  266MOL0     C35839   4.727   5.288   7.048  0.3850 -0.3357  0.5701
  266MOL0     C35840   5.200   5.614   6.902  0.7870  0.0968 -0.3789
  266MOL0     C35841   5.269   5.528   6.811 -0.7205 -0.8818 -0.1714
  266MOL0     C35842   5.414   5.565   6.777 -0.7966 -0.9279 -0.0155
  266MOL0     H35843   5.382   5.332   6.419 -3.6154  1.2819 -0.1062
  266MOL0     H35844   5.484   5.190   6.217 -2.3488 -1.1841 -3.0904
  266MOL0     H35845   5.327   4.775   6.187 -1.0685  0.8496 -0.1588
  266MOL0     H35846   5.224   4.896   6.095 -0.9362 -0.0247  2.0407
  266MOL0     H35847   5.315   4.701   5.969 -1.6958  0.3988  4.8475
  266MOL0     H35848   5.476   4.763   5.988 -0.7936 -1.6188  0.3923
  266MOL0     H35849   5.404   4.985   5.884  1.7489 -0.8623 -0.3493
  266MOL0     H35850   5.246   4.926   5.840  0.7650  0.0724 -0.0766
  266MOL0     H35851   5.513   4.803   5.747 -0.3496  0.4218 -0.8411
  266MOL0     H35852   5.363   4.726   5.720 -1.1369  0.6660  0.1031
  266MOL0     H35853   5.419   4.856   5.531 -1.0925  0.4102 -0.4492
  266MOL0     H35854   5.275   4.924   5.589 -0.4730 -0.2568  2.2046
  266MOL0     H35855   5.401   5.105   5.708 -1.0108 -1.7633  0.6007
  266MOL0     H35856   5.552   5.030   5.670 -0.3525  1.6602  1.2056
  266MOL0     H35857   5.499   5.234   5.529 -0.2870  0.0974 -3.0171
  266MOL0     H35858   5.355   5.140   5.468 -0.7161 -1.3739  1.3144
  266MOL0     H35859   5.633   5.037   5.461  0.6898 -2.5968 -2.1462
  266MOL0     H35860   5.497   4.972   5.373 -1.7223  1.1462 -1.7507
  266MOL0     H35861   5.394   5.077   5.155  0.2408 -0.9606 -1.2802
  266MOL0     H35862   5.388   5.244   4.920  1.1440 -1.2021 -0.3501
  266MOL0     H35863   5.493   5.376   4.940  1.6279  0.7948  2.4718
  266MOL0     H35864   5.691   5.244   4.871 -0.6380  3.0293 -0.0695
  266MOL0     H35865   5.573   5.122   4.802 -3.0074  0.8999 -1.6281
  266MOL0     H35866   5.634   5.256   4.614 -0.4109 -0.8039  0.1195
  266MOL0     H35867   5.613   5.404   4.708  1.3541 -0.6132 -4.4188
  266MOL0     H35868   5.357   5.267   4.730 -1.2037 -0.0183 -0.0994
  266MOL0     H35869   5.407   5.241   4.573 -0.5053 -2.9312  1.9675
  266MOL0     H35870   5.318   5.692   4.706 -1.0660  2.7637 -2.3021
  266MOL0     H35871   5.088   5.779   4.685  4.2317  2.1574 -2.7132
  266MOL0     H35872   4.781   5.874   4.374  4.0405  2.8684  2.9626
  266MOL0     H35873   4.545   5.999   4.349 -0.7157  2.1917  0.5042
  266MOL0     H35874   4.232   5.863   4.584 -1.6691  0.3050 -3.5544
  266MOL0     H35875   4.275   5.984   4.708  1.7320 -4.0267 -0.1124
  266MOL0     H35876   4.053   5.996   4.652 -0.3634 -1.8034 -0.4781
  266MOL0     H35877   4.131   6.143   4.585 -0.7001 -0.2261 -1.1557
  266MOL0     H35878   4.126   5.979   4.360 -1.1964 -3.1605 -0.3210
  266MOL0     H35879   3.974   5.931   4.444 -0.6373  1.3595 -1.9420
  266MOL0     H35880   4.027   6.224   4.394  1.4798 -0.2173 -0.9934
  266MOL0     H35881   3.881   6.132   4.432  1.6130 -2.0542  0.5971
  266MOL0     H35882   3.903   6.019   4.230 -1.9984  0.6779  2.9072
  266MOL0     H35883   4.048   6.111   4.174 -0.5134  3.4525 -1.1939
  266MOL0     H35884   3.943   6.315   4.137  1.0168 -1.7538 -1.4982
  266MOL0     H35885   3.854   6.192   4.049  0.3921 -1.0932  0.8293
  266MOL0     H35886   3.788   6.335   4.313 -2.4323  2.3636 -0.7182
  266MOL0     H35887   3.689   6.195   4.255  1.7319 -1.5861  1.4202
  266MOL0     H35888   3.721   6.432   4.079 -0.8840  0.1438 -0.5283
  266MOL0     H35889   3.627   6.301   4.050 -0.4866 -0.8791  0.9768
  266MOL0     H35890   4.492   5.922   4.775  0.1503 -3.9862  0.6913
  266MOL0     H35891   4.685   5.831   4.785 -2.0899  0.7203  1.0470
  266MOL0     H35892   4.967   5.416   4.474 -0.8664  0.5985  0.5537
  266MOL0     H35893   5.204   5.325   4.522  1.3881  1.2384 -1.2195
  266MOL0     H35894   5.209   4.888   6.332 -1.8100  0.4155 -0.6484
  266MOL0     H35895   5.097   5.049   6.497 -1.8406  0.8219 -3.1847
  266MOL0     H35896   4.991   5.367   6.708  1.9318 -2.5106  0.2833
  266MOL0     H35897   4.882   5.503   6.863 -1.0135  2.5600 -0.5395
  266MOL0     H35898   4.826   5.577   7.071 -0.2221 -2.1305  2.1023
  266MOL0     H35899   4.856   5.732   7.152  1.2631  1.3625 -2.3293
  266MOL0     H35900   5.023   5.609   7.297  0.2269  0.2291 -0.0728
  266MOL0     H35901   5.012   5.470   7.192 -0.9773 -0.5669 -2.1051
  266MOL0     H35902   4.748   5.539   7.297  1.3197 -1.0952 -3.1258
  266MOL0     H35903   4.873   5.507   7.428 -1.7639  0.9242  0.8350
  266MOL0     H35904   4.913   5.298   7.309  0.7577  1.1837  1.9058
  266MOL0     H35905   4.757   5.283   7.372  0.8030 -0.3781  1.4044
  266MOL0     H35906   4.690   5.244   6.957  5.4382 -2.7804 -0.6533
  266MOL0     H35907   5.260   5.681   6.964 -2.1408  1.4631  1.1590
  266MOL0     H35908   5.438   5.657   6.831  0.2685  0.6914 -3.0193
  266MOL0     H35909   5.493   5.491   6.792  2.1195  1.6248 -1.5874
  266MOL0     H35910   5.412   5.600   6.673 -5.8764 -2.2771 -0.6917
  267MOL0     O35911  10.579   6.308   5.543 -0.2778  0.7957  0.0458
  267MOL0     C35912  10.641   6.208   5.577 -0.2367 -0.2129 -0.0923
  267MOL0     O35913  10.649   6.160   5.707 -0.2951  0.2916 -0.0832
  267MOL0     C35914  10.604   6.233   5.811  0.6022 -0.5536  0.4411
  267MOL0     C35915  10.499   6.177   5.886  0.2196 -0.3049  1.6190
  267MOL0     C35916  10.452   6.243   5.999  0.4190 -0.5261  0.2829
  267MOL0     C35917  10.499   6.372   6.029  0.1814  0.0648  0.4899
  267MOL0     O35918  10.456   6.455   6.126 -0.3877 -0.2329  0.6456
  267MOL0     C35919  10.349   6.420   6.211 -0.0265 -0.0531 -0.0077
  267MOL0     C35920  10.354   6.524   6.317 -0.5243 -0.3497 -0.0313
  267MOL0     C35921  10.305   6.664   6.270 -0.0414 -0.5252  0.2414
  267MOL0     C35922  10.284   6.763   6.379 -0.3883 -0.4896 -0.4445
  267MOL0     C35923  10.269   6.903   6.326 -0.0091 -0.7458  0.4871
  267MOL0     C35924  10.137   6.921   6.255 -0.4534 -0.3255  0.5208
  267MOL0     C35925  10.137   7.070   6.220  0.6738  0.2460  0.4020
  267MOL0     C35926  10.002   7.091   6.153  0.0778 -0.1670 -0.2036
  267MOL0     N35927   9.977   7.231   6.109  0.3642 -0.0837  0.5347
  267MOL0     C35928   9.927   7.270   5.989  0.1458 -0.2092  0.3931
  267MOL0     C35929   9.927   7.406   5.992 -0.7664 -0.5175  0.5113
  267MOL0     C35930   9.881   7.501   5.888  0.3969  1.3401  0.0427
  267MOL0     C35931   9.978   7.498   5.770 -0.2385  0.4431  0.6840
  267MOL0     C35932   9.944   7.604   5.656 -0.4283  0.3397 -0.0229
  267MOL0     C35933  10.040   7.570   5.535  0.1094  0.0131  0.6989
  267MOL0     O35934  10.010   7.649   5.415  0.5891  0.1589  1.2170
  267MOL0     C35935  10.059   7.778   5.405 -0.4308 -0.4358  0.5107
  267MOL0     C35936  10.060   7.830   5.277  0.5782  0.0019  0.7991
  267MOL0     C35937  10.114   7.948   5.238 -0.5015 -0.1835 -0.5998
  267MOL0     C35938  10.170   8.030   5.339  0.1020 -0.6575 -0.0744
  267MOL0     C35939  10.221   8.160   5.298 -0.3096  0.5177 -0.6480
  267MOL0     O35940  10.228   8.248   5.400  0.3856  0.6025  0.9139
  267MOL0     C35941  10.300   8.363   5.370  1.5789 -0.3095  1.1899
  267MOL0     C35942  10.226   8.486   5.368 -0.9065 -0.2992 -0.9065
  267MOL0     C35943  10.290   8.612   5.361  0.4097  0.1075  0.1675
  267MOL0     C35944  10.420   8.602   5.324  0.6074  0.8523 -0.1002
  267MOL0     O35945  10.483   8.721   5.293 -0.4159  0.0677  0.2952
  267MOL0     C35946  10.572   8.769   5.392 -0.4400 -0.2705 -0.6855
  267MOL0     C35947  10.533   8.919   5.397 -0.0945 -0.2154  0.1301
  267MOL0     C35948  10.665   8.992   5.449  0.4072 -0.1755 -0.7247
  267MOL0     C35949  10.612   9.133   5.489 -0.1386  1.2387  0.7473
  267MOL0     C35950  10.717   9.219   5.560 -1.3294 -0.2727  1.2546
  267MOL0     C35951  10.843   9.231   5.471 -0.4307 -0.6526  0.8393
  267MOL0     C35952  10.929   9.353   5.491 -0.2876 -0.2494  0.2126
  267MOL0     C35953  11.035   9.359   5.388 -0.3295  0.6474 -0.8913
  267MOL0    Cl35954  10.978   9.382   5.221 -0.6726 -0.1549 -0.2337
  267MOL0     C35955  10.499   8.488   5.336  1.2638 -0.5018  0.4677
  267MOL0     C35956  10.432   8.369   5.363 -0.0666  0.6970 -0.1338
  267MOL0     O35957  10.241   8.181   5.180  0.2972 -0.6124 -0.0701
  267MOL0     C35958  10.163   7.988   5.474  0.1944  0.2834  0.2101
  267MOL0     C35959  10.108   7.856   5.509  0.1944 -0.1218 -0.1170
  267MOL0     N35960   9.980   7.451   6.114  0.4193  0.9502 -1.0291
  267MOL0     N35961   9.998   7.345   6.183 -0.1489 -0.5015 -0.2131
  267MOL0     C35962  10.602   6.421   5.959 -0.7135 -0.1219 -0.8044
  267MOL0     C35963  10.651   6.358   5.846 -0.3187  0.1050  0.4386
  267MOL0     C35964  10.718   6.118   5.479  0.4611  0.0343  0.2843
  267MOL0     C35965  10.781   6.010   5.533  0.2225  0.1952 -0.1411
  267MOL0     C35966  10.845   5.917   5.449  0.2913  0.2973  1.5344
  267MOL0     C35967  10.862   5.938   5.314  0.7983  0.3689  0.0495
  267MOL0     O35968  10.922   5.838   5.235 -0.9437  0.6566  0.2241
  267MOL0     C35969  10.943   5.864   5.096  0.5116  0.2653  1.1027
  267MOL0     C35970  11.039   5.766   5.028  0.3746  0.2198  0.0590
  267MOL0     C35971  11.184   5.801   5.053 -0.5762 -0.4728 -0.2899
  267MOL0     C35972  11.238   5.745   5.184 -0.9261 -0.5142 -0.0798
  267MOL0     C35973  11.389   5.728   5.179  0.9217  0.8025  0.3357
  267MOL0     C35974  11.505   5.708   5.174  0.6831  0.6108  0.8337
  267MOL0     C35975  10.799   6.058   5.257 -0.4043  0.5549 -0.0897
  267MOL0     C35976  10.732   6.145   5.339  0.4412  0.1959 -0.0683
  267MOL0     C35977  10.674   6.271   5.274  0.7288 -0.5593  0.1492
  267MOL0     H35978  10.450   6.085   5.854 -2.2064  1.5357 -0.2572
  267MOL0     H35979  10.364   6.210   6.055  1.1426 -1.4857  0.8878
  267MOL0     H35980  10.255   6.423   6.155  0.7092  1.2118 -1.2553
  267MOL0     H35981  10.377   6.325   6.255  2.4091  2.3422  4.2621
  267MOL0     H35982  10.449   6.521   6.370 -0.4412  1.0379 -0.0708
  267MOL0     H35983  10.284   6.496   6.397  0.4915  0.1464  1.0676
  267MOL0     H35984  10.220   6.660   6.201  0.2143 -1.8614 -0.0143
  267MOL0     H35985  10.384   6.701   6.203 -0.3138  0.2232  0.3184
  267MOL0     H35986  10.192   6.733   6.430  0.6456 -0.4226  1.5805
  267MOL0     H35987  10.369   6.759   6.448 -0.3843  0.5160 -0.3637
  267MOL0     H35988  10.286   6.973   6.409  1.7990  0.1773 -0.5945
  267MOL0     H35989  10.344   6.920   6.248 -0.2282 -0.2739  0.3732
  267MOL0     H35990  10.133   6.861   6.164  0.7862 -3.0719  2.1485
  267MOL0     H35991  10.054   6.902   6.324  0.2904  1.8990  2.1381
  267MOL0     H35992  10.211   7.097   6.144  0.2335 -2.1382 -0.9481
  267MOL0     H35993  10.152   7.133   6.309  0.2382 -0.8178  1.2515
  267MOL0     H35994   9.982   7.031   6.064  0.3921  0.5385 -0.7575
  267MOL0     H35995   9.925   7.075   6.229  0.4405 -0.9145  0.0134
  267MOL0     H35996   9.901   7.218   5.897 -1.2396 -0.3095  0.8180
  267MOL0     H35997   9.787   7.469   5.844  0.7274  2.8585 -1.9005
  267MOL0     H35998   9.872   7.600   5.933 -0.8775  0.8403  0.9231
  267MOL0     H35999  10.075   7.531   5.807 -0.3146  3.3833 -1.3435
  267MOL0     H36000   9.992   7.397   5.730 -0.8209  0.0965  1.3486
  267MOL0     H36001   9.950   7.707   5.692 -2.0097  0.5099 -0.1828
  267MOL0     H36002   9.841   7.578   5.632  0.1504 -0.2768 -2.0913
  267MOL0     H36003  10.055   7.468   5.498 -1.1524  0.0725 -0.0460
  267MOL0     H36004  10.142   7.583   5.571  0.6042 -2.0240  0.1385
  267MOL0     H36005  10.002   7.777   5.202 -0.1752  3.6900 -1.5172
  267MOL0     H36006  10.112   7.972   5.133  3.4222 -2.2151 -1.3377
  267MOL0     H36007  10.120   8.470   5.380 -0.3237 -3.4843  1.0769
  267MOL0     H36008  10.248   8.712   5.359  0.6099  0.2000  0.6717
  267MOL0     H36009  10.546   8.729   5.490 -2.4809  3.4073  0.4336
  267MOL0     H36010  10.678   8.756   5.371 -0.5736  1.9485 -3.2038
  267MOL0     H36011  10.505   8.966   5.303  2.0543  1.4684  0.2518
  267MOL0     H36012  10.450   8.933   5.467  0.3004 -2.5754  1.1752
  267MOL0     H36013  10.718   8.943   5.531  0.7514 -0.7104 -1.2673
  267MOL0     H36014  10.745   9.000   5.375  2.1377  2.0571  1.2222
  267MOL0     H36015  10.529   9.123   5.559  0.0551  1.0919  0.9576
  267MOL0     H36016  10.579   9.195   5.405 -0.2583  0.0212 -0.1303
  267MOL0     H36017  10.735   9.166   5.654 -2.3840 -1.3416  0.8839
  267MOL0     H36018  10.664   9.311   5.586 -0.5480  0.2326  1.0813
  267MOL0     H36019  10.891   9.133   5.483 -2.9527 -1.6629  3.7668
  267MOL0     H36020  10.799   9.236   5.370  1.1428  0.8192  0.1830
  267MOL0     H36021  10.970   9.353   5.592  2.3942 -0.6580 -0.7875
  267MOL0     H36022  10.866   9.442   5.483  0.8769  1.0061  3.4523
  267MOL0     H36023  11.094   9.446   5.420  1.2720 -0.1801 -1.4958
  267MOL0     H36024  11.098   9.271   5.405 -1.8873 -0.9609 -2.8764
  267MOL0     H36025  10.605   8.490   5.313  1.1781 -0.2521  0.0713
  267MOL0     H36026  10.501   8.289   5.386  0.2119  1.9987  4.7313
  267MOL0     H36027  10.186   8.057   5.554  0.6490 -0.5722  0.8339
  267MOL0     H36028  10.109   7.818   5.611 -0.9193 -1.8071 -0.6829
  267MOL0     H36029  10.651   6.514   5.986  0.8749 -0.5756 -1.9461
  267MOL0     H36030  10.729   6.398   5.781 -1.0169  1.0976  0.1839
  267MOL0     H36031  10.778   5.996   5.640 -1.6543  0.0933 -0.1738
  267MOL0     H36032  10.898   5.835   5.495 -1.4489 -1.6913  0.1971
  267MOL0     H36033  10.985   5.964   5.077  0.7568 -0.0190  0.0386
  267MOL0     H36034  10.849   5.854   5.041  1.5297  0.8725 -0.8403
  267MOL0     H36035  11.022   5.781   4.921 -0.6502  2.1000  0.4269
  267MOL0     H36036  11.009   5.665   5.054 -1.6330 -0.0548 -2.8071
  267MOL0     H36037  11.202   5.909   5.051 -1.9253 -0.2350 -2.0466
  267MOL0     H36038  11.231   5.746   4.971  3.8031 -0.5429  2.0064
  267MOL0     H36039  11.206   5.818   5.259 -3.7722  0.0077 -1.6668
  267MOL0     H36040  11.195   5.647   5.204  1.1216 -1.4605 -0.0001
  267MOL0     H36041  11.606   5.687   5.201  0.1993 -2.7705  0.3606
  267MOL0     H36042  10.809   6.085   5.153  0.2793 -0.8122 -0.4043
  267MOL0     H36043  10.574   6.299   5.310  1.1932 -2.1844  2.9672
  267MOL0     H36044  10.744   6.352   5.298 -0.8668  1.2293 -0.8500
  267MOL0     H36045  10.664   6.272   5.165 -2.0368 -0.9849  0.3052
  268MOL0     O36046  11.265   6.642   0.575 -0.0769  0.4350  0.4163
  268MOL0     C36047  11.265   6.760   0.574  0.0879  0.1325 -0.2260
  268MOL0     O36048  11.275   6.847   0.466  0.2147  0.0384 -0.2277
  268MOL0     C36049  11.312   6.793   0.344 -0.3593 -0.7582 -0.4881
  268MOL0     C36050  11.416   6.697   0.335 -0.0347  0.3765 -0.8537
  268MOL0     C36051  11.461   6.656   0.216  0.1639 -0.1153 -0.3835
  268MOL0     C36052  11.390   6.687   0.092  0.0006 -0.1105 -0.2821
  268MOL0     O36053  11.421   6.646  -0.037  0.4002 -0.6140  0.1418
  268MOL0     C36054  11.492   6.518  -0.044 -0.0257 -0.0353  0.1231
  268MOL0     C36055  11.500   6.473  -0.188  1.2062 -0.9577 -0.0450
  268MOL0     C36056  11.374   6.402  -0.236  0.0474  0.4953  0.2735
  268MOL0     C36057  11.277   6.493  -0.323 -0.0642  0.4598 -0.6441
  268MOL0     C36058  11.168   6.397  -0.375 -1.9364  0.1765 -0.3906
  268MOL0     C36059  11.058   6.461  -0.459 -0.5272  1.1348 -0.4257
  268MOL0     C36060  11.061   6.608  -0.475  0.2083 -0.3300  0.1860
  268MOL0     C36061  10.992   6.691  -0.369  0.4078 -0.0809 -0.0139
  268MOL0     N36062  11.069   6.809  -0.332  0.7565  1.1681  0.4896
  268MOL0     C36063  11.022   6.930  -0.373  0.2352 -0.7442 -0.0311
  268MOL0     C36064  11.085   7.023  -0.294  0.0941  0.3049  0.6590
  268MOL0     C36065  11.058   7.178  -0.309 -0.4623  0.4672  0.0979
  268MOL0     C36066  11.196   7.237  -0.364  0.4054 -0.2975  0.6203
  268MOL0     C36067  11.235   7.198  -0.506 -0.2364  0.0769 -0.8109
  268MOL0     C36068  11.364   7.274  -0.548 -1.0578  0.4129 -0.0737
  268MOL0     O36069  11.360   7.411  -0.547 -0.1942  0.2394 -0.2352
  268MOL0     C36070  11.284   7.475  -0.644  1.0362  0.0672  0.7907
  268MOL0     C36071  11.235   7.408  -0.758 -0.2926 -0.4027 -0.6073
  268MOL0     C36072  11.156   7.475  -0.848  0.7224  0.4257 -0.6670
  268MOL0     C36073  11.130   7.610  -0.825 -0.2710 -0.0294  0.0679
  268MOL0     C36074  11.046   7.692  -0.926 -0.7075 -0.3626  0.0093
  268MOL0     O36075  11.001   7.811  -0.870  0.5610 -0.8228  0.4740
  268MOL0     C36076  10.924   7.879  -0.954 -0.4079  0.0408  0.5977
  268MOL0     C36077  10.976   7.968  -1.049  0.6860 -0.8153  0.2499
  268MOL0     C36078  10.885   8.042  -1.127 -0.5267 -0.0852 -0.3207
  268MOL0     C36079  10.750   8.033  -1.117 -0.1453 -0.1392 -0.3592
  268MOL0     O36080  10.659   8.103  -1.192 -0.0817 -0.8554  0.5896
  268MOL0     C36081  10.680   8.102  -1.330 -0.0261 -0.1371  0.0361
  268MOL0     C36082  10.576   8.014  -1.389  0.0683  0.6218  0.1937
  268MOL0     C36083  10.640   7.873  -1.398 -0.4572  0.1270  0.0604
  268MOL0     C36084  10.535   7.769  -1.435 -0.1675 -1.3227 -0.9723
  268MOL0     C36085  10.579   7.624  -1.414 -0.8298  0.8236 -0.0723
  268MOL0     C36086  10.726   7.599  -1.457  0.7425 -0.7975  0.4545
  268MOL0     C36087  10.761   7.452  -1.469  0.3751  0.1965 -0.2288
  268MOL0     C36088  10.912   7.446  -1.467  0.9847  0.3236  0.1153
  268MOL0    Cl36089  10.994   7.526  -1.617 -0.0981  0.3039  0.2124
  268MOL0     C36090  10.699   7.950  -1.015  0.1575 -0.1124  0.6344
  268MOL0     C36091  10.785   7.875  -0.933  0.3741 -0.3972  0.5860
  268MOL0     O36092  11.026   7.655  -1.039 -0.2757 -0.2669 -0.4226
  268MOL0     C36093  11.178   7.677  -0.707  0.1085 -0.4281  0.3389
  268MOL0     C36094  11.255   7.606  -0.621  0.1783 -1.6407  0.2081
  268MOL0     N36095  11.167   6.955  -0.203  0.0236  0.1848  0.4373
  268MOL0     N36096  11.152   6.830  -0.225  0.2833  0.2597  0.1194
  268MOL0     C36097  11.287   6.786   0.105 -0.5205 -0.0263  0.4349
  268MOL0     C36098  11.251   6.838   0.230 -0.6789 -0.2200 -0.3947
  268MOL0     C36099  11.251   6.833   0.696 -0.4821  0.0600  0.3997
  268MOL0     C36100  11.195   6.961   0.680  0.3728 -0.1625  0.4529
  268MOL0     C36101  11.162   7.035   0.788 -0.5555 -1.5089  0.3536
  268MOL0     C36102  11.175   6.988   0.914 -0.1031  0.4637  0.1779
  268MOL0     O36103  11.145   7.067   1.019  0.2631  0.4043 -0.1525
  268MOL0     C36104  11.243   7.127   1.100 -0.6911 -0.0335 -0.7929
  268MOL0     C36105  11.309   7.028   1.203  0.2559 -0.4485  0.6608
  268MOL0     C36106  11.413   7.085   1.301  0.5693 -0.0109  0.5413
  268MOL0     C36107  11.444   6.988   1.416 -0.6101 -0.1289  0.1291
  268MOL0     C36108  11.332   6.950   1.500  0.3909 -0.5630 -0.0479
  268MOL0     C36109  11.261   6.886   1.575 -0.4794  0.6225 -0.0312
  268MOL0     C36110  11.242   6.871   0.932  0.3607  0.2978  0.5705
  268MOL0     C36111  11.278   6.789   0.827 -0.1693 -0.3616 -0.3644
  268MOL0     C36112  11.342   6.659   0.858  0.4677  1.5713  0.4732
  268MOL0     H36113  11.465   6.664   0.426 -1.9274  2.1354  0.9204
  268MOL0     H36114  11.552   6.598   0.210  1.1114  1.1326  1.0014
  268MOL0     H36115  11.595   6.519  -0.009 -0.4344 -0.8185  1.4102
  268MOL0     H36116  11.430   6.447   0.012 -2.2407  2.4415  1.0236
  268MOL0     H36117  11.584   6.405  -0.201  0.3553 -2.0751  0.1144
  268MOL0     H36118  11.511   6.561  -0.252  0.5193 -1.2451 -0.5715
  268MOL0     H36119  11.318   6.362  -0.151 -3.5106 -0.5321 -2.3017
  268MOL0     H36120  11.397   6.318  -0.302 -2.1658 -1.4882  1.8658
  268MOL0     H36121  11.232   6.568  -0.258  2.3646  0.5490  1.0468
  268MOL0     H36122  11.330   6.546  -0.402  2.9974 -2.4017 -0.7152
  268MOL0     H36123  11.222   6.321  -0.433  1.2283  3.1333 -1.6452
  268MOL0     H36124  11.138   6.361  -0.276  1.7965  0.1951  0.8968
  268MOL0     H36125  11.068   6.426  -0.562  1.3561 -1.4092  0.4961
  268MOL0     H36126  10.959   6.426  -0.430 -1.2350  2.2044 -1.4559
  268MOL0     H36127  11.018   6.639  -0.571  0.6869 -1.2237 -0.3220
  268MOL0     H36128  11.163   6.646  -0.488 -0.1848  0.0250 -2.6575
  268MOL0     H36129  10.892   6.718  -0.401 -0.1142 -1.2984  0.4993
  268MOL0     H36130  10.986   6.636  -0.274 -0.7198 -1.2972 -0.7523
  268MOL0     H36131  10.946   6.954  -0.446 -0.4419 -0.1991  0.8370
  268MOL0     H36132  10.976   7.198  -0.378 -0.0986  1.5232 -0.0393
  268MOL0     H36133  11.029   7.216  -0.211  0.9916  3.3716 -0.5131
  268MOL0     H36134  11.183   7.345  -0.369 -1.6049 -0.2327  3.9740
  268MOL0     H36135  11.269   7.212  -0.286 -0.4402 -4.1740  0.3553
  268MOL0     H36136  11.147   7.235  -0.558  0.8747  1.2417 -1.9375
  268MOL0     H36137  11.241   7.090  -0.525 -0.0150  0.1628 -1.2443
  268MOL0     H36138  11.394   7.221  -0.639 -4.5158  0.2354 -1.2721
  268MOL0     H36139  11.436   7.248  -0.470 -1.8396 -0.6697  0.3131
  268MOL0     H36140  11.247   7.301  -0.766  1.2128 -0.6060  2.6455
  268MOL0     H36141  11.119   7.437  -0.942  0.8016  2.4556 -1.5870
  268MOL0     H36142  11.084   7.970  -1.047  0.8314  0.6776 -2.7316
  268MOL0     H36143  10.921   8.111  -1.203 -0.7402  1.3785  0.8542
  268MOL0     H36144  10.653   8.205  -1.355 -1.1295  0.7585  4.1177
  268MOL0     H36145  10.784   8.083  -1.357 -1.1268 -1.1228 -4.1014
  268MOL0     H36146  10.485   8.013  -1.329 -1.0264 -0.6406 -1.3898
  268MOL0     H36147  10.547   8.045  -1.490  2.0548  0.4491 -0.4852
  268MOL0     H36148  10.726   7.867  -1.465 -2.3566 -1.5291 -2.3797
  268MOL0     H36149  10.671   7.833  -1.301 -0.8336 -0.9969 -0.2747
  268MOL0     H36150  10.520   7.798  -1.540  2.2419  1.3856 -0.7068
  268MOL0     H36151  10.439   7.778  -1.382 -1.8466  0.8345 -4.0506
  268MOL0     H36152  10.519   7.560  -1.480 -0.5225  1.0411 -0.5695
  268MOL0     H36153  10.547   7.585  -1.317  2.3241 -2.5118 -0.1725
  268MOL0     H36154  10.731   7.635  -1.560 -1.8098  2.2538  1.2549
  268MOL0     H36155  10.799   7.648  -1.391  1.1758 -1.3765  0.4137
  268MOL0     H36156  10.716   7.403  -1.556  2.9641  1.6395 -2.5613
  268MOL0     H36157  10.727   7.414  -1.373 -1.8362  2.8755  0.1714
  268MOL0     H36158  10.946   7.499  -1.378 -0.6734  1.4382  0.1304
  268MOL0     H36159  10.934   7.339  -1.456 -0.4434  0.1903  2.3427
  268MOL0     H36160  10.593   7.950  -0.996  0.5003 -2.5246  3.1911
  268MOL0     H36161  10.735   7.816  -0.857 -1.9798 -0.3780 -0.8388
  268MOL0     H36162  11.158   7.781  -0.685  0.9997 -0.0350 -0.6182
  268MOL0     H36163  11.290   7.657  -0.532 -2.1591  2.4681 -0.9817
  268MOL0     H36164  11.240   6.831   0.018 -0.4794 -1.8855 -0.6132
  268MOL0     H36165  11.186   6.925   0.227  0.4928  0.6538 -2.5524
  268MOL0     H36166  11.161   7.004   0.586 -0.5151 -2.5141 -0.3636
  268MOL0     H36167  11.118   7.130   0.762 -1.5512 -2.5309 -2.0161
  268MOL0     H36168  11.188   7.197   1.165 -1.2673 -0.1635 -1.1310
  268MOL0     H36169  11.321   7.178   1.043  0.6554 -0.5792  0.5012
  268MOL0     H36170  11.368   6.952   1.151  1.3866  0.0810  1.1371
  268MOL0     H36171  11.217   7.000   1.255  0.3632  0.3094  1.2704
  268MOL0     H36172  11.371   7.178   1.341 -1.4851  0.3368 -2.1336
  268MOL0     H36173  11.509   7.112   1.258  0.3780  0.8918  0.6523
  268MOL0     H36174  11.493   6.897   1.379  1.4200 -0.2694  2.8700
  268MOL0     H36175  11.501   7.048   1.488 -2.5323  0.0666  1.5579
  268MOL0     H36176  11.183   6.833   1.626 -2.4496  5.0897  2.1274
  268MOL0     H36177  11.243   6.818   1.028  0.5138 -1.0832 -0.1636
  268MOL0     H36178  11.411   6.657   0.943 -0.0087 -2.4900  0.9547
  268MOL0     H36179  11.250   6.605   0.882 -1.5229  2.8642 -3.4456
  268MOL0     H36180  11.380   6.612   0.767 -2.2324  1.4711 -0.6875
  269MOL0     O36181   6.889   9.261   8.451  0.3326 -0.1171  0.6763
  269MOL0     C36182   6.861   9.346   8.358  0.4338 -0.4352  0.8870
  269MOL0     O36183   6.915   9.481   8.350 -0.0665  1.6370  0.4515
  269MOL0     C36184   7.001   9.519   8.455  0.3100  1.1486 -0.8851
  269MOL0     C36185   7.136   9.560   8.435  0.1363 -1.0164  0.7220
  269MOL0     C36186   7.209   9.593   8.547 -0.8071  0.8437  0.6776
  269MOL0     C36187   7.164   9.589   8.677  0.0700 -1.0062 -0.2300
  269MOL0     O36188   7.259   9.616   8.767 -1.1494 -0.2148  0.5762
  269MOL0     C36189   7.230   9.598   8.904  0.4486 -0.1277  0.4874
  269MOL0     C36190   7.341   9.658   8.982  0.2563 -0.4645  0.5481
  269MOL0     C36191   7.361   9.806   8.949 -0.2941  0.5641  0.0223
  269MOL0     C36192   7.436   9.880   9.055 -0.1334 -0.2478 -0.7963
  269MOL0     C36193   7.454  10.032   9.038 -0.2112 -0.4086 -0.5630
  269MOL0     C36194   7.321  10.111   9.034 -0.0157 -0.2101  0.1346
  269MOL0     C36195   7.344  10.257   9.020 -0.5823 -0.5211 -0.1928
  269MOL0     C36196   7.406  10.323   9.147  0.2318  1.0395  0.4568
  269MOL0     N36197   7.361  10.464   9.167  0.4740 -0.0267 -0.3773
  269MOL0     C36198   7.272  10.497   9.263  0.7041 -0.8193  0.5056
  269MOL0     C36199   7.213  10.611   9.217  0.7978  0.3526 -1.0035
  269MOL0     C36200   7.110  10.694   9.291 -0.4919 -0.8450 -0.1290
  269MOL0     C36201   7.190  10.805   9.379 -0.3856  0.7912 -0.3233
  269MOL0     C36202   7.245  10.750   9.515  0.3188  0.0683 -0.0741
  269MOL0     C36203   7.320  10.856   9.597 -0.3515 -0.1064 -0.5269
  269MOL0     O36204   7.386  10.783   9.699  0.0726  0.1203  0.3143
  269MOL0     C36205   7.420  10.839   9.816 -0.8474 -0.1754 -0.3212
  269MOL0     C36206   7.433  10.761   9.932 -0.6020  0.4750  0.6012
  269MOL0     C36207   7.478  10.807  10.051 -1.3624  1.4877  0.0223
  269MOL0     C36208   7.509  10.938  10.056  1.0381 -0.2870  0.4191
  269MOL0     C36209   7.574  10.984  10.180  0.2333 -0.1715  0.1870
  269MOL0     O36210   7.553  10.904  10.292  0.6160 -0.6453 -0.2332
  269MOL0     C36211   7.635  10.934  10.401 -0.1676 -0.4105  0.8876
  269MOL0     C36212   7.776  10.939  10.397  0.8970 -0.4734  0.1009
  269MOL0     C36213   7.849  10.958  10.512 -0.5384  0.7592  0.2359
  269MOL0     C36214   7.793  10.963  10.634 -0.4973  0.5471 -0.8402
  269MOL0     O36215   7.881  10.973  10.740 -0.0238  0.1188 -0.3392
  269MOL0     C36216   7.824  10.970  10.869 -0.4336  0.7492  0.0152
  269MOL0     C36217   7.927  10.923  10.977 -0.0510  0.4682  0.1974
  269MOL0     C36218   8.056  11.014  10.984  0.7678  0.3554 -0.0500
  269MOL0     C36219   8.014  11.163  10.999  0.0676 -0.3967 -0.7346
  269MOL0     C36220   8.139  11.244  11.015 -0.5287  0.3134 -0.4140
  269MOL0     C36221   8.191  11.296  10.875  0.2125  1.0016 -0.5089
  269MOL0     C36222   8.273  11.198  10.781 -0.1611  0.2194  0.3872
  269MOL0     C36223   8.406  11.149  10.844  0.0173 -0.5708 -0.1502
  269MOL0    Cl36224   8.513  11.302  10.862  0.1365  0.2577 -0.4070
  269MOL0     C36225   7.655  10.976  10.634  0.3596  0.5525  0.6362
  269MOL0     C36226   7.578  10.963  10.521  0.6005  1.1073 -0.0676
  269MOL0     O36227   7.648  11.079  10.165 -0.4648  0.0111 -0.6110
  269MOL0     C36228   7.507  11.022   9.943  0.9150  0.5023 -0.2202
  269MOL0     C36229   7.454  10.969   9.824 -0.5582 -0.3441  0.5513
  269MOL0     N36230   7.253  10.640   9.090 -0.4293  0.3472  0.0611
  269MOL0     N36231   7.349  10.556   9.071 -0.2233  0.2318 -0.5656
  269MOL0     C36232   7.030   9.550   8.705  0.2392  1.6712 -0.1690
  269MOL0     C36233   6.949   9.523   8.589  0.0192 -0.1232 -0.1464
  269MOL0     C36234   6.754   9.320   8.259 -0.6491 -0.0582  0.2671
  269MOL0     C36235   6.629   9.274   8.300  0.0020 -0.2085  0.6858
  269MOL0     C36236   6.525   9.271   8.210  1.1723  0.8495 -0.6280
  269MOL0     C36237   6.539   9.295   8.072 -0.5828 -0.0605 -0.8206
  269MOL0     O36238   6.429   9.268   7.991  0.1782  0.3018  0.3713
  269MOL0     C36239   6.432   9.305   7.842 -0.9026 -0.3030  0.2077
  269MOL0     C36240   6.509   9.195   7.768  0.1182 -0.6153 -0.0207
  269MOL0     C36241   6.462   9.051   7.796  0.3753  0.1383 -1.0733
  269MOL0     C36242   6.395   8.972   7.689  0.3466  0.7561 -0.2530
  269MOL0     C36243   6.266   9.035   7.636 -0.7212 -0.0872 -0.8133
  269MOL0     C36244   6.167   9.097   7.600 -0.2569  0.1099 -0.1815
  269MOL0     C36245   6.670   9.329   8.024 -1.1368 -0.2128 -0.7124
  269MOL0     C36246   6.784   9.333   8.117 -0.2985 -0.3669 -0.5506
  269MOL0     C36247   6.925   9.367   8.068 -0.4232 -0.0492  0.7007
  269MOL0     H36248   7.174   9.556   8.333 -0.2683  2.8795  0.2520
  269MOL0     H36249   7.304   9.642   8.527 -1.4429  1.9856  0.3096
  269MOL0     H36250   7.150   9.664   8.937  2.9791  2.6089  1.5824
  269MOL0     H36251   7.220   9.493   8.933 -0.8080 -0.6532 -1.6583
  269MOL0     H36252   7.431   9.598   8.961  1.4517  1.3271  0.3136
  269MOL0     H36253   7.317   9.658   9.089 -5.0718  1.0743 -0.3656
  269MOL0     H36254   7.261   9.846   8.933  0.1298  1.4055 -0.6368
  269MOL0     H36255   7.414   9.810   8.853  2.0381 -3.4105  0.8889
  269MOL0     H36256   7.375   9.880   9.146 -1.2803 -3.3215 -1.4684
  269MOL0     H36257   7.538   9.844   9.070  0.2657  0.9592 -0.4451
  269MOL0     H36258   7.515  10.066   9.122  1.0562 -5.3313  0.8654
  269MOL0     H36259   7.513  10.053   8.948  0.0217  3.0216  0.2589
  269MOL0     H36260   7.247  10.084   8.958 -1.6538  0.9973  1.2340
  269MOL0     H36261   7.275  10.085   9.130 -0.7515 -0.4359 -0.2700
  269MOL0     H36262   7.241  10.292   9.022 -0.9387 -1.2945 -2.4011
  269MOL0     H36263   7.389  10.275   8.922 -1.5937  0.1500 -0.5405
  269MOL0     H36264   7.398  10.262   9.237  0.4440 -2.4482 -1.7236
  269MOL0     H36265   7.512  10.310   9.127 -0.1567 -2.6621  0.1737
  269MOL0     H36266   7.245  10.458   9.361  0.4272  2.4058  1.8119
  269MOL0     H36267   7.036  10.737   9.222  1.2752 -2.5941 -3.3389
  269MOL0     H36268   7.061  10.624   9.360  1.0020 -0.3892  1.4477
  269MOL0     H36269   7.278  10.852   9.335 -0.0522  0.9743  0.5197
  269MOL0     H36270   7.120  10.886   9.404  0.0302  0.8850  0.5757
  269MOL0     H36271   7.324  10.679   9.489 -2.3195 -2.1684 -2.6946
  269MOL0     H36272   7.165  10.700   9.570 -1.3453  0.6084 -1.9344
  269MOL0     H36273   7.239  10.918   9.638 -3.0970 -1.2655 -3.7347
  269MOL0     H36274   7.392  10.919   9.544 -1.8426  3.0165  0.9044
  269MOL0     H36275   7.411  10.655   9.919 -0.4491  0.7916 -3.3600
  269MOL0     H36276   7.498  10.734  10.128 -0.9456  3.2648  1.6944
  269MOL0     H36277   7.834  10.942  10.305  4.2190 -0.9357  2.0274
  269MOL0     H36278   7.957  10.944  10.505 -0.5673  1.4536 -2.6856
  269MOL0     H36279   7.771  11.062  10.895  1.1633  1.0768  2.4407
  269MOL0     H36280   7.744  10.895  10.868  0.1851  0.0540 -1.7421
  269MOL0     H36281   7.886  10.903  11.077  1.0590  0.7582  0.7271
  269MOL0     H36282   7.955  10.825  10.936 -1.7826 -0.4155  0.9977
  269MOL0     H36283   8.115  10.983  11.071  1.5771 -2.0265 -1.3592
  269MOL0     H36284   8.122  10.991  10.900  0.2151 -1.0878 -0.1298
  269MOL0     H36285   7.950  11.163  11.088  1.7966  0.4605  0.5746
  269MOL0     H36286   7.942  11.185  10.920 -1.6459 -4.9890 -0.7877
  269MOL0     H36287   8.215  11.190  11.073  0.0070  2.1049  0.6562
  269MOL0     H36288   8.128  11.324  11.090  5.0728 -1.2284  2.6552
  269MOL0     H36289   8.104  11.318  10.813 -1.5583 -2.9691  0.2384
  269MOL0     H36290   8.250  11.385  10.895 -0.7585  1.3944  0.7290
  269MOL0     H36291   8.293  11.253  10.688  0.7779 -1.9134 -0.7373
  269MOL0     H36292   8.212  11.111  10.756  0.6033 -0.1493 -0.2288
  269MOL0     H36293   8.389  11.114  10.946 -0.9552  1.7185  0.5324
  269MOL0     H36294   8.459  11.073  10.784  1.9017 -0.3788  1.1892
  269MOL0     H36295   7.599  10.992  10.726 -0.6783 -0.3994  0.1898
  269MOL0     H36296   7.470  10.966  10.522  0.6160  2.0506  0.8751
  269MOL0     H36297   7.556  11.118   9.936 -0.3768  1.1354 -0.9590
  269MOL0     H36298   7.462  11.031   9.735  1.1138 -3.1649 -1.4111
  269MOL0     H36299   6.988   9.558   8.805 -0.3671 -2.9594  0.1700
  269MOL0     H36300   6.846   9.491   8.597  0.7114 -2.6389 -0.1039
  269MOL0     H36301   6.604   9.245   8.402 -1.6428  0.3728  0.4789
  269MOL0     H36302   6.434   9.223   8.242  1.1973  0.4584 -1.1401
  269MOL0     H36303   6.482   9.401   7.826 -1.6909  0.2479  0.9013
  269MOL0     H36304   6.330   9.303   7.802 -0.0433 -1.3352 -2.0591
  269MOL0     H36305   6.617   9.215   7.774 -0.3975  3.3795 -1.1211
  269MOL0     H36306   6.484   9.217   7.663  2.3934  2.8208 -0.0255
  269MOL0     H36307   6.389   9.063   7.877  2.2324  4.6892  0.2160
  269MOL0     H36308   6.550   8.996   7.830  0.2665  1.0716  0.8272
  269MOL0     H36309   6.469   8.943   7.613 -0.6950 -1.0077 -0.6530
  269MOL0     H36310   6.370   8.872   7.725 -0.2874  1.5609  1.6418
  269MOL0     H36311   6.084   9.146   7.552 -0.0405 -0.1053 -0.7963
  269MOL0     H36312   6.691   9.356   7.921  5.0916  2.3252  0.7234
  269MOL0     H36313   6.921   9.366   7.959 -1.3588 -0.5602  0.7275
  269MOL0     H36314   6.959   9.466   8.100 -0.1363 -0.1891  0.8301
  269MOL0     H36315   6.996   9.293   8.105 -1.3432 -0.1449  2.4071
  270MOL0     O36316  10.240  10.152   4.757  0.2629  0.5724 -0.2134
  270MOL0     C36317  10.291  10.043   4.765  0.0304 -0.1560  0.3318
  270MOL0     O36318  10.428  10.018   4.762 -0.4064 -0.7327  0.2807
  270MOL0     C36319  10.509  10.106   4.698  0.2128 -0.1739 -0.1325
  270MOL0     C36320  10.525  10.235   4.728  0.1346 -1.2149 -0.1996
  270MOL0     C36321  10.626  10.300   4.652  0.2660  0.1981  0.4913
  270MOL0     C36322  10.705  10.243   4.552  0.5819 -0.5346  0.3904
  270MOL0     O36323  10.795  10.330   4.493  0.2527 -1.1280 -0.3167
  270MOL0     C36324  10.748  10.448   4.434  0.3894  0.0691  0.2613
  270MOL0     C36325  10.731  10.414   4.289 -0.2563 -0.1060 -0.5787
  270MOL0     C36326  10.667  10.528   4.208  0.3863  0.2350 -0.2932
  270MOL0     C36327  10.668  10.511   4.054  0.0185  0.9700  0.5020
  270MOL0     C36328  10.797  10.536   3.998 -0.9576 -1.2475 -0.7816
  270MOL0     C36329  10.798  10.547   3.847 -0.5758  1.4298 -1.2936
  270MOL0     C36330  10.935  10.599   3.792 -0.2299 -0.2490  0.8849
  270MOL0     C36331  11.059  10.497   3.801 -0.3078  0.7894 -0.1959
  270MOL0     N36332  11.177  10.570   3.766 -0.2684  0.0258  0.1323
  270MOL0     C36333  11.234  10.669   3.847 -0.4383  0.3272 -0.1385
  270MOL0     C36334  11.355  10.693   3.803  1.3119  0.3876  0.1180
  270MOL0     C36335  11.462  10.790   3.850  0.0944 -0.5998  0.0100
  270MOL0     C36336  11.519  10.739   3.983 -0.3358  0.1391 -0.4381
  270MOL0     C36337  11.622  10.845   4.034 -0.5186 -0.0543  0.7350
  270MOL0     C36338  11.751  10.859   3.958 -0.9171  0.1711  0.4110
  270MOL0     O36339  11.815  10.731   3.938  0.4077 -0.1867 -0.2062
  270MOL0     C36340  11.864  10.684   3.813  0.0924  0.5107 -0.0169
  270MOL0     C36341  11.812  10.732   3.689  0.7844 -0.1556 -0.5671
  270MOL0     C36342  11.857  10.682   3.572 -0.0824 -0.5261  1.1424
  270MOL0     C36343  11.951  10.577   3.572 -0.4751  0.6632  0.9218
  270MOL0     C36344  12.000  10.535   3.438 -0.0339 -0.8200 -0.1744
  270MOL0     O36345  12.081  10.422   3.435 -0.5290  1.3507  0.0030
  270MOL0     C36346  12.111  10.361   3.314 -0.5827  0.1177  0.2467
  270MOL0     C36347  12.018  10.349   3.212 -0.3428 -1.0058  0.2989
  270MOL0     C36348  12.040  10.284   3.089 -0.6109  0.5877 -0.2444
  270MOL0     C36349  12.165  10.222   3.070 -0.9875  0.9488 -0.2693
  270MOL0     O36350  12.189  10.144   2.956  0.8068 -0.0299  0.8862
  270MOL0     C36351  12.301  10.059   2.960  0.0110 -0.0550 -0.5050
  270MOL0     C36352  12.295   9.972   2.831  0.3839  1.1438  0.4120
  270MOL0     C36353  12.165   9.882   2.822 -0.9363 -0.2460  0.3297
  270MOL0     C36354  12.151   9.815   2.689 -0.7729  0.4227 -1.1605
  270MOL0     C36355  12.073   9.683   2.701 -0.3569 -0.1007  0.3379
  270MOL0     C36356  11.937   9.698   2.781  0.3553  0.2851  1.2912
  270MOL0     C36357  11.842   9.577   2.752  0.1699 -0.2634 -0.8154
  270MOL0     C36358  11.863   9.463   2.854 -0.0681  0.1916  0.0002
  270MOL0    Cl36359  12.011   9.363   2.793 -0.1230  0.3391  0.2640
  270MOL0     C36360  12.259  10.223   3.180  0.2315  0.2144  0.0304
  270MOL0     C36361  12.233  10.291   3.297  0.2438  0.1568  0.5208
  270MOL0     O36362  11.985  10.615   3.347  0.1995  0.4544 -0.7147
  270MOL0     C36363  12.008  10.530   3.697 -0.6102 -0.0302 -0.4275
  270MOL0     C36364  11.954  10.576   3.814  0.7412  0.4632 -0.1297
  270MOL0     N36365  11.374  10.602   3.701  0.3163 -0.1849 -0.0209
  270MOL0     N36366  11.273  10.520   3.684 -0.4016 -0.2266 -0.1133
  270MOL0     C36367  10.685  10.105   4.529  0.1422 -0.5530 -0.0670
  270MOL0     C36368  10.593  10.042   4.609  0.0993 -0.2321  0.1451
  270MOL0     C36369  10.199   9.926   4.754 -0.1817  1.4014  0.0816
  270MOL0     C36370  10.265   9.799   4.733  0.4064  0.0364  0.3779
  270MOL0     C36371  10.187   9.687   4.719 -0.5862  0.0717  0.0655
  270MOL0     C36372  10.046   9.686   4.720 -1.3481  0.4391 -0.2265
  270MOL0     O36373   9.983   9.560   4.704  0.3557 -0.5324  0.6130
  270MOL0     C36374   9.845   9.544   4.741  1.0121 -0.1110  0.5692
  270MOL0     C36375   9.815   9.397   4.723 -0.4851 -0.0781 -1.0699
  270MOL0     C36376   9.670   9.358   4.770 -0.7667 -0.6117  0.6509
  270MOL0     C36377   9.652   9.204   4.735  0.1645  0.7711 -0.1947
  270MOL0     C36378   9.522   9.172   4.674 -0.2797  0.9291  0.1420
  270MOL0     C36379   9.417   9.129   4.630  0.4639 -0.2971 -1.0391
  270MOL0     C36380   9.982   9.809   4.731 -0.2410 -0.2307  0.3452
  270MOL0     C36381  10.055   9.924   4.750  0.3172  0.2898  0.6431
  270MOL0     C36382   9.969  10.049   4.769 -0.0588  0.0273 -0.9950
  270MOL0     H36383  10.456  10.286   4.795  0.0520  1.5061 -2.1744
  270MOL0     H36384  10.639  10.404   4.679 -1.1442  0.6015 -0.2891
  270MOL0     H36385  10.657  10.488   4.479 -0.0328 -0.8329  0.2274
  270MOL0     H36386  10.827  10.523   4.441  2.1266 -1.6866  0.4820
  270MOL0     H36387  10.674  10.321   4.298 -0.4353  0.0554  0.0064
  270MOL0     H36388  10.823  10.374   4.247 -0.0330 -1.0882  0.7550
  270MOL0     H36389  10.720  10.616   4.244  0.7424  0.8406 -2.1902
  270MOL0     H36390  10.566  10.540   4.248  0.3941  0.6426 -0.3901
  270MOL0     H36391  10.654  10.408   4.020  2.5800  1.1598 -1.3982
  270MOL0     H36392  10.596  10.579   4.008 -0.5282 -1.4009 -2.4538
  270MOL0     H36393  10.842  10.629   4.035  1.2660 -2.5606 -0.0012
  270MOL0     H36394  10.861  10.453   4.029 -2.1356 -1.0450  2.6066
  270MOL0     H36395  10.771  10.455   3.794  1.0124  0.3200 -0.2598
  270MOL0     H36396  10.731  10.631   3.825  0.4777  2.4376 -0.7671
  270MOL0     H36397  10.945  10.697   3.839 -3.5900  0.9481 -0.5899
  270MOL0     H36398  10.917  10.631   3.688  0.8140  1.4016  1.1577
  270MOL0     H36399  11.062  10.454   3.902  0.2597  1.6281  0.1574
  270MOL0     H36400  11.037  10.419   3.727 -3.9702  2.7067 -1.3517
  270MOL0     H36401  11.192  10.696   3.943  0.1087  0.1239  0.1617
  270MOL0     H36402  11.537  10.806   3.771 -0.4700 -0.9761 -0.6134
  270MOL0     H36403  11.430  10.892   3.874  5.7147  1.3453  0.8820
  270MOL0     H36404  11.442  10.736   4.060  0.1201  0.7680  0.0541
  270MOL0     H36405  11.560  10.640   3.961  2.0215  0.9982 -0.2187
  270MOL0     H36406  11.652  10.802   4.130  2.8508  0.2297 -0.0891
  270MOL0     H36407  11.575  10.944   4.038  0.3370  0.6972 -3.2990
  270MOL0     H36408  11.817  10.913   4.027  1.6254 -1.7162 -0.3744
  270MOL0     H36409  11.741  10.915   3.865 -2.7430  0.3301  0.6673
  270MOL0     H36410  11.733  10.807   3.696 -2.2602 -3.2806  4.1656
  270MOL0     H36411  11.834  10.744   3.485  1.9094  2.1252  2.3567
  270MOL0     H36412  11.926  10.407   3.209 -0.4373 -1.1970 -1.4596
  270MOL0     H36413  11.966  10.280   3.009 -1.3475  1.6124  0.3589
  270MOL0     H36414  12.392  10.120   2.961 -0.0056 -0.0202  0.4333
  270MOL0     H36415  12.301   9.989   3.044  0.1043  2.4931  1.7889
  270MOL0     H36416  12.280  10.032   2.740 -0.8469  1.3732  0.7488
  270MOL0     H36417  12.383   9.908   2.819 -1.4411 -2.3426  3.5399
  270MOL0     H36418  12.164   9.811   2.906  1.1861  0.9913  1.4846
  270MOL0     H36419  12.069   9.934   2.832 -2.5616 -2.4774 -2.2195
  270MOL0     H36420  12.248   9.790   2.646  0.0639  1.2174  0.1709
  270MOL0     H36421  12.103   9.882   2.617 -2.2966  1.0322  0.3523
  270MOL0     H36422  12.130   9.602   2.747  2.2044  1.3466 -0.0551
  270MOL0     H36423  12.060   9.643   2.600 -1.7529  0.0617  0.4376
  270MOL0     H36424  11.951   9.716   2.888 -0.0822  1.4645  1.1689
  270MOL0     H36425  11.891   9.789   2.742  1.3674  0.2260 -0.1205
  270MOL0     H36426  11.846   9.533   2.652 -1.8803 -2.2968 -0.0686
  270MOL0     H36427  11.738   9.607   2.766  0.2716 -0.6237  1.0041
  270MOL0     H36428  11.874   9.492   2.958 -0.2270 -1.0660  0.3828
  270MOL0     H36429  11.773   9.402   2.851  0.4308 -0.6471  1.3830
  270MOL0     H36430  12.357  10.176   3.174  0.3575  0.5329 -0.4598
  270MOL0     H36431  12.320  10.290   3.363  0.0906  0.2370  0.7262
  270MOL0     H36432  12.082  10.450   3.696 -1.1852 -0.8761  3.9076
  270MOL0     H36433  11.992  10.529   3.905  0.7160 -1.8984 -1.2576
  270MOL0     H36434  10.737  10.053   4.449  0.9667  0.8929 -0.5203
  270MOL0     H36435  10.577   9.936   4.595  1.2623 -0.2625 -1.0978
  270MOL0     H36436  10.374   9.805   4.736  0.3567  4.8811  1.6528
  270MOL0     H36437  10.242   9.596   4.697  2.0164  1.2889  1.1496
  270MOL0     H36438   9.775   9.598   4.677  0.4773 -2.0579 -0.5511
  270MOL0     H36439   9.827   9.581   4.842 -1.6671  0.8667 -0.1852
  270MOL0     H36440   9.879   9.342   4.792 -1.6315 -0.3231 -0.1678
  270MOL0     H36441   9.834   9.371   4.619  1.8331 -2.4070 -0.1812
  270MOL0     H36442   9.600   9.416   4.708  0.1005  0.1317  0.3529
  270MOL0     H36443   9.653   9.385   4.874 -0.3843 -0.7799  0.7594
  270MOL0     H36444   9.738   9.173   4.675  0.4489  1.0154  0.0827
  270MOL0     H36445   9.641   9.142   4.824  1.3941 -2.2788 -2.0042
  270MOL0     H36446   9.323   9.089   4.597 -1.4790 -0.0603  3.4408
  270MOL0     H36447   9.875   9.828   4.726 -0.3366 -0.2229  1.8841
  270MOL0     H36448   9.891  10.031   4.843  2.0194  0.3751  1.4133
  270MOL0     H36449  10.018  10.131   4.823 -0.5119 -0.5659  0.3677
  270MOL0     H36450   9.916  10.083   4.680  0.0717  1.9446 -0.3903
  271MOL0     O36451   6.107   0.863   9.939  0.3758 -0.4897  0.4875
  271MOL0     C36452   6.120   0.747   9.980  0.4627  0.5552 -0.1091
  271MOL0     O36453   6.014   0.663   9.986  0.8615 -0.8401 -1.0121
  271MOL0     C36454   5.918   0.682   9.894 -0.0259  0.3334  0.2555
  271MOL0     C36455   5.787   0.667   9.932  0.0470  0.5546 -0.9731
  271MOL0     C36456   5.690   0.680   9.836 -0.1946  0.1595  0.4797
  271MOL0     C36457   5.724   0.708   9.699 -0.1724 -1.0529  0.5523
  271MOL0     O36458   5.638   0.737   9.597 -0.0252 -0.0450  0.3381
  271MOL0     C36459   5.494   0.746   9.620 -0.4722 -0.2430  0.1089
  271MOL0     C36460   5.449   0.868   9.715 -0.0829  0.2842 -0.3307
  271MOL0     C36461   5.298   0.907   9.686  0.0217 -0.1646 -0.0264
  271MOL0     C36462   5.285   0.999   9.558 -0.0599 -0.1129  0.2879
  271MOL0     C36463   5.155   1.095   9.564 -1.3496 -0.2971  0.3157
  271MOL0     C36464   5.152   1.199   9.452 -0.7544 -0.2197 -0.8481
  271MOL0     C36465   5.176   1.142   9.325 -0.9348  0.3402  0.8671
  271MOL0     C36466   5.148   1.244   9.210  0.3690 -0.0575  0.0994
  271MOL0     N36467   5.174   1.198   9.068  0.0588 -0.1016  0.3904
  271MOL0     C36468   5.297   1.186   9.012 -0.6869  0.7423  0.4685
  271MOL0     C36469   5.281   1.115   8.903  0.4612 -0.5024  1.2442
  271MOL0     C36470   5.400   1.062   8.827 -0.2420 -1.0334 -0.6332
  271MOL0     C36471   5.353   0.993   8.696 -0.6349  0.9262  0.4317
  271MOL0     C36472   5.464   0.900   8.627  0.2088  0.0546 -0.3061
  271MOL0     C36473   5.506   0.784   8.724 -0.2957 -0.2988 -0.1436
  271MOL0     O36474   5.599   0.693   8.660 -0.2075 -0.7514  0.0121
  271MOL0     C36475   5.552   0.612   8.560 -0.3150  0.3851 -0.5352
  271MOL0     C36476   5.418   0.574   8.552  0.1039  1.2108  0.5059
  271MOL0     C36477   5.382   0.475   8.457  0.4843  0.6259 -0.4818
  271MOL0     C36478   5.476   0.410   8.374  0.5179  0.6206  0.1016
  271MOL0     C36479   5.435   0.308   8.274  0.2757 -0.3911 -0.2964
  271MOL0     O36480   5.304   0.265   8.281  0.5923 -0.1355 -0.6490
  271MOL0     C36481   5.251   0.189   8.179 -0.3290  0.0676  0.0353
  271MOL0     C36482   5.294   0.055   8.145  0.0276  0.9489 -0.3020
  271MOL0     C36483   5.231  -0.034   8.056  0.2766  0.0010 -0.9373
  271MOL0     C36484   5.117   0.015   7.984 -0.0993 -0.1582 -0.0523
  271MOL0     O36485   5.057  -0.056   7.880  0.2250 -0.1209 -0.2940
  271MOL0     C36486   5.095  -0.017   7.747 -0.3595 -0.5180  0.2914
  271MOL0     C36487   5.112  -0.143   7.672 -0.5942 -0.4293 -1.0609
  271MOL0     C36488   4.988  -0.234   7.684  0.5401  0.9149  1.7925
  271MOL0     C36489   5.027  -0.368   7.606 -0.2103 -0.5721 -0.9254
  271MOL0     C36490   4.933  -0.484   7.641  0.1121 -0.4590 -0.1215
  271MOL0     C36491   4.974  -0.611   7.576  0.0412  0.2699  0.4249
  271MOL0     C36492   4.925  -0.734   7.652 -0.2858  0.2333 -0.2195
  271MOL0     C36493   4.776  -0.739   7.667  0.9409  0.5358 -0.9169
  271MOL0    Cl36494   4.728  -0.684   7.831 -0.0769 -0.3032 -0.4164
  271MOL0     C36495   5.072   0.148   8.016  0.2204  0.2629  0.4849
  271MOL0     C36496   5.150   0.230   8.099  1.0022 -0.3271 -0.5354
  271MOL0     O36497   5.522   0.254   8.202  0.5560 -0.2721 -0.0200
  271MOL0     C36498   5.607   0.447   8.390 -0.6428 -0.4655 -0.3783
  271MOL0     C36499   5.643   0.553   8.481 -0.1706  0.3009 -0.1367
  271MOL0     N36500   5.150   1.092   8.880  0.2333 -0.1257 -0.4762
  271MOL0     N36501   5.081   1.133   8.988  0.0762 -0.1187  0.3340
  271MOL0     C36502   5.858   0.726   9.668 -0.1351 -0.7010 -0.1176
  271MOL0     C36503   5.954   0.705   9.754 -0.9117 -0.5080 -0.4057
  271MOL0     C36504   6.246   0.689  10.015  1.0566 -0.5426 -0.7616
  271MOL0     C36505   6.264   0.546   9.996  0.4884 -0.7293 -0.0510
  271MOL0     C36506   6.383   0.489  10.013 -0.8371  0.3619  0.7457
  271MOL0     C36507   6.498   0.558  10.058  0.4642 -0.4600 -0.8006
  271MOL0     O36508   6.616   0.501  10.075  0.0861  0.0714  0.0780
  271MOL0     C36509   6.637   0.363  10.042 -0.3771  1.0187 -0.0150
  271MOL0     C36510   6.773   0.305  10.112 -0.2264  0.2654 -0.7725
  271MOL0     C36511   6.898   0.382  10.063  0.7167 -0.0719  0.1289
  271MOL0     C36512   7.026   0.327  10.128 -0.0312  0.0005 -0.1917
  271MOL0     C36513   7.044   0.185  10.113  0.4093  0.4217  0.0462
  271MOL0     C36514   7.067   0.063  10.100 -0.4966 -0.0626 -0.1520
  271MOL0     C36515   6.481   0.693  10.098  0.2473  0.1493  0.1917
  271MOL0     C36516   6.354   0.755  10.082  1.3792  0.2600  0.6550
  271MOL0     C36517   6.358   0.905  10.104  0.0454 -0.0371 -0.6998
  271MOL0     H36518   5.756   0.646  10.034  0.6305 -2.3927 -1.3007
  271MOL0     H36519   5.587   0.668   9.868 -0.1373 -1.1251  0.2565
  271MOL0     H36520   5.452   0.773   9.523 -1.2694 -2.3997 -0.2058
  271MOL0     H36521   5.454   0.653   9.662  0.2808 -0.8147 -0.4085
  271MOL0     H36522   5.502   0.960   9.691 -1.5581  1.0101 -0.9073
  271MOL0     H36523   5.469   0.843   9.820  1.0292  2.5248  0.0506
  271MOL0     H36524   5.254   0.950   9.776  0.1997  0.2606 -0.1414
  271MOL0     H36525   5.242   0.816   9.662  1.0403 -0.8961  0.2875
  271MOL0     H36526   5.370   1.067   9.562 -0.2774  0.0907  1.8561
  271MOL0     H36527   5.281   0.938   9.467  0.7474  0.5264 -0.1787
  271MOL0     H36528   5.071   1.028   9.542 -1.6393  0.5051 -1.1673
  271MOL0     H36529   5.145   1.143   9.662  0.6112 -1.4977  1.1489
  271MOL0     H36530   5.055   1.250   9.458 -0.3746  0.4336 -0.0836
  271MOL0     H36531   5.232   1.271   9.471 -0.5800 -0.8825  1.1814
  271MOL0     H36532   5.111   1.057   9.302 -1.4077  1.4644 -2.6098
  271MOL0     H36533   5.282   1.118   9.312 -1.2719 -1.4239  1.1337
  271MOL0     H36534   5.041   1.262   9.224  0.6845 -0.1084  3.2114
  271MOL0     H36535   5.193   1.343   9.217  0.6494 -0.0888 -1.0196
  271MOL0     H36536   5.396   1.208   9.051 -0.8132  0.8543  0.7248
  271MOL0     H36537   5.478   1.134   8.802  1.3804 -3.4641 -3.0769
  271MOL0     H36538   5.438   0.980   8.888  1.1557 -1.4026 -1.9423
  271MOL0     H36539   5.271   0.927   8.724  1.1210 -0.6340  2.1486
  271MOL0     H36540   5.329   1.064   8.616 -1.4135 -1.9447 -2.0653
  271MOL0     H36541   5.555   0.961   8.617  0.1592  0.8421  3.0685
  271MOL0     H36542   5.429   0.860   8.531 -1.6202 -0.9133  0.7138
  271MOL0     H36543   5.428   0.721   8.770  0.0406 -2.0371 -1.8165
  271MOL0     H36544   5.566   0.815   8.809 -0.7040  2.4396 -0.7742
  271MOL0     H36545   5.339   0.624   8.607 -1.3368  0.9384 -1.2285
  271MOL0     H36546   5.277   0.450   8.470  1.5751 -4.0678  1.5465
  271MOL0     H36547   5.378   0.024   8.206  0.8748  4.0648  0.2765
  271MOL0     H36548   5.258  -0.139   8.056 -0.6806 -0.3015  1.0570
  271MOL0     H36549   5.013   0.042   7.707  1.1087  1.2151 -0.3140
  271MOL0     H36550   5.182   0.049   7.753 -1.0081  0.4967 -1.0937
  271MOL0     H36551   5.143  -0.126   7.568  1.7976 -2.0780 -0.6971
  271MOL0     H36552   5.200  -0.189   7.717  0.3075  0.0219 -2.3021
  271MOL0     H36553   4.953  -0.252   7.786 -1.5372 -1.8623  0.7041
  271MOL0     H36554   4.902  -0.196   7.629  0.0232  1.4073  2.9125
  271MOL0     H36555   5.135  -0.383   7.617  0.3835  2.3418 -1.9175
  271MOL0     H36556   5.009  -0.343   7.501  0.3509  0.2413 -0.8355
  271MOL0     H36557   4.829  -0.457   7.617  0.5759  2.0285  0.3286
  271MOL0     H36558   4.936  -0.487   7.751  3.2344  0.4822 -0.0823
  271MOL0     H36559   4.941  -0.599   7.473 -0.4832  1.5037  0.7150
  271MOL0     H36560   5.083  -0.622   7.569 -0.1338 -2.0197  0.3868
  271MOL0     H36561   4.966  -0.727   7.753 -1.2012  1.5970  0.0856
  271MOL0     H36562   4.957  -0.825   7.601 -1.4096 -1.9243  2.6410
  271MOL0     H36563   4.727  -0.693   7.581  0.8438 -1.7018 -2.1380
  271MOL0     H36564   4.752  -0.845   7.667  3.6546 -0.3021  3.2643
  271MOL0     H36565   4.995   0.180   7.946  4.3556  1.2531 -4.1854
  271MOL0     H36566   5.123   0.336   8.103 -3.0912 -1.0948 -2.5563
  271MOL0     H36567   5.690   0.421   8.325  1.6771 -1.6396  2.8022
  271MOL0     H36568   5.741   0.596   8.499 -0.7350  1.5698 -0.0513
  271MOL0     H36569   5.881   0.743   9.563 -0.4892  0.8811  0.0403
  271MOL0     H36570   6.056   0.694   9.719 -1.4982  1.3942 -2.9748
  271MOL0     H36571   6.179   0.492   9.956 -0.5684  0.0207  1.0979
  271MOL0     H36572   6.384   0.384   9.986 -4.0587  0.2710  0.5888
  271MOL0     H36573   6.643   0.341   9.935  0.1628  0.9122  0.0337
  271MOL0     H36574   6.551   0.308  10.082 -0.6787  1.3064 -0.2618
  271MOL0     H36575   6.792   0.201  10.087  0.6555  0.7732 -2.3499
  271MOL0     H36576   6.768   0.315  10.221  2.5365 -3.4309 -0.1102
  271MOL0     H36577   6.888   0.487  10.091  1.2013  0.5230 -1.7700
  271MOL0     H36578   6.908   0.379   9.954 -0.1259 -3.2010  0.0355
  271MOL0     H36579   7.111   0.372  10.075  1.4689 -1.9290  0.4314
  271MOL0     H36580   7.028   0.343  10.236 -2.8691 -1.8005  0.2229
  271MOL0     H36581   7.062  -0.042  10.079 -1.0933 -0.1360  0.3132
  271MOL0     H36582   6.554   0.758  10.146 -3.0151  3.3430  1.2439
  271MOL0     H36583   6.452   0.937  10.150 -0.0141 -1.0467  0.1743
  271MOL0     H36584   6.324   0.961  10.016 -2.4130 -1.0012 -0.4566
  271MOL0     H36585   6.284   0.922  10.183  3.2175  0.3767  2.4023
  272MOL0     O36586   2.962  10.520   0.511  0.4005 -0.6755  0.2730
  272MOL0     C36587   2.862  10.483   0.451 -0.1785  0.5292 -0.3092
  272MOL0     O36588   2.798  10.561   0.365  0.0549  0.3390  0.1269
  272MOL0     C36589   2.813  10.699   0.369 -0.2653 -0.7628  0.1508
  272MOL0     C36590   2.882  10.759   0.269 -0.4104 -0.5293 -0.4652
  272MOL0     C36591   2.893  10.897   0.265  0.2867  0.2294  0.3396
  272MOL0     C36592   2.837  10.974   0.376  0.0593 -0.3850  0.9960
  272MOL0     O36593   2.850  11.099   0.402 -0.0924 -0.2916 -0.2305
  272MOL0     C36594   2.871  11.173   0.281 -0.0673  0.3971  0.3036
  272MOL0     C36595   2.842  11.321   0.298  0.7491 -0.6369 -0.5537
  272MOL0     C36596   2.929  11.390   0.395  0.0354  0.2854 -0.4124
  272MOL0     C36597   2.872  11.528   0.427  0.4341  0.1237 -0.5641
  272MOL0     C36598   2.737  11.520   0.506  0.3067 -0.3035 -0.1548
  272MOL0     C36599   2.700  11.655   0.568  0.8984 -0.0108  0.9420
  272MOL0     C36600   2.791  11.699   0.690 -0.0961  0.4737 -0.5348
  272MOL0     C36601   2.706  11.705   0.814 -0.0108  0.3399  0.2991
  272MOL0     N36602   2.777  11.792   0.910 -0.6361 -0.0263  0.0576
  272MOL0     C36603   2.778  11.927   0.910 -0.8096  0.5085  0.0099
  272MOL0     C36604   2.832  11.967   1.030 -0.4649  0.1319  0.1873
  272MOL0     C36605   2.859  12.115   1.067  0.3571 -0.5841  0.3856
  272MOL0     C36606   2.916  12.196   0.950  0.0888  0.3701  0.1045
  272MOL0     C36607   2.963  12.331   1.006  0.9238  0.6006  1.3981
  272MOL0     C36608   3.039  12.415   0.900 -0.1318  0.9564 -0.3650
  272MOL0     O36609   2.958  12.442   0.788  1.1361  0.0422  0.8301
  272MOL0     C36610   2.997  12.550   0.710  0.9923 -0.0767  0.0075
  272MOL0     C36611   3.127  12.599   0.709 -0.4014  0.3267  0.0612
  272MOL0     C36612   3.164  12.696   0.612  0.3914 -0.2562 -0.3283
  272MOL0     C36613   3.078  12.731   0.509  0.0909  0.6275 -0.8516
  272MOL0     C36614   3.141  12.806   0.399 -0.1537  0.5610  0.1962
  272MOL0     O36615   3.272  12.826   0.407 -0.6161 -0.7500 -0.4646
  272MOL0     C36616   3.328  12.885   0.297  0.2459  0.0360  0.2298
  272MOL0     C36617   3.389  12.813   0.195 -0.8158 -0.4413  0.6792
  272MOL0     C36618   3.467  12.877   0.092  0.1080 -0.1431  0.2675
  272MOL0     C36619   3.463  13.015   0.083  0.4461  1.2396 -0.2012
  272MOL0     O36620   3.501  13.080  -0.032 -0.7930  0.3134  0.3462
  272MOL0     C36621   3.640  13.115  -0.039 -0.7427  1.0077 -1.3040
  272MOL0     C36622   3.643  13.230  -0.134 -0.6064 -0.0343 -0.1095
  272MOL0     C36623   3.762  13.237  -0.228 -1.0062  0.0618  0.3811
  272MOL0     C36624   3.735  13.321  -0.352  0.8002  0.4141 -0.4784
  272MOL0     C36625   3.845  13.288  -0.461 -0.0603  0.5102 -0.2153
  272MOL0     C36626   3.831  13.144  -0.528 -0.4333  0.3475 -0.3662
  272MOL0     C36627   3.792  13.155  -0.675  0.8239  0.8397 -0.1689
  272MOL0     C36628   3.899  13.195  -0.778 -0.0443 -0.7952 -0.7129
  272MOL0    Cl36629   3.818  13.229  -0.927 -0.4172  0.0285 -0.0645
  272MOL0     C36630   3.410  13.093   0.189 -0.4699  0.4686  0.2111
  272MOL0     C36631   3.340  13.024   0.298  0.1055  0.3271 -0.7857
  272MOL0     O36632   3.068  12.841   0.306  0.4205  0.0650 -0.3134
  272MOL0     C36633   2.950  12.667   0.508  0.0103  0.1504  0.8030
  272MOL0     C36634   2.900  12.589   0.611 -0.3743  0.2494  0.2055
  272MOL0     N36635   2.878  11.855   1.094 -0.7272  0.7516  0.7487
  272MOL0     N36636   2.843  11.756   1.024  0.3531  0.4413 -0.8579
  272MOL0     C36637   2.776  10.913   0.477  0.9521  0.1106 -0.5401
  272MOL0     C36638   2.750  10.776   0.463  0.1502 -0.6748 -0.5306
  272MOL0     C36639   2.804  10.348   0.478 -0.3765 -0.2452 -0.1633
  272MOL0     C36640   2.718  10.292   0.380 -0.6124  0.5535  0.9559
  272MOL0     C36641   2.642  10.175   0.397 -0.5180 -0.6948  0.2239
  272MOL0     C36642   2.651  10.113   0.525  0.8848 -0.3322 -0.1159
  272MOL0     O36643   2.577   9.995   0.536  0.0664  0.0079 -0.2701
  272MOL0     C36644   2.572   9.928   0.667 -0.3776  0.3302 -0.4871
  272MOL0     C36645   2.691   9.833   0.675  0.5050 -0.7052 -0.2721
  272MOL0     C36646   2.753   9.832   0.823  0.0245  0.2559 -0.6649
  272MOL0     C36647   2.804   9.697   0.864 -0.5728  0.3697  0.4910
  272MOL0     C36648   2.889   9.692   0.979 -0.4809  0.5827  0.5213
  272MOL0     C36649   2.948   9.686   1.086 -0.6330  0.2244 -0.4204
  272MOL0     C36650   2.740  10.163   0.626 -0.1954  0.7130 -0.2998
  272MOL0     C36651   2.813  10.279   0.604 -0.3154 -1.1373 -0.5565
  272MOL0     C36652   2.921  10.329   0.715 -0.7085  0.7681  0.1411
  272MOL0     H36653   2.936  10.711   0.188 -1.4062 -1.3651 -0.6581
  272MOL0     H36654   2.939  10.952   0.183 -2.7524  2.2726 -0.1553
  272MOL0     H36655   2.974  11.144   0.260 -0.6621 -1.5734 -0.1292
  272MOL0     H36656   2.802  11.137   0.204 -0.6302  2.4413 -0.1998
  272MOL0     H36657   2.735  11.335   0.320  1.6054  0.2425  4.0924
  272MOL0     H36658   2.870  11.367   0.203 -1.6487 -1.1281 -1.5932
  272MOL0     H36659   3.031  11.393   0.355  1.0766 -2.2595  1.7699
  272MOL0     H36660   2.936  11.334   0.489  0.4156  2.3881  0.8811
  272MOL0     H36661   2.947  11.589   0.478 -0.9927 -0.7829  2.8844
  272MOL0     H36662   2.864  11.572   0.327  2.7186  2.8920  0.3288
  272MOL0     H36663   2.652  11.504   0.440 -1.3651  3.8499  0.6635
  272MOL0     H36664   2.751  11.446   0.586  2.7574 -0.3564 -0.5584
  272MOL0     H36665   2.705  11.732   0.490  1.0097  0.8137  1.7341
  272MOL0     H36666   2.600  11.642   0.610  0.2643  1.8374  0.0996
  272MOL0     H36667   2.835  11.797   0.673  0.1468  0.6500  0.9535
  272MOL0     H36668   2.874  11.630   0.707 -0.1003  0.5430 -0.2186
  272MOL0     H36669   2.607  11.745   0.792  0.3136  0.1825 -1.5600
  272MOL0     H36670   2.704  11.606   0.860 -1.0560  0.0914 -0.2752
  272MOL0     H36671   2.732  11.992   0.836  2.5068 -0.3154 -3.0553
  272MOL0     H36672   2.762  12.162   1.089  0.7883  1.2585 -1.3225
  272MOL0     H36673   2.931  12.126   1.149  1.8266  0.7644 -0.9997
  272MOL0     H36674   3.007  12.142   0.921  1.0122  1.3882  1.0008
  272MOL0     H36675   2.853  12.215   0.863 -0.6830  0.4394  0.6705
  272MOL0     H36676   3.033  12.327   1.091  1.9256 -0.0599  0.5640
  272MOL0     H36677   2.874  12.381   1.044  0.2537  0.2037  0.3667
  272MOL0     H36678   3.123  12.353   0.867 -3.5971 -2.6581 -3.4533
  272MOL0     H36679   3.078  12.504   0.951 -1.2907 -0.2169  2.8692
  272MOL0     H36680   3.210  12.559   0.767 -0.4808 -1.2338 -0.8385
  272MOL0     H36681   3.269  12.721   0.619  0.3766 -0.5448  2.2246
  272MOL0     H36682   3.389  12.704   0.202  3.0905 -0.4945  2.4801
  272MOL0     H36683   3.533  12.827   0.022 -1.0887  0.9032 -1.7004
  272MOL0     H36684   3.680  13.148   0.057 -0.2109  1.0835 -1.5459
  272MOL0     H36685   3.685  13.018  -0.061 -0.8421 -0.2173  3.0879
  272MOL0     H36686   3.553  13.224  -0.196 -1.2186  0.2386  0.7388
  272MOL0     H36687   3.628  13.323  -0.079 -1.9109  0.3198 -1.0081
  272MOL0     H36688   3.849  13.279  -0.178 -0.6671  0.3180 -0.4130
  272MOL0     H36689   3.802  13.137  -0.248 -0.9676 -0.6310  3.4367
  272MOL0     H36690   3.727  13.429  -0.337  0.0314  0.2440  0.4351
  272MOL0     H36691   3.635  13.292  -0.386  0.6576  0.8838 -0.4671
  272MOL0     H36692   3.945  13.305  -0.420 -0.4751 -1.9171  2.0795
  272MOL0     H36693   3.833  13.359  -0.543 -0.0685  0.2204 -0.4652
  272MOL0     H36694   3.922  13.084  -0.522 -1.3012 -0.8070  2.9976
  272MOL0     H36695   3.744  13.086  -0.496  0.4525 -0.1486  1.2832
  272MOL0     H36696   3.719  13.235  -0.689 -2.7703 -1.9093  1.3371
  272MOL0     H36697   3.738  13.067  -0.709 -2.7084  1.0366  4.0945
  272MOL0     H36698   3.958  13.283  -0.752  1.3023 -0.8326 -3.3600
  272MOL0     H36699   3.970  13.118  -0.808  0.3443 -0.4717 -0.6265
  272MOL0     H36700   3.413  13.201   0.180  2.5198  0.6804  2.3934
  272MOL0     H36701   3.299  13.073   0.386 -0.3355 -1.3995  0.0140
  272MOL0     H36702   2.891  12.688   0.419  0.7901 -2.2805 -0.3982
  272MOL0     H36703   2.801  12.544   0.618  0.3956 -1.5830 -0.3844
  272MOL0     H36704   2.744  10.977   0.559  4.6476  2.2310 -0.5028
  272MOL0     H36705   2.687  10.732   0.539 -1.3989  1.6892 -0.3505
  272MOL0     H36706   2.712  10.360   0.295 -3.0246  1.5031  1.8130
  272MOL0     H36707   2.572  10.146   0.320  0.4572  0.5013 -1.1640
  272MOL0     H36708   2.477   9.875   0.680 -0.1397  0.0643  0.2265
  272MOL0     H36709   2.573   9.997   0.752  0.3174  1.3753 -1.3195
  272MOL0     H36710   2.771   9.871   0.611  0.7816  0.2890  0.6467
  272MOL0     H36711   2.655   9.732   0.653 -1.3603 -0.5109  1.5690
  272MOL0     H36712   2.687   9.858   0.906  3.1016 -1.8830  2.7786
  272MOL0     H36713   2.828   9.911   0.833  1.2521 -1.0142  0.6772
  272MOL0     H36714   2.722   9.626   0.875  0.7828 -0.9098  3.2268
  272MOL0     H36715   2.862   9.668   0.776 -4.0265  1.5275 -2.3907
  272MOL0     H36716   2.991   9.681   1.184 -0.6359 -0.4824 -0.4465
  272MOL0     H36717   2.755  10.120   0.724  1.0017  1.8021  0.0226
  272MOL0     H36718   3.022  10.331   0.673 -0.7124  0.7927  0.1326
  272MOL0     H36719   2.899  10.425   0.762 -0.6726  1.0592 -0.4229
  272MOL0     H36720   2.923  10.258   0.798  2.5461  1.1420  0.5150
  273MOL0     O36721   7.914   8.552   3.457  0.9059 -0.3938  0.2943
  273MOL0     C36722   7.964   8.626   3.542 -0.0627 -0.5352  0.2347
  273MOL0     O36723   7.900   8.672   3.659  0.3415  0.7640 -0.1240
  273MOL0     C36724   7.779   8.606   3.685  0.6748 -0.0328 -0.1169
  273MOL0     C36725   7.670   8.634   3.610 -0.1527  0.2526  0.7113
  273MOL0     C36726   7.550   8.568   3.630  0.2297 -0.0350  0.8707
  273MOL0     C36727   7.537   8.479   3.735  0.5486 -0.0714  0.9277
  273MOL0     O36728   7.416   8.419   3.748 -0.0395  0.5340  0.6045
  273MOL0     C36729   7.368   8.415   3.884  0.9762  0.5044 -0.0509
  273MOL0     C36730   7.234   8.478   3.888  0.2380 -0.3190 -0.4630
  273MOL0     C36731   7.142   8.395   3.795  0.6329 -0.2808 -0.4655
  273MOL0     C36732   7.010   8.464   3.792  0.2373 -0.6359 -0.3146
  273MOL0     C36733   6.898   8.393   3.713 -1.2187  0.2321  0.3013
  273MOL0     C36734   6.759   8.457   3.741  1.2671 -0.7835  0.1445
  273MOL0     C36735   6.654   8.388   3.655  0.1423  0.9147 -0.1566
  273MOL0     C36736   6.511   8.419   3.708 -0.5041  0.5633  0.0699
  273MOL0     N36737   6.404   8.362   3.620 -0.2842 -0.0207  0.7027
  273MOL0     C36738   6.364   8.417   3.505  0.1298  0.3791 -0.0577
  273MOL0     C36739   6.258   8.340   3.465  0.6215 -0.2730 -0.6525
  273MOL0     C36740   6.155   8.387   3.351 -1.0305  0.1705 -0.7826
  273MOL0     C36741   6.026   8.305   3.356  0.7158  0.4078 -0.1518
  273MOL0     C36742   5.943   8.334   3.484  0.3027 -0.7235 -0.4791
  273MOL0     C36743   5.831   8.240   3.524  0.2259 -1.5644 -0.2643
  273MOL0     O36744   5.751   8.205   3.406 -0.4866 -0.7824  0.5231
  273MOL0     C36745   5.628   8.272   3.400 -0.6216  0.5595  0.2824
  273MOL0     C36746   5.506   8.204   3.412 -0.0552 -1.0800  0.0329
  273MOL0     C36747   5.384   8.276   3.404 -0.0288  0.4489 -0.4019
  273MOL0     C36748   5.381   8.409   3.380 -1.4015  0.3671 -0.2647
  273MOL0     C36749   5.255   8.485   3.366 -0.3552  0.2530 -0.3280
  273MOL0     O36750   5.125   8.433   3.347  0.1728 -0.8753  0.7634
  273MOL0     C36751   5.017   8.513   3.367  0.2631 -0.7277  0.1165
  273MOL0     C36752   4.946   8.505   3.484 -0.2522  0.1060 -0.5915
  273MOL0     C36753   4.837   8.585   3.494  0.4767  0.5453 -0.4238
  273MOL0     C36754   4.808   8.684   3.402  1.0130 -0.9119  0.5276
  273MOL0     O36755   4.704   8.766   3.422  0.7074  0.2979  0.4741
  273MOL0     C36756   4.713   8.833   3.544 -0.4438  0.4864 -0.4415
  273MOL0     C36757   4.620   8.950   3.559 -0.1020  0.0020 -0.3706
  273MOL0     C36758   4.614   9.040   3.441 -0.6225  0.1303  0.8886
  273MOL0     C36759   4.663   9.181   3.477  1.1775  0.2770 -1.2718
  273MOL0     C36760   4.655   9.288   3.368  0.0137 -0.2640 -0.0571
  273MOL0     C36761   4.769   9.295   3.272  0.7584  0.2036  0.5105
  273MOL0     C36762   4.773   9.409   3.168 -0.0998 -0.5518  0.6057
  273MOL0     C36763   4.899   9.401   3.079 -0.1011 -0.1364 -0.0792
  273MOL0    Cl36764   4.893   9.542   2.975 -0.4720  0.4893  0.3181
  273MOL0     C36765   4.880   8.697   3.285  0.4100  0.2389  0.5313
  273MOL0     C36766   4.988   8.612   3.267 -0.0221 -0.2784 -0.1062
  273MOL0     O36767   5.279   8.605   3.368  2.0434 -0.0140  0.2686
  273MOL0     C36768   5.501   8.482   3.361 -0.2588  0.7450 -0.7457
  273MOL0     C36769   5.619   8.408   3.370 -0.5327 -0.1455  0.9294
  273MOL0     N36770   6.250   8.233   3.549  0.1402  0.6791 -0.0743
  273MOL0     N36771   6.351   8.238   3.624  0.2958 -0.1742  0.1530
  273MOL0     C36772   7.651   8.432   3.802 -1.2828  0.3121  0.2519
  273MOL0     C36773   7.773   8.500   3.779  0.1383  0.1404  0.5773
  273MOL0     C36774   8.109   8.667   3.518 -0.0734  0.8449 -0.5939
  273MOL0     C36775   8.142   8.793   3.575 -0.2052  0.2934 -0.0005
  273MOL0     C36776   8.270   8.842   3.566 -0.9900  0.1123 -0.4403
  273MOL0     C36777   8.369   8.771   3.500  0.2564  0.8871  0.4722
  273MOL0     O36778   8.502   8.813   3.500  0.2536 -0.1530  0.2151
  273MOL0     C36779   8.543   8.936   3.562 -0.5859 -0.0243  0.3709
  273MOL0     C36780   8.702   8.940   3.574 -0.2634 -0.1847  0.6766
  273MOL0     C36781   8.753   9.072   3.619  1.0541 -0.6494 -0.2154
  273MOL0     C36782   8.892   9.075   3.681 -0.2378  0.1415 -0.5796
  273MOL0     C36783   8.958   9.207   3.692  0.0645 -0.0037 -0.4755
  273MOL0     C36784   9.023   9.309   3.711  0.3876 -0.1791  0.4474
  273MOL0     C36785   8.343   8.647   3.433  1.5909  0.2086  0.0566
  273MOL0     C36786   8.203   8.602   3.431 -1.0334  0.6599 -0.0462
  273MOL0     C36787   8.165   8.480   3.354 -0.3051 -0.2115  0.8959
  273MOL0     H36788   7.683   8.709   3.532  0.3592 -1.2999 -0.7554
  273MOL0     H36789   7.460   8.581   3.571  0.3859 -2.1182  0.0934
  273MOL0     H36790   7.358   8.309   3.912  0.8115  0.6008  0.2576
  273MOL0     H36791   7.440   8.459   3.954 -0.2905 -1.5280  2.7102
  273MOL0     H36792   7.245   8.583   3.857 -1.8429  0.0699 -0.0663
  273MOL0     H36793   7.218   8.477   3.996 -1.7798  0.8129 -0.6875
  273MOL0     H36794   7.121   8.301   3.845  0.9200  0.9285  2.0855
  273MOL0     H36795   7.181   8.403   3.693  2.6808  3.8317  0.4147
  273MOL0     H36796   6.979   8.503   3.889 -0.5638  2.5800 -1.7009
  273MOL0     H36797   7.031   8.554   3.733 -0.3604 -2.3851 -3.4700
  273MOL0     H36798   6.931   8.397   3.609 -1.1480  1.3391  0.3513
  273MOL0     H36799   6.890   8.286   3.733  0.6645  0.0181  0.0814
  273MOL0     H36800   6.734   8.440   3.846 -1.5910  1.8106  0.0142
  273MOL0     H36801   6.742   8.563   3.721 -0.9889 -0.6499  2.2885
  273MOL0     H36802   6.678   8.281   3.659 -0.4516  0.8125  2.0933
  273MOL0     H36803   6.646   8.408   3.548 -2.0757 -2.5227 -0.8047
  273MOL0     H36804   6.502   8.385   3.812 -0.9612  0.8961  0.1437
  273MOL0     H36805   6.490   8.526   3.706  1.9797  1.1046  0.3481
  273MOL0     H36806   6.408   8.498   3.449 -2.3087  1.2490 -0.8454
  273MOL0     H36807   6.151   8.496   3.359  0.1678  0.1397  0.6916
  273MOL0     H36808   6.195   8.359   3.253  1.2616  0.6268 -0.0536
  273MOL0     H36809   5.956   8.323   3.274  0.5374  0.2827 -0.0276
  273MOL0     H36810   6.061   8.202   3.357 -1.0544 -0.2433  1.9672
  273MOL0     H36811   5.896   8.430   3.463 -0.3080 -0.6055  1.2823
  273MOL0     H36812   6.010   8.360   3.566 -0.5603  2.2138 -0.5811
  273MOL0     H36813   5.771   8.291   3.599  0.6856 -0.3079 -0.7220
  273MOL0     H36814   5.880   8.152   3.566 -1.5321 -0.8017  3.7746
  273MOL0     H36815   5.497   8.099   3.437  0.2717 -2.0539 -3.3246
  273MOL0     H36816   5.290   8.231   3.431 -1.5021  2.0279 -2.6088
  273MOL0     H36817   4.981   8.442   3.565  0.2711 -0.0858 -0.9624
  273MOL0     H36818   4.780   8.574   3.585 -0.5688  0.3626 -1.0856
  273MOL0     H36819   4.686   8.762   3.623  1.6922 -0.6503 -0.6546
  273MOL0     H36820   4.814   8.857   3.581 -0.1953 -0.6644 -0.3507
  273MOL0     H36821   4.519   8.911   3.574 -0.4446  0.3821 -1.6204
  273MOL0     H36822   4.643   9.003   3.652 -1.1371  0.6047 -0.4463
  273MOL0     H36823   4.699   9.012   3.377 -0.8156  1.8716 -0.2144
  273MOL0     H36824   4.519   9.035   3.387  0.1117 -1.2442 -0.3425
  273MOL0     H36825   4.765   9.181   3.516  1.8746  0.0491 -3.0153
  273MOL0     H36826   4.593   9.214   3.555 -0.2178 -3.2325 -0.8873
  273MOL0     H36827   4.645   9.385   3.418  1.5884 -0.5434  0.8660
  273MOL0     H36828   4.566   9.274   3.305  0.4120  1.8964 -1.1842
  273MOL0     H36829   4.846   9.319   3.346  0.3481  2.0281  0.3946
  273MOL0     H36830   4.785   9.195   3.229 -1.3203 -0.0710  0.2981
  273MOL0     H36831   4.793   9.507   3.213 -1.9747  1.1832 -2.0484
  273MOL0     H36832   4.684   9.402   3.106  0.0795 -1.7746  0.4687
  273MOL0     H36833   4.989   9.409   3.139  1.8607 -1.2714 -2.6398
  273MOL0     H36834   4.908   9.312   3.015 -2.2365 -0.5538  0.1162
  273MOL0     H36835   4.865   8.761   3.198 -0.8412 -0.5598  0.1402
  273MOL0     H36836   5.044   8.621   3.174 -1.2977  2.6447 -0.7246
  273MOL0     H36837   5.508   8.585   3.328 -0.3677  0.9159 -0.2529
  273MOL0     H36838   5.709   8.463   3.346 -0.6641 -0.0228  0.7197
  273MOL0     H36839   7.652   8.344   3.866  0.0510  1.0819  1.3189
  273MOL0     H36840   7.866   8.471   3.826 -0.2381 -1.4320  0.4229
  273MOL0     H36841   8.069   8.849   3.632 -1.0275  0.2382 -0.9777
  273MOL0     H36842   8.285   8.930   3.627  1.1610  0.3460 -1.2015
  273MOL0     H36843   8.513   8.931   3.668  1.2100 -0.7496  0.8800
  273MOL0     H36844   8.498   9.022   3.510 -1.9006  0.0036  1.4876
  273MOL0     H36845   8.731   8.928   3.469 -0.0771  0.2519  0.6784
  273MOL0     H36846   8.749   8.862   3.635  1.7923  0.4173 -0.0914
  273MOL0     H36847   8.693   9.114   3.700 -0.0305 -0.8458 -0.8979
  273MOL0     H36848   8.737   9.140   3.535  2.5710 -0.0429 -0.0492
  273MOL0     H36849   8.895   9.037   3.783 -0.4840  3.4523  0.7575
  273MOL0     H36850   8.957   9.002   3.630 -4.7556 -2.8869 -2.6658
  273MOL0     H36851   9.083   9.397   3.725  0.5787 -0.1572 -0.4750
  273MOL0     H36852   8.424   8.604   3.376 -0.0963 -1.4360 -1.2687
  273MOL0     H36853   8.249   8.424   3.313  0.9114 -0.2047  3.1922
  273MOL0     H36854   8.117   8.404   3.417 -1.2887 -1.2588 -1.0380
  273MOL0     H36855   8.103   8.504   3.267  0.6425 -0.6666  0.0820
  274MOL0     O36856   6.156  10.878   2.395 -0.0819 -0.4914  0.5880
  274MOL0     C36857   6.179  10.859   2.518 -0.8363  0.6995 -0.4383
  274MOL0     O36858   6.301  10.877   2.583  0.5555 -0.0785  0.2316
  274MOL0     C36859   6.420  10.918   2.520  0.1296  0.2340  0.0689
  274MOL0     C36860   6.433  10.998   2.404 -0.0539  0.2066  1.2314
  274MOL0     C36861   6.562  11.032   2.360  1.3815 -1.0174 -0.8034
  274MOL0     C36862   6.678  10.994   2.423 -0.9054 -0.0010 -0.4163
  274MOL0     O36863   6.799  11.015   2.362  0.7408  0.0960  0.3752
  274MOL0     C36864   6.921  11.007   2.442  0.2497  0.0094  0.4197
  274MOL0     C36865   7.033  11.076   2.367 -0.5569 -0.5949 -0.5052
  274MOL0     C36866   7.136  10.971   2.301  0.3617 -0.2460 -0.4268
  274MOL0     C36867   7.282  11.006   2.332 -0.9246 -0.7290  0.7948
  274MOL0     C36868   7.369  10.958   2.226  0.3105 -0.3146 -0.4794
  274MOL0     C36869   7.360  11.066   2.110 -0.4703 -0.7692 -0.3963
  274MOL0     C36870   7.452  11.028   1.988  0.4011 -0.7824 -0.4616
  274MOL0     C36871   7.411  11.098   1.856  0.0192 -0.0925 -0.0591
  274MOL0     N36872   7.433  11.027   1.735 -0.9936  0.4310 -0.2560
  274MOL0     C36873   7.521  11.047   1.631  0.8650 -0.7279  0.2018
  274MOL0     C36874   7.490  10.964   1.536 -0.5393 -0.4468  0.1836
  274MOL0     C36875   7.564  10.944   1.401 -0.3475 -0.2319 -0.0167
  274MOL0     C36876   7.596  11.077   1.324 -0.7076  0.1742  0.2081
  274MOL0     C36877   7.470  11.131   1.256  0.3941 -0.3672  0.4671
  274MOL0     C36878   7.435  11.078   1.116 -0.2690  0.5001  0.4446
  274MOL0     O36879   7.545  11.116   1.036  0.6063 -0.5926 -0.1797
  274MOL0     C36880   7.535  11.142   0.896 -0.2905 -0.0005 -0.3374
  274MOL0     C36881   7.642  11.216   0.849 -0.5082  0.7813  0.0341
  274MOL0     C36882   7.653  11.227   0.711  0.3690 -0.9281 -0.0495
  274MOL0     C36883   7.550  11.190   0.621 -0.1520 -0.4111  0.0215
  274MOL0     C36884   7.559  11.206   0.475  0.2237  0.3045  0.4939
  274MOL0     O36885   7.462  11.147   0.393  0.0831  0.8592  0.0629
  274MOL0     C36886   7.468  11.174   0.253 -0.7150  0.0935  0.4015
  274MOL0     C36887   7.444  11.311   0.213 -0.4744  0.0827  0.1209
  274MOL0     C36888   7.462  11.344   0.074  0.5172 -0.0151  0.2584
  274MOL0     C36889   7.501  11.251  -0.021 -0.1552 -0.5678 -0.0388
  274MOL0     O36890   7.523  11.291  -0.150  0.8523 -0.1463 -0.3461
  274MOL0     C36891   7.494  11.193  -0.253 -0.3289  0.6173  0.1374
  274MOL0     C36892   7.491  11.251  -0.390 -0.2373  0.0935 -0.7329
  274MOL0     C36893   7.609  11.330  -0.433  0.1189 -0.2150  0.4778
  274MOL0     C36894   7.614  11.358  -0.589 -0.5200  0.1801 -0.6443
  274MOL0     C36895   7.735  11.447  -0.619  0.7482 -0.0016 -0.8278
  274MOL0     C36896   7.779  11.477  -0.765  0.3691 -0.5161 -0.1097
  274MOL0     C36897   7.829  11.360  -0.843 -0.4720 -0.1709 -0.8313
  274MOL0     C36898   7.930  11.396  -0.946 -0.0699 -0.2456  0.2734
  274MOL0    Cl36899   7.853  11.503  -1.065  0.2485  0.2459  0.2918
  274MOL0     C36900   7.531  11.117   0.029  0.6863 -1.4767  0.2990
  274MOL0     C36901   7.513  11.082   0.162 -0.7248  1.0449  0.2868
  274MOL0     O36902   7.648  11.286   0.434 -0.1145 -0.2303 -0.2022
  274MOL0     C36903   7.439  11.117   0.683  0.0267  0.2193  0.3661
  274MOL0     C36904   7.437  11.093   0.820 -0.0179 -0.3729 -0.4556
  274MOL0     N36905   7.378  10.893   1.573  0.0188  0.2732  0.0034
  274MOL0     N36906   7.344  10.926   1.692  0.3586 -0.4258  0.6020
  274MOL0     C36907   6.661  10.931   2.546 -0.5654 -0.6576 -0.0661
  274MOL0     C36908   6.540  10.890   2.590  0.0269  0.2201 -0.3205
  274MOL0     C36909   6.059  10.823   2.592 -1.1507  0.6220  0.2113
  274MOL0     C36910   6.069  10.842   2.729  0.6562  0.0915  0.3968
  274MOL0     C36911   5.962  10.815   2.820 -0.2724 -0.0214 -0.3682
  274MOL0     C36912   5.838  10.772   2.773 -0.5823  0.2804 -0.7294
  274MOL0     O36913   5.742  10.751   2.864  0.0009  0.4108 -0.1183
  274MOL0     C36914   5.633  10.675   2.818  0.2887 -0.3979  0.3560
  274MOL0     C36915   5.566  10.633   2.954  0.6125 -1.1308  0.0063
  274MOL0     C36916   5.409  10.627   2.948 -0.2135 -0.6335 -0.8940
  274MOL0     C36917   5.358  10.550   3.068 -0.3081 -0.0762 -0.1917
  274MOL0     C36918   5.211  10.547   3.051 -0.1262  0.0843  0.3642
  274MOL0     C36919   5.091  10.532   3.027 -0.9166  0.0798  0.4748
  274MOL0     C36920   5.824  10.756   2.632 -0.6929  0.9307  0.4284
  274MOL0     C36921   5.931  10.789   2.538  0.2924  0.2009  0.5378
  274MOL0     C36922   5.893  10.765   2.394  0.6712  0.1154 -0.3121
  274MOL0     H36923   6.359  11.034   2.333  2.3606 -1.1396 -2.2216
  274MOL0     H36924   6.564  11.071   2.258  0.2099 -0.7090 -0.7236
  274MOL0     H36925   6.903  11.063   2.534 -1.4203  1.6008 -0.7910
  274MOL0     H36926   6.938  10.901   2.463 -2.2567 -1.3747 -3.4867
  274MOL0     H36927   7.085  11.149   2.430 -2.7153  0.7765 -0.1911
  274MOL0     H36928   6.996  11.123   2.275 -1.5260 -1.0095 -0.3410
  274MOL0     H36929   7.122  10.991   2.194  0.2295  0.3563 -0.2964
  274MOL0     H36930   7.113  10.867   2.326 -0.4382  0.3473  1.4625
  274MOL0     H36931   7.283  11.115   2.338  3.0283 -0.6857  1.8858
  274MOL0     H36932   7.319  10.969   2.429  1.7478  0.3417  0.2672
  274MOL0     H36933   7.469  10.960   2.270 -0.5328 -0.5755  1.5515
  274MOL0     H36934   7.338  10.860   2.189  0.9435 -0.4791 -0.5858
  274MOL0     H36935   7.258  11.077   2.070 -1.1612  2.1311  1.8674
  274MOL0     H36936   7.407  11.162   2.134  2.3076 -1.4899 -2.3982
  274MOL0     H36937   7.439  10.919   1.984 -0.0459 -0.9045  2.1988
  274MOL0     H36938   7.552  11.055   2.022 -0.4591  0.7310  1.0260
  274MOL0     H36939   7.305  11.125   1.851 -0.5200 -2.0601 -0.4508
  274MOL0     H36940   7.469  11.190   1.851  0.7434 -0.5897 -3.7852
  274MOL0     H36941   7.600  11.120   1.640  2.9397 -2.9213  0.8142
  274MOL0     H36942   7.652  10.882   1.417 -1.2525 -0.9578  2.6815
  274MOL0     H36943   7.505  10.874   1.341  1.2585 -2.3968  0.7877
  274MOL0     H36944   7.633  11.140   1.406  1.2371 -2.6585  1.6723
  274MOL0     H36945   7.683  11.068   1.259 -0.9227  2.8808 -0.5603
  274MOL0     H36946   7.469  11.237   1.229 -0.6538 -1.0203 -2.4079
  274MOL0     H36947   7.387  11.109   1.323 -0.6168 -1.1329 -0.9900
  274MOL0     H36948   7.348  11.129   1.074 -0.2808 -0.1875 -0.4032
  274MOL0     H36949   7.427  10.969   1.109  2.4565  0.3136 -5.0087
  274MOL0     H36950   7.725  11.251   0.909 -0.2894 -0.4601  0.4841
  274MOL0     H36951   7.736  11.281   0.667 -1.6678  1.5993 -1.0827
  274MOL0     H36952   7.419  11.377   0.295  1.5885 -0.9083  1.6496
  274MOL0     H36953   7.442  11.444   0.038 -0.4819 -0.2951 -0.0089
  274MOL0     H36954   7.581  11.128  -0.241  0.1162  0.7443 -2.0698
  274MOL0     H36955   7.406  11.133  -0.230  0.0094 -0.0046 -0.1595
  274MOL0     H36956   7.478  11.164  -0.455 -1.5812  0.4660 -0.9942
  274MOL0     H36957   7.408  11.320  -0.405 -1.5025 -1.0198  0.7777
  274MOL0     H36958   7.608  11.426  -0.380 -2.4401  1.8415 -2.8633
  274MOL0     H36959   7.701  11.290  -0.390  0.3855  2.4384  2.6580
  274MOL0     H36960   7.525  11.409  -0.626  1.3019  3.1452 -1.3015
  274MOL0     H36961   7.635  11.262  -0.639  0.3638 -0.8505  1.5955
  274MOL0     H36962   7.824  11.409  -0.567 -0.2168  0.8771  1.6053
  274MOL0     H36963   7.723  11.547  -0.575  1.9547 -0.6126  1.0063
  274MOL0     H36964   7.689  11.509  -0.819 -1.8372 -1.3863  2.7785
  274MOL0     H36965   7.855  11.556  -0.760  0.8142 -0.6591 -3.0157
  274MOL0     H36966   7.745  11.311  -0.894 -0.0371 -0.4207 -1.3154
  274MOL0     H36967   7.859  11.282  -0.773 -2.7251  1.0373  1.6887
  274MOL0     H36968   8.016  11.439  -0.894  0.1118 -0.5873  0.2554
  274MOL0     H36969   7.978  11.305  -0.983  1.1498 -0.5094  2.3688
  274MOL0     H36970   7.553  11.049  -0.053 -0.8715 -3.4708  1.4212
  274MOL0     H36971   7.545  10.988   0.207 -2.7757  0.6236  1.0122
  274MOL0     H36972   7.357  11.081   0.621 -0.5713  1.2645  0.5272
  274MOL0     H36973   7.358  11.035   0.868 -0.3246 -2.4854 -3.2836
  274MOL0     H36974   6.742  10.912   2.615 -1.2595  0.1558  1.0014
  274MOL0     H36975   6.518  10.835   2.681  0.6785 -2.2946 -1.6119
  274MOL0     H36976   6.162  10.871   2.778  0.4758  1.3745  0.0151
  274MOL0     H36977   5.981  10.814   2.927 -1.5561 -1.9006 -0.1009
  274MOL0     H36978   5.653  10.589   2.753  0.1815  0.4169 -0.8056
  274MOL0     H36979   5.575  10.744   2.754  0.6724  0.6221  1.0787
  274MOL0     H36980   5.613  10.690   3.035 -0.4857 -0.3668  0.1470
  274MOL0     H36981   5.605  10.534   2.978  1.8559 -0.8304 -0.7048
  274MOL0     H36982   5.371  10.585   2.854 -0.4819  0.7857 -1.4484
  274MOL0     H36983   5.374  10.731   2.956  2.4469  0.1828  3.0433
  274MOL0     H36984   5.410  10.454   3.076  1.4431  0.9851  2.1671
  274MOL0     H36985   5.387  10.597   3.162 -2.4852 -1.3047  1.1593
  274MOL0     H36986   4.985  10.526   3.014 -0.6922 -0.3154 -1.6309
  274MOL0     H36987   5.734  10.716   2.585 -1.0035  0.7440  1.1787
  274MOL0     H36988   5.863  10.858   2.346 -0.4173 -0.9285 -1.7623
  274MOL0     H36989   5.979  10.734   2.335  1.4706  1.5397  0.0735
  274MOL0     H36990   5.808  10.695   2.386  1.6335 -0.9588 -1.4290
  275MOL0     O36991  10.391   8.173   5.792 -0.5987 -0.1320 -0.4252
  275MOL0     C36992  10.455   8.263   5.848  0.0937  0.2944 -0.2165
  275MOL0     O36993  10.546   8.246   5.942  0.0945  0.2466  0.3470
  275MOL0     C36994  10.583   8.120   5.973  0.0410 -0.1947 -0.4475
  275MOL0     C36995  10.700   8.075   5.909  0.4005  0.1602 -0.1624
  275MOL0     C36996  10.751   7.949   5.932  0.9490  0.2222  0.0759
  275MOL0     C36997  10.686   7.856   6.020  0.3454 -0.6079  0.5706
  275MOL0     O36998  10.733   7.729   6.021 -0.5633 -0.0258  0.9391
  275MOL0     C36999  10.649   7.620   5.995 -0.9176 -0.0927  0.1545
  275MOL0     C37000  10.681   7.507   6.092  0.6085  0.8772  0.2045
  275MOL0     C37001  10.632   7.540   6.227 -0.3884 -0.5963 -0.4247
  275MOL0     C37002  10.590   7.412   6.302  0.3937 -0.1473  0.5632
  275MOL0     C37003  10.453   7.351   6.254 -0.7353 -0.6551  0.5474
  275MOL0     C37004  10.342   7.461   6.232 -0.3481 -0.0643 -0.1263
  275MOL0     C37005  10.310   7.547   6.358  0.7400 -1.3198 -0.1273
  275MOL0     C37006  10.311   7.481   6.502  0.4047 -0.5781  0.3755
  275MOL0     N37007  10.251   7.577   6.599 -0.0550 -0.3770  0.3207
  275MOL0     C37008  10.118   7.608   6.618 -0.0269 -0.1940  0.6059
  275MOL0     C37009  10.104   7.698   6.722  0.0184  0.0238 -0.4984
  275MOL0     C37010   9.963   7.747   6.767 -0.1302  0.2320 -0.5533
  275MOL0     C37011   9.924   7.875   6.683  0.5470  0.7758  0.5861
  275MOL0     C37012  10.034   7.977   6.672  0.4411 -0.0972 -0.8580
  275MOL0     C37013   9.973   8.102   6.611 -0.1081 -0.1133  0.1137
  275MOL0     O37014   9.939   8.180   6.731 -0.4366  0.0530  0.3471
  275MOL0     C37015   9.899   8.310   6.703  0.9650 -0.1847 -0.2672
  275MOL0     C37016   9.793   8.372   6.778 -0.2436  0.1002  0.5768
  275MOL0     C37017   9.750   8.503   6.742  0.2207 -1.0659 -1.2378
  275MOL0     C37018   9.813   8.577   6.635  0.2931  0.5200 -0.8213
  275MOL0     C37019   9.764   8.705   6.589  0.3663  1.0107  0.1307
  275MOL0     O37020   9.803   8.752   6.467 -0.7956 -0.3573  0.2004
  275MOL0     C37021   9.753   8.863   6.410  0.5432  0.5099 -0.4404
  275MOL0     C37022   9.622   8.903   6.409 -1.7439  0.5838  0.2352
  275MOL0     C37023   9.578   9.005   6.328  0.4114 -0.2457 -0.5964
  275MOL0     C37024   9.673   9.072   6.250  0.9319  0.1055  0.7000
  275MOL0     O37025   9.629   9.171   6.169 -0.1550  0.3610  1.5237
  275MOL0     C37026   9.536   9.106   6.080 -0.0631  0.0582 -0.9871
  275MOL0     C37027   9.518   9.193   5.955  0.7949  0.0394  0.5325
  275MOL0     C37028   9.470   9.335   5.983  0.2735 -0.5205  0.7631
  275MOL0     C37029   9.460   9.401   5.848  0.4311 -0.1214  0.6460
  275MOL0     C37030   9.415   9.552   5.862  0.0097  0.3218  0.6311
  275MOL0     C37031   9.375   9.615   5.731 -0.4562 -0.5405 -0.1219
  275MOL0     C37032   9.460   9.591   5.604 -0.6200 -0.5074  0.1382
  275MOL0     C37033   9.390   9.677   5.499  0.8936  0.0842  1.0490
  275MOL0    Cl37034   9.463   9.664   5.334  0.3367 -0.3529  0.0123
  275MOL0     C37035   9.805   9.031   6.251  0.2499 -0.0048  0.2662
  275MOL0     C37036   9.843   8.921   6.326 -0.2303 -0.4345 -1.1987
  275MOL0     O37037   9.671   8.747   6.659 -0.4567 -0.3635  0.1836
  275MOL0     C37038   9.927   8.527   6.577 -0.1677 -0.3156  0.6978
  275MOL0     C37039   9.964   8.388   6.607  0.5857 -0.4527  0.9374
  275MOL0     N37040  10.232   7.721   6.751 -0.4880  0.5879 -0.6212
  275MOL0     N37041  10.323   7.654   6.687 -0.4156 -0.4855 -0.1067
  275MOL0     C37042  10.562   7.903   6.080 -0.9417  0.2975  0.4023
  275MOL0     C37043  10.517   8.033   6.065 -0.0732  0.0923 -0.4306
  275MOL0     C37044  10.425   8.397   5.800  0.3662 -0.1180 -0.7328
  275MOL0     C37045  10.538   8.479   5.793 -0.4081 -0.7521  0.1038
  275MOL0     C37046  10.523   8.609   5.748 -0.1506  0.2655  0.6463
  275MOL0     C37047  10.398   8.656   5.716  0.4565 -0.6098  0.4545
  275MOL0     O37048  10.384   8.782   5.664  0.5517 -0.2787  0.4493
  275MOL0     C37049  10.330   8.876   5.760 -0.5636  0.1154  0.7474
  275MOL0     C37050  10.265   8.989   5.673 -0.3359 -0.1044 -0.7945
  275MOL0     C37051  10.185   8.931   5.560  0.4259 -0.6714  0.7250
  275MOL0     C37052  10.097   9.044   5.501 -0.0347 -0.2828  1.0091
  275MOL0     C37053  10.170   9.120   5.402  0.2669  0.3377 -0.2421
  275MOL0     C37054  10.219   9.181   5.304 -0.3050 -0.6966 -0.7732
  275MOL0     C37055  10.289   8.574   5.723  0.7394 -0.3578  1.0074
  275MOL0     C37056  10.295   8.450   5.768  0.0618 -0.1750  0.2084
  275MOL0     C37057  10.176   8.366   5.796 -0.6499  0.8051 -0.5791
  275MOL0     H37058  10.749   8.144   5.841 -1.1185  0.0947 -1.3741
  275MOL0     H37059  10.841   7.913   5.883  0.6339  0.2408 -0.5403
  275MOL0     H37060  10.542   7.641   6.000 -0.7816  0.3604  1.6957
  275MOL0     H37061  10.670   7.584   5.893  1.1431  1.3816 -0.0118
  275MOL0     H37062  10.789   7.491   6.085  0.7300  1.9251 -0.6360
  275MOL0     H37063  10.614   7.428   6.057  0.1415  1.4788 -0.2771
  275MOL0     H37064  10.562   7.625   6.224  0.3602  0.0826  0.6457
  275MOL0     H37065  10.718   7.592   6.271 -0.9945 -0.2022  0.3260
  275MOL0     H37066  10.673   7.341   6.312  2.8368  2.7120  1.9850
  275MOL0     H37067  10.585   7.446   6.406  1.2757 -1.2940  1.0136
  275MOL0     H37068  10.453   7.287   6.166 -1.2253  0.6901 -0.4815
  275MOL0     H37069  10.422   7.286   6.335 -1.2104  0.1604  1.0311
  275MOL0     H37070  10.383   7.522   6.151  2.2072  0.1299  1.2195
  275MOL0     H37071  10.245   7.418   6.205  0.2145 -3.4364  2.5185
  275MOL0     H37072  10.211   7.583   6.329  0.1496 -1.1306  1.9194
  275MOL0     H37073  10.367   7.640   6.361  1.6843 -1.9029  1.5057
  275MOL0     H37074  10.241   7.397   6.509  0.1393 -0.2810  1.4228
  275MOL0     H37075  10.411   7.447   6.532  1.0059  0.1764 -0.7311
  275MOL0     H37076  10.037   7.567   6.559 -0.9305  0.9769  0.9933
  275MOL0     H37077   9.894   7.661   6.767  0.4146 -0.2875  2.0245
  275MOL0     H37078   9.974   7.757   6.875 -1.4398 -0.6819 -0.3033
  275MOL0     H37079   9.897   7.838   6.583 -1.6438  1.2949  0.9547
  275MOL0     H37080   9.837   7.919   6.731 -0.6646 -1.7302  0.8438
  275MOL0     H37081  10.121   7.934   6.621 -0.6924 -3.3384 -0.2928
  275MOL0     H37082  10.083   7.997   6.768  0.5619 -1.5426 -0.6002
  275MOL0     H37083   9.888   8.062   6.555 -1.4500 -1.1163  2.6782
  275MOL0     H37084  10.046   8.148   6.544  1.1795 -0.4920  1.2154
  275MOL0     H37085   9.748   8.329   6.866  0.7448  0.2295  1.1599
  275MOL0     H37086   9.660   8.549   6.784 -0.3618 -1.8891 -1.5558
  275MOL0     H37087   9.546   8.853   6.468 -1.3527 -0.6173 -0.2582
  275MOL0     H37088   9.477   9.041   6.341  0.2045 -0.2651 -1.9857
  275MOL0     H37089   9.586   9.014   6.048 -0.8725 -1.2375  1.2894
  275MOL0     H37090   9.438   9.095   6.127 -0.2368  2.1491 -0.7693
  275MOL0     H37091   9.613   9.191   5.901  0.4476 -1.1211 -0.0877
  275MOL0     H37092   9.443   9.136   5.898 -0.2996 -0.6476  2.5533
  275MOL0     H37093   9.381   9.348   6.044 -2.1489 -2.3590 -2.0856
  275MOL0     H37094   9.547   9.387   6.040 -0.1368 -2.4330  3.1919
  275MOL0     H37095   9.381   9.337   5.808  0.7565 -1.3491  1.8976
  275MOL0     H37096   9.549   9.399   5.784  0.4159  1.7631  0.5037
  275MOL0     H37097   9.503   9.606   5.896 -0.0837  0.8116  0.1068
  275MOL0     H37098   9.336   9.552   5.939  2.3573  1.8585  3.2350
  275MOL0     H37099   9.277   9.571   5.708 -0.2267 -0.6153 -0.9702
  275MOL0     H37100   9.369   9.721   5.757 -0.2089 -0.6100  0.2304
  275MOL0     H37101   9.453   9.488   5.569 -1.3552 -0.8629  1.2534
  275MOL0     H37102   9.564   9.621   5.623 -1.1790  1.3038  0.5830
  275MOL0     H37103   9.287   9.643   5.483  1.2420 -0.8887  0.7888
  275MOL0     H37104   9.385   9.781   5.531 -1.0325  0.2004  0.4750
  275MOL0     H37105   9.877   9.076   6.183 -0.6350  0.4101 -0.4242
  275MOL0     H37106   9.938   8.868   6.321 -1.1565 -3.1202  3.6312
  275MOL0     H37107   9.978   8.593   6.507  1.0018 -1.4125  0.4662
  275MOL0     H37108  10.047   8.354   6.545  2.8821  5.7696 -0.0791
  275MOL0     H37109  10.514   7.827   6.140  0.3050 -0.8255  0.0499
  275MOL0     H37110  10.429   8.075   6.112  1.2166  1.6322  0.7636
  275MOL0     H37111  10.641   8.453   5.813  1.0987  4.6464  1.0852
  275MOL0     H37112  10.611   8.667   5.724 -1.7086  2.2940 -0.4806
  275MOL0     H37113  10.415   8.914   5.818 -1.1101  0.0123  1.6292
  275MOL0     H37114  10.253   8.832   5.824 -2.7342  0.9574 -1.1763
  275MOL0     H37115  10.346   9.036   5.616  0.9202 -1.0705  0.1250
  275MOL0     H37116  10.209   9.054   5.741  1.3879  0.7183 -0.1101
  275MOL0     H37117  10.116   8.859   5.606 -1.1355  2.2591  3.2826
  275MOL0     H37118  10.246   8.883   5.482  0.5224  1.8864 -0.8680
  275MOL0     H37119  10.006   9.016   5.447 -0.2375  3.1966 -0.6631
  275MOL0     H37120  10.059   9.103   5.585  0.0880  0.9332  0.2259
  275MOL0     H37121  10.264   9.237   5.226  0.1488 -1.3966 -1.0281
  275MOL0     H37122  10.196   8.619   5.688  2.1330  0.9568 -1.2328
  275MOL0     H37123  10.210   8.307   5.882  0.3448 -0.3504 -1.7224
  275MOL0     H37124  10.100   8.436   5.830 -1.6019 -0.8678  0.8828
  275MOL0     H37125  10.150   8.302   5.711 -0.2726 -0.2278  0.0626
  276MOL0     O37126   2.622   6.915   0.860  0.0098  0.1183 -0.0956
  276MOL0     C37127   2.534   6.939   0.782  0.3548 -0.1203 -0.4395
  276MOL0     O37128   2.411   6.896   0.782  0.1042 -0.5466 -1.0815
  276MOL0     C37129   2.345   6.877   0.904  0.2952 -1.2425  0.2596
  276MOL0     C37130   2.317   6.998   0.974 -0.2115 -0.0752 -0.4218
  276MOL0     C37131   2.282   6.973   1.111  0.9922 -0.3962 -0.2983
  276MOL0     C37132   2.243   6.846   1.160  0.4540  0.2375  0.1061
  276MOL0     O37133   2.174   6.848   1.280 -0.1319  0.6674  0.7452
  276MOL0     C37134   2.090   6.737   1.321  0.1240 -0.0556  1.3965
  276MOL0     C37135   2.010   6.788   1.439 -0.6810  0.3533 -0.4097
  276MOL0     C37136   1.923   6.683   1.499  0.4438 -0.5505 -0.6207
  276MOL0     C37137   1.892   6.709   1.648 -0.7230 -0.7975 -0.1452
  276MOL0     C37138   1.783   6.615   1.697  0.5886  0.0251 -0.2993
  276MOL0     C37139   1.710   6.677   1.823 -0.8796  0.2597  0.4270
  276MOL0     C37140   1.796   6.699   1.946 -0.1559 -0.0480 -0.3657
  276MOL0     C37141   1.728   6.764   2.066 -0.0474 -0.5229 -1.1894
  276MOL0     N37142   1.636   6.667   2.132 -0.8930  0.3163 -0.8697
  276MOL0     C37143   1.671   6.545   2.191  0.2481 -0.6265  1.2287
  276MOL0     C37144   1.551   6.495   2.222 -0.9425 -0.2303 -0.6079
  276MOL0     C37145   1.551   6.362   2.307  0.5878 -0.0170  0.2481
  276MOL0     C37146   1.442   6.267   2.262 -0.3650 -0.0396  0.4378
  276MOL0     C37147   1.450   6.243   2.112  0.8488 -0.0805  0.4243
  276MOL0     C37148   1.429   6.100   2.077 -0.4148  0.4254 -0.3411
  276MOL0     O37149   1.446   6.086   1.933  0.0003 -1.0358  0.2513
  276MOL0     C37150   1.571   6.093   1.871 -0.2942 -0.4394 -0.0102
  276MOL0     C37151   1.567   6.150   1.742 -0.2692  0.4255 -1.1089
  276MOL0     C37152   1.683   6.156   1.661  0.6256  0.1457  0.2919
  276MOL0     C37153   1.811   6.131   1.720  0.4135  0.5014  0.2656
  276MOL0     C37154   1.937   6.158   1.647 -0.6082 -0.7368 -0.9058
  276MOL0     O37155   1.938   6.245   1.543 -0.5649 -0.1941  0.2502
  276MOL0     C37156   2.060   6.286   1.485  0.0047 -0.4689  0.4950
  276MOL0     C37157   2.080   6.247   1.346 -0.9673 -0.3295  0.6842
  276MOL0     C37158   2.187   6.318   1.282 -0.2150  0.6205  0.0796
  276MOL0     C37159   2.280   6.408   1.343 -0.7539 -0.6226  0.7119
  276MOL0     O37160   2.372   6.470   1.265 -0.2707  0.5872 -0.5548
  276MOL0     C37161   2.447   6.584   1.309 -0.3668 -0.4030  0.3917
  276MOL0     C37162   2.547   6.623   1.205  0.4642  0.5051  0.7747
  276MOL0     C37163   2.690   6.555   1.198  0.0444 -0.8998 -0.1342
  276MOL0     C37164   2.779   6.645   1.107  0.3868 -1.0029 -0.2474
  276MOL0     C37165   2.918   6.575   1.089 -0.8663 -0.8345  0.4473
  276MOL0     C37166   3.015   6.641   0.990  0.2986  0.7007 -0.1039
  276MOL0     C37167   3.146   6.563   0.968  1.1302 -0.3363  0.4127
  276MOL0     C37168   3.257   6.580   1.067 -0.3800  0.7499  0.3052
  276MOL0    Cl37169   3.284   6.763   1.068 -0.2939 -0.3215  0.3210
  276MOL0     C37170   2.254   6.435   1.471 -0.5823 -0.3936 -0.3192
  276MOL0     C37171   2.143   6.379   1.541  0.2448 -0.4417  0.1574
  276MOL0     O37172   2.040   6.108   1.699  0.7519 -0.6664  0.0998
  276MOL0     C37173   1.814   6.090   1.852 -0.2422  1.3539  0.7050
  276MOL0     C37174   1.698   6.067   1.930 -0.1547  0.4119  0.3038
  276MOL0     N37175   1.454   6.587   2.204 -0.0350  0.3356 -0.0371
  276MOL0     N37176   1.503   6.692   2.152 -0.0109 -0.0666 -0.4223
  276MOL0     C37177   2.244   6.742   1.076 -0.4936  1.1389 -0.3982
  276MOL0     C37178   2.310   6.751   0.947 -0.7249 -0.3739 -0.8846
  276MOL0     C37179   2.560   7.025   0.671 -0.1669 -0.1680  0.6463
  276MOL0     C37180   2.699   7.041   0.642 -0.0892  0.8208  0.9991
  276MOL0     C37181   2.739   7.115   0.530 -0.4898 -0.0632  0.5718
  276MOL0     C37182   2.646   7.189   0.455 -0.4501 -0.4650 -0.5003
  276MOL0     O37183   2.683   7.277   0.354 -0.1451  0.0077 -0.6034
  276MOL0     C37184   2.818   7.269   0.301  0.5106 -0.3725  0.2512
  276MOL0     C37185   2.842   7.314   0.158 -0.2338  0.0000 -0.8595
  276MOL0     C37186   2.810   7.463   0.138 -0.0604 -0.5850 -1.1214
  276MOL0     C37187   2.843   7.513  -0.000  0.2750  0.3974  0.7509
  276MOL0     C37188   2.746   7.455  -0.097 -0.0646  0.4721 -0.4588
  276MOL0     C37189   2.662   7.404  -0.173 -0.7921 -0.7257 -0.8233
  276MOL0     C37190   2.509   7.168   0.478  0.6593 -1.0088  0.0479
  276MOL0     C37191   2.467   7.084   0.584 -0.1156  0.3153 -0.1694
  276MOL0     C37192   2.314   7.082   0.612  0.0690 -0.4082  0.2007
  276MOL0     H37193   2.323   7.101   0.940 -2.1162  0.4569  0.6776
  276MOL0     H37194   2.271   7.066   1.166  0.6712  0.7432 -2.2107
  276MOL0     H37195   2.018   6.702   1.246 -0.9407 -0.7053  2.6918
  276MOL0     H37196   2.155   6.652   1.341 -0.4743 -1.4852 -2.0870
  276MOL0     H37197   1.940   6.864   1.403  1.4346  2.2804 -0.6360
  276MOL0     H37198   2.081   6.840   1.504 -0.9563  1.4119 -0.9413
  276MOL0     H37199   1.971   6.586   1.487 -1.3693 -1.4077 -1.1647
  276MOL0     H37200   1.829   6.686   1.443  1.3520  1.9979 -2.2206
  276MOL0     H37201   1.979   6.698   1.714 -0.0554  2.4384 -0.3282
  276MOL0     H37202   1.859   6.813   1.656  2.4217  0.2286  0.6488
  276MOL0     H37203   1.716   6.590   1.614 -0.1471 -4.9946  1.4587
  276MOL0     H37204   1.822   6.516   1.722  0.3029  0.4752  2.2584
  276MOL0     H37205   1.671   6.774   1.792 -0.8854 -0.0970 -0.7148
  276MOL0     H37206   1.625   6.613   1.850 -0.8372  0.0260  0.0158
  276MOL0     H37207   1.882   6.761   1.921  0.9782 -0.6206  1.8541
  276MOL0     H37208   1.835   6.600   1.974  0.0752  0.2628  0.4210
  276MOL0     H37209   1.805   6.804   2.132 -0.9541  0.6176 -0.7935
  276MOL0     H37210   1.670   6.847   2.026 -1.4223 -1.7390 -1.8463
  276MOL0     H37211   1.768   6.498   2.193 -0.4542 -2.2725 -0.5592
  276MOL0     H37212   1.651   6.317   2.309  1.1244  1.1594  0.6549
  276MOL0     H37213   1.544   6.395   2.411  0.5195  2.7422 -0.5544
  276MOL0     H37214   1.452   6.181   2.330  3.1063  2.2502  3.1575
  276MOL0     H37215   1.342   6.308   2.277 -1.1075 -0.2799 -3.0571
  276MOL0     H37216   1.553   6.261   2.080  0.7122  0.7760  0.4419
  276MOL0     H37217   1.378   6.308   2.061  0.3886  0.5913  1.8811
  276MOL0     H37218   1.326   6.067   2.093  0.4411 -1.3893  1.8705
  276MOL0     H37219   1.481   6.029   2.142 -3.0410  1.6118  3.4022
  276MOL0     H37220   1.473   6.196   1.712  0.1032  2.4508  0.5969
  276MOL0     H37221   1.672   6.193   1.559 -1.3217 -1.9013 -0.3157
  276MOL0     H37222   2.015   6.172   1.301 -2.2850  3.6773 -5.2771
  276MOL0     H37223   2.192   6.314   1.174  3.4981  2.5851  0.0043
  276MOL0     H37224   2.370   6.662   1.314 -0.8371 -0.2925 -4.3100
  276MOL0     H37225   2.496   6.577   1.406  2.8822  3.0817 -0.7346
  276MOL0     H37226   2.498   6.630   1.107 -0.3687  3.0845  1.3057
  276MOL0     H37227   2.575   6.728   1.217  2.9187  1.0380 -5.4896
  276MOL0     H37228   2.732   6.555   1.299  0.2765 -2.5112 -0.2082
  276MOL0     H37229   2.707   6.452   1.165 -1.1776 -0.5847 -1.9130
  276MOL0     H37230   2.783   6.745   1.151  0.3181 -0.4140 -1.5269
  276MOL0     H37231   2.733   6.655   1.009  0.2599  0.1442 -0.0836
  276MOL0     H37232   2.909   6.472   1.053  0.2230 -1.3707  1.6260
  276MOL0     H37233   2.969   6.574   1.186  2.1312 -1.0605 -0.9969
  276MOL0     H37234   2.979   6.662   0.889 -0.4983  3.3462  0.6520
  276MOL0     H37235   3.038   6.736   1.040 -0.1893  0.5160  0.4759
  276MOL0     H37236   3.190   6.607   0.879 -5.6361  2.7622 -2.0967
  276MOL0     H37237   3.119   6.459   0.949  1.0621  0.0759 -2.0740
  276MOL0     H37238   3.215   6.540   1.159 -2.0657  3.1637  0.6907
  276MOL0     H37239   3.354   6.537   1.043 -0.1884  1.9241 -1.1955
  276MOL0     H37240   2.300   6.522   1.517 -1.3565 -0.2409  0.1845
  276MOL0     H37241   2.117   6.419   1.638  1.6463  2.1575 -0.4490
  276MOL0     H37242   1.907   6.090   1.909  1.3203 -2.1288 -1.4590
  276MOL0     H37243   1.711   6.044   2.035 -0.8036 -0.9550  0.1129
  276MOL0     H37244   2.240   6.642   1.118  2.2865  1.3400  0.5916
  276MOL0     H37245   2.303   6.670   0.875 -2.2379  1.9775 -3.5913
  276MOL0     H37246   2.767   7.006   0.719 -0.3448  1.1275  1.3698
  276MOL0     H37247   2.846   7.128   0.516 -0.0374 -1.9320  1.9595
  276MOL0     H37248   2.848   7.165   0.309  0.6720 -0.3789 -0.3537
  276MOL0     H37249   2.881   7.325   0.370 -2.5652  3.2659  0.4540
  276MOL0     H37250   2.780   7.258   0.087  1.3691 -1.5204 -1.1305
  276MOL0     H37251   2.948   7.294   0.144 -0.5685 -2.8778  0.1709
  276MOL0     H37252   2.855   7.527   0.214 -4.2393  1.5312 -0.1212
  276MOL0     H37253   2.704   7.481   0.159  0.9894  2.3402  2.6837
  276MOL0     H37254   2.832   7.621  -0.012  1.0515  0.5277  1.1307
  276MOL0     H37255   2.943   7.491  -0.038  1.0265  1.8860  1.7833
  276MOL0     H37256   2.591   7.354  -0.235 -0.2142 -0.5670 -1.6219
  276MOL0     H37257   2.431   7.204   0.412  0.0960 -0.7410  0.8466
  276MOL0     H37258   2.270   6.983   0.604 -0.1019 -0.2933 -0.2783
  276MOL0     H37259   2.283   7.122   0.709  0.6679  1.3695 -0.2928
  276MOL0     H37260   2.274   7.139   0.528  3.7698 -1.1518 -2.3444
  277MOL0     O37261   6.774   0.375   2.595 -0.1765 -0.3813  0.1207
  277MOL0     C37262   6.737   0.258   2.583 -0.0513  0.2688 -0.5584
  277MOL0     O37263   6.615   0.211   2.618 -0.0898 -0.5985 -0.6351
  277MOL0     C37264   6.532   0.267   2.719 -0.0131  0.3059  0.0213
  277MOL0     C37265   6.412   0.196   2.768 -0.4931  0.2662 -0.1283
  277MOL0     C37266   6.341   0.241   2.882  1.4527  0.0415  0.3388
  277MOL0     C37267   6.364   0.368   2.933  0.0752 -0.3800  0.6934
  277MOL0     O37268   6.286   0.412   3.037  0.5313 -0.1558  0.1918
  277MOL0     C37269   6.157   0.442   2.990  0.4292 -0.1326  0.4960
  277MOL0     C37270   6.054   0.438   3.098  0.0037 -0.1110 -0.1747
  277MOL0     C37271   5.908   0.464   3.053  0.6735  0.5302  0.7780
  277MOL0     C37272   5.806   0.469   3.158 -0.4702  0.1007  0.1754
  277MOL0     C37273   5.661   0.460   3.100  0.7294  0.4593 -0.2016
  277MOL0     C37274   5.561   0.478   3.217 -0.1195  0.3027 -0.1837
  277MOL0     C37275   5.415   0.469   3.165 -0.2579  0.6527 -0.6714
  277MOL0     C37276   5.312   0.549   3.240 -0.5099  0.5585 -0.1607
  277MOL0     N37277   5.183   0.523   3.178  0.0737 -0.1343 -0.9610
  277MOL0     C37278   5.085   0.438   3.228 -0.0930 -0.1002 -0.6087
  277MOL0     C37279   4.981   0.444   3.137 -0.3976  0.4225 -0.9018
  277MOL0     C37280   4.863   0.354   3.153  0.1986  0.1215 -0.4650
  277MOL0     C37281   4.882   0.204   3.129 -0.2657  0.2192  0.4681
  277MOL0     C37282   4.748   0.138   3.122 -0.0811  0.6903  0.5468
  277MOL0     C37283   4.757  -0.013   3.083 -0.3242  1.0728  0.3884
  277MOL0     O37284   4.629  -0.080   3.116  0.2825 -0.2942  0.8795
  277MOL0     C37285   4.637  -0.210   3.134  0.9503  0.2481  0.1077
  277MOL0     C37286   4.676  -0.305   3.040 -0.0768  1.2422  0.3523
  277MOL0     C37287   4.685  -0.442   3.073  0.6342 -0.4394  0.6157
  277MOL0     C37288   4.658  -0.482   3.204 -0.1721 -0.1209 -0.0499
  277MOL0     C37289   4.676  -0.621   3.241 -0.0249  0.1539  0.0986
  277MOL0     O37290   4.740  -0.705   3.155  0.8331  0.3554  0.0830
  277MOL0     C37291   4.750  -0.837   3.207 -0.1071 -0.2338  0.5839
  277MOL0     C37292   4.867  -0.896   3.252 -1.1333 -0.7304 -0.3912
  277MOL0     C37293   4.874  -1.023   3.308 -0.3312 -0.1174 -0.6898
  277MOL0     C37294   4.773  -1.113   3.294  0.1457  0.0094 -0.1563
  277MOL0     O37295   4.807  -1.233   3.351  0.2677 -0.6831  0.2900
  277MOL0     C37296   4.713  -1.338   3.321  1.4269  0.1738 -0.9385
  277MOL0     C37297   4.749  -1.459   3.394  1.1427 -0.3654 -0.2111
  277MOL0     C37298   4.883  -1.519   3.338 -0.4741  0.6943 -0.1814
  277MOL0     C37299   4.888  -1.664   3.377  0.4644  0.0324 -0.4123
  277MOL0     C37300   5.010  -1.754   3.332  1.3361 -0.4496  0.7005
  277MOL0     C37301   5.024  -1.879   3.411  0.4742  0.0692 -0.6010
  277MOL0     C37302   5.158  -1.943   3.400 -0.3612  1.2516 -0.2174
  277MOL0     C37303   5.194  -2.020   3.524 -0.0942  0.7888 -0.5700
  277MOL0    Cl37304   5.081  -2.171   3.551  0.0227 -0.3984 -0.1212
  277MOL0     C37305   4.662  -1.075   3.222  0.0306 -0.4321 -0.2723
  277MOL0     C37306   4.642  -0.930   3.181 -0.8618  0.8637  0.0197
  277MOL0     O37307   4.647  -0.646   3.356 -0.2327 -0.0658  0.6245
  277MOL0     C37308   4.611  -0.383   3.302  0.7214 -0.1572  0.4285
  277MOL0     C37309   4.603  -0.248   3.260 -0.2835  0.0694 -0.6046
  277MOL0     N37310   5.031   0.514   3.028  0.3168  0.3721  0.2672
  277MOL0     N37311   5.154   0.554   3.041 -0.1646  0.3204 -0.8744
  277MOL0     C37312   6.472   0.445   2.887  0.5523  0.3220 -0.0144
  277MOL0     C37313   6.555   0.393   2.786 -0.4767  0.1525 -0.0458
  277MOL0     C37314   6.831   0.170   2.498  0.9153  0.1706  0.1273
  277MOL0     C37315   6.953   0.235   2.466 -0.1844  0.7285  0.2210
  277MOL0     C37316   7.048   0.162   2.389 -0.5787  0.9092  0.7891
  277MOL0     C37317   7.025   0.020   2.354 -0.3086 -0.4626 -0.1902
  277MOL0     O37318   7.115  -0.059   2.293  0.3997  0.7669  0.0299
  277MOL0     C37319   7.250  -0.021   2.297 -0.3166  0.1481  0.3599
  277MOL0     C37320   7.292   0.052   2.171  0.6799  1.3018 -0.6205
  277MOL0     C37321   7.300  -0.036   2.042  0.7308  1.3949  0.7061
  277MOL0     C37322   7.319   0.051   1.923  0.0567 -0.4822  0.0312
  277MOL0     C37323   7.344  -0.033   1.812 -0.7160  0.6885  0.1656
  277MOL0     C37324   7.360  -0.116   1.724 -0.2479  0.3222 -0.3772
  277MOL0     C37325   6.898  -0.035   2.387  0.2642 -0.6725 -0.2753
  277MOL0     C37326   6.797   0.032   2.451  0.1220 -0.5371 -0.7609
  277MOL0     C37327   6.676  -0.054   2.474  0.0149 -0.1537  0.1824
  277MOL0     H37328   6.384   0.095   2.741 -0.6825 -0.3479  2.1542
  277MOL0     H37329   6.254   0.184   2.913 -0.2979  2.9128  1.1155
  277MOL0     H37330   6.149   0.540   2.943 -0.3691 -0.1745  0.5250
  277MOL0     H37331   6.124   0.368   2.916 -0.3373  0.3177  0.3808
  277MOL0     H37332   6.070   0.510   3.179 -1.7712  1.6895 -1.3233
  277MOL0     H37333   6.061   0.335   3.137  2.1087 -0.3736 -1.1058
  277MOL0     H37334   5.865   0.386   2.990  1.5284 -0.6031  1.5633
  277MOL0     H37335   5.913   0.556   2.994 -0.9305  0.4912  0.5496
  277MOL0     H37336   5.816   0.390   3.234  0.7080  2.0771  2.2237
  277MOL0     H37337   5.814   0.566   3.207 -1.6062  1.3607 -1.9869
  277MOL0     H37338   5.654   0.537   3.023  2.0846  2.3161  1.4388
  277MOL0     H37339   5.646   0.358   3.061 -5.1718 -0.1672  2.5240
  277MOL0     H37340   5.568   0.396   3.290 -1.3267  1.0060  0.7621
  277MOL0     H37341   5.589   0.566   3.275 -2.4447  1.4339 -0.6891
  277MOL0     H37342   5.386   0.364   3.177 -2.7950  1.5286  2.1359
  277MOL0     H37343   5.420   0.493   3.059  2.1024 -1.0587 -1.0318
  277MOL0     H37344   5.307   0.523   3.346  1.7200  0.4426 -0.0373
  277MOL0     H37345   5.335   0.656   3.237 -1.9547  0.9239  0.5181
  277MOL0     H37346   5.093   0.387   3.323  0.8898  2.5593  0.8696
  277MOL0     H37347   4.827   0.365   3.256  0.5767  3.4483 -0.5662
  277MOL0     H37348   4.778   0.400   3.101 -0.1729 -0.7765 -0.6662
  277MOL0     H37349   4.937   0.184   3.037 -1.5203 -0.4933 -0.1431
  277MOL0     H37350   4.931   0.169   3.220 -0.7449  0.2338  0.7373
  277MOL0     H37351   4.678   0.188   3.054 -1.4209  1.3356  2.3380
  277MOL0     H37352   4.701   0.144   3.220  3.7278  0.4786  2.5477
  277MOL0     H37353   4.839  -0.061   3.138 -0.3781  0.2607 -0.2221
  277MOL0     H37354   4.778  -0.044   2.980  1.2522 -0.3376  1.0971
  277MOL0     H37355   4.705  -0.275   2.940 -0.8101 -0.8883 -0.5600
  277MOL0     H37356   4.719  -0.515   3.000 -1.4628 -1.4528  0.5830
  277MOL0     H37357   4.950  -0.827   3.265 -3.0268  1.5895  0.1850
  277MOL0     H37358   4.969  -1.045   3.356  0.1319  2.7738 -0.0499
  277MOL0     H37359   4.614  -1.304   3.352  1.5026  1.6487 -2.1756
  277MOL0     H37360   4.700  -1.357   3.214  2.6270  0.8410 -1.2281
  277MOL0     H37361   4.770  -1.432   3.498 -1.6207  1.8106 -0.0852
  277MOL0     H37362   4.674  -1.538   3.385  0.7829 -0.1955  1.1145
  277MOL0     H37363   4.873  -1.519   3.229  0.6257 -0.3321 -0.3082
  277MOL0     H37364   4.965  -1.461   3.382  1.3738  0.1650 -2.6731
  277MOL0     H37365   4.799  -1.723   3.353  0.3735 -0.0429  0.0970
  277MOL0     H37366   4.893  -1.662   3.486 -0.9872 -4.2581 -0.0841
  277MOL0     H37367   5.109  -1.709   3.343  2.0770 -2.2023  1.5883
  277MOL0     H37368   4.996  -1.790   3.230  0.5553 -0.3089  0.7485
  277MOL0     H37369   5.008  -1.844   3.513 -0.9809  2.2600 -1.5173
  277MOL0     H37370   4.948  -1.951   3.380 -0.5758  0.0338  1.8735
  277MOL0     H37371   5.233  -1.864   3.393 -0.0862  0.9492 -0.7260
  277MOL0     H37372   5.159  -2.011   3.314  0.2622 -0.1567  0.8378
  277MOL0     H37373   5.291  -2.065   3.503 -0.1602  0.1191  0.4618
  277MOL0     H37374   5.206  -1.965   3.618 -1.6465  1.1929 -0.5780
  277MOL0     H37375   4.578  -1.138   3.198  0.2128 -1.3268  1.2691
  277MOL0     H37376   4.553  -0.903   3.125 -2.3409 -1.6798  0.9811
  277MOL0     H37377   4.582  -0.407   3.404  0.3912 -1.4822  0.0502
  277MOL0     H37378   4.563  -0.176   3.331 -3.7882 -0.3779 -1.9540
  277MOL0     H37379   6.477   0.551   2.908 -0.2612  0.5192 -0.7801
  277MOL0     H37380   6.639   0.456   2.761 -0.2718  0.5133  1.5022
  277MOL0     H37381   6.984   0.329   2.509  2.2680  1.2709 -2.4021
  277MOL0     H37382   7.146   0.204   2.372  0.1532  0.3751  3.2127
  277MOL0     H37383   7.303  -0.117   2.299 -1.0338 -0.4265 -2.7262
  277MOL0     H37384   7.271   0.044   2.382  0.1380 -1.3232  1.4134
  277MOL0     H37385   7.383   0.111   2.182  0.9082  0.7654  0.6099
  277MOL0     H37386   7.211   0.124   2.166 -0.7666  0.0140  1.9386
  277MOL0     H37387   7.207  -0.094   2.037 -0.6955  3.1060  4.2800
  277MOL0     H37388   7.378  -0.111   2.056 -1.3758 -0.9173  0.8589
  277MOL0     H37389   7.226   0.106   1.907 -1.3919 -2.0456  2.4514
  277MOL0     H37390   7.402   0.120   1.939  1.6879 -1.5418 -2.9823
  277MOL0     H37391   7.382  -0.185   1.646  0.4837  2.3744 -2.0667
  277MOL0     H37392   6.882  -0.137   2.353  0.9158 -0.6016 -0.8134
  277MOL0     H37393   6.606  -0.007   2.544 -0.1972 -4.0522  2.9025
  277MOL0     H37394   6.619  -0.067   2.382  1.0884 -0.7500 -0.4194
  277MOL0     H37395   6.703  -0.146   2.527  0.9573  1.3643  2.5280
  278MOL0     O37396   7.057   2.218   7.291  0.8241  0.4686  0.1464
  278MOL0     C37397   7.095   2.313   7.225  0.3515 -0.5698  0.4821
  278MOL0     O37398   7.202   2.312   7.133 -0.0566  0.2731  0.5539
  278MOL0     C37399   7.245   2.194   7.089  0.1133 -0.1008  0.1213
  278MOL0     C37400   7.236   2.180   6.949 -0.7235 -0.1211  0.3606
  278MOL0     C37401   7.289   2.059   6.887  0.6416 -0.4608  0.5095
  278MOL0     C37402   7.346   1.956   6.969  0.2968 -0.8239 -0.8050
  278MOL0     O37403   7.405   1.849   6.904  0.8220  1.0301  0.4716
  278MOL0     C37404   7.466   1.752   6.997 -0.3613  0.3636 -0.7242
  278MOL0     C37405   7.544   1.643   6.909  0.3953  0.7922 -0.3424
  278MOL0     C37406   7.467   1.584   6.789  0.0599  0.3729  0.4200
  278MOL0     C37407   7.345   1.505   6.830  0.4211 -0.6561 -0.7136
  278MOL0     C37408   7.290   1.419   6.727  0.8720  0.1615 -0.3870
  278MOL0     C37409   7.213   1.486   6.604  0.1221 -1.5126  0.0129
  278MOL0     C37410   7.090   1.566   6.646  1.2229  0.2554  0.1030
  278MOL0     C37411   7.118   1.720   6.673  0.1778  0.3034 -0.5127
  278MOL0     N37412   7.107   1.794   6.546 -0.0728 -0.2152  0.2997
  278MOL0     C37413   7.174   1.777   6.436 -1.2287  0.2178  0.3463
  278MOL0     C37414   7.144   1.876   6.358  0.1713 -0.3157  0.4329
  278MOL0     C37415   7.200   1.882   6.221 -0.8296  0.6493  0.3498
  278MOL0     C37416   7.133   1.994   6.143  0.1908 -0.4421 -0.4448
  278MOL0     C37417   7.154   1.975   5.998  0.3642 -0.3836  0.0818
  278MOL0     C37418   7.043   2.070   5.939 -0.2557  0.3003 -0.0068
  278MOL0     O37419   7.065   2.207   5.971  0.0918  0.4733 -0.2099
  278MOL0     C37420   6.959   2.267   6.021 -0.1568 -0.0305  0.2604
  278MOL0     C37421   6.953   2.295   6.161 -0.7058 -0.5744  0.1175
  278MOL0     C37422   6.841   2.376   6.196 -0.2993 -0.1953  0.7554
  278MOL0     C37423   6.748   2.425   6.099  0.3678 -1.0080  0.8128
  278MOL0     C37424   6.640   2.524   6.135 -0.4145 -0.4651 -0.6670
  278MOL0     O37425   6.667   2.582   6.256  0.7344  0.4876 -0.0947
  278MOL0     C37426   6.576   2.653   6.331  1.0246 -0.0196 -0.9592
  278MOL0     C37427   6.627   2.765   6.410 -0.7473  0.7103  0.3160
  278MOL0     C37428   6.540   2.852   6.476 -0.2091 -0.2375  0.7195
  278MOL0     C37429   6.398   2.831   6.465  0.3917 -1.0141  0.8731
  278MOL0     O37430   6.299   2.905   6.519 -0.4612 -0.1307 -0.1697
  278MOL0     C37431   6.318   3.049   6.532  0.4387 -0.1447  0.2194
  278MOL0     C37432   6.193   3.128   6.488  0.6093 -0.7781  0.0209
  278MOL0     C37433   6.088   3.130   6.597 -0.6471 -0.1818  0.9153
  278MOL0     C37434   5.961   3.203   6.558 -0.4034  0.3035 -0.2854
  278MOL0     C37435   5.880   3.115   6.461 -0.2823 -0.4214 -0.2481
  278MOL0     C37436   5.766   3.185   6.408  0.2960 -0.7994  0.5991
  278MOL0     C37437   5.673   3.262   6.510  0.1172  0.0528  0.5140
  278MOL0     C37438   5.543   3.288   6.427 -0.3219 -0.1938 -0.1219
  278MOL0    Cl37439   5.567   3.449   6.329  0.4617 -0.2872  0.8841
  278MOL0     C37440   6.351   2.712   6.392 -0.7120  0.4741 -0.4509
  278MOL0     C37441   6.438   2.626   6.333  0.2231  0.0899 -1.0536
  278MOL0     O37442   6.559   2.572   6.059  0.7634  0.4219  0.7218
  278MOL0     C37443   6.754   2.384   5.966  0.4057  0.0182 -0.1849
  278MOL0     C37444   6.860   2.307   5.920 -0.8327  0.5728  0.4730
  278MOL0     N37445   7.059   1.964   6.425  0.6627  0.0832  1.8213
  278MOL0     N37446   7.039   1.905   6.534  0.1356  0.2525 -0.8220
  278MOL0     C37447   7.342   1.964   7.114  1.4188 -0.5055 -0.5301
  278MOL0     C37448   7.291   2.083   7.173  0.0667  0.0825 -0.3429
  278MOL0     C37449   7.020   2.436   7.264 -0.1408 -0.2683  0.2598
  278MOL0     C37450   6.949   2.454   7.385  0.3628  0.8732 -0.0959
  278MOL0     C37451   6.886   2.573   7.428 -0.2528 -0.6232  0.0582
  278MOL0     C37452   6.898   2.687   7.349 -0.2468  0.0257  0.0404
  278MOL0     O37453   6.822   2.794   7.376  0.2542  0.8849  1.1128
  278MOL0     C37454   6.766   2.884   7.281 -0.1694  0.4481  0.8258
  278MOL0     C37455   6.849   3.023   7.260 -0.2627 -0.7399  0.2871
  278MOL0     C37456   6.877   3.091   7.394 -0.2407 -0.3284 -0.5857
  278MOL0     C37457   6.753   3.108   7.488  0.3538 -0.3661 -0.5770
  278MOL0     C37458   6.652   3.205   7.423  0.2733 -0.9662 -0.5063
  278MOL0     C37459   6.569   3.277   7.369 -0.0667  0.3432 -0.6928
  278MOL0     C37460   6.969   2.672   7.230  0.3437 -0.1577 -0.0119
  278MOL0     C37461   7.025   2.548   7.188 -0.7863  0.3260 -0.9049
  278MOL0     C37462   7.091   2.561   7.055 -0.2325  0.1682  0.1677
  278MOL0     H37463   7.198   2.262   6.888 -0.1700  1.1942  1.7340
  278MOL0     H37464   7.295   2.042   6.780 -2.5504  0.9361 -0.0253
  278MOL0     H37465   7.539   1.806   7.058  1.1405 -0.3423 -1.8156
  278MOL0     H37466   7.396   1.700   7.063  0.0020  2.0814  1.1238
  278MOL0     H37467   7.573   1.561   6.974 -2.4911  0.6616  0.9498
  278MOL0     H37468   7.637   1.682   6.867 -0.0169  0.6064 -1.4775
  278MOL0     H37469   7.520   1.500   6.743 -2.5170 -0.6833 -0.8326
  278MOL0     H37470   7.449   1.661   6.713 -0.8599 -1.3487 -1.1880
  278MOL0     H37471   7.367   1.425   6.901 -0.5024 -1.3341 -1.1781
  278MOL0     H37472   7.260   1.562   6.869  0.7050  0.0674 -1.1372
  278MOL0     H37473   7.371   1.371   6.672  0.2262 -2.0014  0.4801
  278MOL0     H37474   7.229   1.344   6.778  1.6311 -0.4654 -0.3955
  278MOL0     H37475   7.285   1.552   6.555 -1.6351  1.2741  0.9511
  278MOL0     H37476   7.189   1.404   6.536  2.9904 -0.2444 -2.7974
  278MOL0     H37477   7.045   1.513   6.731  0.1059 -0.0417 -0.6451
  278MOL0     H37478   7.008   1.559   6.573  2.2242 -2.2362 -0.9091
  278MOL0     H37479   7.042   1.760   6.741  1.4206 -0.1500  1.2114
  278MOL0     H37480   7.215   1.735   6.722 -0.4900  1.7999  0.3879
  278MOL0     H37481   7.245   1.704   6.399 -0.2722  0.7177  1.1523
  278MOL0     H37482   7.309   1.887   6.209 -1.0721  0.8742 -2.2590
  278MOL0     H37483   7.172   1.783   6.183 -0.3657  0.4646  0.4721
  278MOL0     H37484   7.028   1.996   6.172  0.2662  3.7149  0.1310
  278MOL0     H37485   7.165   2.093   6.177  0.4810 -0.4496 -0.6899
  278MOL0     H37486   7.157   1.873   5.956  1.9510  0.0470 -0.9722
  278MOL0     H37487   7.254   2.013   5.973 -0.3482  0.6349 -1.3552
  278MOL0     H37488   6.950   2.028   5.979  0.3890 -1.2138 -0.0189
  278MOL0     H37489   7.039   2.057   5.831 -3.8130 -0.5156  0.1149
  278MOL0     H37490   7.025   2.271   6.238  2.3364  2.1509 -1.6210
  278MOL0     H37491   6.814   2.406   6.297 -2.4258  0.1047  0.1508
  278MOL0     H37492   6.734   2.785   6.400 -0.6056 -0.0281  0.3074
  278MOL0     H37493   6.579   2.936   6.533 -3.0672  0.9646  1.1107
  278MOL0     H37494   6.334   3.071   6.638 -1.3852 -1.9070  0.9328
  278MOL0     H37495   6.403   3.087   6.474 -0.3797 -2.8240 -3.0747
  278MOL0     H37496   6.223   3.233   6.473 -1.7892  0.0244  0.4514
  278MOL0     H37497   6.152   3.083   6.398 -1.7215 -0.9363  1.0864
  278MOL0     H37498   6.075   3.023   6.616 -3.3817 -0.4492 -1.7925
  278MOL0     H37499   6.137   3.177   6.683  1.0846  1.8935 -1.0678
  278MOL0     H37500   5.979   3.303   6.518  0.6667  0.7492  1.2310
  278MOL0     H37501   5.902   3.212   6.650  1.6364 -2.6568  1.5104
  278MOL0     H37502   5.844   3.027   6.516 -0.3539 -1.1832 -1.4733
  278MOL0     H37503   5.943   3.079   6.380  0.6422 -0.5206  0.4940
  278MOL0     H37504   5.792   3.266   6.339 -4.7968 -1.2192 -2.3189
  278MOL0     H37505   5.702   3.111   6.359  1.0673 -0.0876 -1.5692
  278MOL0     H37506   5.700   3.360   6.550 -2.7372  1.9513 -1.8153
  278MOL0     H37507   5.659   3.194   6.595  0.0374  0.6828  1.0184
  278MOL0     H37508   5.515   3.211   6.354 -0.5787  1.6561 -2.0627
  278MOL0     H37509   5.454   3.293   6.491  1.4342  0.4770  2.4557
  278MOL0     H37510   6.243   2.699   6.389 -0.6642  0.0819 -0.3743
  278MOL0     H37511   6.400   2.543   6.274  1.7600 -1.0874 -0.4647
  278MOL0     H37512   6.676   2.425   5.902 -1.8238 -0.7005  1.9296
  278MOL0     H37513   6.864   2.274   5.816 -4.7394  2.6719 -0.5204
  278MOL0     H37514   7.375   1.890   7.186  0.1988 -0.2190  0.3656
  278MOL0     H37515   7.304   2.103   7.278  0.5847  0.3665 -0.4630
  278MOL0     H37516   6.940   2.376   7.459  0.4041  0.3896 -0.5954
  278MOL0     H37517   6.838   2.569   7.525  0.1634  0.0798  0.2999
  278MOL0     H37518   6.663   2.898   7.316 -0.9221 -1.6271 -0.3136
  278MOL0     H37519   6.749   2.843   7.181 -2.2047  4.0221 -0.4768
  278MOL0     H37520   6.792   3.081   7.187 -0.1667 -0.4777  0.4181
  278MOL0     H37521   6.936   2.982   7.208 -0.5082 -1.0125  0.0892
  278MOL0     H37522   6.917   3.188   7.365  1.7022 -0.6438  0.8402
  278MOL0     H37523   6.962   3.035   7.435 -1.3563 -2.0270 -0.4862
  278MOL0     H37524   6.694   3.018   7.509  1.5701 -1.4068 -1.4356
  278MOL0     H37525   6.783   3.150   7.584 -1.0495 -0.1383 -0.2243
  278MOL0     H37526   6.493   3.341   7.329 -1.0075  1.3379  2.3505
  278MOL0     H37527   6.981   2.757   7.164 -0.6245 -0.5089 -0.6445
  278MOL0     H37528   7.200   2.563   7.068 -0.3695  2.1032  1.3320
  278MOL0     H37529   7.057   2.477   6.993 -2.9040  0.9948  0.4266
  278MOL0     H37530   7.077   2.656   7.002  3.2998  1.3530  1.0377
  279MOL0     O37531   3.396   5.654   1.139  0.5807 -0.0047 -0.4859
  279MOL0     C37532   3.489   5.577   1.147  0.0641  0.0768  0.3825
  279MOL0     O37533   3.494   5.453   1.083  0.0145 -0.0092 -0.0386
  279MOL0     C37534   3.391   5.413   1.000  0.2920  0.1835 -0.5036
  279MOL0     C37535   3.356   5.273   0.991 -0.2084 -0.5193 -1.3044
  279MOL0     C37536   3.243   5.227   0.927 -0.3739  0.2303  0.2564
  279MOL0     C37537   3.173   5.314   0.850 -0.9981  0.4743 -0.0905
  279MOL0     O37538   3.078   5.250   0.778  0.0769 -0.0113 -0.8713
  279MOL0     C37539   2.951   5.312   0.745 -0.0526 -0.1740 -0.7232
  279MOL0     C37540   2.858   5.316   0.876 -0.2161 -0.3487  0.1706
  279MOL0     C37541   2.723   5.381   0.836  0.7919  0.1269  0.2364
  279MOL0     C37542   2.643   5.395   0.965 -0.5621 -0.5414 -0.3633
  279MOL0     C37543   2.499   5.427   0.930 -0.0844 -0.0721  0.3128
  279MOL0     C37544   2.398   5.310   0.940 -0.6606  0.0662 -0.0722
  279MOL0     C37545   2.265   5.361   0.884  0.1252  0.6704 -0.4484
  279MOL0     C37546   2.151   5.254   0.920 -0.8067  0.0622 -0.0207
  279MOL0     N37547   2.034   5.285   0.836 -0.0037  0.1534 -0.6100
  279MOL0     C37548   2.018   5.236   0.711 -0.0009  0.0881 -0.5328
  279MOL0     C37549   1.886   5.236   0.679 -0.2370  0.2337 -1.0138
  279MOL0     C37550   1.811   5.176   0.560 -0.1617  0.0897 -0.0095
  279MOL0     C37551   1.802   5.028   0.565  0.1970 -0.1014 -0.4130
  279MOL0     C37552   1.711   4.978   0.689 -0.4801  0.3073  0.2456
  279MOL0     C37553   1.665   4.832   0.683  0.4341 -0.4183 -0.2708
  279MOL0     O37554   1.570   4.807   0.789  0.4775  1.0647  0.0538
  279MOL0     C37555   1.580   4.679   0.844 -0.2755 -0.0847  0.0523
  279MOL0     C37556   1.536   4.571   0.763 -0.1368  0.2607 -0.9929
  279MOL0     C37557   1.552   4.438   0.816 -0.3267  0.1003  0.2391
  279MOL0     C37558   1.607   4.419   0.947 -0.3511  1.2144  0.5553
  279MOL0     C37559   1.630   4.279   0.984  0.0491 -0.0666 -0.2749
  279MOL0     O37560   1.587   4.167   0.914 -1.2177 -0.2390 -0.2001
  279MOL0     C37561   1.637   4.041   0.937  0.4872 -0.3609  0.4652
  279MOL0     C37562   1.757   4.011   1.005 -0.0451 -0.6808 -0.1016
  279MOL0     C37563   1.798   3.883   1.004 -0.2751  0.0956  0.1878
  279MOL0     C37564   1.720   3.781   0.948 -0.4662 -0.7354 -0.8866
  279MOL0     O37565   1.764   3.660   0.938  0.7209  0.6333  0.0188
  279MOL0     C37566   1.822   3.603   1.056  0.0922  0.5959  0.5452
  279MOL0     C37567   1.824   3.448   1.026 -0.1093  0.3519 -0.7797
  279MOL0     C37568   1.687   3.392   1.083  0.3185 -0.2009 -0.3108
  279MOL0     C37569   1.668   3.248   1.038  0.5662  1.0385 -0.9444
  279MOL0     C37570   1.591   3.167   1.140 -0.4410 -0.9580 -0.3203
  279MOL0     C37571   1.440   3.192   1.147 -0.1755  0.3039  0.3839
  279MOL0     C37572   1.348   3.067   1.106 -1.3564 -1.0933  0.2858
  279MOL0     C37573   1.209   3.101   1.061  0.0096  1.0004 -0.0560
  279MOL0    Cl37574   1.196   3.188   0.903  0.7344 -0.0273  0.0630
  279MOL0     C37575   1.603   3.814   0.878 -0.3108  0.2553 -0.4316
  279MOL0     C37576   1.563   3.945   0.870 -1.6359  0.4910  0.0557
  279MOL0     O37577   1.680   4.282   1.096 -0.0945  0.1292  0.3118
  279MOL0     C37578   1.643   4.526   1.017 -0.6496 -0.3837  0.6031
  279MOL0     C37579   1.624   4.654   0.969  1.0602  0.5065  0.3541
  279MOL0     N37580   1.817   5.307   0.784  0.0625  0.4063 -0.2436
  279MOL0     N37581   1.911   5.325   0.879 -0.0526  0.9273  0.3753
  279MOL0     C37582   3.200   5.446   0.846 -0.2986 -0.6884  0.4543
  279MOL0     C37583   3.307   5.496   0.923  0.2250 -1.0678 -0.7667
  279MOL0     C37584   3.613   5.617   1.204  0.1986 -1.5944 -0.1885
  279MOL0     C37585   3.733   5.562   1.158 -0.6174 -0.3690 -0.7326
  279MOL0     C37586   3.861   5.578   1.232  0.0314  0.6447  0.3072
  279MOL0     C37587   3.858   5.647   1.349  0.4132  0.8130  0.4393
  279MOL0     O37588   3.969   5.683   1.412 -0.7109  0.6177  0.0049
  279MOL0     C37589   3.953   5.675   1.554 -1.0519 -1.4514  0.2878
  279MOL0     C37590   4.069   5.601   1.621  0.5500 -0.0521  0.5943
  279MOL0     C37591   4.209   5.652   1.585 -0.3274 -0.5993  0.9599
  279MOL0     C37592   4.308   5.606   1.684 -0.0612  0.6577 -1.1208
  279MOL0     C37593   4.296   5.697   1.805 -0.2839 -0.3955 -0.6908
  279MOL0     C37594   4.283   5.779   1.897  0.9523  0.9158  0.4314
  279MOL0     C37595   3.737   5.707   1.384  0.2342  0.1067  0.0466
  279MOL0     C37596   3.616   5.703   1.319  0.0763 -0.0916  0.1669
  279MOL0     C37597   3.497   5.760   1.387 -0.0440  0.5673  0.1968
  279MOL0     H37598   3.418   5.201   1.044 -0.1706  0.1413 -0.4328
  279MOL0     H37599   3.211   5.124   0.935  2.7939 -0.7850  0.8585
  279MOL0     H37600   2.958   5.415   0.708 -5.8006  0.2338 -1.7108
  279MOL0     H37601   2.896   5.260   0.667 -0.8323 -1.5266  0.6653
  279MOL0     H37602   2.912   5.382   0.944  0.6470 -1.2602  0.3862
  279MOL0     H37603   2.860   5.212   0.910  0.7980 -1.0445 -1.8521
  279MOL0     H37604   2.684   5.311   0.762  2.4307 -1.1540  0.5301
  279MOL0     H37605   2.723   5.483   0.797  1.5002 -0.4228 -1.2901
  279MOL0     H37606   2.641   5.306   1.028 -1.1588  0.0341  0.4411
  279MOL0     H37607   2.686   5.480   1.017  0.1493 -0.3289 -1.2652
  279MOL0     H37608   2.461   5.519   0.977 -0.9861 -0.8445  1.1358
  279MOL0     H37609   2.492   5.450   0.823 -3.8337 -5.0144 -0.8623
  279MOL0     H37610   2.424   5.223   0.880  0.6321 -0.7267  1.5425
  279MOL0     H37611   2.393   5.270   1.042  1.9716  0.9371  0.4782
  279MOL0     H37612   2.285   5.381   0.779 -2.2041  3.2460 -0.5167
  279MOL0     H37613   2.241   5.461   0.921  3.1360  1.4471 -0.3504
  279MOL0     H37614   2.197   5.160   0.888 -1.3428 -0.9912  2.1532
  279MOL0     H37615   2.123   5.255   1.025 -2.1950 -2.3681 -0.2693
  279MOL0     H37616   2.097   5.188   0.653 -2.0592 -4.2511 -0.1391
  279MOL0     H37617   1.713   5.225   0.551 -0.5726 -1.0528 -2.2901
  279MOL0     H37618   1.858   5.199   0.464 -1.6273  1.1059 -0.5104
  279MOL0     H37619   1.766   4.981   0.473  0.5110  1.9680 -1.6488
  279MOL0     H37620   1.903   4.988   0.576  0.3052 -0.3562 -2.0255
  279MOL0     H37621   1.624   5.043   0.692 -0.4102  0.3739  1.7762
  279MOL0     H37622   1.772   4.988   0.779 -0.4685 -1.0700  0.4126
  279MOL0     H37623   1.747   4.760   0.682  0.5182 -0.3437  0.5789
  279MOL0     H37624   1.622   4.821   0.583 -1.3494  3.7412 -0.1710
  279MOL0     H37625   1.494   4.592   0.665 -0.2172 -0.7135 -1.1779
  279MOL0     H37626   1.522   4.350   0.760 -2.9715  1.7316 -1.0683
  279MOL0     H37627   1.825   4.091   1.034 -0.0939 -0.4162 -0.6876
  279MOL0     H37628   1.900   3.861   1.036  0.0630 -0.9396 -1.4599
  279MOL0     H37629   1.923   3.642   1.072 -0.2395  1.9520 -0.4502
  279MOL0     H37630   1.767   3.619   1.149  0.6714 -0.0714  1.0139
  279MOL0     H37631   1.838   3.420   0.921  2.0597  0.7620 -0.6523
  279MOL0     H37632   1.912   3.402   1.074 -1.7215 -3.6591 -1.2488
  279MOL0     H37633   1.687   3.413   1.191  0.5902  3.2824 -0.8544
  279MOL0     H37634   1.607   3.458   1.048  0.8573  1.5974  1.6263
  279MOL0     H37635   1.770   3.208   1.038  1.5070  2.8239  3.6169
  279MOL0     H37636   1.628   3.247   0.936 -1.4261  4.0100 -0.3366
  279MOL0     H37637   1.642   3.180   1.236  2.3308  2.3948 -2.0367
  279MOL0     H37638   1.606   3.060   1.123  0.0614 -1.1886  1.3625
  279MOL0     H37639   1.417   3.223   1.250  0.7526 -0.7889  0.9492
  279MOL0     H37640   1.414   3.275   1.082 -3.1777 -0.0224  1.0336
  279MOL0     H37641   1.341   2.998   1.191  0.2124  1.9188  3.0920
  279MOL0     H37642   1.404   3.032   1.019 -2.6102  3.4632 -2.7029
  279MOL0     H37643   1.149   3.012   1.040 -0.7276  0.2717  4.2059
  279MOL0     H37644   1.156   3.166   1.131 -3.8023 -1.8878  0.0761
  279MOL0     H37645   1.538   3.738   0.837  0.4241 -0.5310 -0.1596
  279MOL0     H37646   1.480   3.969   0.804 -1.9885 -2.1330 -0.5558
  279MOL0     H37647   1.674   4.510   1.119  1.2239 -1.3563 -0.0688
  279MOL0     H37648   1.641   4.738   1.036  1.9634 -0.1788  1.0116
  279MOL0     H37649   3.140   5.516   0.789 -1.3550 -1.0174  1.1429
  279MOL0     H37650   3.308   5.604   0.935  0.7190 -1.0446 -1.0196
  279MOL0     H37651   3.740   5.512   1.061  1.3186  0.4545 -1.0521
  279MOL0     H37652   3.951   5.534   1.191 -0.2468  0.5632 -0.2172
  279MOL0     H37653   3.856   5.634   1.586 -2.2843 -0.3593 -1.7810
  279MOL0     H37654   3.950   5.779   1.588  1.2190  0.6326 -4.8668
  279MOL0     H37655   4.059   5.496   1.593 -0.2871  0.2157 -0.1703
  279MOL0     H37656   4.053   5.608   1.729  0.5887 -1.8950  0.7427
  279MOL0     H37657   4.219   5.760   1.567 -0.1552 -0.9888 -1.6921
  279MOL0     H37658   4.236   5.625   1.482 -1.5281  2.4587 -0.2949
  279MOL0     H37659   4.278   5.507   1.718  0.0826  1.0662  0.2596
  279MOL0     H37660   4.411   5.607   1.647  0.8467  1.8458  1.2640
  279MOL0     H37661   4.280   5.838   1.986  1.2953 -0.2203  1.2152
  279MOL0     H37662   3.750   5.769   1.472  0.0240 -1.2354  1.0545
  279MOL0     H37663   3.510   5.781   1.494  0.3726 -3.4882  1.1357
  279MOL0     H37664   3.460   5.849   1.335  3.8877  3.1874  1.4605
  279MOL0     H37665   3.434   5.672   1.401  3.6356 -2.2348  0.7200
  280MOL0     O37666   2.322   8.343   0.898  0.1682  0.3959 -0.8520
  280MOL0     C37667   2.314   8.284   0.790  0.2014  0.3686 -0.9689
  280MOL0     O37668   2.365   8.158   0.766 -0.1862  1.3436 -0.3402
  280MOL0     C37669   2.450   8.096   0.858 -0.2738  0.4521 -0.1622
  280MOL0     C37670   2.517   8.145   0.970 -0.5243 -0.4764  0.1674
  280MOL0     C37671   2.593   8.054   1.050  0.0167 -0.2249 -0.2902
  280MOL0     C37672   2.623   7.924   1.000  0.7687 -0.0448 -0.0340
  280MOL0     O37673   2.711   7.849   1.078  0.2204  0.1227  0.9047
  280MOL0     C37674   2.844   7.848   1.021  1.0858  0.5643 -0.2863
  280MOL0     C37675   2.905   7.715   1.063 -0.5262  0.1608 -0.0347
  280MOL0     C37676   3.055   7.719   1.054 -0.5044  0.3441 -0.4349
  280MOL0     C37677   3.107   7.582   1.037 -0.3189  0.5811  0.0900
  280MOL0     C37678   3.259   7.576   1.002 -0.8695 -0.3645 -0.1384
  280MOL0     C37679   3.358   7.612   1.115 -0.5969 -0.5788 -0.2612
  280MOL0     C37680   3.500   7.580   1.058  0.2164  0.0523 -0.4405
  280MOL0     C37681   3.617   7.629   1.130  0.6707 -0.1279  0.5035
  280MOL0     N37682   3.740   7.555   1.089  0.9690  0.4046  0.6740
  280MOL0     C37683   3.790   7.543   0.957  0.9942  0.0371 -0.1253
  280MOL0     C37684   3.907   7.484   0.977 -0.1319 -0.8326  0.6739
  280MOL0     C37685   4.018   7.456   0.866  0.3924 -0.0657 -0.4097
  280MOL0     C37686   4.146   7.414   0.936 -0.6233  0.2105  0.4283
  280MOL0     C37687   4.272   7.407   0.850  0.1700 -0.2519  0.0697
  280MOL0     C37688   4.393   7.425   0.932 -0.0043 -0.6383  0.3400
  280MOL0     O37689   4.403   7.547   1.011  0.3323  0.3800  0.6711
  280MOL0     C37690   4.502   7.555   1.102 -0.4174  0.3423 -0.7981
  280MOL0     C37691   4.619   7.487   1.106  0.3522  1.3090  0.0536
  280MOL0     C37692   4.711   7.494   1.205 -0.2392 -0.0524 -0.0965
  280MOL0     C37693   4.687   7.587   1.313  0.1776 -0.0137  0.5469
  280MOL0     C37694   4.787   7.614   1.412  0.8702  0.5077 -0.0594
  280MOL0     O37695   4.918   7.587   1.387 -0.5533  0.0971 -0.1221
  280MOL0     C37696   5.014   7.594   1.480  0.0288 -0.5122 -0.6580
  280MOL0     C37697   4.993   7.605   1.617 -0.2183  0.2835  0.3361
  280MOL0     C37698   5.100   7.647   1.695  0.1610 -0.8549 -0.0154
  280MOL0     C37699   5.233   7.660   1.643 -0.5956 -1.0403 -0.0055
  280MOL0     O37700   5.339   7.700   1.712  0.3945  0.1797 -0.0687
  280MOL0     C37701   5.313   7.814   1.797  1.0381 -0.6378 -0.7849
  280MOL0     C37702   5.412   7.920   1.746 -0.0714  0.3768 -0.5620
  280MOL0     C37703   5.377   8.061   1.804 -0.2264  0.1317 -1.0624
  280MOL0     C37704   5.287   8.138   1.695 -0.3319 -0.1186  0.5675
  280MOL0     C37705   5.157   8.063   1.646 -1.3293 -0.4388  0.1720
  280MOL0     C37706   5.093   8.144   1.528  0.5471 -0.2220 -0.8987
  280MOL0     C37707   4.942   8.113   1.525 -0.1305 -0.3419 -0.4405
  280MOL0     C37708   4.888   7.984   1.467 -0.1105 -0.1129  0.5136
  280MOL0    Cl37709   4.955   7.934   1.299 -0.2031 -0.1236 -0.3698
  280MOL0     C37710   5.248   7.647   1.506 -0.7576 -0.2486  0.3630
  280MOL0     C37711   5.144   7.624   1.426 -0.5204 -0.1591  0.3219
  280MOL0     O37712   4.745   7.663   1.516 -0.7133  0.5627 -0.0776
  280MOL0     C37713   4.566   7.654   1.310  1.1343 -0.1681 -0.3064
  280MOL0     C37714   4.479   7.642   1.205  0.7118  0.1446 -0.4132
  280MOL0     N37715   3.931   7.464   1.112  0.4277 -0.7791  0.2058
  280MOL0     N37716   3.833   7.508   1.179  0.0384 -0.1955  0.4222
  280MOL0     C37717   2.576   7.882   0.885  0.2873 -1.0411  0.4281
  280MOL0     C37718   2.484   7.965   0.822  0.1288 -0.4661  0.4280
  280MOL0     C37719   2.219   8.345   0.693 -0.2084 -0.0332 -0.6743
  280MOL0     C37720   2.148   8.257   0.608  0.3316 -0.3146  0.3806
  280MOL0     C37721   2.056   8.306   0.519 -0.4450  0.1579 -0.5796
  280MOL0     C37722   2.023   8.443   0.503  0.0883 -0.1595 -0.8306
  280MOL0     O37723   1.917   8.471   0.424  0.6902 -0.0812  0.1409
  280MOL0     C37724   1.946   8.584   0.339  0.4269 -0.3300 -0.1339
  280MOL0     C37725   1.882   8.579   0.199 -0.0861 -0.5550  0.0132
  280MOL0     C37726   1.725   8.602   0.216  0.1185 -0.1080 -0.2634
  280MOL0     C37727   1.659   8.589   0.078  0.1885 -0.0421  0.3728
  280MOL0     C37728   1.511   8.606   0.087 -0.6698 -0.3210  0.6933
  280MOL0     C37729   1.394   8.626   0.118 -0.0067 -1.1229  0.9375
  280MOL0     C37730   2.104   8.532   0.580 -0.1642  0.4857 -0.1925
  280MOL0     C37731   2.207   8.485   0.667  0.7026  0.5189 -0.7163
  280MOL0     C37732   2.292   8.581   0.730  0.3466 -0.5240 -0.3524
  280MOL0     H37733   2.511   8.243   1.016  0.2807 -0.8762  1.1630
  280MOL0     H37734   2.630   8.087   1.147  0.2422  0.1391 -0.4976
  280MOL0     H37735   2.838   7.851   0.912  1.7155  0.1778 -0.3427
  280MOL0     H37736   2.912   7.930   1.048  2.0726 -0.3219  0.0058
  280MOL0     H37737   2.852   7.642   1.002 -2.9540  0.8924  1.0926
  280MOL0     H37738   2.875   7.695   1.166 -0.8810  0.0489 -0.1573
  280MOL0     H37739   3.089   7.767   1.146 -2.2631 -0.4253  0.6652
  280MOL0     H37740   3.080   7.771   0.962 -0.8235 -6.3392 -5.0203
  280MOL0     H37741   3.095   7.525   1.130  1.9461 -0.4661 -0.1970
  280MOL0     H37742   3.058   7.514   0.967  0.6496 -0.4998  0.4329
  280MOL0     H37743   3.286   7.476   0.967 -1.7385 -1.5857  2.4368
  280MOL0     H37744   3.282   7.635   0.912  1.5118 -1.3589 -0.2645
  280MOL0     H37745   3.343   7.714   1.151  2.5890 -0.6203  1.5279
  280MOL0     H37746   3.344   7.543   1.199  2.9006  0.7093  1.5659
  280MOL0     H37747   3.504   7.620   0.956 -0.6360  0.3914 -0.3513
  280MOL0     H37748   3.506   7.470   1.063 -0.4631  0.0333  0.0596
  280MOL0     H37749   3.621   7.738   1.122 -0.7842 -0.1799 -1.8283
  280MOL0     H37750   3.587   7.606   1.232 -0.7130 -0.1712  0.1111
  280MOL0     H37751   3.739   7.571   0.865 -0.6355 -0.9950  0.4142
  280MOL0     H37752   3.992   7.374   0.798 -1.1455  1.9406 -2.4357
  280MOL0     H37753   4.033   7.545   0.803  3.2690 -0.9968 -1.1863
  280MOL0     H37754   4.169   7.483   1.019  0.5412  0.1582  0.1613
  280MOL0     H37755   4.134   7.315   0.980  0.0400  0.7713  1.9604
  280MOL0     H37756   4.277   7.494   0.784 -1.1252  0.2833  0.6311
  280MOL0     H37757   4.265   7.313   0.795  1.8372  1.1076 -2.6341
  280MOL0     H37758   4.478   7.419   0.864 -0.9818 -3.4918 -0.7752
  280MOL0     H37759   4.405   7.334   0.991  0.5396  0.1223  1.4525
  280MOL0     H37760   4.649   7.431   1.017 -0.7533  1.2351 -0.2864
  280MOL0     H37761   4.793   7.423   1.205 -0.2106 -0.0364 -1.1987
  280MOL0     H37762   4.902   7.594   1.676 -0.3975  0.0685  0.0266
  280MOL0     H37763   5.079   7.678   1.797 -3.4756 -1.0467 -0.5712
  280MOL0     H37764   5.209   7.847   1.797  1.5434  1.0169 -0.6517
  280MOL0     H37765   5.348   7.796   1.900  3.1659 -1.8804 -1.6369
  280MOL0     H37766   5.516   7.899   1.775 -0.2017 -0.3696 -0.6085
  280MOL0     H37767   5.418   7.921   1.637 -2.7657  1.9830 -0.7726
  280MOL0     H37768   5.319   8.052   1.896  1.7167 -0.5687  0.1509
  280MOL0     H37769   5.472   8.116   1.816 -0.6745  0.3969  2.2814
  280MOL0     H37770   5.345   8.154   1.603 -0.4268  1.3522  0.7316
  280MOL0     H37771   5.274   8.244   1.720 -2.5204  0.3449 -2.0688
  280MOL0     H37772   5.092   8.050   1.732 -1.3428 -0.8527  0.1031
  280MOL0     H37773   5.187   7.962   1.618 -1.8873 -0.5365 -0.0924
  280MOL0     H37774   5.112   8.251   1.516  0.5592  0.0250  1.0071
  280MOL0     H37775   5.132   8.108   1.432  1.0182 -2.1482 -0.0203
  280MOL0     H37776   4.898   8.193   1.464 -2.0939  0.4276  1.8357
  280MOL0     H37777   4.899   8.119   1.625  1.8888 -1.0065  0.5128
  280MOL0     H37778   4.902   7.895   1.528  0.4527 -2.4699 -2.7969
  280MOL0     H37779   4.781   8.006   1.461  0.5452  3.8878  0.8056
  280MOL0     H37780   5.347   7.666   1.467 -1.1812 -0.4070 -0.8216
  280MOL0     H37781   5.165   7.628   1.320 -2.7148  1.7823 -0.1145
  280MOL0     H37782   4.541   7.722   1.392  0.2310 -1.4312  0.5044
  280MOL0     H37783   4.386   7.699   1.209  2.4179  3.0862  2.2112
  280MOL0     H37784   2.607   7.798   0.824  1.1113 -0.4782  0.0569
  280MOL0     H37785   2.434   7.925   0.734  0.7387  0.1199 -0.1938
  280MOL0     H37786   2.166   8.150   0.605 -1.8585 -0.7322 -2.5050
  280MOL0     H37787   1.999   8.236   0.457 -0.4348 -0.5019  0.1409
  280MOL0     H37788   2.053   8.595   0.323  0.4459  1.2383  0.8464
  280MOL0     H37789   1.913   8.675   0.391  0.8363 -0.4733  0.3781
  280MOL0     H37790   1.904   8.482   0.153 -1.5921  0.5310 -3.3274
  280MOL0     H37791   1.932   8.649   0.132 -0.2141  1.4868  1.9277
  280MOL0     H37792   1.707   8.706   0.245 -0.3279 -0.1634 -0.3403
  280MOL0     H37793   1.681   8.536   0.291  1.3238 -0.2321  0.3519
  280MOL0     H37794   1.694   8.655  -0.001  1.0556 -0.5130  0.3542
  280MOL0     H37795   1.681   8.493   0.031 -0.0552  0.3311 -0.5096
  280MOL0     H37796   1.289   8.624   0.141 -0.0548 -0.6281  0.7588
  280MOL0     H37797   2.087   8.639   0.574 -3.4756  0.0969  0.2711
  280MOL0     H37798   2.257   8.604   0.831 -3.8062  0.9850 -1.9053
  280MOL0     H37799   2.397   8.557   0.712  0.1433 -1.5105 -0.2961
  280MOL0     H37800   2.282   8.672   0.670 -2.9921 -0.5139  0.0271
  281MOL0     O37801   4.758   2.031   6.231 -0.5066 -0.4560  0.4765
  281MOL0     C37802   4.839   1.989   6.147 -0.4368  0.5577  0.3636
  281MOL0     O37803   4.949   2.054   6.108 -0.0981  0.5202  0.3875
  281MOL0     C37804   4.943   2.192   6.098 -0.2598  0.3743 -0.1338
  281MOL0     C37805   4.835   2.277   6.083 -0.2702  0.4915  0.5124
  281MOL0     C37806   4.863   2.412   6.090  0.7219 -0.5752 -0.4452
  281MOL0     C37807   4.986   2.474   6.106 -0.8190  0.9895  0.5194
  281MOL0     O37808   5.006   2.611   6.096 -0.2074 -0.1020  0.4233
  281MOL0     C37809   5.120   2.665   6.159 -0.6673 -0.7223  0.8626
  281MOL0     C37810   5.095   2.667   6.310 -0.4057 -0.6909 -0.3483
  281MOL0     C37811   5.221   2.665   6.386 -0.7164  0.6092 -0.5136
  281MOL0     C37812   5.323   2.783   6.356  0.2533  0.2963 -0.3919
  281MOL0     C37813   5.450   2.771   6.440 -0.0139 -0.5937  0.2796
  281MOL0     C37814   5.445   2.802   6.591 -0.2784 -0.0217  0.7490
  281MOL0     C37815   5.585   2.764   6.641 -0.6155 -0.0131  0.6519
  281MOL0     C37816   5.586   2.766   6.799  0.6315 -0.3817 -0.6396
  281MOL0     N37817   5.722   2.746   6.850  0.1317  0.6827  0.0470
  281MOL0     C37818   5.814   2.840   6.886 -0.2909 -0.0932 -0.0192
  281MOL0     C37819   5.903   2.765   6.957 -0.6636 -0.0569  0.6090
  281MOL0     C37820   6.027   2.804   7.032 -0.0310 -0.6289  0.1628
  281MOL0     C37821   6.125   2.898   6.954  0.7172  0.3542  0.2662
  281MOL0     C37822   6.199   2.823   6.842 -0.8392  0.0216  1.7126
  281MOL0     C37823   6.273   2.698   6.869  1.2399 -0.5813  0.3030
  281MOL0     O37824   6.409   2.722   6.929 -0.8510  0.6212  0.4936
  281MOL0     C37825   6.517   2.669   6.859 -0.0830  0.2527 -0.3131
  281MOL0     C37826   6.639   2.669   6.920 -0.8256 -0.5346 -0.3343
  281MOL0     C37827   6.762   2.617   6.867  0.2848 -0.6815  0.7973
  281MOL0     C37828   6.760   2.575   6.732  1.0799  0.2806 -0.0670
  281MOL0     C37829   6.883   2.526   6.662 -0.2434 -0.6033  0.8319
  281MOL0     O37830   6.997   2.493   6.730  0.4749 -0.1304 -0.6282
  281MOL0     C37831   7.109   2.459   6.660  0.3548 -0.2781 -0.6382
  281MOL0     C37832   7.233   2.521   6.683 -0.1370  0.2598  1.1028
  281MOL0     C37833   7.341   2.475   6.609  0.0736  0.7406 -0.5120
  281MOL0     C37834   7.338   2.365   6.532  1.0029  1.2227  0.2223
  281MOL0     O37835   7.455   2.336   6.468 -0.0284  0.3117 -0.4542
  281MOL0     C37836   7.438   2.303   6.323 -1.0315  0.1540  0.5533
  281MOL0     C37837   7.582   2.315   6.256 -0.6893 -0.6026 -0.3889
  281MOL0     C37838   7.591   2.372   6.114 -0.1851 -0.5435 -0.2073
  281MOL0     C37839   7.690   2.487   6.105  0.5490  0.6970 -0.4306
  281MOL0     C37840   7.701   2.532   5.957 -0.0314 -0.6678  0.0822
  281MOL0     C37841   7.812   2.640   5.940 -0.3094 -0.7259  1.0131
  281MOL0     C37842   7.954   2.583   5.937 -0.8069  0.2645 -0.1544
  281MOL0     C37843   8.062   2.692   5.932 -0.1748  1.1541 -0.9990
  281MOL0    Cl37844   8.210   2.608   5.888 -0.0053 -0.0838 -0.2064
  281MOL0     C37845   7.219   2.300   6.507 -0.0858 -0.1732  0.3155
  281MOL0     C37846   7.109   2.352   6.566 -0.3482 -0.1758 -0.4069
  281MOL0     O37847   6.870   2.510   6.538  0.1304  0.0890  0.1782
  281MOL0     C37848   6.637   2.578   6.671  0.3901 -0.0274  0.8035
  281MOL0     C37849   6.513   2.623   6.729  0.4769  1.1046 -0.2565
  281MOL0     N37850   5.869   2.622   6.948 -0.1351 -0.2786  0.7090
  281MOL0     N37851   5.762   2.621   6.878 -0.0448  0.0647 -0.2072
  281MOL0     C37852   5.089   2.381   6.130  0.1926 -0.7741 -0.3699
  281MOL0     C37853   5.060   2.250   6.135  1.0246 -0.0318 -0.5315
  281MOL0     C37854   4.827   1.840   6.115 -0.0642 -0.6715  0.5132
  281MOL0     C37855   4.950   1.774   6.117 -0.3984 -0.7561  0.2858
  281MOL0     C37856   4.954   1.640   6.093 -0.1088 -0.0819  0.6341
  281MOL0     C37857   4.841   1.570   6.045 -0.5972  0.8091 -0.2562
  281MOL0     O37858   4.835   1.439   6.009 -0.4887 -0.1472 -0.3532
  281MOL0     C37859   4.941   1.348   6.036  0.0233  0.2133 -0.0326
  281MOL0     C37860   4.894   1.215   6.066  0.2136 -0.4078 -0.0333
  281MOL0     C37861   5.003   1.125   6.103 -0.1331 -0.6437  0.6730
  281MOL0     C37862   4.941   0.981   6.132 -0.7537 -0.2472 -0.1790
  281MOL0     C37863   5.064   0.903   6.173  0.3489  0.2152  0.1099
  281MOL0     C37864   5.151   0.835   6.218 -0.2237  0.9883 -1.3743
  281MOL0     C37865   4.722   1.650   6.034 -0.5943  0.7687  0.1986
  281MOL0     C37866   4.713   1.779   6.070 -0.1721 -1.2171  0.1258
  281MOL0     C37867   4.571   1.849   6.069 -1.0188 -0.1681 -0.2675
  281MOL0     H37868   4.734   2.239   6.081 -0.6300  1.4436  0.0182
  281MOL0     H37869   4.775   2.473   6.072  2.3381  2.8088  2.0057
  281MOL0     H37870   5.215   2.623   6.123  0.5734  3.0940 -0.8487
  281MOL0     H37871   5.134   2.767   6.123  1.3407 -1.3344 -0.2739
  281MOL0     H37872   5.032   2.586   6.347  0.2490 -1.4385 -0.8186
  281MOL0     H37873   5.036   2.754   6.339 -1.4134 -1.0962 -1.1177
  281MOL0     H37874   5.257   2.561   6.384 -3.7452 -0.5334 -0.5556
  281MOL0     H37875   5.184   2.683   6.488 -2.5757 -0.3018 -0.9936
  281MOL0     H37876   5.353   2.772   6.251 -0.1285 -0.8443 -0.3944
  281MOL0     H37877   5.269   2.877   6.365 -4.1794 -1.9573 -0.4022
  281MOL0     H37878   5.491   2.673   6.414  3.0385 -0.2728  3.2515
  281MOL0     H37879   5.519   2.847   6.403  0.1703  1.2026  3.8902
  281MOL0     H37880   5.429   2.907   6.614  1.0866  0.1851  0.8789
  281MOL0     H37881   5.367   2.747   6.645 -0.0254 -0.8355  0.3111
  281MOL0     H37882   5.659   2.839   6.613  0.3141 -0.3420  2.1188
  281MOL0     H37883   5.614   2.664   6.608  0.2532  0.6518 -0.6613
  281MOL0     H37884   5.537   2.858   6.834 -0.3299 -1.3046  0.5306
  281MOL0     H37885   5.535   2.675   6.831 -0.0906 -0.4558 -1.9422
  281MOL0     H37886   5.818   2.947   6.867 -4.7103  0.4224  0.8414
  281MOL0     H37887   5.989   2.870   7.110 -1.7972 -2.0982  0.6148
  281MOL0     H37888   6.093   2.733   7.084  1.3938  1.2266  0.9865
  281MOL0     H37889   6.073   2.978   6.900  1.2845  0.0003 -0.8374
  281MOL0     H37890   6.193   2.948   7.023 -1.6983  1.6409  1.8463
  281MOL0     H37891   6.267   2.898   6.803 -3.2758  2.3907  1.7575
  281MOL0     H37892   6.138   2.818   6.751  1.0769  3.5319  0.0352
  281MOL0     H37893   6.273   2.639   6.777 -0.6784 -0.1113 -0.0506
  281MOL0     H37894   6.223   2.631   6.940  1.9442 -1.7638 -0.2871
  281MOL0     H37895   6.640   2.696   7.026  2.8885  0.3403 -0.4395
  281MOL0     H37896   6.857   2.605   6.919  0.3401 -1.9758  0.4391
  281MOL0     H37897   7.264   2.611   6.736  1.5604  0.6051 -0.3638
  281MOL0     H37898   7.438   2.523   6.610  2.0868 -2.9440 -0.4417
  281MOL0     H37899   7.407   2.200   6.300  0.2854  0.1393 -1.3683
  281MOL0     H37900   7.360   2.364   6.277 -1.6062 -1.4037 -0.6585
  281MOL0     H37901   7.623   2.394   6.319 -0.8540  0.4187 -1.5280
  281MOL0     H37902   7.647   2.231   6.281  0.2501  0.8956  2.7127
  281MOL0     H37903   7.626   2.297   6.042 -0.0658  0.2989 -1.0523
  281MOL0     H37904   7.489   2.396   6.083 -0.8476 -1.1232  1.4416
  281MOL0     H37905   7.790   2.460   6.140 -1.0549  0.0536  4.5017
  281MOL0     H37906   7.676   2.566   6.180  1.5898 -0.4494  1.0209
  281MOL0     H37907   7.600   2.569   5.936  0.9404  0.9715 -2.1690
  281MOL0     H37908   7.715   2.447   5.889  2.8211  0.0958 -0.3953
  281MOL0     H37909   7.793   2.696   5.848 -0.0593  3.5824  3.3203
  281MOL0     H37910   7.795   2.713   6.020  0.4946  1.6057 -0.8165
  281MOL0     H37911   7.968   2.526   5.845 -2.3021  1.1304 -0.9663
  281MOL0     H37912   7.972   2.536   6.034 -2.7277  0.6977  0.4481
  281MOL0     H37913   8.047   2.780   5.868 -0.6026  0.6261 -1.6321
  281MOL0     H37914   8.079   2.743   6.028 -1.8341  0.1243 -0.0989
  281MOL0     H37915   7.205   2.213   6.444 -1.0857  1.0168 -1.1755
  281MOL0     H37916   7.017   2.298   6.543 -0.7004 -0.4764  1.5247
  281MOL0     H37917   6.643   2.527   6.575  0.5517 -2.7637  2.1657
  281MOL0     H37918   6.423   2.623   6.669  0.1561  0.3791  0.2079
  281MOL0     H37919   5.188   2.419   6.154 -0.0792 -0.7121  0.6901
  281MOL0     H37920   5.139   2.176   6.147 -1.0200 -2.2273 -0.0033
  281MOL0     H37921   5.038   1.828   6.151 -0.9342  0.7816 -0.6497
  281MOL0     H37922   5.055   1.602   6.095  0.2577  0.7510 -0.4393
  281MOL0     H37923   4.998   1.377   6.125  2.9844 -2.7102 -0.7970
  281MOL0     H37924   5.019   1.351   5.960  2.1162  0.9475  1.9963
  281MOL0     H37925   4.845   1.170   5.979  0.0539  1.5521 -1.0089
  281MOL0     H37926   4.822   1.225   6.148  1.0531 -0.6238  0.7523
  281MOL0     H37927   5.054   1.167   6.191  0.5872  0.6848 -0.3519
  281MOL0     H37928   5.083   1.128   6.029 -1.7331 -0.1774 -1.1063
  281MOL0     H37929   4.873   0.989   6.217  0.3506 -0.8988  0.7989
  281MOL0     H37930   4.889   0.940   6.045  0.4815  1.2147 -1.6844
  281MOL0     H37931   5.234   0.782   6.259 -1.1508 -0.6839 -1.5803
  281MOL0     H37932   4.631   1.594   6.014 -0.0763 -0.8636  2.0134
  281MOL0     H37933   4.575   1.927   5.993 -0.9584 -0.0775 -0.1707
  281MOL0     H37934   4.497   1.783   6.023 -0.7041 -0.2738 -0.6267
  281MOL0     H37935   4.543   1.876   6.172  1.6350 -1.9622  1.0403
  282MOL0     O37936   8.910   4.062   0.761  0.7235  0.9386  0.9062
  282MOL0     C37937   8.943   3.950   0.724  0.1559 -0.4790 -0.0683
  282MOL0     O37938   9.043   3.875   0.771  0.0451  0.2709 -0.6947
  282MOL0     C37939   9.106   3.910   0.891 -0.8534 -0.3473 -0.0173
  282MOL0     C37940   9.046   3.951   1.007  0.1204 -0.3767 -0.4917
  282MOL0     C37941   9.116   3.978   1.129 -0.1053 -0.3089  0.7825
  282MOL0     C37942   9.255   3.956   1.136 -0.3397 -1.1435 -0.3272
  282MOL0     O37943   9.333   3.993   1.250  0.7420  0.7796  0.1712
  282MOL0     C37944   9.270   3.969   1.380 -0.9423 -0.2976 -0.5154
  282MOL0     C37945   9.386   3.934   1.478 -0.4617  0.0743 -0.1769
  282MOL0     C37946   9.328   3.940   1.620 -0.8206 -0.3961 -1.1885
  282MOL0     C37947   9.442   3.915   1.728 -1.0070  1.0889  0.6347
  282MOL0     C37948   9.561   4.014   1.739 -0.1074 -0.2133 -0.3160
  282MOL0     C37949   9.518   4.165   1.761 -0.8767  0.3744  0.0406
  282MOL0     C37950   9.642   4.243   1.809  0.6999 -0.2537  0.4926
  282MOL0     C37951   9.624   4.401   1.787 -0.3239  0.5385 -0.5424
  282MOL0     N37952   9.751   4.474   1.812  0.0773 -0.2221 -0.4096
  282MOL0     C37953   9.784   4.558   1.919 -0.3967  0.2904 -0.7307
  282MOL0     C37954   9.908   4.590   1.898 -0.6280  0.6877  1.1620
  282MOL0     C37955   9.978   4.697   1.969  0.3982  0.0773  0.4953
  282MOL0     C37956   9.903   4.824   1.960 -0.4487 -0.5849  0.0864
  282MOL0     C37957   9.982   4.943   2.014 -0.6073  0.5324 -0.1610
  282MOL0     C37958   9.933   5.081   1.967  0.5485 -0.3459 -0.4507
  282MOL0     O37959  10.008   5.192   1.996  0.2242 -0.2638  0.0988
  282MOL0     C37960  10.021   5.228   2.128  0.1183  0.1053  0.1391
  282MOL0     C37961  10.127   5.314   2.145  0.1406  0.0733 -0.0502
  282MOL0     C37962  10.146   5.383   2.277 -0.6044  0.2568 -0.0664
  282MOL0     C37963  10.065   5.352   2.394  0.0200 -0.4279  1.1457
  282MOL0     C37964  10.096   5.398   2.529  0.4701  0.0039 -0.0024
  282MOL0     O37965  10.184   5.506   2.521  0.1422 -0.2199 -0.5532
  282MOL0     C37966  10.236   5.567   2.635 -0.3312 -0.2404  0.3171
  282MOL0     C37967  10.253   5.516   2.768  0.0950  0.6043 -0.4281
  282MOL0     C37968  10.297   5.608   2.866  0.8279 -0.1928 -0.8877
  282MOL0     C37969  10.338   5.738   2.841  0.5494 -0.2236  0.1101
  282MOL0     O37970  10.384   5.835   2.926 -0.2153 -0.0611  0.1945
  282MOL0     C37971  10.303   5.895   3.027  0.3841  0.6652 -0.1602
  282MOL0     C37972  10.381   5.934   3.148  0.6132 -0.5751  0.1865
  282MOL0     C37973  10.469   5.827   3.216 -0.1293  0.2588  1.2652
  282MOL0     C37974  10.462   5.804   3.372  0.5095 -0.7437  0.7182
  282MOL0     C37975  10.574   5.886   3.456 -0.4441 -0.6617  0.0633
  282MOL0     C37976  10.567   6.048   3.407  0.1224  0.9321 -0.1504
  282MOL0     C37977  10.657   6.136   3.491 -0.0994 -0.0736  0.6682
  282MOL0     C37978  10.622   6.143   3.634  0.0869  0.5997 -0.1026
  282MOL0    Cl37979  10.683   6.293   3.709 -0.3476 -0.5955 -0.0493
  282MOL0     C37980  10.324   5.786   2.713 -0.3456 -0.6505 -0.0233
  282MOL0     C37981  10.276   5.705   2.609 -0.5281 -0.8376  0.6536
  282MOL0     O37982  10.044   5.363   2.631  0.7238  0.2994 -0.0655
  282MOL0     C37983   9.962   5.258   2.359 -0.3400  0.0382 -0.1722
  282MOL0     C37984   9.935   5.198   2.234 -0.0531 -0.1380 -0.9398
  282MOL0     N37985   9.961   4.512   1.796  0.2366 -0.7821  1.2919
  282MOL0     N37986   9.871   4.445   1.748  0.3641  0.6637 -0.2699
  282MOL0     C37987   9.322   3.925   1.020 -0.4717  1.4688  0.9903
  282MOL0     C37988   9.250   3.892   0.898 -0.0051  0.4626 -0.6047
  282MOL0     C37989   8.875   3.885   0.612 -0.0326 -0.1224 -0.8259
  282MOL0     C37990   8.737   3.849   0.625  0.6534  0.0677 -0.6407
  282MOL0     C37991   8.663   3.808   0.513 -0.4751 -0.6779 -0.3582
  282MOL0     C37992   8.730   3.780   0.396 -0.1611  0.3794 -0.3952
  282MOL0     O37993   8.677   3.717   0.289  0.2751  0.8557 -0.0040
  282MOL0     C37994   8.557   3.641   0.303 -0.3548 -0.2452 -0.1079
  282MOL0     C37995   8.535   3.559   0.173  0.0438  1.1324 -0.3563
  282MOL0     C37996   8.627   3.432   0.170 -0.2756 -0.2128  0.2704
  282MOL0     C37997   8.692   3.424   0.032  0.0120  0.2136 -0.6369
  282MOL0     C37998   8.808   3.329   0.044  0.5638  0.1282  0.7002
  282MOL0     C37999   8.895   3.247   0.056  0.2285 -0.2668 -1.1631
  282MOL0     C38000   8.866   3.795   0.389 -1.3258 -0.6101  0.8015
  282MOL0     C38001   8.942   3.851   0.498  0.0823 -0.4734  0.6564
  282MOL0     C38002   9.089   3.870   0.476 -0.0046 -0.5687 -0.5987
  282MOL0     H38003   8.941   3.978   1.005  0.6793  2.0619 -0.5431
  282MOL0     H38004   9.055   4.026   1.204  3.0765  4.1043  0.9562
  282MOL0     H38005   9.208   4.053   1.412 -3.3599 -2.4733  0.8182
  282MOL0     H38006   9.209   3.879   1.374  2.6516 -2.8895 -5.0759
  282MOL0     H38007   9.463   4.012   1.471 -2.1030  1.9030  0.9021
  282MOL0     H38008   9.427   3.833   1.469  0.2854  0.3248  0.2649
  282MOL0     H38009   9.264   3.853   1.633 -0.1554 -0.8276 -0.7546
  282MOL0     H38010   9.265   4.026   1.646  0.4239 -0.5582  2.9703
  282MOL0     H38011   9.394   3.894   1.824 -0.2863 -0.9423  0.6071
  282MOL0     H38012   9.474   3.816   1.695  1.7734  1.9454  0.5138
  282MOL0     H38013   9.629   3.990   1.821  0.4546 -2.3411 -1.3413
  282MOL0     H38014   9.621   4.008   1.647  6.1277  0.7970  3.1158
  282MOL0     H38015   9.482   4.211   1.669 -1.2630  1.6596  0.8002
  282MOL0     H38016   9.436   4.168   1.834  0.6864  1.3679  1.8443
  282MOL0     H38017   9.734   4.216   1.756 -0.7859 -2.6664 -1.0846
  282MOL0     H38018   9.659   4.232   1.917  1.7028  1.5686  0.5539
  282MOL0     H38019   9.586   4.423   1.687 -2.0919  1.8719  0.3693
  282MOL0     H38020   9.546   4.441   1.852  0.2868 -0.5641  0.9416
  282MOL0     H38021   9.722   4.616   1.988  1.7381 -0.0839  1.6531
  282MOL0     H38022   9.987   4.673   2.075  0.6439  3.5894  1.4012
  282MOL0     H38023  10.078   4.709   1.925 -1.1158 -0.7757 -3.6356
  282MOL0     H38024   9.864   4.851   1.861  3.4521  1.7334 -1.0635
  282MOL0     H38025   9.810   4.811   2.014 -0.2704 -0.4045  0.4409
  282MOL0     H38026  10.084   4.942   1.974 -0.0540 -0.4172  1.1844
  282MOL0     H38027   9.982   4.927   2.122 -0.2829 -1.5177 -0.4127
  282MOL0     H38028   9.838   5.092   2.021  0.8907 -4.7615  1.4631
  282MOL0     H38029   9.910   5.072   1.860  0.4862 -0.4938 -0.4257
  282MOL0     H38030  10.185   5.326   2.054 -1.1556  0.5837 -0.8247
  282MOL0     H38031  10.225   5.457   2.291 -0.3572  0.1094 -0.6541
  282MOL0     H38032  10.223   5.415   2.794  0.7848  1.1591  2.9614
  282MOL0     H38033  10.309   5.567   2.966  1.6671 -1.6425 -1.5455
  282MOL0     H38034  10.257   5.980   2.977  0.5643 -0.8566 -3.1115
  282MOL0     H38035  10.236   5.817   3.066  3.2448 -1.6210  0.5415
  282MOL0     H38036  10.445   6.020   3.123  0.5953 -0.1793  1.4366
  282MOL0     H38037  10.309   5.970   3.222  0.1910 -3.6885  1.4219
  282MOL0     H38038  10.437   5.728   3.185  0.3313  1.1374 -2.4959
  282MOL0     H38039  10.572   5.854   3.192 -0.4984  0.4340 -0.2744
  282MOL0     H38040  10.470   5.697   3.394 -0.1743 -0.9019  0.2479
  282MOL0     H38041  10.366   5.834   3.414  1.4551 -0.1120  2.5004
  282MOL0     H38042  10.674   5.844   3.440 -0.4300 -0.7997  0.5116
  282MOL0     H38043  10.559   5.860   3.561  0.9718 -3.8631 -0.4161
  282MOL0     H38044  10.604   6.056   3.305  2.9773 -0.0952  0.7032
  282MOL0     H38045  10.461   6.076   3.410 -0.6703 -1.5421 -1.4427
  282MOL0     H38046  10.648   6.233   3.442  1.8455  0.4297  1.2073
  282MOL0     H38047  10.763   6.110   3.486 -0.6267 -2.1847 -0.8185
  282MOL0     H38048  10.514   6.149   3.651 -0.5153 -2.2080 -2.3191
  282MOL0     H38049  10.643   6.050   3.688 -1.7820  1.6758  2.7564
  282MOL0     H38050  10.350   5.890   2.698 -2.8021  0.1123  0.5562
  282MOL0     H38051  10.247   5.745   2.512 -2.9774 -1.3387  1.0926
  282MOL0     H38052   9.902   5.225   2.443 -0.3088 -1.2132 -0.6171
  282MOL0     H38053   9.851   5.130   2.223 -0.3848  0.1550 -0.2348
  282MOL0     H38054   9.430   3.913   1.025 -0.7974 -1.6659  3.2466
  282MOL0     H38055   9.308   3.844   0.820  1.5267  1.3445 -0.0484
  282MOL0     H38056   8.691   3.870   0.721  1.1129 -3.0295  0.3629
  282MOL0     H38057   8.556   3.802   0.531 -0.2959 -1.4535  0.5461
  282MOL0     H38058   8.464   3.698   0.316 -0.4955 -0.5818  0.4151
  282MOL0     H38059   8.563   3.565   0.382  2.9308 -0.5317 -0.5168
  282MOL0     H38060   8.557   3.625   0.089  0.3295 -1.1943 -2.1983
  282MOL0     H38061   8.432   3.528   0.159 -0.2341  1.4726  0.7820
  282MOL0     H38062   8.570   3.345   0.203 -2.0365  1.0730  0.7742
  282MOL0     H38063   8.703   3.432   0.249 -1.9756 -0.0747  1.9813
  282MOL0     H38064   8.628   3.407  -0.055  1.1774 -0.1443 -1.4415
  282MOL0     H38065   8.740   3.521   0.014  1.6762 -0.6584 -1.0077
  282MOL0     H38066   8.966   3.168   0.069 -2.5171 -2.3020  4.0292
  282MOL0     H38067   8.918   3.782   0.294  0.3546  1.2154  1.4148
  282MOL0     H38068   9.148   3.780   0.497  0.7770 -0.1819 -1.1040
  282MOL0     H38069   9.109   3.899   0.373 -0.4558  1.1055 -0.2558
  282MOL0     H38070   9.128   3.940   0.551  1.9913 -1.5242 -0.6849
  283MOL0     O38071   6.027   6.437   1.131  0.6594  1.1968 -0.7765
  283MOL0     C38072   6.037   6.552   1.161 -0.3617 -1.0450 -0.0640
  283MOL0     O38073   5.944   6.650   1.137 -0.5534  0.0096  0.4609
  283MOL0     C38074   5.835   6.624   1.064 -0.1303  0.3510  0.5068
  283MOL0     C38075   5.812   6.699   0.951  0.2009 -0.0512  0.4187
  283MOL0     C38076   5.704   6.668   0.884 -0.4060 -1.0416  0.3537
  283MOL0     C38077   5.608   6.579   0.930 -0.5974  0.7982 -0.2111
  283MOL0     O38078   5.495   6.548   0.862  0.5716  0.4616 -0.5190
  283MOL0     C38079   5.492   6.566   0.723  0.0112  0.7489  0.1700
  283MOL0     C38080   5.379   6.479   0.675 -0.4614  0.6433  1.2239
  283MOL0     C38081   5.237   6.516   0.721  0.6643 -0.2314  0.0979
  283MOL0     C38082   5.140   6.398   0.708  0.1095  1.1212 -0.7273
  283MOL0     C38083   4.994   6.437   0.721  0.7450  0.8204  0.1833
  283MOL0     C38084   4.905   6.311   0.700 -0.3531 -0.0109 -0.9755
  283MOL0     C38085   4.884   6.253   0.556  0.4517 -0.0003  0.5450
  283MOL0     C38086   4.761   6.165   0.548 -0.0745  0.8509 -0.3300
  283MOL0     N38087   4.704   6.116   0.422 -0.6844 -0.3188 -0.4279
  283MOL0     C38088   4.637   6.196   0.335  0.6333 -0.5537  0.5037
  283MOL0     C38089   4.633   6.132   0.227  0.4104 -0.0355  0.6198
  283MOL0     C38090   4.555   6.174   0.104  0.5274  0.5995 -0.2222
  283MOL0     C38091   4.404   6.141   0.112 -0.2128 -0.6449 -0.0395
  283MOL0     C38092   4.381   5.986   0.101  0.1339 -0.7230 -0.0139
  283MOL0     C38093   4.238   5.963   0.044  0.1625  0.6284 -0.0020
  283MOL0     O38094   4.132   6.035   0.105  0.5858  0.5311  1.2431
  283MOL0     C38095   4.004   6.016   0.037 -0.2177 -0.0516 -0.1210
  283MOL0     C38096   3.908   6.101   0.084  0.7875  0.4638  0.5842
  283MOL0     C38097   3.778   6.098   0.023 -0.2080 -0.1026  0.1963
  283MOL0     C38098   3.751   6.007  -0.085  0.3766 -0.3499 -0.2003
  283MOL0     C38099   3.619   6.003  -0.154  0.1917 -0.2032 -0.0611
  283MOL0     O38100   3.611   5.920  -0.270  0.1272  0.6751 -0.2227
  283MOL0     C38101   3.503   5.949  -0.352  0.4957 -0.0397  0.6485
  283MOL0     C38102   3.376   5.882  -0.349  0.7310 -0.2872  0.7172
  283MOL0     C38103   3.271   5.906  -0.441  0.4508 -0.1499  0.5558
  283MOL0     C38104   3.297   5.991  -0.547  0.0287 -0.1083 -0.0602
  283MOL0     O38105   3.210   6.018  -0.646  0.1709  0.2353 -0.2924
  283MOL0     C38106   3.075   6.058  -0.600 -0.3142 -0.0948  0.3356
  283MOL0     C38107   3.026   6.139  -0.715  0.3370 -0.0292 -1.1847
  283MOL0     C38108   2.897   6.231  -0.694  0.1177 -0.0833  0.1353
  283MOL0     C38109   2.812   6.273  -0.808  0.1735  0.3565  0.5395
  283MOL0     C38110   2.892   6.347  -0.910  0.3616 -0.2917  0.3840
  283MOL0     C38111   2.785   6.413  -1.015 -0.3161  0.3911 -0.8046
  283MOL0     C38112   2.719   6.299  -1.107 -0.4765 -0.6398 -0.1306
  283MOL0     C38113   2.609   6.348  -1.205  0.8577 -0.0648 -0.0228
  283MOL0    Cl38114   2.674   6.477  -1.311 -0.1099 -0.4712  0.2208
  283MOL0     C38115   3.422   6.056  -0.553  0.1317  0.0859 -0.2034
  283MOL0     C38116   3.525   6.038  -0.456 -0.4387  0.3112 -0.2446
  283MOL0     O38117   3.528   6.079  -0.119 -0.1164  0.4347  0.1083
  283MOL0     C38118   3.858   5.926  -0.127 -0.3769  0.4149  0.2381
  283MOL0     C38119   3.978   5.929  -0.067 -0.1806 -0.2696 -0.1314
  283MOL0     N38120   4.693   6.001   0.249 -0.8952  0.1390  0.2691
  283MOL0     N38121   4.732   5.996   0.364  0.1353 -0.2217  0.0433
  283MOL0     C38122   5.626   6.514   1.051  0.2231 -0.3953  0.5744
  283MOL0     C38123   5.742   6.539   1.125 -0.2487 -0.0473  1.1493
  283MOL0     C38124   6.160   6.604   1.216  0.4817 -0.6845 -1.2048
  283MOL0     C38125   6.178   6.747   1.225 -1.1656  0.6063 -0.2344
  283MOL0     C38126   6.301   6.804   1.271 -0.1540 -0.0822 -0.1605
  283MOL0     C38127   6.403   6.731   1.335 -0.7720  0.6697 -1.1588
  283MOL0     O38128   6.528   6.784   1.369  0.3858  0.5214  0.0707
  283MOL0     C38129   6.578   6.778   1.504 -0.0803 -0.3372 -0.9213
  283MOL0     C38130   6.725   6.757   1.512  0.6122 -0.3556  0.5171
  283MOL0     C38131   6.775   6.607   1.513  0.0068 -0.3410 -0.0446
  283MOL0     C38132   6.756   6.559   1.662  0.4068 -0.8934  0.1828
  283MOL0     C38133   6.836   6.624   1.764  0.0861  0.2448  0.2539
  283MOL0     C38134   6.892   6.693   1.851  0.0814 -0.2238 -0.4007
  283MOL0     C38135   6.375   6.590   1.334 -0.1828  0.3709  0.2837
  283MOL0     C38136   6.266   6.524   1.272 -0.4741 -0.7316  0.8050
  283MOL0     C38137   6.269   6.383   1.274  0.6100 -0.1686  0.0832
  283MOL0     H38138   5.892   6.767   0.923  0.8711 -0.9442  0.0830
  283MOL0     H38139   5.685   6.715   0.788 -0.2459 -1.5320  0.0794
  283MOL0     H38140   5.476   6.670   0.691 -2.0090  0.3054 -0.3828
  283MOL0     H38141   5.582   6.529   0.672  2.0740 -1.6911  4.9201
  283MOL0     H38142   5.401   6.377   0.710  0.3273 -0.0263 -1.0626
  283MOL0     H38143   5.381   6.476   0.566 -0.4613 -2.4323  1.2060
  283MOL0     H38144   5.197   6.603   0.669  1.2059  0.2476  0.4735
  283MOL0     H38145   5.249   6.546   0.825  3.9140 -1.3164  0.1386
  283MOL0     H38146   5.157   6.352   0.610  0.3038 -0.7630  0.1439
  283MOL0     H38147   5.154   6.325   0.788 -0.1459 -1.0934 -2.5788
  283MOL0     H38148   4.973   6.477   0.820 -0.9775  0.7785 -0.1354
  283MOL0     H38149   4.970   6.514   0.648 -3.2790 -1.0569 -0.7394
  283MOL0     H38150   4.958   6.230   0.751  1.4787  1.0789 -1.0623
  283MOL0     H38151   4.812   6.329   0.755  1.2546 -2.4179  2.9402
  283MOL0     H38152   4.972   6.203   0.513  1.3420  1.0364  1.1095
  283MOL0     H38153   4.865   6.342   0.494  1.6407 -0.1688 -0.0994
  283MOL0     H38154   4.790   6.073   0.600 -1.0215  0.6831 -0.0849
  283MOL0     H38155   4.679   6.216   0.600  2.5857  2.2294  2.8756
  283MOL0     H38156   4.584   6.285   0.365 -0.3063  0.2468 -3.0084
  283MOL0     H38157   4.553   6.283   0.102 -0.5307  0.6419  1.2880
  283MOL0     H38158   4.607   6.133   0.017 -0.7780  0.2617 -0.8737
  283MOL0     H38159   4.359   6.172   0.206 -2.3154 -0.7899 -0.9545
  283MOL0     H38160   4.358   6.192   0.027 -3.0528 -2.1509  0.4866
  283MOL0     H38161   4.401   5.923   0.188 -3.2548 -0.3722  1.1329
  283MOL0     H38162   4.448   5.945   0.025  2.7479 -2.3612  2.9243
  283MOL0     H38163   4.215   5.857   0.061 -0.8457  0.5496 -1.6662
  283MOL0     H38164   4.249   5.972  -0.064 -0.3657 -1.0831 -0.2310
  283MOL0     H38165   3.927   6.172   0.165 -2.3165  0.9502  0.9916
  283MOL0     H38166   3.701   6.168   0.054  0.9215  2.1620 -1.7632
  283MOL0     H38167   3.368   5.802  -0.277  0.4481  1.7982  3.1350
  283MOL0     H38168   3.184   5.842  -0.444  1.8069 -2.2614  2.5864
  283MOL0     H38169   3.006   5.976  -0.584 -1.6673  1.0032  0.3046
  283MOL0     H38170   3.085   6.123  -0.513  3.6023 -2.9475  2.3364
  283MOL0     H38171   3.111   6.199  -0.747  0.3825 -0.3118 -1.5971
  283MOL0     H38172   3.003   6.077  -0.802 -3.3659  0.0277 -0.4051
  283MOL0     H38173   2.830   6.170  -0.633  3.2771 -3.5400  0.5395
  283MOL0     H38174   2.945   6.307  -0.631  2.9585 -0.3793 -1.4782
  283MOL0     H38175   2.741   6.343  -0.762  1.2559  1.0093  1.2574
  283MOL0     H38176   2.754   6.190  -0.848 -1.3007  1.9917 -0.9172
  283MOL0     H38177   2.946   6.280  -0.978  1.0159  1.1924 -0.6098
  283MOL0     H38178   2.960   6.419  -0.864 -0.2011 -2.1138  4.5111
  283MOL0     H38179   2.708   6.479  -0.974 -1.4686 -0.6581 -1.2119
  283MOL0     H38180   2.848   6.479  -1.076  0.0365  0.8510  0.0419
  283MOL0     H38181   2.687   6.219  -1.041 -1.0039 -0.8076 -0.5841
  283MOL0     H38182   2.796   6.256  -1.172  1.5306  2.0137  0.3160
  283MOL0     H38183   2.563   6.265  -1.261  0.7647  2.7048 -4.5354
  283MOL0     H38184   2.532   6.407  -1.155 -0.5127 -0.1473 -1.9380
  283MOL0     H38185   3.438   6.109  -0.646 -0.2360  1.2002  0.3468
  283MOL0     H38186   3.625   6.077  -0.472  0.5809 -1.4748  1.2535
  283MOL0     H38187   3.847   5.862  -0.214  2.4690 -0.4899  0.4254
  283MOL0     H38188   4.050   5.865  -0.117  1.5208  0.8457  0.7844
  283MOL0     H38189   5.550   6.441   1.076 -2.3621  2.3453  1.3208
  283MOL0     H38190   5.757   6.481   1.215  0.2967 -0.8562  0.5534
  283MOL0     H38191   6.102   6.816   1.189 -0.7885  1.8877  1.2851
  283MOL0     H38192   6.318   6.911   1.264 -0.6069 -0.0628 -1.0303
  283MOL0     H38193   6.520   6.710   1.567 -0.2796  2.6056  2.3966
  283MOL0     H38194   6.552   6.873   1.552 -1.8629 -1.0334 -0.4179
  283MOL0     H38195   6.770   6.811   1.597  1.2058  2.2296 -1.3205
  283MOL0     H38196   6.776   6.804   1.427  2.6930  1.2812  2.5197
  283MOL0     H38197   6.880   6.601   1.482  0.6864  0.6811  1.8555
  283MOL0     H38198   6.721   6.532   1.455  3.0385 -0.8075 -2.5115
  283MOL0     H38199   6.651   6.575   1.690 -0.1274  2.5655 -2.9691
  283MOL0     H38200   6.772   6.451   1.664 -1.5455 -1.2166  1.0473
  283MOL0     H38201   6.933   6.756   1.927 -1.8481 -0.2347  0.7239
  283MOL0     H38202   6.452   6.531   1.382  0.1537 -0.4903 -1.2422
  283MOL0     H38203   6.272   6.331   1.177 -0.0613 -1.2126  0.5987
  283MOL0     H38204   6.355   6.347   1.330  1.1946  3.6788  1.9974
  283MOL0     H38205   6.180   6.347   1.327  1.4038  1.0222  2.3405
  284MOL0     O38206   1.413   0.683   7.899 -0.0363  0.5067 -0.5087
  284MOL0     C38207   1.523   0.626   7.903 -0.0513  0.5541  0.1256
  284MOL0     O38208   1.622   0.668   7.990  0.1028  0.1645 -0.2545
  284MOL0     C38209   1.618   0.803   8.029  0.5673 -0.1244  0.1743
  284MOL0     C38210   1.613   0.917   7.940 -0.2480  0.7485 -0.9778
  284MOL0     C38211   1.629   1.046   7.988 -0.6315 -0.5409 -0.4769
  284MOL0     C38212   1.650   1.068   8.121  0.0554 -0.7850 -0.2776
  284MOL0     O38213   1.658   1.197   8.179  0.5113 -0.3534 -0.2141
  284MOL0     C38214   1.552   1.286   8.147 -0.8196  0.5185  0.4382
  284MOL0     C38215   1.424   1.265   8.230 -0.0882  0.0001  0.1013
  284MOL0     C38216   1.447   1.241   8.387  0.4041  0.4063  0.4103
  284MOL0     C38217   1.330   1.165   8.452  0.3901 -0.7485  0.6691
  284MOL0     C38218   1.192   1.217   8.414  0.0519  0.1276 -0.3581
  284MOL0     C38219   1.083   1.154   8.496  0.7120 -0.6675 -1.5014
  284MOL0     C38220   0.948   1.213   8.441  0.6112  0.4484 -0.0877
  284MOL0     C38221   0.941   1.366   8.450  0.9732  1.0881  0.0410
  284MOL0     N38222   0.796   1.403   8.418  0.8246  0.3565 -0.2292
  284MOL0     C38223   0.750   1.432   8.297  0.2421  0.5959  0.0745
  284MOL0     C38224   0.622   1.456   8.319 -0.4510  0.2000  0.0618
  284MOL0     C38225   0.523   1.493   8.211 -0.5690  0.4323 -0.2667
  284MOL0     C38226   0.543   1.628   8.139  0.4564 -0.0143  0.4237
  284MOL0     C38227   0.402   1.665   8.083 -0.4793  0.0351  0.0720
  284MOL0     C38228   0.378   1.812   8.061 -0.1472 -0.5864  0.5873
  284MOL0     O38229   0.261   1.831   7.981  0.4197 -0.5765  0.0827
  284MOL0     C38230   0.190   1.951   7.977 -0.0984  0.2951 -0.1427
  284MOL0     C38231   0.072   1.956   7.919  1.3226  1.0669  0.6358
  284MOL0     C38232   0.002   2.077   7.906 -0.0759  0.3019  0.3481
  284MOL0     C38233   0.057   2.197   7.953 -0.4307 -0.2339  0.9258
  284MOL0     C38234  -0.017   2.319   7.936  1.3451 -0.4283  0.4835
  284MOL0     O38235  -0.157   2.308   7.920  0.1963 -0.3835 -0.8529
  284MOL0     C38236  -0.242   2.418   7.922 -0.6402  0.3984 -0.2198
  284MOL0     C38237  -0.370   2.397   7.977 -0.2279 -0.0882 -0.5406
  284MOL0     C38238  -0.472   2.489   7.957 -0.3252 -0.0590 -0.4369
  284MOL0     C38239  -0.456   2.590   7.864  0.6864  0.6287 -0.1539
  284MOL0     O38240  -0.555   2.676   7.843  0.3124  0.1924 -0.3218
  284MOL0     C38241  -0.526   2.817   7.831 -0.5003 -0.0715  0.0301
  284MOL0     C38242  -0.445   2.883   7.944  0.4483  0.6719 -0.2085
  284MOL0     C38243  -0.490   3.029   7.986  0.3597 -0.0201  0.3970
  284MOL0     C38244  -0.491   3.125   7.862  0.4864  0.2901 -0.9820
  284MOL0     C38245  -0.497   3.267   7.907  0.6822 -0.6873 -0.9077
  284MOL0     C38246  -0.537   3.370   7.802 -0.2140 -0.1473  0.2838
  284MOL0     C38247  -0.483   3.510   7.846 -0.1668 -1.0476  0.4256
  284MOL0     C38248  -0.565   3.585   7.948 -0.9269 -0.0743 -0.2294
  284MOL0    Cl38249  -0.556   3.507   8.102 -0.1115  0.1654 -0.0463
  284MOL0     C38250  -0.329   2.613   7.809  0.7847  0.2967 -0.3251
  284MOL0     C38251  -0.220   2.532   7.839  0.0394  0.6216 -0.4054
  284MOL0     O38252   0.046   2.430   7.949  0.0614 -0.0707  0.3397
  284MOL0     C38253   0.184   2.192   8.006 -0.4791  0.4666 -0.6000
  284MOL0     C38254   0.251   2.069   8.023 -0.4101 -0.2640 -0.0703
  284MOL0     N38255   0.586   1.416   8.441  0.2248 -0.5786 -0.0948
  284MOL0     N38256   0.692   1.383   8.505  0.3089  0.2510 -0.3651
  284MOL0     C38257   1.651   0.962   8.217 -0.2754  1.5463 -0.4343
  284MOL0     C38258   1.639   0.825   8.164 -0.3036  0.6659 -1.0185
  284MOL0     C38259   1.555   0.485   7.835 -0.0983 -0.2865 -0.1484
  284MOL0     C38260   1.677   0.425   7.866 -0.1695  0.2008 -1.3190
  284MOL0     C38261   1.713   0.297   7.821  0.6492 -0.2384 -0.4065
  284MOL0     C38262   1.637   0.229   7.732  0.7586  0.2718  0.0962
  284MOL0     O38263   1.686   0.114   7.679  0.1259  0.0312 -0.0641
  284MOL0     C38264   1.653   0.077   7.543  0.3859 -0.0679 -0.2495
  284MOL0     C38265   1.543  -0.031   7.548  0.8486 -0.4287 -0.8029
  284MOL0     C38266   1.562  -0.162   7.625  0.1428  0.3939  1.3017
  284MOL0     C38267   1.437  -0.239   7.662  0.0357 -0.0766 -0.2628
  284MOL0     C38268   1.336  -0.257   7.555  0.1849 -0.2114 -0.2086
  284MOL0     C38269   1.256  -0.264   7.465  0.2034  0.8906 -0.3610
  284MOL0     C38270   1.518   0.285   7.695 -0.0841  0.1744  0.5470
  284MOL0     C38271   1.471   0.416   7.742  0.8209 -0.1840 -0.1687
  284MOL0     C38272   1.321   0.450   7.722 -1.0811 -0.2699 -0.6227
  284MOL0     H38273   1.594   0.905   7.834  1.9652 -2.2908 -1.1576
  284MOL0     H38274   1.632   1.124   7.913  2.6570  0.7248  0.7684
  284MOL0     H38275   1.593   1.386   8.165 -2.5382  1.2289  0.5482
  284MOL0     H38276   1.536   1.278   8.039  2.0501 -2.6540  0.0862
  284MOL0     H38277   1.368   1.184   8.182 -1.4876  0.8955  0.1871
  284MOL0     H38278   1.369   1.357   8.209  0.4054  0.3138  0.1634
  284MOL0     H38279   1.461   1.336   8.441 -0.1553  0.9522 -0.3736
  284MOL0     H38280   1.538   1.181   8.390 -1.5597 -2.9682 -1.3433
  284MOL0     H38281   1.351   1.059   8.433  3.2696 -0.2037  0.4267
  284MOL0     H38282   1.333   1.172   8.561 -0.7711 -0.2530  0.6795
  284MOL0     H38283   1.203   1.325   8.423  1.8410 -0.0868  0.6847
  284MOL0     H38284   1.164   1.188   8.313 -0.4599 -3.0509  0.5842
  284MOL0     H38285   1.079   1.044   8.501  1.3367 -0.6292  1.2774
  284MOL0     H38286   1.104   1.189   8.597 -1.1327  2.6947 -2.1627
  284MOL0     H38287   0.868   1.166   8.498  0.6535 -1.1364 -1.2767
  284MOL0     H38288   0.931   1.195   8.335 -2.2132  0.3466  0.3197
  284MOL0     H38289   0.956   1.386   8.556 -0.8485 -2.4101  1.1035
  284MOL0     H38290   1.016   1.419   8.389  1.0956 -0.1819 -0.9487
  284MOL0     H38291   0.795   1.418   8.199 -2.6628 -0.0345 -1.2737
  284MOL0     H38292   0.518   1.410   8.141  0.0478 -1.5323  1.8789
  284MOL0     H38293   0.429   1.481   8.266 -0.4952  2.6645  0.4607
  284MOL0     H38294   0.563   1.709   8.211 -3.7411  2.7493 -1.1144
  284MOL0     H38295   0.622   1.628   8.064  0.5730  3.3118  0.4009
  284MOL0     H38296   0.318   1.639   8.149 -0.9950  0.4380 -0.4141
  284MOL0     H38297   0.382   1.615   7.987  1.0190 -3.6936  1.5123
  284MOL0     H38298   0.467   1.851   8.011 -0.8772 -0.4140 -0.6180
  284MOL0     H38299   0.372   1.862   8.158  0.2929 -2.3461  1.5760
  284MOL0     H38300   0.038   1.863   7.876  1.2422  1.2346  0.3334
  284MOL0     H38301  -0.095   2.075   7.858  0.3805  3.1691 -0.8767
  284MOL0     H38302  -0.393   2.311   8.039 -0.4717  2.5805  3.5064
  284MOL0     H38303  -0.570   2.474   8.000 -0.3998  0.0465 -0.5682
  284MOL0     H38304  -0.490   2.837   7.730 -2.8113 -1.0960 -1.0808
  284MOL0     H38305  -0.625   2.864   7.832  0.3453  1.7992 -0.3011
  284MOL0     H38306  -0.464   2.817   8.029  0.9905  2.9712  1.8266
  284MOL0     H38307  -0.339   2.893   7.920  0.6212  0.1584  0.3380
  284MOL0     H38308  -0.587   3.033   8.035 -1.2258  1.5331 -2.5379
  284MOL0     H38309  -0.416   3.053   8.062  0.3682 -3.7357  1.7390
  284MOL0     H38310  -0.573   3.095   7.796  0.6041  0.6915 -1.3104
  284MOL0     H38311  -0.395   3.112   7.810  0.4205 -2.5464 -0.5389
  284MOL0     H38312  -0.398   3.289   7.948 -0.2217 -0.6000  1.3679
  284MOL0     H38313  -0.563   3.261   7.994  0.7031 -0.9194 -0.9064
  284MOL0     H38314  -0.473   3.354   7.715 -1.4762  3.8519 -1.6235
  284MOL0     H38315  -0.643   3.370   7.777 -1.0360  0.2934  3.3189
  284MOL0     H38316  -0.478   3.568   7.753  2.0014 -2.5021 -0.4697
  284MOL0     H38317  -0.382   3.504   7.887  0.4407  3.1403  0.0656
  284MOL0     H38318  -0.530   3.688   7.959  2.4164 -0.6140 -3.5435
  284MOL0     H38319  -0.668   3.578   7.914 -0.4685 -2.8287 -1.3084
  284MOL0     H38320  -0.301   2.694   7.741  1.6704 -1.1330 -1.7387
  284MOL0     H38321  -0.121   2.538   7.794  0.5366 -1.1461  0.3689
  284MOL0     H38322   0.225   2.285   8.045 -0.7124 -0.4279  2.0148
  284MOL0     H38323   0.349   2.079   8.067  0.6429 -1.6089 -1.9335
  284MOL0     H38324   1.656   0.996   8.320 -1.8267 -0.9412  0.5549
  284MOL0     H38325   1.664   0.746   8.233  2.6037  0.3480 -2.3209
  284MOL0     H38326   1.731   0.458   7.954 -2.6212  0.5269  0.1514
  284MOL0     H38327   1.800   0.254   7.870  2.0098 -1.3767 -3.5608
  284MOL0     H38328   1.741   0.031   7.496 -1.6042 -4.0492 -0.5429
  284MOL0     H38329   1.613   0.164   7.490 -1.7123  0.3228  1.8475
  284MOL0     H38330   1.499  -0.047   7.449 -2.3161  3.6160 -0.2858
  284MOL0     H38331   1.462   0.020   7.601  1.7045  1.6425 -1.3713
  284MOL0     H38332   1.604  -0.148   7.725 -2.0187 -0.8279  2.4759
  284MOL0     H38333   1.622  -0.232   7.565 -1.7115 -2.4878  2.5713
  284MOL0     H38334   1.462  -0.343   7.684  1.9538  1.1167  4.2699
  284MOL0     H38335   1.392  -0.192   7.750 -1.4664  2.4461 -2.2516
  284MOL0     H38336   1.173  -0.288   7.402 -0.7537  2.6635  0.1627
  284MOL0     H38337   1.441   0.232   7.640 -0.7710  0.4295  1.2383
  284MOL0     H38338   1.276   0.351   7.719 -0.4186 -0.5828 -0.2927
  284MOL0     H38339   1.275   0.509   7.802  1.1797  1.5009 -0.5126
  284MOL0     H38340   1.304   0.500   7.626 -0.5675 -3.5902 -2.5854
  285MOL0     O38341   0.525   9.740   7.161  0.2340 -0.3066  0.4224
  285MOL0     C38342   0.603   9.692   7.082 -0.4282 -0.0073  0.0756
  285MOL0     O38343   0.727   9.735   7.061  0.8153 -0.4075 -0.2618
  285MOL0     C38344   0.765   9.853   7.107  0.7168  0.2821 -1.6257
  285MOL0     C38345   0.685   9.962   7.118  0.9619  0.1465  0.0616
  285MOL0     C38346   0.733  10.085   7.166  0.2289  0.2684  0.2547
  285MOL0     C38347   0.865  10.089   7.215 -0.1021  0.9231 -0.3556
  285MOL0     O38348   0.920  10.204   7.273 -0.7423 -0.1011 -0.0643
  285MOL0     C38349   1.031  10.251   7.204  0.2702 -0.3036 -0.0915
  285MOL0     C38350   1.034  10.406   7.224 -0.3229  0.6388 -0.7581
  285MOL0     C38351   0.942  10.470   7.132  1.1122 -0.0866  1.3636
  285MOL0     C38352   1.007  10.510   6.992  0.3929  0.6405 -0.3117
  285MOL0     C38353   0.907  10.553   6.885 -0.6392  0.4398  1.3299
  285MOL0     C38354   0.955  10.540   6.742  0.0918  0.7264  0.1218
  285MOL0     C38355   1.072  10.652   6.710  0.5975  0.8068 -1.2189
  285MOL0     C38356   1.070  10.712   6.572  1.5588  0.1265  0.6309
  285MOL0     N38357   1.080  10.613   6.464  0.3394  0.6709 -0.0205
  285MOL0     C38358   1.198  10.562   6.420 -0.3212 -0.7665 -0.6751
  285MOL0     C38359   1.165  10.503   6.305  0.8478 -0.0262  0.0105
  285MOL0     C38360   1.260  10.425   6.216  0.5044 -0.4625  0.1218
  285MOL0     C38361   1.310  10.298   6.286 -0.2304 -0.4544 -0.7794
  285MOL0     C38362   1.356  10.195   6.191 -0.5041 -0.8817  1.0430
  285MOL0     C38363   1.470  10.240   6.099 -0.0534  0.0863  0.4877
  285MOL0     O38364   1.583  10.272   6.184  0.8281 -0.3903 -0.2528
  285MOL0     C38365   1.651  10.385   6.154  0.1685 -0.9995  0.6843
  285MOL0     C38366   1.669  10.437   6.024 -1.0564  0.3202 -0.5725
  285MOL0     C38367   1.749  10.555   5.999  0.8705 -0.4010 -0.8004
  285MOL0     C38368   1.796  10.625   6.108 -0.8996 -1.1647 -0.1060
  285MOL0     C38369   1.873  10.751   6.099 -0.2484  0.0923  0.4400
  285MOL0     O38370   1.946  10.770   5.988 -0.1054  0.6345  0.5792
  285MOL0     C38371   2.015  10.886   5.978 -0.4637 -0.6016 -0.8949
  285MOL0     C38372   2.150  10.878   5.954 -0.7703  0.4006  0.0493
  285MOL0     C38373   2.228  10.996   5.944  0.3730 -0.3249 -0.8762
  285MOL0     C38374   2.169  11.121   5.921  0.1788  0.2839 -0.4711
  285MOL0     O38375   2.248  11.225   5.890  0.3774 -0.3559 -0.4863
  285MOL0     C38376   2.217  11.345   5.975  0.4082  0.4445 -0.0196
  285MOL0     C38377   2.348  11.408   6.018  0.0106 -0.3372  0.0518
  285MOL0     C38378   2.401  11.502   5.899 -0.5394 -0.4885 -0.6383
  285MOL0     C38379   2.500  11.608   5.960  0.7573  0.8729  0.1564
  285MOL0     C38380   2.554  11.708   5.861 -0.4089  0.8658 -0.4509
  285MOL0     C38381   2.639  11.826   5.922 -0.7050  0.5911 -1.0360
  285MOL0     C38382   2.785  11.772   5.959  0.2138 -0.6177 -0.6187
  285MOL0     C38383   2.868  11.892   6.002  0.1435  0.0236  0.7229
  285MOL0    Cl38384   3.047  11.863   6.012 -0.0917 -0.1774 -0.2775
  285MOL0     C38385   2.035  11.128   5.943  0.2104 -0.2744 -0.0840
  285MOL0     C38386   1.956  11.014   5.972  0.0692 -0.9055 -1.3523
  285MOL0     O38387   1.871  10.826   6.199 -0.8909  0.2697  1.0226
  285MOL0     C38388   1.766  10.577   6.244 -0.0125 -0.5942  0.2936
  285MOL0     C38389   1.701  10.457   6.261 -0.3954 -0.0604  0.8656
  285MOL0     N38390   1.032  10.520   6.276  0.9768  0.2665  1.5329
  285MOL0     N38391   0.982  10.594   6.366 -1.2375 -0.5886 -0.0446
  285MOL0     C38392   0.948   9.973   7.199  0.5692  0.1849  0.1752
  285MOL0     C38393   0.895   9.859   7.135 -0.6282 -0.7804  0.2479
  285MOL0     C38394   0.572   9.575   7.004  0.4724  0.0232  0.2987
  285MOL0     C38395   0.595   9.572   6.867  0.0947  0.0985  0.9035
  285MOL0     C38396   0.549   9.478   6.775 -0.2365  1.1978  0.9724
  285MOL0     C38397   0.479   9.356   6.823 -0.2348  0.3456  0.5064
  285MOL0     O38398   0.422   9.250   6.750 -0.3310  0.4828  0.3738
  285MOL0     C38399   0.286   9.269   6.697 -1.0050  0.0477 -0.7686
  285MOL0     C38400   0.293   9.331   6.556 -0.0468  0.7390  0.9001
  285MOL0     C38401   0.156   9.400   6.510 -0.5314  0.1630  0.3212
  285MOL0     C38402   0.062   9.299   6.444 -0.1343  1.1152  0.1947
  285MOL0     C38403  -0.070   9.371   6.414 -0.7853 -0.6667  0.2243
  285MOL0     C38404  -0.163   9.447   6.375 -0.0408  0.3605  0.6940
  285MOL0     C38405   0.459   9.365   6.961  0.0539 -0.2842  0.6344
  285MOL0     C38406   0.503   9.464   7.050  0.7010 -0.5110 -0.4967
  285MOL0     C38407   0.465   9.440   7.196  0.0002 -0.1316  0.2087
  285MOL0     H38408   0.584   9.976   7.081  0.7338 -1.6132 -0.0593
  285MOL0     H38409   0.667  10.170   7.171  2.0053  1.6234  2.6764
  285MOL0     H38410   1.115  10.199   7.251  0.4090 -0.5382 -0.5910
  285MOL0     H38411   1.017  10.228   7.098 -4.2322 -0.0483  0.2513
  285MOL0     H38412   1.138  10.436   7.208  0.9802 -2.6993  0.3499
  285MOL0     H38413   1.008  10.440   7.325  1.0924  1.3261 -0.6073
  285MOL0     H38414   0.897  10.547   7.195  0.5445  2.9634 -2.4204
  285MOL0     H38415   0.851  10.411   7.119 -1.1839  3.0449  2.0517
  285MOL0     H38416   1.082  10.587   7.010  1.5838 -0.7366  0.7969
  285MOL0     H38417   1.064  10.426   6.951  2.2919  1.5491  0.3374
  285MOL0     H38418   0.822  10.484   6.895 -2.2551  2.2344  0.6900
  285MOL0     H38419   0.872  10.655   6.907 -0.9426  1.4077 -2.9099
  285MOL0     H38420   0.990  10.439   6.717 -0.5298 -0.1370  2.4424
  285MOL0     H38421   0.874  10.554   6.669  3.2272 -0.0571 -3.8380
  285MOL0     H38422   1.173  10.615   6.729 -0.9811 -3.5523 -0.2073
  285MOL0     H38423   1.053  10.741   6.772 -0.4420 -0.0849 -0.2193
  285MOL0     H38424   0.971  10.756   6.555  0.4057 -3.1404 -2.2732
  285MOL0     H38425   1.145  10.792   6.568  1.1130  0.7006  2.6381
  285MOL0     H38426   1.292  10.563   6.474 -1.3415  2.7488  1.3361
  285MOL0     H38427   1.199  10.391   6.132  2.0245  0.6857 -1.5276
  285MOL0     H38428   1.343  10.479   6.169  1.2349 -1.8391 -0.2440
  285MOL0     H38429   1.386  10.333   6.356 -0.3996 -2.2688  0.3894
  285MOL0     H38430   1.235  10.247   6.346  0.1341  0.9040  0.8842
  285MOL0     H38431   1.273  10.167   6.124  0.9831  1.7008 -2.1823
  285MOL0     H38432   1.391  10.113   6.254 -0.0744  0.1118  2.1263
  285MOL0     H38433   1.423  10.321   6.042 -2.5287  1.1187  3.6738
  285MOL0     H38434   1.494  10.155   6.036 -4.1804 -0.9464 -0.0293
  285MOL0     H38435   1.637  10.372   5.943  3.0267 -1.2762 -1.1419
  285MOL0     H38436   1.769  10.597   5.901  1.2432  0.1342 -0.4980
  285MOL0     H38437   2.200  10.781   5.946  1.2191  1.2146  1.5956
  285MOL0     H38438   2.333  10.991   5.915  0.5243  1.2614 -0.7035
  285MOL0     H38439   2.151  11.420   5.929 -0.5725 -0.1888  0.3189
  285MOL0     H38440   2.157  11.325   6.065 -0.4265 -0.9520 -0.8552
  285MOL0     H38441   2.335  11.476   6.102 -2.0914 -0.4428 -0.1416
  285MOL0     H38442   2.424  11.335   6.048  1.9853  2.0023  1.0531
  285MOL0     H38443   2.453  11.441   5.826  0.6974 -0.5337  0.2347
  285MOL0     H38444   2.318  11.555   5.852 -1.3642  0.5689  1.8487
  285MOL0     H38445   2.593  11.564   5.996  0.5954 -0.4681 -0.9807
  285MOL0     H38446   2.450  11.649   6.049  1.0292  0.8132  0.3377
  285MOL0     H38447   2.467  11.755   5.814  0.9711 -1.7559 -6.4392
  285MOL0     H38448   2.612  11.671   5.776 -1.1778  2.3173 -1.6583
  285MOL0     H38449   2.656  11.905   5.849  4.0990  0.6915 -0.1223
  285MOL0     H38450   2.592  11.859   6.015 -0.1357 -2.0260  0.2905
  285MOL0     H38451   2.841  11.729   5.876 -0.5126 -0.0919 -1.4013
  285MOL0     H38452   2.760  11.700   6.037 -0.0471  2.7373  2.6615
  285MOL0     H38453   2.865  11.973   5.928  2.1862  0.5493  1.1582
  285MOL0     H38454   2.841  11.931   6.100  1.7447 -0.9817  1.5962
  285MOL0     H38455   1.990  11.227   5.942 -0.6270 -0.6554 -0.8037
  285MOL0     H38456   1.848  11.026   5.978 -0.0070 -0.7103 -2.7262
  285MOL0     H38457   1.800  10.640   6.325  0.3270  0.5418 -0.6912
  285MOL0     H38458   1.675  10.417   6.359 -0.0178 -0.0678  0.9624
  285MOL0     H38459   1.048   9.966   7.241  0.1950 -2.2650  0.8195
  285MOL0     H38460   0.968   9.783   7.113  0.9867  0.8813 -0.4166
  285MOL0     H38461   0.657   9.644   6.814 -0.6343 -1.9281 -3.0906
  285MOL0     H38462   0.570   9.490   6.669 -2.1971 -1.6618  0.1569
  285MOL0     H38463   0.237   9.344   6.760  0.9947  1.5434 -0.8744
  285MOL0     H38464   0.239   9.171   6.688 -1.5636  0.2243  0.0899
  285MOL0     H38465   0.317   9.248   6.490 -1.4918 -0.9995  2.4377
  285MOL0     H38466   0.373   9.405   6.550  0.1614  0.4888  0.5734
  285MOL0     H38467   0.183   9.474   6.435  1.4393 -1.8461 -1.0687
  285MOL0     H38468   0.105   9.449   6.594 -1.3058 -1.1026  0.6195
  285MOL0     H38469   0.102   9.265   6.349 -0.4326  0.2477  0.3736
  285MOL0     H38470   0.033   9.215   6.508 -0.6796  0.3420 -1.0431
  285MOL0     H38471  -0.225   9.523   6.332 -0.4145 -0.3486 -0.0503
  285MOL0     H38472   0.410   9.279   7.007 -0.7060 -1.3323 -1.9506
  285MOL0     H38473   0.360   9.468   7.204  0.1739  1.0563 -1.1920
  285MOL0     H38474   0.472   9.332   7.211 -2.7672 -0.3736  0.3238
  285MOL0     H38475   0.531   9.501   7.259 -1.4138  3.3007 -1.3528
  286MOL0     O38476   4.313   0.461  10.913 -0.9381 -0.0924  0.2178
  286MOL0     C38477   4.311   0.341  10.931 -0.0986 -0.4001 -0.7633
  286MOL0     O38478   4.336   0.279  11.045 -0.4119  0.9351 -0.6854
  286MOL0     C38479   4.345   0.363  11.154 -0.5940 -0.5500 -0.1354
  286MOL0     C38480   4.228   0.388  11.223  0.2589  0.6426  0.3561
  286MOL0     C38481   4.246   0.455  11.350  0.4233  0.4916  1.0212
  286MOL0     C38482   4.363   0.475  11.404  0.2892 -0.4776  0.1225
  286MOL0     O38483   4.347   0.526  11.527 -0.0754 -0.3974  0.1370
  286MOL0     C38484   4.456   0.553  11.601 -0.6346  0.1290  0.0421
  286MOL0     C38485   4.394   0.572  11.740  0.5069  0.5849  0.3936
  286MOL0     C38486   4.492   0.574  11.856 -0.1333  0.4064 -0.9826
  286MOL0     C38487   4.413   0.577  11.984  0.5409  0.1762  0.5066
  286MOL0     C38488   4.497   0.584  12.110  0.2008  0.2410 -0.1867
  286MOL0     C38489   4.436   0.579  12.252  0.1694 -0.4990 -1.1237
  286MOL0     C38490   4.409   0.434  12.296 -0.2874 -0.7409 -0.0993
  286MOL0     C38491   4.535   0.342  12.311 -0.4121 -0.0360  0.4076
  286MOL0     N38492   4.653   0.382  12.396  0.3468  0.3986  0.7683
  286MOL0     C38493   4.656   0.461  12.511  0.5133 -0.5036  0.6533
  286MOL0     C38494   4.790   0.488  12.516 -0.3528  0.8464 -0.3341
  286MOL0     C38495   4.863   0.578  12.619 -0.8798  0.1460  0.1679
  286MOL0     C38496   4.786   0.696  12.682  0.2712 -0.3137  0.7853
  286MOL0     C38497   4.871   0.760  12.800  0.5101  0.3595  0.5220
  286MOL0     C38498   4.844   0.694  12.942 -0.1760  0.1781 -0.5870
  286MOL0     O38499   4.741   0.772  13.007  0.8371 -0.0437 -0.3647
  286MOL0     C38500   4.677   0.722  13.119 -1.0982 -0.2302  1.3511
  286MOL0     C38501   4.587   0.808  13.184 -1.0395  0.6291 -0.4689
  286MOL0     C38502   4.530   0.759  13.307  0.7098 -0.2845  0.3188
  286MOL0     C38503   4.562   0.639  13.360  0.9290  0.7891 -0.6192
  286MOL0     C38504   4.485   0.602  13.480 -0.1851  1.0571 -1.3794
  286MOL0     O38505   4.413   0.694  13.547 -0.0094  0.4518  0.2549
  286MOL0     C38506   4.317   0.659  13.635  0.7849 -0.0801 -0.0016
  286MOL0     C38507   4.341   0.683  13.771  0.5939  0.1777 -0.2529
  286MOL0     C38508   4.241   0.669  13.863  0.3288  0.2954  0.5252
  286MOL0     C38509   4.113   0.633  13.827  0.9058 -0.0064  0.3416
  286MOL0     O38510   4.018   0.632  13.922  0.9558 -0.3956  0.3708
  286MOL0     C38511   3.922   0.518  13.921  0.2843  0.8126  0.5415
  286MOL0     C38512   3.844   0.525  14.048 -0.3089  0.3493  0.2190
  286MOL0     C38513   3.760   0.390  14.047  0.8439 -0.7450  0.8364
  286MOL0     C38514   3.690   0.370  14.177  0.1507 -0.0614 -0.0796
  286MOL0     C38515   3.604   0.236  14.176  0.1997  0.9551  1.2127
  286MOL0     C38516   3.509   0.199  14.290 -0.5294  0.2778 -0.1811
  286MOL0     C38517   3.433   0.069  14.250  0.4118 -0.5886  0.9934
  286MOL0     C38518   3.335   0.039  14.354  0.2575  0.7715 -1.5474
  286MOL0    Cl38519   3.214  -0.077  14.283  0.4788  0.1322  0.3602
  286MOL0     C38520   4.085   0.610  13.692  0.7253 -0.3591 -0.4010
  286MOL0     C38521   4.188   0.620  13.594  0.6262 -0.2453 -0.3559
  286MOL0     O38522   4.517   0.491  13.522 -0.2862  0.4323 -0.5823
  286MOL0     C38523   4.661   0.558  13.301  0.2328 -0.6961  0.8267
  286MOL0     C38524   4.710   0.595  13.172  0.1849  0.3127  0.3513
  286MOL0     N38525   4.862   0.433  12.403  0.1565 -0.6133 -0.3610
  286MOL0     N38526   4.777   0.368  12.343  0.2151  0.7317 -0.4233
  286MOL0     C38527   4.479   0.449  11.330 -0.0902 -0.3004 -1.0297
  286MOL0     C38528   4.478   0.395  11.205 -0.3643  0.1521  0.4920
  286MOL0     C38529   4.272   0.255  10.821  0.4833  0.7239  1.1487
  286MOL0     C38530   4.229   0.122  10.857  0.0265  0.3286 -0.1470
  286MOL0     C38531   4.194   0.031  10.758  0.2730  0.6130 -0.1199
  286MOL0     C38532   4.194   0.061  10.627 -0.3674  0.9536 -0.2324
  286MOL0     O38533   4.143  -0.039  10.542  0.0061 -0.2028  0.5372
  286MOL0     C38534   4.091   0.008  10.417  0.7035  0.3944  0.2376
  286MOL0     C38535   3.996  -0.100  10.342  0.3371 -0.2890 -0.3642
  286MOL0     C38536   4.064  -0.242  10.334  0.1704 -0.0074 -0.2227
  286MOL0     C38537   3.963  -0.340  10.257 -0.3991  0.4542 -0.8632
  286MOL0     C38538   3.841  -0.348  10.330 -0.4228  0.5948 -1.1122
  286MOL0     C38539   3.737  -0.360  10.389  0.4702  0.4645 -0.3003
  286MOL0     C38540   4.232   0.189  10.585  0.1113  0.1168 -0.7084
  286MOL0     C38541   4.277   0.278  10.681 -0.1799 -0.6717 -0.1531
  286MOL0     C38542   4.341   0.404  10.632  0.3046  0.0457 -0.2021
  286MOL0     H38543   4.131   0.354  11.190  0.7197  0.5960 -1.0501
  286MOL0     H38544   4.162   0.482  11.413  2.5880  1.4803  3.6450
  286MOL0     H38545   4.525   0.469  11.609 -2.1721 -1.0500  1.7319
  286MOL0     H38546   4.503   0.649  11.578  1.6231 -0.6651  1.0687
  286MOL0     H38547   4.335   0.482  11.760 -1.5810  1.9879  0.8922
  286MOL0     H38548   4.323   0.655  11.740 -0.8499 -0.5434  1.3079
  286MOL0     H38549   4.548   0.668  11.852  1.3877 -0.4107  0.1356
  286MOL0     H38550   4.567   0.494  11.849 -1.1894 -0.6861 -0.2495
  286MOL0     H38551   4.350   0.666  11.986  0.8935  0.4561 -0.3631
  286MOL0     H38552   4.354   0.485  11.990 -1.2028  1.1212 -1.1984
  286MOL0     H38553   4.573   0.507  12.096 -2.0343 -1.8850 -1.2489
  286MOL0     H38554   4.549   0.679  12.095  1.9155 -0.5977  0.1321
  286MOL0     H38555   4.510   0.620  12.321 -0.4915 -1.6825  0.3194
  286MOL0     H38556   4.348   0.643  12.267  0.1813 -1.0150  1.5387
  286MOL0     H38557   4.332   0.387  12.235  0.7280  1.0555 -2.9746
  286MOL0     H38558   4.369   0.428  12.397  2.8484 -4.1726  1.1838
  286MOL0     H38559   4.501   0.250  12.359  1.6359  0.0383  2.1695
  286MOL0     H38560   4.584   0.329  12.214  0.9384  0.6640  0.9666
  286MOL0     H38561   4.567   0.484  12.568  0.5759  0.4386  0.4022
  286MOL0     H38562   4.895   0.507  12.696 -1.4824 -0.1821  0.1225
  286MOL0     H38563   4.942   0.619  12.555 -2.2381  0.1014 -1.6150
  286MOL0     H38564   4.779   0.763  12.596  1.8844 -2.3252 -1.0525
  286MOL0     H38565   4.687   0.664  12.715  0.1708  0.3765  1.1660
  286MOL0     H38566   4.855   0.868  12.805  1.9133  0.6630 -0.8941
  286MOL0     H38567   4.972   0.734  12.767  0.2325  0.0833 -0.1178
  286MOL0     H38568   4.939   0.701  12.995  1.6639 -5.9123 -2.2339
  286MOL0     H38569   4.827   0.586  12.941  0.7964  0.0173 -0.4652
  286MOL0     H38570   4.570   0.908  13.145 -1.4787 -0.3622 -2.9612
  286MOL0     H38571   4.453   0.821  13.352  3.4673  2.3848  1.7631
  286MOL0     H38572   4.444   0.700  13.800  0.6727 -1.4008  0.4841
  286MOL0     H38573   4.278   0.673  13.965  0.2983 -0.7412  0.5891
  286MOL0     H38574   3.848   0.512  13.840  0.4801 -0.5700  0.4398
  286MOL0     H38575   3.976   0.422  13.916  0.9972  1.1902  0.9082
  286MOL0     H38576   3.919   0.514  14.126 -0.5784 -1.1316  0.3055
  286MOL0     H38577   3.782   0.615  14.049  2.2957  2.2601 -0.1663
  286MOL0     H38578   3.697   0.376  13.959  1.7917 -0.0753  0.0222
  286MOL0     H38579   3.840   0.315  14.041  0.5531 -0.9589 -2.4583
  286MOL0     H38580   3.617   0.448  14.198  0.0794 -0.1045 -0.1646
  286MOL0     H38581   3.760   0.372  14.261  0.0187  1.9462  0.0319
  286MOL0     H38582   3.668   0.150  14.154 -0.5696  0.6204  0.1861
  286MOL0     H38583   3.529   0.229  14.097  1.0045  1.2218  0.4089
  286MOL0     H38584   3.571   0.195  14.381 -0.4728  4.0944  0.0939
  286MOL0     H38585   3.445   0.287  14.299 -6.0933 -2.9949 -2.4942
  286MOL0     H38586   3.494  -0.021  14.237 -2.9032 -3.0329  0.8655
  286MOL0     H38587   3.379   0.088  14.157  1.1028 -1.0039  0.4951
  286MOL0     H38588   3.402   0.003  14.433  0.7801  2.2531 -1.2978
  286MOL0     H38589   3.285   0.128  14.393  4.3677  2.2056  1.0868
  286MOL0     H38590   3.983   0.586  13.663  0.7445 -0.5682 -0.2984
  286MOL0     H38591   4.143   0.607  13.496 -4.3063  1.8669  1.2943
  286MOL0     H38592   4.694   0.464  13.342 -2.8313 -2.9577 -1.4416
  286MOL0     H38593   4.780   0.518  13.139  2.4849  1.0586  3.1695
  286MOL0     H38594   4.578   0.468  11.371 -0.5862 -1.0087  0.5827
  286MOL0     H38595   4.570   0.368  11.153 -1.3647 -1.5700 -0.5060
  286MOL0     H38596   4.223   0.088  10.960 -1.2698 -0.2180 -0.3837
  286MOL0     H38597   4.158  -0.066  10.791  1.0550 -0.1856 -1.5253
  286MOL0     H38598   4.169   0.039  10.348 -1.1216  0.2890 -2.0256
  286MOL0     H38599   4.019   0.088  10.437 -0.1410  0.0143 -1.0954
  286MOL0     H38600   3.970  -0.059  10.244 -1.8407 -0.2671  0.1709
  286MOL0     H38601   3.907  -0.087  10.404 -0.9587  3.4797 -2.6341
  286MOL0     H38602   4.075  -0.289  10.432 -0.4105  0.3618  0.0234
  286MOL0     H38603   4.160  -0.232  10.283 -0.3465  1.7203 -0.9405
  286MOL0     H38604   3.927  -0.305  10.160 -5.4803 -0.1209  0.5473
  286MOL0     H38605   4.019  -0.434  10.249  2.9368  2.2147  0.1505
  286MOL0     H38606   3.640  -0.371  10.433  0.3847  2.0840 -0.0006
  286MOL0     H38607   4.217   0.224  10.483  6.0073 -0.5461 -2.1395
  286MOL0     H38608   4.384   0.381  10.533 -0.2391  0.4861 -0.5453
  286MOL0     H38609   4.270   0.487  10.629 -0.1224 -0.2642  0.8778
  286MOL0     H38610   4.430   0.440  10.685  1.7414  0.9726 -3.0076
  287MOL0     O38611   8.236   9.879   0.340  0.3304 -0.0037  0.3278
  287MOL0     C38612   8.135   9.809   0.300 -0.1502 -1.1124 -0.0443
  287MOL0     O38613   8.001   9.849   0.289 -0.3288  0.0571 -0.5310
  287MOL0     C38614   7.987   9.986   0.316  0.4341  0.7074 -0.4002
  287MOL0     C38615   7.924  10.016   0.434  1.0824  0.0866 -0.2004
  287MOL0     C38616   7.906  10.141   0.479 -0.3768 -0.2893 -1.1165
  287MOL0     C38617   7.942  10.249   0.393  1.3826 -0.0786 -0.2078
  287MOL0     O38618   7.934  10.383   0.433 -0.0421 -0.7118 -0.5849
  287MOL0     C38619   7.912  10.427   0.567  0.5082 -0.0074  0.0547
  287MOL0     C38620   7.960  10.582   0.568  0.4852  0.6751  0.1966
  287MOL0     C38621   7.880  10.669   0.471  0.5149  0.2645 -0.8577
  287MOL0     C38622   7.904  10.816   0.494  0.7897 -0.3807 -0.1647
  287MOL0     C38623   8.042  10.855   0.446  0.2482  0.5902 -0.5512
  287MOL0     C38624   8.059  11.013   0.432  0.0779 -0.4383 -0.8491
  287MOL0     C38625   8.070  11.080   0.580 -0.7094 -0.3376  0.9654
  287MOL0     C38626   8.063  11.235   0.575 -0.0038 -0.7252 -0.1791
  287MOL0     N38627   8.072  11.298   0.711  0.1168 -0.1858  0.5546
  287MOL0     C38628   8.185  11.330   0.778 -0.4905  0.4796 -0.5324
  287MOL0     C38629   8.140  11.386   0.892 -0.6800  0.4311 -0.2330
  287MOL0     C38630   8.228  11.408   1.013 -1.6161  0.3867 -0.0797
  287MOL0     C38631   8.289  11.548   1.025 -1.2554  0.6618  0.4825
  287MOL0     C38632   8.382  11.588   0.910  0.2351 -0.2439 -0.1574
  287MOL0     C38633   8.453  11.720   0.922  1.3026 -0.3438  0.0134
  287MOL0     O38634   8.567  11.710   1.017 -0.0880 -0.0214 -0.5323
  287MOL0     C38635   8.689  11.739   0.962 -0.1641  1.0063 -0.4542
  287MOL0     C38636   8.717  11.862   0.915  0.4658 -1.4353  1.2408
  287MOL0     C38637   8.832  11.878   0.843 -0.5549 -0.1878 -0.9295
  287MOL0     C38638   8.938  11.787   0.838  0.6602  0.5018  0.4276
  287MOL0     C38639   9.061  11.796   0.757  0.4067  0.2509 -0.8585
  287MOL0     O38640   9.145  11.696   0.759 -0.1194 -0.0440  0.2966
  287MOL0     C38641   9.267  11.705   0.712  0.5762 -0.5087  0.8488
  287MOL0     C38642   9.315  11.603   0.628  0.6662 -0.9894  0.0796
  287MOL0     C38643   9.449  11.576   0.598  0.2076  0.6771  0.0438
  287MOL0     C38644   9.539  11.672   0.640  0.1721  1.3548  0.9944
  287MOL0     O38645   9.669  11.656   0.600 -0.0072  0.0565  0.4548
  287MOL0     C38646   9.741  11.542   0.626  0.3780  0.1739 -0.2010
  287MOL0     C38647   9.775  11.538   0.779  0.8400  0.1985 -0.5946
  287MOL0     C38648   9.892  11.441   0.805 -0.6291  0.2798  0.1536
  287MOL0     C38649   9.913  11.439   0.954  0.4109  0.4704 -0.6592
  287MOL0     C38650  10.035  11.347   0.979  0.0946 -0.1029 -0.7247
  287MOL0     C38651  10.052  11.330   1.129 -0.9033 -0.3958  1.0160
  287MOL0     C38652  10.186  11.260   1.155 -0.0422 -0.0919 -0.4921
  287MOL0     C38653  10.162  11.169   1.280  0.2604 -1.0213  0.1044
  287MOL0    Cl38654  10.320  11.085   1.316  0.1339 -0.2203 -0.0157
  287MOL0     C38655   9.498  11.786   0.704 -0.3806 -0.3608  0.2305
  287MOL0     C38656   9.368  11.800   0.754 -0.0286 -1.3560  0.3802
  287MOL0     O38657   9.073  11.903   0.709 -0.6477 -0.5268  0.3277
  287MOL0     C38658   8.923  11.668   0.913  0.5528  0.6162 -0.3893
  287MOL0     C38659   8.793  11.638   0.964 -0.8662  0.1916  0.0996
  287MOL0     N38660   8.005  11.407   0.878  0.8213 -0.1537 -0.4778
  287MOL0     N38661   7.959  11.357   0.775  0.4540 -0.8236  0.4360
  287MOL0     C38662   7.994  10.228   0.268 -0.7927 -0.2505 -0.2871
  287MOL0     C38663   8.025  10.097   0.233  0.2231  0.3046  0.2091
  287MOL0     C38664   8.180   9.682   0.246 -0.4761  0.6842 -0.1711
  287MOL0     C38665   8.281   9.615   0.314 -0.4159  0.7065  0.2482
  287MOL0     C38666   8.322   9.488   0.274 -0.2085 -0.1786 -0.5770
  287MOL0     C38667   8.263   9.424   0.167 -0.3856 -0.1433 -0.2555
  287MOL0     O38668   8.309   9.293   0.145 -0.4964  0.2363  0.1614
  287MOL0     C38669   8.230   9.206   0.053  1.9828 -0.7736  0.2872
  287MOL0     C38670   8.266   9.247  -0.090 -0.5894  1.3571 -1.2056
  287MOL0     C38671   8.409   9.241  -0.121 -0.3417  0.2453  0.6455
  287MOL0     C38672   8.459   9.092  -0.118 -0.5854 -1.2697  0.4866
  287MOL0     C38673   8.598   9.087  -0.162  0.3866  0.2835  0.7780
  287MOL0     C38674   8.710   9.080  -0.205 -0.5209  0.1194 -0.9661
  287MOL0     C38675   8.157   9.481   0.112  0.3342 -0.4739 -0.3132
  287MOL0     C38676   8.116   9.613   0.145  0.1349  1.1509  0.1377
  287MOL0     C38677   7.997   9.662   0.074  0.4215 -0.3293 -0.0955
  287MOL0     H38678   7.900   9.933   0.501 -0.8141 -1.5677 -2.7315
  287MOL0     H38679   7.859  10.161   0.575  0.8428  1.1872 -0.7793
  287MOL0     H38680   7.809  10.413   0.600  0.4102  1.0696  0.2491
  287MOL0     H38681   7.970  10.367   0.637 -1.1031 -0.2801  1.2088
  287MOL0     H38682   8.065  10.575   0.536  0.2912  1.8321 -0.7300
  287MOL0     H38683   7.949  10.621   0.670 -2.5756  2.7014 -0.7990
  287MOL0     H38684   7.772  10.653   0.465  0.7569 -1.0526 -2.1052
  287MOL0     H38685   7.918  10.642   0.373  1.5278 -0.1813 -0.3556
  287MOL0     H38686   7.838  10.879   0.434  0.8198  1.6133  1.7656
  287MOL0     H38687   7.889  10.846   0.598 -1.7769 -1.9511  0.0082
  287MOL0     H38688   8.118  10.806   0.508  0.3951 -1.1283 -2.0078
  287MOL0     H38689   8.070  10.807   0.351  3.1687  0.5919  0.1937
  287MOL0     H38690   8.149  11.039   0.375 -1.9133  2.1303 -3.0854
  287MOL0     H38691   7.974  11.050   0.374  0.4634  0.2579 -0.9743
  287MOL0     H38692   8.169  11.049   0.614  0.9498 -1.5678 -4.0220
  287MOL0     H38693   7.984  11.051   0.640  0.0244 -0.4915  1.9536
  287MOL0     H38694   8.135  11.280   0.506 -1.3582 -2.2762 -2.7951
  287MOL0     H38695   7.967  11.260   0.529  1.3895  2.4997 -1.6225
  287MOL0     H38696   8.290  11.304   0.770 -1.1479 -2.2037 -1.6761
  287MOL0     H38697   8.168  11.394   1.103 -0.0994 -2.7144  0.5710
  287MOL0     H38698   8.302  11.330   1.028 -0.3237  1.3696 -1.1193
  287MOL0     H38699   8.210  11.619   1.050 -1.3751  1.5424 -2.1299
  287MOL0     H38700   8.358  11.533   1.108 -0.6848 -1.1535 -0.2727
  287MOL0     H38701   8.325  11.592   0.816  2.2619  1.6413 -1.4184
  287MOL0     H38702   8.461  11.513   0.908  1.0964  0.6541 -1.4611
  287MOL0     H38703   8.386  11.799   0.958  1.6197  0.9492 -2.0514
  287MOL0     H38704   8.488  11.741   0.820  0.9318 -2.1340 -0.5027
  287MOL0     H38705   8.640  11.937   0.930  0.3790 -1.0834 -0.7892
  287MOL0     H38706   8.848  11.977   0.801 -0.2965 -0.2766 -1.0409
  287MOL0     H38707   9.254  11.526   0.583  1.7482  0.1571 -3.7965
  287MOL0     H38708   9.475  11.484   0.546 -0.9110 -0.6587  1.7370
  287MOL0     H38709   9.694  11.451   0.587  2.4116 -0.6071 -0.9562
  287MOL0     H38710   9.827  11.549   0.559 -0.7258  1.3025 -1.5673
  287MOL0     H38711   9.792  11.640   0.814 -1.4484  0.4942 -0.1601
  287MOL0     H38712   9.691  11.496   0.835  1.4869 -1.1112 -0.5739
  287MOL0     H38713   9.872  11.341   0.766  0.3676 -0.0242  0.3976
  287MOL0     H38714   9.991  11.471   0.768  0.4753 -0.7849  2.1057
  287MOL0     H38715   9.817  11.423   1.004  0.7023 -0.1696 -0.2937
  287MOL0     H38716   9.943  11.540   0.986  2.9949 -0.9509  1.9001
  287MOL0     H38717  10.121  11.385   0.922  0.9574  0.1481  0.7046
  287MOL0     H38718  10.009  11.250   0.936  0.0676 -0.0215 -0.8947
  287MOL0     H38719  10.053  11.432   1.170 -1.5662 -0.3112  0.8281
  287MOL0     H38720   9.968  11.272   1.167 -1.0246  0.2781  1.8036
  287MOL0     H38721  10.265  11.333   1.171  1.3102 -1.8928  1.6770
  287MOL0     H38722  10.205  11.195   1.070 -0.5702 -1.3020  0.2783
  287MOL0     H38723  10.129  11.219   1.371  2.3949 -1.2466  1.0658
  287MOL0     H38724  10.089  11.091   1.257 -2.9927  1.1784  2.1471
  287MOL0     H38725   9.574  11.860   0.726 -0.1290 -0.2287 -1.0270
  287MOL0     H38726   9.338  11.883   0.817 -1.4879 -1.5210 -0.0588
  287MOL0     H38727   8.997  11.588   0.909 -2.0812 -1.9480 -1.2621
  287MOL0     H38728   8.760  11.547   1.013  2.3846 -0.1599  1.9959
  287MOL0     H38729   8.025  10.314   0.209  2.4285 -1.2260 -0.1796
  287MOL0     H38730   8.068  10.065   0.139  1.7224 -1.5444  1.4213
  287MOL0     H38731   8.327   9.658   0.402 -0.6022  3.7089 -1.0123
  287MOL0     H38732   8.407   9.448   0.328  0.6791  3.2793  0.9380
  287MOL0     H38733   8.123   9.217   0.073  2.3915  1.2727  1.6943
  287MOL0     H38734   8.251   9.099   0.063 -0.1168 -1.1516  1.2378
  287MOL0     H38735   8.230   9.347  -0.115 -0.5054  1.9654  0.8943
  287MOL0     H38736   8.211   9.184  -0.160  0.4996  1.3598 -2.0826
  287MOL0     H38737   8.476   9.297  -0.055  3.1440 -0.9040 -1.6701
  287MOL0     H38738   8.426   9.287  -0.219  1.2336 -0.5441  0.5218
  287MOL0     H38739   8.456   9.052  -0.017 -0.6618  2.7185  2.2510
  287MOL0     H38740   8.404   9.037  -0.195  0.1955 -0.3411 -0.7956
  287MOL0     H38741   8.814   9.070  -0.227 -0.6157 -0.0274 -1.3696
  287MOL0     H38742   8.118   9.436   0.021  1.8081 -1.7491 -0.3349
  287MOL0     H38743   7.901   9.649   0.126  0.1925 -0.9529 -0.6543
  287MOL0     H38744   8.018   9.769   0.064 -1.0810 -0.2298 -3.3306
  287MOL0     H38745   7.983   9.623  -0.027 -0.1306 -0.1506 -0.0882
  288MOL0     O38746  10.973   3.846   9.928 -0.2478  0.8316  0.1993
  288MOL0     C38747  11.092   3.864   9.945 -0.7109 -0.1576 -0.1288
  288MOL0     O38748  11.159   3.873  10.068 -0.2767 -0.4527  0.0909
  288MOL0     C38749  11.073   3.903  10.163 -0.0319  0.3936 -1.9008
  288MOL0     C38750  11.044   3.806  10.265  0.4434  0.2392  0.4068
  288MOL0     C38751  10.950   3.833  10.371 -0.7034 -0.0089  0.9960
  288MOL0     C38752  10.876   3.948  10.373  0.1571  0.0777 -0.1049
  288MOL0     O38753  10.783   3.990  10.475  0.2515 -1.4606  0.5517
  288MOL0     C38754  10.809   3.959  10.609  0.1316  0.2534  0.2204
  288MOL0     C38755  10.957   3.986  10.651 -0.6705 -0.5029  0.3333
  288MOL0     C38756  11.008   3.892  10.759  0.9021  0.0799 -0.3994
  288MOL0     C38757  10.935   3.920  10.887  0.2303 -0.3048 -0.4979
  288MOL0     C38758  10.984   3.834  10.991 -0.2444  0.5416 -0.4526
  288MOL0     C38759  10.890   3.848  11.113 -0.3313 -0.4303  0.1177
  288MOL0     C38760  10.974   3.793  11.231  0.6893  1.0412 -0.3837
  288MOL0     C38761  10.895   3.815  11.364 -1.0074 -0.0361  0.8508
  288MOL0     N38762  10.990   3.794  11.468  0.2552  0.4823  0.7608
  288MOL0     C38763  11.081   3.887  11.510  0.1293  0.3868  1.4869
  288MOL0     C38764  11.145   3.837  11.617  0.1598  0.2807  0.0046
  288MOL0     C38765  11.231   3.918  11.709 -0.2680  0.3344  0.2663
  288MOL0     C38766  11.336   3.840  11.781 -0.9197  0.0085 -0.2583
  288MOL0     C38767  11.457   3.797  11.695  0.0114 -0.4920 -0.4240
  288MOL0     C38768  11.419   3.687  11.599  0.5075  0.2275  0.8204
  288MOL0     O38769  11.402   3.762  11.479  0.4115 -0.1061  0.2097
  288MOL0     C38770  11.438   3.710  11.358  1.3596 -0.3153  0.9393
  288MOL0     C38771  11.560   3.648  11.322  0.0058 -0.2175 -0.6557
  288MOL0     C38772  11.566   3.587  11.196 -0.3090  0.3940  0.7220
  288MOL0     C38773  11.454   3.586  11.103 -0.1975 -0.2966 -0.4343
  288MOL0     C38774  11.462   3.514  10.970  0.1788 -1.1279 -0.0630
  288MOL0     O38775  11.360   3.533  10.879 -0.5810  0.2381  0.0948
  288MOL0     C38776  11.342   3.444  10.773 -0.6400 -1.0245 -0.2480
  288MOL0     C38777  11.423   3.337  10.734 -0.9774 -0.2837  0.3272
  288MOL0     C38778  11.380   3.246  10.625 -0.6354 -0.2006 -0.4110
  288MOL0     C38779  11.259   3.262  10.563  0.2021 -0.0732 -0.0006
  288MOL0     O38780  11.218   3.173  10.466  0.7760 -0.1651  0.3222
  288MOL0     C38781  11.309   3.153  10.357 -0.3746  0.6189 -0.6213
  288MOL0     C38782  11.317   3.268  10.261  0.4780  0.5686  0.7618
  288MOL0     C38783  11.319   3.220  10.119  0.0898  0.6308 -0.6218
  288MOL0     C38784  11.282   3.338  10.040  0.3916 -0.6663  1.1792
  288MOL0     C38785  11.291   3.323   9.884  0.0611 -0.2707  0.1662
  288MOL0     C38786  11.213   3.212   9.816  0.4901 -0.5945 -0.4575
  288MOL0     C38787  11.223   3.190   9.671 -0.3304 -0.2229  0.3006
  288MOL0     C38788  11.360   3.175   9.608  0.0836 -0.4015  0.4016
  288MOL0    Cl38789  11.364   3.140   9.440  0.1252 -0.1366 -0.3306
  288MOL0     C38790  11.186   3.372  10.598 -0.1095  0.5817 -0.0577
  288MOL0     C38791  11.223   3.462  10.695 -1.3733  0.2663 -0.2765
  288MOL0     O38792  11.559   3.441  10.959  0.5352  0.5248 -0.0798
  288MOL0     C38793  11.333   3.655  11.135  0.4543  0.3977 -0.3091
  288MOL0     C38794  11.330   3.715  11.263 -0.4957 -0.0865  0.5206
  288MOL0     N38795  11.081   3.714  11.646  0.4336  0.5377  0.0105
  288MOL0     N38796  11.004   3.681  11.544 -0.2568 -0.1642  0.0777
  288MOL0     C38797  10.900   4.040  10.270 -0.4998  0.5964 -0.3437
  288MOL0     C38798  10.991   4.014  10.170 -0.5808  0.0024  1.4076
  288MOL0     C38799  11.173   3.870   9.822 -1.0487  0.1005 -0.4024
  288MOL0     C38800  11.117   3.941   9.718 -0.9230 -0.7691  0.0598
  288MOL0     C38801  11.192   3.979   9.605 -1.0242  0.4701  0.0399
  288MOL0     C38802  11.317   3.926   9.589  0.1157 -0.0227  0.5124
  288MOL0     O38803  11.388   3.947   9.476 -0.0933  0.0355  0.0012
  288MOL0     C38804  11.343   4.043   9.373  0.0457  0.0256  0.7710
  288MOL0     C38805  11.397   4.182   9.415  0.5716 -0.5504 -0.0576
  288MOL0     C38806  11.555   4.188   9.406  0.5049  0.2551  0.1415
  288MOL0     C38807  11.605   4.330   9.406  0.1367 -0.0249  0.5932
  288MOL0     C38808  11.553   4.407   9.291  0.6130 -0.4387  0.3390
  288MOL0     C38809  11.500   4.470   9.202 -1.2242 -0.8001  0.1165
  288MOL0     C38810  11.382   3.847   9.692 -0.5404  0.8249  0.2863
  288MOL0     C38811  11.314   3.821   9.814 -0.8056 -0.2304 -0.5168
  288MOL0     C38812  11.371   3.731   9.932 -0.0647 -1.1292 -0.0628
  288MOL0     H38813  11.100   3.713  10.258 -2.8639 -1.8656 -0.1092
  288MOL0     H38814  10.955   3.746  10.435  2.6503 -1.9277 -1.4855
  288MOL0     H38815  10.747   4.024  10.672  3.2027  1.4673  2.2652
  288MOL0     H38816  10.776   3.858  10.632  1.3631  0.2635  2.3691
  288MOL0     H38817  10.967   4.090  10.684  3.4864  0.3123 -2.6718
  288MOL0     H38818  11.030   3.973  10.571 -0.3443 -0.3598  0.6043
  288MOL0     H38819  11.114   3.913  10.777  1.6553 -1.4008 -2.5871
  288MOL0     H38820  11.017   3.787  10.729  0.3826 -1.3370  3.7335
  288MOL0     H38821  10.947   4.022  10.922  0.1117 -0.1771 -0.8233
  288MOL0     H38822  10.830   3.904  10.861  0.1787  0.1399 -0.5691
  288MOL0     H38823  10.976   3.727  10.967 -1.0970  0.6311 -0.6123
  288MOL0     H38824  11.084   3.871  11.013 -0.9705  1.3113  1.8231
  288MOL0     H38825  10.862   3.953  11.126  0.2026 -0.4959  2.2712
  288MOL0     H38826  10.801   3.786  11.094  0.7437 -1.5012 -1.6230
  288MOL0     H38827  11.069   3.847  11.222 -1.2841  5.5020  2.3841
  288MOL0     H38828  10.991   3.690  11.200 -1.0377  0.6053  0.0220
  288MOL0     H38829  10.852   3.915  11.371  1.4958  1.0890  1.4094
  288MOL0     H38830  10.814   3.742  11.356 -0.7180 -0.2077 -0.9293
  288MOL0     H38831  11.087   3.990  11.477 -3.0816  0.1290 -0.3412
  288MOL0     H38832  11.277   3.997  11.648 -0.9915  2.1274  1.9159
  288MOL0     H38833  11.158   3.966  11.774 -0.4119  1.8432 -0.9385
  288MOL0     H38834  11.370   3.900  11.866 -0.1691  1.2716 -1.4128
  288MOL0     H38835  11.285   3.754  11.825  0.6675 -1.6728 -1.5724
  288MOL0     H38836  11.536   3.762  11.763  1.6877  1.9673 -0.9230
  288MOL0     H38837  11.500   3.887  11.648 -0.5277 -0.9341 -1.7988
  288MOL0     H38838  11.326   3.640  11.633 -0.0458  1.9905  1.8407
  288MOL0     H38839  11.493   3.607  11.588 -1.5628 -1.4979 -2.1360
  288MOL0     H38840  11.640   3.627  11.392  1.5232 -1.6541 -2.7253
  288MOL0     H38841  11.662   3.545  11.166  1.1342  2.3693  2.3151
  288MOL0     H38842  11.521   3.320  10.777 -1.6531  1.8129  2.9099
  288MOL0     H38843  11.428   3.151  10.602  1.6647  0.7248  0.2380
  288MOL0     H38844  11.411   3.129  10.388  0.2498  0.7089 -2.5201
  288MOL0     H38845  11.283   3.065  10.297  2.3120 -1.2620  0.7515
  288MOL0     H38846  11.235   3.336  10.284  1.3076  1.3749  1.4516
  288MOL0     H38847  11.407   3.330  10.272  1.9065 -0.4889 -3.2372
  288MOL0     H38848  11.422   3.188  10.097  1.2240  4.4236 -1.6316
  288MOL0     H38849  11.240   3.153  10.085  0.2800  1.9572 -4.0988
  288MOL0     H38850  11.344   3.420  10.079  1.3429 -1.4924  1.4489
  288MOL0     H38851  11.176   3.354  10.058 -0.7070 -3.6246 -1.6210
  288MOL0     H38852  11.392   3.313   9.844 -0.1898 -0.0550 -0.5515
  288MOL0     H38853  11.251   3.409   9.829  1.5098  0.4207  0.1549
  288MOL0     H38854  11.238   3.114   9.859 -0.0747 -1.3630 -1.8227
  288MOL0     H38855  11.109   3.219   9.849 -0.3989 -2.9369 -2.4013
  288MOL0     H38856  11.158   3.264   9.622  0.4756  0.3141  0.0317
  288MOL0     H38857  11.166   3.099   9.651  0.2804 -0.4542 -0.4109
  288MOL0     H38858  11.412   3.269   9.627 -1.3514  0.7281 -1.0088
  288MOL0     H38859  11.430   3.105   9.655  0.5377 -1.1913 -1.3851
  288MOL0     H38860  11.095   3.395  10.544  0.6779  0.2093 -1.6071
  288MOL0     H38861  11.155   3.542  10.724 -2.2488 -0.6055  0.1389
  288MOL0     H38862  11.253   3.665  11.062  0.0235 -0.8913 -0.0411
  288MOL0     H38863  11.235   3.761  11.292 -1.1067 -1.6867  1.1520
  288MOL0     H38864  10.848   4.135  10.260  2.0184  1.9794 -1.4110
  288MOL0     H38865  11.015   4.088  10.094 -1.2245 -1.7257 -0.5607
  288MOL0     H38866  11.024   3.995   9.735  0.8362  2.8918 -1.0191
  288MOL0     H38867  11.146   4.057   9.545 -1.4296  0.5677  0.4731
  288MOL0     H38868  11.234   4.047   9.358  0.1333 -0.5122 -0.0198
  288MOL0     H38869  11.384   4.013   9.276 -1.6033 -1.3758  0.4562
  288MOL0     H38870  11.359   4.214   9.513 -3.4395  2.6591 -2.3481
  288MOL0     H38871  11.344   4.247   9.344 -0.1291 -1.8590 -0.7614
  288MOL0     H38872  11.581   4.138   9.313  0.3428  0.7618 -0.1775
  288MOL0     H38873  11.602   4.131   9.487  1.1634  0.0688 -0.3606
  288MOL0     H38874  11.580   4.377   9.502  2.6814  0.5602  1.0408
  288MOL0     H38875  11.714   4.333   9.399 -0.0199  1.8144 -2.8361
  288MOL0     H38876  11.449   4.522   9.123  1.0020 -1.9121 -2.1703
  288MOL0     H38877  11.482   3.807   9.678  0.3071  3.3449 -1.5656
  288MOL0     H38878  11.407   3.784  10.020  1.7563 -0.4396 -1.1587
  288MOL0     H38879  11.293   3.656   9.950 -0.7266 -0.8296 -1.5106
  288MOL0     H38880  11.465   3.685   9.900  1.7378  0.2136  2.8738
  289MOL0     O38881   8.423   0.330   8.956 -0.4806 -0.0647  0.9788
  289MOL0     C38882   8.403   0.301   9.076  0.0371  0.3753  0.6876
  289MOL0     O38883   8.467   0.368   9.180  0.5267  0.2029 -0.0165
  289MOL0     C38884   8.504   0.496   9.162  0.2175 -0.0108  0.2168
  289MOL0     C38885   8.605   0.528   9.070 -0.7916  0.4929 -0.6575
  289MOL0     C38886   8.669   0.655   9.069 -0.2181 -1.0586  0.5472
  289MOL0     C38887   8.632   0.755   9.165  0.1895  0.2463  1.0896
  289MOL0     O38888   8.703   0.878   9.193 -0.2133  0.1760  1.2950
  289MOL0     C38889   8.839   0.892   9.130  0.3274  0.3270 -0.6154
  289MOL0     C38890   8.913   1.024   9.162 -0.7300  0.0434  0.2385
  289MOL0     C38891   8.918   1.049   9.315  0.1625  0.8459  0.9268
  289MOL0     C38892   8.978   0.936   9.389 -0.0841  0.6358  0.5732
  289MOL0     C38893   8.997   0.974   9.539  0.1454  0.5127  1.5676
  289MOL0     C38894   8.882   1.066   9.592  0.6841  0.4940  0.9058
  289MOL0     C38895   8.893   1.071   9.742  0.0929  0.5606 -0.2725
  289MOL0     C38896   9.029   1.132   9.795 -0.7875 -0.6206 -0.0165
  289MOL0     N38897   9.032   1.139   9.942 -0.1550  0.3228 -0.0002
  289MOL0     C38898   8.960   1.233  10.017  0.4502  0.3549 -0.4909
  289MOL0     C38899   8.979   1.189  10.144  0.3359 -0.7435  0.7006
  289MOL0     C38900   8.933   1.265  10.268  0.1159 -0.3597  0.2956
  289MOL0     C38901   8.926   1.411  10.257 -1.0032  0.2789  0.8894
  289MOL0     C38902   8.919   1.479  10.399  0.1582 -0.6377 -0.8363
  289MOL0     C38903   8.843   1.615  10.400 -0.8059 -0.5422  1.1996
  289MOL0     O38904   8.840   1.664  10.529 -0.4035 -0.1619 -0.4891
  289MOL0     C38905   8.766   1.780  10.537 -0.8570 -0.6629 -0.5435
  289MOL0     C38906   8.658   1.771  10.616  0.6454 -0.6325  0.2607
  289MOL0     C38907   8.561   1.877  10.617  0.3555 -0.4547  0.0743
  289MOL0     C38908   8.584   1.991  10.543  0.5868  0.3779 -0.0811
  289MOL0     C38909   8.482   2.107  10.539 -0.3938  0.9794  0.3809
  289MOL0     O38910   8.532   2.235  10.503 -0.3696  0.1432  0.5902
  289MOL0     C38911   8.448   2.344  10.508  0.0942 -0.0101 -0.5327
  289MOL0     C38912   8.392   2.392  10.393  0.3897 -0.3227  0.2903
  289MOL0     C38913   8.317   2.507  10.383 -0.0250 -0.9020 -0.1178
  289MOL0     C38914   8.292   2.587  10.506 -0.5379  0.8110 -1.2499
  289MOL0     O38915   8.215   2.698  10.502  0.1268  0.3429  0.2282
  289MOL0     C38916   8.110   2.693  10.591  1.5931  0.2158 -0.4014
  289MOL0     C38917   7.974   2.693  10.532 -0.4237 -0.2275 -0.6229
  289MOL0     C38918   7.862   2.683  10.640  0.4080 -0.1441  0.5853
  289MOL0     C38919   7.860   2.576  10.755 -0.2382  0.2547  0.0232
  289MOL0     C38920   7.719   2.576  10.828  0.0290 -0.0434 -0.8389
  289MOL0     C38921   7.643   2.710  10.855  0.7044 -0.4038  0.4762
  289MOL0     C38922   7.698   2.793  10.975 -0.3037 -0.4169  0.2757
  289MOL0     C38923   7.612   2.919  10.971  0.2095  0.8349 -0.0684
  289MOL0    Cl38924   7.433   2.890  10.972  0.3796  0.3766 -0.1835
  289MOL0     C38925   8.349   2.534  10.623 -0.0894 -0.2742 -0.1215
  289MOL0     C38926   8.422   2.414  10.623 -0.6129  0.8230  0.8251
  289MOL0     O38927   8.366   2.083  10.581  0.0085 -0.0843  0.0330
  289MOL0     C38928   8.711   1.998  10.468  0.6591 -0.1318  0.3725
  289MOL0     C38929   8.794   1.893  10.461 -0.5059  0.5533 -0.1174
  289MOL0     N38930   9.066   1.090  10.152 -0.0019 -0.2132 -0.1348
  289MOL0     N38931   9.102   1.061  10.026 -0.6285  0.5048  0.1907
  289MOL0     C38932   8.539   0.710   9.256  0.2386 -0.8103 -0.0022
  289MOL0     C38933   8.470   0.591   9.254 -0.4678 -0.2915 -0.2765
  289MOL0     C38934   8.316   0.187   9.123  0.2007  0.1780  1.0179
  289MOL0     C38935   8.282   0.167   9.262 -0.0528  0.2662 -0.0200
  289MOL0     C38936   8.188   0.076   9.308  0.2384  0.7676 -0.2832
  289MOL0     C38937   8.129  -0.010   9.224  0.1400 -0.1044 -0.2970
  289MOL0     O38938   8.035  -0.097   9.276  0.2017  0.0717  0.1245
  289MOL0     C38939   7.956  -0.185   9.184 -0.9009 -0.3957  0.0850
  289MOL0     C38940   7.829  -0.233   9.264  0.3395  0.8003  0.0206
  289MOL0     C38941   7.756  -0.108   9.321 -0.3460 -1.2502 -0.1912
  289MOL0     C38942   7.782  -0.081   9.469  0.3759 -0.3749  0.3959
  289MOL0     C38943   7.717   0.049   9.498 -0.4304 -0.9766 -0.8758
  289MOL0     C38944   7.646   0.149   9.504 -0.4184 -0.0459  0.7124
  289MOL0     C38945   8.156   0.003   9.094 -0.0282 -0.2129  0.0556
  289MOL0     C38946   8.253   0.094   9.036  1.0962 -0.0591  0.0931
  289MOL0     C38947   8.259   0.101   8.885  0.1271  0.2338  0.9993
  289MOL0     H38948   8.641   0.453   9.001  1.3620  1.7563 -1.0084
  289MOL0     H38949   8.738   0.668   8.986  0.1321  2.0234  1.1939
  289MOL0     H38950   8.892   0.807   9.175  1.2285 -0.2262 -2.5924
  289MOL0     H38951   8.833   0.895   9.021 -0.4314  0.8469 -0.5586
  289MOL0     H38952   8.862   1.095   9.095  2.9250  2.6833 -0.0536
  289MOL0     H38953   9.018   1.017   9.132 -0.2201 -3.0777  2.3540
  289MOL0     H38954   8.820   1.079   9.352 -0.1440 -0.9655  1.6898
  289MOL0     H38955   8.973   1.140   9.339 -1.4249  0.7851  5.7345
  289MOL0     H38956   8.913   0.848   9.380  0.2112  0.5518 -1.0533
  289MOL0     H38957   9.074   0.907   9.345 -0.2895  2.9042 -1.5795
  289MOL0     H38958   8.999   0.880   9.595  1.5764 -1.2385 -1.2082
  289MOL0     H38959   9.094   1.024   9.534  0.5894 -0.3656 -3.1503
  289MOL0     H38960   8.895   1.164   9.546  1.0928 -0.4646 -1.1752
  289MOL0     H38961   8.782   1.027   9.572  1.6620 -0.6732 -2.5415
  289MOL0     H38962   8.886   0.974   9.792 -1.2238  2.3068  3.2670
  289MOL0     H38963   8.803   1.124   9.775  0.7103  0.9154  0.8998
  289MOL0     H38964   9.114   1.075   9.755 -1.7219 -1.1210 -1.3524
  289MOL0     H38965   9.048   1.231   9.753  0.5562 -1.0430 -0.4606
  289MOL0     H38966   8.893   1.315   9.991 -0.3690 -0.0387  0.3276
  289MOL0     H38967   8.841   1.216  10.302  0.8306 -0.2830  2.4990
  289MOL0     H38968   9.004   1.251  10.351  0.0791  0.6074  0.5015
  289MOL0     H38969   9.010   1.448  10.197 -2.2136  0.1272 -0.9823
  289MOL0     H38970   8.834   1.445  10.209  0.1149  3.0446  0.5044
  289MOL0     H38971   9.018   1.483  10.446  0.3880 -2.2881 -1.1151
  289MOL0     H38972   8.869   1.404  10.460 -0.1223  0.9231  0.9568
  289MOL0     H38973   8.748   1.608  10.346  0.0202  0.1322 -0.4033
  289MOL0     H38974   8.906   1.678  10.337 -0.5780  0.5837  2.4994
  289MOL0     H38975   8.639   1.673  10.658 -0.2746  0.5212  2.7049
  289MOL0     H38976   8.467   1.867  10.670  0.4077  0.2978  0.3163
  289MOL0     H38977   8.407   2.337  10.301  1.6898  1.2628 -0.4755
  289MOL0     H38978   8.283   2.538  10.285  1.1516 -1.9028 -0.8609
  289MOL0     H38979   8.105   2.604  10.655 -0.2322  2.2797  2.6346
  289MOL0     H38980   8.119   2.774  10.665  1.0464 -1.5761  1.7334
  289MOL0     H38981   7.959   2.791  10.485  2.2911  0.5192 -0.1138
  289MOL0     H38982   7.958   2.618  10.454 -2.8648  1.6660 -2.1145
  289MOL0     H38983   7.860   2.783  10.683  0.7546 -0.4281  1.2669
  289MOL0     H38984   7.770   2.665  10.583  1.0988  2.3437 -1.5102
  289MOL0     H38985   7.939   2.590  10.829  0.8989 -3.2036 -0.3428
  289MOL0     H38986   7.876   2.476  10.713 -3.3665 -1.1881  1.8838
  289MOL0     H38987   7.735   2.527  10.924 -0.1846  0.7194 -0.4039
  289MOL0     H38988   7.651   2.506  10.779 -1.5493  0.6654  0.2667
  289MOL0     H38989   7.644   2.773  10.766  2.1778 -0.4014  0.4639
  289MOL0     H38990   7.538   2.692  10.878 -0.0371  2.2587 -0.4210
  289MOL0     H38991   7.805   2.815  10.961 -0.4780 -0.3751 -1.2077
  289MOL0     H38992   7.681   2.739  11.068  0.3094  1.2249  1.3929
  289MOL0     H38993   7.637   2.981  11.057 -0.2204  1.6534 -0.5243
  289MOL0     H38994   7.642   2.977  10.883  2.5413 -1.2917 -0.7944
  289MOL0     H38995   8.349   2.596  10.712 -2.6120 -0.9251  0.4233
  289MOL0     H38996   8.487   2.394  10.708  1.6247 -1.8618 -1.2831
  289MOL0     H38997   8.732   2.067  10.386  3.5586  0.2673  1.3273
  289MOL0     H38998   8.875   1.909  10.390 -4.4099  2.2221 -4.8136
  289MOL0     H38999   8.499   0.784   9.324 -2.4716 -0.1477 -2.1724
  289MOL0     H39000   8.400   0.558   9.331  0.2754 -1.2041  0.0381
  289MOL0     H39001   8.320   0.237   9.336 -2.5764  0.1866  1.4587
  289MOL0     H39002   8.178   0.068   9.415  0.5274  3.6125  0.0269
  289MOL0     H39003   8.008  -0.267   9.135 -1.2585  0.9346 -2.7217
  289MOL0     H39004   7.925  -0.112   9.108 -0.3151  0.2520  0.4534
  289MOL0     H39005   7.867  -0.292   9.348  1.8859 -0.0347 -1.2155
  289MOL0     H39006   7.757  -0.286   9.201  2.4665 -0.6399 -1.3353
  289MOL0     H39007   7.648  -0.117   9.315 -0.6651  1.5376  0.0888
  289MOL0     H39008   7.797  -0.024   9.265 -1.6903 -0.1992  0.3623
  289MOL0     H39009   7.736  -0.161   9.529 -1.0674  0.5842  0.6230
  289MOL0     H39010   7.887  -0.084   9.497  0.2644 -2.3966  0.7684
  289MOL0     H39011   7.594   0.241   9.520 -0.7050 -0.0261 -0.2798
  289MOL0     H39012   8.119  -0.065   9.017  0.1228 -0.8649  0.5495
  289MOL0     H39013   8.188   0.180   8.857 -3.0682 -2.6561  0.2488
  289MOL0     H39014   8.355   0.129   8.841  0.0302  0.4192  0.8990
  289MOL0     H39015   8.216   0.014   8.835 -1.0295  0.8598  0.8728
  290MOL0     O39016   0.636  10.009   4.525  0.3221 -0.0180 -0.3444
  290MOL0     C39017   0.601   9.922   4.608 -0.6373 -0.1078 -0.5631
  290MOL0     O39018   0.571   9.788   4.585 -0.0983  0.2147  1.2038
  290MOL0     C39019   0.562   9.759   4.448  0.2932  0.1676  0.3241
  290MOL0     C39020   0.476   9.831   4.362  0.4475  0.7861  0.1136
  290MOL0     C39021   0.424   9.779   4.241  0.5720 -1.1846  0.7444
  290MOL0     C39022   0.482   9.659   4.196 -0.5765 -0.0143 -0.6934
  290MOL0     O39023   0.451   9.596   4.076 -0.6433 -0.6009  0.0823
  290MOL0     C39024   0.461   9.688   3.963  0.1690  0.5553  0.1120
  290MOL0     C39025   0.601   9.738   3.944  0.1086 -0.4361  0.0649
  290MOL0     C39026   0.707   9.619   3.928  0.6098 -1.3503  0.6051
  290MOL0     C39027   0.846   9.667   3.986 -0.1833  0.2885  0.6535
  290MOL0     C39028   0.953   9.565   3.977 -0.0785 -0.2369 -0.4321
  290MOL0     C39029   1.082   9.603   4.042 -0.6635  0.3991  0.8758
  290MOL0     C39030   1.143   9.737   4.025 -0.8154 -0.2998  0.0042
  290MOL0     C39031   1.240   9.739   3.908 -0.3959 -0.4629  1.4126
  290MOL0     N39032   1.279   9.876   3.880  0.5858 -0.1390 -0.7051
  290MOL0     C39033   1.199   9.972   3.829  0.3947  0.7193 -0.0069
  290MOL0     C39034   1.260  10.088   3.835  0.4801  0.2790 -0.8364
  290MOL0     C39035   1.204  10.215   3.774  0.1230 -0.5699  0.0087
  290MOL0     C39036   1.312  10.291   3.705 -0.2734 -0.2828  0.1300
  290MOL0     C39037   1.365  10.408   3.789  0.1323 -0.0835  0.2370
  290MOL0     C39038   1.465  10.494   3.702  0.7146 -0.6072  0.3825
  290MOL0     O39039   1.492  10.622   3.756  0.0767  0.1082 -0.1982
  290MOL0     C39040   1.599  10.694   3.710 -0.6022 -0.3745 -0.1233
  290MOL0     C39041   1.682  10.654   3.606  0.1967 -0.9411  0.0482
  290MOL0     C39042   1.773  10.741   3.551 -0.3177  0.0781  0.7979
  290MOL0     C39043   1.795  10.871   3.603  0.2528 -0.3971  0.7936
  290MOL0     C39044   1.898  10.962   3.541  0.9196 -0.8060  0.2804
  290MOL0     O39045   1.973  10.913   3.447 -1.2482  0.9266  0.1828
  290MOL0     C39046   2.070  10.986   3.385  0.7215 -0.1606  0.3763
  290MOL0     C39047   2.205  10.986   3.428  0.0526  0.3391  0.1335
  290MOL0     C39048   2.308  11.031   3.348 -0.0019 -0.1563  0.0868
  290MOL0     C39049   2.271  11.099   3.220 -0.2009  0.7783 -0.5299
  290MOL0     O39050   2.357  11.154   3.132 -0.5371  0.1581  0.8014
  290MOL0     C39051   2.426  11.270   3.181  0.3417 -0.1174  0.0554
  290MOL0     C39052   2.496  11.333   3.065  0.5583  0.1561  0.6074
  290MOL0     C39053   2.603  11.241   3.005  1.0857  0.0473 -0.2935
  290MOL0     C39054   2.665  11.288   2.882 -0.0990  0.2132  0.0295
  290MOL0     C39055   2.754  11.169   2.832 -0.3086  0.1492  1.0655
  290MOL0     C39056   2.858  11.117   2.931  0.3722 -0.0983 -0.2596
  290MOL0     C39057   2.949  11.022   2.858  0.3263  0.5436 -0.1480
  290MOL0     C39058   3.031  10.953   2.967 -0.0697 -0.2196 -0.0047
  290MOL0    Cl39059   3.176  10.900   2.895 -0.2382  0.1610 -0.1812
  290MOL0     C39060   2.136  11.111   3.189  0.4745  0.3978  0.1360
  290MOL0     C39061   2.037  11.049   3.265 -0.2912 -0.0102 -0.4966
  290MOL0     O39062   1.907  11.077   3.585 -0.4327  0.3656  0.1948
  290MOL0     C39063   1.699  10.915   3.701  0.8681  0.1163  0.1576
  290MOL0     C39064   1.606  10.828   3.757  0.4754  0.3436  1.0157
  290MOL0     N39065   1.377  10.069   3.901 -0.2041  0.4167  0.0234
  290MOL0     N39066   1.392   9.945   3.915  0.7362  0.4540 -0.6926
  290MOL0     C39067   0.567   9.584   4.280  0.5931  0.2134  0.0109
  290MOL0     C39068   0.610   9.628   4.403  0.0892  0.4184 -0.2474
  290MOL0     C39069   0.599   9.949   4.752 -0.7010  0.6648  0.6452
  290MOL0     C39070   0.656   9.852   4.834 -0.5347  0.0480 -0.2562
  290MOL0     C39071   0.678   9.874   4.972 -0.8860  0.1014 -0.0265
  290MOL0     C39072   0.645  10.001   5.024  0.0110  0.1334  0.3504
  290MOL0     O39073   0.662  10.003   5.161  0.7364  0.2566 -0.4918
  290MOL0     C39074   0.562  10.077   5.237 -0.3783 -0.3110 -0.1829
  290MOL0     C39075   0.544  10.011   5.378 -0.8662 -0.0353 -0.3432
  290MOL0     C39076   0.678   9.987   5.450  0.4305  0.6399  0.5327
  290MOL0     C39077   0.725  10.127   5.504 -0.2581  0.2473  0.5802
  290MOL0     C39078   0.856  10.094   5.562  1.1871 -0.0796 -0.2451
  290MOL0     C39079   0.964  10.058   5.600  0.2707 -0.1937 -0.0860
  290MOL0     C39080   0.588  10.099   4.943 -0.2576 -1.4814 -0.0484
  290MOL0     C39081   0.563  10.067   4.808  0.7061  0.8381  0.9287
  290MOL0     C39082   0.510  10.195   4.732 -0.8246 -0.3932 -1.0993
  290MOL0     H39083   0.435   9.926   4.397 -0.2986  1.4389 -2.3161
  290MOL0     H39084   0.344   9.825   4.184  0.5166 -0.3185  1.5043
  290MOL0     H39085   0.433   9.625   3.878  3.0531 -1.9072  0.8108
  290MOL0     H39086   0.397   9.775   3.982 -2.7185 -2.0526  3.8765
  290MOL0     H39087   0.629   9.801   4.029  1.4589  0.5235 -1.0572
  290MOL0     H39088   0.602   9.803   3.857  0.4720  1.5443  1.4835
  290MOL0     H39089   0.728   9.602   3.822  6.2698 -1.3966  1.4745
  290MOL0     H39090   0.681   9.522   3.973  2.2935 -1.2618  1.8721
  290MOL0     H39091   0.866   9.758   3.929  1.5877 -0.6511 -0.3435
  290MOL0     H39092   0.832   9.688   4.092 -1.3691  0.0125  0.5600
  290MOL0     H39093   0.911   9.477   4.026  1.5451 -0.1512  1.1731
  290MOL0     H39094   0.973   9.534   3.874 -0.9039 -1.2155 -0.3166
  290MOL0     H39095   1.061   9.600   4.149 -0.1547 -0.7859  0.9579
  290MOL0     H39096   1.146   9.517   4.020 -3.8100 -1.8983  0.0372
  290MOL0     H39097   1.198   9.759   4.117  1.0460 -2.0416 -0.6209
  290MOL0     H39098   1.062   9.810   4.014  0.1711  0.6112 -1.6041
  290MOL0     H39099   1.325   9.670   3.909 -0.0938 -0.2045 -0.8681
  290MOL0     H39100   1.184   9.711   3.818  0.1390  2.8787 -0.1270
  290MOL0     H39101   1.102   9.958   3.783  1.2433  1.2850 -2.1115
  290MOL0     H39102   1.133  10.171   3.704  0.7396 -2.8365  0.6806
  290MOL0     H39103   1.152  10.271   3.852  1.3487  1.2725 -0.4216
  290MOL0     H39104   1.385  10.222   3.662  0.7754  0.7335  0.2081
  290MOL0     H39105   1.259  10.344   3.625 -2.8716  0.3598  2.1478
  290MOL0     H39106   1.414  10.381   3.884  0.1555  2.0662  0.8798
  290MOL0     H39107   1.285  10.475   3.821 -0.7691 -1.9492  2.2247
  290MOL0     H39108   1.423  10.519   3.603 -3.0692 -0.9166  1.7394
  290MOL0     H39109   1.560  10.441   3.700  1.0582 -0.5207  5.0016
  290MOL0     H39110   1.683  10.556   3.559  1.7567 -0.6848 -0.5020
  290MOL0     H39111   1.815  10.696   3.462 -0.8847  1.0861 -0.0001
  290MOL0     H39112   2.229  10.930   3.518 -1.0778  0.3472  0.4596
  290MOL0     H39113   2.412  11.034   3.381 -0.9375 -0.6120  3.5053
  290MOL0     H39114   2.355  11.338   3.229 -0.2423 -0.5872 -0.1260
  290MOL0     H39115   2.508  11.243   3.248  0.2212 -2.9931 -0.8284
  290MOL0     H39116   2.427  11.347   2.981 -1.0019  2.0344  2.0831
  290MOL0     H39117   2.535  11.432   3.091 -1.8463  0.5618  3.2298
  290MOL0     H39118   2.686  11.234   3.075  2.3306 -0.3161 -1.7607
  290MOL0     H39119   2.562  11.141   2.991 -0.6084  1.0699 -3.6833
  290MOL0     H39120   2.736  11.370   2.898  0.1269 -0.2060  1.3330
  290MOL0     H39121   2.580  11.313   2.819 -2.0377 -3.0982  1.0736
  290MOL0     H39122   2.803  11.221   2.749  0.2482  0.0387  1.3191
  290MOL0     H39123   2.693  11.083   2.805  0.4931 -1.6898  4.5126
  290MOL0     H39124   2.910  11.206   2.967 -2.4050  2.2729 -1.6589
  290MOL0     H39125   2.826  11.063   3.021  4.5770 -0.9888  0.8793
  290MOL0     H39126   3.016  11.078   2.792 -1.6165  1.5877 -1.2884
  290MOL0     H39127   2.893  10.950   2.799  0.6939  1.1996 -1.3246
  290MOL0     H39128   3.056  11.026   3.044 -3.1194  0.1715  0.7239
  290MOL0     H39129   2.976  10.872   3.016  0.1543  0.9174  2.2271
  290MOL0     H39130   2.117  11.168   3.099  2.4850  2.0679  0.6869
  290MOL0     H39131   1.936  11.056   3.226 -0.5306 -0.7658 -0.0282
  290MOL0     H39132   1.702  11.022   3.720  1.9858 -0.0785  1.2007
  290MOL0     H39133   1.527  10.855   3.826  0.9793  0.4762  1.5476
  290MOL0     H39134   0.607   9.488   4.248  2.1282  0.6013  0.6533
  290MOL0     H39135   0.685   9.581   4.466 -0.5723  0.5583  0.6636
  290MOL0     H39136   0.680   9.757   4.787 -1.4886  1.0264 -2.9665
  290MOL0     H39137   0.722   9.798   5.035  0.8989  1.7872  0.8546
  290MOL0     H39138   0.470  10.053   5.183 -0.2069 -0.6300 -0.3393
  290MOL0     H39139   0.577  10.185   5.241 -1.0482 -0.2438  0.7351
  290MOL0     H39140   0.487   9.918   5.372  0.4388 -0.7740 -2.1677
  290MOL0     H39141   0.475  10.073   5.437 -2.9781 -2.1211 -0.4666
  290MOL0     H39142   0.751   9.935   5.387 -3.4518 -2.3949 -1.8954
  290MOL0     H39143   0.660   9.926   5.539  1.6431 -0.6613 -0.0879
  290MOL0     H39144   0.729  10.205   5.427 -0.7694 -1.8377 -1.7019
  290MOL0     H39145   0.661  10.171   5.581 -0.0599 -1.1345  1.5631
  290MOL0     H39146   1.068  10.045   5.624  0.3259  0.6038  0.1310
  290MOL0     H39147   0.578  10.201   4.980 -1.2353  0.2117 -4.3623
  290MOL0     H39148   0.594  10.256   4.696 -1.7515  0.3846 -2.0093
  290MOL0     H39149   0.459  10.165   4.641  1.4954 -2.3392 -1.8627
  290MOL0     H39150   0.454  10.258   4.803 -0.8119 -1.4392 -0.1382
  291MOL0     O39151   9.900   9.488   5.059  0.3955 -0.2071  0.3931
  291MOL0     C39152   9.993   9.513   5.135  0.1303 -1.3112  0.2077
  291MOL0     O39153   9.977   9.491   5.275 -0.0672 -0.0156  0.4166
  291MOL0     C39154   9.865   9.430   5.335 -0.3552 -1.1439 -1.1282
  291MOL0     C39155   9.736   9.451   5.305 -0.1373 -0.2754 -0.0890
  291MOL0     C39156   9.630   9.379   5.359 -0.2216  0.4525  0.3534
  291MOL0     C39157   9.658   9.273   5.454 -0.2087 -1.1698 -0.5633
  291MOL0     O39158   9.573   9.195   5.517 -0.1990  0.6234 -0.3071
  291MOL0     C39159   9.441   9.195   5.468  0.0600  0.2408  0.0806
  291MOL0     C39160   9.355   9.111   5.560 -0.6760  0.0498 -0.2255
  291MOL0     C39161   9.311   8.978   5.494 -0.5847  0.1231  0.8085
  291MOL0     C39162   9.256   8.880   5.601  0.6073  0.6220  0.1647
  291MOL0     C39163   9.217   8.741   5.536 -0.2717 -0.0235 -0.1988
  291MOL0     C39164   9.067   8.730   5.516 -0.8753 -0.5433 -0.2113
  291MOL0     C39165   9.019   8.586   5.503 -0.7328 -1.4078  0.6491
  291MOL0     C39166   8.888   8.568   5.427 -0.0726  0.1988  0.5760
  291MOL0     N39167   8.911   8.549   5.279 -0.6596  0.2219  0.0071
  291MOL0     C39168   8.838   8.483   5.189 -0.6629  0.5112  0.2086
  291MOL0     C39169   8.869   8.534   5.067 -0.5272 -1.1596 -0.2503
  291MOL0     C39170   8.805   8.505   4.933 -0.5096 -0.1646  0.3147
  291MOL0     C39171   8.675   8.566   4.912 -0.3670 -0.7131  0.7733
  291MOL0     C39172   8.682   8.716   4.927 -0.1870  0.5122  0.1842
  291MOL0     C39173   8.556   8.791   4.921 -0.1889 -0.2554  0.9486
  291MOL0     O39174   8.453   8.750   5.014  0.0446  0.2054 -0.1648
  291MOL0     C39175   8.492   8.723   5.142 -0.9530 -0.5271  0.4756
  291MOL0     C39176   8.558   8.827   5.220  0.4137  0.4050  0.2675
  291MOL0     C39177   8.574   8.809   5.351 -0.2654  0.2656 -0.7609
  291MOL0     C39178   8.532   8.686   5.415 -1.0016  0.1955  0.3882
  291MOL0     C39179   8.559   8.659   5.556  0.3303 -0.6337  1.0947
  291MOL0     O39180   8.485   8.556   5.603  0.2226 -0.4797  0.8547
  291MOL0     C39181   8.501   8.531   5.733 -0.5930 -0.7004 -0.3829
  291MOL0     C39182   8.462   8.623   5.827  0.0488 -1.0843  0.5398
  291MOL0     C39183   8.478   8.593   5.968  0.5628 -0.1781 -0.0587
  291MOL0     C39184   8.531   8.470   6.003  0.4983  0.4025  0.7730
  291MOL0     O39185   8.545   8.431   6.133  0.5700 -0.6030  0.3576
  291MOL0     C39186   8.419   8.441   6.209 -0.3631  1.3185 -0.4115
  291MOL0     C39187   8.357   8.307   6.168  0.4298 -1.1295  0.2811
  291MOL0     C39188   8.225   8.282   6.245 -0.6385 -0.4813  0.6122
  291MOL0     C39189   8.244   8.272   6.406 -0.1026  0.3230 -0.1122
  291MOL0     C39190   8.114   8.240   6.479  0.4630 -1.0469  0.7233
  291MOL0     C39191   8.128   8.238   6.638 -0.7826 -0.3707 -0.1840
  291MOL0     C39192   8.241   8.152   6.698  0.6484  0.4650  0.4088
  291MOL0     C39193   8.231   7.996   6.674 -0.1397 -0.6143 -0.0934
  291MOL0    Cl39194   8.385   7.915   6.723 -0.1654  0.0470 -0.2097
  291MOL0     C39195   8.574   8.385   5.905 -0.4424  0.3335  0.3820
  291MOL0     C39196   8.548   8.417   5.775  0.3108  0.6179 -0.3462
  291MOL0     O39197   8.642   8.724   5.617 -0.3272 -0.1160 -0.1388
  291MOL0     C39198   8.476   8.589   5.335 -0.2665  0.8501 -0.6832
  291MOL0     C39199   8.446   8.610   5.202  0.0175  1.2411  0.0451
  291MOL0     N39200   8.947   8.645   5.091 -0.0507  0.1491  0.1468
  291MOL0     N39201   8.971   8.647   5.213  0.3409 -0.1779 -0.3860
  291MOL0     C39202   9.790   9.244   5.481  0.4578 -0.4006  1.1557
  291MOL0     C39203   9.900   9.330   5.430  0.2916  0.0728 -0.7800
  291MOL0     C39204  10.123   9.564   5.096  0.3019 -0.3294 -0.7395
  291MOL0     C39205  10.172   9.669   5.176 -0.3511  0.3897  1.0354
  291MOL0     C39206  10.309   9.711   5.158  0.3078 -0.3157  0.0667
  291MOL0     C39207  10.392   9.655   5.057  0.1844  1.2639 -0.0493
  291MOL0     O39208  10.520   9.706   5.051  0.1518  0.0130  0.6572
  291MOL0     C39209  10.615   9.658   4.959  0.5395 -0.0637  0.2321
  291MOL0     C39210  10.725   9.760   4.958  0.6732 -0.3122  0.0952
  291MOL0     C39211  10.838   9.705   5.043 -0.3763 -0.3495 -0.7733
  291MOL0     C39212  10.978   9.771   5.013 -1.0003 -0.4662  0.4955
  291MOL0     C39213  11.093   9.700   5.066  1.2739 -0.3073  0.2463
  291MOL0     C39214  11.185   9.639   5.122  0.1202  0.7134 -0.6394
  291MOL0     C39215  10.340   9.546   4.978 -0.2623 -0.4453 -0.7524
  291MOL0     C39216  10.213   9.498   5.005  0.1169  1.3010  0.8183
  291MOL0     C39217  10.163   9.372   4.937 -1.0396 -0.4165  0.3395
  291MOL0     H39218   9.701   9.520   5.228 -3.9613 -0.1696  1.5150
  291MOL0     H39219   9.528   9.399   5.328 -0.6757 -0.2984  1.2946
  291MOL0     H39220   9.405   9.298   5.465  2.7537  1.2178 -1.3189
  291MOL0     H39221   9.435   9.167   5.362  2.7127  1.4181 -0.4388
  291MOL0     H39222   9.275   9.167   5.608 -0.2011 -0.1220  0.7981
  291MOL0     H39223   9.422   9.069   5.636 -1.4717 -2.6385 -0.8984
  291MOL0     H39224   9.386   8.924   5.435 -0.9345  0.9571 -0.4188
  291MOL0     H39225   9.227   9.007   5.431 -1.4384  2.0964  2.7510
  291MOL0     H39226   9.338   8.856   5.668 -0.6915 -0.6313  1.3597
  291MOL0     H39227   9.169   8.926   5.649  0.1676 -0.5732  0.5452
  291MOL0     H39228   9.258   8.737   5.435 -0.8565 -0.8005 -0.4121
  291MOL0     H39229   9.266   8.658   5.588 -0.3673 -1.6356 -2.5151
  291MOL0     H39230   9.007   8.793   5.582 -1.7203  0.2559 -1.7048
  291MOL0     H39231   9.048   8.759   5.412  0.5038 -1.7233 -0.8355
  291MOL0     H39232   9.010   8.548   5.605  2.0371 -3.1877  0.3102
  291MOL0     H39233   9.093   8.527   5.450 -1.0349 -2.7194  1.6331
  291MOL0     H39234   8.818   8.495   5.469  0.6828 -0.9845 -0.1720
  291MOL0     H39235   8.829   8.659   5.446  1.9233  1.4668  1.0760
  291MOL0     H39236   8.777   8.398   5.219  1.4353 -2.5731 -3.4381
  291MOL0     H39237   8.877   8.536   4.857 -0.0587 -1.8083  0.0383
  291MOL0     H39238   8.798   8.397   4.917 -1.0385 -0.3740  1.7533
  291MOL0     H39239   8.642   8.545   4.810  2.5784 -1.9746 -0.0396
  291MOL0     H39240   8.606   8.515   4.980 -0.9538 -1.4194 -0.3370
  291MOL0     H39241   8.754   8.751   4.852 -0.7246  2.9475  0.7086
  291MOL0     H39242   8.722   8.736   5.027  2.0607  1.2732 -0.7874
  291MOL0     H39243   8.510   8.766   4.825  3.1776 -3.0332 -0.1893
  291MOL0     H39244   8.567   8.899   4.920 -2.3108  0.0026 -0.7425
  291MOL0     H39245   8.584   8.915   5.163  1.4949  0.5797  1.0010
  291MOL0     H39246   8.631   8.883   5.407  1.3855  0.4535 -2.5940
  291MOL0     H39247   8.410   8.711   5.789  1.6459 -0.2379  0.2498
  291MOL0     H39248   8.438   8.661   6.042  0.9042 -1.6750  1.5875
  291MOL0     H39249   8.447   8.447   6.315 -1.7348  0.7569  0.0049
  291MOL0     H39250   8.346   8.518   6.181 -3.0447  0.0699  2.4420
  291MOL0     H39251   8.338   8.303   6.060  2.7045 -0.7972 -0.1868
  291MOL0     H39252   8.427   8.226   6.191 -1.0684 -1.7185  3.2434
  291MOL0     H39253   8.158   8.367   6.226  0.4149  0.2787  0.1585
  291MOL0     H39254   8.176   8.195   6.202 -0.7677  0.9985 -2.5125
  291MOL0     H39255   8.293   8.364   6.436  2.3539 -0.1741 -2.2779
  291MOL0     H39256   8.313   8.190   6.430  1.0301  1.9321  2.6195
  291MOL0     H39257   8.085   8.138   6.457 -0.3874 -0.9834  1.5063
  291MOL0     H39258   8.030   8.302   6.448  0.9123 -1.1425 -0.7330
  291MOL0     H39259   8.150   8.341   6.668 -1.1560 -0.5605  0.7431
  291MOL0     H39260   8.038   8.197   6.684  0.3261 -1.6573  0.9080
  291MOL0     H39261   8.244   8.180   6.804  1.2869 -1.7505  1.0299
  291MOL0     H39262   8.338   8.180   6.657  1.3156  0.8799  2.1659
  291MOL0     H39263   8.145   7.956   6.729 -0.4528  1.8058  1.3208
  291MOL0     H39264   8.225   7.984   6.565  4.2654  1.9109 -0.8255
  291MOL0     H39265   8.631   8.296   5.930 -0.4734  0.0241 -0.6142
  291MOL0     H39266   8.570   8.348   5.694 -2.3149  1.5409 -1.9698
  291MOL0     H39267   8.448   8.489   5.366  1.3979  1.5150  3.7235
  291MOL0     H39268   8.390   8.536   5.146  0.6952 -1.0634  2.1940
  291MOL0     H39269   9.817   9.170   5.556 -2.1109  1.8753  4.6643
  291MOL0     H39270  10.004   9.314   5.458 -0.6864 -3.6670  1.4084
  291MOL0     H39271  10.104   9.713   5.249 -1.4263  3.1102 -1.4248
  291MOL0     H39272  10.340   9.798   5.214  2.0920 -0.8019 -0.1225
  291MOL0     H39273  10.565   9.634   4.865  3.2159 -2.5319 -0.6953
  291MOL0     H39274  10.648   9.562   4.999  0.0292 -0.6550 -0.7259
  291MOL0     H39275  10.687   9.857   4.992  0.8121 -0.6605  1.2888
  291MOL0     H39276  10.751   9.779   4.853  2.5690  2.0153  0.8983
  291MOL0     H39277  10.856   9.597   5.034 -1.2442 -0.5824  0.1405
  291MOL0     H39278  10.804   9.733   5.143  0.0085 -1.8602 -0.1872
  291MOL0     H39279  10.981   9.773   4.903 -1.5761 -1.1301  0.4648
  291MOL0     H39280  10.984   9.877   5.039  3.7339 -0.1239 -1.0193
  291MOL0     H39281  11.266   9.598   5.178 -1.3558 -0.3940  0.7588
  291MOL0     H39282  10.401   9.507   4.898 -2.6624 -0.2690 -2.7986
  291MOL0     H39283  10.081   9.405   4.873  1.1258 -1.1984 -3.1191
  291MOL0     H39284  10.239   9.334   4.868  1.7239  3.3175  1.0145
  291MOL0     H39285  10.136   9.297   5.012 -0.2828 -0.4977  0.5392
  292MOL0     O39286   1.731   2.819   9.091 -0.3280  0.5880  0.0873
  292MOL0     C39287   1.663   2.713   9.109  0.7493  0.6490 -0.4515
  292MOL0     O39288   1.527   2.711   9.124 -0.4597 -0.1916  0.2132
  292MOL0     C39289   1.462   2.820   9.077  1.1748 -0.2949 -0.1050
  292MOL0     C39290   1.414   2.831   8.945 -0.5723 -0.4059 -0.9438
  292MOL0     C39291   1.360   2.955   8.898 -0.4383 -0.2869 -0.8707
  292MOL0     C39292   1.355   3.066   8.987 -0.1413 -0.3906  0.8387
  292MOL0     O39293   1.322   3.186   8.931 -0.5437 -0.8913 -1.1374
  292MOL0     C39294   1.363   3.312   8.991 -0.8675 -0.3412  0.5472
  292MOL0     C39295   1.351   3.421   8.883 -0.3568 -0.9470 -0.2112
  292MOL0     C39296   1.470   3.393   8.789  0.5151  0.9537  0.2624
  292MOL0     C39297   1.475   3.488   8.680  0.4537 -0.1787 -0.0977
  292MOL0     C39298   1.610   3.466   8.605 -0.2562 -0.8689 -0.4771
  292MOL0     C39299   1.639   3.587   8.512  0.4157 -0.3852  0.4442
  292MOL0     C39300   1.686   3.712   8.594 -0.4404  1.1774 -0.0574
  292MOL0     C39301   1.673   3.837   8.515 -0.8300  1.3710 -1.5373
  292MOL0     N39302   1.786   3.870   8.420 -0.2053  0.2654 -0.3236
  292MOL0     C39303   1.900   3.930   8.446 -0.0109 -0.7182 -0.1924
  292MOL0     C39304   1.974   3.931   8.334  0.8932  0.5413 -0.6982
  292MOL0     C39305   2.110   3.982   8.326 -0.8519 -0.2123  0.8402
  292MOL0     C39306   2.119   4.107   8.253 -0.0476 -0.2165  0.9975
  292MOL0     C39307   2.252   4.113   8.168 -0.5712  0.8322 -0.1428
  292MOL0     C39308   2.269   4.252   8.098  0.5461  0.4188  0.2987
  292MOL0     O39309   2.402   4.264   8.059  0.5278 -0.4381 -0.9378
  292MOL0     C39310   2.461   4.396   8.061 -0.4957  0.6750  0.0607
  292MOL0     C39311   2.398   4.513   8.037 -0.1778  0.6153 -0.0499
  292MOL0     C39312   2.460   4.630   8.055 -0.2128 -0.8314 -1.4515
  292MOL0     C39313   2.601   4.644   8.084 -0.3720  0.3492 -0.6752
  292MOL0     C39314   2.674   4.769   8.116  0.7873 -0.4324  0.3705
  292MOL0     O39315   2.797   4.771   8.167  1.3073  0.5268 -0.2438
  292MOL0     C39316   2.835   4.890   8.225  0.1159  0.0741  0.1909
  292MOL0     C39317   2.916   4.966   8.143 -1.1879  0.5299 -0.0438
  292MOL0     C39318   2.947   5.101   8.168 -0.1727  0.9125 -0.0716
  292MOL0     C39319   2.906   5.159   8.292 -0.5910  0.2302 -0.3400
  292MOL0     O39320   2.921   5.287   8.325  0.4093  0.0592  0.3945
  292MOL0     C39321   2.996   5.373   8.240 -0.2477  0.3720 -0.2618
  292MOL0     C39322   2.996   5.514   8.293  0.2249 -0.8747 -0.5066
  292MOL0     C39323   2.959   5.632   8.197  0.6346  0.4740  0.0931
  292MOL0     C39324   2.799   5.638   8.197  0.3308 -0.2533  1.0074
  292MOL0     C39325   2.731   5.722   8.076 -0.4193  0.5390 -0.7799
  292MOL0     C39326   2.588   5.698   8.058 -0.2858  1.1341 -0.4591
  292MOL0     C39327   2.516   5.768   7.945 -0.3169 -0.1802  1.0605
  292MOL0     C39328   2.451   5.893   7.985  0.9334  0.1916  0.3059
  292MOL0    Cl39329   2.571   6.020   8.022  0.1166  0.2720  0.2040
  292MOL0     C39330   2.823   5.079   8.376  0.0183 -0.1828  0.0132
  292MOL0     C39331   2.790   4.943   8.340  0.0895  1.0922  0.3887
  292MOL0     O39332   2.598   4.865   8.099 -0.0965 -0.5582  0.0464
  292MOL0     C39333   2.659   4.523   8.099 -0.1723  0.3907 -0.4906
  292MOL0     C39334   2.598   4.395   8.083 -0.8784 -0.8387  0.5829
  292MOL0     N39335   1.910   3.859   8.235  0.0619  0.2053 -0.3489
  292MOL0     N39336   1.799   3.821   8.297  1.0770  0.1751  0.5032
  292MOL0     C39337   1.396   3.055   9.119  0.4573  0.0973 -0.0835
  292MOL0     C39338   1.448   2.932   9.162 -0.1152 -0.4305 -0.8378
  292MOL0     C39339   1.736   2.584   9.124 -0.6046  0.6402 -0.2078
  292MOL0     C39340   1.854   2.590   9.213  0.5459 -0.9810  0.1668
  292MOL0     C39341   1.926   2.477   9.234 -0.3490  0.3389 -0.3319
  292MOL0     C39342   1.879   2.353   9.182 -0.1896  0.5555 -0.7631
  292MOL0     O39343   1.930   2.222   9.202 -0.0923 -0.0916 -0.2729
  292MOL0     C39344   2.040   2.210   9.295 -0.6391  0.4366  1.4020
  292MOL0     C39345   2.075   2.069   9.321 -0.4254  0.6225  0.7574
  292MOL0     C39346   2.204   2.033   9.405 -0.6029  0.6900  0.3946
  292MOL0     C39347   2.180   1.905   9.475 -0.0729 -0.6811  0.7046
  292MOL0     C39348   2.310   1.845   9.508 -0.1957  0.1536 -0.3127
  292MOL0     C39349   2.406   1.786   9.558  0.5542 -0.4069 -0.7743
  292MOL0     C39350   1.762   2.349   9.097  0.1934 -0.4093 -0.5147
  292MOL0     C39351   1.695   2.466   9.060 -0.5246  0.7167  0.0237
  292MOL0     C39352   1.569   2.456   8.972  0.7887 -0.2376 -0.3497
  292MOL0     H39353   1.421   2.745   8.879 -0.0187 -0.8738 -0.2861
  292MOL0     H39354   1.333   2.956   8.793  2.9106  0.5143 -1.8604
  292MOL0     H39355   1.295   3.323   9.077 -1.0983 -2.7406  0.7396
  292MOL0     H39356   1.464   3.303   9.031 -1.1555 -1.3471  1.1045
  292MOL0     H39357   1.380   3.514   8.933 -0.8838 -0.4219 -0.8621
  292MOL0     H39358   1.251   3.425   8.838  0.7397  0.7791 -2.7023
  292MOL0     H39359   1.460   3.294   8.743  0.4588  1.3206 -0.5258
  292MOL0     H39360   1.563   3.391   8.847  2.0631 -0.2400 -2.0795
  292MOL0     H39361   1.390   3.485   8.611  1.9309  6.1166 -2.9138
  292MOL0     H39362   1.472   3.593   8.712  1.7773 -0.0146 -0.4578
  292MOL0     H39363   1.697   3.462   8.672 -0.0893  0.4856 -0.5845
  292MOL0     H39364   1.603   3.368   8.556  3.4026 -1.3024 -0.4106
  292MOL0     H39365   1.720   3.546   8.452 -0.0543 -0.6808  0.0107
  292MOL0     H39366   1.558   3.614   8.444  0.3205  1.1146  1.1033
  292MOL0     H39367   1.790   3.694   8.623 -0.5134  0.8314 -0.0112
  292MOL0     H39368   1.633   3.722   8.689 -0.4543 -0.8232  0.1770
  292MOL0     H39369   1.584   3.833   8.452 -1.7289 -0.6228 -0.2629
  292MOL0     H39370   1.683   3.921   8.585  2.0615  2.0013 -2.5662
  292MOL0     H39371   1.933   3.971   8.541 -3.7631  2.1642  0.0922
  292MOL0     H39372   2.157   3.999   8.424 -0.0591  3.2079 -0.0144
  292MOL0     H39373   2.175   3.909   8.276 -1.2829  1.2572 -2.0402
  292MOL0     H39374   2.038   4.108   8.181  2.7517  1.6429 -2.4383
  292MOL0     H39375   2.125   4.195   8.318  5.2393  0.0466  0.6251
  292MOL0     H39376   2.257   4.034   8.092  0.8850  1.1614 -0.4151
  292MOL0     H39377   2.345   4.098   8.223 -0.1329 -2.0102 -1.4741
  292MOL0     H39378   2.238   4.324   8.174  0.4441  0.2880  0.3817
  292MOL0     H39379   2.196   4.250   8.016 -0.5160 -1.7012  1.2367
  292MOL0     H39380   2.296   4.517   8.000 -0.0059 -0.0610 -0.6131
  292MOL0     H39381   2.398   4.718   8.043 -0.8074 -0.7795  1.3590
  292MOL0     H39382   2.961   4.915   8.058  3.4864  2.5072  0.9274
  292MOL0     H39383   3.009   5.151   8.094  0.9978 -0.5093 -0.0840
  292MOL0     H39384   3.100   5.345   8.224 -0.9089 -1.6131 -1.4204
  292MOL0     H39385   2.954   5.369   8.139  0.8364  1.2720 -0.7676
  292MOL0     H39386   2.931   5.536   8.378  1.6937  1.7714  0.0679
  292MOL0     H39387   3.099   5.531   8.327  0.2819  3.8255 -2.2813
  292MOL0     H39388   2.995   5.718   8.256 -0.2030  1.3489 -0.6384
  292MOL0     H39389   3.026   5.632   8.110  0.4364 -0.0898 -0.0617
  292MOL0     H39390   2.775   5.685   8.292 -1.5161 -2.2040  1.6120
  292MOL0     H39391   2.751   5.539   8.204 -1.2667  0.4546  0.6001
  292MOL0     H39392   2.783   5.683   7.988  1.1642 -3.7629  1.7170
  292MOL0     H39393   2.755   5.828   8.087  2.9325 -0.2128  0.4341
  292MOL0     H39394   2.579   5.589   8.053 -2.1315  1.1336  1.3558
  292MOL0     H39395   2.547   5.719   8.158  2.0908  1.7752  0.4571
  292MOL0     H39396   2.443   5.704   7.894  2.1454 -1.8809 -0.6051
  292MOL0     H39397   2.590   5.788   7.867  0.2437 -3.5694  0.5689
  292MOL0     H39398   2.390   5.919   7.898 -0.8602  0.2637  1.5399
  292MOL0     H39399   2.376   5.877   8.063  1.3008 -0.7541  0.4833
  292MOL0     H39400   2.779   5.128   8.462 -4.2346  2.2415 -3.1615
  292MOL0     H39401   2.732   4.875   8.401  0.3423 -1.0597 -1.6278
  292MOL0     H39402   2.765   4.517   8.122 -0.3768  0.7163  0.5621
  292MOL0     H39403   2.648   4.299   8.094 -0.0468 -0.2624  2.3385
  292MOL0     H39404   1.402   3.132   9.195 -2.4858  0.7250 -0.3670
  292MOL0     H39405   1.468   2.928   9.268 -1.7212 -2.5887 -0.5459
  292MOL0     H39406   1.877   2.671   9.282  0.5448 -1.7738  1.1324
  292MOL0     H39407   2.015   2.479   9.296 -0.0023 -0.4333 -0.7904
  292MOL0     H39408   2.021   2.254   9.393 -0.0546 -0.8870  2.1257
  292MOL0     H39409   2.115   2.260   9.232 -2.9688 -1.0876 -3.0713
  292MOL0     H39410   2.082   2.022   9.223  0.1556 -4.5970  2.9680
  292MOL0     H39411   1.981   2.036   9.366 -0.0250  0.2938  1.3547
  292MOL0     H39412   2.238   2.103   9.481  2.0543  0.0093 -0.0741
  292MOL0     H39413   2.282   2.030   9.328 -2.3706  2.7457 -1.6240
  292MOL0     H39414   2.128   1.928   9.568  0.0481 -1.7395  1.0450
  292MOL0     H39415   2.118   1.843   9.410 -2.3598 -1.4844  3.4550
  292MOL0     H39416   2.493   1.743   9.605  1.5119  1.5721 -0.6664
  292MOL0     H39417   1.735   2.248   9.067 -0.6967 -0.2699 -0.2031
  292MOL0     H39418   1.582   2.373   8.903  2.1567  0.6841 -1.2436
  292MOL0     H39419   1.477   2.439   9.029  0.3589  1.8522 -0.3475
  292MOL0     H39420   1.552   2.544   8.909 -1.9703 -0.6708 -0.3436
  293MOL0     O39421   4.266   4.791   7.766 -0.2765  0.8181  0.4222
  293MOL0     C39422   4.267   4.764   7.886  0.1091  0.0679  0.0578
  293MOL0     O39423   4.298   4.637   7.934  0.1044  0.4386 -0.2050
  293MOL0     C39424   4.370   4.553   7.853 -0.2334 -1.1044 -0.3154
  293MOL0     C39425   4.507   4.586   7.817 -0.0794  0.4004 -0.4254
  293MOL0     C39426   4.589   4.498   7.741 -0.9144  0.4843 -0.3739
  293MOL0     C39427   4.538   4.376   7.695 -0.1177 -0.4797  0.4902
  293MOL0     O39428   4.609   4.285   7.624  0.2933  0.1807 -0.6683
  293MOL0     C39429   4.755   4.298   7.615 -0.2227 -0.1714 -0.2543
  293MOL0     C39430   4.824   4.175   7.560  0.1374  0.2242 -0.0176
  293MOL0     C39431   4.799   4.161   7.409  0.1466 -0.3732 -0.0976
  293MOL0     C39432   4.878   4.033   7.372 -0.2541 -0.4091 -0.9336
  293MOL0     C39433   4.867   4.022   7.226  0.2159 -0.0207 -0.3302
  293MOL0     C39434   4.961   3.920   7.157 -0.3330  0.0721  1.5394
  293MOL0     C39435   4.978   3.779   7.208  0.2187  0.2783 -0.4807
  293MOL0     C39436   5.016   3.679   7.101  0.1112 -0.2583 -0.3177
  293MOL0     N39437   4.962   3.684   6.969 -0.0049 -0.0019  0.4432
  293MOL0     C39438   4.999   3.772   6.864 -0.0268  0.2028 -0.3326
  293MOL0     C39439   4.947   3.729   6.753 -0.1729 -0.3981  1.5685
  293MOL0     C39440   4.978   3.796   6.617 -0.2916  0.2106 -0.3666
  293MOL0     C39441   4.964   3.701   6.496 -0.0369 -0.4186  0.7532
  293MOL0     C39442   4.950   3.778   6.364  0.4626 -0.0835  0.2109
  293MOL0     C39443   4.967   3.681   6.244 -0.8464 -0.1441 -0.4866
  293MOL0     O39444   5.096   3.624   6.237  0.5986 -1.0703  0.1823
  293MOL0     C39445   5.133   3.558   6.121  1.0552  0.9110 -0.1773
  293MOL0     C39446   5.056   3.535   5.998  0.5270 -0.7043  0.8541
  293MOL0     C39447   5.109   3.460   5.895  0.1362 -0.5633 -0.0785
  293MOL0     C39448   5.228   3.388   5.917  0.7178  0.1640  0.2725
  293MOL0     C39449   5.285   3.320   5.797  0.0283  0.4203  0.4529
  293MOL0     O39450   5.415   3.294   5.794  0.6841 -0.1604  0.1726
  293MOL0     C39451   5.472   3.285   5.670 -0.5643 -0.0486 -0.2344
  293MOL0     C39452   5.444   3.378   5.570 -0.1078 -0.0555  0.5640
  293MOL0     C39453   5.491   3.362   5.442 -0.0053  0.4022  0.2285
  293MOL0     C39454   5.579   3.257   5.407 -0.2467  0.2456  0.2733
  293MOL0     O39455   5.622   3.241   5.276 -0.1603 -0.2815 -0.3235
  293MOL0     C39456   5.682   3.122   5.235 -1.0205  0.1341 -0.3686
  293MOL0     C39457   5.706   3.123   5.083  0.1026 -0.7038  1.3314
  293MOL0     C39458   5.775   2.992   5.032  0.5489 -0.5452  0.4137
  293MOL0     C39459   5.784   3.007   4.879 -0.0110  0.1529 -0.1370
  293MOL0     C39460   5.899   2.933   4.808  0.0483  0.5265 -0.3168
  293MOL0     C39461   5.915   2.791   4.866 -0.8954 -0.2372 -0.1675
  293MOL0     C39462   5.805   2.699   4.822  0.0242 -0.1952  0.0331
  293MOL0     C39463   5.841   2.560   4.857 -0.5670  0.8050  0.0223
  293MOL0    Cl39464   5.877   2.544   5.029 -0.1974  0.4044  0.3691
  293MOL0     C39465   5.626   3.167   5.514 -0.1549 -0.1082 -0.9562
  293MOL0     C39466   5.567   3.190   5.639 -0.1711  1.3767 -0.3045
  293MOL0     O39467   5.208   3.287   5.706 -0.5233  0.3112  0.3597
  293MOL0     C39468   5.301   3.411   6.031 -0.1332  0.3914  0.7835
  293MOL0     C39469   5.263   3.498   6.131  1.5375 -0.3687 -0.2008
  293MOL0     N39470   4.877   3.617   6.778  0.1765  0.3071 -0.3237
  293MOL0     N39471   4.880   3.585   6.907 -0.6419  0.6275  1.2388
  293MOL0     C39472   4.405   4.348   7.720  0.8588  0.4664  0.2347
  293MOL0     C39473   4.319   4.435   7.804 -1.3647 -0.4047 -1.0372
  293MOL0     C39474   4.243   4.866   7.990  0.6633 -0.5497 -0.0587
  293MOL0     C39475   4.157   4.980   7.969  0.0105  0.4607  0.0419
  293MOL0     C39476   4.117   5.067   8.072  0.0783 -0.1387 -0.2313
  293MOL0     C39477   4.176   5.046   8.198 -0.7288 -0.7756 -0.0320
  293MOL0     O39478   4.158   5.140   8.296 -0.1996  0.4115  0.3780
  293MOL0     C39479   4.017   5.135   8.337  0.5745  0.3173  0.2784
  293MOL0     C39480   3.999   5.026   8.437  0.6320 -0.1671 -0.7150
  293MOL0     C39481   3.944   4.890   8.391  0.4389  0.9623  0.0178
  293MOL0     C39482   3.973   4.789   8.494  0.7882  0.1147 -1.0306
  293MOL0     C39483   3.924   4.830   8.629 -0.4784 -0.4054  0.3688
  293MOL0     C39484   3.892   4.860   8.736  0.6631 -0.2073  0.5790
  293MOL0     C39485   4.270   4.950   8.216  0.0472  1.0028 -0.0177
  293MOL0     C39486   4.305   4.851   8.119 -0.3607 -0.4747  0.1737
  293MOL0     C39487   4.395   4.733   8.167 -0.3914 -0.4258 -0.0914
  293MOL0     H39488   4.545   4.682   7.850  2.1938 -1.1093  1.7262
  293MOL0     H39489   4.694   4.508   7.718 -0.0154 -1.7424  2.2532
  293MOL0     H39490   4.784   4.385   7.556 -2.3912  1.4984  1.0012
  293MOL0     H39491   4.793   4.302   7.718  2.3072 -2.1304 -1.0050
  293MOL0     H39492   4.793   4.086   7.614  1.7425 -0.2858  0.1100
  293MOL0     H39493   4.931   4.192   7.578  0.8142  0.9719 -3.8231
  293MOL0     H39494   4.838   4.247   7.354 -0.2469  0.4867  0.9404
  293MOL0     H39495   4.696   4.151   7.373  0.0656  4.2172 -1.7745
  293MOL0     H39496   4.980   4.035   7.412 -1.8306 -1.3570  3.7875
  293MOL0     H39497   4.825   3.951   7.421 -1.2221  0.1585 -1.0180
  293MOL0     H39498   4.764   4.015   7.190  0.3050  3.8935 -1.7821
  293MOL0     H39499   4.902   4.120   7.191 -0.4199 -0.9234 -3.7839
  293MOL0     H39500   4.934   3.915   7.051  0.1130  0.7529  1.3844
  293MOL0     H39501   5.053   3.979   7.149 -1.5425  1.9341  0.6298
  293MOL0     H39502   4.880   3.752   7.247 -1.0153  0.1658 -3.3773
  293MOL0     H39503   5.051   3.793   7.289 -0.8990  0.7383  0.4798
  293MOL0     H39504   5.125   3.688   7.102  0.2119 -1.0565  2.0875
  293MOL0     H39505   5.005   3.576   7.136  3.1438 -0.6113 -0.1042
  293MOL0     H39506   5.081   3.843   6.869  1.4157 -1.3451 -1.0815
  293MOL0     H39507   4.902   3.875   6.615 -0.8224  0.3910  5.8495
  293MOL0     H39508   5.082   3.829   6.614  0.9210 -3.1851  0.0502
  293MOL0     H39509   5.052   3.636   6.498  0.5984  0.4438  1.8933
  293MOL0     H39510   4.872   3.645   6.514  0.4312 -1.3626  0.2445
  293MOL0     H39511   5.029   3.852   6.354  0.5659 -0.1412  0.5829
  293MOL0     H39512   4.848   3.816   6.352 -0.3027 -2.5111 -1.9454
  293MOL0     H39513   4.945   3.739   6.154  1.9431  0.1662 -1.0642
  293MOL0     H39514   4.893   3.600   6.239  1.0732 -2.0079 -0.2591
  293MOL0     H39515   4.965   3.589   5.977  2.1217  1.9733  0.3029
  293MOL0     H39516   5.056   3.462   5.800 -1.6535 -2.0895  0.8502
  293MOL0     H39517   5.389   3.470   5.584  0.1497  0.2760 -0.4766
  293MOL0     H39518   5.467   3.436   5.366  0.5892  2.6915  2.1276
  293MOL0     H39519   5.781   3.106   5.278 -1.4064 -1.8419 -0.1233
  293MOL0     H39520   5.624   3.032   5.258  0.5656 -0.9928 -0.6139
  293MOL0     H39521   5.604   3.142   5.049  0.2011 -2.4046 -0.0508
  293MOL0     H39522   5.766   3.213   5.066 -1.6701  0.1514 -0.7686
  293MOL0     H39523   5.876   2.988   5.074  1.5539 -2.0485 -1.9393
  293MOL0     H39524   5.721   2.902   5.062 -0.5977  0.1310  0.4218
  293MOL0     H39525   5.812   3.109   4.850  0.4131 -0.1971 -0.9819
  293MOL0     H39526   5.686   2.985   4.837 -0.3907 -1.5660  1.5327
  293MOL0     H39527   5.990   2.992   4.824  0.8544 -0.1884 -2.0286
  293MOL0     H39528   5.880   2.927   4.700  3.1157  3.0774 -1.1998
  293MOL0     H39529   6.005   2.744   4.827  0.5531 -0.8537  3.4820
  293MOL0     H39530   5.915   2.799   4.975  0.0328  1.3143 -0.2586
  293MOL0     H39531   5.790   2.704   4.714 -1.9175 -0.2696  0.2650
  293MOL0     H39532   5.709   2.724   4.868  0.4924  1.4460  0.1799
  293MOL0     H39533   5.758   2.494   4.830  0.4091 -0.3402 -0.2955
  293MOL0     H39534   5.922   2.524   4.793  0.2134  1.7580  0.4551
  293MOL0     H39535   5.696   3.087   5.495  2.2768  1.4749  0.8144
  293MOL0     H39536   5.590   3.111   5.710 -0.1140 -0.8623 -2.6608
  293MOL0     H39537   5.397   3.363   6.043 -0.7177 -0.6606  1.4467
  293MOL0     H39538   5.325   3.521   6.217  0.5261  2.8839 -0.2217
  293MOL0     H39539   4.360   4.262   7.672 -0.0358  1.2392 -0.3454
  293MOL0     H39540   4.214   4.410   7.815 -1.6216  1.3766  1.5502
  293MOL0     H39541   4.107   5.001   7.875 -1.0055 -0.7438  0.2749
  293MOL0     H39542   4.057   5.157   8.062  2.2034  1.5685  1.3392
  293MOL0     H39543   3.951   5.119   8.252  0.8459  4.0593 -0.8263
  293MOL0     H39544   3.997   5.236   8.374 -1.9157  1.0159 -2.6452
  293MOL0     H39545   3.931   5.062   8.514  1.2729 -0.5781  0.0710
  293MOL0     H39546   4.095   5.016   8.490 -0.5797 -2.3884  1.2760
  293MOL0     H39547   3.990   4.864   8.295  0.7805  0.2361  0.3733
  293MOL0     H39548   3.835   4.890   8.377  0.3319 -0.5847  0.7144
  293MOL0     H39549   3.926   4.697   8.458 -1.1485  0.6531 -0.0551
  293MOL0     H39550   4.082   4.786   8.489  0.7219 -2.2888 -3.1319
  293MOL0     H39551   3.855   4.888   8.833 -0.5658 -0.4815  0.2019
  293MOL0     H39552   4.307   4.940   8.318 -1.1992 -0.3329  0.3278
  293MOL0     H39553   4.484   4.725   8.104  1.0168  1.6408  1.5052
  293MOL0     H39554   4.431   4.756   8.268 -0.4113 -2.4596  0.4301
  293MOL0     H39555   4.331   4.645   8.176 -0.4765 -0.2041  1.9877
  294MOL0     O39556   6.933   2.205   4.470  0.1361 -0.3211 -0.5862
  294MOL0     C39557   6.952   2.169   4.349  0.4538 -0.3903  0.0979
  294MOL0     O39558   6.859   2.169   4.243  0.1626  0.1055  0.1279
  294MOL0     C39559   6.730   2.200   4.293 -0.0888  0.3419 -0.3752
  294MOL0     C39560   6.692   2.331   4.327  1.3709 -0.8130  0.2056
  294MOL0     C39561   6.561   2.355   4.384  0.8772  0.5092  1.1997
  294MOL0     C39562   6.467   2.255   4.412 -0.0522  0.1282 -0.3555
  294MOL0     O39563   6.339   2.270   4.460 -0.3544 -0.0372  0.6443
  294MOL0     C39564   6.263   2.375   4.401  0.9422  0.4172 -0.2488
  294MOL0     C39565   6.232   2.496   4.488  0.0673  0.5897  0.2481
  294MOL0     C39566   6.089   2.559   4.445  0.3612 -0.9482 -0.0008
  294MOL0     C39567   6.094   2.710   4.461 -1.4133 -1.1719 -0.6981
  294MOL0     C39568   6.153   2.794   4.341  0.3511 -0.0527 -0.1772
  294MOL0     C39569   6.303   2.776   4.306  0.6241  0.4350 -0.9478
  294MOL0     C39570   6.348   2.883   4.215 -0.1659  0.0100  0.4254
  294MOL0     C39571   6.471   2.850   4.131  0.1186  0.0219  0.1813
  294MOL0     N39572   6.444   2.820   3.984 -0.2574  0.6001 -0.6227
  294MOL0     C39573   6.353   2.738   3.933 -0.7014 -0.8382  0.1672
  294MOL0     C39574   6.391   2.735   3.799  0.5237 -0.3597 -0.2922
  294MOL0     C39575   6.336   2.649   3.683  0.0606 -0.0501 -0.8358
  294MOL0     C39576   6.227   2.714   3.602  0.5618  0.3577  0.2884
  294MOL0     C39577   6.089   2.707   3.673  0.3343  0.7723 -0.4868
  294MOL0     C39578   6.012   2.574   3.655  0.2854 -0.3851  0.2169
  294MOL0     O39579   5.968   2.581   3.516  0.7024  0.3624 -0.0159
  294MOL0     C39580   5.897   2.472   3.465 -0.1559  0.1486 -0.1147
  294MOL0     C39581   5.915   2.335   3.501  0.0948  0.2922  0.5013
  294MOL0     C39582   5.859   2.226   3.449 -1.2686 -0.4816 -0.0665
  294MOL0     C39583   5.780   2.251   3.345  0.6768 -0.6449 -0.1833
  294MOL0     C39584   5.732   2.144   3.267  0.1578  0.2791  0.6072
  294MOL0     O39585   5.602   2.168   3.222 -0.4572 -0.3129 -0.0864
  294MOL0     C39586   5.546   2.077   3.132  0.1767 -0.1655 -0.2423
  294MOL0     C39587   5.475   2.128   3.026  0.0323  0.2981 -0.3509
  294MOL0     C39588   5.410   2.045   2.938  0.1682  0.2011 -0.3330
  294MOL0     C39589   5.423   1.906   2.950 -0.3513  0.2497 -0.0999
  294MOL0     O39590   5.363   1.820   2.866  0.3568 -0.4593 -0.1580
  294MOL0     C39591   5.341   1.848   2.727 -0.5760  0.1535  0.8744
  294MOL0     C39592   5.320   1.732   2.641  0.0083  0.1971 -0.4450
  294MOL0     C39593   5.206   1.636   2.690 -0.2542 -0.0746 -0.2572
  294MOL0     C39594   5.147   1.556   2.567 -0.5850  0.3571 -0.3909
  294MOL0     C39595   4.994   1.579   2.540 -0.3312  0.0734  0.3244
  294MOL0     C39596   4.914   1.501   2.646 -0.7283 -0.3944  0.2696
  294MOL0     C39597   4.765   1.533   2.619  0.2316 -0.3321  0.4385
  294MOL0     C39598   4.677   1.457   2.711  0.1101 -0.3552 -0.9743
  294MOL0    Cl39599   4.696   1.530   2.863  0.0593 -0.2992 -0.4285
  294MOL0     C39600   5.485   1.851   3.062  0.0026  0.6634 -0.6896
  294MOL0     C39601   5.549   1.937   3.151 -0.4437  0.1596 -0.4088
  294MOL0     O39602   5.798   2.047   3.235 -0.3809  0.0772  1.1182
  294MOL0     C39603   5.753   2.380   3.296  0.5527 -0.5661 -0.5363
  294MOL0     C39604   5.809   2.491   3.358 -1.4487 -0.1141  0.5234
  294MOL0     N39605   6.496   2.819   3.775  0.3659 -0.3065 -0.2446
  294MOL0     N39606   6.525   2.865   3.889 -0.3824 -0.2902 -1.0758
  294MOL0     C39607   6.516   2.125   4.391 -0.3636 -1.0976 -0.4700
  294MOL0     C39608   6.639   2.094   4.329 -0.7609 -0.6237  0.2395
  294MOL0     C39609   7.094   2.153   4.324 -0.4999 -0.6403 -0.2659
  294MOL0     C39610   7.189   2.256   4.361  1.1353  0.6902 -0.3458
  294MOL0     C39611   7.322   2.236   4.332 -0.0369 -0.4818 -1.1577
  294MOL0     C39612   7.365   2.129   4.255 -0.1547  0.1811 -1.5004
  294MOL0     O39613   7.498   2.125   4.221  0.2252  0.0052 -0.0665
  294MOL0     C39614   7.556   2.019   4.140  0.0652  0.4380  0.0537
  294MOL0     C39615   7.708   2.015   4.131 -0.3360 -1.1798  0.4252
  294MOL0     C39616   7.748   1.949   3.996 -0.0913  0.5061  0.3143
  294MOL0     C39617   7.903   1.932   3.981 -0.0633  0.5796  0.2679
  294MOL0     C39618   7.939   1.877   3.851 -0.5180  0.6371  0.2989
  294MOL0     C39619   7.954   1.826   3.743  0.7826  0.6555 -0.3119
  294MOL0     C39620   7.281   2.029   4.222 -0.2421  0.1202  0.9929
  294MOL0     C39621   7.142   2.046   4.251 -0.5562  0.2718  0.0181
  294MOL0     C39622   7.065   1.918   4.213  0.4399 -0.5157 -0.9063
  294MOL0     H39623   6.762   2.414   4.335  1.5416 -1.1271  3.0935
  294MOL0     H39624   6.525   2.456   4.405 -1.1031  0.5539 -1.8137
  294MOL0     H39625   6.305   2.422   4.311  1.2253  2.6545  0.9689
  294MOL0     H39626   6.175   2.313   4.381 -0.1934  1.4122  1.4101
  294MOL0     H39627   6.306   2.577   4.486  0.3787  0.3027 -0.8606
  294MOL0     H39628   6.231   2.465   4.592  2.8683  0.3640  0.2876
  294MOL0     H39629   6.003   2.519   4.499  0.1719  0.6455  0.9218
  294MOL0     H39630   6.058   2.534   4.344  1.2770 -2.5678  0.0724
  294MOL0     H39631   5.994   2.745   4.487 -1.2612 -1.5773  0.4819
  294MOL0     H39632   6.161   2.733   4.544 -0.5789  5.6474 -2.6542
  294MOL0     H39633   6.086   2.777   4.256  1.8169 -4.4969 -0.7433
  294MOL0     H39634   6.152   2.899   4.371  2.9767 -0.1619  0.5142
  294MOL0     H39635   6.359   2.793   4.399  0.0029  0.6297 -0.5987
  294MOL0     H39636   6.322   2.682   4.253 -1.0439  0.6278 -1.9492
  294MOL0     H39637   6.384   2.961   4.283 -2.5482  0.7218  0.9841
  294MOL0     H39638   6.266   2.921   4.154  0.8826 -0.0187 -1.0574
  294MOL0     H39639   6.540   2.935   4.127 -0.5537  0.5178 -2.3513
  294MOL0     H39640   6.524   2.775   4.190  2.6008  0.9612 -0.7344
  294MOL0     H39641   6.273   2.683   3.982 -1.1679 -0.6080 -0.3298
  294MOL0     H39642   6.419   2.634   3.613  0.8081  1.8175 -0.4172
  294MOL0     H39643   6.309   2.555   3.730 -1.0326  2.1856  3.5541
  294MOL0     H39644   6.266   2.816   3.590 -2.2198  1.5404  0.5945
  294MOL0     H39645   6.224   2.671   3.502  2.3326  1.7715 -0.4208
  294MOL0     H39646   6.023   2.790   3.646 -0.2822  0.8571  1.1946
  294MOL0     H39647   6.102   2.721   3.780 -0.9188 -0.1066 -0.1906
  294MOL0     H39648   5.924   2.566   3.720 -1.2831 -1.1512 -1.8812
  294MOL0     H39649   6.077   2.486   3.667 -0.1043 -1.1688 -2.6800
  294MOL0     H39650   5.999   2.315   3.567  0.1087  0.3228  0.4933
  294MOL0     H39651   5.880   2.125   3.483 -3.2732 -1.3314 -1.2035
  294MOL0     H39652   5.475   2.236   3.022  0.4364  0.4121  1.5683
  294MOL0     H39653   5.349   2.100   2.867  0.8850 -0.2276 -1.3056
  294MOL0     H39654   5.268   1.928   2.710  0.1511 -0.0930 -6.2453
  294MOL0     H39655   5.434   1.888   2.687 -1.0133 -0.8758 -1.3053
  294MOL0     H39656   5.291   1.770   2.543  1.8294 -1.5071 -1.7292
  294MOL0     H39657   5.417   1.682   2.631 -0.0352 -0.4897  1.8409
  294MOL0     H39658   5.253   1.565   2.760  0.8293  0.3168 -0.5634
  294MOL0     H39659   5.130   1.697   2.739 -0.7698 -0.8612 -0.0551
  294MOL0     H39660   5.163   1.448   2.578  2.9623  0.5316 -2.5494
  294MOL0     H39661   5.198   1.590   2.477  1.3108 -1.8721 -0.2462
  294MOL0     H39662   4.971   1.538   2.442  1.1331  0.0085 -0.0152
  294MOL0     H39663   4.977   1.687   2.542  0.7372  0.2654 -0.1434
  294MOL0     H39664   4.952   1.399   2.658 -0.7979 -0.2010  2.4532
  294MOL0     H39665   4.934   1.556   2.738 -1.4431  1.9958 -0.9023
  294MOL0     H39666   4.740   1.512   2.515 -0.7406  1.4694  0.2773
  294MOL0     H39667   4.736   1.636   2.640 -2.9375 -1.2633  1.2107
  294MOL0     H39668   4.570   1.471   2.696 -0.7542 -0.2740  3.7790
  294MOL0     H39669   4.700   1.350   2.713 -1.0569 -0.6127 -0.1136
  294MOL0     H39670   5.488   1.744   3.079  0.3664  0.8347  0.4138
  294MOL0     H39671   5.583   1.888   3.242 -2.2880 -0.4494 -0.0222
  294MOL0     H39672   5.679   2.391   3.218 -3.3618 -1.0294  2.7556
  294MOL0     H39673   5.792   2.591   3.319 -1.1482  0.3738  1.5998
  294MOL0     H39674   6.446   2.042   4.387 -1.1466 -0.6081  1.7710
  294MOL0     H39675   6.677   1.993   4.315  3.0966  0.0959  3.5637
  294MOL0     H39676   7.158   2.349   4.408  0.1686 -0.2951  1.0275
  294MOL0     H39677   7.393   2.315   4.354 -0.3530 -0.6492  0.6731
  294MOL0     H39678   7.526   2.019   4.035 -1.6908 -2.9820  0.4207
  294MOL0     H39679   7.525   1.922   4.177  1.4247 -0.0177  0.0701
  294MOL0     H39680   7.762   1.956   4.206  0.8734 -0.3640  0.2238
  294MOL0     H39681   7.742   2.118   4.142 -0.0620 -1.0463 -1.3998
  294MOL0     H39682   7.716   2.009   3.910 -1.4746 -1.3222 -0.5533
  294MOL0     H39683   7.694   1.854   3.990 -0.6417  0.4746  3.9269
  294MOL0     H39684   7.963   2.023   3.987  0.4801  0.2666 -0.2725
  294MOL0     H39685   7.952   1.872   4.058  4.0328  0.9461 -1.7563
  294MOL0     H39686   7.990   1.765   3.662  0.8819  0.1786  0.0844
  294MOL0     H39687   7.322   1.938   4.179  1.6474  0.8449  1.1624
  294MOL0     H39688   7.074   1.889   4.108  2.2896  1.0539 -1.2276
  294MOL0     H39689   7.099   1.830   4.267  0.5103  1.1766  2.0013
  294MOL0     H39690   6.959   1.927   4.240  1.2206  3.1317  1.7716
  295MOL0     O39691   9.990   0.799   3.379  0.4651 -0.7350  0.1455
  295MOL0     C39692   9.897   0.845   3.313  0.4173  0.3973  0.2432
  295MOL0     O39693   9.813   0.947   3.342 -0.6470  0.2231 -0.3547
  295MOL0     C39694   9.836   1.006   3.464 -1.1060 -0.1343 -0.0607
  295MOL0     C39695   9.785   0.957   3.586 -0.1285 -0.0457  0.2110
  295MOL0     C39696   9.801   1.028   3.704  1.0821 -0.1748 -0.3477
  295MOL0     C39697   9.848   1.157   3.701 -0.0037 -0.3641 -0.3788
  295MOL0     O39698   9.872   1.252   3.802 -0.2293  0.1849 -1.0444
  295MOL0     C39699   9.773   1.253   3.906 -0.8675  0.5471  1.0403
  295MOL0     C39700   9.840   1.358   3.996  0.5965 -0.2297  0.1578
  295MOL0     C39701   9.749   1.400   4.116 -0.3298  0.6275  0.4174
  295MOL0     C39702   9.809   1.507   4.200  0.5156  0.0559 -0.3349
  295MOL0     C39703   9.727   1.514   4.326  0.5593 -0.0465 -0.5078
  295MOL0     C39704   9.781   1.623   4.416  0.0333  0.0106 -0.2904
  295MOL0     C39705   9.748   1.774   4.356  0.7893 -0.6210  0.9873
  295MOL0     C39706   9.604   1.805   4.330 -0.3445  0.2991 -0.1236
  295MOL0     N39707   9.593   1.939   4.275 -0.2301 -0.5644 -0.2575
  295MOL0     C39708   9.597   1.976   4.141 -0.1499  0.6515 -0.8026
  295MOL0     C39709   9.582   2.104   4.131  0.4702 -0.1170  0.4153
  295MOL0     C39710   9.584   2.176   3.999  0.3811 -0.0563  0.4927
  295MOL0     C39711   9.624   2.327   4.021 -0.6266  0.2405 -0.1123
  295MOL0     C39712   9.765   2.348   4.056 -0.1855 -0.8396  0.5449
  295MOL0     C39713   9.783   2.491   4.105 -0.1771 -1.4145 -0.2969
  295MOL0     O39714   9.771   2.562   3.984  1.0275 -0.6884  0.5657
  295MOL0     C39715   9.821   2.694   3.987  0.1387 -0.3367  0.8207
  295MOL0     C39716   9.828   2.763   3.871  0.5367 -0.0399 -0.7674
  295MOL0     C39717   9.860   2.901   3.869 -1.0259  0.6442  0.1006
  295MOL0     C39718   9.892   2.972   3.985 -0.7391 -0.4484  0.0122
  295MOL0     C39719   9.901   3.117   3.997  0.8098  0.7847  0.5643
  295MOL0     O39720   9.836   3.193   3.902 -0.0394  0.3858  0.1618
  295MOL0     C39721   9.870   3.322   3.906 -0.4189 -0.8544 -1.1127
  295MOL0     C39722   9.944   3.388   3.806 -0.4566  0.0474  1.2944
  295MOL0     C39723   9.985   3.526   3.803  0.5014 -0.4846 -0.8424
  295MOL0     C39724   9.933   3.613   3.907  0.4614  0.5761  0.4216
  295MOL0     O39725   9.960   3.750   3.915  0.2351  0.9143 -0.5369
  295MOL0     C39726   9.971   3.819   3.785  0.0212  0.1036 -0.2844
  295MOL0     C39727   9.909   3.957   3.804  0.0233 -0.3690 -1.0321
  295MOL0     C39728   9.916   4.057   3.689  0.2739  0.5478 -0.6309
  295MOL0     C39729  10.045   4.123   3.667 -0.0979  1.0404 -0.9879
  295MOL0     C39730  10.043   4.232   3.555  0.2034  0.4349  0.7385
  295MOL0     C39731   9.964   4.354   3.586  0.5149 -0.8980 -0.6308
  295MOL0     C39732   9.973   4.467   3.488  0.5464 -0.1957 -0.0740
  295MOL0     C39733   9.861   4.574   3.514  0.6003  0.1497 -0.0019
  295MOL0    Cl39734   9.901   4.705   3.399  0.1861  0.1452 -0.4904
  295MOL0     C39735   9.836   3.551   3.995 -0.0790  1.3112 -0.5310
  295MOL0     C39736   9.811   3.407   3.998  0.0820 -0.6591  0.3457
  295MOL0     O39737   9.983   3.156   4.074 -0.3206 -0.4927 -0.4392
  295MOL0     C39738   9.907   2.893   4.103 -0.4065 -0.1672  0.1008
  295MOL0     C39739   9.872   2.765   4.098 -0.4748  0.6033  0.0485
  295MOL0     N39740   9.550   2.144   4.260 -0.0357 -0.3316  0.7504
  295MOL0     N39741   9.563   2.052   4.348  0.7214  0.5480 -0.0417
  295MOL0     C39742   9.881   1.210   3.578  0.9447  0.3789 -0.1443
  295MOL0     C39743   9.881   1.137   3.458  0.4462  0.0721  0.4084
  295MOL0     C39744   9.869   0.784   3.181 -0.2704  1.2961 -0.0275
  295MOL0     C39745   9.733   0.742   3.164 -0.0088 -0.3119  0.4493
  295MOL0     C39746   9.707   0.673   3.054  1.2121  1.1414 -0.2080
  295MOL0     C39747   9.802   0.640   2.957  0.1068  1.2961  0.5319
  295MOL0     O39748   9.761   0.571   2.845 -0.3208  0.2061  0.0105
  295MOL0     C39749   9.862   0.511   2.755  0.3920 -0.1374 -0.2864
  295MOL0     C39750   9.797   0.501   2.623  0.4065  0.5006  0.0672
  295MOL0     C39751   9.896   0.435   2.516  0.3530 -0.8422  0.3266
  295MOL0     C39752   9.827   0.361   2.400 -0.0164  1.3353  0.0220
  295MOL0     C39753   9.772   0.440   2.297  1.7015 -0.0563 -0.1661
  295MOL0     C39754   9.715   0.491   2.203 -0.2665 -0.2665 -0.0184
  295MOL0     C39755   9.931   0.686   2.976  0.5037  0.4408 -0.6770
  295MOL0     C39756   9.968   0.750   3.090 -1.3212 -0.6197 -0.5101
  295MOL0     C39757  10.113   0.788   3.102 -1.0382  0.3593 -0.8623
  295MOL0     H39758   9.753   0.854   3.579 -0.9927  0.1635  0.8296
  295MOL0     H39759   9.775   0.979   3.798  2.6377 -3.6713 -1.5747
  295MOL0     H39760   9.676   1.272   3.860 -0.6206 -1.8866 -0.6557
  295MOL0     H39761   9.779   1.156   3.956  1.8824  0.9133  1.5937
  295MOL0     H39762   9.867   1.451   3.945 -1.2574 -0.0394 -0.5126
  295MOL0     H39763   9.930   1.312   4.041  1.3590 -2.1034 -2.9997
  295MOL0     H39764   9.727   1.307   4.170  0.8353  0.1752  0.1432
  295MOL0     H39765   9.656   1.438   4.072  0.5832  0.7068 -1.5514
  295MOL0     H39766   9.910   1.480   4.230 -0.5126 -1.5732  1.9203
  295MOL0     H39767   9.805   1.604   4.148 -0.2164  0.5303  0.5824
  295MOL0     H39768   9.623   1.531   4.296 -0.3951  2.1614  3.4225
  295MOL0     H39769   9.725   1.426   4.391  0.1539  2.0121  2.4397
  295MOL0     H39770   9.749   1.608   4.520 -0.5305 -0.5231 -0.5334
  295MOL0     H39771   9.890   1.617   4.415  0.1358  0.8809 -3.1695
  295MOL0     H39772   9.810   1.785   4.267  0.4063 -0.4931  0.7378
  295MOL0     H39773   9.777   1.851   4.428 -0.8178  1.7090 -0.7076
  295MOL0     H39774   9.569   1.735   4.253  1.6006 -1.0150  0.1184
  295MOL0     H39775   9.542   1.782   4.417 -3.0180 -1.9120 -2.4179
  295MOL0     H39776   9.618   1.908   4.059  1.3669 -1.6795  1.3894
  295MOL0     H39777   9.650   2.119   3.933 -1.1355 -1.2773 -0.0399
  295MOL0     H39778   9.490   2.181   3.942  0.8316  0.6991 -0.1991
  295MOL0     H39779   9.599   2.377   3.926 -1.8321  2.6323  1.3700
  295MOL0     H39780   9.557   2.361   4.100  0.4689 -1.9693  1.8939
  295MOL0     H39781   9.823   2.338   3.964 -0.4403 -1.2250  0.4191
  295MOL0     H39782   9.798   2.277   4.132 -0.2352 -0.7084  0.6895
  295MOL0     H39783   9.882   2.499   4.151  0.6568 -2.1870 -1.8664
  295MOL0     H39784   9.701   2.515   4.173  2.1229 -0.8360  2.4509
  295MOL0     H39785   9.787   2.721   3.780  0.6306  1.8979 -1.7526
  295MOL0     H39786   9.867   2.953   3.774  0.9187 -1.3424 -0.9529
  295MOL0     H39787  10.000   3.321   3.740  1.2528 -1.0352  3.6938
  295MOL0     H39788  10.052   3.563   3.726  1.7911  0.0152  0.4786
  295MOL0     H39789  10.072   3.849   3.755  1.2992 -1.1646  2.3968
  295MOL0     H39790   9.932   3.761   3.702  1.8368 -0.1065 -1.0374
  295MOL0     H39791   9.800   3.943   3.812 -0.3787  1.6601 -2.1956
  295MOL0     H39792   9.971   3.999   3.884 -1.5056 -0.5325  0.3171
  295MOL0     H39793   9.897   4.006   3.594  1.1181 -3.3778  1.0986
  295MOL0     H39794   9.839   4.133   3.700  0.1848  1.2465 -4.7002
  295MOL0     H39795  10.124   4.049   3.651 -0.5351  0.4049 -0.2521
  295MOL0     H39796  10.078   4.175   3.758  2.1921  2.0983 -2.3234
  295MOL0     H39797  10.017   4.188   3.458  1.5722 -0.4221  0.7264
  295MOL0     H39798  10.146   4.264   3.536  0.3175  0.2787  1.0858
  295MOL0     H39799   9.857   4.338   3.600 -0.8193  5.0721 -1.4166
  295MOL0     H39800   9.998   4.391   3.683 -0.6894 -0.8344 -0.2193
  295MOL0     H39801   9.962   4.432   3.385  3.2969 -3.5589  0.5911
  295MOL0     H39802  10.072   4.512   3.493 -0.6130  2.4673  1.0280
  295MOL0     H39803   9.761   4.541   3.485  0.9137 -0.3000 -0.5999
  295MOL0     H39804   9.854   4.615   3.615  0.2834  0.2036 -0.0431
  295MOL0     H39805   9.774   3.613   4.058 -1.6663  0.1960 -0.9109
  295MOL0     H39806   9.738   3.365   4.066 -1.3523  1.2742  0.0843
  295MOL0     H39807   9.937   2.937   4.198 -1.7215  2.9734 -0.8143
  295MOL0     H39808   9.891   2.712   4.190 -0.2589 -1.7247 -1.2460
  295MOL0     H39809   9.904   1.316   3.589 -0.9848  0.7170  1.2351
  295MOL0     H39810   9.896   1.188   3.363  0.9977  0.8232  0.8875
  295MOL0     H39811   9.655   0.768   3.234  0.5310 -1.6246  1.5976
  295MOL0     H39812   9.603   0.660   3.026  1.5052 -0.4885 -0.6481
  295MOL0     H39813   9.884   0.409   2.790  1.5222 -0.7974 -2.7232
  295MOL0     H39814   9.951   0.573   2.744 -0.6942  1.2126 -1.9268
  295MOL0     H39815   9.785   0.607   2.598 -0.4659  1.7007  4.7629
  295MOL0     H39816   9.713   0.431   2.613  1.8447 -1.0691 -1.7794
  295MOL0     H39817   9.955   0.358   2.566  0.6206 -0.5873  0.4096
  295MOL0     H39818   9.956   0.518   2.476 -0.9907 -0.5085 -1.0719
  295MOL0     H39819   9.909   0.302   2.360 -1.0450  1.3572 -2.2877
  295MOL0     H39820   9.744   0.297   2.434  0.9584  1.5262  3.1180
  295MOL0     H39821   9.672   0.540   2.119 -1.5069 -1.0725  0.1186
  295MOL0     H39822  10.004   0.666   2.898  0.0626 -3.2225 -0.3492
  295MOL0     H39823  10.137   0.852   3.018 -3.6691  0.5419 -1.5561
  295MOL0     H39824  10.129   0.847   3.193  1.0019 -1.2181 -0.1061
  295MOL0     H39825  10.168   0.693   3.102  0.5461  1.2074  1.0101
  296MOL0     O39826   4.418  10.070   1.302  0.0866 -0.3073  0.0022
  296MOL0     C39827   4.395  10.178   1.353  0.5732  1.3186  0.4134
  296MOL0     O39828   4.315  10.273   1.307 -0.4432  0.4508 -0.6919
  296MOL0     C39829   4.238  10.245   1.197  0.0990 -0.1091  0.6296
  296MOL0     C39830   4.230  10.354   1.110  0.8823 -0.5855 -0.9767
  296MOL0     C39831   4.190  10.338   0.982 -0.6450 -0.6951  0.6922
  296MOL0     C39832   4.124  10.216   0.941  0.6162 -0.1045 -0.4183
  296MOL0     O39833   4.062  10.193   0.818 -0.2330 -0.6379  0.0094
  296MOL0     C39834   4.069  10.294   0.717  0.2530  0.2732  0.4974
  296MOL0     C39835   4.209  10.292   0.663  0.0527  0.6502  0.5053
  296MOL0     C39836   4.248  10.157   0.587 -0.0826 -0.3487  0.7042
  296MOL0     C39837   4.403  10.161   0.571  0.1742 -0.2185  0.9815
  296MOL0     C39838   4.439  10.042   0.475 -0.0368  0.5664  0.5906
  296MOL0     C39839   4.598  10.028   0.457 -0.0978 -0.7707  1.0037
  296MOL0     C39840   4.628   9.889   0.393  0.1096 -0.6726 -0.0905
  296MOL0     C39841   4.763   9.839   0.442  0.5535  0.3750  0.5319
  296MOL0     N39842   4.775   9.698   0.413 -0.0659  0.9859 -0.2442
  296MOL0     C39843   4.729   9.598   0.497  0.5078 -0.3304  1.5600
  296MOL0     C39844   4.787   9.488   0.431 -0.5871  0.3613  1.0611
  296MOL0     C39845   4.766   9.353   0.491 -0.3153  0.3750  0.6338
  296MOL0     C39846   4.665   9.267   0.397  0.1234 -0.1909  0.2289
  296MOL0     C39847   4.701   9.237   0.242 -0.1920  0.3397 -0.9124
  296MOL0     C39848   4.850   9.218   0.220 -0.3855 -0.2154  0.9086
  296MOL0     O39849   4.876   9.086   0.169  0.7122  0.1251 -0.5471
  296MOL0     C39850   5.004   9.027   0.161 -0.3608  0.1438 -0.9269
  296MOL0     C39851   5.018   8.906   0.101  0.0813  0.2855  0.6200
  296MOL0     C39852   5.142   8.856   0.072  0.1150  0.0658 -0.2839
  296MOL0     C39853   5.264   8.924   0.113  0.1106 -1.1713  0.1048
  296MOL0     C39854   5.399   8.857   0.089  0.4713 -0.8511  0.1271
  296MOL0     O39855   5.405   8.728   0.036  0.1287 -0.1620 -0.2366
  296MOL0     C39856   5.518   8.640   0.053  0.1727  0.3516 -0.0342
  296MOL0     C39857   5.651   8.689   0.052  0.3881  1.1694  0.0942
  296MOL0     C39858   5.750   8.595   0.070 -0.4894 -0.4408  0.3519
  296MOL0     C39859   5.720   8.456   0.069  1.0210 -0.1206  0.0611
  296MOL0     O39860   5.803   8.359   0.060  0.2862  0.0538  0.6678
  296MOL0     C39861   5.936   8.371   0.103 -0.2814 -0.3797  0.2800
  296MOL0     C39862   6.021   8.306  -0.001 -0.1371  0.4912  0.7844
  296MOL0     C39863   6.173   8.293   0.039  0.3051 -1.1714  0.7733
  296MOL0     C39864   6.251   8.181  -0.039  1.2397 -0.0474  0.2886
  296MOL0     C39865   6.388   8.144   0.014  0.1160 -0.6633 -0.5072
  296MOL0     C39866   6.487   8.260   0.011  0.5584  1.0884  0.0165
  296MOL0     C39867   6.597   8.229   0.110 -0.9781 -1.0705 -0.4888
  296MOL0     C39868   6.709   8.337   0.112  1.0085  0.2960 -0.1136
  296MOL0    Cl39869   6.634   8.498   0.117  0.2997  0.1524 -0.0566
  296MOL0     C39870   5.586   8.410   0.068 -0.9816 -0.3829  0.1009
  296MOL0     C39871   5.492   8.507   0.056  0.2439  0.1211 -0.4272
  296MOL0     O39872   5.497   8.915   0.140 -0.1632  0.0688  1.0325
  296MOL0     C39873   5.243   9.046   0.177 -0.8773 -0.1645 -0.5625
  296MOL0     C39874   5.116   9.101   0.192  0.2061  0.1968  1.0208
  296MOL0     N39875   4.860   9.514   0.318 -0.2112  0.2450  0.1357
  296MOL0     N39876   4.851   9.639   0.311 -0.3425 -0.3891 -0.5890
  296MOL0     C39877   4.113  10.113   1.035 -0.0506  0.2629 -0.6861
  296MOL0     C39878   4.185  10.126   1.151  0.1848 -0.1580  0.1622
  296MOL0     C39879   4.466  10.203   1.487 -0.6537 -0.7598 -0.5790
  296MOL0     C39880   4.394  10.187   1.611 -0.8000  0.3061  0.2292
  296MOL0     C39881   4.460  10.193   1.732  0.1813 -0.1886  0.8338
  296MOL0     C39882   4.589  10.231   1.734 -0.5807  0.2874  0.1626
  296MOL0     O39883   4.650  10.271   1.853 -0.6624 -0.3861 -0.0734
  296MOL0     C39884   4.713  10.162   1.921  1.7215 -0.5364  0.5910
  296MOL0     C39885   4.607  10.087   2.005  1.1781 -0.8854  0.3354
  296MOL0     C39886   4.550  10.187   2.109 -0.0786  1.2961 -0.3198
  296MOL0     C39887   4.447  10.116   2.192 -0.3544 -0.7625  0.0107
  296MOL0     C39888   4.364  10.217   2.263 -0.3740 -0.2517 -0.1188
  296MOL0     C39889   4.309  10.297   2.342 -0.2946  0.5857 -0.0347
  296MOL0     C39890   4.661  10.246   1.620 -0.7482  0.3437  0.8893
  296MOL0     C39891   4.602  10.236   1.487  0.2521  0.3184 -0.3351
  296MOL0     C39892   4.685  10.261   1.367 -0.1254  0.2627 -1.2729
  296MOL0     H39893   4.280  10.442   1.150  0.9988  0.3038 -2.9385
  296MOL0     H39894   4.205  10.426   0.920 -1.9200  1.8406  3.7013
  296MOL0     H39895   3.999  10.274   0.636  1.1917 -2.2270  0.2272
  296MOL0     H39896   4.041  10.391   0.761 -0.1171  0.7502 -0.7528
  296MOL0     H39897   4.277  10.308   0.748  2.0270  0.7320 -1.0159
  296MOL0     H39898   4.224  10.373   0.591  0.2493  0.4178  0.2810
  296MOL0     H39899   4.208  10.154   0.485  1.4944 -0.3611  0.0580
  296MOL0     H39900   4.216  10.067   0.639 -1.8892 -0.3599 -0.3267
  296MOL0     H39901   4.435  10.252   0.518 -2.4277 -0.0993 -0.5670
  296MOL0     H39902   4.460  10.137   0.661  0.8191 -1.7965  0.1901
  296MOL0     H39903   4.418   9.947   0.526  1.0616 -0.0070  0.0305
  296MOL0     H39904   4.381  10.033   0.383  0.3990 -2.1411  0.4753
  296MOL0     H39905   4.637  10.100   0.384 -0.6156 -2.4620 -1.0652
  296MOL0     H39906   4.648  10.051   0.551 -1.1174  0.5055  1.2492
  296MOL0     H39907   4.628   9.895   0.283 -1.7961 -1.5739 -0.1676
  296MOL0     H39908   4.545   9.827   0.426  1.6088 -2.2392  0.9127
  296MOL0     H39909   4.833   9.894   0.378 -2.2253 -0.3058 -3.4604
  296MOL0     H39910   4.758   9.849   0.551 -4.6512  0.9093  0.4880
  296MOL0     H39911   4.661   9.596   0.582 -3.9392  0.1234 -1.6372
  296MOL0     H39912   4.858   9.294   0.486 -0.1945  0.6435 -1.2615
  296MOL0     H39913   4.742   9.370   0.596  0.7011 -0.1339  0.9608
  296MOL0     H39914   4.632   9.170   0.437 -3.0566  0.3583 -0.8031
  296MOL0     H39915   4.573   9.325   0.406 -0.5918 -1.5226  2.3378
  296MOL0     H39916   4.657   9.322   0.188 -4.8288  0.3968  2.4267
  296MOL0     H39917   4.646   9.146   0.218 -0.9927  0.1723  1.3384
  296MOL0     H39918   4.909   9.243   0.309 -0.1401  0.3500  0.5953
  296MOL0     H39919   4.872   9.297   0.147 -1.9915  0.9971  1.6720
  296MOL0     H39920   4.928   8.858   0.063  0.7293 -0.0565 -0.5088
  296MOL0     H39921   5.145   8.765   0.014  1.2716 -0.1712  0.1112
  296MOL0     H39922   5.676   8.793   0.038  0.2830  1.1761 -0.0403
  296MOL0     H39923   5.851   8.635   0.075  0.1923 -2.2368  3.0496
  296MOL0     H39924   5.965   8.474   0.127 -0.9090  0.2896 -1.6546
  296MOL0     H39925   5.935   8.319   0.199 -0.8948  1.0037  1.0579
  296MOL0     H39926   5.963   8.217  -0.026 -0.9026  1.3653 -0.6454
  296MOL0     H39927   6.022   8.372  -0.088  0.6911  2.2125  2.0349
  296MOL0     H39928   6.219   8.385   0.001 -1.0579 -1.5671 -2.1136
  296MOL0     H39929   6.191   8.287   0.146  0.9096 -0.0734  0.7541
  296MOL0     H39930   6.244   8.208  -0.145 -0.5814 -0.5428  0.2504
  296MOL0     H39931   6.183   8.095  -0.033  0.3340  0.2812 -3.1201
  296MOL0     H39932   6.426   8.055  -0.038 -0.6457 -0.8321 -0.8014
  296MOL0     H39933   6.389   8.118   0.120  0.3732  2.4576  0.3356
  296MOL0     H39934   6.521   8.288  -0.089 -0.5956 -0.7629 -0.9553
  296MOL0     H39935   6.427   8.341   0.054 -1.9943 -0.5127 -0.3213
  296MOL0     H39936   6.656   8.139   0.090  2.6536  0.3471  2.4699
  296MOL0     H39937   6.550   8.215   0.208 -2.0075  2.8981 -0.2534
  296MOL0     H39938   6.773   8.322   0.199  0.8019 -0.8266 -0.1382
  296MOL0     H39939   6.773   8.333   0.023  0.9542  1.1868 -0.2036
  296MOL0     H39940   5.553   8.306   0.069 -2.9604  0.2134  0.0637
  296MOL0     H39941   5.389   8.482   0.077 -0.2088  2.9990  1.2575
  296MOL0     H39942   5.321   9.107   0.222 -1.4736  0.7359 -0.7031
  296MOL0     H39943   5.112   9.202   0.231 -2.2825 -0.4466  2.6599
  296MOL0     H39944   4.076  10.014   1.010 -0.4122 -0.1873  1.4907
  296MOL0     H39945   4.180  10.043   1.220 -0.3240 -1.1551 -1.0348
  296MOL0     H39946   4.288  10.166   1.613 -0.9367  0.9923  2.1623
  296MOL0     H39947   4.407  10.175   1.825 -5.2490  0.2697 -1.7563
  296MOL0     H39948   4.789  10.195   1.992 -1.6767  1.1823  3.7704
  296MOL0     H39949   4.754  10.091   1.849  0.8376 -0.7661  0.2986
  296MOL0     H39950   4.647   9.994   2.046 -3.9461 -5.3808 -3.3817
  296MOL0     H39951   4.528  10.048   1.939 -0.7289  0.4552  1.7197
  296MOL0     H39952   4.495  10.263   2.053  0.6557 -0.6558 -3.9982
  296MOL0     H39953   4.619  10.229   2.183 -1.5868  2.0811  0.6806
  296MOL0     H39954   4.377  10.042   2.150 -1.6020 -0.5903  1.6783
  296MOL0     H39955   4.502  10.048   2.257  0.0129 -2.3893 -1.8887
  296MOL0     H39956   4.253  10.361   2.407 -0.6493  1.1569 -0.8857
  296MOL0     H39957   4.769  10.257   1.629 -0.9697  1.2010  3.1920
  296MOL0     H39958   4.733  10.169   1.334  0.4260  1.5891 -4.5754
  296MOL0     H39959   4.620  10.297   1.287 -0.3709  1.4036 -0.5878
  296MOL0     H39960   4.754  10.345   1.381  0.7491 -0.3679 -1.7467
  297MOL0     O39961   0.161   6.706   7.382 -0.3828  0.6416 -0.7534
  297MOL0     C39962   0.261   6.720   7.452 -0.0430 -0.0286  0.8783
  297MOL0     O39963   0.259   6.749   7.588  0.7330 -0.0048  0.3946
  297MOL0     C39964   0.146   6.736   7.669  0.1844 -0.4022  0.2642
  297MOL0     C39965   0.165   6.801   7.794 -0.7341 -0.1216  0.2061
  297MOL0     C39966   0.057   6.809   7.880 -0.7028  0.6992 -0.9315
  297MOL0     C39967  -0.069   6.755   7.859  0.2792 -0.2604 -0.0673
  297MOL0     O39968  -0.182   6.760   7.939 -0.1247 -0.3204  0.3421
  297MOL0     C39969  -0.206   6.641   8.015 -0.0024 -0.4272  0.8838
  297MOL0     C39970  -0.304   6.688   8.119  1.2736 -0.1111 -0.0409
  297MOL0     C39971  -0.352   6.571   8.216  0.5760 -0.3021  0.2068
  297MOL0     C39972  -0.376   6.427   8.163  0.2020 -0.7521  0.3508
  297MOL0     C39973  -0.441   6.346   8.279  0.1281 -0.6462 -0.4452
  297MOL0     C39974  -0.373   6.328   8.414 -1.0156  0.2304  0.4249
  297MOL0     C39975  -0.447   6.213   8.490 -0.0742 -0.3788  0.6155
  297MOL0     C39976  -0.598   6.254   8.521 -0.4645 -0.5152  0.1225
  297MOL0     N39977  -0.653   6.140   8.597  1.0163 -0.2725  0.7755
  297MOL0     C39978  -0.690   6.032   8.525 -0.6748 -0.1633 -0.6033
  297MOL0     C39979  -0.731   5.936   8.611 -0.0934 -0.1492  0.5193
  297MOL0     C39980  -0.765   5.789   8.574  0.1152  0.2922 -0.0892
  297MOL0     C39981  -0.921   5.737   8.603 -0.3761  0.1499 -0.2855
  297MOL0     C39982  -1.013   5.728   8.476 -0.9512 -0.3503 -0.1217
  297MOL0     C39983  -1.158   5.687   8.502  0.0852 -0.5392  1.6606
  297MOL0     O39984  -1.166   5.562   8.570 -0.3564  0.8143  0.0695
  297MOL0     C39985  -1.269   5.538   8.660 -0.9053  0.6636 -1.0859
  297MOL0     C39986  -1.396   5.591   8.650 -0.3544  0.7897  0.4460
  297MOL0     C39987  -1.493   5.550   8.743 -0.2058  0.9542  0.3112
  297MOL0     C39988  -1.452   5.479   8.861 -0.6593 -0.5718 -0.1810
  297MOL0     C39989  -1.553   5.449   8.968  0.7884 -0.8424  0.0390
  297MOL0     O39990  -1.676   5.515   8.943  0.2914  0.8203 -1.0446
  297MOL0     C39991  -1.781   5.502   9.036  1.0249  0.1534  0.5706
  297MOL0     C39992  -1.901   5.541   8.976 -0.2909  0.0018  0.5541
  297MOL0     C39993  -2.021   5.513   9.045  0.3734  0.7160  0.3683
  297MOL0     C39994  -2.018   5.452   9.170 -0.3498  1.6495 -0.4116
  297MOL0     O39995  -2.137   5.430   9.242  0.2426  0.0523  0.2997
  297MOL0     C39996  -2.131   5.407   9.382  0.7841  0.4885 -0.1572
  297MOL0     C39997  -2.275   5.400   9.414  0.1579 -0.3694 -0.2782
  297MOL0     C39998  -2.301   5.371   9.564 -0.6526  0.4236 -0.1617
  297MOL0     C39999  -2.452   5.363   9.601 -0.4898 -0.0964  0.0889
  297MOL0     C40000  -2.474   5.339   9.752  0.1044 -0.6601  0.2034
  297MOL0     C40001  -2.614   5.367   9.794  0.0518 -1.1126 -0.1273
  297MOL0     C40002  -2.641   5.365   9.942  0.1242 -1.0953  0.2204
  297MOL0     C40003  -2.581   5.242  10.015 -0.2379  0.2369 -0.6165
  297MOL0    Cl40004  -2.644   5.239  10.190 -0.0805 -0.0136  0.9341
  297MOL0     C40005  -1.901   5.415   9.230 -1.3633  0.7473  0.5796
  297MOL0     C40006  -1.783   5.438   9.160  0.2751 -0.4864 -0.0499
  297MOL0     O40007  -1.528   5.364   9.052 -0.2268 -0.2090  0.4752
  297MOL0     C40008  -1.319   5.438   8.878  0.0048  0.9246 -0.3711
  297MOL0     C40009  -1.235   5.463   8.770 -0.5488  0.0897  0.0707
  297MOL0     N40010  -0.747   5.999   8.729  0.0421 -0.2917 -0.6082
  297MOL0     N40011  -0.692   6.117   8.724 -0.4955 -0.3672 -0.2614
  297MOL0     C40012  -0.087   6.692   7.736  0.5024 -0.2522 -0.4690
  297MOL0     C40013   0.024   6.667   7.647  0.4170 -0.5890  0.8469
  297MOL0     C40014   0.386   6.755   7.374  1.1942 -1.1020  0.7585
  297MOL0     C40015   0.471   6.848   7.432 -1.1733 -0.3482 -0.1460
  297MOL0     C40016   0.562   6.926   7.352  0.5718  0.5502 -0.5189
  297MOL0     C40017   0.575   6.900   7.216  0.9226 -0.8727 -0.2801
  297MOL0     O40018   0.653   6.986   7.142  0.0959 -0.0069  0.6292
  297MOL0     C40019   0.634   6.996   7.001 -0.4456 -0.0121  0.5160
  297MOL0     C40020   0.705   7.123   6.955  1.3565  0.7620  0.7946
  297MOL0     C40021   0.861   7.130   6.979  0.2576 -0.3930  0.2099
  297MOL0     C40022   0.923   7.252   6.906 -0.5721  0.2111 -0.3647
  297MOL0     C40023   0.893   7.369   6.985 -0.4789 -0.0824 -0.3772
  297MOL0     C40024   0.865   7.458   7.060 -1.0430 -0.5138  1.3356
  297MOL0     C40025   0.491   6.799   7.156 -0.1544 -1.1216 -0.1222
  297MOL0     C40026   0.401   6.722   7.231 -0.6781 -0.9102 -0.5951
  297MOL0     C40027   0.325   6.613   7.166 -0.1122  0.3655  0.0917
  297MOL0     H40028   0.267   6.827   7.819 -1.0501  1.0840  0.3313
  297MOL0     H40029   0.074   6.854   7.977 -0.7294 -1.3856  0.1015
  297MOL0     H40030  -0.249   6.561   7.952 -0.7721 -0.4584  1.4426
  297MOL0     H40031  -0.105   6.616   8.050  0.5065 -1.3202 -1.0774
  297MOL0     H40032  -0.390   6.734   8.068  0.9243  1.1599  1.5921
  297MOL0     H40033  -0.253   6.762   8.182  2.9698  0.9991 -2.5489
  297MOL0     H40034  -0.444   6.605   8.264 -0.0247  0.2514 -1.2766
  297MOL0     H40035  -0.279   6.578   8.297 -2.0062 -0.3136  2.6892
  297MOL0     H40036  -0.450   6.427   8.083  0.5592  2.1112 -0.0820
  297MOL0     H40037  -0.284   6.381   8.127 -0.5692 -2.2585  0.2179
  297MOL0     H40038  -0.540   6.392   8.293  0.0683 -0.9164  0.0804
  297MOL0     H40039  -0.453   6.247   8.235  1.2040 -2.4399  2.9331
  297MOL0     H40040  -0.269   6.299   8.395 -1.2214  0.4123 -1.1149
  297MOL0     H40041  -0.366   6.422   8.470  3.1731  1.0553 -1.0692
  297MOL0     H40042  -0.386   6.204   8.581 -0.0839 -1.4826  0.5154
  297MOL0     H40043  -0.462   6.125   8.427 -0.2325 -2.9888  4.0085
  297MOL0     H40044  -0.596   6.348   8.576 -1.1658 -1.4107  1.7593
  297MOL0     H40045  -0.652   6.278   8.429  1.0215 -0.4869 -0.7725
  297MOL0     H40046  -0.688   6.029   8.417 -1.6701  0.4723 -0.6494
  297MOL0     H40047  -0.739   5.776   8.469  0.4594 -1.0896  0.1439
  297MOL0     H40048  -0.689   5.728   8.625  3.0537  1.6180 -2.5475
  297MOL0     H40049  -0.904   5.638   8.645 -1.2272  0.1170 -0.0169
  297MOL0     H40050  -0.967   5.796   8.683  0.2306  2.9573 -1.8518
  297MOL0     H40051  -0.965   5.649   8.418  1.0239 -0.0830  1.0296
  297MOL0     H40052  -1.016   5.820   8.418 -6.0022  0.6928  1.3128
  297MOL0     H40053  -1.200   5.687   8.401  0.8002  3.0914  1.2106
  297MOL0     H40054  -1.204   5.768   8.561  2.0008  0.4147  1.9246
  297MOL0     H40055  -1.417   5.658   8.567  2.5947  1.6840  0.3152
  297MOL0     H40056  -1.598   5.575   8.730 -0.8285 -1.9272 -1.0559
  297MOL0     H40057  -1.901   5.587   8.878 -3.5652 -1.7610 -0.4241
  297MOL0     H40058  -2.116   5.553   9.011 -1.6593 -2.6923  1.5650
  297MOL0     H40059  -2.091   5.310   9.412 -2.1213 -0.7622  0.0315
  297MOL0     H40060  -2.092   5.485   9.449 -2.0687 -0.7095  3.2253
  297MOL0     H40061  -2.315   5.496   9.380 -0.7738  0.0322  1.8298
  297MOL0     H40062  -2.333   5.323   9.362  0.3986 -0.9559  0.3232
  297MOL0     H40063  -2.258   5.277   9.600 -3.3470 -0.4973  0.9282
  297MOL0     H40064  -2.256   5.449   9.627 -0.6281 -2.3301  3.6125
  297MOL0     H40065  -2.501   5.282   9.546 -2.4518  2.7045 -2.6230
  297MOL0     H40066  -2.499   5.457   9.572 -1.0916 -0.8871 -1.6079
  297MOL0     H40067  -2.404   5.399   9.810  1.1935 -1.3111 -0.3972
  297MOL0     H40068  -2.444   5.234   9.757  0.3345 -0.8368 -2.9734
  297MOL0     H40069  -2.630   5.472   9.766  1.2818 -1.2260 -1.3723
  297MOL0     H40070  -2.677   5.307   9.728 -2.0170  2.9067 -2.1915
  297MOL0     H40071  -2.749   5.374   9.956  0.1395 -0.6314  0.0479
  297MOL0     H40072  -2.597   5.454   9.989  0.2440 -2.1739  2.2535
  297MOL0     H40073  -2.612   5.147   9.971  2.4470 -0.0429 -2.1062
  297MOL0     H40074  -2.473   5.252  10.018 -0.3531  3.3013 -2.1545
  297MOL0     H40075  -1.885   5.371   9.327  2.9097 -0.1159 -0.3038
  297MOL0     H40076  -1.693   5.395   9.202  1.3061  1.1329 -0.5336
  297MOL0     H40077  -1.300   5.371   8.962 -1.2684 -1.2935 -1.7500
  297MOL0     H40078  -1.135   5.421   8.763  1.3391  3.5547  3.1766
  297MOL0     H40079  -0.189   6.660   7.717  1.2071 -4.0255  1.2752
  297MOL0     H40080   0.008   6.614   7.553 -0.0090  0.1419  0.4963
  297MOL0     H40081   0.473   6.863   7.540  3.6550 -2.1740  0.2505
  297MOL0     H40082   0.632   7.003   7.384  0.2182  1.2383 -1.3597
  297MOL0     H40083   0.528   7.002   6.978 -0.3197  0.5694  0.0614
  297MOL0     H40084   0.664   6.904   6.951  2.1806 -1.5279  4.4147
  297MOL0     H40085   0.657   7.207   7.007 -0.8714 -0.1584  0.3074
  297MOL0     H40086   0.681   7.141   6.850  1.4291  1.5710  0.9083
  297MOL0     H40087   0.908   7.049   6.924  1.4057  1.1338 -1.1653
  297MOL0     H40088   0.879   7.129   7.087 -1.2869 -2.4361  0.5120
  297MOL0     H40089   1.031   7.234   6.907 -0.7129 -0.6358  0.7262
  297MOL0     H40090   0.874   7.248   6.808 -3.5699  1.9841  0.9273
  297MOL0     H40091   0.862   7.535   7.134  0.7232 -2.8980  4.0969
  297MOL0     H40092   0.509   6.776   7.051  0.9312 -0.0588 -0.1897
  297MOL0     H40093   0.400   6.563   7.104 -1.3863  0.7162 -1.8099
  297MOL0     H40094   0.279   6.535   7.228 -0.6723 -2.2398 -3.2796
  297MOL0     H40095   0.251   6.668   7.107 -0.8164 -0.7125 -0.0630
  298MOL0     O40096   0.302   4.093   3.598 -0.3021  0.3841  0.2019
  298MOL0     C40097   0.416   4.064   3.637 -0.1996 -0.1455  0.7050
  298MOL0     O40098   0.463   4.102   3.758  0.4554  0.4208  1.2426
  298MOL0     C40099   0.373   4.177   3.842 -1.0450 -0.4744 -0.4485
  298MOL0     C40100   0.361   4.312   3.839  0.1992 -0.4929 -0.4664
  298MOL0     C40101   0.272   4.374   3.934  0.0261  0.1681 -0.0445
  298MOL0     C40102   0.204   4.301   4.022  0.3641  0.6570  0.5650
  298MOL0     O40103   0.110   4.351   4.108 -0.7267  0.1202 -0.4706
  298MOL0     C40104   0.020   4.445   4.049 -0.1862  0.2207  0.3847
  298MOL0     C40105  -0.071   4.481   4.166  0.4871  0.2665 -0.0036
  298MOL0     C40106  -0.143   4.613   4.140 -0.6012 -0.3965  0.3557
  298MOL0     C40107  -0.072   4.737   4.194  1.0852  0.9821 -0.1937
  298MOL0     C40108  -0.165   4.855   4.186 -0.1879 -0.8539 -0.3173
  298MOL0     C40109  -0.109   4.975   4.252  0.6139 -0.6017 -0.2369
  298MOL0     C40110  -0.165   5.108   4.196  0.3285 -0.2097  0.2342
  298MOL0     C40111  -0.317   5.117   4.196 -0.6816 -0.8014 -0.4459
  298MOL0     N40112  -0.364   5.252   4.191 -0.0973 -0.9362  0.9105
  298MOL0     C40113  -0.482   5.288   4.135  0.2082  0.7372 -0.3692
  298MOL0     C40114  -0.518   5.399   4.205  0.0908 -0.2850 -0.2093
  298MOL0     C40115  -0.648   5.480   4.192 -0.7034  0.2554 -0.0325
  298MOL0     C40116  -0.624   5.614   4.130 -0.3032 -0.3764  0.1933
  298MOL0     C40117  -0.710   5.726   4.180 -0.0725 -0.3497 -0.8651
  298MOL0     C40118  -0.858   5.706   4.133  0.0812 -0.1420  0.9585
  298MOL0     O40119  -0.870   5.670   3.990 -0.7107  0.1617 -0.2073
  298MOL0     C40120  -0.990   5.682   3.927 -0.3574  0.4440  0.3371
  298MOL0     C40121  -1.114   5.688   3.994  0.4926 -0.3204  0.8464
  298MOL0     C40122  -1.226   5.708   3.920  0.5198 -0.6936  0.7400
  298MOL0     C40123  -1.226   5.715   3.783  0.6177  0.4062  0.2057
  298MOL0     C40124  -1.351   5.744   3.704 -0.3074 -0.5336  0.3255
  298MOL0     O40125  -1.439   5.832   3.766  0.5316 -1.1149 -0.5013
  298MOL0     C40126  -1.550   5.872   3.702 -0.3547 -0.0763 -0.6788
  298MOL0     C40127  -1.612   5.834   3.585  0.2223  0.4875 -0.6758
  298MOL0     C40128  -1.719   5.911   3.542  0.4408  0.3330  0.5586
  298MOL0     C40129  -1.763   6.025   3.598  0.2346 -1.1264  0.3005
  298MOL0     O40130  -1.874   6.092   3.539 -0.3417  0.0875  0.0704
  298MOL0     C40131  -1.868   6.137   3.400 -0.5216 -0.7240 -0.1415
  298MOL0     C40132  -1.996   6.224   3.371  0.4994  0.8474  0.0537
  298MOL0     C40133  -2.022   6.346   3.473 -0.7464 -0.0269  0.4150
  298MOL0     C40134  -2.139   6.425   3.398 -0.5068 -0.1601 -0.6704
  298MOL0     C40135  -2.152   6.565   3.453 -0.6427 -0.4561 -0.1739
  298MOL0     C40136  -2.266   6.629   3.388 -0.7079 -0.3422  0.6534
  298MOL0     C40137  -2.321   6.741   3.479  0.6296  0.1640  0.3231
  298MOL0     C40138  -2.410   6.842   3.401 -0.7104  0.2335 -0.4183
  298MOL0    Cl40139  -2.527   6.784   3.282  0.0600  0.0861  0.2369
  298MOL0     C40140  -1.706   6.065   3.721 -0.4302  0.3685  0.2003
  298MOL0     C40141  -1.600   5.983   3.773 -0.4428  0.6967  0.0929
  298MOL0     O40142  -1.351   5.711   3.584  0.2792  0.5471  0.4029
  298MOL0     C40143  -1.101   5.715   3.720 -0.1130  0.3392 -0.6622
  298MOL0     C40144  -0.989   5.697   3.793  0.3673  0.9139  0.4821
  298MOL0     N40145  -0.415   5.430   4.295 -0.3103 -0.0705 -0.0378
  298MOL0     N40146  -0.326   5.340   4.288 -1.0465  0.6096  0.2565
  298MOL0     C40147   0.225   4.158   4.029 -0.2017  0.3999  0.8999
  298MOL0     C40148   0.311   4.094   3.931  0.1995 -0.9040 -0.9018
  298MOL0     C40149   0.496   3.955   3.556 -0.1241 -0.6136  0.0458
  298MOL0     C40150   0.437   3.885   3.458 -0.2472  0.2161  0.3388
  298MOL0     C40151   0.507   3.781   3.393  0.5389 -0.7338  0.6688
  298MOL0     C40152   0.640   3.762   3.416  0.1316 -0.3349  1.0662
  298MOL0     O40153   0.724   3.666   3.347 -0.1471  0.1317  0.5242
  298MOL0     C40154   0.690   3.634   3.207  0.1407  0.1727 -0.3937
  298MOL0     C40155   0.709   3.756   3.106  0.7441  0.3308  0.2576
  298MOL0     C40156   0.855   3.809   3.104  0.6358 -0.3894 -0.3154
  298MOL0     C40157   0.894   3.909   3.216  0.8353  0.5876 -0.4271
  298MOL0     C40158   0.996   3.997   3.168 -0.3114  0.6764  1.2199
  298MOL0     C40159   1.086   4.067   3.123  0.7101  0.9552 -0.1805
  298MOL0     C40160   0.705   3.836   3.511  0.0288 -0.4118  0.2899
  298MOL0     C40161   0.631   3.931   3.583 -0.3726  0.7031  0.6060
  298MOL0     C40162   0.719   4.000   3.692 -0.7570  0.4357 -0.4181
  298MOL0     H40163   0.421   4.377   3.776  0.4816 -0.4701 -0.1789
  298MOL0     H40164   0.271   4.483   3.940  2.4429  0.2923 -0.8149
  298MOL0     H40165   0.074   4.533   4.013  1.9824 -0.7121  1.2025
  298MOL0     H40166  -0.042   4.400   3.971 -1.4879  1.2167  0.8077
  298MOL0     H40167  -0.030   4.487   4.267 -1.1023  2.1374  0.6049
  298MOL0     H40168  -0.149   4.405   4.175 -2.5075  2.9702 -0.9840
  298MOL0     H40169  -0.246   4.610   4.179 -2.1333 -0.2493 -3.2628
  298MOL0     H40170  -0.166   4.631   4.035 -2.0545  2.4405  1.0624
  298MOL0     H40171  -0.056   4.721   4.300 -1.9821 -1.7209  0.0278
  298MOL0     H40172   0.020   4.754   4.137  2.9690 -2.9318  1.3268
  298MOL0     H40173  -0.187   4.871   4.080  1.8221 -2.6213 -1.0779
  298MOL0     H40174  -0.261   4.827   4.230 -1.1561 -0.7101 -2.2734
  298MOL0     H40175  -0.132   4.979   4.359 -0.6656  1.7678 -0.5125
  298MOL0     H40176  -0.000   4.979   4.247  0.5526 -0.4261 -2.2767
  298MOL0     H40177  -0.116   5.139   4.104 -0.9838  2.5520  0.3522
  298MOL0     H40178  -0.132   5.187   4.265  3.1519  1.5097 -2.8264
  298MOL0     H40179  -0.367   5.064   4.114 -0.8722 -2.1937  0.5336
  298MOL0     H40180  -0.347   5.068   4.289 -0.9508  2.1320  1.1104
  298MOL0     H40181  -0.543   5.243   4.056 -1.0079 -1.5345  1.7130
  298MOL0     H40182  -0.719   5.421   4.134  2.6593 -1.5881 -2.6345
  298MOL0     H40183  -0.690   5.496   4.292  0.1299  1.7542  0.1156
  298MOL0     H40184  -0.517   5.638   4.129  0.0138 -1.7649 -0.5011
  298MOL0     H40185  -0.652   5.596   4.026  0.4570  0.4914 -0.1804
  298MOL0     H40186  -0.673   5.821   4.140  0.9032 -0.4003 -0.1188
  298MOL0     H40187  -0.694   5.725   4.288  1.3510  0.2194 -1.0359
  298MOL0     H40188  -0.914   5.800   4.133 -1.6429 -0.6252 -6.0039
  298MOL0     H40189  -0.906   5.625   4.189 -0.9669 -0.7022 -0.6694
  298MOL0     H40190  -1.123   5.666   4.100  2.1381 -0.6436  0.9528
  298MOL0     H40191  -1.322   5.688   3.968 -1.2675 -0.1590 -2.3357
  298MOL0     H40192  -1.600   5.747   3.520 -1.4945 -0.4046  0.1293
  298MOL0     H40193  -1.774   5.887   3.452 -1.5888  0.6073  1.6637
  298MOL0     H40194  -1.778   6.198   3.385 -2.0471  1.8768  0.5116
  298MOL0     H40195  -1.875   6.060   3.324 -0.8241 -0.0968 -0.7602
  298MOL0     H40196  -1.972   6.253   3.268  2.5779 -4.6330 -1.3145
  298MOL0     H40197  -2.088   6.166   3.374  0.8997  0.2352  2.1278
  298MOL0     H40198  -2.069   6.309   3.565  1.5245  0.8848  2.0346
  298MOL0     H40199  -1.938   6.413   3.492 -0.2526 -0.4099 -0.3524
  298MOL0     H40200  -2.222   6.360   3.428  0.1529 -0.2257  1.1728
  298MOL0     H40201  -2.125   6.430   3.290  1.9209 -1.9290 -0.5112
  298MOL0     H40202  -2.058   6.618   3.434 -0.0192 -1.0738  1.0627
  298MOL0     H40203  -2.177   6.565   3.560 -1.7432  1.3446 -0.3880
  298MOL0     H40204  -2.245   6.673   3.290 -3.5914 -0.2566 -0.0165
  298MOL0     H40205  -2.348   6.557   3.374 -0.6305 -0.1786 -0.8325
  298MOL0     H40206  -2.242   6.801   3.526  2.6504 -0.8201 -1.6119
  298MOL0     H40207  -2.382   6.691   3.554  1.0242 -3.1526 -1.4155
  298MOL0     H40208  -2.459   6.917   3.465 -2.5539 -0.7702 -0.5820
  298MOL0     H40209  -2.341   6.905   3.344  0.2287  2.1803  2.6436
  298MOL0     H40210  -1.755   6.141   3.781 -0.9901 -0.2213  0.5040
  298MOL0     H40211  -1.559   6.008   3.871 -1.8154 -1.6868  1.3675
  298MOL0     H40212  -1.100   5.732   3.613 -1.5361  2.3503 -0.4165
  298MOL0     H40213  -0.894   5.696   3.739 -2.1210 -3.8313 -4.8267
  298MOL0     H40214   0.180   4.097   4.107  0.5010 -2.3550 -0.7159
  298MOL0     H40215   0.338   3.990   3.943 -0.5729 -0.8859  1.3165
  298MOL0     H40216   0.337   3.919   3.433 -0.0195  0.4442 -0.2739
  298MOL0     H40217   0.473   3.711   3.317  1.0411 -0.8252  0.5251
  298MOL0     H40218   0.590   3.588   3.204  1.1027 -2.2566  1.5506
  298MOL0     H40219   0.756   3.554   3.172 -2.8541 -2.1733 -1.0901
  298MOL0     H40220   0.641   3.836   3.137 -0.6743 -1.1050  1.0209
  298MOL0     H40221   0.698   3.710   3.007  2.7344  0.2842  0.0156
  298MOL0     H40222   0.861   3.863   3.009 -3.0383  0.0966 -0.4032
  298MOL0     H40223   0.914   3.719   3.088 -2.0694 -2.4808  0.6622
  298MOL0     H40224   0.807   3.969   3.244  1.3029  0.4101  1.4809
  298MOL0     H40225   0.938   3.850   3.297  0.2748 -2.2216 -2.0187
  298MOL0     H40226   1.169   4.130   3.099 -0.8851  3.2522 -0.0681
  298MOL0     H40227   0.807   3.803   3.527  0.9259  1.3955 -1.3027
  298MOL0     H40228   0.824   3.976   3.679 -0.7187  0.5546 -0.3357
  298MOL0     H40229   0.702   4.108   3.681  1.7829  1.1001  1.3487
  298MOL0     H40230   0.698   3.955   3.790  2.3414 -0.6810 -0.1756
  299MOL0     O40231  11.308   3.458   2.645  0.0799  0.5699  0.2709
  299MOL0     C40232  11.387   3.395   2.572 -1.4745  0.2906  0.1676
  299MOL0     O40233  11.399   3.409   2.433 -0.4118  0.3632 -0.2432
  299MOL0     C40234  11.313   3.500   2.374 -0.4388 -0.4775  0.0431
  299MOL0     C40235  11.359   3.577   2.266 -0.3949 -0.4346  0.5124
  299MOL0     C40236  11.280   3.664   2.189  0.1577 -0.2748 -0.2949
  299MOL0     C40237  11.139   3.668   2.215 -0.8651  0.3110 -0.7687
  299MOL0     O40238  11.048   3.729   2.131 -0.0992  0.3238  0.0048
  299MOL0     C40239  11.092   3.859   2.082 -0.3280  0.7651  0.1783
  299MOL0     C40240  10.977   3.948   2.032  0.2246  0.6716  0.6726
  299MOL0     C40241  10.887   3.988   2.158 -0.4020  0.7505 -0.0991
  299MOL0     C40242  10.787   4.093   2.122  0.3832  0.2425 -1.1049
  299MOL0     C40243  10.707   4.143   2.246  0.0115  0.2534 -0.1185
  299MOL0     C40244  10.643   4.041   2.346 -0.5440 -0.6585 -0.4866
  299MOL0     C40245  10.545   3.942   2.281 -0.4839 -0.5436 -0.5828
  299MOL0     C40246  10.453   3.869   2.375  0.6076  0.0652 -0.4239
  299MOL0     N40247  10.353   3.793   2.311  0.1824  0.3341 -0.2239
  299MOL0     C40248  10.278   3.709   2.383  0.1435 -0.2980 -0.2678
  299MOL0     C40249  10.205   3.637   2.301  0.2177  0.3082  0.6705
  299MOL0     C40250  10.093   3.530   2.334  0.0202  0.7649  0.4268
  299MOL0     C40251  10.147   3.386   2.332 -0.5680  0.7094  0.3973
  299MOL0     C40252  10.230   3.354   2.210 -0.2394 -0.3220 -0.1720
  299MOL0     C40253  10.278   3.210   2.221 -0.0556 -0.6298 -0.5071
  299MOL0     O40254  10.380   3.206   2.322 -0.4771 -0.2277  0.2933
  299MOL0     C40255  10.421   3.086   2.369  0.1902 -0.6717 -0.3262
  299MOL0     C40256  10.497   3.101   2.485  0.4387 -0.5627 -0.9648
  299MOL0     C40257  10.547   2.992   2.556  0.5002  0.8511  0.2923
  299MOL0     C40258  10.539   2.863   2.499 -0.6982  0.3698 -0.4152
  299MOL0     C40259  10.592   2.745   2.567  0.6284 -0.1667  0.4850
  299MOL0     O40260  10.706   2.770   2.629  0.1580  0.6988 -0.6177
  299MOL0     C40261  10.784   2.669   2.682 -0.2102  0.3306 -0.3666
  299MOL0     C40262  10.909   2.641   2.629 -0.0916 -0.6500  0.8462
  299MOL0     C40263  10.994   2.544   2.688  0.6667 -0.8488  0.2935
  299MOL0     C40264  10.969   2.490   2.806  0.8007  0.0514 -1.2859
  299MOL0     O40265  11.059   2.410   2.889  0.1801 -0.0906  0.3327
  299MOL0     C40266  11.154   2.328   2.813  0.6058  0.8868 -0.4444
  299MOL0     C40267  11.190   2.211   2.917 -0.3658 -1.2058  0.3556
  299MOL0     C40268  11.077   2.116   2.926 -0.2411 -0.7763 -0.3322
  299MOL0     C40269  11.117   1.992   3.003  0.8083  0.3813  0.4320
  299MOL0     C40270  10.989   1.904   3.021 -0.1363 -0.3775  0.2132
  299MOL0     C40271  11.017   1.757   3.047 -0.1953  0.9938  0.6987
  299MOL0     C40272  10.958   1.668   2.937  0.0390  0.6570  0.0214
  299MOL0     C40273  10.932   1.527   2.984 -0.8974 -0.1667  0.7536
  299MOL0    Cl40274  10.866   1.445   2.839 -0.2166  0.2844  0.2206
  299MOL0     C40275  10.847   2.514   2.864 -0.3689 -0.0443 -0.0842
  299MOL0     C40276  10.752   2.595   2.799  0.6373  0.4164  0.6814
  299MOL0     O40277  10.542   2.628   2.549  0.1995 -0.5694  0.0443
  299MOL0     C40278  10.465   2.849   2.373  0.4393  0.5335  0.1338
  299MOL0     C40279  10.404   2.956   2.313  0.6637 -0.6169 -0.5134
  299MOL0     N40280  10.238   3.679   2.175 -0.4587  0.2569  0.4089
  299MOL0     N40281  10.317   3.774   2.184 -0.3820 -0.7006 -0.0271
  299MOL0     C40282  11.088   3.583   2.313  0.1676  0.0236 -0.4242
  299MOL0     C40283  11.174   3.501   2.392 -0.4203 -0.4953 -0.4925
  299MOL0     C40284  11.496   3.298   2.622 -0.1166 -0.8804 -0.7142
  299MOL0     C40285  11.607   3.267   2.542 -0.2661  0.4023  0.4095
  299MOL0     C40286  11.711   3.187   2.592  0.4950 -1.0231  0.3896
  299MOL0     C40287  11.709   3.141   2.723 -0.3253 -0.2155 -0.0444
  299MOL0     O40288  11.822   3.060   2.744  0.2537 -0.4825  0.2540
  299MOL0     C40289  11.807   2.968   2.859 -0.4899  0.1136 -0.1071
  299MOL0     C40290  11.933   2.889   2.882  0.2319  0.5247 -0.8972
  299MOL0     C40291  11.892   2.775   2.981 -0.1429  0.5349 -0.0667
  299MOL0     C40292  12.019   2.726   3.051  0.6659 -0.1179  1.5215
  299MOL0     C40293  12.094   2.640   2.951 -0.1568  0.6774 -0.0725
  299MOL0     C40294  12.148   2.552   2.872  0.2919  0.6390 -0.8301
  299MOL0     C40295  11.608   3.170   2.806  0.0656 -0.3291 -0.2828
  299MOL0     C40296  11.500   3.249   2.758 -1.0211  0.5509 -0.5509
  299MOL0     C40297  11.387   3.276   2.853  0.3855  0.2453 -0.1517
  299MOL0     H40298  11.464   3.580   2.239 -0.1179  1.7186  1.6043
  299MOL0     H40299  11.332   3.712   2.106  1.3317 -0.3937  0.3462
  299MOL0     H40300  11.143   3.918   2.159 -0.6779  3.2597 -1.4195
  299MOL0     H40301  11.164   3.845   2.001 -0.7133  2.5528 -0.5227
  299MOL0     H40302  10.917   3.893   1.960 -1.4150 -0.7886  3.0130
  299MOL0     H40303  11.014   4.044   1.994  0.3932  1.1779  2.0246
  299MOL0     H40304  10.946   4.047   2.229  4.0363 -1.4805 -1.5901
  299MOL0     H40305  10.829   3.904   2.196 -2.4948  2.8420  1.7083
  299MOL0     H40306  10.846   4.172   2.075  0.4437  1.6715  1.2196
  299MOL0     H40307  10.711   4.066   2.048 -1.9561 -0.5805  1.4146
  299MOL0     H40308  10.769   4.204   2.313  0.5947  0.7174 -1.0710
  299MOL0     H40309  10.617   4.199   2.219  0.9771  1.2536 -1.3296
  299MOL0     H40310  10.719   3.981   2.397 -1.0892 -1.0560 -0.1252
  299MOL0     H40311  10.594   4.102   2.422  2.2344  0.9484  0.1105
  299MOL0     H40312  10.604   3.867   2.228  0.0879 -1.6378  1.4935
  299MOL0     H40313  10.481   3.990   2.207 -0.6008  2.0046  1.0352
  299MOL0     H40314  10.516   3.796   2.426  1.8579  2.0032  0.9461
  299MOL0     H40315  10.413   3.943   2.445  0.1488 -0.9151  0.3785
  299MOL0     H40316  10.287   3.695   2.490  0.9158  3.9274  0.4276
  299MOL0     H40317  10.050   3.545   2.433 -0.2000 -1.2224  0.6627
  299MOL0     H40318  10.011   3.554   2.266  0.7737  2.7905  0.1695
  299MOL0     H40319  10.206   3.368   2.423  0.5799  0.2529 -0.4073
  299MOL0     H40320  10.065   3.314   2.324  0.5305 -0.6745  1.1729
  299MOL0     H40321  10.316   3.421   2.198  2.4712 -3.4989  0.0915
  299MOL0     H40322  10.164   3.365   2.124 -0.1780  4.1799  0.1378
  299MOL0     H40323  10.316   3.183   2.122  1.9128  4.3659 -1.4154
  299MOL0     H40324  10.210   3.132   2.256  1.9776 -2.5799 -0.7309
  299MOL0     H40325  10.520   3.196   2.533  3.0834 -0.6930 -1.8063
  299MOL0     H40326  10.597   3.003   2.652  0.6991  0.7492  0.2016
  299MOL0     H40327  10.948   2.700   2.546 -0.0813 -2.3087 -0.3810
  299MOL0     H40328  11.092   2.534   2.641  0.4057 -1.1166 -0.2081
  299MOL0     H40329  11.107   2.290   2.722  0.3263  0.9289 -0.3203
  299MOL0     H40330  11.243   2.382   2.780  1.8694 -0.0325  1.2868
  299MOL0     H40331  11.277   2.164   2.871  1.2994 -0.4678  2.5559
  299MOL0     H40332  11.228   2.255   3.010  5.6632  0.0124 -2.2606
  299MOL0     H40333  10.986   2.159   2.968  0.7869 -2.3818  4.1552
  299MOL0     H40334  11.053   2.087   2.824  1.4469 -0.7595 -0.7594
  299MOL0     H40335  11.176   2.018   3.092  1.0957  2.1969 -0.2427
  299MOL0     H40336  11.188   1.938   2.939 -1.6508  0.7032 -2.8160
  299MOL0     H40337  10.917   1.914   2.940 -1.0594 -1.0182  0.9284
  299MOL0     H40338  10.942   1.944   3.112 -0.7085  0.3552 -0.3840
  299MOL0     H40339  11.125   1.741   3.057 -0.1288  1.9686  1.8070
  299MOL0     H40340  10.973   1.721   3.141  0.7275  1.2747  1.2585
  299MOL0     H40341  11.018   1.665   2.846 -2.0019 -0.6666 -1.3826
  299MOL0     H40342  10.853   1.688   2.913 -0.5732 -2.4862 -0.4014
  299MOL0     H40343  11.025   1.485   3.024 -0.7379  0.3023  0.8815
  299MOL0     H40344  10.860   1.515   3.065  0.1909 -0.2528  1.7462
  299MOL0     H40345  10.827   2.464   2.958 -1.0531  1.1272  0.4082
  299MOL0     H40346  10.652   2.609   2.839  0.7699  0.9710  0.8270
  299MOL0     H40347  10.428   2.754   2.335 -4.2547  2.2908 -0.2910
  299MOL0     H40348  10.351   2.932   2.222  2.3552  0.5323 -1.8496
  299MOL0     H40349  10.980   3.578   2.322  0.1821  1.6715  1.4164
  299MOL0     H40350  11.142   3.438   2.475 -0.5967 -1.6634 -1.4214
  299MOL0     H40351  11.616   3.314   2.445 -1.3019 -1.6055 -0.7378
  299MOL0     H40352  11.790   3.159   2.523  0.2144 -0.1438 -0.3077
  299MOL0     H40353  11.729   2.892   2.848  0.6542 -1.1358  0.1378
  299MOL0     H40354  11.794   3.033   2.946  0.7015  0.1714  0.0471
  299MOL0     H40355  11.996   2.966   2.929 -2.6764  1.5251  1.6513
  299MOL0     H40356  11.966   2.839   2.791  0.2957  2.7421 -2.1623
  299MOL0     H40357  11.844   2.701   2.916  2.3799 -0.7574 -0.6106
  299MOL0     H40358  11.820   2.812   3.054  0.3196  1.2469  0.0370
  299MOL0     H40359  12.075   2.812   3.088 -1.4692  1.5550  1.0549
  299MOL0     H40360  11.991   2.664   3.137  1.0979  1.0108  2.4950
  299MOL0     H40361  12.186   2.475   2.808 -0.3101  1.7278 -2.5613
  299MOL0     H40362  11.595   3.138   2.909  0.2204  1.3612  0.2873
  299MOL0     H40363  11.390   3.383   2.879  1.9256 -0.3695  2.5177
  299MOL0     H40364  11.283   3.256   2.824 -0.3568  2.9253  0.3286
  299MOL0     H40365  11.402   3.221   2.946 -0.6490  0.9150  0.4353
  300MOL0     O40366   6.953   7.912  10.958 -0.4073  0.2147  0.8146
  300MOL0     C40367   6.982   7.789  10.933  0.0586  0.0463  0.5214
  300MOL0     O40368   7.090   7.714  10.994  0.4516  0.4538  0.0454
  300MOL0     C40369   7.141   7.762  11.115 -0.3699  0.3058  0.2479
  300MOL0     C40370   7.144   7.678  11.225 -0.2964 -0.5132 -0.6345
  300MOL0     C40371   7.217   7.707  11.341  0.2952 -0.0121  0.1078
  300MOL0     C40372   7.273   7.838  11.361 -0.5595 -0.4229 -0.5610
  300MOL0     O40373   7.346   7.873  11.474  0.3806 -0.0172  0.0330
  300MOL0     C40374   7.489   7.891  11.453  0.6061 -0.6819 -0.0732
  300MOL0     C40375   7.574   7.763  11.487 -0.8448 -0.0692  0.1776
  300MOL0     C40376   7.726   7.787  11.473  0.1156  0.0533  0.0966
  300MOL0     C40377   7.794   7.655  11.434  0.3772  0.8108  0.0763
  300MOL0     C40378   7.949   7.660  11.420  0.1760  0.0926  0.2043
  300MOL0     C40379   7.998   7.534  11.333 -0.3454  0.3049  0.0513
  300MOL0     C40380   8.152   7.505  11.339  0.4452  0.3136 -0.5511
  300MOL0     C40381   8.235   7.562  11.221  0.3832 -0.3805  0.2266
  300MOL0     N40382   8.364   7.489  11.202  0.0574  0.2025  0.4396
  300MOL0     C40383   8.368   7.379  11.130  0.1787 -0.3038  0.5327
  300MOL0     C40384   8.486   7.376  11.068 -0.6172 -0.6999 -0.0411
  300MOL0     C40385   8.528   7.282  10.963  0.9295  0.4898  0.1147
  300MOL0     C40386   8.562   7.356  10.829 -0.6124 -0.7096 -0.3447
  300MOL0     C40387   8.664   7.267  10.746 -0.4625 -1.2018  0.3548
  300MOL0     C40388   8.746   7.351  10.644  0.2174  0.0612 -0.4440
  300MOL0     O40389   8.817   7.260  10.564 -0.5383 -0.1782 -0.3965
  300MOL0     C40390   8.793   7.278  10.425 -0.2837 -0.2561 -0.3008
  300MOL0     C40391   8.736   7.191  10.338 -0.0391 -0.3478  0.5763
  300MOL0     C40392   8.716   7.219  10.201  0.7759  0.0664  0.1314
  300MOL0     C40393   8.757   7.345  10.152 -0.9132  0.1293  0.2283
  300MOL0     C40394   8.740   7.394  10.008 -0.3044 -0.8149  0.5034
  300MOL0     O40395   8.691   7.304   9.915 -0.7097 -0.1555  0.3106
  300MOL0     C40396   8.668   7.350   9.788 -0.0908  0.6453  1.3123
  300MOL0     C40397   8.609   7.472   9.754 -0.8583  0.5485 -0.4461
  300MOL0     C40398   8.610   7.510   9.617  0.6022 -0.7070 -0.0304
  300MOL0     C40399   8.655   7.427   9.518  0.1355  0.1183  0.3189
  300MOL0     O40400   8.659   7.464   9.388 -0.3775  0.4633  0.0283
  300MOL0     C40401   8.591   7.381   9.296 -0.3508  0.1276  0.4942
  300MOL0     C40402   8.445   7.403   9.319  0.9175  0.6302  0.8925
  300MOL0     C40403   8.349   7.407   9.198 -1.1839 -0.1349 -0.4995
  300MOL0     C40404   8.268   7.284   9.188  0.4293  0.2410 -0.6125
  300MOL0     C40405   8.174   7.264   9.072  0.2065 -0.2940  0.4528
  300MOL0     C40406   8.087   7.143   9.106  0.4661  0.6451 -0.0357
  300MOL0     C40407   7.976   7.118   9.013  0.5984 -0.1517  1.0213
  300MOL0     C40408   7.895   6.992   9.032 -1.2674  0.3162  0.1941
  300MOL0    Cl40409   7.772   6.984   8.897 -0.5241 -0.3305 -0.2523
  300MOL0     C40410   8.692   7.295   9.553 -1.1861 -0.4431 -0.8997
  300MOL0     C40411   8.701   7.267   9.686 -0.3156 -0.4275 -0.4421
  300MOL0     O40412   8.781   7.506   9.981  0.7765 -0.5560  0.2582
  300MOL0     C40413   8.828   7.429  10.233 -0.9869  0.2070  0.2862
  300MOL0     C40414   8.845   7.394  10.366  0.6402 -1.0661  0.1434
  300MOL0     N40415   8.562   7.481  11.124  0.0544  0.6522 -0.0651
  300MOL0     N40416   8.489   7.544  11.206  0.0583  0.2503  0.0162
  300MOL0     C40417   7.254   7.928  11.254  0.5172  0.9420 -0.2241
  300MOL0     C40418   7.201   7.892  11.129  0.9811 -0.0275 -0.9535
  300MOL0     C40419   6.922   7.726  10.806 -0.4970 -0.1426 -0.6585
  300MOL0     C40420   6.819   7.799  10.743 -0.0408 -0.0245 -0.1161
  300MOL0     C40421   6.758   7.747  10.634  0.0430 -0.2677  0.4486
  300MOL0     C40422   6.792   7.623  10.569 -0.3301 -1.2504  0.1727
  300MOL0     O40423   6.724   7.583  10.459  0.2294  0.5269  0.9864
  300MOL0     C40424   6.695   7.662  10.351  0.0818 -0.7969  0.0484
  300MOL0     C40425   6.630   7.587  10.225  1.1297 -0.5895  0.0602
  300MOL0     C40426   6.589   7.676  10.103 -0.3885 -0.0096 -0.1217
  300MOL0     C40427   6.700   7.772  10.039 -0.4145  0.3894 -0.2952
  300MOL0     C40428   6.684   7.789   9.895 -0.2045 -0.7928  0.9866
  300MOL0     C40429   6.671   7.828   9.776 -0.6140  0.5007 -0.1245
  300MOL0     C40430   6.898   7.554  10.631  1.3159  0.1317  0.4383
  300MOL0     C40431   6.957   7.596  10.755  0.3298  0.0113  0.0203
  300MOL0     C40432   7.065   7.497  10.815  1.0593  1.2118  0.3971
  300MOL0     H40433   7.109   7.576  11.215  1.6675 -1.0187 -3.5448
  300MOL0     H40434   7.244   7.635  11.418  1.5616 -0.9187 -1.1413
  300MOL0     H40435   7.507   7.923  11.349  3.8929 -1.2397  0.2184
  300MOL0     H40436   7.511   7.967  11.528 -0.3847 -0.3142 -0.1350
  300MOL0     H40437   7.545   7.674  11.431 -1.4478 -0.1220  0.5644
  300MOL0     H40438   7.556   7.758  11.595  1.0368  2.1143  0.6728
  300MOL0     H40439   7.764   7.824  11.570 -1.0710 -1.2525  1.0988
  300MOL0     H40440   7.742   7.873  11.407 -0.6285 -0.0520 -0.2233
  300MOL0     H40441   7.769   7.581  11.510 -1.0763  1.5352  0.3460
  300MOL0     H40442   7.739   7.635  11.341 -2.8043  1.3274  1.7038
  300MOL0     H40443   7.984   7.750  11.368 -0.4972 -0.6265 -1.5551
  300MOL0     H40444   7.993   7.662  11.520  0.7607  1.0359 -0.0586
  300MOL0     H40445   7.945   7.446  11.372  0.7388 -0.8978 -1.0696
  300MOL0     H40446   7.969   7.547  11.228  0.6497 -1.2700 -0.4531
  300MOL0     H40447   8.159   7.397  11.322  0.7013  0.6331 -2.7380
  300MOL0     H40448   8.187   7.545  11.435 -1.7538 -0.2056  0.5361
  300MOL0     H40449   8.177   7.560  11.128  1.5398  2.6422 -0.6594
  300MOL0     H40450   8.258   7.661  11.261 -2.4796  1.1527 -1.5669
  300MOL0     H40451   8.297   7.298  11.118 -0.3957  0.4620 -1.6611
  300MOL0     H40452   8.614   7.227  11.003  1.3868 -1.0140 -2.6524
  300MOL0     H40453   8.451   7.206  10.948  0.9409  0.1809  1.5163
  300MOL0     H40454   8.470   7.363  10.771 -1.1230 -1.5407  0.3434
  300MOL0     H40455   8.594   7.460  10.837  1.5907 -1.2273 -1.5746
  300MOL0     H40456   8.615   7.179  10.704 -4.4632  0.7005  0.5541
  300MOL0     H40457   8.737   7.230  10.819  1.2302 -0.6980 -1.0058
  300MOL0     H40458   8.811   7.422  10.696 -0.0710 -1.2892  1.9172
  300MOL0     H40459   8.669   7.406  10.590 -1.7719 -0.7450  1.3852
  300MOL0     H40460   8.699   7.100  10.385  1.1546 -0.0716  2.0866
  300MOL0     H40461   8.666   7.147  10.137  0.0037 -0.0135  0.8119
  300MOL0     H40462   8.585   7.532   9.840  1.2441  0.4751  0.2566
  300MOL0     H40463   8.599   7.614   9.588  0.8887 -1.0949 -1.5945
  300MOL0     H40464   8.618   7.414   9.195  0.2295 -0.8990  0.3070
  300MOL0     H40465   8.620   7.276   9.306  0.4423  0.2426 -0.4295
  300MOL0     H40466   8.416   7.334   9.398  0.3423 -0.5122 -0.2650
  300MOL0     H40467   8.430   7.502   9.361  2.5218  1.5855 -0.6494
  300MOL0     H40468   8.279   7.487   9.222 -1.2384 -0.5606  0.8326
  300MOL0     H40469   8.387   7.441   9.101 -0.6285 -0.9235 -0.5661
  300MOL0     H40470   8.208   7.280   9.279  2.6200  0.6333  0.9277
  300MOL0     H40471   8.331   7.195   9.198 -0.4547 -0.1541  2.8014
  300MOL0     H40472   8.233   7.251   8.981 -1.0069  1.7941 -0.7220
  300MOL0     H40473   8.117   7.357   9.064  0.4013 -0.2785 -1.0674
  300MOL0     H40474   8.153   7.057   9.116  1.0442  1.0790 -0.0236
  300MOL0     H40475   8.034   7.156   9.201 -0.6966 -0.9995 -0.4163
  300MOL0     H40476   8.015   7.109   8.911  0.8827 -0.3743  1.1478
  300MOL0     H40477   7.907   7.202   9.006  0.8044 -0.0831 -3.6571
  300MOL0     H40478   7.959   6.903   9.043 -1.2771  0.3994  1.0075
  300MOL0     H40479   7.838   6.992   9.125 -0.2694 -2.7727  0.9242
  300MOL0     H40480   8.737   7.226   9.483  2.1567 -0.3176  0.9356
  300MOL0     H40481   8.763   7.182   9.714  2.0834  1.9641  2.0689
  300MOL0     H40482   8.877   7.516  10.189 -2.0789 -0.6563 -2.8686
  300MOL0     H40483   8.901   7.471  10.417  1.6809  0.8316 -3.5519
  300MOL0     H40484   7.304   8.023  11.243  4.3888 -0.6092  1.8886
  300MOL0     H40485   7.188   7.961  11.046 -1.5331  0.7601  0.0113
  300MOL0     H40486   6.790   7.901  10.767 -0.7773 -0.4722  0.9704
  300MOL0     H40487   6.677   7.812  10.602  0.6269  2.0949  3.3068
  300MOL0     H40488   6.792   7.704  10.322 -0.0907 -0.2350  0.2762
  300MOL0     H40489   6.634   7.741  10.396 -0.8781 -0.9788 -0.8833
  300MOL0     H40490   6.550   7.521  10.260  0.5903  0.3207  0.5951
  300MOL0     H40491   6.700   7.511  10.188  2.0282  0.2396  0.0167
  300MOL0     H40492   6.510   7.745  10.134  0.3700  0.8448 -0.0786
  300MOL0     H40493   6.556   7.614  10.019 -1.0745  0.0524  0.0940
  300MOL0     H40494   6.691   7.871  10.086 -1.2613  1.3588 -2.3556
  300MOL0     H40495   6.801   7.733  10.052 -0.1836 -0.3246 -3.4712
  300MOL0     H40496   6.647   7.850   9.674 -0.5587 -1.8243 -0.6804
  300MOL0     H40497   6.923   7.455  10.592  2.7341 -0.5170  2.8195
  300MOL0     H40498   7.041   7.468  10.918 -2.8239 -1.2118 -0.9854
  300MOL0     H40499   7.077   7.410  10.751 -0.7802  0.3682  1.1210
  300MOL0     H40500   7.164   7.543  10.813  1.5709  0.1158 -0.0249
  301MOL0     O40501   2.216   0.471   8.676 -0.2761  0.0218  0.0496
  301MOL0     C40502   2.238   0.356   8.639  0.0136  0.7180  1.0737
  301MOL0     O40503   2.237   0.255   8.723  0.1205 -0.3302 -0.1429
  301MOL0     C40504   2.128   0.247   8.816 -0.3049  0.2264  0.9563
  301MOL0     C40505   2.071   0.347   8.893  0.9511  0.5418  0.5839
  301MOL0     C40506   1.984   0.317   9.001  0.1595 -0.0069 -0.0860
  301MOL0     C40507   1.949   0.190   9.028  0.8023 -0.6790 -0.8666
  301MOL0     O40508   1.839   0.176   9.116  0.2452 -0.1099  0.4122
  301MOL0     C40509   1.804   0.046   9.170  0.5886  0.3430 -0.4498
  301MOL0     C40510   1.704   0.071   9.285 -0.6738 -0.7253  0.0447
  301MOL0     C40511   1.665  -0.064   9.349 -0.6247 -0.6489  0.2097
  301MOL0     C40512   1.571  -0.039   9.466  0.2409 -0.4121 -0.0772
  301MOL0     C40513   1.448   0.047   9.432  0.0018 -1.1377  0.0794
  301MOL0     C40514   1.344   0.035   9.541  0.1617  0.2691 -0.2265
  301MOL0     C40515   1.232   0.135   9.502  0.0525 -0.0525  0.0544
  301MOL0     C40516   1.091   0.081   9.538  0.3856  0.0405 -0.6844
  301MOL0     N40517   1.004   0.057   9.418  0.2131  0.1911 -0.3995
  301MOL0     C40518   0.957   0.165   9.340  0.0588  0.0870 -0.1410
  301MOL0     C40519   0.906   0.101   9.227  0.5743  0.8728 -0.5364
  301MOL0     C40520   0.853   0.167   9.105 -0.6176 -1.0647  0.4145
  301MOL0     C40521   0.710   0.212   9.113 -0.1692  0.1849 -0.7158
  301MOL0     C40522   0.616   0.097   9.120  0.1963 -0.4877 -0.5486
  301MOL0     C40523   0.469   0.131   9.104  1.0420  0.4502  0.0900
  301MOL0     O40524   0.426   0.264   9.124  0.6562 -0.2890 -0.3865
  301MOL0     C40525   0.377   0.330   9.020  0.5275  0.4597  0.4257
  301MOL0     C40526   0.430   0.456   8.991 -0.4203 -0.9005 -0.0740
  301MOL0     C40527   0.376   0.532   8.891  0.3841 -0.2528  0.0389
  301MOL0     C40528   0.281   0.487   8.792 -0.2573 -0.5724  0.0131
  301MOL0     C40529   0.234   0.567   8.670 -0.5723 -0.1664 -0.0743
  301MOL0     O40530   0.150   0.512   8.577  0.2913  0.2223  0.2835
  301MOL0     C40531   0.092   0.590   8.475 -0.3722  0.6309 -0.0941
  301MOL0     C40532  -0.057   0.615   8.480  0.3298 -0.0464  0.0411
  301MOL0     C40533  -0.124   0.694   8.391  0.2775  1.2123  0.3184
  301MOL0     C40534  -0.049   0.742   8.289  0.9183  0.7026  1.1698
  301MOL0     O40535  -0.132   0.810   8.197  0.0895 -0.1292  0.1550
  301MOL0     C40536  -0.076   0.829   8.065 -0.0525 -0.1260  0.5557
  301MOL0     C40537  -0.185   0.900   7.973  0.2167  0.0278  0.2646
  301MOL0     C40538  -0.232   1.030   8.036 -0.4342  0.0498 -0.4186
  301MOL0     C40539  -0.217   1.149   7.946 -0.0854 -0.4541 -0.4870
  301MOL0     C40540  -0.249   1.288   8.013  0.9020  0.0902 -0.3830
  301MOL0     C40541  -0.398   1.318   8.031  0.0272  0.2988 -0.4012
  301MOL0     C40542  -0.425   1.426   8.132 -0.5802 -0.4882  0.5930
  301MOL0     C40543  -0.388   1.569   8.076  0.5112 -0.1361 -0.3027
  301MOL0    Cl40544  -0.437   1.602   7.904  0.1554  0.0151  0.1337
  301MOL0     C40545   0.088   0.720   8.278 -1.0733  0.1414  0.8619
  301MOL0     C40546   0.156   0.654   8.373  0.4913 -0.2142  0.4196
  301MOL0     O40547   0.254   0.690   8.685  0.0385  1.2087 -0.6712
  301MOL0     C40548   0.234   0.353   8.814  0.6540 -0.0201 -0.9277
  301MOL0     C40549   0.278   0.287   8.931  1.0507  0.1747 -0.8834
  301MOL0     N40550   0.920  -0.036   9.244 -0.0998 -0.4009  0.3308
  301MOL0     N40551   0.982  -0.061   9.359 -0.3073 -0.6579  0.5742
  301MOL0     C40552   2.008   0.083   8.961 -0.0940 -0.2153  0.0438
  301MOL0     C40553   2.095   0.118   8.863  0.0232 -0.0264 -0.3228
  301MOL0     C40554   2.287   0.337   8.504 -1.1802 -0.4121  0.6257
  301MOL0     C40555   2.355   0.216   8.480 -0.5712  0.5987  0.6874
  301MOL0     C40556   2.438   0.193   8.371  0.6437  0.3709 -0.7426
  301MOL0     C40557   2.450   0.292   8.270  0.2808 -0.0573  0.7205
  301MOL0     O40558   2.514   0.274   8.149 -0.3586 -0.3417 -0.0024
  301MOL0     C40559   2.600   0.157   8.134  0.1057  0.4650  0.0372
  301MOL0     C40560   2.504   0.037   8.094 -0.3918 -0.2782 -0.4522
  301MOL0     C40561   2.576  -0.096   8.064  0.8324  0.5453 -1.3096
  301MOL0     C40562   2.467  -0.199   8.026 -0.6516 -0.4226  0.3254
  301MOL0     C40563   2.534  -0.307   7.947  0.0912  0.5299 -0.7671
  301MOL0     C40564   2.585  -0.403   7.896  0.1713 -0.4781 -0.0900
  301MOL0     C40565   2.378   0.410   8.291  0.4775  0.8920  0.0175
  301MOL0     C40566   2.304   0.438   8.407  0.0410 -0.5001  0.1495
  301MOL0     C40567   2.243   0.579   8.419  0.0683 -0.3630  0.9726
  301MOL0     H40568   2.113   0.447   8.888 -0.2567  1.0367 -0.0723
  301MOL0     H40569   1.938   0.400   9.053  0.2467  1.3575 -2.0579
  301MOL0     H40570   1.752  -0.024   9.104 -0.7597 -2.5853  3.3414
  301MOL0     H40571   1.891  -0.005   9.213 -0.8455 -0.1391  2.1280
  301MOL0     H40572   1.628   0.130   9.231  2.3448  3.1721 -0.4475
  301MOL0     H40573   1.760   0.135   9.353  1.3644 -1.5887 -0.7329
  301MOL0     H40574   1.757  -0.116   9.376 -0.6323 -0.0912  1.3966
  301MOL0     H40575   1.609  -0.115   9.271 -1.3277  1.4276 -0.7315
  301MOL0     H40576   1.529  -0.130   9.509 -1.2285  0.8418  1.2512
  301MOL0     H40577   1.621   0.001   9.554 -2.4068  0.7801  0.9705
  301MOL0     H40578   1.469   0.152   9.412 -3.3953 -0.6008 -1.4528
  301MOL0     H40579   1.412  -0.000   9.340  0.4359 -1.4138  0.0482
  301MOL0     H40580   1.304  -0.067   9.544 -0.6508  0.6083  1.3432
  301MOL0     H40581   1.393   0.060   9.636 -0.4068  0.2359  0.0800
  301MOL0     H40582   1.231   0.161   9.395 -2.1211 -0.4310 -0.0478
  301MOL0     H40583   1.247   0.223   9.565 -0.2124  0.4267 -0.5458
  301MOL0     H40584   1.099  -0.001   9.610  2.2792  0.7668 -0.0156
  301MOL0     H40585   1.046   0.161   9.598  1.8522  0.0678  0.4521
  301MOL0     H40586   0.969   0.270   9.364  1.2598  0.3853 -1.8111
  301MOL0     H40587   0.925   0.249   9.097  0.3125 -1.8346  0.7734
  301MOL0     H40588   0.860   0.091   9.026  0.4324 -1.7269  1.1261
  301MOL0     H40589   0.695   0.274   9.202 -0.4596  1.7739 -1.8388
  301MOL0     H40590   0.692   0.273   9.025 -0.6726 -0.0025 -0.7484
  301MOL0     H40591   0.629   0.041   9.213 -0.2316 -0.2044 -0.3137
  301MOL0     H40592   0.644   0.023   9.045  1.3541  1.6904 -2.3944
  301MOL0     H40593   0.418   0.063   9.173 -0.0393  1.4547  0.3109
  301MOL0     H40594   0.447   0.105   9.000  0.3626 -1.6517  0.7068
  301MOL0     H40595   0.503   0.492   9.063  0.1859 -2.5229  0.1685
  301MOL0     H40596   0.433   0.624   8.879  0.7587 -0.6487 -1.5071
  301MOL0     H40597  -0.119   0.561   8.550  0.7720 -1.1068 -0.3758
  301MOL0     H40598  -0.231   0.698   8.373  0.5971 -1.0596 -2.9199
  301MOL0     H40599   0.011   0.895   8.060 -0.3697  0.3265  0.8848
  301MOL0     H40600  -0.041   0.738   8.015  1.4314  1.6029 -1.7850
  301MOL0     H40601  -0.135   0.931   7.881 -1.4515  0.3050 -0.5861
  301MOL0     H40602  -0.264   0.830   7.947 -0.6008 -0.8835  4.4620
  301MOL0     H40603  -0.337   1.022   8.062  0.1982 -0.0271  2.4597
  301MOL0     H40604  -0.161   1.045   8.118  0.6390 -0.3901 -1.2339
  301MOL0     H40605  -0.279   1.127   7.859  0.8479 -1.5935 -0.8933
  301MOL0     H40606  -0.116   1.162   7.907 -0.6084  0.5207 -1.5910
  301MOL0     H40607  -0.211   1.371   7.953  2.2024 -0.9008 -0.9893
  301MOL0     H40608  -0.192   1.290   8.107 -0.1477  0.5858  0.2535
  301MOL0     H40609  -0.443   1.337   7.934 -3.4705 -2.2417  0.5102
  301MOL0     H40610  -0.449   1.225   8.056 -2.0226  0.8247 -2.3276
  301MOL0     H40611  -0.367   1.409   8.224 -0.6408  0.1321  0.7520
  301MOL0     H40612  -0.531   1.411   8.157 -0.7983 -1.6486 -0.9036
  301MOL0     H40613  -0.429   1.645   8.143 -0.2038 -1.2608  0.5750
  301MOL0     H40614  -0.279   1.581   8.074  0.3860  2.0712  1.5435
  301MOL0     H40615   0.157   0.756   8.203 -1.7508  1.1795  0.7130
  301MOL0     H40616   0.264   0.647   8.368  0.7103  3.0109 -2.1332
  301MOL0     H40617   0.168   0.310   8.739 -0.7531 -1.4121  1.0074
  301MOL0     H40618   0.231   0.189   8.937  0.5030  0.2851 -2.7411
  301MOL0     H40619   1.973  -0.013   8.997 -1.6875  1.6042  3.9747
  301MOL0     H40620   2.138   0.030   8.815 -1.2997  0.1235 -1.8376
  301MOL0     H40621   2.347   0.145   8.562 -0.2182 -1.3708 -0.8920
  301MOL0     H40622   2.487   0.096   8.379  0.3239  0.3487  1.6115
  301MOL0     H40623   2.653   0.142   8.229  2.1546  0.9278 -0.9809
  301MOL0     H40624   2.673   0.154   8.054 -0.4145 -3.0213 -0.4999
  301MOL0     H40625   2.461   0.075   8.001 -0.6187  3.0613  0.8837
  301MOL0     H40626   2.422   0.032   8.166 -1.8530  1.9102 -1.8632
  301MOL0     H40627   2.636  -0.130   8.149  0.0585 -0.0526 -0.9984
  301MOL0     H40628   2.650  -0.084   7.984  3.6446  0.3748  1.0947
  301MOL0     H40629   2.419  -0.244   8.113 -2.5016  0.8797  0.0234
  301MOL0     H40630   2.387  -0.144   7.975 -0.6712  2.3646  3.0725
  301MOL0     H40631   2.632  -0.497   7.876  1.3537  0.3219 -1.2170
  301MOL0     H40632   2.390   0.483   8.211 -4.4335  0.5238 -1.3944
  301MOL0     H40633   2.294   0.627   8.503 -1.1515  1.7754  0.5413
  301MOL0     H40634   2.252   0.643   8.331 -0.7397 -1.3187  0.1653
  301MOL0     H40635   2.136   0.572   8.438  0.1199 -4.4038  0.8076
  302MOL0     O40636   1.495   0.689   4.334  0.5488 -0.8127 -0.9647
  302MOL0     C40637   1.468   0.571   4.325 -0.1648  0.4524 -0.6126
  302MOL0     O40638   1.345   0.522   4.293  0.5652  0.8159  0.3324
  302MOL0     C40639   1.242   0.602   4.242 -0.3686 -0.6893 -0.4036
  302MOL0     C40640   1.208   0.736   4.286 -0.6225  0.0604  0.6550
  302MOL0     C40641   1.089   0.798   4.234 -0.4151 -0.2040 -0.1311
  302MOL0     C40642   1.004   0.732   4.145 -0.5871  0.8723  0.2229
  302MOL0     O40643   0.910   0.786   4.057 -0.5047  0.4504 -0.1980
  302MOL0     C40644   0.880   0.924   4.075 -0.4858 -0.1410  0.0965
  302MOL0     C40645   0.763   0.959   4.006  0.0908  0.3727  0.8487
  302MOL0     C40646   0.774   0.936   3.848  0.6965  0.1763 -1.7339
  302MOL0     C40647   0.729   0.803   3.801 -0.7138 -0.0769 -0.7225
  302MOL0     C40648   0.727   0.798   3.643  0.4551 -1.4797  0.9023
  302MOL0     C40649   0.862   0.837   3.572 -0.5147 -0.6164  0.4242
  302MOL0     C40650   0.854   0.808   3.422  0.6863 -0.3315  0.4048
  302MOL0     C40651   0.774   0.903   3.335 -0.2629 -0.1941  1.0529
  302MOL0     N40652   0.867   0.969   3.255 -0.0158 -0.2410  1.0365
  302MOL0     C40653   0.985   1.034   3.305  0.3328  0.8210  0.2382
  302MOL0     C40654   1.040   1.098   3.197 -0.1199 -1.0660  0.4451
  302MOL0     C40655   1.148   1.204   3.191 -0.0369 -0.6773 -1.0007
  302MOL0     C40656   1.281   1.136   3.206 -0.1604  0.1031 -0.1177
  302MOL0     C40657   1.339   1.065   3.082 -0.1872  0.7140  0.3473
  302MOL0     C40658   1.404   1.160   2.981 -0.6225  0.5111 -0.8208
  302MOL0     O40659   1.423   1.098   2.857 -0.8711  0.2535  0.6309
  302MOL0     C40660   1.376   1.174   2.754 -0.8372 -0.7533  0.1155
  302MOL0     C40661   1.247   1.206   2.745 -0.1578  0.2149  0.1025
  302MOL0     C40662   1.205   1.275   2.630  0.1765 -0.2102  0.1858
  302MOL0     C40663   1.293   1.337   2.545  0.0593  0.0450  0.6092
  302MOL0     C40664   1.255   1.435   2.437 -0.9917 -0.7188 -1.0281
  302MOL0     O40665   1.345   1.472   2.352  0.2110 -0.3227  1.1049
  302MOL0     C40666   1.325   1.523   2.228 -0.2574  0.3996  1.1575
  302MOL0     C40667   1.434   1.597   2.177 -0.2112 -1.1484  0.4566
  302MOL0     C40668   1.419   1.670   2.056  0.1081 -0.3172 -0.4788
  302MOL0     C40669   1.308   1.646   1.973  0.1156 -0.1399  0.2793
  302MOL0     O40670   1.292   1.697   1.841 -0.4628 -0.0424 -0.3400
  302MOL0     C40671   1.311   1.844   1.820 -0.3350  0.1302  1.7088
  302MOL0     C40672   1.177   1.920   1.851  0.0274  0.0557  0.7157
  302MOL0     C40673   1.205   2.065   1.853 -0.6176 -0.6834 -0.8447
  302MOL0     C40674   1.079   2.137   1.906 -0.9337 -0.0134  0.0693
  302MOL0     C40675   1.112   2.289   1.938  0.7663 -0.4253  1.0411
  302MOL0     C40676   1.170   2.373   1.816  0.0068  0.6445  0.4766
  302MOL0     C40677   1.127   2.522   1.823  0.2636  0.0795  0.5369
  302MOL0     C40678   1.182   2.602   1.944  0.4560  0.5709 -0.7795
  302MOL0    Cl40679   1.359   2.584   1.963  0.4814  0.0996 -0.4652
  302MOL0     C40680   1.205   1.577   2.035 -0.3638 -0.1937  0.0380
  302MOL0     C40681   1.213   1.513   2.154 -0.4936 -0.0228  0.4679
  302MOL0     O40682   1.145   1.488   2.438  0.4495 -0.2741  0.8282
  302MOL0     C40683   1.429   1.295   2.555 -0.3689  0.5982 -0.4335
  302MOL0     C40684   1.470   1.201   2.656 -0.3558  0.1066 -0.0466
  302MOL0     N40685   0.955   1.076   3.083 -0.0739  0.0412 -0.8917
  302MOL0     N40686   0.857   1.008   3.127 -0.0561 -0.4907  0.4887
  302MOL0     C40687   1.030   0.597   4.121  0.5101 -0.1939 -0.3191
  302MOL0     C40688   1.149   0.531   4.167  0.3906 -0.1763  0.7174
  302MOL0     C40689   1.581   0.476   4.356  0.7366 -1.2299 -0.9916
  302MOL0     C40690   1.548   0.343   4.348 -0.3695 -0.3783  0.5292
  302MOL0     C40691   1.625   0.245   4.404 -0.0575  1.0697  0.6273
  302MOL0     C40692   1.742   0.276   4.463 -0.1614  0.7132 -0.4169
  302MOL0     O40693   1.803   0.170   4.520  0.0599 -0.0585  0.1971
  302MOL0     C40694   1.939   0.200   4.565  0.3009  0.0071 -0.2653
  302MOL0     C40695   1.935   0.249   4.710 -0.5307  0.5646  0.1293
  302MOL0     C40696   2.082   0.232   4.761  0.8308 -0.1607  0.3959
  302MOL0     C40697   2.175   0.316   4.676  0.7481  0.2517 -0.2088
  302MOL0     C40698   2.139   0.456   4.666 -0.3199 -0.4265 -0.4865
  302MOL0     C40699   2.121   0.567   4.634 -0.3403 -0.4829 -0.4646
  302MOL0     C40700   1.780   0.410   4.467 -0.3529 -0.3474  0.3191
  302MOL0     C40701   1.703   0.511   4.407  0.0096 -0.0363 -0.4515
  302MOL0     C40702   1.763   0.644   4.419  0.0681 -0.5557  0.3309
  302MOL0     H40703   1.274   0.792   4.351 -1.4598  0.9743  0.7390
  302MOL0     H40704   1.074   0.901   4.262  0.6679 -0.0898  0.0949
  302MOL0     H40705   0.864   0.944   4.181  2.6235 -1.4373  0.9293
  302MOL0     H40706   0.975   0.974   4.052 -0.6155 -0.8023 -2.2144
  302MOL0     H40707   0.743   1.067   4.015  0.0556  0.5179 -0.7084
  302MOL0     H40708   0.672   0.906   4.037  0.6545 -0.6199  0.8257
  302MOL0     H40709   0.879   0.955   3.826  1.2601 -0.9362 -0.1733
  302MOL0     H40710   0.714   1.006   3.789 -0.7144  0.8167  0.3159
  302MOL0     H40711   0.790   0.718   3.835 -0.9909  0.6216  1.6959
  302MOL0     H40712   0.627   0.784   3.836 -1.0401  1.2844 -0.8904
  302MOL0     H40713   0.717   0.694   3.610  0.5889 -1.0225 -0.6752
  302MOL0     H40714   0.644   0.856   3.600 -0.3775 -2.1719  1.5480
  302MOL0     H40715   0.897   0.940   3.581 -1.5835 -0.2216  0.1315
  302MOL0     H40716   0.940   0.772   3.615 -0.1365  0.1938  1.0046
  302MOL0     H40717   0.811   0.707   3.421  2.4538 -1.1406  1.2072
  302MOL0     H40718   0.959   0.803   3.390  0.3283  0.8677 -1.0707
  302MOL0     H40719   0.718   0.833   3.273  1.5980  0.8049 -1.9399
  302MOL0     H40720   0.711   0.977   3.385 -2.6861 -1.7236  0.4169
  302MOL0     H40721   1.019   1.034   3.408  0.4427 -0.9624  0.2367
  302MOL0     H40722   1.139   1.249   3.092  1.0673 -0.2971 -0.9433
  302MOL0     H40723   1.134   1.277   3.272 -3.6761  1.7641 -3.5323
  302MOL0     H40724   1.352   1.215   3.230 -1.0292  1.0839 -0.7277
  302MOL0     H40725   1.278   1.070   3.294 -1.9198 -1.7873 -1.4977
  302MOL0     H40726   1.254   1.020   3.031 -0.8559  1.8111  0.4661
  302MOL0     H40727   1.417   0.995   3.113  1.5575  1.2351 -2.5519
  302MOL0     H40728   1.505   1.180   3.017 -1.3059  2.4574  0.1824
  302MOL0     H40729   1.352   1.256   2.970 -0.4184  0.5410 -1.6156
  302MOL0     H40730   1.183   1.142   2.805 -0.7100  0.2567 -0.4267
  302MOL0     H40731   1.101   1.296   2.607 -0.2311 -1.3056  0.9597
  302MOL0     H40732   1.517   1.599   2.246 -0.4670  1.9851  0.8252
  302MOL0     H40733   1.505   1.730   2.026 -0.4906 -1.0924 -4.3014
  302MOL0     H40734   1.391   1.890   1.878 -1.3250  2.3060  1.4641
  302MOL0     H40735   1.328   1.858   1.712 -0.7849 -1.8870  1.3259
  302MOL0     H40736   1.103   1.887   1.777 -0.4716 -3.4858  2.6116
  302MOL0     H40737   1.146   1.889   1.951  1.9205 -2.8692  0.5102
  302MOL0     H40738   1.296   2.099   1.903 -2.5386  2.2973  1.0066
  302MOL0     H40739   1.221   2.103   1.752 -1.1693  1.7642 -0.0812
  302MOL0     H40740   1.037   2.091   1.995  1.1612  1.2850  1.8372
  302MOL0     H40741   1.008   2.147   1.823  0.9256  0.5566 -1.5351
  302MOL0     H40742   1.187   2.300   2.016  0.0280  0.0867  1.6946
  302MOL0     H40743   1.023   2.342   1.974 -0.6633  0.6536 -3.3914
  302MOL0     H40744   1.279   2.370   1.803 -0.1966  0.8993 -1.7062
  302MOL0     H40745   1.127   2.332   1.724  1.0754  2.5814 -0.9634
  302MOL0     H40746   1.018   2.531   1.820  0.4200  3.6284 -2.7716
  302MOL0     H40747   1.164   2.570   1.732  1.1547  1.5224  1.6194
  302MOL0     H40748   1.171   2.711   1.935  0.3201  0.5770 -0.5359
  302MOL0     H40749   1.126   2.570   2.032  0.5203  0.9539 -0.5971
  302MOL0     H40750   1.121   1.567   1.967  0.4569  1.3853 -1.2855
  302MOL0     H40751   1.119   1.473   2.191 -1.9513  2.1737 -0.6367
  302MOL0     H40752   1.511   1.333   2.494  3.2037  0.4453  3.7831
  302MOL0     H40753   1.571   1.164   2.673 -0.0215  1.2850  0.6502
  302MOL0     H40754   0.956   0.560   4.051 -0.3866 -0.2670  0.6539
  302MOL0     H40755   1.177   0.436   4.122  1.4406  1.3383 -2.0964
  302MOL0     H40756   1.459   0.311   4.295  0.1329  2.7426 -2.5674
  302MOL0     H40757   1.585   0.144   4.410 -0.0198  0.9528 -0.6535
  302MOL0     H40758   1.993   0.267   4.498 -2.0973  2.2414 -0.1353
  302MOL0     H40759   1.987   0.102   4.562  0.6884  0.2265 -1.6797
  302MOL0     H40760   1.877   0.170   4.759 -1.0732  0.6147 -0.4285
  302MOL0     H40761   1.901   0.350   4.735  1.5195  1.8768 -2.0001
  302MOL0     H40762   2.111   0.126   4.759  0.0426 -0.3643 -1.4568
  302MOL0     H40763   2.086   0.255   4.868  1.8482  1.0112  0.1360
  302MOL0     H40764   2.273   0.300   4.724  1.0966  0.3322 -0.8865
  302MOL0     H40765   2.185   0.268   4.579  0.2136  1.9316 -1.1363
  302MOL0     H40766   2.114   0.663   4.587  0.9162  0.4451  1.1460
  302MOL0     H40767   1.862   0.440   4.531 -0.4195 -2.1424  1.3015
  302MOL0     H40768   1.872   0.654   4.418  0.1245 -0.1609 -2.9995
  302MOL0     H40769   1.736   0.709   4.335  0.6277  2.9120  2.6011
  302MOL0     H40770   1.709   0.704   4.493 -1.2708  1.5903 -2.2115
  303MOL0     O40771   6.239  11.114   9.385 -0.0423 -1.0981 -0.0339
  303MOL0     C40772   6.347  11.096   9.437  0.3653  0.8520 -0.1729
  303MOL0     O40773   6.431  10.990   9.403  0.3785  0.0846 -0.7696
  303MOL0     C40774   6.382  10.892   9.313 -0.4526 -0.3789  0.0096
  303MOL0     C40775   6.247  10.848   9.287 -0.8187 -0.6871  0.7595
  303MOL0     C40776   6.216  10.741   9.200  1.1042  0.4213 -0.2919
  303MOL0     C40777   6.323  10.664   9.143  0.6414 -0.5812  0.5816
  303MOL0     O40778   6.287  10.550   9.081 -0.3450 -0.3035  0.0573
  303MOL0     C40779   6.355  10.436   9.140  1.3022 -0.6183 -0.8400
  303MOL0     C40780   6.278  10.307   9.099  0.5711 -0.9266 -0.9991
  303MOL0     C40781   6.355  10.188   9.155  0.2478 -0.0360 -0.2283
  303MOL0     C40782   6.362  10.189   9.308 -0.2712  0.0358 -0.7607
  303MOL0     C40783   6.374  10.049   9.375 -0.3371  0.5062 -0.0272
  303MOL0     C40784   6.374  10.063   9.526 -0.0298 -0.6337 -0.8392
  303MOL0     C40785   6.526  10.072   9.562  0.1686 -0.0463  0.0029
  303MOL0     C40786   6.546  10.059   9.713 -0.5862  0.6454 -0.6213
  303MOL0     N40787   6.680  10.031   9.752 -0.4684 -0.2189 -0.0271
  303MOL0     C40788   6.758   9.926   9.711 -0.1845 -0.6851  0.1909
  303MOL0     C40789   6.885   9.954   9.767 -0.7461 -0.0109 -0.3450
  303MOL0     C40790   7.010   9.869   9.756  0.4485 -0.0985 -0.6352
  303MOL0     C40791   6.975   9.728   9.808  0.2759 -0.1732  0.6733
  303MOL0     C40792   7.089   9.629   9.833  0.0779  1.3440  0.2573
  303MOL0     C40793   7.168   9.659   9.964 -0.5721 -0.0301 -1.2434
  303MOL0     O40794   7.294   9.581   9.971 -0.2801 -1.0590  0.2663
  303MOL0     C40795   7.410   9.660   9.962  0.4857 -0.1439  0.2605
  303MOL0     C40796   7.442   9.782  10.029 -0.1662 -0.1126 -0.0621
  303MOL0     C40797   7.557   9.850   9.988 -0.0676  0.4342  0.6100
  303MOL0     C40798   7.655   9.803   9.891 -1.3114  0.6030 -0.4309
  303MOL0     C40799   7.772   9.883   9.860 -0.5866 -1.1090  0.3755
  303MOL0     O40800   7.780  10.002   9.929 -0.2767  0.0028  0.4366
  303MOL0     C40801   7.891  10.091   9.922  0.4663  0.8082 -0.7163
  303MOL0     C40802   8.024  10.061   9.884  0.3202  0.3815  0.8523
  303MOL0     C40803   8.108  10.171   9.871 -0.0183  0.3077 -0.1153
  303MOL0     C40804   8.077  10.299   9.909  0.3516 -0.9135  0.3797
  303MOL0     O40805   8.175  10.395   9.906  0.2869  0.3984 -0.2821
  303MOL0     C40806   8.142  10.534   9.880  0.1927  0.7494  0.7402
  303MOL0     C40807   8.262  10.593   9.804  0.4422  1.5847 -0.1695
  303MOL0     C40808   8.252  10.741   9.783 -1.0426  0.2821 -0.6015
  303MOL0     C40809   8.215  10.822   9.903  0.1959 -0.3321 -1.0853
  303MOL0     C40810   8.227  10.974   9.886 -0.3703  0.8008  0.0041
  303MOL0     C40811   8.225  11.054  10.023 -0.9767 -0.2444 -0.5945
  303MOL0     C40812   8.094  11.054  10.100  0.6315  0.3074 -0.1013
  303MOL0     C40813   8.088  11.174  10.205 -0.2646  0.1872  0.7936
  303MOL0    Cl40814   8.186  11.144  10.350  0.5960 -0.4551 -0.4209
  303MOL0     C40815   7.953  10.325   9.947  0.0827 -0.0557  0.2490
  303MOL0     C40816   7.860  10.219   9.956 -0.5298 -0.3151 -0.5260
  303MOL0     O40817   7.848   9.854   9.774 -1.1722  0.6916  0.0106
  303MOL0     C40818   7.625   9.680   9.835  0.5095  0.2652  0.9185
  303MOL0     C40819   7.501   9.614   9.869 -0.4079  0.3821  0.7369
  303MOL0     N40820   6.880  10.077   9.829 -1.2976  0.0738 -0.1253
  303MOL0     N40821   6.764  10.114   9.818  0.0628  0.0939 -0.0128
  303MOL0     C40822   6.452  10.719   9.159 -0.0687  0.3783  0.0086
  303MOL0     C40823   6.483  10.828   9.241  0.4784  0.6080  0.2906
  303MOL0     C40824   6.385  11.185   9.552 -0.1776 -0.5414 -0.2802
  303MOL0     C40825   6.489  11.152   9.633 -0.0903 -0.3472  0.1430
  303MOL0     C40826   6.517  11.224   9.755  0.4856 -0.4118  0.0953
  303MOL0     C40827   6.449  11.336   9.795  0.9616  0.7512  0.8142
  303MOL0     O40828   6.480  11.379   9.920  0.3092 -0.0440 -0.1390
  303MOL0     C40829   6.392  11.461   9.997  0.8942  0.1071 -0.8106
  303MOL0     C40830   6.291  11.384  10.074 -0.5620  0.5913  0.1665
  303MOL0     C40831   6.191  11.467  10.143 -0.1758  0.6669  0.2463
  303MOL0     C40832   6.232  11.514  10.280 -0.3027 -0.8492  0.3634
  303MOL0     C40833   6.244  11.416  10.393 -0.3522  0.2363 -0.0280
  303MOL0     C40834   6.259  11.351  10.497  0.3004  0.8192 -0.2335
  303MOL0     C40835   6.331  11.363   9.715  0.2368  0.6885  0.6332
  303MOL0     C40836   6.299  11.294   9.595 -0.0040 -0.5356  0.7273
  303MOL0     C40837   6.166  11.332   9.527  0.0496 -0.5103 -0.1510
  303MOL0     H40838   6.159  10.897   9.327 -2.4461 -0.7157 -2.3863
  303MOL0     H40839   6.118  10.697   9.183  1.5289 -1.3016  1.3783
  303MOL0     H40840   6.450  10.432   9.087  3.0275  2.2154  1.7075
  303MOL0     H40841   6.365  10.446   9.248 -0.1648 -1.9020 -0.5502
  303MOL0     H40842   6.286  10.300   8.990  0.7945  0.1634 -1.0672
  303MOL0     H40843   6.170  10.313   9.114  0.9076  0.6556  1.2169
  303MOL0     H40844   6.453  10.192   9.107  0.6679  1.1109  0.6732
  303MOL0     H40845   6.317  10.090   9.126  0.8864 -0.2536 -0.3360
  303MOL0     H40846   6.443  10.251   9.348 -0.2582 -1.0226  0.9184
  303MOL0     H40847   6.273  10.241   9.345  0.2451 -0.8931  2.0411
  303MOL0     H40848   6.296   9.975   9.354  0.4023 -0.4560  0.5244
  303MOL0     H40849   6.461   9.997   9.334  0.9514 -0.4744  3.6095
  303MOL0     H40850   6.324  10.152   9.566  0.8320 -1.3603  2.0816
  303MOL0     H40851   6.340   9.969   9.569  0.6719 -0.5922 -0.1705
  303MOL0     H40852   6.566  10.171   9.540  3.6686 -1.3512 -0.0264
  303MOL0     H40853   6.589  10.005   9.503  2.6488  1.0695  1.2279
  303MOL0     H40854   6.506  10.143   9.769 -1.6964 -0.5940  0.5310
  303MOL0     H40855   6.489   9.969   9.738 -3.0814  2.0636 -0.8854
  303MOL0     H40856   6.723   9.846   9.647  2.2795 -1.7168  0.0059
  303MOL0     H40857   7.030   9.858   9.649 -0.6590 -1.4891 -0.7360
  303MOL0     H40858   7.095   9.918   9.804  0.5873 -0.9268  0.0067
  303MOL0     H40859   6.918   9.752   9.898  4.8151  3.1421  3.0368
  303MOL0     H40860   6.912   9.698   9.723  0.9915  4.2043 -1.7125
  303MOL0     H40861   7.154   9.622   9.745  2.3055 -5.3334  1.8579
  303MOL0     H40862   7.053   9.526   9.834 -0.4689  1.4838 -1.4371
  303MOL0     H40863   7.110   9.649  10.056  0.2477  3.0134 -0.2621
  303MOL0     H40864   7.198   9.764   9.952 -0.5395  0.1009 -0.1317
  303MOL0     H40865   7.385   9.818  10.115  1.5718  1.7654  0.3973
  303MOL0     H40866   7.564   9.949  10.032  0.3502  0.0214  1.4990
  303MOL0     H40867   8.070   9.972   9.842  1.6962  1.3233  0.3134
  303MOL0     H40868   8.211  10.160   9.839 -0.2545  2.3547 -1.7753
  303MOL0     H40869   8.054  10.556   9.820  1.2231  2.1063 -0.3468
  303MOL0     H40870   8.136  10.584   9.977  0.5659  1.1721  0.5485
  303MOL0     H40871   8.350  10.569   9.863 -0.0939 -1.1253 -0.3158
  303MOL0     H40872   8.267  10.533   9.712  0.3090  0.3749  0.5821
  303MOL0     H40873   8.354  10.770   9.756 -0.3022  0.4754  2.0664
  303MOL0     H40874   8.183  10.756   9.700 -1.0962  2.2541 -0.2514
  303MOL0     H40875   8.283  10.800   9.986  3.7269  0.9254 -3.4109
  303MOL0     H40876   8.115  10.791   9.935  0.3363  0.7055  0.4665
  303MOL0     H40877   8.148  11.009   9.819 -3.2043  0.3283  2.8244
  303MOL0     H40878   8.322  11.004   9.843 -0.9135 -0.3853 -2.1538
  303MOL0     H40879   8.310  11.009  10.074 -1.1807 -1.8880 -1.6428
  303MOL0     H40880   8.250  11.158   9.999 -0.0026 -0.9093 -2.6804
  303MOL0     H40881   8.089  10.961  10.158  0.6858 -0.8652 -1.8911
  303MOL0     H40882   8.000  11.061  10.045 -0.3166  0.0366  1.4080
  303MOL0     H40883   8.133  11.261  10.157 -1.3883 -1.0708 -2.8793
  303MOL0     H40884   7.983  11.188  10.233 -0.7126 -2.0710  0.5054
  303MOL0     H40885   7.923  10.427   9.969 -1.2823 -0.0902 -1.1807
  303MOL0     H40886   7.758  10.239   9.987  0.1175 -1.1413  2.4503
  303MOL0     H40887   7.690   9.632   9.761 -0.6412  0.4897 -0.2742
  303MOL0     H40888   7.483   9.514   9.831 -2.0432  0.6624  0.7282
  303MOL0     H40889   6.527  10.656   9.113 -0.5350  0.8807 -1.5326
  303MOL0     H40890   6.585  10.849   9.272 -1.1378  2.6053  5.2709
  303MOL0     H40891   6.543  11.061   9.612  0.8192  0.3005 -0.3704
  303MOL0     H40892   6.594  11.175   9.813 -0.5821 -0.2100  1.7669
  303MOL0     H40893   6.348  11.543   9.939  0.6670  0.7169  0.2070
  303MOL0     H40894   6.467  11.502  10.065  0.8582 -1.4025  0.1954
  303MOL0     H40895   6.333  11.319  10.151 -4.7328 -0.9384  1.4172
  303MOL0     H40896   6.241  11.314  10.006  3.7505 -2.7246  0.0103
  303MOL0     H40897   6.107  11.396  10.142 -0.5805  1.1377 -0.7138
  303MOL0     H40898   6.155  11.555  10.087 -4.5653  0.1977  1.8818
  303MOL0     H40899   6.338  11.540  10.273 -0.0316 -2.2798 -1.2479
  303MOL0     H40900   6.164  11.595  10.311 -0.5477 -1.7712  2.3806
  303MOL0     H40901   6.277  11.302  10.591  1.8516  0.1415 -0.8607
  303MOL0     H40902   6.254  11.430   9.751 -1.8560 -1.1890 -0.1310
  303MOL0     H40903   6.190  11.360   9.424  5.7037 -1.5698  0.5545
  303MOL0     H40904   6.094  11.250   9.532  0.0289 -0.4768  0.1316
  303MOL0     H40905   6.121  11.409   9.589  0.0721 -0.8198  0.2614
  304MOL0     O40906   2.142   0.931   5.071  0.1398  0.3320 -0.2254
  304MOL0     C40907   2.242   0.962   5.137 -0.6529 -0.2490  0.1821
  304MOL0     O40908   2.333   0.874   5.192  0.1823 -0.7088 -0.1746
  304MOL0     C40909   2.341   0.742   5.149  0.2138 -0.4196 -0.2883
  304MOL0     C40910   2.234   0.667   5.102  0.5054 -0.2679  0.4950
  304MOL0     C40911   2.242   0.535   5.062  0.4001  0.5693 -0.6326
  304MOL0     C40912   2.361   0.465   5.086 -0.0038 -0.2767 -0.1646
  304MOL0     O40913   2.356   0.335   5.055  0.1604  0.1611 -0.4805
  304MOL0     C40914   2.368   0.258   5.178 -0.3761 -1.3490  0.4178
  304MOL0     C40915   2.387   0.112   5.149  0.3003  0.0714 -0.1934
  304MOL0     C40916   2.262   0.048   5.083  0.6251  0.7247 -0.8321
  304MOL0     C40917   2.282  -0.109   5.052 -0.0431 -0.6454 -0.2198
  304MOL0     C40918   2.178  -0.159   4.949  0.2614  0.1840  0.5158
  304MOL0     C40919   2.023  -0.140   4.967 -1.0297  0.5704 -1.1815
  304MOL0     C40920   1.973  -0.195   5.108 -0.3844 -0.7015  0.5456
  304MOL0     C40921   1.960  -0.347   5.105  0.4984 -1.0876  0.2704
  304MOL0     N40922   1.834  -0.382   5.031  0.0860 -0.2849 -0.4013
  304MOL0     C40923   1.720  -0.441   5.092  0.5914 -0.4123  0.0162
  304MOL0     C40924   1.632  -0.486   4.995 -0.1102 -0.4871  0.4393
  304MOL0     C40925   1.492  -0.547   5.037 -0.9096  0.4651 -0.4315
  304MOL0     C40926   1.468  -0.689   4.999 -0.5506  0.6566  0.9646
  304MOL0     C40927   1.510  -0.796   5.093 -0.2342 -0.1783 -0.3886
  304MOL0     C40928   1.650  -0.766   5.150  0.4175  1.7267  0.1226
  304MOL0     O40929   1.689  -0.883   5.225 -0.5597 -0.5632 -0.0478
  304MOL0     C40930   1.789  -0.888   5.314  0.4745 -0.2852 -0.3555
  304MOL0     C40931   1.899  -0.802   5.321 -0.2187 -0.4292 -0.8527
  304MOL0     C40932   1.993  -0.822   5.429 -0.2927  0.4962 -0.5374
  304MOL0     C40933   1.985  -0.929   5.519 -0.0724 -0.5887  0.1484
  304MOL0     C40934   2.083  -0.943   5.628  0.0483  0.5584  0.9311
  304MOL0     O40935   2.103  -1.067   5.673 -0.4335  0.0980 -0.0881
  304MOL0     C40936   2.197  -1.099   5.769 -0.7368 -0.0422 -1.1101
  304MOL0     C40937   2.184  -1.058   5.902  0.3801 -0.9987 -0.1061
  304MOL0     C40938   2.278  -1.081   5.997 -0.1001 -0.4677 -0.8326
  304MOL0     C40939   2.383  -1.171   5.964  0.2321  0.7957  1.0293
  304MOL0     O40940   2.461  -1.199   6.070  0.0887 -0.3912  0.5778
  304MOL0     C40941   2.538  -1.320   6.074 -0.1833 -0.0320 -0.1093
  304MOL0     C40942   2.653  -1.308   6.175  0.2618  0.3252  0.1027
  304MOL0     C40943   2.704  -1.459   6.206  0.0209  0.7398  0.2565
  304MOL0     C40944   2.745  -1.540   6.075  0.4455  0.3497  0.1772
  304MOL0     C40945   2.802  -1.686   6.119 -0.1649 -1.0121 -0.6215
  304MOL0     C40946   2.849  -1.768   5.998 -0.6090  0.1946 -0.5216
  304MOL0     C40947   2.928  -1.894   6.039 -0.0264 -0.0357 -0.1796
  304MOL0     C40948   2.950  -1.983   5.916  0.1363 -0.1454 -0.2741
  304MOL0    Cl40949   2.814  -2.065   5.866  0.5105  0.1538  0.1313
  304MOL0     C40950   2.392  -1.224   5.838  0.9039 -0.8383  0.1620
  304MOL0     C40951   2.304  -1.184   5.740 -0.1909 -0.0555 -0.3781
  304MOL0     O40952   2.135  -0.835   5.659 -0.2033  0.3109  0.7393
  304MOL0     C40953   1.883  -1.020   5.494 -0.6118 -0.1922  0.5361
  304MOL0     C40954   1.786  -1.004   5.392  0.7170 -0.1400 -0.3332
  304MOL0     N40955   1.688  -0.450   4.873  0.7006 -0.1990  0.4511
  304MOL0     N40956   1.813  -0.411   4.896  0.0160 -0.1537 -0.1470
  304MOL0     C40957   2.473   0.535   5.144 -0.0831 -1.2964 -0.0511
  304MOL0     C40958   2.462   0.679   5.166  0.0074  0.3876 -0.1308
  304MOL0     C40959   2.277   1.100   5.153  0.2284  0.2632 -0.3989
  304MOL0     C40960   2.395   1.152   5.103 -0.0575  0.0507  0.4654
  304MOL0     C40961   2.429   1.290   5.102  0.3296 -0.1196 -0.5076
  304MOL0     C40962   2.339   1.372   5.171 -0.9230  0.2964 -0.5177
  304MOL0     O40963   2.345   1.504   5.212  0.6435  0.4975  0.0881
  304MOL0     C40964   2.473   1.564   5.218  0.3474  0.3866  0.1199
  304MOL0     C40965   2.566   1.478   5.303  0.2012 -0.4889 -0.5742
  304MOL0     C40966   2.672   1.554   5.383  0.6845  0.4477  0.6508
  304MOL0     C40967   2.794   1.612   5.304  0.0465  0.1561 -0.3184
  304MOL0     C40968   2.762   1.720   5.210 -0.0673  0.4525  0.5365
  304MOL0     C40969   2.732   1.809   5.142  0.6464 -0.6681 -0.1113
  304MOL0     C40970   2.218   1.325   5.204 -0.0724  0.1531  0.0778
  304MOL0     C40971   2.180   1.195   5.206  0.0359 -0.3031 -0.3559
  304MOL0     C40972   2.040   1.145   5.246  0.2503  0.5629 -0.7941
  304MOL0     H40973   2.138   0.713   5.082 -0.6050 -2.4927  0.4501
  304MOL0     H40974   2.146   0.501   5.027 -0.9417  1.4401  1.9292
  304MOL0     H40975   2.456   0.289   5.235  1.2784 -0.2119 -2.5475
  304MOL0     H40976   2.279   0.268   5.241 -1.3818 -2.5803 -0.7443
  304MOL0     H40977   2.398   0.071   5.250  1.2095  0.7920  0.0126
  304MOL0     H40978   2.480   0.091   5.096 -0.8015 -1.2474 -1.7135
  304MOL0     H40979   2.240   0.105   4.992 -0.4191  1.0951 -0.3635
  304MOL0     H40980   2.175   0.061   5.148 -0.5524  1.4896 -2.4991
  304MOL0     H40981   2.382  -0.118   5.010  0.3202  1.5890  0.0159
  304MOL0     H40982   2.286  -0.171   5.142 -0.3805  0.4453  0.5767
  304MOL0     H40983   2.199  -0.096   4.861 -0.9458 -0.4498 -0.2561
  304MOL0     H40984   2.211  -0.261   4.927  2.3670  1.2521 -1.8621
  304MOL0     H40985   2.000  -0.034   4.951  2.1401  1.3090 -1.6234
  304MOL0     H40986   1.966  -0.198   4.894  1.5394 -0.4281 -2.5272
  304MOL0     H40987   1.882  -0.140   5.131 -0.9584 -1.6314  0.5219
  304MOL0     H40988   2.051  -0.170   5.181 -0.6587 -1.5874  1.1601
  304MOL0     H40989   2.055  -0.378   5.061  1.0678  1.2857 -0.3613
  304MOL0     H40990   1.954  -0.389   5.205 -0.7209 -1.5800  0.0137
  304MOL0     H40991   1.701  -0.442   5.199 -1.3088 -0.8137 -0.2832
  304MOL0     H40992   1.458  -0.527   5.139 -0.0676  0.2857 -0.1054
  304MOL0     H40993   1.429  -0.482   4.976 -0.4011  2.3300  0.9404
  304MOL0     H40994   1.360  -0.702   4.989 -0.3639  0.5569 -1.4954
  304MOL0     H40995   1.511  -0.714   4.901 -0.5793  2.4298  0.4675
  304MOL0     H40996   1.504  -0.894   5.045  2.9984 -0.1491 -1.1081
  304MOL0     H40997   1.427  -0.788   5.163  0.1335  4.8272 -0.1136
  304MOL0     H40998   1.644  -0.685   5.223  0.3142 -1.5948  4.2431
  304MOL0     H40999   1.722  -0.761   5.068  1.0304  0.4689  0.5613
  304MOL0     H41000   1.900  -0.707   5.269  2.5484  1.6026  2.4986
  304MOL0     H41001   2.067  -0.746   5.446 -2.1148  2.5078 -1.1340
  304MOL0     H41002   2.105  -0.988   5.924  0.7450 -0.8067  0.6386
  304MOL0     H41003   2.264  -1.059   6.102 -1.8048 -1.6466 -0.7802
  304MOL0     H41004   2.477  -1.406   6.103  1.0362 -1.2430 -1.0274
  304MOL0     H41005   2.573  -1.346   5.973  1.0627  2.5853 -0.4284
  304MOL0     H41006   2.744  -1.257   6.143 -1.6505  3.2506 -1.0951
  304MOL0     H41007   2.619  -1.262   6.268 -1.4856  1.2818 -0.9435
  304MOL0     H41008   2.791  -1.455   6.272  3.5346  1.8570 -4.0198
  304MOL0     H41009   2.618  -1.511   6.250 -0.4113  1.1472 -0.0876
  304MOL0     H41010   2.823  -1.482   6.025  1.4515  0.2016  1.5081
  304MOL0     H41011   2.659  -1.560   6.011 -0.3882 -1.0274  1.6647
  304MOL0     H41012   2.722  -1.732   6.177 -0.3889  0.0317 -0.0708
  304MOL0     H41013   2.889  -1.678   6.185 -1.2420 -3.4133  1.2314
  304MOL0     H41014   2.763  -1.790   5.934 -0.3445  0.6699 -1.0615
  304MOL0     H41015   2.920  -1.711   5.936  1.5865 -2.7143 -0.8988
  304MOL0     H41016   2.882  -1.955   6.117 -2.0596 -2.1695 -2.8408
  304MOL0     H41017   3.022  -1.859   6.083 -1.1782  2.2941  0.5998
  304MOL0     H41018   2.992  -1.920   5.837  1.4674 -1.3041 -0.5292
  304MOL0     H41019   3.029  -2.059   5.923 -1.7554 -2.4286 -2.0875
  304MOL0     H41020   2.464  -1.298   5.807  2.3455  0.7590 -0.4312
  304MOL0     H41021   2.298  -1.226   5.640 -0.7873  0.8816 -0.7569
  304MOL0     H41022   1.885  -1.105   5.561  0.1146 -0.3648  0.3042
  304MOL0     H41023   1.721  -1.088   5.372  2.6150 -2.7945  3.3950
  304MOL0     H41024   2.569   0.487   5.164  0.2980 -1.1541 -1.4547
  304MOL0     H41025   2.541   0.736   5.214  1.3429 -2.5479  1.3745
  304MOL0     H41026   2.470   1.087   5.059  1.6720  1.2757  1.4769
  304MOL0     H41027   2.512   1.340   5.053 -0.9831  4.1643  1.1873
  304MOL0     H41028   2.466   1.667   5.255  1.5363  0.6879 -0.4156
  304MOL0     H41029   2.514   1.572   5.116 -1.8216  0.2290 -0.8143
  304MOL0     H41030   2.606   1.392   5.249 -1.0729 -0.3271 -1.8478
  304MOL0     H41031   2.501   1.445   5.384  4.4831  0.2535  3.5844
  304MOL0     H41032   2.722   1.486   5.453 -0.0263 -0.1345  0.5993
  304MOL0     H41033   2.622   1.634   5.439 -0.3114  1.0695 -1.0741
  304MOL0     H41034   2.867   1.664   5.366 -0.9012  1.7368 -0.4635
  304MOL0     H41035   2.849   1.531   5.255  0.5579 -0.5095  1.3003
  304MOL0     H41036   2.720   1.897   5.081  0.6494 -0.3708  0.3180
  304MOL0     H41037   2.135   1.391   5.228 -0.4861 -0.5877  0.7341
  304MOL0     H41038   2.053   1.065   5.319 -0.4361  0.2301 -1.0375
  304MOL0     H41039   1.990   1.229   5.295  0.3373  0.7486 -1.0191
  304MOL0     H41040   1.999   1.103   5.154  0.2573  1.2460 -1.1110
  305MOL0     O41041   1.261  10.318  10.720  0.1054  0.0635  0.2599
  305MOL0     C41042   1.284  10.385  10.618  0.3921  0.8151 -0.1894
  305MOL0     O41043   1.322  10.527  10.609  1.0661 -0.2740  0.0040
  305MOL0     C41044   1.316  10.595  10.724 -1.1719  0.3714  0.6119
  305MOL0     C41045   1.415  10.695  10.730  0.1894  0.5840  0.9496
  305MOL0     C41046   1.437  10.767  10.846  0.8887 -0.6880  0.3771
  305MOL0     C41047   1.347  10.763  10.951  0.6023  0.8813  0.1518
  305MOL0     O41048   1.365  10.857  11.049 -0.5527 -0.2294 -0.1166
  305MOL0     C41049   1.355  10.820  11.195 -0.0368 -0.1482  0.1021
  305MOL0     C41050   1.491  10.847  11.270  0.5203 -0.1317  0.2208
  305MOL0     C41051   1.534  10.994  11.245  0.3153 -0.2758  0.2521
  305MOL0     C41052   1.651  11.016  11.339 -0.5372 -0.3058  0.5741
  305MOL0     C41053   1.790  10.945  11.309 -0.7670  0.4822 -0.5487
  305MOL0     C41054   1.811  10.793  11.355  0.1833  0.6540  0.0168
  305MOL0     C41055   1.783  10.780  11.508  0.1586 -0.0967 -0.5482
  305MOL0     C41056   1.821  10.646  11.563  0.7074  0.6539  0.1551
  305MOL0     N41057   1.736  10.524  11.526 -0.6394  0.1706 -0.4157
  305MOL0     C41058   1.603  10.514  11.549  0.2137  0.5136 -0.2279
  305MOL0     C41059   1.568  10.391  11.502 -0.1419  0.7096  0.7304
  305MOL0     C41060   1.442  10.328  11.485  0.4875  0.3637  0.2870
  305MOL0     C41061   1.429  10.178  11.510  0.3659  0.8028 -0.1608
  305MOL0     C41062   1.336  10.119  11.395  0.5000 -0.5943 -0.3573
  305MOL0     C41063   1.263   9.993  11.441 -0.7456  0.5694  0.1070
  305MOL0     O41064   1.363   9.891  11.456 -0.5133 -0.1784  0.0734
  305MOL0     C41065   1.337   9.755  11.471  0.8591 -0.3773  0.6595
  305MOL0     C41066   1.217   9.690  11.515 -0.9131  0.2313  0.3024
  305MOL0     C41067   1.223   9.558  11.557  0.7374 -1.2849  0.4621
  305MOL0     C41068   1.335   9.475  11.564 -0.1704 -0.6009  0.0877
  305MOL0     C41069   1.339   9.349  11.635 -0.7291 -1.2647  0.0225
  305MOL0     O41070   1.455   9.316  11.713  0.7191 -0.7102  0.8559
  305MOL0     C41071   1.469   9.207  11.781 -0.2928  0.7191 -0.1507
  305MOL0     C41072   1.574   9.197  11.873 -0.2748 -0.4073  0.2725
  305MOL0     C41073   1.607   9.077  11.938 -0.9068  0.9145  0.3755
  305MOL0     C41074   1.536   8.960  11.915 -0.1514  0.7737  1.2976
  305MOL0     O41075   1.565   8.837  11.961  0.1137  0.2473  0.7289
  305MOL0     C41076   1.666   8.816  12.056 -0.4382 -0.6473 -0.7679
  305MOL0     C41077   1.647   8.676  12.100  0.2703 -0.2773  0.0073
  305MOL0     C41078   1.506   8.628  12.120 -0.7882  0.1201 -1.1051
  305MOL0     C41079   1.439   8.688  12.253 -0.2528  0.9023 -0.6771
  305MOL0     C41080   1.292   8.719  12.223  0.0789 -0.2181  0.4520
  305MOL0     C41081   1.260   8.846  12.143  0.0076 -0.0766  0.2285
  305MOL0     C41082   1.105   8.849  12.120  0.9402 -0.8127  0.9661
  305MOL0     C41083   1.060   8.975  12.039  0.2512 -0.8053  0.4524
  305MOL0    Cl41084   1.097   8.965  11.862  0.3700  0.0313 -0.1231
  305MOL0     C41085   1.418   8.972  11.834 -1.0827 -0.9920 -0.6788
  305MOL0     C41086   1.397   9.088  11.765  0.3325 -0.7145  0.4869
  305MOL0     O41087   1.239   9.286  11.622 -0.1551  0.5633 -0.0389
  305MOL0     C41088   1.462   9.545  11.534  0.3810 -0.0078  0.1372
  305MOL0     C41089   1.449   9.682  11.487  0.1196 -0.3566  0.3086
  305MOL0     N41090   1.679  10.334  11.450 -0.3727 -0.8966 -0.2025
  305MOL0     N41091   1.777  10.420  11.454 -0.3799 -0.5557  0.1780
  305MOL0     C41092   1.243  10.667  10.951  0.4640  0.1767 -0.8788
  305MOL0     C41093   1.228  10.586  10.832  0.3403  0.0567  0.1109
  305MOL0     C41094   1.294  10.315  10.485  0.1581  0.5380 -0.1311
  305MOL0     C41095   1.230  10.369  10.373 -0.6023 -0.1127  0.8651
  305MOL0     C41096   1.228  10.312  10.244 -0.6674 -0.7723  0.5495
  305MOL0     C41097   1.306  10.200  10.230 -0.1646 -0.0429 -0.0227
  305MOL0     O41098   1.305  10.124  10.116  0.6005 -0.0501  0.4963
  305MOL0     C41099   1.320  10.192   9.982  0.7335  0.4281  0.1026
  305MOL0     C41100   1.463  10.254   9.985  0.5245  0.2162 -0.1940
  305MOL0     C41101   1.574  10.151   9.999 -0.4314 -0.1153  1.6943
  305MOL0     C41102   1.596  10.070   9.865 -0.7027  0.2317  0.4475
  305MOL0     C41103   1.626  10.146   9.744 -0.1427  0.2983  0.1028
  305MOL0     C41104   1.655  10.213   9.643 -0.1546 -1.1357  0.8053
  305MOL0     C41105   1.387  10.152  10.335  0.3680 -0.4051  0.0236
  305MOL0     C41106   1.379  10.208  10.463 -0.8875 -0.2894 -0.0553
  305MOL0     C41107   1.478  10.166  10.574 -0.3760  1.0418 -0.0695
  305MOL0     H41108   1.476  10.718  10.643 -0.8933 -0.9886 -0.2775
  305MOL0     H41109   1.510  10.847  10.843  2.4681 -1.9960  2.2090
  305MOL0     H41110   1.274  10.869  11.250 -1.1226  0.6405 -2.0893
  305MOL0     H41111   1.345  10.712  11.210  2.1414 -0.1691  1.9111
  305MOL0     H41112   1.573  10.785  11.232  0.0299 -0.3599 -0.4884
  305MOL0     H41113   1.476  10.829  11.377 -1.8739  3.5823  0.6954
  305MOL0     H41114   1.459  11.073  11.256 -0.3479 -0.7914 -0.5020
  305MOL0     H41115   1.565  11.001  11.141  3.1098 -2.1701  0.8400
  305MOL0     H41116   1.661  11.123  11.355  3.0285 -0.6035  1.1454
  305MOL0     H41117   1.622  10.976  11.437 -0.3357  0.1140  0.8042
  305MOL0     H41118   1.817  10.951  11.203  3.7199 -0.9863  0.3199
  305MOL0     H41119   1.858  11.007  11.367  0.4093 -1.4278  0.2259
  305MOL0     H41120   1.750  10.723  11.297  2.0599 -3.6233  2.6664
  305MOL0     H41121   1.910  10.750  11.339 -1.0152 -2.3340 -0.0832
  305MOL0     H41122   1.679  10.804  11.531  0.2343 -0.0962 -0.1898
  305MOL0     H41123   1.841  10.854  11.565  1.1211 -0.4893 -1.0025
  305MOL0     H41124   1.924  10.622  11.537  0.6899  0.0346  0.6110
  305MOL0     H41125   1.819  10.662  11.671 -0.5579  3.8728 -0.2403
  305MOL0     H41126   1.536  10.576  11.608  1.4839  1.8509 -0.1103
  305MOL0     H41127   1.363  10.373  11.545 -1.6945 -3.4302  0.5265
  305MOL0     H41128   1.419  10.332  11.378 -1.1731 -3.3218  0.3741
  305MOL0     H41129   1.526  10.129  11.503  0.9103  2.0285 -1.5368
  305MOL0     H41130   1.379  10.158  11.606 -0.3803 -1.8503 -1.0201
  305MOL0     H41131   1.393  10.092  11.306 -0.5725 -2.1036 -0.6302
  305MOL0     H41132   1.259  10.179  11.346 -1.8714 -4.2122 -1.4320
  305MOL0     H41133   1.190   9.961  11.367  2.7123 -1.6791 -2.6670
  305MOL0     H41134   1.220  10.004  11.541 -1.6144  1.9931 -0.3930
  305MOL0     H41135   1.128   9.752  11.520 -2.5679 -2.0652  0.4961
  305MOL0     H41136   1.131   9.519  11.599  0.4248  1.0222  2.1137
  305MOL0     H41137   1.637   9.284  11.888 -0.1505 -0.5007  0.2936
  305MOL0     H41138   1.697   9.076  11.999  0.1735 -1.6225 -1.0929
  305MOL0     H41139   1.764   8.819  12.007 -0.6630  1.2488 -1.1701
  305MOL0     H41140   1.669   8.894  12.133 -0.9400  1.4405 -2.7720
  305MOL0     H41141   1.691   8.605  12.030  3.1650 -2.3372  3.5903
  305MOL0     H41142   1.703   8.668  12.193 -0.3767 -2.3470  0.2714
  305MOL0     H41143   1.440   8.652  12.037 -2.7174  2.3243  0.9264
  305MOL0     H41144   1.490   8.520  12.126  0.6756 -0.0517  1.4200
  305MOL0     H41145   1.487   8.783  12.278  0.5439  0.0762  1.1167
  305MOL0     H41146   1.467   8.620  12.335 -0.9107 -0.8650 -1.8592
  305MOL0     H41147   1.226   8.732  12.310 -4.0012  0.8786 -2.5211
  305MOL0     H41148   1.258   8.631  12.169  0.8991  0.4171 -1.1650
  305MOL0     H41149   1.288   8.934  12.201  2.8655 -1.4808  1.1552
  305MOL0     H41150   1.312   8.865  12.049  2.8071  0.8217  1.8497
  305MOL0     H41151   1.060   8.858  12.219 -1.2632 -2.0101  0.1467
  305MOL0     H41152   1.061   8.763  12.068  0.3103 -0.1237  0.3321
  305MOL0     H41153   0.955   8.998  12.061 -0.6252  0.8340 -4.3331
  305MOL0     H41154   1.128   9.056  12.065 -0.8225  0.4189 -0.4782
  305MOL0     H41155   1.356   8.885  11.812 -0.8750 -0.8873 -1.7240
  305MOL0     H41156   1.314   9.078  11.696  2.3440 -1.2805 -2.0044
  305MOL0     H41157   1.557   9.493  11.541 -0.0945 -0.8255  0.6481
  305MOL0     H41158   1.544   9.720  11.449  1.8614 -4.0062  0.5897
  305MOL0     H41159   1.162  10.669  11.022  2.1007  1.8693  1.0831
  305MOL0     H41160   1.137  10.530  10.815 -0.0310  0.1954  1.5220
  305MOL0     H41161   1.159  10.450  10.383 -0.1648  0.3496  0.3049
  305MOL0     H41162   1.177  10.352  10.157 -1.1429  2.0157  2.0108
  305MOL0     H41163   1.242  10.267   9.963  1.0223 -0.0184 -3.5864
  305MOL0     H41164   1.306  10.125   9.897 -1.4370  2.4195 -1.2454
  305MOL0     H41165   1.469  10.324  10.068 -2.3188  0.1195  0.1803
  305MOL0     H41166   1.500  10.314   9.901  3.1741 -0.7101  0.1928
  305MOL0     H41167   1.547  10.080  10.078  1.3699 -0.2026  2.2665
  305MOL0     H41168   1.668  10.202  10.021  0.9440 -0.3494 -2.7070
  305MOL0     H41169   1.685  10.007   9.873  0.4770  1.8187  0.2978
  305MOL0     H41170   1.501  10.017   9.854 -0.6913  0.7375 -3.0671
  305MOL0     H41171   1.680  10.280   9.564  2.1068 -0.4282  2.0364
  305MOL0     H41172   1.437  10.060  10.309 -2.5661 -1.3406 -3.1013
  305MOL0     H41173   1.561  10.105  10.538  0.9768  2.2061  0.9790
  305MOL0     H41174   1.525  10.247  10.631  0.2192 -1.3225  3.0702
  305MOL0     H41175   1.422  10.109  10.649  0.1518 -0.9898 -1.1401
  306MOL0     O41176   8.347   5.597   2.155 -0.7280  0.2299  0.3650
  306MOL0     C41177   8.437   5.512   2.151 -0.0865  0.2638  1.0354
  306MOL0     O41178   8.414   5.381   2.145  0.3929 -0.4702  0.2246
  306MOL0     C41179   8.290   5.341   2.103 -0.2813  0.1942 -0.7923
  306MOL0     C41180   8.276   5.288   1.978 -1.3154 -0.3302  0.7347
  306MOL0     C41181   8.147   5.242   1.941 -1.0164  0.4244 -1.1426
  306MOL0     C41182   8.040   5.240   2.033 -0.2452 -0.0240 -0.1591
  306MOL0     O41183   7.922   5.189   1.990  0.1239 -0.5659 -0.1139
  306MOL0     C41184   7.823   5.151   2.091  1.5971 -0.9119  0.4348
  306MOL0     C41185   7.717   5.055   2.024  0.3814  0.4121  0.4475
  306MOL0     C41186   7.629   5.119   1.913 -0.3024 -0.1546 -0.4087
  306MOL0     C41187   7.520   5.038   1.852 -0.1677 -1.0293 -0.3239
  306MOL0     C41188   7.492   5.085   1.698 -0.1464  0.6695  0.0115
  306MOL0     C41189   7.364   5.024   1.660  0.5206  0.6162  0.4739
  306MOL0     C41190   7.320   5.081   1.528  0.7906  0.1968  0.9249
  306MOL0     C41191   7.177   5.015   1.498  0.2920 -0.3888 -0.9771
  306MOL0     N41192   7.113   5.097   1.396  0.1427 -1.1289 -0.1702
  306MOL0     C41193   7.142   5.102   1.260 -0.2773 -0.1182  0.4619
  306MOL0     C41194   7.072   5.209   1.206 -0.3456 -0.3638  0.4274
  306MOL0     C41195   7.074   5.246   1.062 -0.0761 -0.0856 -0.5147
  306MOL0     C41196   7.002   5.379   1.034  0.2426  0.1756  0.4849
  306MOL0     C41197   6.961   5.386   0.881  0.8459 -0.0628  0.4587
  306MOL0     C41198   7.069   5.388   0.772  0.2927  0.3929  0.3225
  306MOL0     O41199   7.097   5.256   0.712  0.1031  0.2694 -0.2789
  306MOL0     C41200   7.006   5.201   0.624 -0.1237 -0.1653 -0.4812
  306MOL0     C41201   7.024   5.066   0.579  0.9647  0.0016 -0.2546
  306MOL0     C41202   6.933   5.003   0.488 -0.0275 -0.4840  0.3140
  306MOL0     C41203   6.808   5.066   0.453 -0.1436 -0.4670  1.4493
  306MOL0     C41204   6.703   4.990   0.375  0.4631  0.4965 -0.0367
  306MOL0     O41205   6.595   5.056   0.324  0.1302  1.3141  0.0557
  306MOL0     C41206   6.488   4.994   0.268  0.3146  0.4624 -0.5672
  306MOL0     C41207   6.413   5.056   0.166 -1.3053 -0.2239  0.7104
  306MOL0     C41208   6.321   4.978   0.096 -0.7716  0.6497  0.9758
  306MOL0     C41209   6.277   4.856   0.138 -0.0769 -0.3027 -0.3036
  306MOL0     O41210   6.195   4.767   0.075  0.1451  0.8572  1.0279
  306MOL0     C41211   6.107   4.816  -0.036 -0.8930 -0.0958  0.0764
  306MOL0     C41212   6.025   4.693  -0.085  0.3083  0.3082  0.9260
  306MOL0     C41213   6.088   4.600  -0.187 -0.2796  1.0921  1.2819
  306MOL0     C41214   5.978   4.558  -0.292 -0.4779  0.0686 -0.3808
  306MOL0     C41215   6.009   4.421  -0.358  0.2260  1.1200 -0.8682
  306MOL0     C41216   6.136   4.434  -0.441  0.0361  0.4976  0.4484
  306MOL0     C41217   6.171   4.292  -0.483  0.1544  1.1849  0.4880
  306MOL0     C41218   6.318   4.279  -0.531  0.3001  0.2961  0.6348
  306MOL0    Cl41219   6.329   4.119  -0.619 -0.1007  0.2248 -0.0022
  306MOL0     C41220   6.331   4.808   0.252  0.2624  0.3098  0.7604
  306MOL0     C41221   6.436   4.868   0.310 -0.7189 -0.1619  0.1728
  306MOL0     O41222   6.727   4.867   0.355 -0.3320 -0.5016  0.1165
  306MOL0     C41223   6.794   5.202   0.500 -0.1470 -0.4914 -0.8259
  306MOL0     C41224   6.891   5.264   0.577  0.6930 -1.2039 -1.0232
  306MOL0     N41225   7.014   5.279   1.313 -0.4333  0.1350 -1.1598
  306MOL0     N41226   7.030   5.203   1.424  0.2518 -0.5923  1.2109
  306MOL0     C41227   8.061   5.295   2.159 -0.6744  0.3493  0.2097
  306MOL0     C41228   8.183   5.347   2.197  0.3183  0.2087 -0.3648
  306MOL0     C41229   8.585   5.556   2.145 -0.0591 -0.9977 -0.3453
  306MOL0     C41230   8.689   5.457   2.123 -0.3367  0.1757  0.0147
  306MOL0     C41231   8.817   5.504   2.144 -0.4307 -0.2903 -1.1404
  306MOL0     C41232   8.866   5.630   2.166  0.4477  0.0277  0.5244
  306MOL0     O41233   9.000   5.662   2.177  0.5303  0.1374  0.2495
  306MOL0     C41234   9.061   5.695   2.053  0.4129 -0.2750  0.4593
  306MOL0     C41235   9.158   5.582   1.999  0.4017 -0.3682  0.1844
  306MOL0     C41236   9.255   5.626   1.888 -0.1524  0.3223 -0.7511
  306MOL0     C41237   9.325   5.507   1.823  0.7822 -0.6976 -0.5182
  306MOL0     C41238   9.440   5.452   1.892 -0.0107 -0.2996  0.6806
  306MOL0     C41239   9.552   5.415   1.915  0.0392  0.4691 -0.9599
  306MOL0     C41240   8.764   5.730   2.168 -0.1259  0.4469  0.0672
  306MOL0     C41241   8.630   5.694   2.156 -0.1278 -0.7465  0.4383
  306MOL0     C41242   8.531   5.806   2.158  0.6534  0.1417 -0.5367
  306MOL0     H41243   8.361   5.288   1.911 -0.1127  0.3042  2.1911
  306MOL0     H41244   8.130   5.191   1.847  1.8147 -1.0836 -0.9515
  306MOL0     H41245   7.871   5.093   2.170 -2.4029 -0.0340  3.8908
  306MOL0     H41246   7.782   5.240   2.140  1.1883 -0.1377 -1.2454
  306MOL0     H41247   7.653   5.027   2.108  1.1632 -0.8257  0.6550
  306MOL0     H41248   7.758   4.957   1.998 -0.4414 -0.4583  2.3019
  306MOL0     H41249   7.700   5.147   1.834 -2.9224  1.6494 -2.3259
  306MOL0     H41250   7.573   5.208   1.941 -2.3144 -1.3580 -0.4328
  306MOL0     H41251   7.555   4.934   1.845  0.6832 -0.6762 -1.9480
  306MOL0     H41252   7.422   5.052   1.898 -1.3597  2.6818 -3.4062
  306MOL0     H41253   7.489   5.194   1.697 -0.6791  0.7300 -3.3555
  306MOL0     H41254   7.571   5.058   1.627  1.3042  1.6526  1.1943
  306MOL0     H41255   7.383   4.917   1.650  2.0933  1.0165 -2.0478
  306MOL0     H41256   7.287   5.042   1.735 -1.0064 -2.3413 -0.2464
  306MOL0     H41257   7.391   5.058   1.448 -1.0298 -2.0816 -0.1550
  306MOL0     H41258   7.310   5.188   1.547 -1.0235  0.1671  0.3019
  306MOL0     H41259   7.194   4.915   1.457 -1.8933 -1.0468 -0.3783
  306MOL0     H41260   7.105   5.012   1.579  2.7127 -0.0875  1.3259
  306MOL0     H41261   7.189   5.032   1.193 -1.2344 -1.6325  1.3148
  306MOL0     H41262   7.174   5.270   1.024 -0.7611  0.7795 -1.8599
  306MOL0     H41263   7.028   5.165   1.005  0.2135 -2.3915  2.3103
  306MOL0     H41264   6.914   5.374   1.099 -0.4233 -0.6866 -0.4445
  306MOL0     H41265   7.054   5.470   1.062  0.2498  0.2508  0.2338
  306MOL0     H41266   6.907   5.480   0.869 -0.3017 -0.4023  2.3754
  306MOL0     H41267   6.882   5.312   0.864  2.0189 -1.4462  0.7962
  306MOL0     H41268   7.154   5.426   0.828  1.0950 -0.0208 -0.5892
  306MOL0     H41269   7.048   5.467   0.698 -1.3333 -1.9664 -1.9097
  306MOL0     H41270   7.101   5.004   0.625 -0.7940 -1.0304  1.4728
  306MOL0     H41271   6.967   4.905   0.456  3.1646  0.3000  0.9657
  306MOL0     H41272   6.436   5.159   0.141  0.8329 -0.3156  2.0886
  306MOL0     H41273   6.283   5.033   0.010  0.3475  3.2006  2.0140
  306MOL0     H41274   6.050   4.904  -0.006 -2.1920 -1.0048  0.3800
  306MOL0     H41275   6.169   4.852  -0.119  1.4095 -4.3808 -0.3290
  306MOL0     H41276   5.991   4.636   0.002  0.2589 -0.5100  0.3738
  306MOL0     H41277   5.936   4.743  -0.124 -0.6659 -0.6658  1.8095
  306MOL0     H41278   6.177   4.646  -0.232 -1.1337 -0.2015 -1.9977
  306MOL0     H41279   6.115   4.509  -0.133  0.9580 -0.8203 -2.1878
  306MOL0     H41280   5.968   4.632  -0.371 -2.6227 -1.2373 -1.3987
  306MOL0     H41281   5.881   4.554  -0.242 -1.2871 -0.2485 -1.9248
  306MOL0     H41282   5.926   4.388  -0.421  0.0939 -1.1964  0.4308
  306MOL0     H41283   6.031   4.350  -0.278 -0.3974  0.9097 -0.8784
  306MOL0     H41284   6.113   4.493  -0.530  0.7598  0.2479  0.0842
  306MOL0     H41285   6.216   4.485  -0.386  1.7241  0.8512 -2.1555
  306MOL0     H41286   6.094   4.275  -0.560 -2.2305  1.8157  2.5769
  306MOL0     H41287   6.177   4.215  -0.404  2.2157 -1.3916 -1.9773
  306MOL0     H41288   6.347   4.353  -0.606 -1.3450  0.3918  0.0552
  306MOL0     H41289   6.388   4.295  -0.449  3.0899  1.1674 -1.7323
  306MOL0     H41290   6.291   4.716   0.295  1.9943 -0.8521  0.0208
  306MOL0     H41291   6.481   4.825   0.398  0.5192  0.6994 -0.0183
  306MOL0     H41292   6.699   5.253   0.490  0.4271  0.7303 -0.2070
  306MOL0     H41293   6.878   5.366   0.612  1.5135 -1.9426  1.7702
  306MOL0     H41294   7.977   5.296   2.228 -2.1462 -2.2021 -1.3641
  306MOL0     H41295   8.197   5.378   2.301  0.4349  0.0848 -0.3422
  306MOL0     H41296   8.678   5.352   2.099 -0.1371  0.6847 -2.6690
  306MOL0     H41297   8.892   5.427   2.128 -0.7856 -0.7504 -0.6190
  306MOL0     H41298   9.117   5.786   2.077 -1.8655  0.7405  2.4418
  306MOL0     H41299   8.995   5.718   1.969  2.2464  2.1832 -0.4486
  306MOL0     H41300   9.091   5.500   1.975 -2.4446  1.7536  0.2959
  306MOL0     H41301   9.213   5.548   2.088 -0.2030 -1.4959  0.1360
  306MOL0     H41302   9.328   5.697   1.927  0.5222 -1.0005  0.4496
  306MOL0     H41303   9.198   5.679   1.811  1.5623  1.6118 -1.1958
  306MOL0     H41304   9.251   5.428   1.810  0.8169 -1.3685  2.5350
  306MOL0     H41305   9.348   5.532   1.719  1.7572 -0.2139 -0.2026
  306MOL0     H41306   9.640   5.378   1.964 -2.1597 -0.6750  2.5202
  306MOL0     H41307   8.793   5.832   2.188 -0.8316  1.1962 -2.3971
  306MOL0     H41308   8.465   5.799   2.071 -0.2535  3.6116 -0.2520
  306MOL0     H41309   8.469   5.798   2.248  2.0953 -0.6569  0.4221
  306MOL0     H41310   8.572   5.907   2.154  1.0755  0.3137  3.9506
  307MOL0     O41311   0.456   5.146   6.468 -0.2804 -0.1511  0.1853
  307MOL0     C41312   0.494   5.247   6.528  0.5594 -0.8468 -0.5703
  307MOL0     O41313   0.493   5.264   6.665 -0.1908  0.4470  0.1213
  307MOL0     C41314   0.469   5.166   6.760 -0.1330 -0.2676 -1.0010
  307MOL0     C41315   0.482   5.026   6.746 -0.6641  0.0199 -0.5998
  307MOL0     C41316   0.492   4.937   6.863 -0.8082 -0.3912  0.3833
  307MOL0     C41317   0.488   4.995   7.000  0.1445 -0.7067  0.0565
  307MOL0     O41318   0.485   4.925   7.121  0.2200  0.4991  0.1579
  307MOL0     C41319   0.527   4.792   7.119 -0.4282 -1.0546  0.1833
  307MOL0     C41320   0.566   4.744   7.265 -0.7251 -0.2757  0.3654
  307MOL0     C41321   0.460   4.774   7.361 -0.6706  0.0988  0.2194
  307MOL0     C41322   0.484   4.720   7.501 -0.7008 -0.1258 -0.1998
  307MOL0     C41323   0.580   4.810   7.589  0.4569  0.4572 -0.0588
  307MOL0     C41324   0.576   4.767   7.733  0.1397  1.7971 -0.3677
  307MOL0     C41325   0.628   4.869   7.830 -0.3741 -0.1187  0.1664
  307MOL0     C41326   0.536   4.983   7.860  0.6136 -0.2746 -0.2036
  307MOL0     N41327   0.462   4.955   7.984 -0.0947 -0.6097 -0.6088
  307MOL0     C41328   0.490   5.024   8.101 -0.1298 -0.6681  0.1201
  307MOL0     C41329   0.389   4.983   8.184  0.5706  0.2911  1.0301
  307MOL0     C41330   0.342   5.040   8.314 -0.0526  0.4300 -0.0240
  307MOL0     C41331   0.418   4.988   8.435 -0.7691 -0.1347  0.1481
  307MOL0     C41332   0.388   5.089   8.550  0.7278  0.6467 -0.2099
  307MOL0     C41333   0.443   5.041   8.684  0.5497  0.2669  0.7506
  307MOL0     O41334   0.400   5.126   8.787  0.0826  0.3079 -0.4031
  307MOL0     C41335   0.443   5.092   8.912 -0.5453  0.0362  0.7797
  307MOL0     C41336   0.504   4.969   8.949 -0.6215 -0.5863  0.3774
  307MOL0     C41337   0.561   4.963   9.076 -0.4061  0.6078 -0.1140
  307MOL0     C41338   0.560   5.073   9.165  0.1907  0.2616  0.2112
  307MOL0     C41339   0.626   5.060   9.300 -0.9743  0.0125  0.8083
  307MOL0     O41340   0.735   4.978   9.324 -0.1731  0.2366 -0.0130
  307MOL0     C41341   0.814   4.999   9.426 -0.0114  0.5713 -0.4626
  307MOL0     C41342   0.856   4.886   9.489  0.8968  0.8073 -0.3623
  307MOL0     C41343   0.933   4.888   9.615 -0.3961  0.4137  0.2196
  307MOL0     C41344   0.986   5.010   9.649 -0.7270 -0.0857  1.1023
  307MOL0     O41345   1.093   5.030   9.742  0.1310  0.0654 -0.1596
  307MOL0     C41346   1.199   4.929   9.769  0.2266 -0.2893 -0.2973
  307MOL0     C41347   1.210   4.894   9.921 -0.3283 -0.6472  0.5423
  307MOL0     C41348   1.080   4.823   9.953  0.6832  0.4013  0.1775
  307MOL0     C41349   1.066   4.774  10.094  0.9477  0.2758  0.1247
  307MOL0     C41350   1.106   4.879  10.205  0.3936 -0.6166 -0.2435
  307MOL0     C41351   1.022   5.002  10.215 -0.1408 -0.3432 -0.5127
  307MOL0     C41352   1.018   5.071  10.362 -0.2523  0.4072  0.2226
  307MOL0     C41353   0.954   5.209  10.347  0.2784  0.0522  0.2325
  307MOL0    Cl41354   0.798   5.214  10.270 -0.1969 -0.3124 -0.6633
  307MOL0     C41355   0.950   5.130   9.578  0.9608 -0.1939 -0.2489
  307MOL0     C41356   0.861   5.120   9.473  0.0254 -0.5307  0.0807
  307MOL0     O41357   0.576   5.137   9.384 -0.6006 -0.5018  0.1544
  307MOL0     C41358   0.492   5.186   9.130  0.1867  0.4678  0.3368
  307MOL0     C41359   0.437   5.194   9.002 -0.1967 -0.4985 -0.6322
  307MOL0     N41360   0.319   4.877   8.116  0.4451  0.6674 -0.0883
  307MOL0     N41361   0.366   4.863   7.997  0.4312  0.3976 -0.2281
  307MOL0     C41362   0.450   5.131   6.996 -0.5738  0.0621  0.0722
  307MOL0     C41363   0.442   5.210   6.886  0.1285 -0.6685  1.0121
  307MOL0     C41364   0.559   5.350   6.440  0.5836 -0.2253 -0.8907
  307MOL0     C41365   0.528   5.347   6.303  0.1981 -0.1808  0.5671
  307MOL0     C41366   0.577   5.429   6.214  0.8312  0.0487  0.0439
  307MOL0     C41367   0.658   5.532   6.254  0.1313 -0.5093  0.1047
  307MOL0     O41368   0.699   5.616   6.150 -0.0563 -0.5945 -0.3995
  307MOL0     C41369   0.783   5.726   6.183  0.0158  0.8050 -0.3119
  307MOL0     C41370   0.814   5.804   6.044 -0.3017 -0.6608 -0.8144
  307MOL0     C41371   0.887   5.719   5.938 -0.1706  1.1287  1.2532
  307MOL0     C41372   0.930   5.798   5.823  0.2429 -0.2143 -0.8290
  307MOL0     C41373   0.986   5.714   5.715 -0.0670  0.9435 -0.0076
  307MOL0     C41374   1.003   5.638   5.623 -0.1217 -0.6846 -0.7454
  307MOL0     C41375   0.691   5.544   6.394 -0.3078  0.1275 -0.5414
  307MOL0     C41376   0.633   5.459   6.489 -0.8278 -0.4516 -0.5067
  307MOL0     C41377   0.668   5.473   6.635 -0.1993  0.0961  0.3679
  307MOL0     H41378   0.476   4.986   6.645 -1.5523 -0.4455 -0.3719
  307MOL0     H41379   0.507   4.830   6.857  2.3930 -0.2479  3.0796
  307MOL0     H41380   0.438   4.747   7.073 -1.1297  3.1158 -3.2960
  307MOL0     H41381   0.617   4.774   7.059 -1.2769 -0.4277 -1.3614
  307MOL0     H41382   0.658   4.798   7.291 -2.3392  2.4017  0.8898
  307MOL0     H41383   0.585   4.637   7.271  3.2829  0.2866  0.7958
  307MOL0     H41384   0.373   4.728   7.313  0.8676 -2.1146 -0.5776
  307MOL0     H41385   0.449   4.883   7.367  0.9439  0.3989 -1.4413
  307MOL0     H41386   0.385   4.710   7.546 -1.5914 -0.8888 -2.2052
  307MOL0     H41387   0.520   4.617   7.497 -0.8937 -0.2666  1.1961
  307MOL0     H41388   0.676   4.800   7.538  1.1706  0.2841  1.2718
  307MOL0     H41389   0.559   4.917   7.578  1.4918  0.5263 -1.6063
  307MOL0     H41390   0.470   4.754   7.758  0.4642 -0.7175  0.0431
  307MOL0     H41391   0.627   4.670   7.739 -2.8585 -0.0767 -2.1554
  307MOL0     H41392   0.726   4.903   7.796 -0.2061 -0.0147  0.7517
  307MOL0     H41393   0.644   4.812   7.922  2.8114 -0.4092 -0.4604
  307MOL0     H41394   0.585   5.081   7.864  2.0854 -1.0039  0.7251
  307MOL0     H41395   0.478   4.987   7.767  0.9828 -2.1519 -0.5575
  307MOL0     H41396   0.554   5.109   8.125  1.2528 -2.4794  3.6389
  307MOL0     H41397   0.358   5.148   8.302  2.5207  0.0863 -0.2500
  307MOL0     H41398   0.234   5.028   8.320 -0.1738 -0.3061 -2.5832
  307MOL0     H41399   0.396   4.884   8.462  1.2649 -1.0742 -1.5190
  307MOL0     H41400   0.525   4.990   8.416 -1.2623 -0.4873 -3.4003
  307MOL0     H41401   0.279   5.087   8.563  1.0562  0.2232  3.7734
  307MOL0     H41402   0.427   5.186   8.519  2.2382  0.0101 -0.3869
  307MOL0     H41403   0.552   5.044   8.670  0.4790 -0.2333  0.0075
  307MOL0     H41404   0.420   4.936   8.704 -1.2260  0.5686  0.4328
  307MOL0     H41405   0.523   4.885   8.883 -2.7967  0.3302 -1.5738
  307MOL0     H41406   0.613   4.872   9.103  1.0071  2.3116  3.7468
  307MOL0     H41407   0.835   4.786   9.454  3.7962 -0.8607  2.1881
  307MOL0     H41408   0.944   4.785   9.648 -0.8849 -0.6386 -2.5825
  307MOL0     H41409   1.189   4.835   9.713  1.9934 -0.9005  0.3675
  307MOL0     H41410   1.288   4.975   9.727  0.2190  0.4056  0.4219
  307MOL0     H41411   1.301   4.833   9.927 -1.3880 -2.4832 -0.8023
  307MOL0     H41412   1.208   4.981   9.987 -2.7547  0.5604 -0.9791
  307MOL0     H41413   1.002   4.898   9.936 -0.9592 -1.0820  0.7744
  307MOL0     H41414   1.070   4.735   9.888  1.2342  0.4574  0.0129
  307MOL0     H41415   1.130   4.686  10.109 -0.8325 -0.5880  3.8398
  307MOL0     H41416   0.964   4.735  10.099 -0.0992  2.3483 -2.5349
  307MOL0     H41417   1.212   4.907  10.199  0.7375 -1.9969 -1.0031
  307MOL0     H41418   1.109   4.841  10.307 -0.6194  0.2895  0.1413
  307MOL0     H41419   1.037   5.078  10.138 -2.3113 -1.3094 -1.9847
  307MOL0     H41420   0.919   4.969  10.197 -0.9097  2.3748 -1.7764
  307MOL0     H41421   1.116   5.080  10.410 -0.0903 -0.7093  0.1081
  307MOL0     H41422   0.947   5.010  10.418  0.7378 -2.0531 -1.0381
  307MOL0     H41423   0.942   5.254  10.446 -2.3147  1.2061 -0.5185
  307MOL0     H41424   1.004   5.286  10.287 -1.0630  0.1234 -0.8467
  307MOL0     H41425   0.985   5.226   9.614 -0.6419  0.7867 -1.1872
  307MOL0     H41426   0.814   5.208   9.430  2.8097  0.4404 -1.2146
  307MOL0     H41427   0.488   5.281   9.183  1.6206  2.2437 -2.5052
  307MOL0     H41428   0.383   5.283   8.971 -0.7801 -1.0541 -1.2173
  307MOL0     H41429   0.445   5.180   7.093 -2.3167 -1.0677  0.5859
  307MOL0     H41430   0.422   5.317   6.891 -2.5322 -0.7352 -3.0934
  307MOL0     H41431   0.463   5.274   6.254 -0.7915  2.1845 -1.8820
  307MOL0     H41432   0.552   5.399   6.113 -0.2705 -2.1782  0.9064
  307MOL0     H41433   0.872   5.685   6.232 -0.6904 -1.3119 -0.6873
  307MOL0     H41434   0.746   5.801   6.253  2.1041  2.0840 -0.4892
  307MOL0     H41435   0.894   5.877   6.064  1.1360 -2.4544  0.2836
  307MOL0     H41436   0.717   5.841   6.010 -0.9596 -0.8768  0.7127
  307MOL0     H41437   0.819   5.644   5.897  0.2268  0.4916  1.7387
  307MOL0     H41438   0.969   5.664   5.985  1.6568  1.9164 -0.8723
  307MOL0     H41439   0.849   5.863   5.789 -0.5304  0.8250  2.5899
  307MOL0     H41440   1.007   5.870   5.849 -1.3922  1.3035  0.0236
  307MOL0     H41441   1.025   5.583   5.534  0.2105  0.3999 -1.3546
  307MOL0     H41442   0.749   5.632   6.421 -1.3245  0.2683  1.4015
  307MOL0     H41443   0.717   5.568   6.656  0.3928  0.3638 -1.9403
  307MOL0     H41444   0.566   5.478   6.674 -0.2904 -0.7458  0.2593
  307MOL0     H41445   0.731   5.392   6.672 -0.7602  0.2126  1.6145
  308MOL0     O41446   0.721   6.942   9.878  0.3199  0.8425  0.4180
  308MOL0     C41447   0.678   7.035   9.949 -0.2230  0.0873  0.4388
  308MOL0     O41448   0.747   7.151   9.977  0.0482 -0.2989 -0.2719
  308MOL0     C41449   0.889   7.146   9.965  0.3553  0.7768  0.1638
  308MOL0     C41450   0.973   7.039   9.992  0.2436  0.3448 -0.3365
  308MOL0     C41451   1.111   7.049  10.002  0.4894 -0.9397 -0.2931
  308MOL0     C41452   1.172   7.174   9.976 -0.4160  0.8534 -0.6316
  308MOL0     O41453   1.306   7.170   9.983  0.1201  0.5511  0.3141
  308MOL0     C41454   1.380   7.283   9.975 -0.8247  0.3359  0.2997
  308MOL0     C41455   1.536   7.240   9.988  0.9765  0.3013 -0.4775
  308MOL0     C41456   1.611   7.369   9.960  0.1246  0.6712  0.1569
  308MOL0     C41457   1.762   7.365   9.993 -0.8623 -0.5276  0.2850
  308MOL0     C41458   1.824   7.499   9.954 -0.2562  0.7530 -0.7280
  308MOL0     C41459   1.776   7.620  10.046 -0.9127  0.4292  0.5913
  308MOL0     C41460   1.874   7.740  10.043  0.0248  0.9208 -1.2226
  308MOL0     C41461   1.847   7.852  10.131 -0.7057 -0.4497 -0.5570
  308MOL0     N41462   1.820   7.977  10.063 -0.3680  0.0707  0.0898
  308MOL0     C41463   1.899   8.096  10.065 -0.2748  0.1331 -0.1497
  308MOL0     C41464   1.832   8.177   9.978  0.2919  0.2308  0.1469
  308MOL0     C41465   1.883   8.311   9.941  1.4788 -0.0578  0.2957
  308MOL0     C41466   1.869   8.346   9.786  0.4685  0.1984 -0.2913
  308MOL0     C41467   1.948   8.259   9.689  0.1657  1.1261 -0.1934
  308MOL0     C41468   2.094   8.219   9.711  0.6223  0.5781 -0.5670
  308MOL0     O41469   2.123   8.138   9.593  0.2071 -0.2561  0.6917
  308MOL0     C41470   2.082   8.004   9.579  0.0274 -0.8454 -0.7485
  308MOL0     C41471   2.106   7.948   9.456  0.4755 -0.9004 -0.6765
  308MOL0     C41472   2.070   7.814   9.434  1.2213 -0.3645  0.0789
  308MOL0     C41473   2.003   7.732   9.526 -0.2693  0.2127 -0.6377
  308MOL0     C41474   1.966   7.591   9.493  0.2452 -0.8450 -0.1929
  308MOL0     O41475   1.864   7.528   9.571 -0.2165 -0.0145 -0.6992
  308MOL0     C41476   1.827   7.396   9.564  0.4931  0.1968  0.2467
  308MOL0     C41477   1.696   7.379   9.602  0.1356 -0.8034  0.5385
  308MOL0     C41478   1.644   7.254   9.601  0.3782 -0.1258 -0.1910
  308MOL0     C41479   1.714   7.137   9.563 -0.5750  0.6306 -0.6164
  308MOL0     O41480   1.653   7.019   9.603  0.7746  0.2139 -0.7517
  308MOL0     C41481   1.728   6.897   9.605 -0.1511  0.0868  0.0859
  308MOL0     C41482   1.638   6.767   9.610 -0.0886 -0.8385 -0.3963
  308MOL0     C41483   1.543   6.756   9.490 -0.4084  0.0099 -0.1222
  308MOL0     C41484   1.625   6.723   9.362  0.4112 -0.4402 -0.4407
  308MOL0     C41485   1.525   6.698   9.245 -0.6915  0.1091  0.0698
  308MOL0     C41486   1.586   6.616   9.148 -0.2552 -0.3138  0.2103
  308MOL0     C41487   1.490   6.550   9.049 -0.6485 -0.1462 -0.8177
  308MOL0     C41488   1.430   6.425   9.108 -0.2540 -0.3990  0.1976
  308MOL0    Cl41489   1.414   6.308   8.975  0.1032  0.0876  0.0559
  308MOL0     C41490   1.848   7.154   9.527  0.0981  0.3661 -0.0639
  308MOL0     C41491   1.908   7.281   9.528 -0.3960 -0.5411  0.2737
  308MOL0     O41492   2.037   7.521   9.410 -0.8309  0.1818  0.3491
  308MOL0     C41493   1.969   7.784   9.648  0.0273 -0.5638 -0.2762
  308MOL0     C41494   2.012   7.924   9.673  0.3222  0.2633  0.5259
  308MOL0     N41495   1.707   8.123   9.944  0.3963 -0.0028  0.2585
  308MOL0     N41496   1.698   8.013  10.003 -0.4556 -0.1223 -0.8090
  308MOL0     C41497   1.088   7.291   9.946  0.7455 -0.0728  0.2644
  308MOL0     C41498   0.950   7.266   9.943  0.1484 -0.3093 -0.1776
  308MOL0     C41499   0.529   7.037   9.975 -0.3330 -0.5342  0.6941
  308MOL0     C41500   0.487   7.151  10.049 -0.2394  0.0003 -0.2767
  308MOL0     C41501   0.360   7.185  10.084  0.1551 -0.0911  0.2245
  308MOL0     C41502   0.255   7.098  10.034 -0.0703 -0.4206 -0.6262
  308MOL0     O41503   0.128   7.114  10.076 -0.5453  0.6610  0.2413
  308MOL0     C41504   0.031   7.116   9.967 -0.4458 -0.5604 -0.0875
  308MOL0     C41505   0.063   7.235   9.877  0.4295  0.3980  0.1647
  308MOL0     C41506   0.061   7.364   9.957 -0.0544 -0.7380  0.0886
  308MOL0     C41507   0.071   7.482   9.869  0.1458 -0.4060  0.4149
  308MOL0     C41508  -0.042   7.483   9.775 -0.1727 -0.2185 -0.1879
  308MOL0     C41509  -0.125   7.503   9.684 -0.4132  0.3237 -0.2798
  308MOL0     C41510   0.292   6.986   9.961 -0.2089 -0.0279 -0.2697
  308MOL0     C41511   0.423   6.955   9.933  0.1261 -1.5717  0.3385
  308MOL0     C41512   0.460   6.837   9.852  0.6235 -0.4629 -0.5598
  308MOL0     H41513   0.927   6.940   9.998 -3.0654  1.8127  4.7975
  308MOL0     H41514   1.175   6.964  10.023  1.7737 -0.0881 -0.6792
  308MOL0     H41515   1.360   7.314   9.872 -1.3645  0.9259  0.5828
  308MOL0     H41516   1.359   7.352  10.057 -2.3962  0.0197  0.1818
  308MOL0     H41517   1.559   7.155   9.924 -4.1560 -1.7675 -0.0501
  308MOL0     H41518   1.562   7.207  10.089 -2.6995 -1.5545  0.0221
  308MOL0     H41519   1.561   7.442  10.024 -1.5382 -1.2984  1.2058
  308MOL0     H41520   1.589   7.394   9.856 -1.8061  0.9689  0.6120
  308MOL0     H41521   1.787   7.332  10.095  1.9139 -1.3720 -0.5745
  308MOL0     H41522   1.806   7.287   9.930  3.1044 -0.2533  2.3646
  308MOL0     H41523   1.933   7.489   9.953 -0.2302  0.9927 -1.7019
  308MOL0     H41524   1.791   7.514   9.851 -3.1755 -0.7413 -0.1359
  308MOL0     H41525   1.682   7.652   9.999 -1.0434 -0.0181  0.5388
  308MOL0     H41526   1.779   7.585  10.150  1.5953 -3.5133 -0.6044
  308MOL0     H41527   1.879   7.781   9.941  0.5580  2.2904 -0.6552
  308MOL0     H41528   1.972   7.697  10.066 -1.1750  0.2815  3.7070
  308MOL0     H41529   1.758   7.824  10.189  1.3877 -2.0722  2.1058
  308MOL0     H41530   1.925   7.855  10.208  0.1219  1.4630 -1.3995
  308MOL0     H41531   1.985   8.125  10.125  0.0505  0.6312 -0.8440
  308MOL0     H41532   1.806   8.372   9.989 -1.1231 -1.7379 -1.4523
  308MOL0     H41533   1.986   8.315   9.977  2.2052 -4.4042 -0.7618
  308MOL0     H41534   1.767   8.362   9.750 -0.1705  1.2289  1.8350
  308MOL0     H41535   1.920   8.443   9.777  2.1626 -0.7487 -1.5373
  308MOL0     H41536   1.947   8.316   9.595 -1.7336 -0.9918 -1.5555
  308MOL0     H41537   1.896   8.164   9.676  1.5840 -0.1666  2.6920
  308MOL0     H41538   2.103   8.164   9.805 -1.2545 -1.6790 -1.6157
  308MOL0     H41539   2.163   8.304   9.719  0.4582  1.0158 -2.9435
  308MOL0     H41540   2.155   8.019   9.391  1.6123  0.6798  1.7474
  308MOL0     H41541   2.083   7.766   9.338 -1.4662 -1.5627  0.2191
  308MOL0     H41542   1.641   7.469   9.628  0.9843 -0.7681  2.3738
  308MOL0     H41543   1.541   7.237   9.628  0.1699 -0.4218 -1.1324
  308MOL0     H41544   1.796   6.904   9.520 -0.6572  3.3121 -0.1796
  308MOL0     H41545   1.790   6.897   9.695 -0.9533 -2.8899  0.7320
  308MOL0     H41546   1.704   6.679   9.613 -0.2900 -0.9755  0.5187
  308MOL0     H41547   1.584   6.751   9.704 -3.4486 -0.2435 -2.0655
  308MOL0     H41548   1.466   6.681   9.511 -0.4157 -0.0446 -0.3404
  308MOL0     H41549   1.484   6.848   9.481 -0.9874 -0.2613  0.7863
  308MOL0     H41550   1.689   6.636   9.380 -1.3080 -1.1267  3.3192
  308MOL0     H41551   1.692   6.805   9.333  0.5237  0.3528  1.8825
  308MOL0     H41552   1.489   6.787   9.194 -1.3368 -1.7431 -2.9608
  308MOL0     H41553   1.434   6.654   9.287 -0.1017  1.1619  2.6905
  308MOL0     H41554   1.667   6.670   9.098 -0.7592  3.9131  3.3693
  308MOL0     H41555   1.634   6.540   9.210 -1.0528  0.2997  1.6193
  308MOL0     H41556   1.551   6.524   8.963  0.6323 -0.7554  0.2412
  308MOL0     H41557   1.416   6.614   8.999 -0.7939 -1.1636 -1.9385
  308MOL0     H41558   1.496   6.382   9.184 -2.0293  0.3354  2.2150
  308MOL0     H41559   1.333   6.441   9.154 -0.3719  0.3444 -0.2912
  308MOL0     H41560   1.914   7.077   9.487  0.0742  0.5803 -0.5305
  308MOL0     H41561   2.009   7.300   9.494 -0.5706  0.0295  0.0510
  308MOL0     H41562   1.917   7.731   9.728 -0.3965 -0.8021 -0.7071
  308MOL0     H41563   1.990   7.963   9.772 -1.3450 -0.5736  0.5149
  308MOL0     H41564   1.128   7.389   9.922  0.9159 -0.0394  0.6780
  308MOL0     H41565   0.885   7.352   9.932 -2.5636 -1.9821  1.6416
  308MOL0     H41566   0.561   7.221  10.087 -1.1997  1.1472 -0.4411
  308MOL0     H41567   0.338   7.260  10.159  0.6313 -0.8285  1.1135
  308MOL0     H41568  -0.068   7.134  10.011  1.3605  2.1989  3.3666
  308MOL0     H41569   0.037   7.019   9.918 -0.7345 -0.3984 -0.4562
  308MOL0     H41570  -0.012   7.240   9.797 -1.4746 -0.4648  1.8043
  308MOL0     H41571   0.157   7.214   9.825  0.5933 -1.5439  1.1662
  308MOL0     H41572   0.150   7.371  10.020  0.5697  3.3142 -0.9905
  308MOL0     H41573  -0.031   7.371  10.015  0.6367 -0.2885  1.1588
  308MOL0     H41574   0.064   7.568   9.936 -1.5405 -1.2932  1.4537
  308MOL0     H41575   0.164   7.473   9.812  0.1093 -0.8551  0.4219
  308MOL0     H41576  -0.191   7.505   9.600  1.2951  1.7187 -1.6598
  308MOL0     H41577   0.215   6.916   9.930 -2.7383  1.7349  1.6636
  308MOL0     H41578   0.375   6.769   9.839  1.0950 -0.8256 -1.8707
  308MOL0     H41579   0.501   6.860   9.753 -1.5822  0.3464 -1.3533
  308MOL0     H41580   0.527   6.789   9.924 -0.1922  0.9489  1.2172
  309MOL0     O41581   0.828   0.461   5.664 -0.5524 -0.0408  0.5252
  309MOL0     C41582   0.783   0.511   5.771  0.4712 -0.0936  0.0729
  309MOL0     O41583   0.653   0.482   5.818 -0.2352  0.4538 -0.2985
  309MOL0     C41584   0.548   0.424   5.735 -0.3271 -0.0924 -0.7747
  309MOL0     C41585   0.530   0.430   5.587 -0.9555 -0.6932 -0.4597
  309MOL0     C41586   0.412   0.373   5.525 -0.1795  0.5766 -0.3567
  309MOL0     C41587   0.317   0.298   5.595 -0.0112 -0.2087 -0.1312
  309MOL0     O41588   0.213   0.233   5.533 -0.2192  0.3158  0.2606
  309MOL0     C41589   0.120   0.147   5.605  0.7276  0.0611  0.7415
  309MOL0     C41590   0.029   0.061   5.512 -0.8553 -0.2719 -0.7905
  309MOL0     C41591  -0.052   0.140   5.422  0.5709  0.2528 -0.1086
  309MOL0     C41592  -0.141   0.047   5.337  1.4231  0.4846 -0.0062
  309MOL0     C41593  -0.227   0.127   5.233 -0.2304  0.7590 -0.6540
  309MOL0     C41594  -0.133   0.192   5.130 -0.0675  0.4741  0.0082
  309MOL0     C41595  -0.202   0.275   5.025 -0.1330  0.1512  0.8834
  309MOL0     C41596  -0.123   0.330   4.898  0.0385 -0.0919 -0.1907
  309MOL0     N41597  -0.082   0.233   4.797 -0.9542 -0.1341  0.5688
  309MOL0     C41598   0.038   0.172   4.783 -0.1400  1.1699  0.4610
  309MOL0     C41599   0.005   0.073   4.699  0.7228  0.6786 -0.0212
  309MOL0     C41600   0.095  -0.041   4.656  0.4074  0.3438 -0.3434
  309MOL0     C41601   0.043  -0.132   4.544 -0.2461  0.0392 -0.3487
  309MOL0     C41602   0.023  -0.058   4.408  0.2727 -0.7833 -0.0106
  309MOL0     C41603  -0.040  -0.148   4.299  0.5017 -0.9142 -0.2538
  309MOL0     O41604  -0.131  -0.070   4.212  0.3912 -0.1599  0.5026
  309MOL0     C41605  -0.196  -0.137   4.109  0.7081  0.8849  0.8583
  309MOL0     C41606  -0.202  -0.281   4.086  0.4389  0.4660  0.1010
  309MOL0     C41607  -0.273  -0.342   3.973 -0.6580 -0.4055 -0.8260
  309MOL0     C41608  -0.339  -0.258   3.879 -0.0727 -0.2058  0.1201
  309MOL0     C41609  -0.411  -0.321   3.763  1.0440  0.9720  0.9850
  309MOL0     O41610  -0.431  -0.459   3.750 -0.9305 -0.8363  0.4829
  309MOL0     C41611  -0.529  -0.511   3.673  0.2915 -0.5711 -0.1425
  309MOL0     C41612  -0.497  -0.611   3.592 -0.0332  0.0041  0.0386
  309MOL0     C41613  -0.593  -0.668   3.511 -0.1274 -0.4478  0.3363
  309MOL0     C41614  -0.708  -0.606   3.495  0.1968  0.3100  0.6085
  309MOL0     O41615  -0.789  -0.645   3.388  0.1609 -0.1101 -0.2269
  309MOL0     C41616  -0.852  -0.549   3.305 -0.1333  0.5233 -1.0764
  309MOL0     C41617  -0.867  -0.610   3.158  0.0358  0.6319 -0.0756
  309MOL0     C41618  -0.734  -0.626   3.089  0.2214  0.3756  1.0194
  309MOL0     C41619  -0.750  -0.751   2.993  0.3364 -0.6395 -0.8906
  309MOL0     C41620  -0.637  -0.759   2.886 -0.3358 -0.4124  0.9129
  309MOL0     C41621  -0.659  -0.632   2.784 -0.8091 -0.0934 -0.6338
  309MOL0     C41622  -0.564  -0.640   2.668  0.0298 -0.3410  0.7867
  309MOL0     C41623  -0.524  -0.510   2.606  0.7479 -0.3193  0.6726
  309MOL0    Cl41624  -0.366  -0.538   2.520  0.0158  0.3081  0.1642
  309MOL0     C41625  -0.751  -0.503   3.583  0.8203  0.9157  0.1782
  309MOL0     C41626  -0.662  -0.469   3.685 -0.1349 -1.1703 -0.0488
  309MOL0     O41627  -0.456  -0.237   3.688  0.0196  0.1002 -0.7358
  309MOL0     C41628  -0.332  -0.118   3.904 -0.5941  0.9533  0.1354
  309MOL0     C41629  -0.254  -0.057   4.008  0.4622 -0.1050  0.5269
  309MOL0     N41630  -0.120   0.082   4.651 -0.4112 -0.0579 -0.1901
  309MOL0     N41631  -0.172   0.189   4.704  0.1502 -0.0885 -0.0237
  309MOL0     C41632   0.340   0.291   5.734  0.2337 -0.5700  0.8927
  309MOL0     C41633   0.445   0.356   5.795 -0.5172  0.3982  0.1663
  309MOL0     C41634   0.872   0.592   5.851 -0.2622 -1.0524 -0.0204
  309MOL0     C41635   0.996   0.549   5.901  0.2350  0.7127 -0.1256
  309MOL0     C41636   1.091   0.628   5.965 -0.0309  0.6052 -0.3554
  309MOL0     C41637   1.051   0.762   5.995  0.1768  1.2596 -0.1722
  309MOL0     O41638   1.114   0.857   6.062 -0.5241 -0.1792 -0.5029
  309MOL0     C41639   1.246   0.833   6.112 -0.9910  0.5449 -0.1524
  309MOL0     C41640   1.294   0.962   6.171 -0.8688  0.1746  0.0775
  309MOL0     C41641   1.322   1.071   6.069 -0.7265 -0.1104 -0.5572
  309MOL0     C41642   1.379   1.196   6.140  0.2806 -1.1824 -0.0838
  309MOL0     C41643   1.522   1.171   6.155 -0.1400 -1.4268 -0.0292
  309MOL0     C41644   1.637   1.147   6.181 -0.5436 -0.9600 -0.0903
  309MOL0     C41645   0.931   0.810   5.951  1.2364  1.0851 -0.5547
  309MOL0     C41646   0.842   0.728   5.878 -0.2182 -1.0079 -0.2315
  309MOL0     C41647   0.717   0.807   5.829 -0.3914  0.0968  0.3430
  309MOL0     H41648   0.599   0.488   5.526  0.4904 -2.8781 -1.0120
  309MOL0     H41649   0.404   0.373   5.417  4.8170 -2.7113 -1.0615
  309MOL0     H41650   0.158   0.084   5.686 -1.1648 -0.7593  1.0547
  309MOL0     H41651   0.055   0.218   5.657  2.0807  0.5288  1.8709
  309MOL0     H41652  -0.030  -0.009   5.573 -1.2363  1.9470  1.5504
  309MOL0     H41653   0.095  -0.007   5.458  1.4973 -0.4894  2.1054
  309MOL0     H41654   0.012   0.208   5.365 -0.5383  0.8842 -0.6562
  309MOL0     H41655  -0.124   0.201   5.478 -3.2885 -1.2639 -2.9781
  309MOL0     H41656  -0.091  -0.027   5.274 -1.8422 -1.3027 -0.7502
  309MOL0     H41657  -0.215  -0.013   5.391  0.5430 -0.7645 -2.4188
  309MOL0     H41658  -0.284   0.052   5.178 -1.1922 -1.4150  2.9771
  309MOL0     H41659  -0.301   0.199   5.268 -0.3676  0.4522 -0.2980
  309MOL0     H41660  -0.064   0.265   5.173 -0.0015  1.1249 -1.1660
  309MOL0     H41661  -0.078   0.112   5.079 -0.6454  2.1303 -3.4952
  309MOL0     H41662  -0.257   0.357   5.073  0.3305 -0.2905  2.2277
  309MOL0     H41663  -0.281   0.214   4.981  0.1672  0.9064 -0.7840
  309MOL0     H41664  -0.183   0.415   4.866  0.2694  0.1203 -0.0591
  309MOL0     H41665  -0.033   0.378   4.937 -1.4569  1.5746  1.3843
  309MOL0     H41666   0.129   0.202   4.834  0.0355 -1.0446  1.5603
  309MOL0     H41667   0.192  -0.003   4.624 -0.1017  0.6946 -1.5539
  309MOL0     H41668   0.107  -0.099   4.747 -0.1591 -0.4349 -0.7487
  309MOL0     H41669   0.117  -0.212   4.544  3.6598  3.3231 -1.4831
  309MOL0     H41670  -0.050  -0.176   4.583  1.6817 -2.6693  1.5268
  309MOL0     H41671   0.125  -0.029   4.382  0.7134 -0.2934  2.1257
  309MOL0     H41672  -0.045   0.027   4.419 -2.7040 -2.8538 -1.2627
  309MOL0     H41673  -0.085  -0.240   4.337  0.0546 -0.8506 -0.6289
  309MOL0     H41674   0.046  -0.176   4.237  0.1417 -1.1742 -0.6398
  309MOL0     H41675  -0.161  -0.345   4.163  0.3020  3.0138  2.4418
  309MOL0     H41676  -0.271  -0.448   3.952 -0.6220 -0.1285 -2.3227
  309MOL0     H41677  -0.393  -0.640   3.582  0.0646  0.1106  0.6804
  309MOL0     H41678  -0.566  -0.749   3.444  0.7014  0.8899 -1.0056
  309MOL0     H41679  -0.949  -0.523   3.349  0.6377  0.7424  0.5779
  309MOL0     H41680  -0.789  -0.460   3.312  1.0106 -0.3617  0.8230
  309MOL0     H41681  -0.921  -0.703   3.175  1.0909 -1.0704 -4.5967
  309MOL0     H41682  -0.927  -0.542   3.097 -3.1659 -1.9012  0.0391
  309MOL0     H41683  -0.704  -0.534   3.039 -0.3906  0.5113  0.8934
  309MOL0     H41684  -0.661  -0.679   3.151 -1.4044 -1.2898  1.6344
  309MOL0     H41685  -0.845  -0.749   2.940  0.3419  0.7677 -0.8969
  309MOL0     H41686  -0.741  -0.843   3.052  1.5160 -2.3733 -3.5658
  309MOL0     H41687  -0.633  -0.855   2.833 -1.9697 -0.2569  0.4417
  309MOL0     H41688  -0.550  -0.730   2.946  0.0858 -0.4570  0.3374
  309MOL0     H41689  -0.760  -0.610   2.748 -1.9737 -0.3114  2.2131
  309MOL0     H41690  -0.641  -0.540   2.840  0.3960 -0.0065 -1.1283
  309MOL0     H41691  -0.605  -0.707   2.592  1.5478  0.4515 -0.7927
  309MOL0     H41692  -0.467  -0.682   2.696 -0.1105  0.2018  2.1735
  309MOL0     H41693  -0.598  -0.472   2.535  2.4849  2.0714 -0.0106
  309MOL0     H41694  -0.498  -0.436   2.683  0.2297 -1.9079  2.4511
  309MOL0     H41695  -0.853  -0.468   3.577 -0.0640 -0.3451  4.5259
  309MOL0     H41696  -0.690  -0.392   3.756 -2.2620 -0.2338 -1.8016
  309MOL0     H41697  -0.367  -0.047   3.829  1.3108  1.3307 -0.4490
  309MOL0     H41698  -0.248   0.051   4.019  0.3129 -0.0815  0.3814
  309MOL0     H41699   0.265   0.241   5.795 -0.2816  1.0411  1.6539
  309MOL0     H41700   0.470   0.336   5.899 -1.2298  1.4032  0.5417
  309MOL0     H41701   1.027   0.448   5.878 -0.4141 -0.4127  3.3989
  309MOL0     H41702   1.175   0.569   6.000 -0.8835 -0.8042 -0.5829
  309MOL0     H41703   1.310   0.793   6.033  1.9336  2.4056  1.0973
  309MOL0     H41704   1.249   0.756   6.189  0.2827  0.7315  0.0183
  309MOL0     H41705   1.378   0.943   6.238  0.3628  0.9030 -1.2131
  309MOL0     H41706   1.226   1.002   6.246 -0.9109 -1.5085  0.9894
  309MOL0     H41707   1.233   1.102   6.013 -0.9254 -0.0221 -0.1914
  309MOL0     H41708   1.388   1.041   5.986  1.7272  0.5904  1.0215
  309MOL0     H41709   1.361   1.287   6.081 -0.4697  0.2724  2.2717
  309MOL0     H41710   1.330   1.211   6.236 -0.3192 -0.2598 -0.5196
  309MOL0     H41711   1.740   1.131   6.206  0.1395  3.3629  0.6453
  309MOL0     H41712   0.905   0.915   5.961 -0.7562  0.7577 -1.5993
  309MOL0     H41713   0.645   0.828   5.909 -1.8711  3.4629 -1.6045
  309MOL0     H41714   0.751   0.907   5.797  2.8699 -0.9367  0.1930
  309MOL0     H41715   0.659   0.752   5.755  1.1456  0.5911 -1.3260
  310MOL0     O41716   5.244   0.419   6.403  0.3338 -0.0879 -0.0840
  310MOL0     C41717   5.176   0.450   6.501  0.6680 -0.0268  0.4641
  310MOL0     O41718   5.214   0.509   6.615 -0.3336  0.5868  0.1006
  310MOL0     C41719   5.342   0.564   6.625  0.8291  0.4835  0.2274
  310MOL0     C41720   5.357   0.685   6.558  0.4001 -1.3876 -0.4903
  310MOL0     C41721   5.474   0.762   6.568  0.1335  0.2798 -0.3592
  310MOL0     C41722   5.583   0.710   6.637  0.0723 -0.2263 -0.4517
  310MOL0     O41723   5.697   0.785   6.662  0.2963  0.1840 -0.5880
  310MOL0     C41724   5.677   0.922   6.680  0.4629  0.8366 -0.2947
  310MOL0     C41725   5.788   0.986   6.782 -0.5748  0.4143 -0.1087
  310MOL0     C41726   5.933   0.970   6.742 -0.6482 -0.1717  0.2438
  310MOL0     C41727   6.019   1.065   6.834  0.4204  0.1906  0.4103
  310MOL0     C41728   6.138   1.123   6.753  0.0894  0.4676  0.4307
  310MOL0     C41729   6.273   1.111   6.817  0.2053  0.1569  0.6011
  310MOL0     C41730   6.287   1.182   6.954 -0.0930  0.1121 -0.7245
  310MOL0     C41731   6.267   1.338   6.946 -0.2428 -0.1041  0.7068
  310MOL0     N41732   6.330   1.410   7.056  1.0022 -0.5925 -0.0776
  310MOL0     C41733   6.442   1.366   7.130  0.0472 -0.5497 -0.3306
  310MOL0     C41734   6.429   1.447   7.245  0.1944 -0.2640  0.5442
  310MOL0     C41735   6.514   1.470   7.367  0.4990  0.8234  0.2517
  310MOL0     C41736   6.661   1.466   7.323  0.3234  0.3470  0.2584
  310MOL0     C41737   6.731   1.326   7.338  0.0517 -0.5063 -0.2099
  310MOL0     C41738   6.850   1.307   7.235  1.0857  0.3403  0.1573
  310MOL0     O41739   6.964   1.309   7.324 -0.5599  0.1406  0.7526
  310MOL0     C41740   7.093   1.296   7.271  0.4836 -0.1147  0.8284
  310MOL0     C41741   7.125   1.287   7.137 -0.2910  1.2137 -0.3925
  310MOL0     C41742   7.255   1.268   7.101  0.1811  1.1150  0.0784
  310MOL0     C41743   7.362   1.241   7.190  0.7382  1.1004 -0.2296
  310MOL0     C41744   7.503   1.254   7.139 -0.0524  0.1204 -0.3951
  310MOL0     O41745   7.603   1.284   7.228 -0.9656  0.8606 -0.2109
  310MOL0     C41746   7.720   1.334   7.182 -0.7141  0.5785  1.0157
  310MOL0     C41747   7.744   1.471   7.170 -0.0666 -1.0703 -0.5290
  310MOL0     C41748   7.850   1.520   7.096 -0.4274 -0.4107 -0.5275
  310MOL0     C41749   7.943   1.423   7.051 -0.8124 -0.2674  0.0195
  310MOL0     O41750   8.054   1.467   6.990 -0.5789  0.3899  0.4639
  310MOL0     C41751   8.176   1.416   7.055  1.3432 -0.0974  0.1161
  310MOL0     C41752   8.304   1.468   6.984  0.9713 -0.2110 -0.3018
  310MOL0     C41753   8.425   1.420   7.062  0.5568  0.0464 -0.6446
  310MOL0     C41754   8.441   1.491   7.197 -0.3247  0.0805 -0.1627
  310MOL0     C41755   8.584   1.457   7.255 -0.1921  0.7730  0.1237
  310MOL0     C41756   8.628   1.567   7.358 -0.6354  0.8898  0.0934
  310MOL0     C41757   8.781   1.562   7.383 -0.1633 -0.1839 -0.3212
  310MOL0     C41758   8.823   1.690   7.441  0.6008  0.7252  0.0825
  310MOL0    Cl41759   8.999   1.685   7.452  0.0685 -0.3092  0.1520
  310MOL0     C41760   7.922   1.290   7.062 -0.5625 -0.2582  0.6517
  310MOL0     C41761   7.806   1.239   7.121  0.1062 -0.0791 -0.5452
  310MOL0     O41762   7.510   1.244   7.022  0.2744 -0.2877 -0.6571
  310MOL0     C41763   7.327   1.244   7.323  0.3271 -0.0331  0.8654
  310MOL0     C41764   7.194   1.270   7.359  0.6700  1.1421  0.6813
  310MOL0     N41765   6.315   1.528   7.232 -0.3115  0.0205  0.3057
  310MOL0     N41766   6.262   1.514   7.112  0.1844  0.2666 -0.3363
  310MOL0     C41767   5.572   0.587   6.702 -0.3851 -0.4804 -0.7581
  310MOL0     C41768   5.454   0.514   6.698  0.1032  0.7711  0.3787
  310MOL0     C41769   5.032   0.411   6.482 -0.1967 -0.7839  0.2957
  310MOL0     C41770   4.973   0.359   6.596  0.8070  0.0081 -0.3240
  310MOL0     C41771   4.834   0.316   6.599  0.2082  0.1660 -0.1996
  310MOL0     C41772   4.756   0.317   6.486  0.3697 -0.5121  0.0548
  310MOL0     O41773   4.625   0.275   6.486  0.2918 -0.4015  0.2373
  310MOL0     C41774   4.546   0.257   6.369  0.1386  0.3363 -0.5343
  310MOL0     C41775   4.397   0.220   6.402 -0.3591  0.4557 -0.9654
  310MOL0     C41776   4.381   0.080   6.470 -0.1626 -0.7773  0.3271
  310MOL0     C41777   4.269   0.002   6.418 -0.1810  0.0224 -0.0407
  310MOL0     C41778   4.136   0.053   6.459  0.3245  0.2676  0.6741
  310MOL0     C41779   4.025   0.081   6.485 -0.0937  0.4437  0.5338
  310MOL0     C41780   4.822   0.366   6.374  0.4936 -0.2045  0.6289
  310MOL0     C41781   4.956   0.419   6.366 -0.1743  0.4892 -0.1875
  310MOL0     C41782   5.018   0.499   6.245 -0.6814  1.0675 -0.5679
  310MOL0     H41783   5.274   0.719   6.497 -0.3687  0.8405  1.6581
  310MOL0     H41784   5.490   0.854   6.514  3.6347 -0.9770 -1.8289
  310MOL0     H41785   5.701   0.966   6.583  0.9364  0.8380 -0.1795
  310MOL0     H41786   5.576   0.943   6.719  1.0954  2.0792  0.7657
  310MOL0     H41787   5.784   0.944   6.882 -0.6623 -0.3016 -0.4111
  310MOL0     H41788   5.766   1.093   6.777  2.1714  1.0894  0.6088
  310MOL0     H41789   5.954   1.005   6.640  0.3060  0.1552  0.5488
  310MOL0     H41790   5.967   0.868   6.760  1.7239  0.5905  0.4135
  310MOL0     H41791   5.956   1.140   6.883 -0.7793 -1.7170  1.9051
  310MOL0     H41792   6.060   1.012   6.920  4.5915  2.0558 -0.1594
  310MOL0     H41793   6.152   1.064   6.662  2.4710 -2.3828  2.4509
  310MOL0     H41794   6.110   1.225   6.727  0.0750  1.1362  2.7797
  310MOL0     H41795   6.278   1.002   6.826  0.2747  0.0236 -0.8269
  310MOL0     H41796   6.358   1.135   6.752  1.5895 -4.3544  0.3452
  310MOL0     H41797   6.376   1.150   7.008 -1.8818 -3.2027  0.5670
  310MOL0     H41798   6.214   1.126   7.013  0.4764 -2.2340 -2.0974
  310MOL0     H41799   6.314   1.365   6.851  0.3767  2.5988  1.6933
  310MOL0     H41800   6.163   1.362   6.924  0.6591  1.5274 -2.3615
  310MOL0     H41801   6.521   1.297   7.100 -0.3443 -1.0196 -0.3084
  310MOL0     H41802   6.497   1.555   7.434  0.3847  0.3068  0.9008
  310MOL0     H41803   6.503   1.375   7.421  3.2987 -0.4000 -1.1530
  310MOL0     H41804   6.675   1.511   7.225  1.2151  0.4181  0.4104
  310MOL0     H41805   6.714   1.528   7.396 -1.0881  1.7388  0.1640
  310MOL0     H41806   6.660   1.243   7.330  0.0028 -0.4977  0.1139
  310MOL0     H41807   6.760   1.324   7.444 -1.2845  0.5409  0.2202
  310MOL0     H41808   6.850   1.389   7.162  0.1211  1.3452  1.2509
  310MOL0     H41809   6.840   1.220   7.169  0.9647  0.3111  0.2138
  310MOL0     H41810   7.049   1.305   7.062  0.9690 -1.6338 -2.5434
  310MOL0     H41811   7.277   1.267   6.995  0.4047 -3.0131  0.0078
  310MOL0     H41812   7.672   1.542   7.209  2.0852  0.7491  0.4083
  310MOL0     H41813   7.863   1.625   7.073  0.6275 -0.4333 -0.0523
  310MOL0     H41814   8.176   1.446   7.160 -3.3071  0.7143  0.0660
  310MOL0     H41815   8.175   1.307   7.047  0.2295 -0.2162  1.5122
  310MOL0     H41816   8.307   1.423   6.884  1.3098 -2.4413  0.6561
  310MOL0     H41817   8.308   1.577   6.972 -0.2708 -0.2409 -1.1914
  310MOL0     H41818   8.436   1.312   7.074 -0.4936  0.0658  0.8511
  310MOL0     H41819   8.512   1.434   6.997  0.1443 -0.8183 -1.4200
  310MOL0     H41820   8.362   1.454   7.263 -1.9740 -0.9503 -2.5204
  310MOL0     H41821   8.428   1.596   7.171 -0.2910  0.4244  1.1792
  310MOL0     H41822   8.654   1.427   7.176 -0.0293  0.3289  0.4341
  310MOL0     H41823   8.570   1.365   7.312 -2.1925  1.7175  1.2403
  310MOL0     H41824   8.617   1.663   7.305  0.4227  2.2395  2.1965
  310MOL0     H41825   8.557   1.571   7.441  0.0477  1.4193  0.6679
  310MOL0     H41826   8.832   1.572   7.287 -1.2114  0.8027 -0.8101
  310MOL0     H41827   8.825   1.484   7.445  3.7363  2.6887  0.8664
  310MOL0     H41828   8.785   1.779   7.391 -0.6084  1.0920  1.6098
  310MOL0     H41829   8.774   1.696   7.538 -2.3526 -0.5473 -1.2162
  310MOL0     H41830   7.991   1.236   6.997 -2.1931 -0.2067 -1.2129
  310MOL0     H41831   7.807   1.131   7.131 -3.4783 -0.2495 -0.8191
  310MOL0     H41832   7.411   1.234   7.391  4.3332  2.2126 -3.2152
  310MOL0     H41833   7.174   1.287   7.465 -1.2589  1.1921  0.3472
  310MOL0     H41834   5.656   0.558   6.765 -1.0324 -1.3022 -0.2421
  310MOL0     H41835   5.451   0.426   6.761 -1.5312  1.0594  0.7715
  310MOL0     H41836   5.017   0.365   6.695 -0.3296 -0.1223  0.1990
  310MOL0     H41837   4.798   0.285   6.697 -1.9467  1.1878 -0.6115
  310MOL0     H41838   4.594   0.182   6.306  1.4532 -2.1032  2.9966
  310MOL0     H41839   4.539   0.350   6.313 -0.6174  1.9622  2.0585
  310MOL0     H41840   4.331   0.219   6.314  0.3779 -1.2239 -1.5560
  310MOL0     H41841   4.366   0.295   6.475 -0.8406 -1.9187  1.3966
  310MOL0     H41842   4.380   0.104   6.577 -1.1245  1.5123 -0.1304
  310MOL0     H41843   4.469   0.018   6.451 -0.2898 -1.2361  1.1748
  310MOL0     H41844   4.270  -0.014   6.310  3.7030  1.0901 -0.2907
  310MOL0     H41845   4.280  -0.099   6.458  1.0118  0.1143 -0.0953
  310MOL0     H41846   3.925   0.110   6.511  0.3644 -1.0676  4.7245
  310MOL0     H41847   4.773   0.365   6.277 -0.7893 -3.3804  1.1783
  310MOL0     H41848   5.100   0.445   6.197  0.3185  0.7047  1.4067
  310MOL0     H41849   4.934   0.522   6.180 -0.7759  2.0530 -0.1062
  310MOL0     H41850   5.061   0.591   6.286  2.7632 -1.0792  1.1452
  311MOL0     O41851   8.905   4.553   3.114  1.1462  0.3632  0.4635
  311MOL0     C41852   8.990   4.463   3.113 -1.1424 -1.2660 -1.6918
  311MOL0     O41853   9.092   4.456   3.026  0.1782 -0.1525 -0.5833
  311MOL0     C41854   9.102   4.540   2.919 -0.3703  0.2619  0.8859
  311MOL0     C41855   9.089   4.488   2.789 -0.2079  1.1076 -0.3002
  311MOL0     C41856   9.104   4.571   2.680 -0.0077  0.2745  0.0459
  311MOL0     C41857   9.147   4.706   2.699  0.5356 -0.7414 -0.1221
  311MOL0     O41858   9.179   4.782   2.586  0.7393 -0.1460  0.7650
  311MOL0     C41859   9.315   4.826   2.556  1.3030 -0.3391  0.4438
  311MOL0     C41860   9.413   4.707   2.548 -0.3669 -0.9719  0.3986
  311MOL0     C41861   9.537   4.786   2.492 -0.1335  0.4129 -0.6616
  311MOL0     C41862   9.663   4.690   2.481  0.0303 -0.2091 -0.3181
  311MOL0     C41863   9.774   4.748   2.394 -0.2434 -0.5785 -0.2597
  311MOL0     C41864   9.908   4.675   2.416 -0.4598  0.0094 -0.6384
  311MOL0     C41865   9.887   4.531   2.375  0.2238 -0.1140  1.4569
  311MOL0     C41866  10.017   4.460   2.378  0.3051  0.4198 -0.6199
  311MOL0     N41867  10.068   4.450   2.514  0.6869  0.3450  0.4600
  311MOL0     C41868  10.029   4.349   2.603  0.2393 -0.1803  0.3207
  311MOL0     C41869  10.107   4.352   2.708  0.3692 -0.7947 -0.1192
  311MOL0     C41870  10.111   4.247   2.817 -0.1089  0.6508 -0.7529
  311MOL0     C41871  10.214   4.138   2.794 -0.2080  0.3285  0.4301
  311MOL0     C41872  10.366   4.195   2.769  0.9083  0.5664 -0.0871
  311MOL0     C41873  10.463   4.085   2.750 -0.3595  0.5991 -0.0391
  311MOL0     O41874  10.465   4.006   2.876 -0.2607 -0.1810  0.0233
  311MOL0     C41875  10.516   3.877   2.862 -0.2627 -1.6116  0.7819
  311MOL0     C41876  10.582   3.817   2.753  0.3985 -0.8843 -0.5725
  311MOL0     C41877  10.622   3.685   2.761 -0.1691  0.6215 -0.0169
  311MOL0     C41878  10.601   3.608   2.875 -0.5320  0.5668 -0.2433
  311MOL0     C41879  10.635   3.467   2.889 -0.3361 -0.5769  0.5376
  311MOL0     O41880  10.623   3.405   3.009 -0.3739 -0.1750  0.0645
  311MOL0     C41881  10.654   3.270   3.022  0.4971 -0.0157 -0.5637
  311MOL0     C41882  10.726   3.240   3.139  0.5314 -0.0626 -0.0944
  311MOL0     C41883  10.760   3.108   3.175  0.2158  0.3187  0.2428
  311MOL0     C41884  10.736   3.010   3.077 -0.0488 -0.3183 -0.5587
  311MOL0     O41885  10.776   2.880   3.105  0.2819 -0.1097 -0.4250
  311MOL0     C41886  10.896   2.867   3.190  0.4117 -0.4273  0.4802
  311MOL0     C41887  10.943   2.722   3.153  0.3490 -0.4713 -0.2850
  311MOL0     C41888  11.065   2.664   3.238  0.0419 -0.2631 -0.6305
  311MOL0     C41889  11.174   2.766   3.276 -0.2303  0.0242  0.3358
  311MOL0     C41890  11.171   2.813   3.421  0.0602 -0.8897  0.2079
  311MOL0     C41891  11.272   2.742   3.515  0.8742  0.2630 -0.8236
  311MOL0     C41892  11.218   2.597   3.538 -0.9466 -0.5780  0.1357
  311MOL0     C41893  11.267   2.537   3.679 -0.1501 -0.4733 -0.0787
  311MOL0    Cl41894  11.197   2.620   3.813  0.1296 -0.1752  0.4640
  311MOL0     C41895  10.666   3.045   2.960 -0.5114 -0.8493 -0.1861
  311MOL0     C41896  10.626   3.174   2.928  0.6671  0.5902  0.1726
  311MOL0     O41897  10.691   3.418   2.796  0.9326 -0.0620 -0.1579
  311MOL0     C41898  10.537   3.668   2.980 -0.1935 -0.2476  0.4087
  311MOL0     C41899  10.496   3.801   2.980 -0.8351  0.7981  0.5807
  311MOL0     N41900  10.197   4.459   2.684  0.2295  0.2203  0.9152
  311MOL0     N41901  10.174   4.516   2.568 -0.4866 -0.3916 -0.4893
  311MOL0     C41902   9.174   4.749   2.831 -0.3719 -0.6098 -0.7824
  311MOL0     C41903   9.150   4.670   2.937 -0.3506 -0.5794 -0.0534
  311MOL0     C41904   9.003   4.356   3.228  0.0990 -0.4409  0.2318
  311MOL0     C41905   9.109   4.261   3.227  0.5837  0.1859  0.0521
  311MOL0     C41906   9.124   4.169   3.328 -0.1602  1.1391 -0.3380
  311MOL0     C41907   9.028   4.168   3.435  0.5348  0.8600  0.7133
  311MOL0     O41908   9.050   4.078   3.536 -0.4543 -0.7710 -0.4903
  311MOL0     C41909   9.015   4.123   3.666 -0.2696  0.0463  0.4444
  311MOL0     C41910   9.128   4.080   3.765 -0.0380 -0.5924  0.3677
  311MOL0     C41911   9.235   4.184   3.774 -0.9137 -0.0425 -0.6449
  311MOL0     C41912   9.199   4.315   3.839  0.6858 -0.9074  0.1045
  311MOL0     C41913   9.113   4.293   3.958 -1.2968  0.0926  0.7743
  311MOL0     C41914   9.057   4.268   4.059 -0.4345 -0.0253  0.1674
  311MOL0     C41915   8.917   4.249   3.429  1.3111 -0.0223  0.3837
  311MOL0     C41916   8.905   4.350   3.326  0.5592  0.1325  0.0193
  311MOL0     C41917   8.776   4.432   3.335 -0.1661 -0.6759  0.0888
  311MOL0     H41918   9.071   4.382   2.778 -0.8671  1.1329  0.5122
  311MOL0     H41919   9.092   4.548   2.575  2.5695 -0.7563 -0.0917
  311MOL0     H41920   9.294   4.886   2.467 -2.4306 -1.4159  0.4254
  311MOL0     H41921   9.345   4.878   2.648 -0.1857 -2.1243  2.0194
  311MOL0     H41922   9.379   4.621   2.489  0.9407 -1.9271  0.9932
  311MOL0     H41923   9.426   4.677   2.653  2.5453 -1.8779 -0.1351
  311MOL0     H41924   9.574   4.868   2.554  1.2687  0.0214 -0.9278
  311MOL0     H41925   9.509   4.817   2.391  5.2526 -2.7885 -3.6479
  311MOL0     H41926   9.692   4.663   2.583 -1.4866 -3.2178 -0.5705
  311MOL0     H41927   9.621   4.596   2.446 -1.5388 -0.8328  2.8672
  311MOL0     H41928   9.747   4.760   2.289  3.4649  1.2441 -1.1607
  311MOL0     H41929   9.792   4.852   2.422 -1.9088  0.7397 -3.6000
  311MOL0     H41930   9.977   4.716   2.342  0.7668 -0.5212  0.1701
  311MOL0     H41931   9.944   4.678   2.520  0.7162  0.9898 -1.0402
  311MOL0     H41932   9.846   4.536   2.274  0.8876 -1.4726  1.1128
  311MOL0     H41933   9.820   4.467   2.434 -0.3406  0.0390  0.9965
  311MOL0     H41934  10.007   4.364   2.327  0.6897 -0.4925  0.9579
  311MOL0     H41935  10.092   4.514   2.319  2.7476 -1.1896  0.8190
  311MOL0     H41936   9.960   4.270   2.577  1.9935 -1.1489 -1.7962
  311MOL0     H41937  10.128   4.293   2.914 -3.2854 -0.4230  0.4314
  311MOL0     H41938  10.012   4.202   2.824 -0.0623  0.6795  0.1997
  311MOL0     H41939  10.211   4.083   2.888 -0.6379  2.0185  1.4329
  311MOL0     H41940  10.185   4.072   2.711  1.8657  1.3552 -1.2145
  311MOL0     H41941  10.401   4.262   2.848  0.8905  2.0488 -1.2917
  311MOL0     H41942  10.368   4.253   2.676 -0.9954  0.1627 -0.4290
  311MOL0     H41943  10.564   4.118   2.726  0.5531 -1.6139  0.5044
  311MOL0     H41944  10.426   4.022   2.668 -2.7884  5.3119 -2.9746
  311MOL0     H41945  10.605   3.870   2.661  2.4859 -1.9487 -0.7269
  311MOL0     H41946  10.670   3.645   2.673 -0.3372 -1.4801  0.7854
  311MOL0     H41947  10.751   3.309   3.219 -1.4786  0.0921  0.4655
  311MOL0     H41948  10.793   3.084   3.275 -1.6965 -4.1111  0.0384
  311MOL0     H41949  10.976   2.937   3.166  0.6724 -1.2947 -1.3978
  311MOL0     H41950  10.875   2.872   3.297  5.5008 -0.6295  1.7119
  311MOL0     H41951  10.865   2.648   3.175  1.1567 -0.9728  1.0244
  311MOL0     H41952  10.971   2.730   3.047  1.5022  2.2051  0.1368
  311MOL0     H41953  11.024   2.623   3.331 -1.9823 -0.5331 -1.5847
  311MOL0     H41954  11.115   2.575   3.199  0.0325  0.0665 -1.4044
  311MOL0     H41955  11.161   2.859   3.221 -0.8006  0.2361  0.8169
  311MOL0     H41956  11.265   2.708   3.259  0.1511  0.6411  0.2391
  311MOL0     H41957  11.073   2.803   3.468 -0.3253 -6.4140 -1.0949
  311MOL0     H41958  11.202   2.918   3.429  4.0171 -2.0847  4.5670
  311MOL0     H41959  11.371   2.738   3.469  0.0376 -1.7812 -2.6037
  311MOL0     H41960  11.280   2.800   3.607  1.7705 -1.5795  0.3267
  311MOL0     H41961  11.233   2.529   3.454 -0.8880 -2.4705  1.6146
  311MOL0     H41962  11.109   2.604   3.534 -0.9540  0.5754  1.6492
  311MOL0     H41963  11.236   2.433   3.691 -1.2941 -0.2503 -0.8898
  311MOL0     H41964  11.375   2.533   3.691 -0.0335 -1.6282 -1.3293
  311MOL0     H41965  10.652   2.963   2.890 -0.7073 -0.4780 -0.5885
  311MOL0     H41966  10.569   3.188   2.836  0.5254 -3.7178 -0.5988
  311MOL0     H41967  10.524   3.614   3.074  2.0987  1.6454  1.9229
  311MOL0     H41968  10.442   3.838   3.067  0.0841  0.1795  1.4385
  311MOL0     H41969   9.230   4.841   2.846  2.1620 -1.8318 -2.1230
  311MOL0     H41970   9.182   4.695   3.038  0.1467 -2.6477  0.3556
  311MOL0     H41971   9.192   4.281   3.160  0.7678  2.4497  0.8832
  311MOL0     H41972   9.211   4.105   3.334  0.8269  1.8944 -3.9508
  311MOL0     H41973   8.920   4.075   3.691 -1.9256  2.2664 -1.1834
  311MOL0     H41974   9.008   4.232   3.673  0.2688  0.4312 -2.9631
  311MOL0     H41975   9.178   3.992   3.726  0.1726 -0.0416 -0.6497
  311MOL0     H41976   9.087   4.040   3.858 -1.0561  0.7060  0.5055
  311MOL0     H41977   9.276   4.197   3.674 -3.0778  1.6415 -1.3937
  311MOL0     H41978   9.314   4.136   3.833  0.0160  1.9785 -0.1386
  311MOL0     H41979   9.280   4.376   3.881  1.4626 -0.3323 -2.1055
  311MOL0     H41980   9.151   4.394   3.780 -1.6842  0.3706  3.3900
  311MOL0     H41981   9.011   4.237   4.150 -0.8942  0.6546  0.1773
  311MOL0     H41982   8.846   4.229   3.509  0.4267 -0.1837 -0.4288
  311MOL0     H41983   8.728   4.415   3.432 -1.2851  1.9618  0.0960
  311MOL0     H41984   8.788   4.541   3.334  2.9073 -0.9337 -1.6074
  311MOL0     H41985   8.710   4.411   3.250 -1.1483  0.8769  0.4184
  312MOL0     O41986  11.120   1.964   1.651  0.0109 -0.6689 -0.2112
  312MOL0     C41987  11.200   1.993   1.744 -0.3823  0.0184  0.2549
  312MOL0     O41988  11.220   1.911   1.854  0.5907 -0.4412 -0.3967
  312MOL0     C41989  11.131   1.816   1.891  0.4169  0.0575  0.2277
  312MOL0     C41990  11.187   1.686   1.916 -0.1925 -0.9723  0.2119
  312MOL0     C41991  11.109   1.574   1.938 -0.4149 -0.0006  0.1596
  312MOL0     C41992  10.974   1.588   1.944  0.9954  0.0887  0.0625
  312MOL0     O41993  10.895   1.468   1.951  0.0166  0.1848  0.0257
  312MOL0     C41994  10.943   1.343   1.904  0.1459  0.6531 -0.5109
  312MOL0     C41995  10.996   1.260   2.023 -0.0987 -0.2298 -0.8572
  312MOL0     C41996  10.878   1.225   2.134 -0.1067  0.4858  0.7375
  312MOL0     C41997  10.934   1.232   2.275 -0.5577 -0.4826 -0.4896
  312MOL0     C41998  10.816   1.241   2.385  0.2188  0.3864 -0.4520
  312MOL0     C41999  10.746   1.371   2.392  0.3142  0.0115  0.1281
  312MOL0     C42000  10.603   1.356   2.318  1.7485 -0.1650  0.6955
  312MOL0     C42001  10.557   1.484   2.236  0.2417  0.7323  0.8050
  312MOL0     N42002  10.530   1.607   2.314  0.8877 -0.1648 -0.7453
  312MOL0     C42003  10.408   1.635   2.372 -1.0432  0.6981  0.3007
  312MOL0     C42004  10.424   1.762   2.421  0.0878  0.9939  0.3244
  312MOL0     C42005  10.341   1.836   2.507 -0.4789  0.0737  0.4500
  312MOL0     C42006  10.307   1.984   2.440 -0.1385  0.4794  0.3588
  312MOL0     C42007  10.227   1.959   2.301 -0.2362 -0.0989  0.8338
  312MOL0     C42008  10.203   2.097   2.242  1.6356 -0.3816 -0.2060
  312MOL0     O42009  10.323   2.164   2.198 -0.1315 -0.7646  0.1812
  312MOL0     C42010  10.314   2.289   2.143  0.6672 -0.1690 -0.4789
  312MOL0     C42011  10.434   2.350   2.109  0.0670  0.1041 -1.1366
  312MOL0     C42012  10.444   2.487   2.067  0.1665 -0.2945  0.5717
  312MOL0     C42013  10.322   2.567   2.058  0.9618 -0.2376  0.8155
  312MOL0     C42014  10.324   2.710   2.016 -0.7128  0.5592 -0.3184
  312MOL0     O42015  10.205   2.761   1.961 -0.4076  0.3479 -0.0162
  312MOL0     C42016  10.211   2.897   1.927  0.4092 -0.4456  0.8960
  312MOL0     C42017  10.122   2.983   1.989 -0.9292  0.2570 -0.0680
  312MOL0     C42018  10.117   3.117   1.945  0.9875  0.8990 -0.4922
  312MOL0     C42019  10.201   3.161   1.852  0.2566  0.0065  0.6638
  312MOL0     O42020  10.182   3.287   1.809  0.1997 -0.3349 -0.7214
  312MOL0     C42021  10.301   3.372   1.792  0.5659  0.7815 -0.5523
  312MOL0     C42022  10.277   3.525   1.810  1.2827  0.2658 -0.5237
  312MOL0     C42023  10.417   3.579   1.820  0.4861 -0.6561  0.0525
  312MOL0     C42024  10.408   3.735   1.828 -0.3022 -0.0795 -0.1634
  312MOL0     C42025  10.547   3.798   1.861 -0.3247 -0.3897  0.1938
  312MOL0     C42026  10.583   3.921   1.793  0.8367  0.3529  0.2185
  312MOL0     C42027  10.463   4.018   1.801 -0.8834  0.1010 -0.8529
  312MOL0     C42028  10.513   4.171   1.793 -0.8748  0.4980  0.1804
  312MOL0    Cl42029  10.383   4.282   1.832  0.3974  0.6724 -0.1117
  312MOL0     C42030  10.300   3.086   1.802 -0.1355 -0.4864  0.2066
  312MOL0     C42031  10.301   2.945   1.834 -0.0626  0.9465 -0.5677
  312MOL0     O42032  10.439   2.771   2.025 -0.0133  0.1558 -0.6687
  312MOL0     C42033  10.202   2.508   2.101  0.0311  0.8169  1.0003
  312MOL0     C42034  10.203   2.377   2.135  0.2973  0.0249 -0.1533
  312MOL0     N42035  10.544   1.807   2.378  1.0282  0.3152  0.4210
  312MOL0     N42036  10.606   1.714   2.313 -0.0079  0.2541  0.7152
  312MOL0     C42037  10.914   1.714   1.928 -0.5932 -0.0233  0.2027
  312MOL0     C42038  10.988   1.832   1.905  0.5647 -0.3974 -0.3969
  312MOL0     C42039  11.308   2.101   1.713  0.8405 -0.0310  0.3158
  312MOL0     C42040  11.418   2.113   1.797 -0.0788  0.1925 -0.4421
  312MOL0     C42041  11.524   2.202   1.775  0.0985 -1.3550 -1.0127
  312MOL0     C42042  11.530   2.283   1.658  0.5295 -0.2930  0.2018
  312MOL0     O42043  11.624   2.372   1.615  0.7280  0.3182 -0.2813
  312MOL0     C42044  11.758   2.384   1.671 -0.0509  0.0470 -0.3094
  312MOL0     C42045  11.745   2.486   1.791 -0.5054  0.9058 -0.3627
  312MOL0     C42046  11.724   2.629   1.757  0.1483  0.9172  0.5304
  312MOL0     C42047  11.586   2.657   1.713  0.0479 -0.0027 -0.2672
  312MOL0     C42048  11.572   2.803   1.732  0.3597 -0.3041 -0.2298
  312MOL0     C42049  11.565   2.925   1.752 -0.6540 -1.1496  0.5721
  312MOL0     C42050  11.415   2.269   1.574 -0.0090 -0.2567 -0.3186
  312MOL0     C42051  11.309   2.184   1.598 -0.5649 -0.0777  0.3182
  312MOL0     C42052  11.202   2.173   1.491 -0.1972 -1.1208  0.1963
  312MOL0     H42053  11.295   1.675   1.916 -0.0846  0.0110  0.9548
  312MOL0     H42054  11.154   1.478   1.965  0.6449  0.2346 -0.7356
  312MOL0     H42055  10.869   1.277   1.858 -0.6417  1.9406 -1.1474
  312MOL0     H42056  11.031   1.347   1.838 -0.2412 -0.9088 -1.1805
  312MOL0     H42057  11.068   1.320   2.080 -2.4991  1.2405  0.8386
  312MOL0     H42058  11.055   1.177   1.984  2.6666  1.3094 -0.1947
  312MOL0     H42059  10.837   1.128   2.105 -0.8170  1.2867 -1.0942
  312MOL0     H42060  10.800   1.300   2.121 -1.6686 -1.2584 -0.4400
  312MOL0     H42061  10.993   1.141   2.291 -0.5923 -0.7565 -1.8227
  312MOL0     H42062  11.004   1.315   2.287  1.8650 -2.7679  3.3906
  312MOL0     H42063  10.755   1.152   2.366 -0.2471  0.3739  1.0063
  312MOL0     H42064  10.870   1.223   2.478 -2.3814 -2.8133  0.6051
  312MOL0     H42065  10.718   1.394   2.495 -3.2188  2.1384 -1.1107
  312MOL0     H42066  10.812   1.446   2.350  0.2859  0.2077  0.4362
  312MOL0     H42067  10.521   1.337   2.387  1.9183  1.3441  1.3515
  312MOL0     H42068  10.609   1.280   2.240  0.1614  0.5829 -0.2045
  312MOL0     H42069  10.635   1.502   2.161  0.2909 -1.6183  0.1960
  312MOL0     H42070  10.466   1.460   2.180  1.1173  1.3400 -0.9414
  312MOL0     H42071  10.330   1.560   2.386 -1.0851  0.6767 -0.0503
  312MOL0     H42072  10.247   1.781   2.516 -0.4195 -0.1926 -0.4659
  312MOL0     H42073  10.387   1.846   2.606 -0.5430  2.7193  0.2822
  312MOL0     H42074  10.249   2.033   2.519  2.1063  1.2481  1.6120
  312MOL0     H42075  10.396   2.047   2.432 -1.2244  2.0912  0.5815
  312MOL0     H42076  10.128   1.912   2.304 -0.3084 -0.1076 -0.8232
  312MOL0     H42077  10.293   1.906   2.232  1.7821  2.4854  0.6100
  312MOL0     H42078  10.143   2.153   2.314 -0.9387  1.9474 -3.8481
  312MOL0     H42079  10.140   2.095   2.153  0.8772 -0.7423  0.3258
  312MOL0     H42080  10.527   2.297   2.123  0.6895  1.2132 -0.9843
  312MOL0     H42081  10.543   2.523   2.043  0.5517 -1.8021 -0.2126
  312MOL0     H42082  10.060   2.945   2.070  0.3340 -1.6137  0.0724
  312MOL0     H42083  10.043   3.182   1.992  0.4023  1.4355 -2.0645
  312MOL0     H42084  10.380   3.339   1.859  0.4028  0.6500 -0.4258
  312MOL0     H42085  10.325   3.373   1.685 -3.5016  1.1906 -1.6261
  312MOL0     H42086  10.222   3.567   1.725  0.1544  0.2986  0.1990
  312MOL0     H42087  10.220   3.537   1.903 -1.4569 -0.6948 -1.9487
  312MOL0     H42088  10.453   3.554   1.920 -0.8742  0.8968  0.9892
  312MOL0     H42089  10.477   3.560   1.731  0.1509  0.8818 -0.5319
  312MOL0     H42090  10.336   3.783   1.895 -0.5667  0.5457 -0.8958
  312MOL0     H42091  10.381   3.765   1.727  2.2201  0.0681 -0.8752
  312MOL0     H42092  10.627   3.723   1.864  0.9018  0.7798 -1.3758
  312MOL0     H42093  10.536   3.831   1.964  1.8120 -0.4501  0.4889
  312MOL0     H42094  10.656   3.964   1.862 -1.5149  1.3447  2.2559
  312MOL0     H42095  10.605   3.908   1.687 -0.0890 -2.8648  0.3221
  312MOL0     H42096  10.409   4.005   1.895  1.7994  2.2869  1.1624
  312MOL0     H42097  10.396   4.010   1.715 -0.4840 -1.0296 -1.0832
  312MOL0     H42098  10.594   4.179   1.865 -0.7005 -0.5224  0.1090
  312MOL0     H42099  10.539   4.197   1.690  1.3150 -0.7626  0.3743
  312MOL0     H42100  10.371   3.113   1.724 -0.8837 -0.4674 -0.4796
  312MOL0     H42101  10.356   2.872   1.775 -2.5233  0.3899 -2.3161
  312MOL0     H42102  10.111   2.566   2.114 -1.5501 -1.3113  0.0785
  312MOL0     H42103  10.109   2.337   2.170  0.2158 -0.4542 -0.8946
  312MOL0     H42104  10.805   1.720   1.929 -0.5728  0.3623  1.1641
  312MOL0     H42105  10.932   1.922   1.883  0.2935  0.0971  2.0394
  312MOL0     H42106  11.436   2.053   1.885  0.3801  2.2282  0.9281
  312MOL0     H42107  11.611   2.200   1.840  0.5132 -0.9623 -1.5392
  312MOL0     H42108  11.818   2.424   1.588 -0.7656  0.7591 -0.4906
  312MOL0     H42109  11.808   2.292   1.704  1.6225  0.1250 -2.3451
  312MOL0     H42110  11.838   2.476   1.847 -0.1215  2.9655 -0.5752
  312MOL0     H42111  11.660   2.458   1.854 -1.3113  0.2156 -1.7025
  312MOL0     H42112  11.802   2.661   1.687 -0.9981  1.4463 -0.5321
  312MOL0     H42113  11.737   2.666   1.859 -0.6343 -0.0465  0.9919
  312MOL0     H42114  11.574   2.649   1.605  1.8393  2.1408 -0.6892
  312MOL0     H42115  11.508   2.600   1.765  2.7260 -3.3388  0.4455
  312MOL0     H42116  11.564   3.032   1.749  0.0122 -1.1177  1.1473
  312MOL0     H42117  11.432   2.313   1.476  2.4314 -1.7298 -0.6384
  312MOL0     H42118  11.215   2.096   1.414  5.1197  1.3763 -1.9059
  312MOL0     H42119  11.099   2.163   1.527 -0.6295 -2.8440 -1.3485
  312MOL0     H42120  11.206   2.264   1.430  0.0148 -2.3742 -1.7388
  313MOL0     O42121   7.180   9.346   1.734  0.2719  0.8086  0.0250
  313MOL0     C42122   7.125   9.254   1.784 -0.1863 -0.2906  0.6744
  313MOL0     O42123   7.158   9.119   1.761 -0.0420 -0.4731 -0.3968
  313MOL0     C42124   7.289   9.090   1.796  0.0805  0.1351 -0.5395
  313MOL0     C42125   7.310   9.040   1.924 -0.3009  0.7407  0.5033
  313MOL0     C42126   7.440   9.030   1.980 -0.0005 -0.0523 -0.1236
  313MOL0     C42127   7.553   9.056   1.899  0.0202 -0.0315  1.1151
  313MOL0     O42128   7.688   9.042   1.947  0.1249  0.2536  0.2993
  313MOL0     C42129   7.799   9.033   1.855  0.0275  0.3075  0.3253
  313MOL0     C42130   7.913   8.939   1.903  0.1321  0.3001 -0.3414
  313MOL0     C42131   7.867   8.789   1.901  0.4597  0.5159  0.1962
  313MOL0     C42132   7.976   8.680   1.892  0.3930 -0.0475 -0.0637
  313MOL0     C42133   7.919   8.529   1.885  0.6081 -0.7033 -0.2508
  313MOL0     C42134   8.035   8.435   1.861 -0.8370 -0.0310  0.6436
  313MOL0     C42135   8.009   8.277   1.860  0.3507 -0.3740 -0.2583
  313MOL0     C42136   7.945   8.240   1.728 -0.2734 -0.0553  0.0843
  313MOL0     N42137   8.033   8.220   1.607 -0.1158  0.1097 -0.2900
  313MOL0     C42138   8.118   8.116   1.589  0.6727 -0.2093  0.6667
  313MOL0     C42139   8.159   8.127   1.458 -0.4819  0.4175 -0.2606
  313MOL0     C42140   8.237   8.025   1.375  0.5003 -0.4791 -0.0233
  313MOL0     C42141   8.385   8.064   1.362  0.9892  0.3880 -0.5670
  313MOL0     C42142   8.395   8.172   1.259 -0.2013 -0.8810 -0.0634
  313MOL0     C42143   8.533   8.209   1.256 -0.3010  0.4665 -0.1469
  313MOL0     O42144   8.560   8.305   1.151  0.9568 -0.3888 -0.0869
  313MOL0     C42145   8.479   8.410   1.147 -0.4877 -0.9185  0.1053
  313MOL0     C42146   8.446   8.449   1.011 -0.3971 -0.2748  0.0397
  313MOL0     C42147   8.385   8.573   0.990  0.1406  0.9997 -0.2449
  313MOL0     C42148   8.356   8.653   1.103  0.3306  0.0736  1.1203
  313MOL0     C42149   8.296   8.792   1.081 -0.3805 -0.0877 -0.3689
  313MOL0     O42150   8.242   8.864   1.184 -0.3223 -0.8905 -0.1094
  313MOL0     C42151   8.225   9.000   1.166  0.6539  0.9165 -0.2098
  313MOL0     C42152   8.136   9.069   1.253 -0.4318  0.5156 -0.9305
  313MOL0     C42153   8.133   9.213   1.253  0.9917 -1.0074  0.4857
  313MOL0     C42154   8.212   9.298   1.169 -1.1610  0.0234  0.4102
  313MOL0     O42155   8.239   9.433   1.176  0.2879 -0.5216 -0.0686
  313MOL0     C42156   8.162   9.510   1.264 -0.0755 -0.4068 -0.4496
  313MOL0     C42157   8.242   9.555   1.377  0.5756 -0.5680 -0.0043
  313MOL0     C42158   8.179   9.669   1.454 -0.8122  0.9768  1.4953
  313MOL0     C42159   8.271   9.730   1.566  1.2858  0.2508 -0.0000
  313MOL0     C42160   8.202   9.859   1.606 -0.4524  0.1663  0.0069
  313MOL0     C42161   8.277   9.938   1.714 -0.3298 -0.3884  0.4129
  313MOL0     C42162   8.277   9.877   1.853  0.3689 -0.4051  0.0522
  313MOL0     C42163   8.326   9.970   1.967 -0.9875 -0.6268  0.1180
  313MOL0    Cl42164   8.503  10.001   1.945  0.0256 -0.1713 -0.3158
  313MOL0     C42165   8.302   9.219   1.081  0.1972 -0.0385 -0.1578
  313MOL0     C42166   8.310   9.084   1.082 -0.3086  0.3162 -0.5164
  313MOL0     O42167   8.316   8.832   0.966 -0.0922 -0.2361  0.3630
  313MOL0     C42168   8.372   8.617   1.233 -0.1676  0.0851 -0.7919
  313MOL0     C42169   8.442   8.496   1.256  0.8522  0.1236 -0.4737
  313MOL0     N42170   8.137   8.254   1.425 -0.2380 -0.4398  0.2161
  313MOL0     N42171   8.043   8.304   1.502 -0.5086 -0.6136 -0.3927
  313MOL0     C42172   7.532   9.102   1.765 -0.1501  0.1245 -0.4242
  313MOL0     C42173   7.398   9.123   1.723  0.2683 -0.1137 -0.6398
  313MOL0     C42174   6.986   9.276   1.842  0.3771 -0.6089  0.3618
  313MOL0     C42175   6.934   9.173   1.926 -0.6120 -0.5473  1.0450
  313MOL0     C42176   6.812   9.188   1.978  0.5609 -0.3013 -0.2264
  313MOL0     C42177   6.737   9.297   1.961  0.0911 -0.8497 -0.6712
  313MOL0     O42178   6.617   9.299   2.025 -0.1821 -0.2259 -0.4983
  313MOL0     C42179   6.513   9.389   1.997 -0.8178 -0.3739  0.2155
  313MOL0     C42180   6.388   9.315   2.003  0.6393  0.4422  0.6500
  313MOL0     C42181   6.389   9.228   2.129  0.4969  0.3454  0.7218
  313MOL0     C42182   6.254   9.148   2.151  0.2169 -0.3150  0.3135
  313MOL0     C42183   6.244   9.028   2.064 -0.2931 -1.6829 -1.1600
  313MOL0     C42184   6.254   8.933   1.993  0.6993  0.0038  0.4393
  313MOL0     C42185   6.798   9.406   1.893 -0.2092  0.5377 -0.5812
  313MOL0     C42186   6.920   9.394   1.832  0.1411  0.0669 -0.0723
  313MOL0     C42187   6.953   9.515   1.741 -0.4211 -0.7226  0.0622
  313MOL0     H42188   7.229   9.035   1.997 -0.1903 -1.3636  0.5407
  313MOL0     H42189   7.463   9.008   2.084 -0.2774 -0.8787 -0.2267
  313MOL0     H42190   7.767   9.013   1.752 -1.3458 -0.1454  0.8172
  313MOL0     H42191   7.852   9.128   1.844 -2.2904  1.6874  0.3973
  313MOL0     H42192   7.948   8.971   2.001 -0.6731  1.6207 -0.4675
  313MOL0     H42193   7.996   8.960   1.835 -0.8218  1.9362 -1.0657
  313MOL0     H42194   7.794   8.768   1.821 -0.0598  1.9095  0.2891
  313MOL0     H42195   7.803   8.767   1.987  1.4558 -1.5778  0.4624
  313MOL0     H42196   8.050   8.702   1.814 -3.7883  0.7389 -4.2151
  313MOL0     H42197   8.028   8.681   1.989  1.0026 -3.0021 -0.2479
  313MOL0     H42198   7.859   8.522   1.976 -2.2497  0.0709 -1.9409
  313MOL0     H42199   7.859   8.529   1.793  0.9715  0.7028 -0.5219
  313MOL0     H42200   8.088   8.460   1.769 -0.1336  0.2783  1.1238
  313MOL0     H42201   8.106   8.463   1.940  0.0306 -0.2790 -0.0304
  313MOL0     H42202   7.951   8.244   1.946  1.8615  2.1289  1.8694
  313MOL0     H42203   8.098   8.215   1.871 -1.1904 -3.1688 -2.1896
  313MOL0     H42204   7.892   8.144   1.730  4.1653 -2.8556 -1.7640
  313MOL0     H42205   7.873   8.317   1.702 -0.8723 -1.3111 -2.2839
  313MOL0     H42206   8.144   8.034   1.656  2.6598 -0.9518 -0.9023
  313MOL0     H42207   8.235   7.936   1.440 -1.9183  0.1281  0.8099
  313MOL0     H42208   8.193   8.003   1.277  3.1222 -0.0988 -1.3691
  313MOL0     H42209   8.408   8.103   1.461 -0.2628 -0.0324 -0.0936
  313MOL0     H42210   8.455   7.986   1.331  0.6184  0.4734 -1.6810
  313MOL0     H42211   8.333   8.257   1.288 -0.7185 -1.0032 -0.7628
  313MOL0     H42212   8.370   8.138   1.158 -0.3476  3.0355 -1.5088
  313MOL0     H42213   8.597   8.124   1.232 -1.4959 -0.1299 -1.3780
  313MOL0     H42214   8.577   8.239   1.351  1.1841 -0.8875 -0.3692
  313MOL0     H42215   8.470   8.388   0.924  2.4119 -1.9798  1.8206
  313MOL0     H42216   8.370   8.603   0.887 -1.7658  2.5067  0.3980
  313MOL0     H42217   8.075   9.008   1.319 -0.2315  1.8701  0.5648
  313MOL0     H42218   8.060   9.253   1.324  0.5807  1.0649 -1.0192
  313MOL0     H42219   8.131   9.602   1.213 -1.0190 -1.0743 -1.1060
  313MOL0     H42220   8.064   9.478   1.301 -0.0883 -0.1951 -0.2965
  313MOL0     H42221   8.265   9.467   1.438  1.7432 -0.9130 -0.9003
  313MOL0     H42222   8.340   9.588   1.341  1.1542  0.2871  2.2164
  313MOL0     H42223   8.146   9.747   1.384 -1.4629 -2.4636 -2.3987
  313MOL0     H42224   8.086   9.631   1.497 -2.1436  0.6284 -1.4324
  313MOL0     H42225   8.368   9.749   1.520  0.7797 -0.2642 -1.3231
  313MOL0     H42226   8.282   9.659   1.648  0.5302 -0.5887 -0.6089
  313MOL0     H42227   8.110   9.815   1.644  1.0404 -2.4716  0.7881
  313MOL0     H42228   8.176   9.923   1.521 -2.9130  0.5990  1.0054
  313MOL0     H42229   8.380   9.966   1.690 -0.7701  1.9370  0.9751
  313MOL0     H42230   8.228  10.035   1.720 -0.7335 -0.4096 -1.7416
  313MOL0     H42231   8.336   9.785   1.846  1.9337  0.4841  0.9639
  313MOL0     H42232   8.173   9.856   1.880 -0.0050  0.3405 -0.7455
  313MOL0     H42233   8.271  10.065   1.963  0.8176  0.4630  0.2521
  313MOL0     H42234   8.305   9.925   2.065 -0.1414  0.8819  1.0358
  313MOL0     H42235   8.365   9.265   1.006  1.1813  0.4583  0.9412
  313MOL0     H42236   8.387   9.052   1.013 -1.1508 -0.8284 -0.9545
  313MOL0     H42237   8.344   8.673   1.322  3.1326 -0.2061  0.5886
  313MOL0     H42238   8.481   8.465   1.352  1.7576  0.4756 -0.7186
  313MOL0     H42239   7.619   9.129   1.706  2.6826 -4.2099  1.2660
  313MOL0     H42240   7.379   9.153   1.621  0.0938 -0.2259 -0.6405
  313MOL0     H42241   6.991   9.082   1.941  0.1133 -0.1146  0.9633
  313MOL0     H42242   6.787   9.100   2.037  1.5945 -1.6328 -1.7033
  313MOL0     H42243   6.533   9.431   1.898 -1.7396 -0.8228 -0.1623
  313MOL0     H42244   6.521   9.483   2.054  2.4839  0.6298 -1.6012
  313MOL0     H42245   6.382   9.243   1.921  0.4209  1.9458 -0.6980
  313MOL0     H42246   6.309   9.390   1.989  1.5676  1.1062 -1.2979
  313MOL0     H42247   6.401   9.300   2.210 -0.1010  2.2226 -0.8058
  313MOL0     H42248   6.469   9.153   2.130 -0.4880 -0.7502  0.2633
  313MOL0     H42249   6.244   9.122   2.257 -0.9691  0.5277  0.4246
  313MOL0     H42250   6.168   9.211   2.126  1.0576 -0.0829 -2.2559
  313MOL0     H42251   6.263   8.841   1.938 -2.5762  1.9195 -3.8095
  313MOL0     H42252   6.734   9.494   1.886  0.9275  1.6373  1.5643
  313MOL0     H42253   6.861   9.572   1.723  1.8985  2.4381 -3.2334
  313MOL0     H42254   7.024   9.589   1.781 -2.1046  1.9533 -1.5618
  313MOL0     H42255   6.995   9.471   1.650 -3.6923  2.1335 -3.1430
  314MOL0     O42256  10.203  10.058   6.778 -0.4190  0.1275  0.2033
  314MOL0     C42257  10.122   9.990   6.720 -0.7929 -1.0349 -0.0756
  314MOL0     O42258  10.053  10.038   6.616  0.3499  0.1502 -0.1612
  314MOL0     C42259  10.039  10.176   6.594  0.3286  0.3498 -0.3367
  314MOL0     C42260  10.017  10.278   6.687 -0.2582 -0.2478 -0.6244
  314MOL0     C42261  10.003  10.411   6.648 -0.1629  0.4526 -0.2062
  314MOL0     C42262   9.998  10.454   6.514  0.4765 -0.5372  0.5596
  314MOL0     O42263   9.954  10.577   6.470  0.1173  0.0668 -0.5603
  314MOL0     C42264   9.930  10.668   6.574  0.2294 -0.5428  1.1805
  314MOL0     C42265   9.906  10.802   6.502  0.0692  0.1745 -0.2200
  314MOL0     C42266   9.929  10.918   6.592 -0.2192  0.1810 -0.7126
  314MOL0     C42267   9.941  11.052   6.519 -0.2063 -0.0683  0.5966
  314MOL0     C42268   9.828  11.068   6.415 -1.2440  0.1283  0.3914
  314MOL0     C42269   9.802  11.223   6.393  0.4220  0.5291 -0.7458
  314MOL0     C42270   9.672  11.222   6.307 -0.5854 -0.0868 -0.4694
  314MOL0     C42271   9.668  11.364   6.244  0.1980 -0.9319 -0.3373
  314MOL0     N42272   9.691  11.357   6.099  0.6319 -0.1454 -0.0094
  314MOL0     C42273   9.627  11.289   6.003  0.0752 -0.3930  1.0700
  314MOL0     C42274   9.698  11.318   5.885  0.3748  0.7747  0.1251
  314MOL0     C42275   9.680  11.255   5.749 -0.2023  0.1851 -0.3592
  314MOL0     C42276   9.599  11.348   5.672 -0.6065  0.4024  0.2762
  314MOL0     C42277   9.572  11.305   5.535 -0.2675 -0.1045  0.1510
  314MOL0     C42278   9.534  11.427   5.439  0.3573 -1.1916  0.7661
  314MOL0     O42279   9.643  11.491   5.379 -0.3480 -0.5115 -0.0658
  314MOL0     C42280   9.628  11.614   5.326  0.6788  0.0388  0.1282
  314MOL0     C42281   9.745  11.660   5.263  0.8067 -0.5332  0.5444
  314MOL0     C42282   9.748  11.779   5.191  0.3521 -0.4234  0.0125
  314MOL0     C42283   9.627  11.853   5.188 -0.4684  0.2028  1.0187
  314MOL0     C42284   9.627  11.984   5.112 -0.7418  0.3846  0.3913
  314MOL0     O42285   9.748  12.027   5.064 -0.7084 -0.0890  0.0338
  314MOL0     C42286   9.760  12.143   4.989 -0.1174  0.2896  0.0570
  314MOL0     C42287   9.668  12.187   4.894 -0.5023 -1.5171  0.6033
  314MOL0     C42288   9.689  12.308   4.819 -0.1819 -1.1279  0.0134
  314MOL0     C42289   9.800  12.386   4.847  0.5361  0.0843  0.1373
  314MOL0     O42290   9.848  12.502   4.795  0.1697 -0.2786 -0.1208
  314MOL0     C42291   9.763  12.577   4.705  0.4504  0.1292  0.8395
  314MOL0     C42292   9.835  12.706   4.673  0.6275 -0.1705  0.0922
  314MOL0     C42293   9.984  12.690   4.617 -0.3230  0.0081 -0.2438
  314MOL0     C42294  10.104  12.721   4.707  0.2796 -0.3734 -0.1770
  314MOL0     C42295  10.097  12.849   4.794 -0.4644 -1.0856 -0.6967
  314MOL0     C42296  10.081  12.975   4.713 -1.0310 -1.0685  0.2621
  314MOL0     C42297   9.992  13.079   4.773  0.4074  0.1941 -0.0123
  314MOL0     C42298  10.026  13.139   4.917 -0.3054 -0.0274 -0.3642
  314MOL0    Cl42299  10.197  13.215   4.917 -0.0444 -0.4908  0.4303
  314MOL0     C42300   9.891  12.347   4.946  0.4877 -0.3533  0.0498
  314MOL0     C42301   9.873  12.225   5.014 -0.0412 -0.2290 -0.6170
  314MOL0     O42302   9.522  12.043   5.111  0.3909 -0.2954 -0.8763
  314MOL0     C42303   9.517  11.816   5.264  0.5022  0.3609 -0.0289
  314MOL0     C42304   9.515  11.698   5.324 -0.6557  0.1418  0.9359
  314MOL0     N42305   9.812  11.390   5.913 -0.4592  0.2956 -0.0969
  314MOL0     N42306   9.804  11.419   6.042  0.6793 -0.1515  0.1514
  314MOL0     C42307  10.019  10.349   6.420  0.1099 -0.5757 -0.3453
  314MOL0     C42308  10.047  10.222   6.464  0.0301  1.0442  0.1711
  314MOL0     C42309  10.098   9.852   6.759  0.6603 -0.0707  0.0013
  314MOL0     C42310  10.017   9.778   6.673 -0.7551  0.1838 -0.2257
  314MOL0     C42311   9.987   9.646   6.702  0.7455  0.0508  0.5429
  314MOL0     C42312  10.042   9.585   6.807  1.0236  0.9034 -0.0144
  314MOL0     O42313  10.029   9.448   6.816 -0.3314 -0.1274  0.5364
  314MOL0     C42314  10.065   9.372   6.937  0.2036 -0.7392 -0.3478
  314MOL0     C42315   9.969   9.394   7.049 -0.4026 -0.7508 -0.7185
  314MOL0     C42316   9.999   9.307   7.177  0.3943  0.3568 -0.3468
  314MOL0     C42317  10.130   9.325   7.239 -0.7181 -0.6880  0.1682
  314MOL0     C42318  10.237   9.251   7.169 -0.3147 -0.5123 -1.0654
  314MOL0     C42319  10.329   9.197   7.111 -0.2289 -0.1594 -0.1221
  314MOL0     C42320  10.108   9.657   6.895 -0.7239 -0.1569  0.6287
  314MOL0     C42321  10.143   9.783   6.880  0.4818 -0.1554  0.2513
  314MOL0     C42322  10.237   9.856   6.986 -0.0709 -0.3803 -0.2976
  314MOL0     H42323  10.020  10.245   6.790  2.3971 -3.6935 -1.5996
  314MOL0     H42324   9.995  10.491   6.721 -1.6333  0.3179 -0.1905
  314MOL0     H42325   9.838  10.635   6.624 -0.4283 -1.6984 -0.6909
  314MOL0     H42326  10.016  10.684   6.639 -0.0157 -0.0246  1.3818
  314MOL0     H42327   9.814  10.800   6.443  1.6515  0.0179 -2.7999
  314MOL0     H42328   9.984  10.825   6.428 -0.1522  3.8003  0.4692
  314MOL0     H42329  10.024  10.900   6.643 -0.7729  0.2955  0.3950
  314MOL0     H42330   9.850  10.929   6.666  0.2485  2.4528 -0.4869
  314MOL0     H42331   9.946  11.125   6.600  3.4867 -3.8602  4.2981
  314MOL0     H42332  10.030  11.053   6.456 -1.2313  0.5501 -0.9029
  314MOL0     H42333   9.864  11.037   6.317 -0.7663 -1.5398  1.0610
  314MOL0     H42334   9.744  11.000   6.430 -0.5317 -0.6499  0.9372
  314MOL0     H42335   9.775  11.271   6.487 -2.8387 -0.1047 -1.2190
  314MOL0     H42336   9.880  11.280   6.341 -0.6542  0.1928 -2.8593
  314MOL0     H42337   9.592  11.195   6.377  2.6343 -1.8649  2.8529
  314MOL0     H42338   9.676  11.149   6.226 -2.8884 -0.8357 -0.0045
  314MOL0     H42339   9.574  11.413   6.267  1.2315  2.3357 -2.4593
  314MOL0     H42340   9.740  11.431   6.291 -1.7043 -1.0884  3.0981
  314MOL0     H42341   9.552  11.212   6.016 -0.1874 -0.0292  1.7409
  314MOL0     H42342   9.776  11.237   5.699  0.8628  0.9918  1.3218
  314MOL0     H42343   9.627  11.160   5.761  0.0547 -0.1636 -1.7303
  314MOL0     H42344   9.506  11.377   5.720  0.1253  1.7102  0.9539
  314MOL0     H42345   9.662  11.437   5.664 -1.1089  0.7772  0.5041
  314MOL0     H42346   9.495  11.227   5.530 -1.7017  1.2096  1.0064
  314MOL0     H42347   9.666  11.256   5.506  0.4415 -0.1162  2.2854
  314MOL0     H42348   9.463  11.493   5.490 -0.1113 -1.7517  0.8513
  314MOL0     H42349   9.481  11.393   5.350 -2.6206  4.2739  0.0358
  314MOL0     H42350   9.835  11.600   5.262  0.4535 -1.0587 -0.9074
  314MOL0     H42351   9.839  11.816   5.145 -0.5105  0.7241 -0.8275
  314MOL0     H42352   9.591  12.120   4.856 -0.0070 -1.2312 -1.0173
  314MOL0     H42353   9.618  12.351   4.749  1.7257  0.5017 -1.0687
  314MOL0     H42354   9.757  12.515   4.615 -0.9151  0.4177  0.7110
  314MOL0     H42355   9.662  12.584   4.748  1.9602  0.8119  4.6702
  314MOL0     H42356   9.788  12.753   4.586 -1.0283 -1.1447  0.4182
  314MOL0     H42357   9.826  12.773   4.759 -3.9645  0.5057 -0.6725
  314MOL0     H42358   9.994  12.590   4.575 -0.6639 -0.4937  0.8479
  314MOL0     H42359   9.992  12.768   4.540  0.8991  1.0788  0.9130
  314MOL0     H42360  10.189  12.718   4.638  0.5333  0.6854  0.0720
  314MOL0     H42361  10.107  12.640   4.780  1.5406  1.4879  1.9493
  314MOL0     H42362  10.189  12.850   4.854 -1.0710 -0.9316  0.2502
  314MOL0     H42363  10.009  12.837   4.858 -0.3864 -1.4217 -0.6506
  314MOL0     H42364  10.180  13.013   4.685  0.1556 -2.0145  2.7925
  314MOL0     H42365  10.027  12.962   4.620 -0.1910  1.2630 -0.6221
  314MOL0     H42366   9.893  13.032   4.776  1.1440 -1.4083  2.4008
  314MOL0     H42367   9.988  13.163   4.703  2.9705 -1.7000 -2.6663
  314MOL0     H42368   9.947  13.214   4.931  0.4175  0.9382 -1.3142
  314MOL0     H42369  10.015  13.061   4.993  0.8193  2.7591  2.9312
  314MOL0     H42370   9.978  12.409   4.966 -0.4007  0.0119  3.3396
  314MOL0     H42371   9.939  12.199   5.097 -0.1746  1.8185  0.1891
  314MOL0     H42372   9.433  11.886   5.269  0.3325  0.1198  0.6011
  314MOL0     H42373   9.426  11.667   5.379 -0.2556 -2.8687  0.0748
  314MOL0     H42374  10.002  10.357   6.313 -2.6897 -1.3128 -0.0508
  314MOL0     H42375  10.057  10.153   6.380  0.2159 -0.1655  1.1691
  314MOL0     H42376   9.982   9.811   6.576 -2.7061 -3.4356 -0.9109
  314MOL0     H42377   9.933   9.590   6.626 -1.0564 -1.5118  2.8489
  314MOL0     H42378  10.167   9.399   6.967 -1.0492  3.9207  0.6759
  314MOL0     H42379  10.059   9.266   6.914 -0.7763 -0.6297 -0.6385
  314MOL0     H42380   9.868   9.374   7.012 -1.1727 -0.2786  1.0274
  314MOL0     H42381   9.974   9.499   7.078  0.9291 -0.8691 -0.4362
  314MOL0     H42382   9.967   9.204   7.155 -2.7517  1.0612  0.4427
  314MOL0     H42383   9.923   9.352   7.242 -0.7764  1.1096 -2.1690
  314MOL0     H42384  10.154   9.432   7.236 -0.3071 -0.7787 -1.9353
  314MOL0     H42385  10.131   9.287   7.341  0.2038  0.9829  0.8358
  314MOL0     H42386  10.416   9.169   7.054  1.1754  3.4579 -0.0616
  314MOL0     H42387  10.166   9.603   6.970  3.9320 -0.1258 -2.4691
  314MOL0     H42388  10.255   9.787   7.069  0.5461  0.5020  0.3230
  314MOL0     H42389  10.332   9.895   6.948 -0.0262  1.3090  1.3511
  314MOL0     H42390  10.184   9.943   7.028  1.0122 -0.9942  2.5608
  315MOL0     O42391   6.078   4.190   7.309  0.0807  0.0677 -0.7912
  315MOL0     C42392   6.192   4.154   7.274 -0.8503 -0.8292  0.6241
  315MOL0     O42393   6.232   4.159   7.140  0.2199  0.6644 -0.1931
  315MOL0     C42394   6.164   4.237   7.058  0.2336 -0.3535  0.4646
  315MOL0     C42395   6.142   4.381   7.063 -0.0471  0.0037 -0.5792
  315MOL0     C42396   6.082   4.454   6.957 -0.1702  0.4850  0.3990
  315MOL0     C42397   6.038   4.377   6.849 -0.1155 -0.7743 -0.1068
  315MOL0     O42398   5.962   4.424   6.749 -0.0209  0.4112  0.2441
  315MOL0     C42399   6.018   4.538   6.690  1.1252 -0.2859  0.2230
  315MOL0     C42400   5.910   4.553   6.581  0.8204 -0.3243 -0.1415
  315MOL0     C42401   5.925   4.702   6.518 -0.1288  1.1622  0.3299
  315MOL0     C42402   5.849   4.710   6.383 -0.0711  0.4934  0.7592
  315MOL0     C42403   5.869   4.835   6.303 -0.1247  0.4422  1.0923
  315MOL0     C42404   5.817   4.817   6.152 -1.2961 -0.3779 -0.2307
  315MOL0     C42405   5.802   4.955   6.092 -0.0818 -0.9213 -0.1922
  315MOL0     C42406   5.719   4.950   5.962 -0.0137 -0.4538  0.3817
  315MOL0     N42407   5.771   5.042   5.862 -0.4132 -0.5460  0.2051
  315MOL0     C42408   5.870   5.015   5.774 -0.9153 -0.2789 -0.6973
  315MOL0     C42409   5.892   5.137   5.711  0.6698  0.0970  0.4065
  315MOL0     C42410   6.007   5.149   5.620 -0.1077 -0.6288 -0.4499
  315MOL0     C42411   5.965   5.122   5.475 -0.4853  0.3550 -1.1755
  315MOL0     C42412   6.069   5.115   5.369  0.4499 -0.7695 -0.0165
  315MOL0     C42413   6.002   5.113   5.233  0.2597  0.0132  0.8614
  315MOL0     O42414   5.915   5.000   5.216 -0.2279 -0.0727  0.5948
  315MOL0     C42415   5.863   4.969   5.093  0.7192 -0.1120 -0.4525
  315MOL0     C42416   5.790   4.854   5.095 -0.2477  0.0697  0.0754
  315MOL0     C42417   5.727   4.794   4.982 -0.5900 -0.8225  0.3857
  315MOL0     C42418   5.733   4.871   4.861 -1.2136 -0.7195  0.2192
  315MOL0     C42419   5.647   4.829   4.746 -0.0564  0.1638  0.4512
  315MOL0     O42420   5.677   4.870   4.618  0.4812  0.6815  0.2346
  315MOL0     C42421   5.575   4.847   4.529  0.0951 -0.0770  1.1574
  315MOL0     C42422   5.510   4.959   4.467 -0.5887 -0.3242 -0.0308
  315MOL0     C42423   5.411   4.929   4.363 -0.0690 -0.7265 -1.1229
  315MOL0     C42424   5.374   4.801   4.328 -0.8633  0.7622 -0.2521
  315MOL0     O42425   5.280   4.785   4.229  0.5560 -0.1320  0.3629
  315MOL0     C42426   5.221   4.654   4.211 -0.6285  0.0202 -0.6761
  315MOL0     C42427   5.107   4.686   4.114  0.3273 -0.1762  0.2962
  315MOL0     C42428   4.978   4.600   4.136 -1.2325 -0.3816  0.2255
  315MOL0     C42429   4.881   4.576   4.022  0.2408  0.2596 -0.7838
  315MOL0     C42430   4.931   4.473   3.919  0.1079  1.2099  0.8197
  315MOL0     C42431   4.912   4.326   3.963 -0.4513 -1.4374 -0.6771
  315MOL0     C42432   4.769   4.291   4.002 -0.6744  0.4760 -0.3353
  315MOL0     C42433   4.730   4.171   3.923  0.6885  0.3701  0.4745
  315MOL0    Cl42434   4.724   4.219   3.757  0.1446  0.2249  0.1548
  315MOL0     C42435   5.449   4.695   4.396 -0.2081 -0.6735  0.2348
  315MOL0     C42436   5.546   4.715   4.487  0.5445  0.0906  0.3422
  315MOL0     O42437   5.549   4.765   4.783 -0.0716 -0.7688 -0.1465
  315MOL0     C42438   5.818   4.977   4.866  0.3209 -0.1200  0.5804
  315MOL0     C42439   5.868   5.041   4.981  1.0518  0.4535 -0.2275
  315MOL0     N42440   5.811   5.236   5.769 -0.2215 -0.1708 -0.5031
  315MOL0     N42441   5.735   5.172   5.847  0.0644  0.1934 -0.1502
  315MOL0     C42442   6.069   4.246   6.835 -0.7774 -1.6998 -0.3571
  315MOL0     C42443   6.128   4.179   6.935  0.8931 -0.3327  0.4215
  315MOL0     C42444   6.301   4.119   7.377  1.5612  1.0006 -0.2442
  315MOL0     C42445   6.426   4.087   7.318 -0.2446 -0.1090  0.3415
  315MOL0     C42446   6.532   4.063   7.397  0.3121  0.4502 -0.0040
  315MOL0     C42447   6.519   4.051   7.538  0.2909  0.1662  0.9829
  315MOL0     O42448   6.613   4.026   7.638 -0.1498 -0.5572  0.6286
  315MOL0     C42449   6.740   4.000   7.600 -0.2033  0.2650 -0.3641
  315MOL0     C42450   6.838   4.047   7.704 -0.0266  0.5030 -0.8134
  315MOL0     C42451   6.833   3.965   7.836  0.0089  0.7819  0.0570
  315MOL0     C42452   6.939   4.007   7.925 -0.2280 -0.2146 -0.0004
  315MOL0     C42453   6.898   3.988   8.063 -0.1430  0.9360  0.2683
  315MOL0     C42454   6.859   3.981   8.175  0.9058  0.5608 -0.0952
  315MOL0     C42455   6.404   4.097   7.591  0.2845 -0.2324 -1.4267
  315MOL0     C42456   6.291   4.124   7.515  1.2710 -0.2290 -0.4330
  315MOL0     C42457   6.173   4.186   7.594  0.9159 -0.3494  0.6663
  315MOL0     H42458   6.177   4.439   7.147 -1.8314  1.8433 -1.0350
  315MOL0     H42459   6.049   4.557   6.965 -2.6928 -0.2910  0.9355
  315MOL0     H42460   6.008   4.625   6.755 -3.4396  1.7969 -2.7816
  315MOL0     H42461   6.122   4.527   6.659  0.3543 -2.0368 -2.0207
  315MOL0     H42462   5.808   4.555   6.621  0.7707  1.2604 -0.2988
  315MOL0     H42463   5.923   4.482   6.499 -0.4709  0.0066 -0.6530
  315MOL0     H42464   6.031   4.726   6.503  0.6474 -2.3490 -0.7199
  315MOL0     H42465   5.881   4.784   6.574  0.5380  2.1419 -0.5380
  315MOL0     H42466   5.867   4.625   6.316  0.0587  2.4175 -1.7709
  315MOL0     H42467   5.743   4.709   6.411 -1.2188 -0.4039 -3.0133
  315MOL0     H42468   5.810   4.912   6.355 -0.3704  0.9864  0.0562
  315MOL0     H42469   5.970   4.875   6.297  0.4945 -0.7285  2.9618
  315MOL0     H42470   5.887   4.768   6.083 -0.3110  0.2707  0.2983
  315MOL0     H42471   5.722   4.762   6.150 -0.3096 -2.3734  2.2657
  315MOL0     H42472   5.898   5.008   6.081 -0.5055 -0.3595 -1.2622
  315MOL0     H42473   5.746   5.024   6.156  1.1683 -0.0039 -0.0326
  315MOL0     H42474   5.712   4.847   5.927  1.8007 -0.2757 -0.5926
  315MOL0     H42475   5.621   4.997   5.977  0.5565  0.6191  0.8785
  315MOL0     H42476   5.915   4.916   5.769 -4.7698 -2.3329  1.2812
  315MOL0     H42477   6.037   5.254   5.627 -3.6579  0.7487 -2.8311
  315MOL0     H42478   6.092   5.082   5.632  0.0433 -0.6172 -1.3654
  315MOL0     H42479   5.906   5.030   5.468 -1.2575  0.8472 -1.2984
  315MOL0     H42480   5.901   5.209   5.455 -4.0775 -2.2851 -2.3116
  315MOL0     H42481   6.137   5.030   5.381  2.1422  0.2105 -1.9654
  315MOL0     H42482   6.120   5.212   5.373  0.5167 -0.7451 -1.1164
  315MOL0     H42483   6.082   5.103   5.158  0.0932 -3.0954  0.9659
  315MOL0     H42484   5.939   5.202   5.224 -0.0850 -0.4433 -2.3739
  315MOL0     H42485   5.781   4.801   5.189 -0.1704 -0.1273 -0.0274
  315MOL0     H42486   5.666   4.705   4.988 -3.5072  0.7721 -2.4353
  315MOL0     H42487   5.521   5.064   4.491 -2.9149  0.4215 -1.8790
  315MOL0     H42488   5.359   5.009   4.312  1.2607  0.1886 -1.0744
  315MOL0     H42489   5.290   4.578   4.173 -0.2430 -0.1214  0.2790
  315MOL0     H42490   5.183   4.613   4.305  1.5744  1.5684  0.9756
  315MOL0     H42491   5.083   4.793   4.106  1.7456  0.3092  1.9464
  315MOL0     H42492   5.146   4.666   4.014  3.2822  2.9524  0.6335
  315MOL0     H42493   5.011   4.498   4.160 -1.1525 -0.3057  0.4420
  315MOL0     H42494   4.918   4.643   4.216  0.8009 -0.7707  2.0425
  315MOL0     H42495   4.864   4.670   3.969 -2.6575 -1.5443 -3.4030
  315MOL0     H42496   4.794   4.532   4.072  1.4994  0.1461  1.4166
  315MOL0     H42497   5.037   4.477   3.892 -0.4126  1.3730 -1.3607
  315MOL0     H42498   4.863   4.485   3.834  1.4366  0.8033 -0.3372
  315MOL0     H42499   4.954   4.253   3.893  1.8226 -2.8473  1.9422
  315MOL0     H42500   4.976   4.311   4.051  0.6934  1.0890 -0.9787
  315MOL0     H42501   4.694   4.363   3.969 -1.0982 -0.9174 -2.6596
  315MOL0     H42502   4.754   4.263   4.107  0.6445 -0.3370 -0.3310
  315MOL0     H42503   4.804   4.093   3.939  2.3111  1.5473 -0.9015
  315MOL0     H42504   4.626   4.142   3.942  0.9328 -0.2345  0.8843
  315MOL0     H42505   5.427   4.591   4.376 -2.3386 -0.1855 -0.1214
  315MOL0     H42506   5.601   4.628   4.521 -0.0005  0.1301  1.3789
  315MOL0     H42507   5.834   5.042   4.780  0.6307  1.0094  1.4620
  315MOL0     H42508   5.936   5.126   4.980  0.3398  1.0325 -1.2122
  315MOL0     H42509   6.037   4.203   6.740  1.0517 -0.3393 -1.6711
  315MOL0     H42510   6.143   4.077   6.900  0.5411 -0.6097  1.0656
  315MOL0     H42511   6.446   4.106   7.213 -0.0676 -0.5979  0.2841
  315MOL0     H42512   6.628   4.050   7.349  0.0674  0.5535 -0.5383
  315MOL0     H42513   6.767   4.036   7.500  0.9388 -2.6246 -1.1993
  315MOL0     H42514   6.751   3.892   7.589  0.6932 -0.0608  2.8377
  315MOL0     H42515   6.820   4.152   7.727  0.3965  0.2366  0.8452
  315MOL0     H42516   6.938   4.052   7.660  0.3671  1.0182  0.1221
  315MOL0     H42517   6.824   3.856   7.828  0.9371  0.8286 -3.0556
  315MOL0     H42518   6.742   4.006   7.879  1.1043  0.7819  2.5755
  315MOL0     H42519   7.026   3.945   7.903 -1.1967 -0.7362 -2.7984
  315MOL0     H42520   6.959   4.114   7.914 -3.1629  0.4263  0.1567
  315MOL0     H42521   6.820   3.992   8.274 -0.1800 -1.6264 -0.2232
  315MOL0     H42522   6.399   4.104   7.700 -1.7262 -1.1822 -1.4199
  315MOL0     H42523   6.186   4.185   7.703 -0.3283  0.9231  0.8472
  315MOL0     H42524   6.149   4.287   7.562  1.1486 -0.9514 -1.5335
  315MOL0     H42525   6.084   4.129   7.567 -0.3194  2.6534 -2.1822
  316MOL0     O42526   3.803   8.712  11.095 -1.3164 -0.9538  1.1237
  316MOL0     C42527   3.911   8.758  11.066 -0.0537  0.6833  0.8195
  316MOL0     O42528   4.001   8.693  10.988 -0.0293 -0.2994 -0.2642
  316MOL0     C42529   3.980   8.569  10.943  0.3820  0.2546  0.6647
  316MOL0     C42530   3.850   8.525  10.889 -0.6687 -0.2103  0.5133
  316MOL0     C42531   3.831   8.393  10.829 -0.8429  0.0448  0.0412
  316MOL0     C42532   3.940   8.309  10.825 -0.2905  0.2898  0.4452
  316MOL0     O42533   3.926   8.188  10.758  0.1772  0.9596 -0.2042
  316MOL0     C42534   4.021   8.086  10.778  0.4434 -0.2028 -0.0150
  316MOL0     C42535   3.991   7.957  10.698  0.0777 -0.8179 -0.3737
  316MOL0     C42536   4.100   7.855  10.722  0.4394  0.0044 -0.2388
  316MOL0     C42537   4.080   7.721  10.640  0.7290  0.1596  0.2406
  316MOL0     C42538   4.069   7.748  10.491 -0.5217  0.4681  0.8711
  316MOL0     C42539   4.112   7.621  10.414 -0.0493 -0.7885 -0.5527
  316MOL0     C42540   4.140   7.664  10.273  0.8350 -0.3429  1.0080
  316MOL0     C42541   4.007   7.696  10.202  0.0194 -1.1814 -0.8034
  316MOL0     N42542   4.037   7.731  10.062 -0.7415 -0.1517 -0.4429
  316MOL0     C42543   4.085   7.645   9.966  1.4631  0.0102  0.4084
  316MOL0     C42544   4.040   7.699   9.847 -0.6325  0.8792 -0.5162
  316MOL0     C42545   4.050   7.633   9.718 -0.9673  0.0816 -0.3163
  316MOL0     C42546   3.949   7.520   9.709  0.0969 -0.1063  0.0160
  316MOL0     C42547   3.809   7.576   9.713 -0.7512  0.5706 -0.1098
  316MOL0     C42548   3.708   7.465   9.673  0.7556 -0.2562 -0.3314
  316MOL0     O42549   3.706   7.442   9.529 -0.4884  0.5889 -0.1272
  316MOL0     C42550   3.633   7.336   9.480 -0.9857  0.6896 -0.3413
  316MOL0     C42551   3.528   7.279   9.544  0.5824 -0.6708  0.2370
  316MOL0     C42552   3.459   7.163   9.486 -0.5935  0.0708 -0.4913
  316MOL0     C42553   3.535   7.089   9.385 -0.3774 -0.1577 -0.4885
  316MOL0     C42554   3.472   6.968   9.334  0.0965 -0.4981 -0.1520
  316MOL0     O42555   3.536   6.907   9.236  0.3819  0.0748  0.0594
  316MOL0     C42556   3.478   6.803   9.169 -1.0383  0.0803 -0.5037
  316MOL0     C42557   3.487   6.674   9.225 -0.0109  0.2915  0.3843
  316MOL0     C42558   3.423   6.562   9.158 -0.4631  0.2023  0.4442
  316MOL0     C42559   3.343   6.586   9.043  0.0292  0.6996  0.2442
  316MOL0     O42560   3.279   6.486   8.974 -0.2816  0.7486 -0.0286
  316MOL0     C42561   3.266   6.358   9.039 -0.9147 -0.0080 -0.0881
  316MOL0     C42562   3.180   6.265   8.959  0.0373 -0.3356  0.4681
  316MOL0     C42563   3.196   6.126   9.013  0.3178  0.7994 -0.3654
  316MOL0     C42564   3.075   6.033   8.980 -1.1260 -0.4026  0.8307
  316MOL0     C42565   3.084   5.907   9.065 -0.4241  0.5712 -0.7659
  316MOL0     C42566   2.989   5.803   9.013  0.8532  0.9285  0.6033
  316MOL0     C42567   3.012   5.674   9.095  0.8178 -0.4650  0.1669
  316MOL0     C42568   2.920   5.552   9.066 -0.4221 -0.8253  0.0603
  316MOL0    Cl42569   2.963   5.504   8.899 -0.2896  0.1370 -0.4424
  316MOL0     C42570   3.337   6.711   8.996  0.7639 -0.1322  0.2641
  316MOL0     C42571   3.405   6.819   9.056  0.0880  0.5568  0.3824
  316MOL0     O42572   3.371   6.926   9.387 -0.3356 -0.0655  1.0563
  316MOL0     C42573   3.654   7.142   9.338 -0.2916  0.7987  0.2991
  316MOL0     C42574   3.694   7.264   9.380 -0.1756  0.1921  0.5146
  316MOL0     N42575   3.971   7.818   9.876 -0.0749  1.3766  0.4447
  316MOL0     N42576   3.963   7.828  10.002 -0.1696  0.4262 -0.3973
  316MOL0     C42577   4.071   8.351  10.862  0.7917 -0.3607 -0.3124
  316MOL0     C42578   4.089   8.471  10.933 -0.2588 -0.1213 -0.1817
  316MOL0     C42579   3.950   8.889  11.108  0.7890 -0.1156 -0.4890
  316MOL0     C42580   4.069   8.952  11.056  1.1619  0.4617 -0.2698
  316MOL0     C42581   4.114   9.076  11.109  0.6459  0.5709 -0.4248
  316MOL0     C42582   4.046   9.139  11.211  0.6414 -0.0128  0.1855
  316MOL0     O42583   4.082   9.267  11.248 -0.2253 -0.3165  0.0977
  316MOL0     C42584   3.991   9.352  11.328 -0.4083  0.7998 -0.1778
  316MOL0     C42585   4.038   9.499  11.354  0.2018 -0.4694 -0.6020
  316MOL0     C42586   4.097   9.568  11.230  0.2708  0.4539  0.1720
  316MOL0     C42587   4.150   9.711  11.266 -0.0054  0.2343 -0.4721
  316MOL0     C42588   4.044   9.809  11.291 -0.1687 -0.1265  0.1094
  316MOL0     C42589   3.950   9.888  11.318 -0.3577 -0.3556 -0.2927
  316MOL0     C42590   3.930   9.080  11.265 -0.1566  0.5581  0.8135
  316MOL0     C42591   3.884   8.958  11.214  0.1476  0.4208 -0.9055
  316MOL0     C42592   3.749   8.914  11.276 -0.4851  0.2108  0.3032
  316MOL0     H42593   3.770   8.598  10.895  0.3811  1.1205 -0.9716
  316MOL0     H42594   3.739   8.369  10.776  0.2045 -1.1649 -1.3133
  316MOL0     H42595   4.123   8.120  10.758  0.3561  0.4427  0.6042
  316MOL0     H42596   4.016   8.061  10.884  2.1087  1.0362  0.3993
  316MOL0     H42597   3.986   7.976  10.590  1.9977  2.1458 -0.0663
  316MOL0     H42598   3.893   7.921  10.732  0.1582  0.8874  1.8571
  316MOL0     H42599   4.094   7.840  10.830  2.8617  3.0216  0.4412
  316MOL0     H42600   4.199   7.887  10.689  0.3300 -2.6040 -3.6109
  316MOL0     H42601   4.177   7.676  10.663 -0.1050 -0.6424  2.4292
  316MOL0     H42602   4.011   7.645  10.678  0.4004  0.7764  0.8980
  316MOL0     H42603   3.966   7.775  10.465  0.5598  2.6721 -1.5984
  316MOL0     H42604   4.134   7.831  10.461 -0.1120  0.1489  0.8865
  316MOL0     H42605   4.208   7.591  10.456  0.7076  1.3548 -0.6537
  316MOL0     H42606   4.038   7.541  10.410 -2.8892  1.6885 -3.6743
  316MOL0     H42607   4.187   7.583  10.217  0.5470 -0.0358  0.3142
  316MOL0     H42608   4.205   7.752  10.276  1.2235 -0.5782 -0.0249
  316MOL0     H42609   3.948   7.605  10.212 -0.5946 -0.6346  0.8852
  316MOL0     H42610   3.958   7.772  10.263  0.9688 -1.0675 -0.1581
  316MOL0     H42611   4.127   7.550   9.999 -2.8143 -2.2977  0.0182
  316MOL0     H42612   4.037   7.709   9.641 -3.1727 -1.1896 -1.2787
  316MOL0     H42613   4.151   7.593   9.704 -1.5153 -0.3957 -3.7738
  316MOL0     H42614   3.982   7.467   9.619  2.2852  0.9871  0.1257
  316MOL0     H42615   3.958   7.440   9.784 -2.6189 -2.2016 -1.6723
  316MOL0     H42616   3.803   7.658   9.641 -0.0437 -0.3929 -1.3042
  316MOL0     H42617   3.790   7.599   9.818  0.5976 -1.2860  0.5829
  316MOL0     H42618   3.607   7.502   9.687  0.9494  0.6083 -1.1030
  316MOL0     H42619   3.742   7.380   9.734  1.1506  1.9886  2.8052
  316MOL0     H42620   3.479   7.326   9.628  1.7051 -0.5095  0.8104
  316MOL0     H42621   3.357   7.141   9.518 -1.8199  3.9593 -1.1295
  316MOL0     H42622   3.548   6.661   9.314  0.7740 -2.3340 -0.4336
  316MOL0     H42623   3.444   6.465   9.202  0.8375  0.9466  1.5606
  316MOL0     H42624   3.367   6.316   9.043  0.0444  2.2411  3.5171
  316MOL0     H42625   3.228   6.377   9.139  0.5623  1.3310  0.2656
  316MOL0     H42626   3.077   6.300   8.964  1.3634  4.2739  0.3151
  316MOL0     H42627   3.217   6.271   8.856  1.1574  0.6359  0.9017
  316MOL0     H42628   3.280   6.078   8.962 -0.2597 -0.7474  0.0633
  316MOL0     H42629   3.197   6.121   9.122 -3.0828 -1.2567 -0.2770
  316MOL0     H42630   3.085   6.017   8.872 -0.4987  2.5505  0.3409
  316MOL0     H42631   2.977   6.071   9.010 -0.6943 -0.7367  2.7948
  316MOL0     H42632   3.047   5.943   9.161 -3.3922  3.1582 -2.6679
  316MOL0     H42633   3.182   5.862   9.085 -0.9001  0.5171  1.8444
  316MOL0     H42634   2.887   5.840   9.023  1.0744  1.1081  2.7620
  316MOL0     H42635   3.005   5.782   8.907 -1.5844  0.3427  0.3049
  316MOL0     H42636   2.999   5.690   9.202 -3.7368 -1.8168  0.0559
  316MOL0     H42637   3.117   5.651   9.076  0.9874 -1.8310  2.3322
  316MOL0     H42638   2.927   5.473   9.141 -3.0401 -0.0862  1.2038
  316MOL0     H42639   2.816   5.583   9.072 -0.0490  0.8849 -1.4218
  316MOL0     H42640   3.265   6.731   8.917  0.7134  2.0809  0.8052
  316MOL0     H42641   3.390   6.923   9.027  0.5016  1.0299  1.7547
  316MOL0     H42642   3.719   7.081   9.277 -0.1239  0.1860  1.0801
  316MOL0     H42643   3.791   7.303   9.351  1.5902 -4.4063 -0.6684
  316MOL0     H42644   4.163   8.297  10.841  0.9975 -0.4943  0.8569
  316MOL0     H42645   4.186   8.511  10.963 -0.3830  1.8007 -2.0404
  316MOL0     H42646   4.127   8.894  10.986  1.5203  0.8052 -0.2613
  316MOL0     H42647   4.196   9.127  11.059  1.4936 -1.8642 -1.6863
  316MOL0     H42648   3.962   9.309  11.424 -2.3874 -0.1691 -1.1471
  316MOL0     H42649   3.899   9.370  11.271 -0.2690 -1.8357 -1.3928
  316MOL0     H42650   4.113   9.486  11.432 -1.3773  0.3031  1.1125
  316MOL0     H42651   3.953   9.561  11.383  2.2923  2.2734  0.0379
  316MOL0     H42652   4.011   9.580  11.164 -0.7283  0.1528  1.3721
  316MOL0     H42653   4.177   9.507  11.187  1.9387  3.4882 -1.3800
  316MOL0     H42654   4.226   9.706  11.344  1.3289 -3.7366 -1.7988
  316MOL0     H42655   4.204   9.733  11.173 -0.9362  1.4905 -0.7432
  316MOL0     H42656   3.876   9.965  11.325 -2.1000 -1.8616 -1.3388
  316MOL0     H42657   3.872   9.109  11.351  1.7762  0.6787  2.1269
  316MOL0     H42658   3.697   9.005  11.308  0.3617  0.6529  0.4451
  316MOL0     H42659   3.679   8.873  11.202  0.0965 -0.5688  0.1686
  316MOL0     H42660   3.759   8.829  11.344 -0.2434  0.4743  0.6024
  317MOL0     O42661  10.311   3.198   6.578  1.0980  0.7898 -0.0621
  317MOL0     C42662  10.321   3.284   6.667  0.2096 -0.3156  1.0044
  317MOL0     O42663  10.340   3.266   6.799 -0.1449  0.5601  0.3169
  317MOL0     C42664  10.318   3.134   6.839  0.4960 -0.3576 -0.3240
  317MOL0     C42665  10.424   3.043   6.878  1.1645  0.3672  0.3581
  317MOL0     C42666  10.382   2.916   6.930  1.6950 -0.0404  0.2960
  317MOL0     C42667  10.246   2.887   6.944 -0.2714  0.0755 -1.2190
  317MOL0     O42668  10.201   2.769   6.996 -0.0014  0.4820 -0.2975
  317MOL0     C42669  10.147   2.763   7.131  0.7068  0.4212 -0.0454
  317MOL0     C42670  10.242   2.782   7.240 -0.0862 -0.1691 -0.3520
  317MOL0     C42671  10.183   2.717   7.369 -0.0349 -0.9137  0.0582
  317MOL0     C42672  10.270   2.768   7.486  0.3739  0.6713 -0.0995
  317MOL0     C42673  10.244   2.673   7.603 -1.3806  0.3772 -0.3104
  317MOL0     C42674  10.334   2.689   7.727  0.1436  1.0715  0.4636
  317MOL0     C42675  10.369   2.832   7.757 -0.7610  0.4486 -0.0970
  317MOL0     C42676  10.462   2.825   7.878  0.1604 -0.4674  0.4777
  317MOL0     N42677  10.503   2.966   7.908 -0.0914  0.0876 -0.4446
  317MOL0     C42678  10.416   3.071   7.934  0.1006  0.7335 -1.0842
  317MOL0     C42679  10.503   3.176   7.951  0.8385  0.0126 -0.4667
  317MOL0     C42680  10.453   3.309   7.987 -0.2276  0.2811 -0.6169
  317MOL0     C42681  10.448   3.390   7.859  0.4354 -0.0128  1.0218
  317MOL0     C42682  10.426   3.534   7.893  0.2052 -0.2811  0.0159
  317MOL0     C42683  10.416   3.630   7.777  0.0756  0.9897  0.3811
  317MOL0     O42684  10.503   3.587   7.665  0.3656  0.8002  0.5200
  317MOL0     C42685  10.622   3.651   7.642 -0.2821 -1.0673  0.6927
  317MOL0     C42686  10.694   3.718   7.743 -0.6105  0.2526  0.6531
  317MOL0     C42687  10.809   3.798   7.720 -0.4216  0.8233  0.0813
  317MOL0     C42688  10.874   3.794   7.593  0.4627 -0.4211 -0.2261
  317MOL0     C42689  11.015   3.834   7.577  0.2586  0.2287  0.0322
  317MOL0     O42690  11.084   3.771   7.476  0.1509  0.0556  0.0999
  317MOL0     C42691  11.212   3.821   7.454  0.2597  0.4278 -0.1481
  317MOL0     C42692  11.228   3.875   7.322  0.1663 -0.4901  0.1844
  317MOL0     C42693  11.354   3.925   7.286  0.2504  0.4106 -0.0075
  317MOL0     C42694  11.461   3.921   7.381  0.3617  0.5688  0.4671
  317MOL0     O42695  11.596   3.947   7.349  0.0379 -0.7773  0.1083
  317MOL0     C42696  11.630   3.939   7.211 -0.8135 -0.0181 -0.2330
  317MOL0     C42697  11.783   3.972   7.191  0.0652 -0.5106  0.0809
  317MOL0     C42698  11.863   3.868   7.256  0.4904  1.0448 -0.2058
  317MOL0     C42699  11.899   3.905   7.395 -0.6490  0.6523 -0.8298
  317MOL0     C42700  12.013   3.823   7.444 -0.2623  0.5221  0.1890
  317MOL0     C42701  11.983   3.703   7.539 -0.6333 -0.0828  0.1097
  317MOL0     C42702  11.942   3.574   7.464 -0.1573  0.3079  0.8902
  317MOL0     C42703  11.891   3.483   7.574 -1.7785 -0.1239  0.3327
  317MOL0    Cl42704  12.022   3.426   7.680  0.4784 -0.0851  0.2440
  317MOL0     C42705  11.442   3.874   7.510 -0.3594 -0.5874 -0.6521
  317MOL0     C42706  11.315   3.828   7.548 -0.8736  0.4816 -0.2617
  317MOL0     O42707  11.056   3.921   7.655  0.0294  0.3971 -0.1355
  317MOL0     C42708  10.792   3.734   7.486 -0.8096 -0.4730 -0.6994
  317MOL0     C42709  10.666   3.670   7.509 -0.5450  0.4246  0.0786
  317MOL0     N42710  10.632   3.131   7.923  0.5320  0.3545  0.2822
  317MOL0     N42711  10.630   3.003   7.899  0.0676 -0.6974 -0.1412
  317MOL0     C42712  10.153   2.980   6.906  0.3113 -0.9604  0.4601
  317MOL0     C42713  10.186   3.104   6.869  0.7154 -0.5670 -0.1121
  317MOL0     C42714  10.315   3.424   6.626  0.8132 -0.6991 -1.0360
  317MOL0     C42715  10.209   3.495   6.681 -0.7676  1.1714  0.2713
  317MOL0     C42716  10.191   3.632   6.648 -0.4197  0.3590  0.3521
  317MOL0     C42717  10.282   3.705   6.558  0.0871 -0.3676  0.5426
  317MOL0     O42718  10.239   3.833   6.518 -0.4115  1.0368  0.2701
  317MOL0     C42719  10.333   3.911   6.444 -0.3131  0.2778  0.4717
  317MOL0     C42720  10.233   4.019   6.375  0.0132 -0.0288 -0.7539
  317MOL0     C42721  10.144   4.095   6.485  0.6491  0.2958  0.2621
  317MOL0     C42722  10.136   4.251   6.478  0.2633  0.4712  1.2727
  317MOL0     C42723  10.077   4.302   6.347  0.0013 -0.8308  0.4056
  317MOL0     C42724  10.036   4.335   6.237  0.2828 -0.2081  0.3777
  317MOL0     C42725  10.390   3.629   6.511  0.3444 -0.4312 -0.6531
  317MOL0     C42726  10.411   3.497   6.557  0.7268 -0.6232 -0.0748
  317MOL0     C42727  10.535   3.422   6.512 -0.7879 -0.4607 -0.5163
  317MOL0     H42728  10.526   3.066   6.847  1.0999  0.0391 -0.1099
  317MOL0     H42729  10.452   2.839   6.961  2.1851 -0.2705 -1.3102
  317MOL0     H42730  10.067   2.838   7.132  1.4031  1.1951 -0.7028
  317MOL0     H42731  10.112   2.661   7.146  1.3727 -0.1954 -2.2821
  317MOL0     H42732  10.264   2.889   7.246  1.8900 -0.6167  2.6113
  317MOL0     H42733  10.329   2.719   7.218  0.2222 -0.0429  0.4712
  317MOL0     H42734  10.173   2.609   7.356  3.3578 -1.9328  3.7582
  317MOL0     H42735  10.079   2.749   7.375  0.4604  0.8434  0.0411
  317MOL0     H42736  10.377   2.748   7.471  0.5734  0.7360  1.1211
  317MOL0     H42737  10.252   2.875   7.501 -2.1121  0.1280  1.1741
  317MOL0     H42738  10.141   2.697   7.629 -1.9720  0.9260 -2.8855
  317MOL0     H42739  10.236   2.568   7.574 -2.2645  0.4579 -0.3842
  317MOL0     H42740  10.300   2.624   7.808 -0.3467 -1.4124 -1.5911
  317MOL0     H42741  10.430   2.645   7.699  0.7504  2.4198  0.3305
  317MOL0     H42742  10.278   2.886   7.783 -1.4096  0.7372 -2.6927
  317MOL0     H42743  10.418   2.878   7.670  3.7286  0.4851  2.1442
  317MOL0     H42744  10.407   2.797   7.969 -0.7400 -1.7496 -0.4248
  317MOL0     H42745  10.541   2.751   7.861 -1.7262 -2.7834  1.2400
  317MOL0     H42746  10.308   3.068   7.932  0.0990 -2.4275 -3.4365
  317MOL0     H42747  10.354   3.292   8.030  0.2492  0.2133  0.4855
  317MOL0     H42748  10.515   3.348   8.068 -3.3010  3.1320  0.6102
  317MOL0     H42749  10.548   3.381   7.816  0.0655 -0.4858  0.2396
  317MOL0     H42750  10.373   3.353   7.788  0.7624  1.2881 -0.0552
  317MOL0     H42751  10.507   3.558   7.964  0.8607 -2.9864  0.2961
  317MOL0     H42752  10.327   3.550   7.938 -0.0028 -1.8052  0.1446
  317MOL0     H42753  10.442   3.729   7.815  2.8731 -0.1564  1.7610
  317MOL0     H42754  10.316   3.631   7.732  0.5341 -0.0506 -0.6930
  317MOL0     H42755  10.644   3.723   7.839  0.1902  0.4314  1.0723
  317MOL0     H42756  10.859   3.862   7.792 -0.6576  3.6894 -2.1517
  317MOL0     H42757  11.151   3.885   7.246  0.9477  1.0814 -0.4492
  317MOL0     H42758  11.370   3.978   7.193 -0.3481  0.0206 -0.3376
  317MOL0     H42759  11.604   3.841   7.169  4.3088 -2.1262  0.7341
  317MOL0     H42760  11.576   4.019   7.159  0.3042 -0.1489 -1.6387
  317MOL0     H42761  11.815   3.988   7.088 -2.1330 -0.1068 -0.5902
  317MOL0     H42762  11.816   4.062   7.243  3.7086 -0.5879 -1.7974
  317MOL0     H42763  11.807   3.774   7.253  1.5504  0.4184 -2.3112
  317MOL0     H42764  11.949   3.845   7.192 -1.8723 -2.8071 -2.3763
  317MOL0     H42765  11.813   3.879   7.457 -0.7799  1.7662 -0.5245
  317MOL0     H42766  11.919   4.010   7.417  0.0937 -0.0775  2.6632
  317MOL0     H42767  12.085   3.871   7.511 -0.5271 -1.3257  1.8714
  317MOL0     H42768  12.074   3.782   7.362  0.7084  0.9676  0.6642
  317MOL0     H42769  12.077   3.686   7.592  0.5188  0.6620 -1.6221
  317MOL0     H42770  11.903   3.737   7.606 -1.4760  0.9778 -1.3829
  317MOL0     H42771  12.032   3.540   7.412 -0.3718  0.4711  0.3968
  317MOL0     H42772  11.872   3.594   7.382  1.3197 -1.2482 -0.8355
  317MOL0     H42773  11.806   3.525   7.629 -1.8853  1.7702 -1.1463
  317MOL0     H42774  11.857   3.400   7.512  0.1987 -0.8608  0.1772
  317MOL0     H42775  11.521   3.884   7.584 -1.0366  0.7958 -0.0772
  317MOL0     H42776  11.311   3.780   7.645  0.1375 -1.5790 -1.1873
  317MOL0     H42777  10.834   3.726   7.386 -1.1962 -1.7433 -0.7777
  317MOL0     H42778  10.616   3.610   7.433  0.7005 -2.2985  1.2546
  317MOL0     H42779  10.046   2.974   6.923 -0.3479 -1.3688 -3.0696
  317MOL0     H42780  10.113   3.184   6.862 -0.2372 -1.4767 -0.9637
  317MOL0     H42781  10.137   3.444   6.744 -0.9269 -0.3673 -1.0943
  317MOL0     H42782  10.107   3.691   6.683 -0.6812  0.3239 -0.2011
  317MOL0     H42783  10.397   3.856   6.375 -2.8755  0.4170 -2.1969
  317MOL0     H42784  10.395   3.974   6.509  3.8061  0.8213 -3.5132
  317MOL0     H42785  10.161   3.984   6.301  1.0451 -0.7331 -1.4531
  317MOL0     H42786  10.294   4.087   6.314 -0.1139  1.4792  0.7119
  317MOL0     H42787  10.199   4.073   6.577 -0.0150 -3.0423  0.0101
  317MOL0     H42788  10.038   4.069   6.489  0.3821  0.8872 -1.8381
  317MOL0     H42789  10.080   4.290   6.564  0.8048  1.1212  1.3362
  317MOL0     H42790  10.241   4.282   6.482  0.6443 -0.7909  1.5066
  317MOL0     H42791  10.006   4.368   6.139  0.8321 -0.2389  0.1898
  317MOL0     H42792  10.468   3.670   6.448  1.3580 -0.6019  0.4433
  317MOL0     H42793  10.569   3.352   6.589 -1.7320  1.1609  1.4635
  317MOL0     H42794  10.514   3.369   6.418 -3.7197 -2.4061  1.0723
  317MOL0     H42795  10.615   3.495   6.503 -3.2574  2.4039 -0.6411
  318MOL0     O42796   5.173  10.088   6.049  0.0323  0.8366 -0.2742
  318MOL0     C42797   5.106  10.019   5.970  0.3438 -0.0197  1.4570
  318MOL0     O42798   5.126  10.022   5.827  0.0919  0.0773  0.3963
  318MOL0     C42799   5.239  10.076   5.773  1.3470  0.4872 -0.3723
  318MOL0     C42800   5.345   9.987   5.740  0.0387 -0.2561 -0.9590
  318MOL0     C42801   5.460  10.039   5.690 -0.4998  0.2744  0.3596
  318MOL0     C42802   5.479  10.172   5.663  0.2281  0.0466  0.2042
  318MOL0     O42803   5.600  10.199   5.601 -0.5450  0.6001  0.3712
  318MOL0     C42804   5.656  10.326   5.609 -0.5460 -0.0460 -0.3874
  318MOL0     C42805   5.605  10.409   5.497 -0.8421  1.1716 -1.4064
  318MOL0     C42806   5.665  10.377   5.357  0.4786  0.6221  0.0246
  318MOL0     C42807   5.819  10.400   5.347  0.1593 -0.2385  0.2310
  318MOL0     C42808   5.858  10.427   5.199  0.3297 -0.0573 -1.1204
  318MOL0     C42809   5.984  10.508   5.185 -0.2081  0.4142  0.2793
  318MOL0     C42810   6.023  10.519   5.037 -0.2260 -0.2356  0.3951
  318MOL0     C42811   6.104  10.390   4.982 -1.2064  0.4293  0.0983
  318MOL0     N42812   6.081  10.371   4.843  0.0049 -0.3432 -0.5972
  318MOL0     C42813   5.979  10.292   4.787  0.1667 -0.6632  0.3263
  318MOL0     C42814   5.994  10.299   4.650 -1.2269  0.1027  0.3451
  318MOL0     C42815   5.928  10.214   4.553 -0.2504 -0.5308  0.8861
  318MOL0     C42816   6.008  10.085   4.522  0.1499 -0.6168 -0.6821
  318MOL0     C42817   6.150  10.119   4.473 -0.6379 -0.3930  0.0183
  318MOL0     C42818   6.229   9.997   4.430 -0.2439 -0.1552 -0.0593
  318MOL0     O42819   6.343  10.043   4.356  0.6238 -0.2100 -0.1344
  318MOL0     C42820   6.409   9.959   4.265  0.2864  0.5533 -0.1528
  318MOL0     C42821   6.369   9.825   4.248 -0.1206 -0.0360  0.6738
  318MOL0     C42822   6.430   9.746   4.146 -0.4557  0.1683  0.0319
  318MOL0     C42823   6.543   9.799   4.072 -0.5038 -0.3863 -0.4951
  318MOL0     C42824   6.612   9.731   3.954  0.7709  0.8125 -0.0208
  318MOL0     O42825   6.704   9.798   3.888  0.2302 -0.3065  0.3879
  318MOL0     C42826   6.776   9.734   3.792 -0.6685 -0.5000 -0.5780
  318MOL0     C42827   6.729   9.736   3.664 -0.9903 -0.0940 -0.7206
  318MOL0     C42828   6.801   9.685   3.559 -0.6194  0.2020 -0.0737
  318MOL0     C42829   6.916   9.609   3.593  0.3660  0.0233  0.3095
  318MOL0     O42830   6.974   9.532   3.493  0.1633 -0.2866 -0.4184
  318MOL0     C42831   7.031   9.612   3.389  0.0441  0.4002  0.7552
  318MOL0     C42832   6.983   9.562   3.247  0.1657  0.1524 -0.7770
  318MOL0     C42833   7.057   9.615   3.120  0.2043  1.2306 -0.2497
  318MOL0     C42834   7.035   9.770   3.102 -0.2703  0.5584 -0.7863
  318MOL0     C42835   7.086   9.806   2.962 -0.4144  0.6971 -0.2451
  318MOL0     C42836   7.006   9.743   2.843 -1.4535 -0.4190  0.4143
  318MOL0     C42837   7.070   9.814   2.720  0.6524 -0.5145 -0.1094
  318MOL0     C42838   7.012   9.759   2.588  0.1027  0.2987  0.3284
  318MOL0    Cl42839   7.104   9.605   2.553 -0.2016  0.1043  0.3302
  318MOL0     C42840   6.963   9.591   3.720 -0.5671 -0.0980 -0.4082
  318MOL0     C42841   6.896   9.659   3.823  0.0235  0.7833 -0.1579
  318MOL0     O42842   6.584   9.612   3.938  0.8875  0.2633 -0.1311
  318MOL0     C42843   6.578   9.935   4.101  0.8689  0.2457  0.4291
  318MOL0     C42844   6.509  10.020   4.186  0.6958 -0.0657  0.3298
  318MOL0     N42845   6.092  10.404   4.625  0.8088 -0.8175 -0.2328
  318MOL0     N42846   6.137  10.441   4.738  1.2300  0.4620 -0.2419
  318MOL0     C42847   5.377  10.263   5.701 -0.1453 -0.1611  0.1500
  318MOL0     C42848   5.257  10.214   5.751 -0.2995 -0.4098 -0.1400
  318MOL0     C42849   5.001   9.932   6.028 -0.1902 -0.7006  0.0910
  318MOL0     C42850   5.005   9.925   6.167  0.5819 -0.5541  0.7100
  318MOL0     C42851   4.919   9.833   6.231  0.6110 -0.3716 -1.0602
  318MOL0     C42852   4.840   9.745   6.156 -0.5768 -0.2237 -0.4159
  318MOL0     O42853   4.766   9.634   6.194 -0.6902  0.1992 -0.2999
  318MOL0     C42854   4.733   9.621   6.332 -0.4242  0.4285 -0.3727
  318MOL0     C42855   4.600   9.585   6.349 -0.2902  0.0087 -0.3444
  318MOL0     C42856   4.561   9.505   6.477  0.1344 -0.1014 -0.5858
  318MOL0     C42857   4.620   9.573   6.611 -1.1415 -0.7186  0.3181
  318MOL0     C42858   4.583   9.523   6.741  0.5688  0.3913  0.5674
  318MOL0     C42859   4.532   9.480   6.844  0.3897 -1.0931  0.0012
  318MOL0     C42860   4.848   9.753   6.018  1.0246 -0.1953 -0.4413
  318MOL0     C42861   4.919   9.855   5.950 -0.0744  0.5319 -0.5647
  318MOL0     C42862   4.905   9.863   5.799 -0.7045  0.7551  0.4969
  318MOL0     H42863   5.342   9.883   5.769  1.9686  0.3043  1.6371
  318MOL0     H42864   5.542   9.974   5.661 -0.7393  0.3955 -0.6528
  318MOL0     H42865   5.637  10.380   5.702  1.1546 -0.0923  0.0304
  318MOL0     H42866   5.766  10.325   5.611 -0.4276 -0.6844  4.4162
  318MOL0     H42867   5.644  10.510   5.506  2.6162 -0.1491  0.1370
  318MOL0     H42868   5.496  10.397   5.498 -0.6829 -0.5860 -0.1325
  318MOL0     H42869   5.613  10.441   5.284 -1.1177 -1.9815 -1.2781
  318MOL0     H42870   5.629  10.276   5.335 -1.3115  1.9187 -4.0258
  318MOL0     H42871   5.850  10.492   5.397  0.7192 -1.2556  1.8044
  318MOL0     H42872   5.875  10.317   5.390 -1.1594 -1.5028 -0.3945
  318MOL0     H42873   5.874  10.325   5.163 -2.0254 -0.3495 -1.5453
  318MOL0     H42874   5.776  10.479   5.147  0.2362  1.2915  0.3087
  318MOL0     H42875   5.970  10.604   5.235  1.3546 -0.0089  1.6076
  318MOL0     H42876   6.062  10.445   5.230  0.9554  1.3674 -0.3470
  318MOL0     H42877   6.088  10.605   5.022 -0.5329 -0.3613 -2.1372
  318MOL0     H42878   5.933  10.541   4.978 -0.1372  2.2284  1.0811
  318MOL0     H42879   6.209  10.403   5.012 -0.3442 -2.0315 -1.6252
  318MOL0     H42880   6.064  10.305   5.037  2.3560 -0.1544  2.1083
  318MOL0     H42881   5.921  10.223   4.847 -0.7196 -1.2971 -1.2060
  318MOL0     H42882   5.834  10.179   4.596 -0.4287 -1.2068 -0.0159
  318MOL0     H42883   5.901  10.272   4.464  1.5705 -1.0745 -0.0695
  318MOL0     H42884   5.999  10.011   4.602  1.3049 -0.4289 -0.3689
  318MOL0     H42885   5.946  10.041   4.443 -1.2106  0.7516 -0.4233
  318MOL0     H42886   6.208  10.157   4.557  0.7957 -1.9219 -0.2316
  318MOL0     H42887   6.158  10.189   4.389 -1.1663 -1.5016 -0.9792
  318MOL0     H42888   6.165   9.947   4.357 -0.9001 -0.7923  0.9300
  318MOL0     H42889   6.260   9.922   4.503 -0.6378 -0.9802 -0.7347
  318MOL0     H42890   6.284   9.783   4.300 -2.4511  0.5057 -2.4260
  318MOL0     H42891   6.420   9.641   4.122 -0.4470  0.6109 -2.0810
  318MOL0     H42892   6.636   9.790   3.649 -1.2073  0.3432  1.8170
  318MOL0     H42893   6.769   9.693   3.455 -1.8304  0.3894  0.2975
  318MOL0     H42894   7.012   9.720   3.395  2.1857  0.9567 -1.0409
  318MOL0     H42895   7.140   9.599   3.393 -0.2994 -3.9709  0.7989
  318MOL0     H42896   6.985   9.454   3.259 -1.2198  0.0301 -1.4636
  318MOL0     H42897   6.876   9.588   3.248  0.6308  2.6156  2.3195
  318MOL0     H42898   7.162   9.594   3.143  0.1294 -0.6697 -1.4492
  318MOL0     H42899   7.024   9.559   3.032  2.1931 -3.2570  1.4984
  318MOL0     H42900   7.087   9.833   3.175  0.5718 -1.5878  0.5964
  318MOL0     H42901   6.928   9.790   3.110 -0.2482  0.2033  0.6961
  318MOL0     H42902   7.192   9.789   2.941 -1.2258 -1.1801 -3.6580
  318MOL0     H42903   7.073   9.914   2.965  3.1280  1.2174  1.2371
  318MOL0     H42904   7.011   9.634   2.838  1.5381 -0.4013  1.0818
  318MOL0     H42905   6.899   9.765   2.847 -1.1395  1.2390  4.3490
  318MOL0     H42906   7.178   9.805   2.732  0.8447 -0.3692 -1.5271
  318MOL0     H42907   7.044   9.920   2.713  0.7346 -0.5040 -0.2640
  318MOL0     H42908   6.904   9.748   2.596  0.2301 -0.5440  1.0754
  318MOL0     H42909   7.020   9.837   2.512 -1.2942  1.1207  0.9883
  318MOL0     H42910   7.056   9.536   3.724  0.5237  1.7308  2.5923
  318MOL0     H42911   6.953   9.669   3.916  1.6242  3.0338 -1.2782
  318MOL0     H42912   6.655   9.982   4.042  1.5243 -1.2417  0.0423
  318MOL0     H42913   6.525  10.122   4.219 -1.9468  1.1211 -1.7431
  318MOL0     H42914   5.389  10.367   5.674  0.3277 -0.7569 -2.1052
  318MOL0     H42915   5.177  10.288   5.763 -0.1776 -0.2043 -0.5797
  318MOL0     H42916   5.081   9.976   6.225  0.9070 -0.5120  0.2483
  318MOL0     H42917   4.915   9.819   6.338 -2.1130 -3.2970 -1.4160
  318MOL0     H42918   4.751   9.713   6.388  2.0057 -1.7116  2.7223
  318MOL0     H42919   4.796   9.542   6.375 -1.5315  0.1420  0.7753
  318MOL0     H42920   4.575   9.519   6.265  0.9326  0.4161 -1.0457
  318MOL0     H42921   4.537   9.673   6.338  1.8347  1.3605 -2.4968
  318MOL0     H42922   4.596   9.403   6.460 -1.4958 -0.5336 -1.4946
  318MOL0     H42923   4.452   9.499   6.477  0.1440 -0.5119  0.4249
  318MOL0     H42924   4.727   9.565   6.593 -1.5264 -0.5661 -2.6206
  318MOL0     H42925   4.588   9.677   6.615 -1.1927 -0.6175 -1.6533
  318MOL0     H42926   4.480   9.429   6.923 -0.3977  0.9082  0.8473
  318MOL0     H42927   4.794   9.683   5.955 -1.5191  1.0956  0.1328
  318MOL0     H42928   4.813   9.811   5.768 -1.4307  0.5421  2.8075
  318MOL0     H42929   4.901   9.967   5.764  2.8358 -0.0779 -3.0500
  318MOL0     H42930   4.999   9.827   5.758  0.0616  3.0956  0.0377
  319MOL0     O42931   4.942   8.198   4.820  0.2749  0.1662 -0.6930
  319MOL0     C42932   4.987   8.203   4.932  0.6633 -0.3871 -0.7685
  319MOL0     O42933   4.955   8.304   5.022 -0.4106 -0.9322 -0.0532
  319MOL0     C42934   4.852   8.393   5.003 -0.2447  0.1362  0.7795
  319MOL0     C42935   4.733   8.357   4.941 -0.4041 -0.6887 -0.2753
  319MOL0     C42936   4.632   8.456   4.909  0.3236 -0.1897 -0.2021
  319MOL0     C42937   4.634   8.581   4.958  0.1046 -0.0423  0.0618
  319MOL0     O42938   4.528   8.667   4.945 -0.2630  0.0172  0.4568
  319MOL0     C42939   4.559   8.806   4.928 -0.4562 -0.4504 -0.0693
  319MOL0     C42940   4.439   8.885   4.863  0.5339  1.2038 -0.4248
  319MOL0     C42941   4.488   9.020   4.821 -0.3385 -0.3842  0.2842
  319MOL0     C42942   4.359   9.095   4.778  0.4133  0.4255  0.2559
  319MOL0     C42943   4.407   9.237   4.733  0.3018  1.7270  0.2632
  319MOL0     C42944   4.289   9.320   4.664  0.4199  0.2433  0.5189
  319MOL0     C42945   4.353   9.446   4.633  0.4994 -1.1804 -0.1427
  319MOL0     C42946   4.252   9.562   4.630 -0.2872 -0.3712 -0.3607
  319MOL0     N42947   4.326   9.684   4.581 -0.2652 -0.4796 -0.5117
  319MOL0     C42948   4.387   9.704   4.458  0.6718  0.6745  0.5656
  319MOL0     C42949   4.425   9.835   4.457 -0.0739  0.9282  0.3021
  319MOL0     C42950   4.506   9.901   4.345  0.0295 -0.4033  0.2860
  319MOL0     C42951   4.623   9.823   4.287  0.1822 -0.1682  0.1825
  319MOL0     C42952   4.761   9.827   4.360 -0.2117  0.2015  0.1848
  319MOL0     C42953   4.761   9.762   4.493  0.1364  0.7067 -0.0482
  319MOL0     O42954   4.723   9.617   4.470 -0.7101 -0.1141 -0.0393
  319MOL0     C42955   4.739   9.527   4.577  0.6663 -0.4649  0.0032
  319MOL0     C42956   4.744   9.560   4.717  0.4037  0.9511  0.0021
  319MOL0     C42957   4.746   9.471   4.825 -0.0519  0.6042  0.0248
  319MOL0     C42958   4.762   9.337   4.788 -0.8804  0.3003 -0.4760
  319MOL0     C42959   4.788   9.239   4.894 -0.5619  0.2157 -0.3097
  319MOL0     O42960   4.850   9.122   4.861 -0.0614  0.5649 -0.6126
  319MOL0     C42961   4.932   9.037   4.939 -0.3771  0.2399 -0.6674
  319MOL0     C42962   4.935   9.040   5.081  0.3732 -0.3732  0.7484
  319MOL0     C42963   4.998   8.943   5.153 -0.2906 -0.9687  1.0758
  319MOL0     C42964   5.054   8.836   5.078  0.2515 -0.3858  0.0013
  319MOL0     O42965   5.114   8.725   5.148 -0.0646 -0.0066  0.5134
  319MOL0     C42966   5.204   8.639   5.078 -0.3421  1.2630 -0.0183
  319MOL0     C42967   5.253   8.524   5.178  0.3271 -0.0893  0.3679
  319MOL0     C42968   5.369   8.440   5.116 -0.6429  0.0123  0.3190
  319MOL0     C42969   5.403   8.320   5.204 -0.1886 -0.2267  0.1069
  319MOL0     C42970   5.485   8.345   5.329  0.5077  0.9368  0.4975
  319MOL0     C42971   5.577   8.214   5.358  0.1152 -0.5078  0.3550
  319MOL0     C42972   5.641   8.213   5.499  0.8894  0.3980 -0.3721
  319MOL0     C42973   5.765   8.129   5.497 -0.3035 -0.4349  0.2793
  319MOL0    Cl42974   5.829   8.128   5.666 -0.1547 -0.3162 -0.0933
  319MOL0     C42975   5.071   8.850   4.933  0.0471  0.3472  0.8910
  319MOL0     C42976   5.006   8.942   4.861  1.3276  0.1977 -0.1790
  319MOL0     O42977   4.771   9.277   5.008  0.1164  0.2916  0.2268
  319MOL0     C42978   4.764   9.298   4.653  0.7148  0.8222 -0.3983
  319MOL0     C42979   4.751   9.393   4.553 -0.3319 -0.8805  0.2727
  319MOL0     N42980   4.370   9.902   4.565 -0.3356  0.5411 -0.2460
  319MOL0     N42981   4.317   9.807   4.644 -0.1111 -0.4720  0.2994
  319MOL0     C42982   4.750   8.613   5.035  0.7152  1.1846 -0.3915
  319MOL0     C42983   4.853   8.523   5.061 -0.5135 -0.3729  0.3777
  319MOL0     C42984   5.081   8.095   4.978  0.1797 -0.2477  0.0587
  319MOL0     C42985   5.130   8.127   5.108  0.2753 -0.1957  0.7653
  319MOL0     C42986   5.214   8.038   5.168 -1.2399 -0.5420 -0.0458
  319MOL0     C42987   5.265   7.929   5.099 -0.3991 -0.9315 -0.2952
  319MOL0     O42988   5.356   7.854   5.165 -0.5588  0.0555 -0.3286
  319MOL0     C42989   5.400   7.730   5.114  0.4590  0.2057 -0.3278
  319MOL0     C42990   5.432   7.640   5.219 -0.0825  0.4564 -0.7144
  319MOL0     C42991   5.515   7.709   5.329  0.0887  0.6723 -0.9765
  319MOL0     C42992   5.551   7.598   5.430 -0.6807  0.4873 -0.0413
  319MOL0     C42993   5.627   7.650   5.541  0.5746  0.2686  0.0424
  319MOL0     C42994   5.680   7.698   5.639 -0.8860  0.9258  0.5495
  319MOL0     C42995   5.221   7.907   4.968  0.0786 -0.3116  0.2348
  319MOL0     C42996   5.127   7.988   4.905 -0.8416 -0.2060  0.0807
  319MOL0     C42997   5.109   7.975   4.751 -0.4129 -0.0680 -0.5439
  319MOL0     H42998   4.718   8.257   4.902  0.3261 -0.5432 -0.9623
  319MOL0     H42999   4.533   8.434   4.871 -0.9039  2.1765  1.3889
  319MOL0     H43000   4.586   8.857   5.021  2.2485  1.8712 -1.9634
  319MOL0     H43001   4.652   8.805   4.870  1.2791 -2.1171  2.5109
  319MOL0     H43002   4.363   8.889   4.942  0.5389  0.2651 -0.3596
  319MOL0     H43003   4.389   8.826   4.786 -0.0665  0.6300  0.3838
  319MOL0     H43004   4.547   9.012   4.729 -2.2256 -1.0365 -0.9378
  319MOL0     H43005   4.541   9.076   4.898  1.1999  0.5901 -1.4159
  319MOL0     H43006   4.330   9.032   4.694 -0.1798 -0.5186  1.1452
  319MOL0     H43007   4.285   9.094   4.858 -0.4200 -4.1225 -0.3332
  319MOL0     H43008   4.436   9.298   4.819  1.3792  1.9549 -0.2517
  319MOL0     H43009   4.493   9.222   4.667  0.1069 -0.3731  0.4111
  319MOL0     H43010   4.260   9.267   4.573  2.2561 -2.9330  1.6126
  319MOL0     H43011   4.206   9.327   4.734 -0.0907 -0.2080 -0.0282
  319MOL0     H43012   4.398   9.433   4.534  1.9286 -0.4603  0.3904
  319MOL0     H43013   4.442   9.473   4.690  1.6546  0.5695 -2.5870
  319MOL0     H43014   4.166   9.541   4.566 -1.4870  1.8656  0.4223
  319MOL0     H43015   4.217   9.572   4.733  0.8360 -2.2804  0.2590
  319MOL0     H43016   4.395   9.640   4.370  0.3094 -1.6040  2.1186
  319MOL0     H43017   4.428   9.929   4.273 -1.3914  1.2993  2.3646
  319MOL0     H43018   4.548   9.994   4.383 -0.7923  0.0570  0.1003
  319MOL0     H43019   4.600   9.718   4.269  0.1651  0.1542 -1.9046
  319MOL0     H43020   4.645   9.857   4.186  1.9916 -3.9388 -0.8451
  319MOL0     H43021   4.794   9.931   4.373 -1.3141  0.5946 -0.0423
  319MOL0     H43022   4.833   9.768   4.304  0.2447  0.3824  0.5715
  319MOL0     H43023   4.685   9.813   4.553  1.2765  2.7176 -0.2258
  319MOL0     H43024   4.857   9.777   4.543 -0.0526  0.6495  0.3337
  319MOL0     H43025   4.731   9.666   4.736  0.3534  0.5878  2.2295
  319MOL0     H43026   4.729   9.510   4.925  1.3327 -3.2394  1.9793
  319MOL0     H43027   4.885   9.114   5.143 -1.4462  1.6734 -2.8521
  319MOL0     H43028   4.990   8.935   5.261 -0.4361 -0.8323  1.0756
  319MOL0     H43029   5.165   8.591   4.988 -2.3006  0.7417  1.0335
  319MOL0     H43030   5.296   8.695   5.061  1.2808 -0.1636  3.1263
  319MOL0     H43031   5.292   8.571   5.269  0.2481  0.5162  0.0947
  319MOL0     H43032   5.176   8.452   5.208 -0.4434 -0.1079 -1.5534
  319MOL0     H43033   5.341   8.422   5.011  0.8723  0.3173 -0.1712
  319MOL0     H43034   5.450   8.514   5.111  1.1090 -1.8269  0.2080
  319MOL0     H43035   5.469   8.261   5.140  0.1039  0.5247 -0.2889
  319MOL0     H43036   5.316   8.261   5.235  0.0009 -0.8092 -0.4540
  319MOL0     H43037   5.419   8.370   5.412 -3.0238  2.3530 -2.4552
  319MOL0     H43038   5.558   8.420   5.295 -0.3697  0.7712 -1.9454
  319MOL0     H43039   5.514   8.126   5.345 -0.3086  0.1395 -2.8886
  319MOL0     H43040   5.659   8.209   5.285 -0.3370  3.2752 -0.6396
  319MOL0     H43041   5.566   8.159   5.558 -0.5602  1.9429 -0.7211
  319MOL0     H43042   5.675   8.313   5.525  1.9420  0.5841 -2.3273
  319MOL0     H43043   5.731   8.033   5.456 -1.2978 -0.1221  0.3577
  319MOL0     H43044   5.833   8.163   5.418  0.0858 -0.9101  0.4055
  319MOL0     H43045   5.131   8.783   4.872  0.8337  1.3415  0.5611
  319MOL0     H43046   5.020   8.938   4.754  1.7520 -0.5667 -0.1036
  319MOL0     H43047   4.766   9.193   4.625 -1.8760 -0.0307  2.0575
  319MOL0     H43048   4.767   9.363   4.450  1.3043  2.4709 -0.5902
  319MOL0     H43049   4.759   8.713   5.077 -2.0676  0.4658  2.2583
  319MOL0     H43050   4.943   8.560   5.110 -1.3537  1.6341  0.4874
  319MOL0     H43051   5.103   8.217   5.163  2.7970 -0.8336  3.3298
  319MOL0     H43052   5.250   8.066   5.267  2.6782 -2.3306 -0.7511
  319MOL0     H43053   5.482   7.763   5.050 -1.2255 -1.6846 -3.7550
  319MOL0     H43054   5.330   7.679   5.047  0.5912 -1.7755  0.9804
  319MOL0     H43055   5.473   7.547   5.179  2.3325 -0.1780  2.7226
  319MOL0     H43056   5.333   7.610   5.253  0.9928 -0.0707  2.3454
  319MOL0     H43057   5.449   7.777   5.384  1.0326  0.0226  1.1006
  319MOL0     H43058   5.601   7.754   5.280  0.4841 -1.8967 -2.8701
  319MOL0     H43059   5.463   7.542   5.462 -0.5255  0.1216 -0.2499
  319MOL0     H43060   5.612   7.523   5.380 -2.1310 -0.9613  0.2566
  319MOL0     H43061   5.742   7.752   5.707  2.3267  1.1928 -2.2901
  319MOL0     H43062   5.262   7.822   4.915 -2.8290 -2.0865  0.5726
  319MOL0     H43063   5.160   8.059   4.704 -1.5640  0.4441 -0.9181
  319MOL0     H43064   5.145   7.877   4.717 -1.3244 -0.5496 -0.1728
  319MOL0     H43065   5.004   7.974   4.718 -0.6703 -1.5027  0.1925
  320MOL0     O43066   1.730   2.699   3.486  0.0448  0.9370  0.2364
  320MOL0     C43067   1.622   2.668   3.438 -0.5971 -0.4269 -0.4100
  320MOL0     O43068   1.538   2.751   3.379  0.1292 -0.5214  0.1887
  320MOL0     C43069   1.590   2.867   3.339  0.5134 -1.1403  0.9044
  320MOL0     C43070   1.564   2.983   3.412 -0.5005 -0.0748  0.6287
  320MOL0     C43071   1.593   3.105   3.354  0.1628 -0.1687 -0.5972
  320MOL0     C43072   1.662   3.114   3.229  1.0066  0.7745  0.7321
  320MOL0     O43073   1.708   3.231   3.173  0.5933  0.2992 -0.7761
  320MOL0     C43074   1.738   3.329   3.278  0.0975 -0.0458 -0.4859
  320MOL0     C43075   1.818   3.442   3.225 -0.1496 -0.4804 -0.0978
  320MOL0     C43076   1.758   3.519   3.109 -0.0896 -0.1542 -0.0038
  320MOL0     C43077   1.826   3.652   3.088  0.4589  0.0458  0.1386
  320MOL0     C43078   1.777   3.702   2.953  0.0073 -0.1228  0.3839
  320MOL0     C43079   1.822   3.847   2.936 -0.0654  1.0255  0.3009
  320MOL0     C43080   1.774   3.897   2.801  0.5553 -1.0867 -0.1179
  320MOL0     C43081   1.709   4.042   2.821 -0.3794 -0.6875 -0.3041
  320MOL0     N43082   1.799   4.151   2.844 -0.2097 -0.2915 -0.1980
  320MOL0     C43083   1.831   4.204   2.967 -0.5925 -0.0429  0.4622
  320MOL0     C43084   1.891   4.328   2.936  0.9949  0.6143 -0.0811
  320MOL0     C43085   1.944   4.418   3.034 -0.4399  0.4973  0.3339
  320MOL0     C43086   1.881   4.555   3.047 -0.7992 -0.5436 -0.7361
  320MOL0     C43087   1.975   4.644   3.132  0.9009  0.2768  0.7377
  320MOL0     C43088   2.056   4.738   3.034 -0.7640 -0.6421 -0.6292
  320MOL0     O43089   1.976   4.830   2.955 -0.5194 -0.2638 -0.8127
  320MOL0     C43090   1.993   4.966   2.976  0.2201 -0.4976 -0.7465
  320MOL0     C43091   2.112   5.033   3.009  0.5915 -0.0599  0.5340
  320MOL0     C43092   2.109   5.166   3.040 -0.0516 -0.0790 -0.1892
  320MOL0     C43093   1.987   5.240   3.028 -0.7515  0.4815  0.0241
  320MOL0     C43094   1.986   5.380   3.067  0.7287 -0.5946 -0.4735
  320MOL0     O43095   1.860   5.427   3.104 -0.2158 -0.0434 -0.6428
  320MOL0     C43096   1.848   5.555   3.123  0.6374 -0.6275 -0.1210
  320MOL0     C43097   1.799   5.604   3.248  0.2788  0.0432  0.6461
  320MOL0     C43098   1.776   5.741   3.270 -0.0763 -0.2568  0.2851
  320MOL0     C43099   1.804   5.833   3.161  0.3903  0.2765  0.6057
  320MOL0     O43100   1.789   5.963   3.186 -0.1617 -0.3199  0.1628
  320MOL0     C43101   1.760   6.042   3.066  0.1393 -0.3041  0.2428
  320MOL0     C43102   1.614   6.022   3.018  0.4572  1.0348  0.4157
  320MOL0     C43103   1.506   6.091   3.115 -0.2144  0.3113 -0.9361
  320MOL0     C43104   1.481   6.243   3.109 -0.8346 -0.4614 -0.8078
  320MOL0     C43105   1.371   6.293   3.202 -0.1125  0.8929  0.1758
  320MOL0     C43106   1.401   6.300   3.350  1.1279 -0.4449 -0.5798
  320MOL0     C43107   1.494   6.412   3.397  1.0081  0.2130  0.3693
  320MOL0     C43108   1.448   6.551   3.368  0.8259 -0.6736  1.0118
  320MOL0    Cl43109   1.574   6.666   3.426 -0.1600  0.2348  0.2054
  320MOL0     C43110   1.856   5.782   3.042 -0.3307  0.3316  0.3749
  320MOL0     C43111   1.872   5.645   3.015 -0.7457  0.1665  0.6989
  320MOL0     O43112   2.088   5.444   3.066 -0.6519 -0.6117  0.5703
  320MOL0     C43113   1.867   5.172   2.996 -0.2973  0.3389  0.0792
  320MOL0     C43114   1.871   5.039   2.975  0.4424 -0.1598 -0.8828
  320MOL0     N43115   1.889   4.343   2.799  0.7773 -0.2289 -0.3590
  320MOL0     N43116   1.838   4.232   2.745  0.1086  0.0901 -0.1176
  320MOL0     C43117   1.677   3.000   3.150 -0.0569  0.6988 -1.1802
  320MOL0     C43118   1.637   2.877   3.209 -0.1841  0.7157 -0.8797
  320MOL0     C43119   1.584   2.524   3.424  0.3500 -0.7870 -0.2921
  320MOL0     C43120   1.507   2.496   3.312  0.3137 -0.1675  1.0399
  320MOL0     C43121   1.487   2.358   3.270 -0.0638 -1.6438  0.6720
  320MOL0     C43122   1.529   2.261   3.350  0.3815 -0.0490 -0.1511
  320MOL0     O43123   1.505   2.125   3.311 -0.2744 -0.2954  0.7825
  320MOL0     C43124   1.415   2.100   3.203  0.3674  0.7138  0.3914
  320MOL0     C43125   1.376   1.951   3.224  0.4383  0.0421 -0.3761
  320MOL0     C43126   1.332   1.907   3.089 -0.6442  0.3003  0.7374
  320MOL0     C43127   1.279   1.765   3.097 -0.1101  1.2334  0.4881
  320MOL0     C43128   1.213   1.729   2.974  0.9062 -1.2053  0.1288
  320MOL0     C43129   1.147   1.674   2.884  0.2703 -0.4526 -0.6595
  320MOL0     C43130   1.591   2.292   3.474 -0.1675  1.1777  0.7749
  320MOL0     C43131   1.629   2.419   3.510  0.0382 -0.0536 -0.1301
  320MOL0     C43132   1.718   2.442   3.624  0.5059 -0.6557 -0.1769
  320MOL0     H43133   1.513   2.970   3.507 -1.7464 -2.0443 -0.2516
  320MOL0     H43134   1.544   3.192   3.397 -0.4540 -1.6605  1.9416
  320MOL0     H43135   1.645   3.365   3.322 -0.3580 -0.5985 -0.9853
  320MOL0     H43136   1.800   3.293   3.360  3.6694  0.0652 -2.8916
  320MOL0     H43137   1.918   3.405   3.199  0.1091  1.7693 -2.9061
  320MOL0     H43138   1.833   3.516   3.304  0.4525 -1.2108  0.4779
  320MOL0     H43139   1.652   3.544   3.122 -0.5249 -1.6975 -0.4215
  320MOL0     H43140   1.763   3.457   3.019  1.2867 -0.0851  0.0092
  320MOL0     H43141   1.802   3.723   3.169  3.1347  0.5741  0.5700
  320MOL0     H43142   1.934   3.643   3.093  0.4013 -0.7496  0.1010
  320MOL0     H43143   1.836   3.645   2.881 -3.1258 -3.6334  0.3032
  320MOL0     H43144   1.669   3.694   2.941 -0.1535 -0.0759  1.6527
  320MOL0     H43145   1.784   3.913   3.015 -0.2040  0.7367  0.4784
  320MOL0     H43146   1.930   3.863   2.941  0.2288 -0.5016 -0.3603
  320MOL0     H43147   1.708   3.817   2.765  0.1426 -1.7236  1.8920
  320MOL0     H43148   1.860   3.900   2.735 -0.6115 -2.0478 -1.7713
  320MOL0     H43149   1.658   4.080   2.732 -0.6123  0.2376  0.2021
  320MOL0     H43150   1.636   4.040   2.902 -0.2279  0.4106 -0.1188
  320MOL0     H43151   1.819   4.152   3.061 -0.7367  0.6252  0.8248
  320MOL0     H43152   1.958   4.369   3.131  4.8147 -1.8732 -1.2743
  320MOL0     H43153   2.042   4.451   2.998 -1.5253  4.5675  0.5355
  320MOL0     H43154   1.857   4.605   2.952 -2.7563  2.3498  1.1012
  320MOL0     H43155   1.785   4.543   3.097 -0.7278  1.0203 -0.1567
  320MOL0     H43156   2.045   4.584   3.191 -1.1931 -1.3610  1.6613
  320MOL0     H43157   1.917   4.695   3.209  0.1947  0.8308 -0.1458
  320MOL0     H43158   2.114   4.678   2.963 -1.8523  1.4957 -3.5523
  320MOL0     H43159   2.125   4.801   3.090 -1.6887  0.7107 -0.9645
  320MOL0     H43160   2.196   4.966   3.021 -0.8202 -1.7714  1.2411
  320MOL0     H43161   2.201   5.218   3.064 -1.0596  2.2773 -1.1320
  320MOL0     H43162   1.780   5.536   3.330  0.2309  0.2519  0.8097
  320MOL0     H43163   1.747   5.791   3.362  0.1044 -0.1979  0.3106
  320MOL0     H43164   1.777   6.145   3.097 -0.4919 -0.5554  1.5257
  320MOL0     H43165   1.836   6.035   2.988  0.9203  2.1613  0.7161
  320MOL0     H43166   1.610   6.072   2.921 -0.6242 -2.4221 -1.5292
  320MOL0     H43167   1.597   5.914   3.011 -1.8890  1.1819  2.5074
  320MOL0     H43168   1.413   6.037   3.093  0.5579 -1.0202 -1.0101
  320MOL0     H43169   1.537   6.059   3.215 -2.0279 -0.0124 -0.4396
  320MOL0     H43170   1.439   6.261   3.009 -2.2250  0.7684 -0.0482
  320MOL0     H43171   1.574   6.293   3.137 -0.3493 -1.5153 -0.5070
  320MOL0     H43172   1.291   6.219   3.192 -0.1383  0.4824  2.7089
  320MOL0     H43173   1.325   6.387   3.169  0.4871  0.7470 -1.1390
  320MOL0     H43174   1.309   6.313   3.408  2.0549  2.5729  0.4012
  320MOL0     H43175   1.444   6.213   3.401 -0.5743 -0.9354  0.0964
  320MOL0     H43176   1.587   6.405   3.339  0.7041  1.4320 -0.3073
  320MOL0     H43177   1.521   6.402   3.502  2.6401  2.9271  0.3279
  320MOL0     H43178   1.443   6.560   3.259  0.5180  0.2725  1.0906
  320MOL0     H43179   1.351   6.576   3.410  1.1619 -0.8405  1.9010
  320MOL0     H43180   1.867   5.824   2.942  0.3607 -0.4413  0.1126
  320MOL0     H43181   1.907   5.619   2.915  2.4501  0.8102  1.5150
  320MOL0     H43182   1.773   5.225   2.994  0.7655  2.3389 -2.4938
  320MOL0     H43183   1.780   4.980   2.967  1.0671 -1.9097  2.8878
  320MOL0     H43184   1.721   2.998   3.051  2.2799 -0.8781 -0.2178
  320MOL0     H43185   1.646   2.790   3.144  0.0851  2.0136 -2.6788
  320MOL0     H43186   1.474   2.567   3.237  3.0384  2.1253  1.8471
  320MOL0     H43187   1.449   2.341   3.169  2.9047 -1.0557 -0.6437
  320MOL0     H43188   1.450   2.121   3.101  0.7000  0.6591  0.4931
  320MOL0     H43189   1.326   2.161   3.219 -0.2881 -0.4920  1.5132
  320MOL0     H43190   1.294   1.961   3.296  1.6742  3.2889  0.7940
  320MOL0     H43191   1.453   1.891   3.273 -0.3346  0.7177  1.8370
  320MOL0     H43192   1.412   1.912   3.015 -1.1816 -1.3928 -0.0105
  320MOL0     H43193   1.246   1.961   3.048  1.0780  3.4150  0.9376
  320MOL0     H43194   1.367   1.701   3.113  0.1746  1.6930  0.7745
  320MOL0     H43195   1.214   1.728   3.177  2.6888 -3.2815  1.0172
  320MOL0     H43196   1.095   1.623   2.806  0.9591  0.7302 -1.9482
  320MOL0     H43197   1.616   2.209   3.539  0.0072  0.0942 -0.6343
  320MOL0     H43198   1.813   2.476   3.582  1.4213 -0.9023  1.5911
  320MOL0     H43199   1.672   2.504   3.702 -1.2316  1.6257 -2.8059
  320MOL0     H43200   1.748   2.350   3.674 -1.0908  0.2768  2.7312
  321MOL0     O43201   2.665   5.767   2.364  0.2408  0.0352 -0.0547
  321MOL0     C43202   2.588   5.851   2.412 -0.2465  0.5015  0.1062
  321MOL0     O43203   2.455   5.856   2.388 -0.3757  0.3244 -0.3127
  321MOL0     C43204   2.388   5.755   2.331  0.3754  0.5983 -0.3466
  321MOL0     C43205   2.311   5.773   2.217  0.0822 -0.4230 -0.8921
  321MOL0     C43206   2.244   5.675   2.149 -0.3461 -0.4457 -0.0979
  321MOL0     C43207   2.224   5.547   2.195  0.0802 -0.4390 -0.4414
  321MOL0     O43208   2.142   5.452   2.142  0.2327  0.0237 -0.5743
  321MOL0     C43209   2.188   5.320   2.155 -0.2392 -0.2517  0.9907
  321MOL0     C43210   2.087   5.235   2.068  0.7185 -0.0518 -0.0202
  321MOL0     C43211   2.070   5.294   1.925 -0.2103  0.0381  0.3759
  321MOL0     C43212   2.200   5.304   1.841 -0.9762 -0.6652  0.8050
  321MOL0     C43213   2.198   5.337   1.687 -0.1456 -0.7147  0.8901
  321MOL0     C43214   2.101   5.265   1.590 -0.7040 -0.6725  0.6688
  321MOL0     C43215   2.160   5.129   1.556  0.2454  0.3535 -0.0887
  321MOL0     C43216   2.097   5.058   1.432 -0.1425  0.9585 -0.9220
  321MOL0     N43217   2.207   5.009   1.346  0.1124 -0.0332  0.3187
  321MOL0     C43218   2.294   4.907   1.359  0.8909  0.6860 -0.0413
  321MOL0     C43219   2.349   4.884   1.234  0.3158 -0.4836  0.2616
  321MOL0     C43220   2.447   4.781   1.194 -0.1102 -0.2313 -0.3433
  321MOL0     C43221   2.582   4.815   1.259  0.9001  0.5133  0.3953
  321MOL0     C43222   2.647   4.917   1.167 -1.1221 -0.2452  0.3383
  321MOL0     C43223   2.790   4.937   1.222 -0.1707  0.3957 -1.0578
  321MOL0     O43224   2.867   4.811   1.236  0.3269 -0.1696 -0.5560
  321MOL0     C43225   2.997   4.828   1.279  0.6332  0.9675 -0.3698
  321MOL0     C43226   3.070   4.945   1.288  0.2645  0.6746 -0.7174
  321MOL0     C43227   3.206   4.944   1.330 -0.2839  0.5278  1.0137
  321MOL0     C43228   3.264   4.826   1.371 -1.1531 -0.3215 -0.0501
  321MOL0     C43229   3.386   4.836   1.441 -0.4582 -0.4344 -0.0898
  321MOL0     O43230   3.398   4.762   1.559 -0.0613 -0.9865  0.9713
  321MOL0     C43231   3.512   4.740   1.619  0.1927 -0.4508 -0.9812
  321MOL0     C43232   3.498   4.721   1.760  0.8172 -0.4759  0.2425
  321MOL0     C43233   3.605   4.683   1.833 -0.3850  0.4952  0.3251
  321MOL0     C43234   3.725   4.660   1.772 -1.6082 -0.1452  0.1884
  321MOL0     O43235   3.831   4.612   1.857  0.8797 -0.1436  0.5694
  321MOL0     C43236   3.961   4.643   1.826  1.4353  0.0465 -0.0267
  321MOL0     C43237   4.063   4.605   1.928 -0.6127 -0.0769 -0.4653
  321MOL0     C43238   4.087   4.457   1.928 -0.0370 -0.1839  0.1295
  321MOL0     C43239   4.189   4.413   2.026  0.1561 -0.0183 -0.0780
  321MOL0     C43240   4.196   4.262   2.063  0.2661 -1.1515 -0.5556
  321MOL0     C43241   4.208   4.179   1.935 -0.6450  0.9080  0.2388
  321MOL0     C43242   4.213   4.023   1.947  0.0082  0.1844 -0.7497
  321MOL0     C43243   4.066   3.968   1.989 -0.6751 -0.1822 -0.2247
  321MOL0    Cl43244   4.073   3.798   2.036  0.7846 -0.5457  0.3041
  321MOL0     C43245   3.736   4.674   1.630 -0.3973 -0.7391 -0.0205
  321MOL0     C43246   3.625   4.713   1.547 -0.1869  0.4085  0.1638
  321MOL0     O43247   3.468   4.924   1.397  0.6705  0.1494 -0.0669
  321MOL0     C43248   3.191   4.710   1.368 -0.6627 -0.5514  0.6813
  321MOL0     C43249   3.059   4.711   1.317  0.8955  0.3856 -0.0444
  321MOL0     N43250   2.289   4.977   1.141  0.8058  0.2843 -1.3252
  321MOL0     N43251   2.207   5.046   1.213  1.0260 -0.1591 -0.0455
  321MOL0     C43252   2.294   5.529   2.318 -0.8234 -0.0382 -0.0797
  321MOL0     C43253   2.372   5.626   2.387 -1.0082 -0.7907  0.0531
  321MOL0     C43254   2.631   5.972   2.476 -1.3181  0.0511  0.7674
  321MOL0     C43255   2.577   5.995   2.607  0.3016 -0.2293  0.8219
  321MOL0     C43256   2.626   6.096   2.679  0.3923 -0.7389  0.5798
  321MOL0     C43257   2.710   6.195   2.622 -0.2394 -1.2176 -0.0215
  321MOL0     O43258   2.758   6.296   2.706 -0.0001  0.0606  0.0232
  321MOL0     C43259   2.833   6.406   2.650  0.7441  0.7487  0.3294
  321MOL0     C43260   2.799   6.543   2.718 -0.0142  0.1019  0.4476
  321MOL0     C43261   2.648   6.547   2.745  0.2946  0.8546  0.2207
  321MOL0     C43262   2.607   6.649   2.853  0.8995 -0.7775 -0.3824
  321MOL0     C43263   2.454   6.644   2.848 -0.7232  0.1192  0.1768
  321MOL0     C43264   2.337   6.635   2.842 -0.3281 -0.7735 -0.2263
  321MOL0     C43265   2.755   6.177   2.493 -0.3989  0.4546  0.6055
  321MOL0     C43266   2.723   6.064   2.420 -1.1087  0.6122  0.1765
  321MOL0     C43267   2.779   6.044   2.284  0.4952 -0.2317 -0.3944
  321MOL0     H43268   2.288   5.872   2.179  0.9923  0.5181  0.8987
  321MOL0     H43269   2.188   5.710   2.063  0.2210  2.1641  0.5132
  321MOL0     H43270   2.287   5.303   2.112 -0.3687 -1.7926  1.2185
  321MOL0     H43271   2.183   5.273   2.254  0.3625 -2.0867  0.2025
  321MOL0     H43272   1.988   5.235   2.115  0.2975  0.2775 -0.8847
  321MOL0     H43273   2.116   5.130   2.057  0.2405 -0.4008  1.6455
  321MOL0     H43274   2.041   5.398   1.943  0.1393 -0.2014  2.5687
  321MOL0     H43275   2.000   5.237   1.864 -2.4381  1.5740  1.3713
  321MOL0     H43276   2.255   5.388   1.885 -2.2099  1.1786 -0.9982
  321MOL0     H43277   2.260   5.213   1.849  1.0926  0.3290 -2.0035
  321MOL0     H43278   2.156   5.438   1.680 -1.3462 -1.2912 -1.6431
  321MOL0     H43279   2.298   5.345   1.645 -0.2975 -0.4402  0.5760
  321MOL0     H43280   1.999   5.257   1.629 -0.1873  0.0291  2.2781
  321MOL0     H43281   2.084   5.325   1.500 -1.6386 -0.3176  1.0661
  321MOL0     H43282   2.153   5.052   1.633 -1.6148 -1.1399 -1.6513
  321MOL0     H43283   2.269   5.142   1.546  0.8031 -3.4590 -0.5432
  321MOL0     H43284   2.017   4.984   1.444  0.3759  0.6070  0.5973
  321MOL0     H43285   2.042   5.132   1.373 -3.1387 -1.0663 -0.9067
  321MOL0     H43286   2.305   4.855   1.453  0.6514 -0.2804 -0.5398
  321MOL0     H43287   2.420   4.691   1.251  1.2496 -0.1966  0.3779
  321MOL0     H43288   2.444   4.765   1.086 -0.4134  3.9087 -1.0742
  321MOL0     H43289   2.568   4.843   1.364  1.6881 -3.9807  1.9119
  321MOL0     H43290   2.640   4.723   1.268  4.3321  2.2648 -1.8039
  321MOL0     H43291   2.597   5.014   1.156  1.8742  1.1333 -3.2978
  321MOL0     H43292   2.651   4.867   1.071  0.9809  0.4528  0.0166
  321MOL0     H43293   2.792   4.986   1.320 -0.2763 -0.0914 -0.8105
  321MOL0     H43294   2.846   5.009   1.161  3.0874 -2.3790 -1.6732
  321MOL0     H43295   3.024   5.041   1.268 -0.8339  0.3284  0.0661
  321MOL0     H43296   3.247   5.043   1.347 -0.9328  0.8796  0.5782
  321MOL0     H43297   3.403   4.734   1.811 -0.4877 -3.8676 -1.0254
  321MOL0     H43298   3.599   4.675   1.941  1.2692 -3.5584  0.2799
  321MOL0     H43299   3.980   4.584   1.736  0.9374 -4.2835  2.4362
  321MOL0     H43300   3.967   4.751   1.805 -2.1826  0.6407  1.1739
  321MOL0     H43301   4.158   4.659   1.924 -0.2521 -0.7028 -0.5242
  321MOL0     H43302   4.046   4.644   2.029 -0.1369 -1.1282  0.0323
  321MOL0     H43303   3.995   4.402   1.952 -0.4109 -0.6650 -2.1975
  321MOL0     H43304   4.105   4.431   1.823 -0.9168  1.4895 -0.4710
  321MOL0     H43305   4.182   4.476   2.116 -1.7267 -0.4134  0.0830
  321MOL0     H43306   4.286   4.451   1.991  1.2636 -0.1110  2.6318
  321MOL0     H43307   4.105   4.242   2.119 -1.4759  4.0353 -0.9448
  321MOL0     H43308   4.284   4.241   2.125 -1.9993 -0.3844  3.2950
  321MOL0     H43309   4.124   4.209   1.872 -1.8480 -1.4968  0.6046
  321MOL0     H43310   4.301   4.201   1.880 -0.7208 -0.5203 -0.5036
  321MOL0     H43311   4.291   3.997   2.018 -0.8520  0.4387  0.3204
  321MOL0     H43312   4.238   3.999   1.843 -1.4852  4.5012 -2.3227
  321MOL0     H43313   4.035   4.029   2.074  0.9382 -0.2534  0.4415
  321MOL0     H43314   3.988   3.989   1.914 -0.6265  0.8546  0.0090
  321MOL0     H43315   3.821   4.637   1.574  0.3749 -2.8217  2.3812
  321MOL0     H43316   3.625   4.724   1.439 -0.3263 -2.4664 -0.2290
  321MOL0     H43317   3.233   4.615   1.400  0.5470 -0.4126 -0.4328
  321MOL0     H43318   3.003   4.619   1.306  3.5025 -1.0588 -2.6507
  321MOL0     H43319   2.284   5.431   2.363  1.0509  0.1544  0.8598
  321MOL0     H43320   2.415   5.589   2.479  1.1871  1.5338  0.0515
  321MOL0     H43321   2.508   5.923   2.651 -0.8522  0.3668  0.0260
  321MOL0     H43322   2.598   6.115   2.782  1.5518  1.5610  0.5398
  321MOL0     H43323   2.800   6.417   2.546 -0.8270  0.5583  0.7833
  321MOL0     H43324   2.942   6.393   2.646  0.6825  0.6037 -1.2990
  321MOL0     H43325   2.827   6.620   2.645  3.0612  0.2173  1.5968
  321MOL0     H43326   2.861   6.552   2.807  0.1915 -0.4740  0.3631
  321MOL0     H43327   2.616   6.447   2.775  3.7447 -1.0013 -1.6171
  321MOL0     H43328   2.606   6.578   2.648 -3.2672  2.7416  2.1784
  321MOL0     H43329   2.639   6.633   2.957 -0.0004  1.2604  0.2608
  321MOL0     H43330   2.629   6.749   2.814 -1.1082 -1.0082 -2.2619
  321MOL0     H43331   2.233   6.615   2.832 -0.6272  0.6392 -0.0954
  321MOL0     H43332   2.828   6.245   2.450 -2.3353  2.7313  0.7156
  321MOL0     H43333   2.714   5.991   2.214 -0.9015  0.5324  0.2923
  321MOL0     H43334   2.791   6.143   2.239  3.4626  0.8001  2.2673
  321MOL0     H43335   2.874   5.993   2.302  1.5458  0.5775 -3.0705
  322MOL0     O43336   6.727   5.881   8.233  0.3127 -0.0229 -0.1969
  322MOL0     C43337   6.712   6.006   8.228 -0.3216  0.3222 -0.5593
  322MOL0     O43338   6.713   6.077   8.115  0.4593 -0.2659 -0.5425
  322MOL0     C43339   6.706   6.015   7.993  0.0948  0.0320 -0.0134
  322MOL0     C43340   6.626   5.909   7.956  0.6830  0.5978 -0.4194
  322MOL0     C43341   6.638   5.835   7.840 -0.3185 -0.5130 -0.2215
  322MOL0     C43342   6.741   5.865   7.755  0.1707  0.2567  0.2563
  322MOL0     O43343   6.760   5.789   7.643  0.2718 -0.5630 -0.1907
  322MOL0     C43344   6.708   5.858   7.524  0.4318  0.3477  0.1718
  322MOL0     C43345   6.566   5.911   7.533 -0.1814  0.5090  0.6942
  322MOL0     C43346   6.527   5.964   7.396  0.0184  0.0747 -0.1095
  322MOL0     C43347   6.411   6.062   7.395  0.1291  0.3135  0.6094
  322MOL0     C43348   6.431   6.200   7.466 -0.8808  0.1940 -0.5510
  322MOL0     C43349   6.547   6.280   7.400 -0.4624  0.0036  0.1741
  322MOL0     C43350   6.534   6.435   7.445  0.1322 -0.0654  0.1665
  322MOL0     C43351   6.653   6.511   7.394 -0.4848  0.3372 -0.6629
  322MOL0     N43352   6.677   6.496   7.246 -0.0473  0.0034 -0.3384
  322MOL0     C43353   6.754   6.407   7.167  0.7906  0.3838  0.4535
  322MOL0     C43354   6.740   6.453   7.037 -0.4455 -0.2029  0.4696
  322MOL0     C43355   6.817   6.381   6.929  0.1409  0.3635  0.3339
  322MOL0     C43356   6.864   6.472   6.815 -0.1584 -0.5782 -0.5245
  322MOL0     C43357   6.935   6.401   6.696 -0.8443 -0.1147  0.4675
  322MOL0     C43358   7.067   6.326   6.740  0.2667  0.1447  0.1737
  322MOL0     O43359   7.168   6.404   6.810  0.3704  0.4575 -0.1201
  322MOL0     C43360   7.217   6.529   6.760 -0.6497 -0.2535  0.0812
  322MOL0     C43361   7.258   6.553   6.623 -0.4654  1.0017  0.6651
  322MOL0     C43362   7.316   6.675   6.583 -0.1544  0.4412 -0.8299
  322MOL0     C43363   7.338   6.782   6.682  0.0002  0.0458  0.2297
  322MOL0     C43364   7.407   6.902   6.650 -0.2751 -0.3595 -0.4940
  322MOL0     O43365   7.453   6.914   6.524  1.0948  0.0051  0.1999
  322MOL0     C43366   7.515   7.029   6.483 -0.3630  0.3998 -0.8547
  322MOL0     C43367   7.440   7.134   6.426  0.9910  0.2515  0.9134
  322MOL0     C43368   7.511   7.241   6.373 -0.5129 -0.0870  0.4908
  322MOL0     C43369   7.653   7.240   6.378 -0.5476 -0.3026 -0.3929
  322MOL0     O43370   7.705   7.360   6.327 -0.2362 -0.4838 -0.9520
  322MOL0     C43371   7.798   7.360   6.227 -0.5425  0.0333 -0.2056
  322MOL0     C43372   7.850   7.493   6.202 -0.5492  0.2501 -0.4100
  322MOL0     C43373   7.942   7.545   6.313  0.6626 -0.8977 -0.7380
  322MOL0     C43374   8.071   7.455   6.319  0.1705  0.1257 -0.0901
  322MOL0     C43375   8.197   7.525   6.374 -0.8017 -0.3262 -0.2109
  322MOL0     C43376   8.214   7.496   6.524  0.3036 -0.3847  0.1900
  322MOL0     C43377   8.321   7.577   6.592 -1.0280 -0.0935  0.4578
  322MOL0     C43378   8.370   7.513   6.725  0.3353  0.4459 -0.6847
  322MOL0    Cl43379   8.230   7.466   6.827  0.3077 -0.1073 -0.2384
  322MOL0     C43380   7.723   7.134   6.423 -0.6695  0.2267  0.4462
  322MOL0     C43381   7.656   7.027   6.476  0.0354 -0.6835  1.1362
  322MOL0     O43382   7.415   6.991   6.737 -0.2183  0.5394 -0.1228
  322MOL0     C43383   7.304   6.762   6.819 -0.5718 -0.6698 -0.0894
  322MOL0     C43384   7.243   6.637   6.859  0.8052 -0.2100 -0.8002
  322MOL0     N43385   6.674   6.574   7.044 -0.4324 -0.5662 -0.3068
  322MOL0     N43386   6.642   6.596   7.162  0.9325  0.8490 -0.4805
  322MOL0     C43387   6.828   5.972   7.789 -0.1874 -0.1024 -0.0343
  322MOL0     C43388   6.808   6.044   7.904 -0.5987 -0.1306 -0.0404
  322MOL0     C43389   6.669   6.057   8.352  0.7649  0.7975 -0.3019
  322MOL0     C43390   6.601   5.967   8.449 -0.0878 -0.8906 -0.6110
  322MOL0     C43391   6.563   6.008   8.579  0.6472 -0.6362  0.9752
  322MOL0     C43392   6.599   6.133   8.621  0.3131 -0.0262 -0.4970
  322MOL0     O43393   6.557   6.173   8.745  0.5972 -0.1380 -0.1177
  322MOL0     C43394   6.423   6.237   8.736  0.1710 -0.4902  0.5633
  322MOL0     C43395   6.362   6.261   8.870 -0.1001  0.3521  0.0478
  322MOL0     C43396   6.446   6.348   8.963 -0.7122 -0.5980 -0.2420
  322MOL0     C43397   6.553   6.272   9.048 -0.8122  1.2762  0.2171
  322MOL0     C43398   6.505   6.187   9.159  0.1942 -0.1778 -0.6058
  322MOL0     C43399   6.481   6.131   9.262  0.3525 -0.0692 -0.1612
  322MOL0     C43400   6.662   6.226   8.531 -0.7702 -0.4312  0.4338
  322MOL0     C43401   6.696   6.186   8.401 -0.4316 -0.1796  0.3384
  322MOL0     C43402   6.779   6.278   8.318 -0.9833  0.2713  0.2864
  322MOL0     H43403   6.534   5.889   8.009 -0.3032  0.1639 -2.2363
  322MOL0     H43404   6.582   5.751   7.803  0.2727 -0.8870 -0.2858
  322MOL0     H43405   6.783   5.930   7.490  1.0859  1.4028  3.4731
  322MOL0     H43406   6.702   5.784   7.443  0.2888  2.5825 -1.9666
  322MOL0     H43407   6.562   5.986   7.613 -1.3318  1.3459 -0.1137
  322MOL0     H43408   6.491   5.835   7.557 -0.9436 -0.7973 -4.6045
  322MOL0     H43409   6.492   5.883   7.331  0.2887 -0.7029  0.6849
  322MOL0     H43410   6.620   6.007   7.358  1.7810 -0.7311  2.9604
  322MOL0     H43411   6.387   6.073   7.289  0.7116  0.0038  0.4479
  322MOL0     H43412   6.331   6.007   7.445 -0.8874  2.7661  1.8909
  322MOL0     H43413   6.335   6.252   7.465  0.4644  2.9351  1.0345
  322MOL0     H43414   6.461   6.189   7.571  2.6487 -2.5880 -1.6270
  322MOL0     H43415   6.642   6.231   7.423 -0.6669 -1.6283 -2.1370
  322MOL0     H43416   6.533   6.280   7.292  1.5779  1.1759 -0.1538
  322MOL0     H43417   6.533   6.457   7.552 -3.2567  0.8592  0.0579
  322MOL0     H43418   6.433   6.460   7.412  0.5675  0.6176 -0.6726
  322MOL0     H43419   6.641   6.615   7.427  1.9877 -0.5384  3.7326
  322MOL0     H43420   6.739   6.469   7.447 -1.2947 -0.0205  0.3992
  322MOL0     H43421   6.798   6.312   7.196 -1.2627 -0.4810  0.8848
  322MOL0     H43422   6.903   6.334   6.976 -1.5630 -1.2363  2.0440
  322MOL0     H43423   6.759   6.296   6.891  0.5112  0.6159 -0.8630
  322MOL0     H43424   6.779   6.531   6.777 -0.0806 -0.8607 -1.1532
  322MOL0     H43425   6.928   6.540   6.872 -1.8838  0.4870  0.2034
  322MOL0     H43426   6.960   6.477   6.621 -3.9332 -0.6124 -1.2370
  322MOL0     H43427   6.862   6.337   6.647 -3.6575  2.6166  0.7575
  322MOL0     H43428   7.105   6.285   6.647 -0.1179  1.1652 -0.4551
  322MOL0     H43429   7.044   6.240   6.804 -0.3659 -1.2114 -1.8038
  322MOL0     H43430   7.230   6.492   6.538 -0.1623  0.3195  1.0422
  322MOL0     H43431   7.346   6.683   6.479 -1.2175 -1.1141 -1.2939
  322MOL0     H43432   7.332   7.133   6.437  0.8337 -2.8325 -0.0018
  322MOL0     H43433   7.462   7.331   6.338 -0.2812 -1.1709 -3.0437
  322MOL0     H43434   7.878   7.287   6.229 -0.4887  0.1087  0.5590
  322MOL0     H43435   7.741   7.329   6.139 -1.1554 -0.8415  0.4890
  322MOL0     H43436   7.896   7.476   6.104 -1.4489 -2.6564 -0.4277
  322MOL0     H43437   7.775   7.572   6.194  1.4857  2.1250 -1.9536
  322MOL0     H43438   7.969   7.649   6.291 -1.2959  0.5115  2.6617
  322MOL0     H43439   7.898   7.547   6.413  2.7397 -1.0283  0.2301
  322MOL0     H43440   8.083   7.414   6.218 -3.8597 -3.2979  0.5055
  322MOL0     H43441   8.046   7.372   6.386  0.7273  0.1121  0.1024
  322MOL0     H43442   8.190   7.633   6.354 -3.2359 -0.6725 -1.6657
  322MOL0     H43443   8.279   7.471   6.326 -2.2666 -3.6287  0.6890
  322MOL0     H43444   8.125   7.510   6.586  1.4828  3.4184  1.3143
  322MOL0     H43445   8.246   7.392   6.532 -0.7225 -0.7252  0.0760
  322MOL0     H43446   8.286   7.680   6.599  1.8170  1.2779 -2.7585
  322MOL0     H43447   8.408   7.570   6.526 -0.7052  1.5322  0.6588
  322MOL0     H43448   8.422   7.417   6.714  0.3170  0.5526 -1.7052
  322MOL0     H43449   8.438   7.582   6.777  0.2542  0.3977 -0.5108
  322MOL0     H43450   7.831   7.132   6.422 -0.6367  1.3645  0.6603
  322MOL0     H43451   7.698   6.937   6.520 -0.7994 -1.5204  0.2748
  322MOL0     H43452   7.303   6.840   6.895 -2.9237 -0.3180 -0.3958
  322MOL0     H43453   7.196   6.607   6.952 -0.7722 -1.1427 -1.8705
  322MOL0     H43454   6.898   6.004   7.713 -2.1471  2.9727 -0.6991
  322MOL0     H43455   6.879   6.122   7.927 -0.7622  0.9222 -2.6915
  322MOL0     H43456   6.581   5.863   8.428 -0.7708 -0.6687 -1.1132
  322MOL0     H43457   6.496   5.949   8.641 -1.8487  0.4660 -0.4862
  322MOL0     H43458   6.354   6.167   8.688  1.2749 -1.4969  0.4225
  322MOL0     H43459   6.419   6.331   8.680  2.3546  1.6543  3.6944
  322MOL0     H43460   6.348   6.161   8.911  0.6840  0.7649  1.4004
  322MOL0     H43461   6.263   6.302   8.850  0.3968  0.4906 -2.4905
  322MOL0     H43462   6.375   6.399   9.030 -0.2975  2.2074 -1.7848
  322MOL0     H43463   6.482   6.437   8.911  1.3348  1.2505  3.8173
  322MOL0     H43464   6.619   6.215   8.982 -2.1718  1.9933 -1.8847
  322MOL0     H43465   6.616   6.345   9.099  2.4536 -0.4775 -1.0135
  322MOL0     H43466   6.462   6.090   9.359 -3.3986  0.7532 -0.3969
  322MOL0     H43467   6.685   6.325   8.570 -2.3627  1.1703 -2.2886
  322MOL0     H43468   6.743   6.300   8.217  0.6271 -1.6499 -0.7976
  322MOL0     H43469   6.782   6.379   8.359 -0.0834  0.6757 -0.7095
  322MOL0     H43470   6.881   6.240   8.303 -1.4374 -0.5754 -0.8250
  323MOL0     O43471  10.106   3.827  10.741 -0.2727 -0.2990  0.4563
  323MOL0     C43472  10.047   3.790  10.639  0.0297 -0.9774 -0.7587
  323MOL0     O43473   9.919   3.751  10.635  1.0255  0.1822  0.2324
  323MOL0     C43474   9.844   3.738  10.748  0.2523  0.7073 -0.3401
  323MOL0     C43475   9.862   3.620  10.828  0.4967 -0.4273  0.3016
  323MOL0     C43476   9.789   3.599  10.940  0.1250 -0.2877 -0.5153
  323MOL0     C43477   9.692   3.695  10.973 -0.1210  0.3266  0.5078
  323MOL0     O43478   9.597   3.675  11.068  0.5583  0.1104  0.0734
  323MOL0     C43479   9.639   3.663  11.210  0.8592 -0.0026  0.5879
  323MOL0     C43480   9.640   3.809  11.247  1.0003  1.2640  0.1171
  323MOL0     C43481   9.505   3.883  11.268  0.8641  0.1551 -1.1220
  323MOL0     C43482   9.530   4.024  11.311 -0.2256  0.6302 -0.3428
  323MOL0     C43483   9.554   4.106  11.182 -0.1910 -0.2033 -0.1060
  323MOL0     C43484   9.597   4.250  11.224 -0.2877 -0.5133  0.0622
  323MOL0     C43485   9.487   4.334  11.272 -0.8296 -0.2841  0.2266
  323MOL0     C43486   9.549   4.479  11.305  0.7597  0.7139  0.8861
  323MOL0     N43487   9.618   4.489  11.432  0.3233 -0.0748  0.2256
  323MOL0     C43488   9.747   4.444  11.456  0.0143 -0.5209 -0.0568
  323MOL0     C43489   9.770   4.469  11.595 -0.6935 -0.4006  0.1408
  323MOL0     C43490   9.912   4.465  11.660  0.3216  0.0707  0.5145
  323MOL0     C43491  10.002   4.593  11.650  0.0667 -0.1253 -0.0981
  323MOL0     C43492   9.993   4.674  11.789  0.9496 -0.2705  0.2676
  323MOL0     C43493  10.117   4.714  11.852 -1.0264  0.2213  0.3910
  323MOL0     O43494  10.147   4.834  11.776  0.0893  0.2696 -0.3272
  323MOL0     C43495  10.275   4.886  11.768  0.9336 -0.2067 -0.0175
  323MOL0     C43496  10.382   4.840  11.853  0.6777 -0.2557  0.5165
  323MOL0     C43497  10.505   4.910  11.844 -0.1376  0.3479 -0.2565
  323MOL0     C43498  10.521   5.027  11.777 -0.2383  0.1950 -0.1489
  323MOL0     C43499  10.636   5.105  11.789 -0.2066 -0.7415 -1.2588
  323MOL0     O43500  10.607   5.241  11.781  1.3667  0.3581 -0.6532
  323MOL0     C43501  10.704   5.326  11.822 -0.4310 -0.7416  0.5364
  323MOL0     C43502  10.668   5.442  11.891  0.0094  0.0858 -0.0272
  323MOL0     C43503  10.760   5.542  11.914  1.2813  0.8245 -0.2385
  323MOL0     C43504  10.896   5.524  11.878  0.9106  0.7873 -0.2576
  323MOL0     O43505  10.991   5.616  11.923  0.4089  0.4747 -0.2711
  323MOL0     C43506  11.052   5.694  11.812 -0.1369 -0.7568 -0.5499
  323MOL0     C43507  10.970   5.833  11.796 -0.8710  0.9721  0.7652
  323MOL0     C43508  11.071   5.940  11.741  0.0225  0.3822 -0.6443
  323MOL0     C43509  11.003   6.077  11.735  0.2643 -0.7763  0.2432
  323MOL0     C43510  11.096   6.197  11.716 -0.7689 -0.0576 -1.0428
  323MOL0     C43511  11.014   6.332  11.686  1.7968 -0.2392  0.0978
  323MOL0     C43512  11.102   6.441  11.628  0.3436 -0.0250  0.2315
  323MOL0     C43513  11.021   6.531  11.548  0.0439  0.3048  0.6150
  323MOL0    Cl43514  10.916   6.629  11.656  0.0040  0.1119  0.3353
  323MOL0     C43515  10.929   5.400  11.807 -0.0695  0.1022 -0.0657
  323MOL0     C43516  10.830   5.309  11.780 -1.1521  0.6107  0.6790
  323MOL0     O43517  10.730   5.054  11.858 -0.1250  0.0851 -0.6788
  323MOL0     C43518  10.414   5.069  11.697  0.1731  0.5490  0.2737
  323MOL0     C43519  10.295   4.991  11.687 -0.1505  0.9601 -0.6377
  323MOL0     N43520   9.661   4.532  11.641  0.6392  0.1306 -0.2388
  323MOL0     N43521   9.567   4.543  11.548  0.0731  0.2380 -0.4387
  323MOL0     C43522   9.669   3.812  10.895  0.0862 -0.1986 -0.4289
  323MOL0     C43523   9.749   3.832  10.781  0.7452 -0.4667 -0.8535
  323MOL0     C43524  10.128   3.801  10.521 -0.1562 -0.4684 -0.6507
  323MOL0     C43525  10.266   3.817  10.538  1.4319  0.0556  0.3566
  323MOL0     C43526  10.356   3.849  10.437 -1.0599 -0.2503 -0.8550
  323MOL0     C43527  10.311   3.867  10.308 -0.1296  0.4586 -0.0511
  323MOL0     O43528  10.391   3.876  10.202  0.2391  0.4888  1.2038
  323MOL0     C43529  10.536   3.854  10.218  0.3843 -0.3547 -0.1596
  323MOL0     C43530  10.610   3.869  10.083  0.1336  0.4615  0.8865
  323MOL0     C43531  10.601   4.017  10.029  0.3829 -0.5697 -0.7051
  323MOL0     C43532  10.667   4.043   9.901 -0.2457  0.7209  0.1314
  323MOL0     C43533  10.670   4.189   9.881 -0.2511  0.3992 -0.4847
  323MOL0     C43534  10.655   4.305   9.871  0.0970  0.2884  1.1743
  323MOL0     C43535  10.173   3.863  10.295  0.5457  0.6531  0.5138
  323MOL0     C43536  10.072   3.820  10.394 -1.5785  0.3507  0.6345
  323MOL0     C43537   9.924   3.798  10.352  0.0243  0.8096 -0.8691
  323MOL0     H43538   9.944   3.552  10.805 -0.4384 -1.8702  1.0925
  323MOL0     H43539   9.812   3.525  11.016  2.3526 -1.7754 -2.5041
  323MOL0     H43540   9.562   3.609  11.265  1.4831  0.8727  2.3851
  323MOL0     H43541   9.742   3.626  11.213  1.7248  1.3557 -3.9544
  323MOL0     H43542   9.704   3.857  11.173  1.2513 -0.8633 -1.1166
  323MOL0     H43543   9.686   3.805  11.346 -1.8719  3.6632  1.7232
  323MOL0     H43544   9.446   3.828  11.342  3.5133 -0.1736  0.8903
  323MOL0     H43545   9.445   3.881  11.176 -0.8506 -1.4707 -0.0532
  323MOL0     H43546   9.448   4.065  11.371 -2.0116 -0.3799 -1.9704
  323MOL0     H43547   9.623   4.023  11.368 -0.2046  0.3847 -0.3803
  323MOL0     H43548   9.636   4.059  11.127  0.6384 -2.2055  2.5900
  323MOL0     H43549   9.458   4.103  11.129 -0.4749  1.2194  0.2731
  323MOL0     H43550   9.685   4.240  11.288 -0.2741 -0.9437 -0.0198
  323MOL0     H43551   9.640   4.301  11.137  0.5423 -2.6430 -0.8516
  323MOL0     H43552   9.435   4.298  11.360  2.1714 -1.2214  1.7479
  323MOL0     H43553   9.411   4.337  11.194  0.1381  2.5196 -0.7766
  323MOL0     H43554   9.620   4.493  11.223  0.3614 -1.4720  0.0985
  323MOL0     H43555   9.473   4.555  11.288 -2.2120 -2.1937  0.1625
  323MOL0     H43556   9.804   4.398  11.376 -1.3958  0.0537 -1.4391
  323MOL0     H43557   9.902   4.420  11.759  0.5761 -0.3737  0.3409
  323MOL0     H43558   9.971   4.395  11.599 -0.5270 -0.7151  0.5707
  323MOL0     H43559  10.107   4.569  11.632  0.1194  1.1405 -1.7184
  323MOL0     H43560   9.973   4.653  11.563 -1.3106 -0.5664  0.0304
  323MOL0     H43561   9.942   4.618  11.868 -0.1815  3.3008  2.2850
  323MOL0     H43562   9.935   4.765  11.772  0.2045  0.4326  5.1475
  323MOL0     H43563  10.200   4.645  11.829 -1.6560  0.6651 -4.2713
  323MOL0     H43564  10.110   4.720  11.961 -1.6813  0.2748  0.3466
  323MOL0     H43565  10.369   4.764  11.929 -4.5109  1.3215  1.5988
  323MOL0     H43566  10.573   4.883  11.924 -1.4688 -1.0293  0.4444
  323MOL0     H43567  10.563   5.439  11.918  0.0881  0.9030  0.3941
  323MOL0     H43568  10.741   5.634  11.969 -1.3518  0.1040  0.2147
  323MOL0     H43569  11.150   5.717  11.853  0.2081  5.4510 -3.6529
  323MOL0     H43570  11.057   5.636  11.719  0.7011 -2.3766  0.4557
  323MOL0     H43571  10.891   5.807  11.725 -1.4495  0.2761  1.6460
  323MOL0     H43572  10.934   5.854  11.897 -0.5898 -1.7632  1.5053
  323MOL0     H43573  11.166   5.952  11.794  0.6064 -0.1349 -1.5465
  323MOL0     H43574  11.098   5.918  11.638 -0.8921  2.0028 -1.2540
  323MOL0     H43575  10.947   6.097  11.827 -1.1084  1.3452 -0.9772
  323MOL0     H43576  10.919   6.075  11.665  1.0410 -0.5506 -0.7174
  323MOL0     H43577  11.171   6.182  11.638  1.0868  0.1074  0.6406
  323MOL0     H43578  11.158   6.205  11.806  3.2415 -0.3382 -3.5398
  323MOL0     H43579  10.930   6.310  11.620  0.3775  1.1115  1.3754
  323MOL0     H43580  10.965   6.372  11.776  3.4317  2.7552 -0.2281
  323MOL0     H43581  11.179   6.391  11.568  0.8081 -0.7561  1.4217
  323MOL0     H43582  11.147   6.496  11.711  0.9417  0.6293 -0.5060
  323MOL0     H43583  11.090   6.590  11.486  0.0166 -1.0519 -0.7756
  323MOL0     H43584  10.963   6.477  11.473  0.9463 -2.4802  1.8062
  323MOL0     H43585  11.031   5.395  11.771  0.5657  2.4619  1.2113
  323MOL0     H43586  10.861   5.223  11.722  1.7380  1.3992  0.9113
  323MOL0     H43587  10.421   5.157  11.634 -1.8988  0.5196 -0.0652
  323MOL0     H43588  10.213   5.026  11.625 -2.5574  1.1438  2.4342
  323MOL0     H43589   9.583   3.874  10.917  1.9884  2.6441 -0.4224
  323MOL0     H43590   9.731   3.915  10.713 -1.9299  1.1429  1.6097
  323MOL0     H43591  10.308   3.787  10.633  2.6806  2.1217  0.5175
  323MOL0     H43592  10.462   3.849  10.459 -1.1015 -1.4917 -0.5638
  323MOL0     H43593  10.542   3.750  10.250 -2.7033 -0.5032  0.3042
  323MOL0     H43594  10.584   3.917  10.293  1.1302 -3.6106  2.3080
  323MOL0     H43595  10.552   3.817  10.007  0.3072  1.2263  0.2095
  323MOL0     H43596  10.714   3.838  10.070 -0.2266 -0.6661  0.5572
  323MOL0     H43597  10.639   4.079  10.110  0.8435 -3.6587  1.6216
  323MOL0     H43598  10.492   4.027  10.022  0.1439 -2.7054 -0.9213
  323MOL0     H43599  10.769   4.007   9.916  0.1459  2.4228  1.8779
  323MOL0     H43600  10.609   3.989   9.825  2.0633 -1.0964 -0.4543
  323MOL0     H43601  10.633   4.410   9.864 -1.4735 -0.0601  0.2764
  323MOL0     H43602  10.140   3.877  10.193  3.1497  4.1406 -0.0175
  323MOL0     H43603   9.900   3.850  10.259 -0.8303  1.0865 -0.5001
  323MOL0     H43604   9.898   3.692  10.346 -0.0043  0.6774  1.0424
  323MOL0     H43605   9.857   3.849  10.421 -3.0114 -3.0356 -0.6474
  324MOL0     O43606   9.705   4.543   6.444  0.5480  0.8068 -0.5946
  324MOL0     C43607   9.732   4.659   6.468 -0.1417 -0.3246  0.0533
  324MOL0     O43608   9.745   4.714   6.586 -0.3740 -0.2944 -0.7190
  324MOL0     C43609   9.707   4.667   6.707  0.0289  0.7436 -0.4151
  324MOL0     C43610   9.671   4.534   6.728 -0.6049 -0.4594  0.7922
  324MOL0     C43611   9.611   4.493   6.844  0.2593  0.5630 -0.4309
  324MOL0     C43612   9.568   4.581   6.940 -0.8567  0.3899  0.7896
  324MOL0     O43613   9.500   4.530   7.047 -0.0324 -0.1450 -0.2099
  324MOL0     C43614   9.379   4.603   7.074  0.6078  0.1199  0.0920
  324MOL0     C43615   9.300   4.541   7.198  0.4277  0.5402  0.2704
  324MOL0     C43616   9.265   4.390   7.174 -0.0045  0.3481 -0.0839
  324MOL0     C43617   9.136   4.368   7.083 -0.4323 -0.5556  0.2258
  324MOL0     C43618   9.133   4.224   7.036  0.2478 -1.0104  0.0520
  324MOL0     C43619   9.034   4.192   6.920 -1.2394 -0.5566 -0.9831
  324MOL0     C43620   8.979   4.047   6.925 -0.1136  0.2442  0.7153
  324MOL0     C43621   9.063   3.947   6.845  0.0268 -0.1703  0.0496
  324MOL0     N43622   9.005   3.826   6.790 -0.5887  0.0271 -0.2499
  324MOL0     C43623   8.872   3.798   6.790 -0.1986 -0.2800  0.1578
  324MOL0     C43624   8.859   3.703   6.700 -0.5025  0.5120  0.4353
  324MOL0     C43625   8.731   3.613   6.675  0.5167  0.4408  0.7609
  324MOL0     C43626   8.606   3.683   6.631 -0.0776  0.2188 -0.1293
  324MOL0     C43627   8.542   3.778   6.735  0.6689  0.3130 -0.4432
  324MOL0     C43628   8.418   3.839   6.678 -0.5583  0.7627  0.0469
  324MOL0     O43629   8.450   3.934   6.571  0.3452  0.2566  0.1905
  324MOL0     C43630   8.520   4.055   6.592 -0.9753  0.3941 -0.2136
  324MOL0     C43631   8.545   4.103   6.724  0.0216 -0.3713  0.1325
  324MOL0     C43632   8.626   4.221   6.751 -0.9727  0.1867 -0.3194
  324MOL0     C43633   8.685   4.298   6.646 -0.3243  1.0165  0.4703
  324MOL0     C43634   8.740   4.432   6.672 -1.1511 -0.6311  0.0665
  324MOL0     O43635   8.762   4.468   6.800 -0.2604 -0.3287  0.0138
  324MOL0     C43636   8.844   4.572   6.837  0.0004  1.8218 -0.0312
  324MOL0     C43637   8.836   4.616   6.965  0.4956 -0.2504 -0.0488
  324MOL0     C43638   8.917   4.723   7.019  1.0084 -0.3552  0.2403
  324MOL0     C43639   9.027   4.773   6.940 -0.9349  0.3289 -0.0266
  324MOL0     O43640   9.135   4.858   6.984  0.2032 -0.1404 -0.3481
  324MOL0     C43641   9.111   4.931   7.106 -0.6517 -0.2386  0.3688
  324MOL0     C43642   9.246   4.991   7.163 -0.2488  0.2282 -1.4244
  324MOL0     C43643   9.234   5.050   7.310  0.0639  0.0321 -0.0605
  324MOL0     C43644   9.361   5.124   7.367 -0.6996 -0.3437 -0.3639
  324MOL0     C43645   9.493   5.047   7.373 -0.9023 -0.6865  0.2807
  324MOL0     C43646   9.491   4.919   7.451 -0.3773 -0.1908  0.8347
  324MOL0     C43647   9.600   4.826   7.414 -0.7814  1.7349 -0.0678
  324MOL0     C43648   9.613   4.715   7.518  0.0848  0.3569 -0.0263
  324MOL0    Cl43649   9.775   4.640   7.492 -0.3182 -0.0107 -0.8144
  324MOL0     C43650   9.038   4.712   6.815 -0.5505 -0.4356 -0.6406
  324MOL0     C43651   8.945   4.622   6.762  0.4391  0.0588  0.3900
  324MOL0     O43652   8.769   4.494   6.569  0.2482  0.0602  0.0675
  324MOL0     C43653   8.664   4.237   6.514  0.5467  0.2385 -0.4570
  324MOL0     C43654   8.578   4.125   6.488  0.0316 -0.9618  0.3165
  324MOL0     N43655   8.980   3.674   6.635  0.1346  0.4134  0.3005
  324MOL0     N43656   9.066   3.756   6.691  0.4664  0.8585 -0.6464
  324MOL0     C43657   9.612   4.713   6.919 -1.0604 -0.2851 -0.3060
  324MOL0     C43658   9.690   4.751   6.810 -0.6494  0.0850 -0.3969
  324MOL0     C43659   9.763   4.741   6.349  0.8640  0.1729 -0.0292
  324MOL0     C43660   9.791   4.678   6.220  0.8151 -0.0390 -0.8099
  324MOL0     C43661   9.812   4.755   6.106  0.2149  0.9732 -1.3006
  324MOL0     C43662   9.810   4.895   6.112  0.2855  0.5598  0.0704
  324MOL0     O43663   9.823   4.972   5.996  0.5709  0.0072 -0.0363
  324MOL0     C43664   9.787   4.906   5.871  0.6306 -0.6561  0.5668
  324MOL0     C43665   9.639   4.874   5.862  0.6521 -0.8458  0.3993
  324MOL0     C43666   9.540   4.989   5.921 -0.0010 -0.6925 -0.2055
  324MOL0     C43667   9.392   4.949   5.914 -0.0824  0.3327 -0.1866
  324MOL0     C43668   9.353   4.814   5.960  0.2600 -0.7551  1.2200
  324MOL0     C43669   9.358   4.702   6.011  0.3448  0.2055  0.5141
  324MOL0     C43670   9.790   4.956   6.239 -0.8348  0.6302  0.7859
  324MOL0     C43671   9.770   4.880   6.350  0.1218  1.5416  0.0028
  324MOL0     C43672   9.741   4.960   6.473  0.2912  0.4767 -0.1321
  324MOL0     H43673   9.679   4.456   6.653  1.3538  1.4480 -1.1446
  324MOL0     H43674   9.579   4.390   6.852 -1.0637  1.0804  1.8146
  324MOL0     H43675   9.410   4.704   7.100  2.5938 -1.2968  4.1398
  324MOL0     H43676   9.312   4.581   6.991 -2.1608 -0.0263  2.2171
  324MOL0     H43677   9.211   4.596   7.228 -0.7931 -2.7988  3.7294
  324MOL0     H43678   9.362   4.552   7.288 -0.5568  1.5416  0.8400
  324MOL0     H43679   9.252   4.340   7.271  2.0446 -1.7768 -0.8098
  324MOL0     H43680   9.347   4.341   7.120 -1.2440  0.2020 -1.9139
  324MOL0     H43681   9.046   4.402   7.134 -0.2693  1.1295 -0.5643
  324MOL0     H43682   9.132   4.436   6.997 -0.4666 -0.7886  0.0388
  324MOL0     H43683   9.234   4.186   7.017  0.6703  0.2840 -0.4696
  324MOL0     H43684   9.101   4.174   7.127 -1.5241  1.5817  0.9715
  324MOL0     H43685   8.947   4.258   6.929  0.6603  1.8713  1.0314
  324MOL0     H43686   9.074   4.219   6.822  0.1192  2.1763  0.2185
  324MOL0     H43687   8.883   4.061   6.874 -0.4630  2.2573  1.8019
  324MOL0     H43688   8.968   4.026   7.032  0.9593 -2.6131  0.3623
  324MOL0     H43689   9.105   4.004   6.762 -0.1366  0.4417  0.3824
  324MOL0     H43690   9.157   3.930   6.900 -1.4647 -0.7981  2.5751
  324MOL0     H43691   8.796   3.845   6.851 -1.9336  0.2888 -2.3071
  324MOL0     H43692   8.753   3.553   6.586 -2.0730  1.4771 -0.6618
  324MOL0     H43693   8.707   3.560   6.768 -0.4055  1.9092  1.3934
  324MOL0     H43694   8.625   3.741   6.540  4.0201  0.6803  0.8441
  324MOL0     H43695   8.532   3.610   6.595 -0.7019  1.6919 -2.0133
  324MOL0     H43696   8.625   3.849   6.745  2.7852 -2.2570  2.3897
  324MOL0     H43697   8.527   3.731   6.832 -1.0646 -1.3078 -1.4284
  324MOL0     H43698   8.381   3.898   6.763  0.0896 -1.5723  2.0709
  324MOL0     H43699   8.345   3.767   6.640 -0.0354 -1.4235  2.8629
  324MOL0     H43700   8.497   4.053   6.807 -0.8400 -0.5858 -0.4796
  324MOL0     H43701   8.633   4.257   6.853 -0.0840  0.1678 -0.3635
  324MOL0     H43702   8.766   4.571   7.035  0.8170 -1.7786 -0.6683
  324MOL0     H43703   8.895   4.763   7.117 -0.1613 -0.5137  0.0593
  324MOL0     H43704   9.040   5.012   7.087  1.6483  2.7594  3.2902
  324MOL0     H43705   9.077   4.865   7.186 -1.5336  0.7917  0.8670
  324MOL0     H43706   9.329   4.920   7.168  0.2124  0.8517  1.7377
  324MOL0     H43707   9.267   5.068   7.088 -2.6513  0.7350 -1.6757
  324MOL0     H43708   9.151   5.120   7.308  2.3054  2.8500 -0.3774
  324MOL0     H43709   9.214   4.968   7.380  0.8960 -1.2207 -1.2273
  324MOL0     H43710   9.350   5.141   7.474  2.1051 -1.9751  0.2972
  324MOL0     H43711   9.377   5.222   7.320 -0.1982 -1.1175 -1.8618
  324MOL0     H43712   9.569   5.116   7.412 -0.6340 -0.9471  0.2261
  324MOL0     H43713   9.513   5.022   7.268 -0.2850  0.0636  0.2049
  324MOL0     H43714   9.505   4.944   7.557  3.1030  1.3069  0.1742
  324MOL0     H43715   9.396   4.865   7.440 -0.5843  0.6609 -3.6989
  324MOL0     H43716   9.700   4.865   7.395  0.6436 -1.5270  0.1228
  324MOL0     H43717   9.565   4.775   7.323 -0.9369 -0.4394  1.1459
  324MOL0     H43718   9.594   4.756   7.617 -3.8272 -1.1261  0.0384
  324MOL0     H43719   9.535   4.638   7.507  2.3704 -1.8472 -2.1503
  324MOL0     H43720   9.125   4.736   6.754 -0.3797  0.1756 -0.1627
  324MOL0     H43721   8.978   4.574   6.671  1.3795  0.2626  0.6172
  324MOL0     H43722   8.717   4.281   6.430  1.5249  0.4811  0.2580
  324MOL0     H43723   8.570   4.074   6.393 -2.5390 -1.8934  0.9327
  324MOL0     H43724   9.584   4.790   6.990  0.4974  0.8073 -0.8201
  324MOL0     H43725   9.707   4.857   6.794  2.3079 -0.7806 -4.5855
  324MOL0     H43726   9.788   4.570   6.217 -0.1545 -0.0343 -0.3005
  324MOL0     H43727   9.820   4.691   6.018 -1.6794 -0.6378 -0.3872
  324MOL0     H43728   9.843   4.815   5.847  2.1330  0.4878 -0.4085
  324MOL0     H43729   9.803   4.975   5.788  2.4495  0.3592  1.6945
  324MOL0     H43730   9.636   4.784   5.925  2.4522 -1.4618 -0.3289
  324MOL0     H43731   9.605   4.860   5.759 -2.2218 -1.0262  1.2935
  324MOL0     H43732   9.558   5.082   5.867 -2.1632 -0.0790  0.0604
  324MOL0     H43733   9.569   4.998   6.026 -1.0697  2.2693 -0.0698
  324MOL0     H43734   9.329   5.017   5.972  2.6839 -0.8405  4.6952
  324MOL0     H43735   9.358   4.955   5.810 -0.0312 -0.4334 -0.2555
  324MOL0     H43736   9.377   4.611   6.064 -1.0877  0.2738  1.1857
  324MOL0     H43737   9.786   5.064   6.251  1.0775  0.7118  0.9268
  324MOL0     H43738   9.826   4.942   6.540 -1.3085 -3.8186  1.0374
  324MOL0     H43739   9.736   5.066   6.447 -0.6369  1.2453  2.7564
  324MOL0     H43740   9.648   4.924   6.518 -0.0959 -1.4415 -2.2947
  325MOL0     O43741   7.571   7.373   5.190  1.7246  0.1392  0.1741
  325MOL0     C43742   7.681   7.422   5.199  0.3138  0.0620 -0.2422
  325MOL0     O43743   7.763   7.425   5.312 -0.4112  0.6009 -0.2737
  325MOL0     C43744   7.721   7.387   5.442  0.1365 -0.0567 -0.2870
  325MOL0     C43745   7.655   7.482   5.523 -0.0005 -0.6298 -0.4731
  325MOL0     C43746   7.586   7.446   5.638  0.0264 -0.4590 -0.5720
  325MOL0     C43747   7.599   7.314   5.679 -0.8831  0.0248  0.0415
  325MOL0     O43748   7.557   7.248   5.798 -0.1713  0.0885 -0.8285
  325MOL0     C43749   7.458   7.323   5.875 -0.2473  0.0021 -0.1607
  325MOL0     C43750   7.396   7.226   5.971  1.0408 -0.2703 -0.3383
  325MOL0     C43751   7.261   7.168   5.928  0.2591  0.3264  0.9779
  325MOL0     C43752   7.193   7.075   6.034 -0.1776 -0.3481 -0.6172
  325MOL0     C43753   7.126   7.144   6.157 -0.3637  0.1408  0.1393
  325MOL0     C43754   7.078   7.041   6.266  0.0728  0.3931 -0.2016
  325MOL0     C43755   6.989   7.108   6.372  0.0860 -0.7259 -0.0440
  325MOL0     C43756   6.996   7.035   6.505  1.0350  0.4400  0.3894
  325MOL0     N43757   6.940   6.904   6.487 -0.4729 -0.3510 -1.0183
  325MOL0     C43758   6.801   6.877   6.483 -0.2635 -0.0225  0.8268
  325MOL0     C43759   6.797   6.741   6.480 -0.2684 -0.2337 -0.0626
  325MOL0     C43760   6.670   6.664   6.484  0.1100  0.3532 -0.3611
  325MOL0     C43761   6.699   6.521   6.419  0.6317  0.0359  0.0512
  325MOL0     C43762   6.593   6.476   6.316 -0.3806  0.1520 -0.0687
  325MOL0     C43763   6.640   6.346   6.245  0.2289  0.0373  0.1814
  325MOL0     O43764   6.728   6.391   6.140  0.5917  0.1282  0.0622
  325MOL0     C43765   6.767   6.297   6.051 -0.4954 -0.0770  0.5422
  325MOL0     C43766   6.843   6.355   5.941 -0.6087  0.8765 -0.6258
  325MOL0     C43767   6.874   6.271   5.831 -0.1018  0.1725  0.1368
  325MOL0     C43768   6.856   6.130   5.843  0.7645 -0.0477  0.7834
  325MOL0     C43769   6.893   6.048   5.728 -0.6542 -0.7238  0.3683
  325MOL0     O43770   6.925   5.917   5.743  0.1108  0.3912 -0.2256
  325MOL0     C43771   6.959   5.829   5.639  1.1907  0.3388 -0.3811
  325MOL0     C43772   7.022   5.870   5.519  1.2847  0.0177 -0.0617
  325MOL0     C43773   7.043   5.775   5.417  0.4455  0.5846 -1.0882
  325MOL0     C43774   6.994   5.644   5.437 -0.2593 -0.4410  0.5185
  325MOL0     O43775   6.987   5.558   5.333  0.5456  0.2530  0.7780
  325MOL0     C43776   6.980   5.588   5.196  1.0306  0.2182 -0.0231
  325MOL0     C43777   6.843   5.646   5.153 -0.1642  0.4172 -0.0818
  325MOL0     C43778   6.848   5.663   4.998 -0.0632 -0.3848 -0.4339
  325MOL0     C43779   6.831   5.541   4.909 -0.1336  0.2028 -0.4781
  325MOL0     C43780   6.841   5.578   4.760 -0.0842 -0.3600 -0.3406
  325MOL0     C43781   6.837   5.437   4.689 -0.5697 -0.0801 -0.4401
  325MOL0     C43782   6.806   5.462   4.544 -0.0069 -0.0706 -0.3371
  325MOL0     C43783   6.821   5.326   4.468 -0.8265 -0.5766 -0.0453
  325MOL0    Cl43784   6.989   5.254   4.466  0.2701  0.9529 -0.0800
  325MOL0     C43785   6.930   5.612   5.554  0.5110  0.4039 -0.3157
  325MOL0     C43786   6.909   5.702   5.655  0.4732 -0.4402 -0.6456
  325MOL0     O43787   6.882   6.103   5.625  0.5150  0.3334  0.6780
  325MOL0     C43788   6.801   6.071   5.961  0.6457 -0.2863 -0.3239
  325MOL0     C43789   6.754   6.158   6.064  0.2574 -0.1757  0.4741
  325MOL0     N43790   6.928   6.692   6.488  0.1940  0.3503 -0.2309
  325MOL0     N43791   7.015   6.789   6.486  0.2091  0.7462 -0.7315
  325MOL0     C43792   7.674   7.222   5.602  0.1589  0.6410 -0.1929
  325MOL0     C43793   7.727   7.257   5.477 -0.7468  0.5831 -0.2865
  325MOL0     C43794   7.744   7.489   5.081  0.2084  0.2028  0.4224
  325MOL0     C43795   7.655   7.534   4.981  0.1742 -0.6966  0.2235
  325MOL0     C43796   7.702   7.591   4.857 -0.3269  0.0385 -1.2714
  325MOL0     C43797   7.840   7.607   4.821 -0.2449  0.4999 -0.1432
  325MOL0     O43798   7.895   7.658   4.705  0.4538 -0.4566  0.3921
  325MOL0     C43799   7.793   7.697   4.609  0.1611 -0.3170  0.2160
  325MOL0     C43800   7.880   7.751   4.487  0.9878 -0.5650  0.5427
  325MOL0     C43801   7.932   7.895   4.511  0.2655  0.1222  0.2299
  325MOL0     C43802   8.006   7.956   4.391  0.3989  0.6924  0.3858
  325MOL0     C43803   8.056   8.092   4.417  0.2894  0.2237  0.2019
  325MOL0     C43804   8.130   8.179   4.454 -0.4202  0.4992  0.5969
  325MOL0     C43805   7.923   7.550   4.916 -0.3832 -0.6226 -0.1157
  325MOL0     C43806   7.881   7.499   5.043 -0.9779 -0.1204 -0.7084
  325MOL0     C43807   7.997   7.440   5.122 -0.8057  0.5774 -0.1926
  325MOL0     H43808   7.653   7.583   5.485  0.7247 -0.6724 -0.6370
  325MOL0     H43809   7.540   7.507   5.715 -0.2691 -0.8404 -0.4415
  325MOL0     H43810   7.511   7.394   5.939 -0.8273  0.3186 -0.0164
  325MOL0     H43811   7.378   7.379   5.824  0.1438  1.6560  0.9369
  325MOL0     H43812   7.388   7.273   6.070  1.0968 -0.6910 -0.1319
  325MOL0     H43813   7.458   7.137   5.982 -0.6610 -1.1998  3.2955
  325MOL0     H43814   7.279   7.109   5.838  1.1709  0.9241  0.7525
  325MOL0     H43815   7.190   7.243   5.893 -1.1885 -1.7526 -0.8004
  325MOL0     H43816   7.116   7.013   5.987 -1.7286  1.9850 -1.3313
  325MOL0     H43817   7.269   7.003   6.066 -0.1625 -0.2625 -0.4599
  325MOL0     H43818   7.196   7.215   6.202 -0.5235 -0.9329  2.1743
  325MOL0     H43819   7.039   7.198   6.117 -0.7185 -1.7676 -1.8412
  325MOL0     H43820   7.028   6.955   6.220  0.9153  1.2087 -2.8464
  325MOL0     H43821   7.166   6.996   6.313 -1.2349  0.5648  2.5822
  325MOL0     H43822   6.886   7.120   6.340 -0.2539  1.7143  1.7046
  325MOL0     H43823   7.027   7.209   6.387  3.9720 -1.7156 -1.7509
  325MOL0     H43824   7.100   7.032   6.539  0.5976 -0.4313  1.7285
  325MOL0     H43825   6.946   7.095   6.582 -2.5921 -1.2810 -0.3952
  325MOL0     H43826   6.725   6.953   6.466  1.8181  2.1600  0.6220
  325MOL0     H43827   6.635   6.653   6.587  0.6192 -1.5942 -0.3680
  325MOL0     H43828   6.598   6.721   6.424  0.8630  2.0683  0.2867
  325MOL0     H43829   6.799   6.527   6.373  2.1726  1.1381  3.2448
  325MOL0     H43830   6.702   6.451   6.504 -3.6962 -3.8075 -2.5253
  325MOL0     H43831   6.569   6.552   6.241 -0.0095 -0.5094 -0.8846
  325MOL0     H43832   6.501   6.444   6.366 -0.4590  1.0122  0.3431
  325MOL0     H43833   6.554   6.295   6.201 -0.7612  0.3513  1.7041
  325MOL0     H43834   6.695   6.290   6.322  1.7595 -0.7828 -1.4192
  325MOL0     H43835   6.868   6.460   5.936  0.7146  0.5274 -2.9480
  325MOL0     H43836   6.904   6.318   5.738  1.7516 -0.8899  0.1529
  325MOL0     H43837   7.050   5.972   5.492 -0.8972  0.5363 -0.6017
  325MOL0     H43838   7.088   5.813   5.326 -1.3442 -0.7548 -2.5779
  325MOL0     H43839   7.064   5.653   5.169  0.3824  1.1290  0.0989
  325MOL0     H43840   6.993   5.498   5.136 -1.3331  0.3747 -0.8762
  325MOL0     H43841   6.766   5.575   5.185 -0.6622  1.8163  2.0406
  325MOL0     H43842   6.834   5.747   5.192  0.4318  0.9219 -1.2003
  325MOL0     H43843   6.763   5.725   4.969 -2.7647 -2.6366  2.0548
  325MOL0     H43844   6.938   5.722   4.981  0.9305 -1.0987  1.9281
  325MOL0     H43845   6.734   5.492   4.919 -0.4426  0.6350 -1.2551
  325MOL0     H43846   6.904   5.466   4.939 -0.8808 -0.4572 -0.2728
  325MOL0     H43847   6.934   5.629   4.735  0.5326 -1.2903 -0.0011
  325MOL0     H43848   6.753   5.633   4.725 -0.1879 -2.2642 -3.5024
  325MOL0     H43849   6.928   5.378   4.701 -0.0225  0.6169 -1.1328
  325MOL0     H43850   6.754   5.378   4.730 -0.5442  1.2898  1.7248
  325MOL0     H43851   6.867   5.540   4.498  0.0919 -0.5626 -1.0462
  325MOL0     H43852   6.701   5.491   4.535  0.0564  0.7828  1.2968
  325MOL0     H43853   6.751   5.260   4.519 -2.4338  1.4354  0.4917
  325MOL0     H43854   6.791   5.356   4.367  0.2623  2.1866  0.3550
  325MOL0     H43855   6.898   5.509   5.567  0.5370  0.7416  4.0786
  325MOL0     H43856   6.850   5.682   5.744 -0.6354  3.1257 -0.4186
  325MOL0     H43857   6.782   5.964   5.960 -1.0497 -0.0526 -2.9665
  325MOL0     H43858   6.704   6.108   6.147  1.1253 -3.1338 -0.6244
  325MOL0     H43859   7.693   7.124   5.643  2.3053  1.1228  0.0801
  325MOL0     H43860   7.779   7.196   5.404 -0.3412  2.2964 -1.4795
  325MOL0     H43861   7.548   7.520   4.992 -0.0466 -0.7799 -1.6402
  325MOL0     H43862   7.623   7.622   4.789 -2.4573  2.4658  2.0080
  325MOL0     H43863   7.731   7.779   4.646  1.7240  0.0717  2.1708
  325MOL0     H43864   7.729   7.619   4.566 -3.0321  1.4251  1.4433
  325MOL0     H43865   7.811   7.746   4.403 -1.4647 -3.1217  2.4804
  325MOL0     H43866   7.962   7.685   4.455 -2.7370 -3.7757 -3.7479
  325MOL0     H43867   8.000   7.893   4.597  0.2454 -3.0973  0.2788
  325MOL0     H43868   7.844   7.954   4.539 -0.7864 -1.9404  1.4721
  325MOL0     H43869   8.087   7.892   4.354 -1.9709 -1.1972 -1.9262
  325MOL0     H43870   7.932   7.960   4.310  0.5611 -2.3667 -0.0421
  325MOL0     H43871   8.196   8.263   4.466 -1.1350  1.2983 -0.7270
  325MOL0     H43872   8.027   7.550   4.886 -0.3636 -0.9148 -0.0513
  325MOL0     H43873   7.995   7.331   5.113  2.1121  0.2606  1.5859
  325MOL0     H43874   8.098   7.462   5.085  0.2537 -0.6150  1.7784
  325MOL0     H43875   8.004   7.465   5.228 -2.6306  0.9873 -0.1399
  326MOL0     O43876   9.276  10.185   9.368 -0.1341  0.4292  0.2924
  326MOL0     C43877   9.301  10.120   9.266 -0.0829  0.6791 -0.5643
  326MOL0     O43878   9.424  10.071   9.229  0.8733  0.2400  0.3036
  326MOL0     C43879   9.538  10.124   9.284 -0.0876  0.0624 -0.3707
  326MOL0     C43880   9.627  10.046   9.358 -0.7844  0.4618 -0.6707
  326MOL0     C43881   9.736  10.098   9.426 -0.4169  0.3829 -0.3891
  326MOL0     C43882   9.764  10.239   9.418 -0.2366 -0.2224  0.5146
  326MOL0     O43883   9.864  10.288   9.496 -0.3131 -0.6195  0.0453
  326MOL0     C43884   9.916  10.409   9.458 -0.2776  0.4677 -0.0895
  326MOL0     C43885   9.993  10.417   9.326  0.1816  0.0559  0.6938
  326MOL0     C43886  10.144  10.399   9.347 -0.3508 -0.1647  0.2487
  326MOL0     C43887  10.213  10.378   9.204  0.6697 -0.4069 -0.3968
  326MOL0     C43888  10.358  10.343   9.209 -0.4772 -0.4681  0.0596
  326MOL0     C43889  10.446  10.455   9.262 -0.4230 -0.3803 -0.6391
  326MOL0     C43890  10.424  10.588   9.194  0.7046 -0.9169  0.5376
  326MOL0     C43891  10.467  10.584   9.046 -0.5664  0.1387  0.7943
  326MOL0     N43892  10.604  10.539   9.014 -0.5605 -0.2500 -0.0629
  326MOL0     C43893  10.719  10.618   8.993  0.7054  0.5186 -0.6058
  326MOL0     C43894  10.819  10.522   8.980 -0.0957 -1.3761  0.0923
  326MOL0     C43895  10.962  10.551   8.987  0.5621  0.1552 -0.2581
  326MOL0     C43896  11.041  10.422   8.992 -0.0479 -0.5441  0.0854
  326MOL0     C43897  11.196  10.448   8.969  0.9846  0.4622 -0.3335
  326MOL0     C43898  11.278  10.339   9.029 -0.2049  0.1379 -0.3383
  326MOL0     O43899  11.231  10.207   8.984 -0.1820 -0.0200 -0.5801
  326MOL0     C43900  11.278  10.149   8.873 -0.2332 -0.2043  0.3675
  326MOL0     C43901  11.227  10.017   8.843 -0.0014  0.1878 -0.1693
  326MOL0     C43902  11.266   9.948   8.729  0.3596  0.3325  0.3186
  326MOL0     C43903  11.345  10.014   8.633 -0.8695 -0.4976  0.3692
  326MOL0     C43904  11.368   9.942   8.500 -0.5544 -0.1472 -0.3103
  326MOL0     O43905  11.404  10.024   8.392 -0.6671  0.0419 -0.1062
  326MOL0     C43906  11.383   9.971   8.263 -0.4916 -0.4149 -0.3122
  326MOL0     C43907  11.281  10.028   8.191  1.0140  0.4536 -0.0719
  326MOL0     C43908  11.248   9.977   8.065  0.9312 -0.4998 -0.4409
  326MOL0     C43909  11.318   9.870   8.005 -0.1384 -0.3952  0.4055
  326MOL0     O43910  11.277   9.816   7.879  0.4322 -0.1745 -0.0740
  326MOL0     C43911  11.148   9.842   7.827 -0.7888  0.1794  0.7724
  326MOL0     C43912  11.145   9.892   7.684 -0.4338 -0.2471  0.3695
  326MOL0     C43913  11.214  10.025   7.684 -0.3443 -0.8723  1.0162
  326MOL0     C43914  11.356  10.031   7.620  0.1516 -0.4898  0.9302
  326MOL0     C43915  11.397  10.177   7.628  0.2695  0.2923 -1.7162
  326MOL0     C43916  11.506  10.202   7.529 -0.0282  0.2009  0.1756
  326MOL0     C43917  11.566  10.344   7.546  0.2649  0.1929 -0.6963
  326MOL0     C43918  11.682  10.371   7.452  0.1922  0.8084 -0.4320
  326MOL0    Cl43919  11.638  10.352   7.280  0.0785 -0.1381  0.7212
  326MOL0     C43920  11.433   9.824   8.071  0.2654 -0.5426  0.0102
  326MOL0     C43921  11.462   9.869   8.198  0.4805 -0.9377  0.0802
  326MOL0     O43922  11.370   9.821   8.493  1.2162  0.2507 -0.3336
  326MOL0     C43923  11.388  10.150   8.654  0.1419  0.4667 -0.8191
  326MOL0     C43924  11.359  10.216   8.772 -0.2264  0.1235  2.0812
  326MOL0     N43925  10.763  10.399   8.983 -0.2554  0.4949  0.2073
  326MOL0     N43926  10.640  10.409   8.999  1.1049  0.4862  0.0445
  326MOL0     C43927   9.685  10.312   9.329  0.2151  0.2137 -0.5333
  326MOL0     C43928   9.562  10.255   9.270 -0.0200  0.1416  0.3867
  326MOL0     C43929   9.181  10.077   9.195  0.5622 -0.4145 -0.2578
  326MOL0     C43930   9.192  10.058   9.057 -0.4032  0.0500 -1.0936
  326MOL0     C43931   9.082  10.038   8.977  0.2885  0.7864  0.7356
  326MOL0     C43932   8.949  10.027   9.030 -0.5355 -0.1260  0.0032
  326MOL0     O43933   8.836   9.991   8.969  0.4197  0.3748  0.6992
  326MOL0     C43934   8.833   9.959   8.824 -0.4916  0.0492 -0.6943
  326MOL0     C43935   8.829  10.085   8.742  0.3029  0.0136 -0.4036
  326MOL0     C43936   8.806  10.047   8.598  0.6963  0.0671 -0.3764
  326MOL0     C43937   8.794  10.182   8.532 -0.4289 -0.3784  0.2331
  326MOL0     C43938   8.776  10.171   8.389 -0.5084 -0.5276  0.5289
  326MOL0     C43939   8.744  10.158   8.270  0.1043  0.6104 -0.1408
  326MOL0     C43940   8.930  10.059   9.161 -0.0455 -0.6978  0.7803
  326MOL0     C43941   9.039  10.074   9.249 -0.4293  0.6879 -0.2625
  326MOL0     C43942   9.000  10.066   9.396  0.0204 -0.2187 -0.2041
  326MOL0     H43943   9.618   9.939   9.344  1.0242  0.3997 -1.5994
  326MOL0     H43944   9.804  10.034   9.481 -1.8035  0.1445  1.1469
  326MOL0     H43945   9.839  10.488   9.462 -0.8029  0.0769 -1.6330
  326MOL0     H43946   9.982  10.443   9.538  0.7986  0.5255 -0.9875
  326MOL0     H43947   9.994  10.518   9.283  2.5004  0.1603  0.8789
  326MOL0     H43948   9.953  10.330   9.274  0.7168 -1.4233  2.6385
  326MOL0     H43949  10.176  10.316   9.411  1.9916  0.2922 -0.2306
  326MOL0     H43950  10.197  10.488   9.382 -0.8008  1.1758 -2.2580
  326MOL0     H43951  10.158  10.293   9.161  1.8348  0.2845 -3.5542
  326MOL0     H43952  10.191  10.460   9.134 -1.0984 -0.3016  0.2331
  326MOL0     H43953  10.366  10.262   9.283 -1.4859  1.2691  2.2135
  326MOL0     H43954  10.402  10.305   9.116 -2.7607 -0.5950 -1.0221
  326MOL0     H43955  10.425  10.477   9.367 -1.1349  2.2779 -1.2575
  326MOL0     H43956  10.543  10.405   9.266 -0.3728 -0.3910 -1.6880
  326MOL0     H43957  10.477  10.670   9.242 -3.6059  1.8987  1.0258
  326MOL0     H43958  10.321  10.623   9.202  0.9717 -0.5310  2.8736
  326MOL0     H43959  10.395  10.519   8.996 -3.7078  4.1466 -0.4369
  326MOL0     H43960  10.448  10.680   8.999 -2.6873 -0.3870  0.5014
  326MOL0     H43961  10.728  10.725   9.014  0.7014  0.3180  0.4756
  326MOL0     H43962  10.980  10.607   8.895  0.9393 -1.1095 -0.9751
  326MOL0     H43963  10.984  10.618   9.071  0.7770 -0.0127 -0.1807
  326MOL0     H43964  11.028  10.369   9.087 -0.2181 -1.3862 -0.4005
  326MOL0     H43965  11.006  10.359   8.910 -0.0181  0.0320 -0.3752
  326MOL0     H43966  11.228  10.541   9.017 -0.0352 -0.3501  2.0955
  326MOL0     H43967  11.216  10.459   8.862  0.1431  2.9435 -0.2927
  326MOL0     H43968  11.258  10.347   9.136 -1.6436  0.9915 -0.6492
  326MOL0     H43969  11.384  10.352   9.006  0.2377 -0.7178  1.1083
  326MOL0     H43970  11.157   9.976   8.914 -1.2175  1.6485 -0.4842
  326MOL0     H43971  11.229   9.848   8.708  0.0547  0.1959  1.4120
  326MOL0     H43972  11.229  10.122   8.210 -1.3469 -0.7762 -0.0820
  326MOL0     H43973  11.166  10.031   8.018  3.3705  3.3388 -0.7405
  326MOL0     H43974  11.109   9.739   7.827  2.0973 -1.0169  1.9145
  326MOL0     H43975  11.085   9.908   7.887  2.0796  0.5816  3.5949
  326MOL0     H43976  11.198   9.818   7.623  2.9628  0.6447  1.9832
  326MOL0     H43977  11.039   9.895   7.655  0.0212  1.5072 -1.2505
  326MOL0     H43978  11.145  10.096   7.636  0.4057  1.5035  3.2051
  326MOL0     H43979  11.232  10.071   7.782  1.0739  0.5256  0.1594
  326MOL0     H43980  11.332  10.013   7.515 -4.0130  2.7367  1.0870
  326MOL0     H43981  11.415   9.958   7.676 -0.1903 -1.5664 -0.0848
  326MOL0     H43982  11.436  10.202   7.727 -2.3788  1.5987 -0.9065
  326MOL0     H43983  11.309  10.239   7.613 -2.1654 -2.8701 -1.5733
  326MOL0     H43984  11.591  10.139   7.554  0.9307 -0.4906 -4.0902
  326MOL0     H43985  11.480  10.169   7.428 -0.2543 -1.4486  0.7417
  326MOL0     H43986  11.594  10.353   7.651 -2.0229  1.4368 -0.1235
  326MOL0     H43987  11.483  10.414   7.534  1.7672  2.1665 -0.1452
  326MOL0     H43988  11.714  10.476   7.454 -3.0137  2.1534 -4.9384
  326MOL0     H43989  11.768  10.308   7.474 -1.0528 -0.4063  1.2326
  326MOL0     H43990  11.498   9.746   8.032 -1.4987 -2.3810  0.5982
  326MOL0     H43991  11.547   9.825   8.249  1.3636  1.2180  0.6010
  326MOL0     H43992  11.442  10.185   8.567  1.7390 -0.2356 -0.1683
  326MOL0     H43993  11.404  10.313   8.789  0.6881  0.2159 -0.4740
  326MOL0     H43994   9.712  10.413   9.302  2.1611 -0.3092 -0.6525
  326MOL0     H43995   9.502  10.325   9.213 -1.0310  0.5750  1.9186
  326MOL0     H43996   9.288  10.064   9.008  0.2404 -1.1645 -0.0539
  326MOL0     H43997   9.106  10.012   8.874 -3.3226  0.1236 -0.0975
  326MOL0     H43998   8.742   9.903   8.800  0.8848 -2.1004 -1.1986
  326MOL0     H43999   8.921   9.900   8.798  0.6655 -0.7400  4.1673
  326MOL0     H44000   8.923  10.140   8.749  0.1554  0.0406  2.2672
  326MOL0     H44001   8.751  10.145   8.789  1.2924 -0.5276  2.0571
  326MOL0     H44002   8.712   9.992   8.580  0.8756  0.6432 -3.8046
  326MOL0     H44003   8.885   9.985   8.554 -0.2926 -0.3627 -1.6281
  326MOL0     H44004   8.700  10.230   8.562 -1.2440 -0.1069 -2.4624
  326MOL0     H44005   8.886  10.238   8.550 -1.4009  1.0581  1.0208
  326MOL0     H44006   8.718  10.142   8.167  0.7200 -0.7931 -0.0985
  326MOL0     H44007   8.830  10.052   9.201 -1.1447  0.3337 -1.6104
  326MOL0     H44008   9.080  10.100   9.463 -3.0086  4.0812  1.7124
  326MOL0     H44009   8.911  10.126   9.415  0.7186  0.6699  0.3994
  326MOL0     H44010   8.977   9.961   9.417  1.6260 -1.0798 -2.3491
  327MOL0     O44011   7.018   0.507   5.356 -0.1630  0.6188 -0.4093
  327MOL0     C44012   6.902   0.479   5.332  0.2116 -0.8790 -0.1635
  327MOL0     O44013   6.856   0.437   5.214 -0.0869  0.7091  0.3015
  327MOL0     C44014   6.932   0.437   5.102  0.7288 -0.5538 -0.4387
  327MOL0     C44015   7.029   0.533   5.070 -0.1435 -0.4863 -0.2454
  327MOL0     C44016   7.090   0.531   4.942  0.7239 -0.1728 -0.2969
  327MOL0     C44017   7.068   0.427   4.850  0.6394 -0.5178 -0.6228
  327MOL0     O44018   7.108   0.422   4.722  0.3192  0.1800 -0.0622
  327MOL0     C44019   7.187   0.531   4.676  0.6339  1.2083  0.6858
  327MOL0     C44020   7.238   0.501   4.533  0.2644 -0.2622 -0.5519
  327MOL0     C44021   7.136   0.486   4.420  0.7439 -0.4909  0.1786
  327MOL0     C44022   7.221   0.449   4.300 -1.9159  0.3304 -0.8203
  327MOL0     C44023   7.254   0.292   4.279 -0.1670 -0.7863 -0.1134
  327MOL0     C44024   7.357   0.262   4.164  0.2499 -0.5219 -0.2084
  327MOL0     C44025   7.294   0.180   4.048 -0.0280  0.1273  0.4298
  327MOL0     C44026   7.409   0.139   3.950  0.2130  0.1261  0.0509
  327MOL0     N44027   7.450   0.261   3.886 -0.1049 -0.7045 -0.2928
  327MOL0     C44028   7.579   0.302   3.874 -0.2745 -0.0706  0.3285
  327MOL0     C44029   7.573   0.401   3.792 -1.5857 -0.5961 -0.0568
  327MOL0     C44030   7.688   0.488   3.745  0.4256  0.7353  0.0085
  327MOL0     C44031   7.651   0.602   3.648 -0.7207 -0.3140 -0.2132
  327MOL0     C44032   7.767   0.662   3.572 -0.1134  0.7530  0.7410
  327MOL0     C44033   7.823   0.582   3.450 -0.0117  0.9735  0.4441
  327MOL0     O44034   7.730   0.558   3.345 -0.2174 -0.0200  0.8780
  327MOL0     C44035   7.680   0.659   3.266  0.2768  0.7618  0.4342
  327MOL0     C44036   7.727   0.789   3.270  0.0847  0.4453 -0.2101
  327MOL0     C44037   7.656   0.895   3.205 -0.4106 -0.3540 -0.1260
  327MOL0     C44038   7.550   0.866   3.125 -0.4048  0.0305 -0.5163
  327MOL0     C44039   7.473   0.978   3.062 -0.1069 -0.3411 -0.5665
  327MOL0     O44040   7.339   0.951   3.040 -0.1863  0.4553  0.1138
  327MOL0     C44041   7.266   1.045   2.975  0.1906 -0.1751 -0.2100
  327MOL0     C44042   7.299   1.086   2.850  0.1094 -0.6593  0.6706
  327MOL0     C44043   7.220   1.187   2.782  0.5142  0.0575  0.4697
  327MOL0     C44044   7.120   1.252   2.845  0.9686  0.9559 -0.2599
  327MOL0     O44045   7.056   1.357   2.783  0.0652  0.3141 -0.0443
  327MOL0     C44046   6.979   1.461   2.853 -0.0172  0.1356  0.6681
  327MOL0     C44047   6.829   1.420   2.888  0.0539 -0.1887  0.7965
  327MOL0     C44048   6.719   1.530   2.883 -0.4081  0.8413 -0.0017
  327MOL0     C44049   6.730   1.629   3.004  0.6982  0.8247  0.5450
  327MOL0     C44050   6.652   1.761   2.979 -1.2983  0.1157 -0.4483
  327MOL0     C44051   6.711   1.865   3.072 -0.0158  1.2519 -0.2008
  327MOL0     C44052   6.627   1.992   3.081 -0.8938 -0.1463  0.0900
  327MOL0     C44053   6.659   2.063   3.217  0.3176 -0.2365  0.6050
  327MOL0    Cl44054   6.557   1.984   3.338  0.0651  0.3249 -0.4742
  327MOL0     C44055   7.090   1.212   2.978  0.3060 -0.0955 -0.2056
  327MOL0     C44056   7.159   1.108   3.039 -0.6621 -0.0683  1.0205
  327MOL0     O44057   7.522   1.091   3.044 -0.6573  0.0754 -0.1814
  327MOL0     C44058   7.501   0.741   3.119 -0.3730 -0.4322  0.4677
  327MOL0     C44059   7.563   0.641   3.189 -0.7251 -0.5533  0.6283
  327MOL0     N44060   7.444   0.426   3.752  0.3637  1.0587 -0.0677
  327MOL0     N44061   7.369   0.338   3.805 -0.4711  0.6152 -0.1123
  327MOL0     C44062   6.964   0.337   4.887 -0.5718 -0.1597  0.2978
  327MOL0     C44063   6.904   0.341   5.009 -0.1753 -0.0526  0.6744
  327MOL0     C44064   6.803   0.484   5.440 -0.8129  0.3773 -0.0579
  327MOL0     C44065   6.668   0.450   5.421  0.6591  0.7464 -0.0916
  327MOL0     C44066   6.572   0.463   5.521  0.1914  0.3776 -0.6977
  327MOL0     C44067   6.606   0.497   5.652  0.0301  0.1378  0.5583
  327MOL0     O44068   6.514   0.510   5.750  0.1217  0.0839 -0.4764
  327MOL0     C44069   6.430   0.629   5.725 -0.0702  0.4640  0.0042
  327MOL0     C44070   6.485   0.752   5.789 -0.7283 -0.0687  0.4495
  327MOL0     C44071   6.424   0.888   5.755 -0.2842  0.3722  0.0677
  327MOL0     C44072   6.274   0.879   5.729  0.3305 -1.1766  0.0891
  327MOL0     C44073   6.204   1.000   5.781 -0.5305 -0.2148 -0.3181
  327MOL0     C44074   6.140   1.098   5.803 -0.2617 -0.8478 -0.2723
  327MOL0     C44075   6.743   0.519   5.677 -0.3849  1.2366 -1.0686
  327MOL0     C44076   6.841   0.516   5.579  0.5160  0.0296  0.5650
  327MOL0     C44077   6.985   0.542   5.624  0.5801  0.7666  0.6044
  327MOL0     H44078   7.068   0.609   5.136 -0.1025 -1.7265  1.2327
  327MOL0     H44079   7.159   0.610   4.913 -1.4068  1.7280 -0.4329
  327MOL0     H44080   7.119   0.615   4.665 -2.1958 -1.1296 -1.2440
  327MOL0     H44081   7.270   0.560   4.741  0.2871  2.6016  0.5394
  327MOL0     H44082   7.301   0.413   4.547 -0.6330 -1.0071 -1.0272
  327MOL0     H44083   7.310   0.580   4.515  1.9045 -1.8995 -1.5610
  327MOL0     H44084   7.099   0.586   4.400  2.3674  0.0987 -0.0472
  327MOL0     H44085   7.053   0.416   4.434 -0.3321 -0.0608 -3.1942
  327MOL0     H44086   7.173   0.497   4.214 -2.9575 -0.0604 -0.4820
  327MOL0     H44087   7.312   0.505   4.322 -1.7384 -0.1327 -0.3608
  327MOL0     H44088   7.286   0.247   4.374 -0.1583  0.3387  0.4326
  327MOL0     H44089   7.153   0.253   4.266 -2.4514  4.0506  1.0641
  327MOL0     H44090   7.409   0.352   4.130 -0.7733  0.1743  0.0251
  327MOL0     H44091   7.435   0.207   4.217  1.5491  1.8582  0.4879
  327MOL0     H44092   7.213   0.235   4.001 -0.1278 -0.2522  0.1502
  327MOL0     H44093   7.249   0.084   4.074 -2.0704  0.8023 -0.4906
  327MOL0     H44094   7.494   0.093   4.002  0.8907  0.0983 -1.0490
  327MOL0     H44095   7.384   0.070   3.869 -2.5898  0.1388  0.7980
  327MOL0     H44096   7.661   0.249   3.921 -0.1664 -1.4217 -1.2716
  327MOL0     H44097   7.741   0.527   3.832  1.6837  1.9116 -1.2381
  327MOL0     H44098   7.757   0.423   3.691  0.4402 -0.0034  0.8901
  327MOL0     H44099   7.583   0.560   3.572 -1.2752 -2.5809  1.4286
  327MOL0     H44100   7.593   0.673   3.707  0.0566  0.1028  0.0511
  327MOL0     H44101   7.852   0.678   3.639 -1.0005 -0.9722  2.3437
  327MOL0     H44102   7.740   0.764   3.544 -2.0370 -0.0419 -0.4405
  327MOL0     H44103   7.859   0.489   3.495 -0.8886  0.0039 -0.7631
  327MOL0     H44104   7.911   0.629   3.406 -1.4616  1.6390 -1.9322
  327MOL0     H44105   7.819   0.811   3.324  2.2556 -1.3602 -2.8783
  327MOL0     H44106   7.695   0.995   3.221  0.2814 -0.6530  0.0940
  327MOL0     H44107   7.381   1.040   2.795 -0.3627  0.7606 -1.3370
  327MOL0     H44108   7.247   1.225   2.684 -0.1306 -0.1778  0.1998
  327MOL0     H44109   7.016   1.521   2.937 -2.8694  2.7134  0.3007
  327MOL0     H44110   6.970   1.544   2.782 -0.4647  2.3450  3.1568
  327MOL0     H44111   6.785   1.345   2.821  1.7654 -0.5061 -0.0164
  327MOL0     H44112   6.840   1.382   2.989 -2.7043  1.3696  1.8057
  327MOL0     H44113   6.711   1.590   2.792 -3.1713  1.3491  0.4828
  327MOL0     H44114   6.626   1.473   2.896 -0.0425  0.0605 -0.7015
  327MOL0     H44115   6.835   1.651   3.030  1.3305 -1.5123  0.1441
  327MOL0     H44116   6.687   1.568   3.084  0.8844 -0.2132 -0.1338
  327MOL0     H44117   6.545   1.744   2.994 -1.4328  0.4550 -0.9861
  327MOL0     H44118   6.661   1.802   2.878 -2.3556  1.1467 -0.1456
  327MOL0     H44119   6.714   1.823   3.173 -0.7420  0.0977 -0.6365
  327MOL0     H44120   6.810   1.892   3.034  0.2334  0.8303  0.1488
  327MOL0     H44121   6.519   1.973   3.076 -0.9807 -0.9814  3.1536
  327MOL0     H44122   6.655   2.043   2.989 -0.6943 -2.7072 -1.3885
  327MOL0     H44123   6.764   2.065   3.248  0.4432  0.0480  0.1703
  327MOL0     H44124   6.628   2.167   3.202  0.9085 -0.1396 -0.0456
  327MOL0     H44125   7.011   1.253   3.040  0.6325  1.2885 -0.6504
  327MOL0     H44126   7.135   1.087   3.143 -1.6692 -2.5852  0.3485
  327MOL0     H44127   7.424   0.722   3.046  1.2651  2.7393 -2.3628
  327MOL0     H44128   7.509   0.547   3.191 -2.5789  0.4701  1.4407
  327MOL0     H44129   6.947   0.257   4.815  0.4980 -0.6751  0.6023
  327MOL0     H44130   6.836   0.258   5.027  0.0770 -1.6690 -4.3240
  327MOL0     H44131   6.636   0.398   5.331  2.3769  0.4521 -0.5729
  327MOL0     H44132   6.473   0.420   5.508  0.3581  0.1979 -1.4180
  327MOL0     H44133   6.329   0.595   5.752  0.4054 -2.5421 -1.5357
  327MOL0     H44134   6.420   0.644   5.617  0.8476 -0.2267 -0.1886
  327MOL0     H44135   6.590   0.762   5.761 -0.6319 -3.1553 -0.5947
  327MOL0     H44136   6.485   0.739   5.898 -1.4319  0.6687  0.5504
  327MOL0     H44137   6.470   0.924   5.662  2.1413  0.4000  1.1890
  327MOL0     H44138   6.446   0.950   5.842  1.5722 -6.5920  5.4972
  327MOL0     H44139   6.259   0.880   5.621 -0.7439  2.5211  0.1327
  327MOL0     H44140   6.217   0.794   5.767 -0.4150 -0.8840 -0.3544
  327MOL0     H44141   6.076   1.177   5.838  1.0794  0.2348 -0.2043
  327MOL0     H44142   6.772   0.553   5.776 -1.4863  1.7399 -0.8959
  327MOL0     H44143   7.020   0.632   5.572 -2.8686  0.2083 -3.1504
  327MOL0     H44144   6.989   0.564   5.732  0.0543  1.6347  0.4541
  327MOL0     H44145   7.057   0.461   5.608  1.1152  1.1118  1.1966
  328MOL0     O44146   5.698  10.423   7.484  0.4512  0.1346  0.1324
  328MOL0     C44147   5.799  10.493   7.485 -0.0148 -0.5103 -0.1744
  328MOL0     O44148   5.913  10.469   7.559  0.4209  0.0978 -0.8782
  328MOL0     C44149   5.909  10.351   7.632 -0.0586 -0.7060 -0.1295
  328MOL0     C44150   5.972  10.238   7.581 -0.1319 -0.3242  0.0430
  328MOL0     C44151   5.954  10.117   7.655 -0.1559 -0.4764  0.6243
  328MOL0     C44152   5.902  10.124   7.781 -0.0974 -0.4630  0.2078
  328MOL0     O44153   5.910  10.010   7.855 -0.2520 -0.0400 -0.3857
  328MOL0     C44154   5.858  10.000   7.990  0.1204 -0.1780  0.1710
  328MOL0     C44155   5.960  10.038   8.092  0.6299  0.2717  0.3763
  328MOL0     C44156   5.912  10.006   8.232  0.5053 -0.3739 -0.0972
  328MOL0     C44157   5.821  10.124   8.288 -0.0987  0.4105  0.3682
  328MOL0     C44158   5.735  10.078   8.410  0.6773 -0.3413 -0.6683
  328MOL0     C44159   5.620  10.175   8.446  0.5482  1.1118 -0.6888
  328MOL0     C44160   5.537  10.134   8.573 -0.1977 -0.6893  0.9014
  328MOL0     C44161   5.617  10.097   8.695 -1.0592 -0.4641 -0.3667
  328MOL0     N44162   5.540  10.095   8.822 -0.4847  0.4664  0.8826
  328MOL0     C44163   5.583  10.067   8.946  0.0142  1.0341  0.3184
  328MOL0     C44164   5.498  10.076   9.043 -0.0432 -0.3943  0.4882
  328MOL0     C44165   5.508  10.072   9.193  0.2016  0.1157  0.5630
  328MOL0     C44166   5.431   9.947   9.236 -0.1724  0.0451  0.0559
  328MOL0     C44167   5.497   9.892   9.364  0.3594  0.9065 -0.4254
  328MOL0     C44168   5.420   9.762   9.406  0.2002  0.2412  0.5606
  328MOL0     O44169   5.498   9.678   9.489  0.3200  0.5876  0.2919
  328MOL0     C44170   5.552   9.559   9.443  0.4301 -0.2649 -0.0378
  328MOL0     C44171   5.496   9.476   9.344 -0.6206 -0.5427  0.2030
  328MOL0     C44172   5.573   9.359   9.310  0.3453  0.0794  0.0026
  328MOL0     C44173   5.691   9.328   9.374  0.6592  0.6971 -0.3111
  328MOL0     C44174   5.764   9.203   9.337 -0.2229  0.2644 -0.0792
  328MOL0     O44175   5.893   9.201   9.366 -0.1586  0.0692  0.7926
  328MOL0     C44176   5.970   9.094   9.329 -1.1970  0.7443  0.0845
  328MOL0     C44177   5.951   9.033   9.201  0.6090 -0.8776  0.1342
  328MOL0     C44178   6.000   8.902   9.179  0.1557  0.0509  0.7613
  328MOL0     C44179   6.095   8.850   9.258  0.6704  1.0166  0.3527
  328MOL0     O44180   6.134   8.717   9.246  0.1715 -0.6196 -0.1348
  328MOL0     C44181   6.032   8.621   9.219 -0.3402  0.0123 -0.2776
  328MOL0     C44182   6.062   8.492   9.298 -0.5676 -0.5233 -0.6179
  328MOL0     C44183   6.104   8.508   9.443 -0.1144  0.0606  0.2065
  328MOL0     C44184   6.085   8.370   9.517  0.8590  0.0716  0.4329
  328MOL0     C44185   6.108   8.400   9.662  0.2970 -0.4930  0.2545
  328MOL0     C44186   6.259   8.428   9.706  0.2053 -0.3397  0.0654
  328MOL0     C44187   6.261   8.426   9.861  0.5727  0.7955 -0.7275
  328MOL0     C44188   6.397   8.364   9.903  0.2043  0.8793 -0.3474
  328MOL0    Cl44189   6.380   8.295  10.066 -0.2266 -0.2712 -0.3035
  328MOL0     C44190   6.139   8.919   9.373  0.1997 -0.4377 -0.2966
  328MOL0     C44191   6.072   9.039   9.413  0.1441 -0.0395  0.1402
  328MOL0     O44192   5.696   9.112   9.292  0.4622 -1.3739 -0.8749
  328MOL0     C44193   5.746   9.413   9.477  0.6434 -0.2924  0.9592
  328MOL0     C44194   5.672   9.525   9.510  1.2708  0.2080 -0.4898
  328MOL0     N44195   5.385  10.111   8.973  0.3915 -0.0088  0.0580
  328MOL0     N44196   5.403  10.108   8.845 -1.0373 -0.1296  0.3049
  328MOL0     C44197   5.847  10.236   7.832  0.3186 -0.0015 -0.1523
  328MOL0     C44198   5.852  10.353   7.758  0.3001  0.9719 -0.1363
  328MOL0     C44199   5.779  10.624   7.435  0.6379  0.3615  0.2033
  328MOL0     C44200   5.762  10.730   7.531 -0.4261  0.5938 -0.1340
  328MOL0     C44201   5.750  10.865   7.493  0.4792 -0.1579  0.9422
  328MOL0     C44202   5.740  10.900   7.355  0.9438  0.7138  0.1428
  328MOL0     O44203   5.716  11.022   7.316  0.2699  0.3329 -0.7133
  328MOL0     C44204   5.818  11.118   7.364 -0.1806 -0.2177  0.3806
  328MOL0     C44205   5.959  11.086   7.303 -0.1350  0.4495  0.0622
  328MOL0     C44206   6.054  10.999   7.385  0.1400 -0.0282 -0.1993
  328MOL0     C44207   6.197  11.020   7.345 -0.6260  0.0081  0.1436
  328MOL0     C44208   6.253  11.153   7.381  0.8793  0.4242  0.5912
  328MOL0     C44209   6.290  11.267   7.393 -0.3304 -0.4258  0.4231
  328MOL0     C44210   5.761  10.796   7.261  0.1279 -1.3710 -0.7203
  328MOL0     C44211   5.773  10.664   7.298 -0.1681 -0.0098  0.4201
  328MOL0     C44212   5.760  10.562   7.180  1.2929 -0.9243 -0.3291
  328MOL0     H44213   6.037  10.256   7.496 -2.5052  4.1972 -1.1475
  328MOL0     H44214   5.984  10.027   7.601 -4.5614 -2.2315  0.6224
  328MOL0     H44215   5.758  10.043   8.000 -1.1566 -2.7209 -0.5721
  328MOL0     H44216   5.842   9.892   7.980  0.0116 -0.3195  1.7427
  328MOL0     H44217   5.976  10.146   8.079 -0.2735  0.2926 -0.7669
  328MOL0     H44218   6.055   9.985   8.083  0.3663 -0.1959  0.3217
  328MOL0     H44219   5.997   9.986   8.297  0.0270 -0.1606  0.6028
  328MOL0     H44220   5.848   9.917   8.222  1.9937 -1.1841 -5.6371
  328MOL0     H44221   5.894  10.200   8.316 -2.1372  2.8397 -0.5613
  328MOL0     H44222   5.751  10.150   8.208  0.9325 -1.4455 -1.2377
  328MOL0     H44223   5.691   9.978   8.396  0.4117 -0.4651  0.8245
  328MOL0     H44224   5.787  10.067   8.506 -0.4044  1.8838  0.2394
  328MOL0     H44225   5.663  10.275   8.459 -0.5830  1.8627 -2.4240
  328MOL0     H44226   5.551  10.197   8.364 -2.0779 -2.0168  0.4580
  328MOL0     H44227   5.469  10.051   8.549  0.8286 -1.2103 -0.2868
  328MOL0     H44228   5.476  10.222   8.592 -0.3523 -0.5175 -0.2760
  328MOL0     H44229   5.676  10.005   8.687 -0.2349 -0.0743  0.8865
  328MOL0     H44230   5.694  10.173   8.713 -0.4407 -1.3584  1.0212
  328MOL0     H44231   5.689  10.047   8.955  0.2350  1.1268 -1.6388
  328MOL0     H44232   5.613  10.060   9.220 -0.1539 -1.3221  1.4404
  328MOL0     H44233   5.480  10.172   9.228  2.2495  1.2734 -0.8908
  328MOL0     H44234   5.328   9.982   9.246 -0.3146  0.0374 -1.1969
  328MOL0     H44235   5.451   9.869   9.163 -0.9353  0.0714 -0.1860
  328MOL0     H44236   5.492   9.966   9.444  1.8252 -1.2948  1.8529
  328MOL0     H44237   5.605   9.876   9.352 -0.0346 -5.4708  0.9028
  328MOL0     H44238   5.389   9.711   9.314 -1.4125  3.6510 -0.9957
  328MOL0     H44239   5.336   9.795   9.469 -0.4282  4.6875 -2.1588
  328MOL0     H44240   5.400   9.502   9.301 -0.8002  0.8637  1.3632
  328MOL0     H44241   5.540   9.292   9.231  0.1428 -3.2128  2.6291
  328MOL0     H44242   5.874   9.064   9.132  1.1412  1.3550  0.4711
  328MOL0     H44243   5.958   8.851   9.092 -0.4459 -0.1336  1.1563
  328MOL0     H44244   5.944   8.665   9.268  0.9200 -0.6206  2.7832
  328MOL0     H44245   6.020   8.604   9.111  2.1710 -0.7668 -0.4813
  328MOL0     H44246   5.964   8.444   9.297 -1.5703  1.4214 -0.5094
  328MOL0     H44247   6.133   8.429   9.243  0.8038 -0.3611  0.9059
  328MOL0     H44248   6.207   8.537   9.463  0.6111 -3.0964  1.6701
  328MOL0     H44249   6.042   8.583   9.492 -0.1202  0.1445  0.0731
  328MOL0     H44250   6.144   8.292   9.468  0.1619  0.5462 -1.2276
  328MOL0     H44251   5.981   8.339   9.503  0.3919  1.9598 -0.7657
  328MOL0     H44252   6.084   8.303   9.706  0.0885  0.1770  1.6785
  328MOL0     H44253   6.044   8.481   9.700 -2.5231 -1.7538 -1.4892
  328MOL0     H44254   6.323   8.353   9.659  0.7878  0.3633 -0.2738
  328MOL0     H44255   6.294   8.525   9.670  0.7508  0.6472  3.0282
  328MOL0     H44256   6.171   8.370   9.890  0.2577  1.6341 -0.0411
  328MOL0     H44257   6.249   8.525   9.907  2.3612  0.2198  1.1182
  328MOL0     H44258   6.431   8.286   9.835  0.3107  0.2447  0.4245
  328MOL0     H44259   6.471   8.445   9.909  0.0647  0.9132  1.5296
  328MOL0     H44260   6.221   8.870   9.425 -0.3381 -0.1304  0.8688
  328MOL0     H44261   6.084   9.075   9.515 -0.4816  2.2430 -0.5230
  328MOL0     H44262   5.842   9.411   9.527  1.3581  1.5616 -0.2210
  328MOL0     H44263   5.701   9.590   9.591  2.2699 -0.0687 -0.6180
  328MOL0     H44264   5.807  10.245   7.933 -2.7785 -0.7079 -1.2052
  328MOL0     H44265   5.808  10.449   7.785 -0.7058  0.3567  0.5001
  328MOL0     H44266   5.785  10.723   7.637 -2.3300  0.6617  0.3240
  328MOL0     H44267   5.744  10.951   7.560  3.0079  2.2928 -1.6799
  328MOL0     H44268   5.834  11.115   7.472 -2.3200  0.2059  0.7438
  328MOL0     H44269   5.782  11.213   7.323  2.1570  0.0417 -1.2642
  328MOL0     H44270   6.014  11.180   7.295  0.2912  0.1109 -1.3083
  328MOL0     H44271   5.943  11.045   7.203 -0.0851 -0.4711  0.4234
  328MOL0     H44272   6.036  10.893   7.369 -3.7624  0.1350  2.0029
  328MOL0     H44273   6.063  11.038   7.487 -0.7415  0.6941 -0.3858
  328MOL0     H44274   6.260  10.959   7.410  2.6161  3.6600  0.8102
  328MOL0     H44275   6.228  10.987   7.245  1.8469 -0.0505  0.8559
  328MOL0     H44276   6.332  11.365   7.408 -2.1354  0.4968 -0.2251
  328MOL0     H44277   5.751  10.820   7.156 -1.9896 -1.9108 -0.6917
  328MOL0     H44278   5.753  10.464   7.227 -0.8791 -0.1641  1.0810
  328MOL0     H44279   5.664  10.589   7.135  0.7574 -0.4544  1.0386
  328MOL0     H44280   5.838  10.573   7.104  2.2746  1.4095  0.9012
  329MOL0     O44281   1.896   6.359   2.019 -0.0159 -0.3659 -0.5712
  329MOL0     C44282   2.008   6.363   2.069 -0.9187 -0.2509 -0.4264
  329MOL0     O44283   2.058   6.272   2.158  0.1673  0.0406  0.7077
  329MOL0     C44284   1.975   6.198   2.235  0.0401  0.6740 -0.5309
  329MOL0     C44285   1.925   6.252   2.359 -0.2933 -0.2784 -0.6110
  329MOL0     C44286   1.837   6.181   2.437 -0.2699 -0.3951 -0.2231
  329MOL0     C44287   1.814   6.048   2.420  0.2452  0.4265 -0.1535
  329MOL0     O44288   1.744   5.972   2.516 -0.0995  1.1658  0.0528
  329MOL0     C44289   1.647   5.875   2.462  0.1141  0.3631 -0.0115
  329MOL0     C44290   1.558   5.817   2.568  0.5043  0.3892  0.1707
  329MOL0     C44291   1.634   5.772   2.692 -0.3895  0.2642  0.0419
  329MOL0     C44292   1.565   5.709   2.817 -0.2457 -0.5999  0.5244
  329MOL0     C44293   1.532   5.566   2.792  0.6099 -0.1077 -0.6026
  329MOL0     C44294   1.436   5.509   2.894 -0.0802  0.3654 -0.6794
  329MOL0     C44295   1.500   5.526   3.027  0.5361 -0.0915 -0.6517
  329MOL0     C44296   1.497   5.405   3.123 -0.7486 -0.8097 -0.0057
  329MOL0     N44297   1.363   5.349   3.152 -0.3328  0.0613  0.2046
  329MOL0     C44298   1.266   5.427   3.206  0.0627 -0.5929  0.2089
  329MOL0     C44299   1.162   5.346   3.227  0.3075  0.0865 -0.1785
  329MOL0     C44300   1.034   5.385   3.302 -0.5085 -0.2453  0.5173
  329MOL0     C44301   1.038   5.353   3.448 -0.1391 -0.5042 -0.1716
  329MOL0     C44302   0.892   5.317   3.513  0.3951  0.3792  0.7856
  329MOL0     C44303   0.815   5.449   3.551  0.4877  0.7902  0.2450
  329MOL0     O44304   0.891   5.547   3.620  0.1439  0.2727  0.6009
  329MOL0     C44305   0.843   5.668   3.658  0.0815  0.2044 -0.5798
  329MOL0     C44306   0.911   5.749   3.740 -1.4004 -0.5945  0.4097
  329MOL0     C44307   0.864   5.873   3.788  0.3628 -0.1441  0.1800
  329MOL0     C44308   0.735   5.913   3.750  0.3168  0.1940  0.3894
  329MOL0     C44309   0.697   6.047   3.788  0.4394  1.1098 -0.1287
  329MOL0     O44310   0.799   6.130   3.822 -0.2959  0.1559  0.3558
  329MOL0     C44311   0.770   6.262   3.829  0.1360 -0.3744 -0.1093
  329MOL0     C44312   0.778   6.341   3.719  0.5158 -0.4716  0.3487
  329MOL0     C44313   0.781   6.476   3.722  0.4368 -0.1182  0.0797
  329MOL0     C44314   0.758   6.539   3.851 -0.1202  0.1082  0.9976
  329MOL0     O44315   0.750   6.675   3.834  0.3068 -0.5798 -0.5463
  329MOL0     C44316   0.767   6.758   3.951 -0.5329  0.0523 -0.9367
  329MOL0     C44317   0.741   6.903   3.905  0.4676  0.6954 -0.0770
  329MOL0     C44318   0.742   7.003   4.020 -0.1550  0.9691 -0.2724
  329MOL0     C44319   0.863   7.097   4.027 -0.5042 -0.5262 -0.2327
  329MOL0     C44320   0.879   7.149   4.164  0.7731 -0.1713  0.8103
  329MOL0     C44321   1.004   7.234   4.164 -0.1805 -0.7152  0.1713
  329MOL0     C44322   1.025   7.280   4.301 -0.7995  0.0078 -0.0636
  329MOL0     C44323   0.943   7.413   4.322 -0.0649  0.2811 -1.3377
  329MOL0    Cl44324   0.988   7.480   4.488 -0.0424  0.1452  0.4532
  329MOL0     C44325   0.753   6.464   3.967 -0.2410  0.8461 -0.5073
  329MOL0     C44326   0.752   6.325   3.954 -0.4722 -0.4574  0.8594
  329MOL0     O44327   0.581   6.084   3.771 -0.1248  0.2368 -0.0431
  329MOL0     C44328   0.664   5.832   3.661  0.2554 -0.2806  0.3508
  329MOL0     C44329   0.713   5.707   3.619 -0.6635 -0.8154  0.7330
  329MOL0     N44330   1.201   5.217   3.205 -0.0523 -0.1102  0.0592
  329MOL0     N44331   1.325   5.219   3.158 -1.0306  0.1929  0.4055
  329MOL0     C44332   1.867   5.985   2.304 -0.1948  0.4489 -0.0006
  329MOL0     C44333   1.947   6.061   2.212 -0.2790  0.3135 -0.6027
  329MOL0     C44334   2.111   6.445   2.003  0.2982 -0.6607 -0.5104
  329MOL0     C44335   2.179   6.385   1.896  0.1401 -0.7289  0.2530
  329MOL0     C44336   2.294   6.446   1.850 -0.3767 -0.0654 -0.1749
  329MOL0     C44337   2.340   6.567   1.906  0.3505 -0.4690 -0.1604
  329MOL0     O44338   2.459   6.637   1.879 -0.1823  0.2685  0.2028
  329MOL0     C44339   2.557   6.591   1.781  0.0080 -0.2756 -0.8071
  329MOL0     C44340   2.624   6.716   1.726 -0.4327 -0.0295 -0.0169
  329MOL0     C44341   2.529   6.825   1.686 -0.1973  0.1848 -0.7052
  329MOL0     C44342   2.605   6.936   1.613  1.0917 -0.1204 -1.2153
  329MOL0     C44343   2.584   6.946   1.473  0.6920  0.2247  1.3049
  329MOL0     C44344   2.555   6.972   1.357 -0.0499 -0.1128 -0.4906
  329MOL0     C44345   2.259   6.632   2.004 -0.5980  0.5477 -0.3065
  329MOL0     C44346   2.153   6.563   2.058 -0.0355 -0.4040  0.0854
  329MOL0     C44347   2.087   6.626   2.178 -0.0814 -0.1720 -0.3990
  329MOL0     H44348   1.946   6.358   2.367 -4.9279  1.0445 -2.5959
  329MOL0     H44349   1.804   6.232   2.527  0.0053 -1.1601  0.3283
  329MOL0     H44350   1.585   5.928   2.389  0.4618 -0.0434 -0.6127
  329MOL0     H44351   1.711   5.800   2.413  1.1620  0.7545  0.7184
  329MOL0     H44352   1.504   5.730   2.529 -1.1625  1.0900  0.7929
  329MOL0     H44353   1.480   5.893   2.586 -2.7855 -2.4864 -0.8265
  329MOL0     H44354   1.683   5.863   2.725  0.3452  0.0173 -0.3481
  329MOL0     H44355   1.704   5.697   2.652  1.0239  2.2561 -1.3876
  329MOL0     H44356   1.641   5.719   2.896  1.1899  1.4172 -1.0340
  329MOL0     H44357   1.480   5.770   2.849  1.8808  3.5589 -1.0585
  329MOL0     H44358   1.482   5.560   2.695  1.1627  0.9353 -0.9727
  329MOL0     H44359   1.627   5.514   2.791  0.5727 -0.1967 -2.2040
  329MOL0     H44360   1.339   5.559   2.896 -1.2334 -1.7101  1.9523
  329MOL0     H44361   1.410   5.403   2.883  0.9972 -0.0157  0.1462
  329MOL0     H44362   1.446   5.610   3.073 -0.5378 -2.5846  3.0976
  329MOL0     H44363   1.604   5.560   3.026  1.3371 -2.0914  1.9659
  329MOL0     H44364   1.565   5.332   3.077  0.5218  2.3722 -3.7323
  329MOL0     H44365   1.545   5.442   3.214  1.3771  0.5908 -1.6000
  329MOL0     H44366   1.281   5.533   3.228  1.7343 -0.1131 -2.7513
  329MOL0     H44367   1.019   5.491   3.278  2.1440 -0.6214 -3.8520
  329MOL0     H44368   0.947   5.338   3.256  0.2886 -0.7120 -0.5546
  329MOL0     H44369   1.111   5.274   3.467 -0.3695 -1.2199 -1.9686
  329MOL0     H44370   1.072   5.444   3.498  2.5464 -2.4111  1.7679
  329MOL0     H44371   0.910   5.255   3.601 -2.1625 -1.1060  0.3569
  329MOL0     H44372   0.836   5.260   3.438  2.9894  0.5146 -1.4266
  329MOL0     H44373   0.730   5.415   3.610  0.3919 -3.1337 -1.8132
  329MOL0     H44374   0.776   5.496   3.461 -0.0873 -2.9691 -1.6730
  329MOL0     H44375   1.010   5.726   3.779  0.8997  3.1170 -2.5664
  329MOL0     H44376   0.938   5.929   3.844  2.5557 -0.0135 -2.6478
  329MOL0     H44377   0.809   6.303   3.623  0.3710  0.4256 -0.0612
  329MOL0     H44378   0.795   6.543   3.637  1.6263  1.2034  1.2634
  329MOL0     H44379   0.680   6.724   4.009 -1.5144  0.4424 -2.1326
  329MOL0     H44380   0.867   6.748   3.995 -1.3781  0.5611  1.2492
  329MOL0     H44381   0.820   6.923   3.831  1.0219 -0.2645  0.2388
  329MOL0     H44382   0.644   6.909   3.856 -0.6717  0.6149  2.0711
  329MOL0     H44383   0.653   7.066   4.007  2.3330  4.2400 -3.3188
  329MOL0     H44384   0.740   6.957   4.120  2.6028  1.8445  0.2484
  329MOL0     H44385   0.874   7.188   3.968  1.4228 -0.2829  0.4458
  329MOL0     H44386   0.952   7.038   4.003  0.1186  0.2829  0.0519
  329MOL0     H44387   0.873   7.071   4.239  1.1498 -0.8277  0.1725
  329MOL0     H44388   0.805   7.220   4.202  2.2633  1.5377  0.6353
  329MOL0     H44389   1.087   7.178   4.120  0.6168 -0.2111  0.9942
  329MOL0     H44390   0.998   7.317   4.092  0.4108 -2.7699 -2.4091
  329MOL0     H44391   1.130   7.307   4.315 -0.6733  0.4961 -1.7018
  329MOL0     H44392   0.993   7.204   4.372  0.1295 -0.6137 -0.2933
  329MOL0     H44393   0.977   7.487   4.249  1.2331 -0.8355 -1.9294
  329MOL0     H44394   0.838   7.383   4.322  0.6088 -3.2760  3.1305
  329MOL0     H44395   0.741   6.505   4.067 -0.4259  1.1951 -0.6695
  329MOL0     H44396   0.738   6.261   4.040  0.7896 -2.6034 -0.4302
  329MOL0     H44397   0.564   5.865   3.634  1.6351  3.6287 -0.6405
  329MOL0     H44398   0.653   5.653   3.547  0.3910 -0.6593 -0.2825
  329MOL0     H44399   1.855   5.879   2.286 -0.1290  0.9415 -3.4388
  329MOL0     H44400   1.991   6.011   2.127  1.9495 -1.5439  1.5037
  329MOL0     H44401   2.148   6.294   1.845 -0.1964 -0.3651 -0.2047
  329MOL0     H44402   2.350   6.391   1.774 -3.9773 -0.5873 -2.6869
  329MOL0     H44403   2.510   6.539   1.698 -2.2024 -0.0789  0.2450
  329MOL0     H44404   2.629   6.525   1.832  0.2012  0.5958  0.0922
  329MOL0     H44405   2.681   6.689   1.637  0.9479  1.6827  0.2853
  329MOL0     H44406   2.695   6.753   1.800  0.8099  1.9027 -2.0034
  329MOL0     H44407   2.480   6.877   1.769 -0.1875  0.7754 -1.0697
  329MOL0     H44408   2.446   6.773   1.637 -2.1775  1.3089  1.2544
  329MOL0     H44409   2.571   7.029   1.659  3.8839  1.2644 -1.7182
  329MOL0     H44410   2.712   6.935   1.637  0.5945  0.6964  1.2744
  329MOL0     H44411   2.522   6.969   1.255 -0.6720  3.0257 -0.5009
  329MOL0     H44412   2.278   6.729   2.048 -1.3804 -0.6054  2.8229
  329MOL0     H44413   2.020   6.706   2.146 -0.9729 -0.6476  0.2173
  329MOL0     H44414   2.034   6.552   2.239 -2.5166  0.8031 -1.2008
  329MOL0     H44415   2.161   6.675   2.241 -1.5709  1.0234  0.4858
  330MOL0     O44416   8.413   7.240   8.290  0.4100  0.7904  0.1695
  330MOL0     C44417   8.401   7.364   8.289 -0.4014  0.8317 -0.9619
  330MOL0     O44418   8.303   7.432   8.360 -0.2146 -0.4028 -0.2246
  330MOL0     C44419   8.183   7.373   8.381  0.1892 -0.3218 -0.5080
  330MOL0     C44420   8.089   7.343   8.278  0.2271  0.1741  0.1191
  330MOL0     C44421   7.970   7.273   8.313 -0.0182  0.7434  0.1830
  330MOL0     C44422   7.941   7.227   8.445  0.5250  0.8925  0.7434
  330MOL0     O44423   7.819   7.166   8.459 -1.1053  0.2176  0.3084
  330MOL0     C44424   7.764   7.185   8.593  1.2726  0.3465  0.1243
  330MOL0     C44425   7.727   7.330   8.631  0.2198  0.4497 -0.6487
  330MOL0     C44426   7.716   7.357   8.786 -0.6037 -0.0920  0.5463
  330MOL0     C44427   7.595   7.284   8.853  0.6106  0.7125  0.0836
  330MOL0     C44428   7.454   7.347   8.825  0.5264 -0.7054  0.4745
  330MOL0     C44429   7.370   7.264   8.736  0.5349  0.5097 -0.2242
  330MOL0     C44430   7.262   7.353   8.666  0.4411  0.0655  0.0683
  330MOL0     C44431   7.325   7.448   8.557 -0.5034 -0.6000  0.2993
  330MOL0     N44432   7.316   7.409   8.416 -0.7269  0.9694 -0.0734
  330MOL0     C44433   7.369   7.286   8.379  0.0365  0.0504  0.1364
  330MOL0     C44434   7.354   7.281   8.239 -0.9674  0.4042  0.0304
  330MOL0     C44435   7.415   7.182   8.146 -0.6256 -0.0056  0.2295
  330MOL0     C44436   7.572   7.175   8.139 -0.5897  0.2252 -0.3049
  330MOL0     C44437   7.622   7.039   8.096 -0.2118  0.0144 -0.4568
  330MOL0     C44438   7.777   7.023   8.116  0.1512  0.3120  0.1748
  330MOL0     O44439   7.817   6.889   8.078  0.3458 -0.7835  0.0493
  330MOL0     C44440   7.949   6.862   8.083 -0.7203 -0.5422  0.4138
  330MOL0     C44441   8.051   6.936   8.138  0.2030  0.3731 -0.4128
  330MOL0     C44442   8.184   6.886   8.132  0.2079 -0.3369 -0.2981
  330MOL0     C44443   8.219   6.767   8.069 -0.2315  0.6109  0.3927
  330MOL0     C44444   8.355   6.733   8.050 -1.4823 -0.2065 -1.0850
  330MOL0     O44445   8.457   6.817   8.108 -0.0370  0.5272  0.5047
  330MOL0     C44446   8.591   6.800   8.075  0.2244 -0.6976  0.2654
  330MOL0     C44447   8.651   6.744   7.956 -0.5809 -0.1879  0.1254
  330MOL0     C44448   8.783   6.757   7.926 -1.0455  0.0269  0.4535
  330MOL0     C44449   8.867   6.833   8.009  1.0275  0.2264 -0.8548
  330MOL0     O44450   9.004   6.841   7.996  0.0916 -0.1276 -0.6657
  330MOL0     C44451   9.043   6.912   7.883 -0.0916 -0.0064  1.1378
  330MOL0     C44452   9.186   6.965   7.878 -0.3606 -0.0082  0.6038
  330MOL0     C44453   9.202   7.062   8.000 -0.0353 -0.6179  0.3638
  330MOL0     C44454   9.347   7.083   8.025 -0.1958 -0.5409 -0.3153
  330MOL0     C44455   9.390   7.202   8.117 -0.5637 -0.5639 -0.1932
  330MOL0     C44456   9.332   7.340   8.105  0.3692  0.8986 -0.1403
  330MOL0     C44457   9.350   7.400   7.962  0.2300  0.2446  0.4331
  330MOL0     C44458   9.292   7.547   7.948 -0.4155 -0.7446  0.0175
  330MOL0    Cl44459   9.102   7.550   7.944 -0.0224  0.0822  0.0015
  330MOL0     C44460   8.810   6.889   8.122 -0.3926 -0.0696 -0.4145
  330MOL0     C44461   8.674   6.867   8.163 -0.3560  0.2286 -0.6532
  330MOL0     O44462   8.373   6.654   7.961 -0.8021  0.4365 -0.9520
  330MOL0     C44463   8.115   6.693   8.016  0.0692 -0.2055  0.3965
  330MOL0     C44464   7.987   6.738   8.007  0.1309 -0.1918 -0.1639
  330MOL0     N44465   7.255   7.374   8.200 -0.6688  0.5045  0.0727
  330MOL0     N44466   7.243   7.451   8.306 -0.2848 -0.0990 -0.0707
  330MOL0     C44467   8.035   7.256   8.545  0.0763  0.8628 -0.4572
  330MOL0     C44468   8.159   7.313   8.505  0.1289 -0.4656 -0.0275
  330MOL0     C44469   8.523   7.451   8.255  0.4325  0.0172  0.3273
  330MOL0     C44470   8.505   7.588   8.277 -0.2191  0.0875  0.5367
  330MOL0     C44471   8.618   7.676   8.255 -0.0885 -0.7303  1.3460
  330MOL0     C44472   8.742   7.631   8.222 -0.2486 -0.6834  0.5500
  330MOL0     O44473   8.857   7.702   8.205  0.3243  0.0272 -0.7176
  330MOL0     C44474   8.852   7.837   8.141 -0.3932 -0.1073 -0.2393
  330MOL0     C44475   8.832   7.805   7.993  0.9158 -0.4326  0.6895
  330MOL0     C44476   8.818   7.937   7.907 -0.0843 -0.1234  0.0060
  330MOL0     C44477   8.754   7.915   7.767  0.1867 -0.3475 -0.2888
  330MOL0     C44478   8.792   7.794   7.694  0.1907 -0.2514 -1.2227
  330MOL0     C44479   8.837   7.704   7.628 -0.1983 -0.2418 -0.5131
  330MOL0     C44480   8.755   7.491   8.203  0.1878  0.8504 -0.8429
  330MOL0     C44481   8.648   7.401   8.214 -0.9091 -0.0969 -0.3828
  330MOL0     C44482   8.678   7.260   8.184  0.6937  0.4980  0.1314
  330MOL0     H44483   8.103   7.376   8.176 -2.3171  2.2988  0.3720
  330MOL0     H44484   7.895   7.258   8.236 -1.3902  2.5089  1.0879
  330MOL0     H44485   7.668   7.131   8.594  1.2881  0.2398 -1.2485
  330MOL0     H44486   7.828   7.137   8.667  0.9567  3.8727  2.9794
  330MOL0     H44487   7.633   7.349   8.579 -0.6155 -0.8123  0.3597
  330MOL0     H44488   7.795   7.399   8.579  0.5595 -0.0648 -0.8921
  330MOL0     H44489   7.710   7.466   8.785  2.1143  0.1262  0.7730
  330MOL0     H44490   7.800   7.326   8.849  0.1046 -1.3015 -0.9265
  330MOL0     H44491   7.592   7.177   8.828  1.8914 -0.2874  3.5521
  330MOL0     H44492   7.619   7.278   8.959  2.9355 -2.4881 -0.4648
  330MOL0     H44493   7.395   7.374   8.913  1.9056 -1.3276  1.6455
  330MOL0     H44494   7.473   7.441   8.772  3.0967  0.2727  2.8179
  330MOL0     H44495   7.433   7.219   8.658 -0.7179 -0.8148 -0.4948
  330MOL0     H44496   7.314   7.186   8.787  0.2329  1.6985  1.3312
  330MOL0     H44497   7.212   7.419   8.738  2.8999  2.3809 -0.1900
  330MOL0     H44498   7.178   7.293   8.631  1.8141 -2.4995  0.8516
  330MOL0     H44499   7.273   7.544   8.555 -0.5294 -0.6196  0.0372
  330MOL0     H44500   7.430   7.476   8.569 -0.1640 -1.0554 -1.3762
  330MOL0     H44501   7.426   7.216   8.438  1.4464 -2.1586 -3.4920
  330MOL0     H44502   7.378   7.083   8.173 -1.1147  0.0802 -0.1062
  330MOL0     H44503   7.371   7.201   8.048 -0.6062 -0.5864  0.1094
  330MOL0     H44504   7.597   7.252   8.065  0.1990  0.7987  0.5307
  330MOL0     H44505   7.617   7.213   8.232  1.8535 -1.3872 -0.7389
  330MOL0     H44506   7.598   7.038   7.989 -0.4719  3.3232 -0.5453
  330MOL0     H44507   7.575   6.957   8.151 -0.3479  0.4007  0.0048
  330MOL0     H44508   7.793   7.042   8.223  2.1500  1.0722 -0.2039
  330MOL0     H44509   7.835   7.095   8.058 -0.9714 -0.5513 -2.1091
  330MOL0     H44510   8.040   7.033   8.186 -1.1900 -1.1667  2.6091
  330MOL0     H44511   8.263   6.947   8.176 -1.8820  1.1149  1.7338
  330MOL0     H44512   8.596   6.684   7.884  0.4719 -0.2252 -0.6650
  330MOL0     H44513   8.822   6.719   7.832 -2.8313 -2.9162  0.7781
  330MOL0     H44514   9.021   6.848   7.797 -1.8285  0.4145  1.2502
  330MOL0     H44515   8.978   6.999   7.877  1.0184  0.7456 -2.0818
  330MOL0     H44516   9.253   6.880   7.892 -2.1763 -1.4032  1.2558
  330MOL0     H44517   9.189   7.021   7.784  0.0106 -2.2280 -0.7711
  330MOL0     H44518   9.156   7.159   7.982 -0.0140 -0.6123  0.3399
  330MOL0     H44519   9.156   7.024   8.092 -0.7134  2.6282  1.5132
  330MOL0     H44520   9.381   7.102   7.923 -1.8595  0.4257 -0.7473
  330MOL0     H44521   9.397   6.991   8.056 -1.7629 -1.0919  0.6744
  330MOL0     H44522   9.499   7.211   8.105 -0.7751 -0.4898 -2.3919
  330MOL0     H44523   9.359   7.163   8.214 -0.6340 -3.4165 -1.2464
  330MOL0     H44524   9.225   7.347   8.127  0.5181  0.8782  0.5949
  330MOL0     H44525   9.379   7.406   8.178 -1.9346 -0.2309  2.5197
  330MOL0     H44526   9.303   7.342   7.882  0.2832  3.3861 -2.0368
  330MOL0     H44527   9.455   7.391   7.933 -0.2371  0.0983 -1.3254
  330MOL0     H44528   9.340   7.607   8.026 -0.9342 -0.6354  0.2562
  330MOL0     H44529   9.329   7.586   7.853 -2.1751  3.6917  0.8964
  330MOL0     H44530   8.872   6.943   8.192  1.5239  0.8712 -2.7184
  330MOL0     H44531   8.639   6.907   8.258 -1.7875  2.1087 -1.8954
  330MOL0     H44532   8.147   6.601   7.970  1.5357  0.7980 -0.6742
  330MOL0     H44533   7.909   6.682   7.958 -0.5440  0.3912  0.2115
  330MOL0     H44534   8.022   7.227   8.648 -2.0495  0.3672 -0.8176
  330MOL0     H44535   8.232   7.319   8.586  1.3193  1.7886 -1.1836
  330MOL0     H44536   8.410   7.628   8.309 -0.7230 -1.7915  1.5209
  330MOL0     H44537   8.614   7.781   8.281  2.7325 -0.2352  0.0989
  330MOL0     H44538   8.935   7.904   8.162  0.4495 -1.5468  1.1697
  330MOL0     H44539   8.767   7.896   8.178 -0.3724 -0.6870  0.7571
  330MOL0     H44540   8.738   7.748   7.988 -0.6471  1.7313  2.8958
  330MOL0     H44541   8.924   7.754   7.966  1.1658  0.1874  0.3432
  330MOL0     H44542   8.914   7.981   7.881 -1.9459  3.3856 -1.7173
  330MOL0     H44543   8.760   8.017   7.953  2.3346  2.8225 -1.6699
  330MOL0     H44544   8.645   7.918   7.771 -0.0411 -2.9746 -1.9463
  330MOL0     H44545   8.770   7.997   7.696  2.9146 -0.7592 -0.2659
  330MOL0     H44546   8.877   7.620   7.573  1.4610  0.8511 -1.0584
  330MOL0     H44547   8.853   7.459   8.167  0.7803  1.1093  0.4965
  330MOL0     H44548   8.775   7.255   8.135  0.2631 -2.4594 -0.6460
  330MOL0     H44549   8.668   7.193   8.270  1.2932 -0.2409 -0.3690
  330MOL0     H44550   8.601   7.226   8.114 -1.3199  0.3902  2.2594
  331MOL0     O44551   4.123   3.404   8.942  0.2168  0.0960 -0.1008
  331MOL0     C44552   4.196   3.375   9.043  0.8115 -0.3334  0.7259
  331MOL0     O44553   4.186   3.254   9.115 -0.1109  0.7872 -0.1972
  331MOL0     C44554   4.094   3.168   9.060 -0.4979 -0.9698 -0.6081
  331MOL0     C44555   3.968   3.162   9.109  0.9620  0.8305  0.0630
  331MOL0     C44556   3.876   3.073   9.054  0.3375 -0.5999 -0.6676
  331MOL0     C44557   3.919   2.984   8.950  0.6430  0.4890  0.0952
  331MOL0     O44558   3.832   2.885   8.899  0.1335 -0.1749 -0.5581
  331MOL0     C44559   3.696   2.884   8.949  0.0038 -0.2304  0.4198
  331MOL0     C44560   3.612   2.775   8.878  0.0572 -0.0148  0.1435
  331MOL0     C44561   3.662   2.631   8.883  0.6318 -0.5373 -0.3238
  331MOL0     C44562   3.582   2.535   8.804  1.3900 -0.3816  0.4936
  331MOL0     C44563   3.637   2.393   8.791  0.2674  0.7779  0.0482
  331MOL0     C44564   3.767   2.389   8.697  0.2713  0.1754  0.1929
  331MOL0     C44565   3.829   2.251   8.682  0.2106  0.1310 -0.1768
  331MOL0     C44566   3.904   2.240   8.556 -1.0924  0.1624 -1.1666
  331MOL0     N44567   3.863   2.128   8.465 -0.1106 -0.9490 -0.8454
  331MOL0     C44568   3.868   2.134   8.316 -0.0978  0.1172 -0.1982
  331MOL0     C44569   3.788   2.029   8.278 -0.9149  0.3035 -1.0301
  331MOL0     C44570   3.754   2.013   8.127  0.0999 -0.1658 -0.7155
  331MOL0     C44571   3.603   2.022   8.114 -0.4878 -1.1741 -0.3651
  331MOL0     C44572   3.551   2.030   7.968  0.1325 -0.2653 -0.8025
  331MOL0     C44573   3.545   1.903   7.888  0.2837 -0.3490 -0.8814
  331MOL0     O44574   3.519   1.802   7.982 -0.5119  0.0142  0.3858
  331MOL0     C44575   3.443   1.705   7.931  0.6542 -0.0070 -0.2841
  331MOL0     C44576   3.319   1.691   7.988  0.3906  0.3667  0.0580
  331MOL0     C44577   3.231   1.594   7.944  0.7587  0.1585  0.2205
  331MOL0     C44578   3.264   1.505   7.839 -0.4336 -0.5688  0.1461
  331MOL0     C44579   3.164   1.413   7.782 -0.7213  0.5247 -0.3196
  331MOL0     O44580   3.193   1.365   7.657  1.1079  0.5450  0.8246
  331MOL0     C44581   3.124   1.259   7.594  0.4507 -0.0262  0.6279
  331MOL0     C44582   3.135   1.240   7.455  0.1220 -1.0703 -0.1637
  331MOL0     C44583   3.086   1.123   7.375 -0.3370 -0.7558 -0.1481
  331MOL0     C44584   3.007   1.034   7.457 -0.2744 -0.4153  0.6851
  331MOL0     O44585   2.942   0.917   7.408  0.0904 -1.2227 -0.1648
  331MOL0     C44586   2.943   0.905   7.269 -0.2800 -0.4370  0.1019
  331MOL0     C44587   2.872   0.765   7.249  0.1558  0.1849 -0.5305
  331MOL0     C44588   2.890   0.709   7.109 -0.8875  0.3305 -0.7563
  331MOL0     C44589   2.831   0.577   7.070 -0.7939 -0.3523  0.5408
  331MOL0     C44590   2.676   0.577   7.106  0.5420 -0.3351  0.2986
  331MOL0     C44591   2.605   0.457   7.038 -0.5992 -0.3501  0.6364
  331MOL0     C44592   2.443   0.474   7.051 -0.4899  0.4791 -0.0590
  331MOL0     C44593   2.371   0.340   7.030 -0.0031 -0.7713 -0.2810
  331MOL0    Cl44594   2.366   0.240   7.184 -0.3769 -0.1363  0.8027
  331MOL0     C44595   2.995   1.055   7.597  0.4110  0.5503  0.2120
  331MOL0     C44596   3.053   1.161   7.658 -0.5731  0.1260 -0.7946
  331MOL0     O44597   3.064   1.383   7.851 -0.1827  0.6051  0.4090
  331MOL0     C44598   3.392   1.514   7.777  0.2821 -0.1285 -0.4270
  331MOL0     C44599   3.482   1.616   7.827 -0.0942 -0.4126  0.2170
  331MOL0     N44600   3.745   1.956   8.402  0.9713  0.5058  0.6676
  331MOL0     N44601   3.776   2.029   8.505  0.0557  0.2582 -0.6783
  331MOL0     C44602   4.055   2.977   8.915  0.0246  0.1791 -0.1460
  331MOL0     C44603   4.152   3.073   8.967  0.2441 -0.1918 -0.0178
  331MOL0     C44604   4.300   3.469   9.078  0.2156 -0.9010 -0.4478
  331MOL0     C44605   4.289   3.601   9.031 -0.0383  0.2584  0.3894
  331MOL0     C44606   4.392   3.697   9.058  0.0781 -0.7759 -0.0824
  331MOL0     C44607   4.482   3.669   9.160  0.8173  0.6845  0.3977
  331MOL0     O44608   4.582   3.761   9.181 -0.0282 -0.8790  0.5509
  331MOL0     C44609   4.709   3.713   9.124  0.1870  0.2740  0.7007
  331MOL0     C44610   4.700   3.715   8.969 -0.1704 -0.5722  0.2274
  331MOL0     C44611   4.845   3.715   8.900  0.3080  1.3781 -0.7431
  331MOL0     C44612   4.830   3.697   8.742 -0.4250 -0.1414 -0.0113
  331MOL0     C44613   4.826   3.559   8.700  0.1067 -0.6863  0.7012
  331MOL0     C44614   4.812   3.452   8.651 -0.4281 -0.3063  0.0436
  331MOL0     C44615   4.480   3.540   9.220  0.3349 -0.1476  0.0865
  331MOL0     C44616   4.396   3.436   9.173 -0.2167  0.4393  1.8336
  331MOL0     C44617   4.443   3.302   9.213  0.8020  0.2655 -0.3622
  331MOL0     H44618   3.927   3.229   9.183 -1.4671 -0.5095  0.0564
  331MOL0     H44619   3.773   3.083   9.086  0.2413  2.2942 -1.5515
  331MOL0     H44620   3.678   2.850   9.052 -0.9674  1.2715  0.7683
  331MOL0     H44621   3.645   2.979   8.933 -0.6835 -0.9023 -1.6923
  331MOL0     H44622   3.602   2.811   8.775  1.5623 -1.6051 -0.6155
  331MOL0     H44623   3.518   2.778   8.933 -0.3220 -0.8997 -0.4349
  331MOL0     H44624   3.656   2.599   8.987 -3.8488 -1.0601 -0.5658
  331MOL0     H44625   3.764   2.630   8.843 -0.0937 -1.6719 -2.3093
  331MOL0     H44626   3.485   2.533   8.855  1.3740  0.7875  0.5284
  331MOL0     H44627   3.564   2.565   8.701 -2.0882  1.2078  1.4027
  331MOL0     H44628   3.658   2.366   8.895 -0.6991 -1.5668 -0.3018
  331MOL0     H44629   3.565   2.317   8.759  0.2882  0.0440  1.6328
  331MOL0     H44630   3.724   2.436   8.608  1.2905 -2.7694 -1.9998
  331MOL0     H44631   3.838   2.460   8.741  1.8319 -0.2727 -1.4941
  331MOL0     H44632   3.761   2.165   8.687  0.0464  0.1887 -1.1581
  331MOL0     H44633   3.897   2.235   8.766 -1.4947 -2.6420  0.8189
  331MOL0     H44634   3.896   2.333   8.498 -3.7376 -0.5093 -2.0371
  331MOL0     H44635   4.011   2.234   8.575 -1.2713  0.1349 -0.1387
  331MOL0     H44636   3.923   2.211   8.262 -0.6604 -0.3722 -1.4990
  331MOL0     H44637   3.817   2.083   8.071 -0.3714  1.6265  0.8835
  331MOL0     H44638   3.767   1.908   8.097  0.1068 -0.4344  0.2081
  331MOL0     H44639   3.557   1.938   8.168  4.4408 -4.2366 -0.2836
  331MOL0     H44640   3.564   2.108   8.169  2.3122  0.0032 -0.0073
  331MOL0     H44641   3.612   2.098   7.908 -0.6997  0.7807 -0.4744
  331MOL0     H44642   3.452   2.074   7.958  0.7290  1.2665 -0.3223
  331MOL0     H44643   3.633   1.892   7.824  0.5969 -3.6032 -0.0716
  331MOL0     H44644   3.460   1.913   7.820  0.0060  0.9255 -0.3797
  331MOL0     H44645   3.300   1.746   8.079  3.5326  0.3317  0.8654
  331MOL0     H44646   3.130   1.588   7.984  0.1984 -0.1950 -1.1688
  331MOL0     H44647   3.185   1.318   7.399  0.0477 -1.4888 -0.8243
  331MOL0     H44648   3.100   1.111   7.269  3.0397  0.3076  0.0882
  331MOL0     H44649   2.903   0.989   7.211 -0.8968 -0.9037 -0.1601
  331MOL0     H44650   3.045   0.894   7.230  0.3613 -2.5112  2.1498
  331MOL0     H44651   2.922   0.698   7.319 -0.6705  1.2910  1.1750
  331MOL0     H44652   2.766   0.779   7.273  0.6419  2.5890  0.5280
  331MOL0     H44653   2.849   0.791   7.049  0.0688  2.7461  1.6740
  331MOL0     H44654   2.997   0.706   7.087 -0.8093  1.2836 -0.5442
  331MOL0     H44655   2.872   0.499   7.135  1.2312 -1.0668 -1.4686
  331MOL0     H44656   2.854   0.550   6.967 -1.7050 -2.6486  0.8839
  331MOL0     H44657   2.631   0.665   7.058  1.3945 -0.2304 -0.3341
  331MOL0     H44658   2.658   0.577   7.214 -0.1744 -0.4535  0.1861
  331MOL0     H44659   2.632   0.442   6.933 -0.6874 -0.8153  0.6780
  331MOL0     H44660   2.631   0.367   7.093  1.7128  0.5427  1.1209
  331MOL0     H44661   2.425   0.545   6.969  2.3378 -0.6115 -1.7833
  331MOL0     H44662   2.424   0.510   7.152  0.0917 -2.6123  1.2615
  331MOL0     H44663   2.269   0.364   7.001  0.7757 -0.3912 -2.9236
  331MOL0     H44664   2.423   0.289   6.948 -0.5399  0.6800 -1.5766
  331MOL0     H44665   2.946   0.982   7.660  0.8027 -0.6575 -0.8407
  331MOL0     H44666   3.059   1.165   7.766  0.5432 -0.5886 -0.8058
  331MOL0     H44667   3.422   1.441   7.703  1.8242 -0.3802  0.4062
  331MOL0     H44668   3.579   1.620   7.780 -0.0377  0.8500  0.4037
  331MOL0     H44669   4.087   2.899   8.847 -1.2406 -0.3083 -0.2208
  331MOL0     H44670   4.253   3.061   8.929 -0.6588 -2.4781 -1.9926
  331MOL0     H44671   4.205   3.634   8.971  1.0270  1.6385 -0.4221
  331MOL0     H44672   4.404   3.786   8.996  1.0798 -2.9639 -3.2979
  331MOL0     H44673   4.732   3.614   9.165  1.7596 -0.0162 -0.7843
  331MOL0     H44674   4.780   3.784   9.166 -1.3272  0.9808  2.1928
  331MOL0     H44675   4.641   3.799   8.933  0.9195  1.2793  2.4828
  331MOL0     H44676   4.648   3.623   8.940 -1.9837  0.9273 -1.5690
  331MOL0     H44677   4.911   3.636   8.936 -1.6192  0.1815  0.3307
  331MOL0     H44678   4.899   3.810   8.913  0.6035  1.1507 -0.3049
  331MOL0     H44679   4.742   3.754   8.711 -1.5281 -1.1600  1.1327
  331MOL0     H44680   4.917   3.747   8.698  1.6241 -3.3129  0.1051
  331MOL0     H44681   4.792   3.367   8.588  1.7262 -0.4481 -0.5193
  331MOL0     H44682   4.547   3.526   9.304  0.7909  2.0683  0.1522
  331MOL0     H44683   4.503   3.257   9.132  0.9310  0.5830 -0.4426
  331MOL0     H44684   4.506   3.311   9.301 -0.4411 -2.2592  0.9083
  331MOL0     H44685   4.371   3.234   9.260  1.0292 -0.8795 -1.5806
  332MOL0     O44686   3.021   0.223   3.303 -0.3071 -0.3833  0.2313
  332MOL0     C44687   3.104   0.227   3.213  0.1016  0.6123 -0.0096
  332MOL0     O44688   3.155   0.114   3.154 -0.9632 -0.4637  0.1615
  332MOL0     C44689   3.092  -0.005   3.182  0.5529  0.6970 -0.1441
  332MOL0     C44690   2.953  -0.030   3.172 -0.3009  1.0837  0.5259
  332MOL0     C44691   2.901  -0.146   3.237 -0.6201  0.1091  0.5809
  332MOL0     C44692   2.981  -0.237   3.312 -0.6731  0.5675  0.3252
  332MOL0     O44693   2.939  -0.351   3.381 -0.6861 -1.1000 -0.0944
  332MOL0     C44694   2.800  -0.327   3.434 -0.1306 -0.3764  0.6375
  332MOL0     C44695   2.731  -0.460   3.429  0.9569  0.4335  0.0534
  332MOL0     C44696   2.733  -0.524   3.297 -0.2981 -0.4509 -0.1236
  332MOL0     C44697   2.658  -0.663   3.301 -0.4020 -0.2959 -0.4228
  332MOL0     C44698   2.617  -0.697   3.158 -0.1299 -0.1626  0.4071
  332MOL0     C44699   2.495  -0.795   3.175 -0.4607 -0.6800  0.5567
  332MOL0     C44700   2.440  -0.842   3.037 -1.0110 -0.2632  0.5142
  332MOL0     C44701   2.340  -0.949   3.055 -0.1426 -0.0088 -0.5264
  332MOL0     N44702   2.217  -0.885   3.114  0.0000 -0.5276 -0.3884
  332MOL0     C44703   2.134  -0.798   3.049  0.3589  0.2277 -0.7303
  332MOL0     C44704   2.012  -0.816   3.115  0.0233  0.2021 -0.0006
  332MOL0     C44705   1.880  -0.745   3.085 -0.1173 -0.0782 -0.1499
  332MOL0     C44706   1.772  -0.815   3.162  0.2368 -0.1188 -0.0060
  332MOL0     C44707   1.656  -0.728   3.188  0.1978 -0.8983 -1.2509
  332MOL0     C44708   1.535  -0.813   3.240  1.0238  0.6665 -0.2636
  332MOL0     O44709   1.483  -0.889   3.127  0.5372  1.2865  0.0857
  332MOL0     C44710   1.396  -0.996   3.149 -0.2822 -0.5955  0.2738
  332MOL0     C44711   1.407  -1.103   3.062 -0.0746 -0.3802  0.2625
  332MOL0     C44712   1.324  -1.209   3.073 -0.0283  0.7839 -0.2753
  332MOL0     C44713   1.231  -1.218   3.180  0.1229  0.0424  0.8893
  332MOL0     C44714   1.158  -1.341   3.198 -1.1849 -0.3041  0.0761
  332MOL0     O44715   1.113  -1.363   3.324 -0.3573 -0.5064 -0.8646
  332MOL0     C44716   1.111  -1.483   3.384  0.2594  1.3530  0.7764
  332MOL0     C44717   1.195  -1.514   3.480  0.0465 -0.5969 -0.7648
  332MOL0     C44718   1.187  -1.643   3.541 -0.4515  0.4933  0.0944
  332MOL0     C44719   1.083  -1.732   3.522  0.6008  0.4909  0.3513
  332MOL0     O44720   1.087  -1.846   3.590 -0.4135 -1.0497  0.2579
  332MOL0     C44721   1.106  -1.959   3.506  0.1770  0.1271 -0.7283
  332MOL0     C44722   1.252  -1.978   3.487  0.4526 -1.1042 -0.0554
  332MOL0     C44723   1.246  -2.103   3.398 -0.3317 -0.5415  0.1446
  332MOL0     C44724   1.390  -2.143   3.354  0.3501 -0.0620  0.0248
  332MOL0     C44725   1.382  -2.236   3.226  0.3158 -0.2701  0.2287
  332MOL0     C44726   1.488  -2.355   3.212 -0.4295 -0.1619  0.4063
  332MOL0     C44727   1.466  -2.427   3.077  0.2452  0.5563 -0.0850
  332MOL0     C44728   1.528  -2.561   3.078 -1.1143  0.1618  0.7457
  332MOL0    Cl44729   1.468  -2.663   3.225  0.1052  0.1075  0.3401
  332MOL0     C44730   0.983  -1.686   3.431 -0.2019 -0.3119  0.2379
  332MOL0     C44731   0.998  -1.564   3.364 -0.9291 -0.3459  0.3875
  332MOL0     O44732   1.166  -1.428   3.110  0.0070 -0.4967  0.7331
  332MOL0     C44733   1.217  -1.105   3.269 -0.2703 -0.1748  0.8392
  332MOL0     C44734   1.300  -0.992   3.253 -0.1575 -1.1539  0.4104
  332MOL0     N44735   2.022  -0.919   3.213 -0.2738 -0.2784 -0.2190
  332MOL0     N44736   2.143  -0.960   3.203  0.0245 -0.5485  0.0525
  332MOL0     C44737   3.119  -0.192   3.324  0.7275  0.2828 -0.6026
  332MOL0     C44738   3.173  -0.088   3.262  0.1644 -0.6588 -0.0974
  332MOL0     C44739   3.160   0.360   3.180  1.3345  0.2999 -0.0348
  332MOL0     C44740   3.072   0.467   3.163 -0.0830  0.3474  0.4618
  332MOL0     C44741   3.126   0.589   3.123  0.1455  0.3777  0.2343
  332MOL0     C44742   3.264   0.616   3.104 -0.1685  0.0109  0.1423
  332MOL0     O44743   3.335   0.732   3.088 -0.2291 -0.7708  0.1163
  332MOL0     C44744   3.262   0.846   3.029 -0.5598  0.6715 -0.7874
  332MOL0     C44745   3.350   0.966   3.043  0.0143 -0.1748  0.0580
  332MOL0     C44746   3.254   1.092   3.037  0.2301  1.1804 -0.6351
  332MOL0     C44747   3.331   1.218   3.090  0.3712  0.6606  0.5449
  332MOL0     C44748   3.241   1.317   3.135  0.1702  0.0937 -0.1311
  332MOL0     C44749   3.173   1.408   3.169  0.6888  0.0196  0.1283
  332MOL0     C44750   3.346   0.511   3.137 -0.2176 -0.0430 -0.2099
  332MOL0     C44751   3.296   0.381   3.178  0.3016 -0.4991  0.0418
  332MOL0     C44752   3.394   0.283   3.231  0.2115 -0.2661  0.1675
  332MOL0     H44753   2.884   0.043   3.132  0.0809  0.7164 -0.8362
  332MOL0     H44754   2.796  -0.159   3.214 -0.2345  0.0336 -1.2886
  332MOL0     H44755   2.808  -0.307   3.541 -0.4752 -0.6323  0.7124
  332MOL0     H44756   2.743  -0.238   3.404 -0.4876 -1.1455 -1.1141
  332MOL0     H44757   2.628  -0.447   3.462  0.9103 -0.6444  0.3717
  332MOL0     H44758   2.774  -0.526   3.505 -0.0534 -2.1466 -1.4632
  332MOL0     H44759   2.837  -0.549   3.274  0.4777 -0.7855  3.1543
  332MOL0     H44760   2.691  -0.456   3.223 -1.5945 -1.7056 -0.5844
  332MOL0     H44761   2.707  -0.747   3.352 -2.9065 -0.7853  1.3652
  332MOL0     H44762   2.569  -0.649   3.364 -0.1947 -2.5474  0.4691
  332MOL0     H44763   2.575  -0.613   3.101 -1.9799 -0.4609  1.2486
  332MOL0     H44764   2.697  -0.747   3.103  1.0603  3.3367 -1.3202
  332MOL0     H44765   2.528  -0.884   3.229  0.4083 -0.6034  0.1650
  332MOL0     H44766   2.418  -0.749   3.238  2.1321 -0.7668  4.1236
  332MOL0     H44767   2.525  -0.888   2.986 -0.0758 -0.0906  1.8658
  332MOL0     H44768   2.405  -0.761   2.972 -0.1943 -1.5321 -1.6069
  332MOL0     H44769   2.312  -0.989   2.957 -0.4153 -1.3978  0.1050
  332MOL0     H44770   2.373  -1.030   3.120  0.0157  0.7562  0.3611
  332MOL0     H44771   2.149  -0.737   2.960 -1.0890  1.4761 -0.1572
  332MOL0     H44772   1.886  -0.638   3.110  1.5612  0.4530 -2.4913
  332MOL0     H44773   1.864  -0.750   2.977 -0.4839 -1.6541 -0.0458
  332MOL0     H44774   1.746  -0.900   3.098 -2.1358  0.8993 -0.5108
  332MOL0     H44775   1.798  -0.841   3.265 -1.6076 -1.2775  0.2213
  332MOL0     H44776   1.615  -0.684   3.096 -0.3283  0.1995 -0.5038
  332MOL0     H44777   1.677  -0.650   3.261 -4.3456 -2.8201  2.6314
  332MOL0     H44778   1.453  -0.748   3.270  1.4713  1.3840 -0.5629
  332MOL0     H44779   1.564  -0.872   3.327  1.6897 -0.1879 -1.0366
  332MOL0     H44780   1.489  -1.087   2.992  0.4752 -1.1420  0.7214
  332MOL0     H44781   1.343  -1.287   2.999  0.4767  1.6702 -1.0987
  332MOL0     H44782   1.272  -1.442   3.508 -1.7278  0.3192  2.2120
  332MOL0     H44783   1.256  -1.677   3.617 -0.9130  0.6203  0.5749
  332MOL0     H44784   1.060  -2.040   3.564 -0.7032  0.2607 -1.2148
  332MOL0     H44785   1.057  -1.949   3.409  0.7297  1.5304 -0.8893
  332MOL0     H44786   1.294  -1.895   3.431 -1.6923  2.2240  2.8417
  332MOL0     H44787   1.312  -2.003   3.576  3.9147  1.4522 -1.4202
  332MOL0     H44788   1.213  -2.189   3.457 -1.5643  1.4896  2.6357
  332MOL0     H44789   1.185  -2.079   3.310 -1.2909  1.4790  1.2874
  332MOL0     H44790   1.444  -2.195   3.433  0.4425  1.7385  1.2001
  332MOL0     H44791   1.449  -2.054   3.329 -0.6185 -0.2338 -3.4465
  332MOL0     H44792   1.386  -2.179   3.133  1.6121 -0.5348  0.1066
  332MOL0     H44793   1.286  -2.289   3.231  1.5569 -2.5349  2.7140
  332MOL0     H44794   1.586  -2.307   3.219 -0.5880 -0.0529  3.1931
  332MOL0     H44795   1.473  -2.421   3.298  0.8731 -0.9074  0.0958
  332MOL0     H44796   1.499  -2.367   2.991  2.2320  1.1207  1.0042
  332MOL0     H44797   1.359  -2.445   3.070  0.6702 -2.2670 -0.6260
  332MOL0     H44798   1.504  -2.608   2.982 -0.1882  2.1245 -0.5088
  332MOL0     H44799   1.636  -2.548   3.091 -0.3145  0.5595 -4.2280
  332MOL0     H44800   0.902  -1.757   3.415 -0.6118  0.1859  0.1075
  332MOL0     H44801   0.930  -1.534   3.285 -3.2005 -3.7133  0.8467
  332MOL0     H44802   1.154  -1.103   3.357  0.2245 -0.9079  1.2156
  332MOL0     H44803   1.300  -0.919   3.333  0.0259  1.1838 -1.6199
  332MOL0     H44804   3.200  -0.240   3.379  2.6307  0.3154 -3.1899
  332MOL0     H44805   3.280  -0.072   3.272  0.2569 -0.7289 -0.9057
  332MOL0     H44806   2.964   0.458   3.167 -0.1109  0.4542  0.0448
  332MOL0     H44807   3.054   0.668   3.102 -3.2592 -2.5174  0.1359
  332MOL0     H44808   3.164   0.860   3.076 -1.2820 -2.2592 -1.2204
  332MOL0     H44809   3.246   0.824   2.923  2.7588 -4.9989 -0.5144
  332MOL0     H44810   3.434   0.985   2.976  0.0473  3.2040  0.8669
  332MOL0     H44811   3.390   0.967   3.145  0.3047 -1.8466 -0.0228
  332MOL0     H44812   3.171   1.077   3.106 -0.2805  4.1106 -0.4761
  332MOL0     H44813   3.231   1.123   2.934 -0.0306  2.0042 -0.3335
  332MOL0     H44814   3.403   1.197   3.169  0.0706  0.1302  0.6780
  332MOL0     H44815   3.374   1.263   2.999 -0.4263  1.4180  0.5245
  332MOL0     H44816   3.125   1.500   3.194 -3.7382 -2.5009  2.2551
  332MOL0     H44817   3.448   0.549   3.144  0.9490 -2.2052 -3.4393
  332MOL0     H44818   3.496   0.321   3.230  0.0218  0.2697  0.4326
  332MOL0     H44819   3.367   0.258   3.335  2.8055  0.1946  1.0176
  332MOL0     H44820   3.404   0.188   3.177 -1.8505 -1.1312  1.1545
  333MOL0     O44821   4.676   4.044  10.431 -0.3451 -0.2173  0.4528
  333MOL0     C44822   4.665   3.941  10.364  0.8850 -0.1453 -0.8008
  333MOL0     O44823   4.568   3.919  10.271  0.6125 -0.7477  0.2828
  333MOL0     C44824   4.487   4.028  10.247  0.3852 -0.1548  0.5077
  333MOL0     C44825   4.344   4.026  10.264  0.6397  0.6724  0.9328
  333MOL0     C44826   4.260   4.120  10.207 -0.0528  0.9133  0.3228
  333MOL0     C44827   4.317   4.232  10.159 -0.3126 -0.3188  0.3428
  333MOL0     O44828   4.226   4.327  10.114 -0.1382  0.1496  0.9852
  333MOL0     C44829   4.224   4.368   9.974 -0.7120 -0.1011  0.8911
  333MOL0     C44830   4.076   4.386   9.949  0.2593  0.4346 -0.1418
  333MOL0     C44831   4.058   4.445   9.807 -0.3578  0.1040  0.1258
  333MOL0     C44832   3.911   4.419   9.767 -1.2816 -0.0766 -0.1819
  333MOL0     C44833   3.899   4.391   9.622  0.0767 -0.0304  0.1537
  333MOL0     C44834   3.750   4.387   9.580  0.5927  0.6270 -0.9091
  333MOL0     C44835   3.726   4.361   9.435  0.2321  0.4945  0.1092
  333MOL0     C44836   3.606   4.267   9.417 -0.2533  0.0289  0.8846
  333MOL0     N44837   3.584   4.243   9.270 -0.5028 -0.7382 -0.0689
  333MOL0     C44838   3.482   4.303   9.194 -0.0758 -0.3265  0.6995
  333MOL0     C44839   3.461   4.212   9.086  0.1002 -0.4237  0.3648
  333MOL0     C44840   3.351   4.231   8.990 -0.4640  0.1360  0.4203
  333MOL0     C44841   3.207   4.217   9.047  0.1637  0.5969 -0.0703
  333MOL0     C44842   3.101   4.179   8.935  0.2125  0.2919  0.2782
  333MOL0     C44843   2.965   4.135   9.003 -0.2608 -0.7752 -0.4684
  333MOL0     O44844   2.912   4.248   9.075 -0.4879  0.1579  0.0541
  333MOL0     C44845   2.789   4.241   9.133  0.5256  0.3004  0.8328
  333MOL0     C44846   2.761   4.322   9.244 -0.1171  0.8271 -0.2544
  333MOL0     C44847   2.627   4.316   9.303 -0.7265  0.4315  0.0360
  333MOL0     C44848   2.533   4.223   9.255 -0.4426  0.2701  0.4264
  333MOL0     C44849   2.401   4.218   9.321 -0.0579  0.3571 -0.1089
  333MOL0     O44850   2.337   4.099   9.321 -0.1770  0.2251 -0.0726
  333MOL0     C44851   2.209   4.086   9.360  0.7852  0.7781 -0.6729
  333MOL0     C44852   2.121   3.993   9.296  0.3878  0.8126  0.4178
  333MOL0     C44853   1.999   3.959   9.365  0.0966  0.1361  0.4639
  333MOL0     C44854   1.973   4.007   9.495  0.5828 -0.4873  0.1485
  333MOL0     O44855   1.873   3.978   9.585 -0.5332  0.1942 -0.4287
  333MOL0     C44856   1.806   3.857   9.558  0.2895  0.4674  0.8563
  333MOL0     C44857   1.692   3.866   9.657  0.0484 -0.6436  0.3093
  333MOL0     C44858   1.609   3.739   9.675 -0.5796 -0.0354 -0.2262
  333MOL0     C44859   1.478   3.769   9.736  0.2102 -0.0258 -0.1708
  333MOL0     C44860   1.387   3.643   9.754 -0.1597 -0.2203  0.0467
  333MOL0     C44861   1.258   3.671   9.846  0.6475  0.5057 -1.2699
  333MOL0     C44862   1.156   3.569   9.819  0.5518  0.3115 -0.1526
  333MOL0     C44863   1.073   3.545   9.942 -0.7335 -0.6048  0.5699
  333MOL0    Cl44864   0.958   3.678   9.954  0.3529 -0.4258 -0.3090
  333MOL0     C44865   2.060   4.098   9.555 -1.3754 -0.2674  0.5194
  333MOL0     C44866   2.181   4.122   9.490  0.4020  0.0436  0.0037
  333MOL0     O44867   2.351   4.323   9.359  0.5656 -1.1107  0.2572
  333MOL0     C44868   2.565   4.147   9.141  0.7022 -0.2608 -0.1997
  333MOL0     C44869   2.683   4.159   9.081 -0.6465 -0.1255  0.9176
  333MOL0     N44870   3.545   4.104   9.104 -0.5393  0.4357 -0.4961
  333MOL0     N44871   3.613   4.124   9.210 -0.3472  0.0206 -0.9512
  333MOL0     C44872   4.452   4.245  10.146  0.3447  0.6312 -0.0193
  333MOL0     C44873   4.541   4.139  10.185 -0.7564 -1.2677  1.6765
  333MOL0     C44874   4.765   3.834  10.376 -0.6820 -0.5010  0.0575
  333MOL0     C44875   4.816   3.778  10.256  0.3359  0.0280 -0.1618
  333MOL0     C44876   4.890   3.667  10.246 -1.0822 -0.5935 -0.0267
  333MOL0     C44877   4.934   3.607  10.363  0.1067  0.4461 -0.9432
  333MOL0     O44878   5.014   3.494  10.363  0.5247 -0.6983  0.8065
  333MOL0     C44879   5.147   3.521  10.318 -0.2583 -0.1380  0.0302
  333MOL0     C44880   5.232   3.399  10.343 -0.3346 -0.0120  1.0547
  333MOL0     C44881   5.215   3.345  10.488 -0.4704  0.2258  0.2716
  333MOL0     C44882   5.279   3.435  10.600  0.2193 -0.0526 -0.3509
  333MOL0     C44883   5.263   3.384  10.732  0.0997  0.5527 -1.7303
  333MOL0     C44884   5.257   3.356  10.847  0.3965 -0.0486 -0.0202
  333MOL0     C44885   4.888   3.647  10.491  0.3915  0.9964 -1.0193
  333MOL0     C44886   4.810   3.765  10.497  0.7819  0.2693 -0.3669
  333MOL0     C44887   4.745   3.822  10.625 -0.5704  0.2671  0.3922
  333MOL0     H44888   4.309   3.927  10.292  2.6112 -0.3869 -0.0482
  333MOL0     H44889   4.152   4.108  10.198 -0.1811  3.2962 -4.1081
  333MOL0     H44890   4.282   4.461   9.970  3.3195 -2.0848  4.3242
  333MOL0     H44891   4.267   4.291   9.911  3.4807  0.9667  2.0936
  333MOL0     H44892   4.019   4.451  10.017 -1.2394 -1.6392  0.6799
  333MOL0     H44893   4.025   4.291   9.964 -1.8319  1.4713 -0.3495
  333MOL0     H44894   4.131   4.398   9.740 -0.6068  1.6597 -1.2904
  333MOL0     H44895   4.090   4.550   9.810  2.9716 -0.7808  2.1969
  333MOL0     H44896   3.862   4.331   9.810 -2.4885 -0.2604 -1.8107
  333MOL0     H44897   3.855   4.511   9.785 -2.0782 -0.5086 -0.4163
  333MOL0     H44898   3.931   4.478   9.563 -0.3853  1.1601  1.6037
  333MOL0     H44899   3.948   4.301   9.582 -3.8987 -2.2682 -0.2451
  333MOL0     H44900   3.708   4.305   9.638  2.1517  1.1747  1.1133
  333MOL0     H44901   3.700   4.475   9.619  1.0010  0.2754  0.4501
  333MOL0     H44902   3.823   4.322   9.401  0.2877  1.4661 -0.8729
  333MOL0     H44903   3.692   4.440   9.368 -3.7504  0.5865  1.9479
  333MOL0     H44904   3.628   4.170   9.462 -4.1812 -1.6383 -0.3316
  333MOL0     H44905   3.521   4.315   9.466 -0.4739  1.9784 -1.2439
  333MOL0     H44906   3.412   4.384   9.209 -0.4311 -0.3224 -0.8217
  333MOL0     H44907   3.351   4.329   8.941 -1.1685 -1.1627 -2.4166
  333MOL0     H44908   3.371   4.175   8.898 -3.4875  0.2650 -0.4406
  333MOL0     H44909   3.200   4.139   9.123 -1.9070  0.1021 -0.6982
  333MOL0     H44910   3.174   4.308   9.097 -4.3735 -0.9442  0.2027
  333MOL0     H44911   3.140   4.098   8.872  2.8542  4.3330 -3.9292
  333MOL0     H44912   3.098   4.263   8.866  4.1311  0.4272  0.0279
  333MOL0     H44913   2.978   4.043   9.062  0.1555 -1.3816 -1.4815
  333MOL0     H44914   2.900   4.113   8.918 -1.2098 -0.0731  0.0487
  333MOL0     H44915   2.835   4.392   9.281 -0.5706  1.2368 -0.1170
  333MOL0     H44916   2.596   4.375   9.388 -1.2859  1.3087 -0.7498
  333MOL0     H44917   2.130   3.955   9.195  0.8993 -1.3042  1.2094
  333MOL0     H44918   1.930   3.886   9.325  1.5823  0.0206 -2.1430
  333MOL0     H44919   1.774   3.841   9.455  1.1286 -2.0886  0.9112
  333MOL0     H44920   1.858   3.767   9.593 -3.0326 -0.2370  4.7469
  333MOL0     H44921   1.738   3.903   9.749  1.6899 -1.5472 -0.1006
  333MOL0     H44922   1.617   3.939   9.624 -1.7091 -3.1199 -1.6500
  333MOL0     H44923   1.609   3.694   9.575 -2.0854  0.0540 -0.2895
  333MOL0     H44924   1.663   3.671   9.742 -2.4194 -3.4626 -1.9171
  333MOL0     H44925   1.427   3.849   9.681 -1.2922 -2.4051 -2.4689
  333MOL0     H44926   1.490   3.810   9.837 -1.1771  1.4961 -0.5898
  333MOL0     H44927   1.446   3.569   9.809 -0.4280  0.4192  1.2286
  333MOL0     H44928   1.363   3.595   9.658  1.3990 -1.0555  0.0382
  333MOL0     H44929   1.304   3.662   9.945 -0.4020  0.2863 -0.7890
  333MOL0     H44930   1.214   3.770   9.832 -1.1282 -0.2214 -1.1093
  333MOL0     H44931   1.207   3.474   9.802 -1.6991 -0.9240 -0.4275
  333MOL0     H44932   1.089   3.590   9.734 -1.6567 -1.6319  0.9779
  333MOL0     H44933   1.032   3.444   9.944 -0.2755 -0.8806  4.3742
  333MOL0     H44934   1.127   3.558  10.037 -0.0850  1.5014 -0.0406
  333MOL0     H44935   2.060   4.123   9.660 -0.1274 -1.8246  0.9368
  333MOL0     H44936   2.258   4.179   9.541  0.1021 -0.4720  1.0650
  333MOL0     H44937   2.486   4.080   9.109 -1.3730  1.6314  0.6774
  333MOL0     H44938   2.707   4.091   9.000 -1.6114  3.4421 -2.7124
  333MOL0     H44939   4.495   4.340  10.116 -0.2429  1.9836  3.0633
  333MOL0     H44940   4.644   4.159  10.159 -0.9015 -1.3361  1.0330
  333MOL0     H44941   4.773   3.809  10.162  2.7076  1.8120 -0.7627
  333MOL0     H44942   4.931   3.618  10.158  1.1761 -1.9881  1.7200
  333MOL0     H44943   5.204   3.594  10.377 -0.6663 -1.9202  2.8584
  333MOL0     H44944   5.145   3.546  10.212  5.3979  3.6663  0.3971
  333MOL0     H44945   5.336   3.430  10.325 -0.4145 -1.7867 -3.6126
  333MOL0     H44946   5.209   3.326  10.266  2.9423 -0.1923  0.0750
  333MOL0     H44947   5.278   3.256  10.490  2.0614  1.9302  2.3510
  333MOL0     H44948   5.110   3.317  10.506 -1.1642  1.8615 -1.0209
  333MOL0     H44949   5.379   3.463  10.567  0.3565  0.3253  0.3608
  333MOL0     H44950   5.225   3.530  10.602  0.8483  0.3105 -0.3680
  333MOL0     H44951   5.252   3.331  10.951 -0.3247 -0.6255 -0.1858
  333MOL0     H44952   4.915   3.588  10.579 -0.5695 -0.9139 -1.9295
  333MOL0     H44953   4.807   3.907  10.655 -0.1881  0.0314  0.2796
  333MOL0     H44954   4.641   3.854  10.622 -1.3196 -2.0174 -1.0537
  333MOL0     H44955   4.746   3.746  10.704 -2.4145  0.8066  0.9766
  334MOL0     O44956   7.709   0.031   3.941  1.0429  0.0799 -0.3672
  334MOL0     C44957   7.714  -0.085   3.908 -0.1615 -1.6864 -0.6903
  334MOL0     O44958   7.683  -0.133   3.792 -0.3857  0.3091  0.0872
  334MOL0     C44959   7.690  -0.047   3.684 -0.8063  0.6785 -1.0650
  334MOL0     C44960   7.577  -0.001   3.623 -0.8272  0.2968  0.1242
  334MOL0     C44961   7.577   0.085   3.508  0.5067 -0.0095 -0.1960
  334MOL0     C44962   7.706   0.124   3.452 -0.6505 -0.2918 -0.0789
  334MOL0     O44963   7.729   0.218   3.348  0.9971  0.0679  0.1933
  334MOL0     C44964   7.606   0.256   3.273 -0.9789  0.7511  0.2852
  334MOL0     C44965   7.564   0.151   3.163  0.6351 -0.0250  0.7890
  334MOL0     C44966   7.480   0.209   3.049  0.6681  0.2618 -0.0148
  334MOL0     C44967   7.336   0.244   3.101  0.2605  0.4756 -0.1722
  334MOL0     C44968   7.259   0.341   3.003 -0.3518 -0.1487  0.4469
  334MOL0     C44969   7.120   0.346   3.046  0.8007 -0.2641  0.6470
  334MOL0     C44970   7.027   0.428   2.949 -0.3475 -0.4834 -0.2108
  334MOL0     C44971   6.876   0.391   2.964  0.4716 -0.9029  0.4593
  334MOL0     N44972   6.811   0.451   3.085 -0.1859 -0.0773 -0.0340
  334MOL0     C44973   6.723   0.388   3.166  0.7095  0.1754 -0.0174
  334MOL0     C44974   6.698   0.475   3.271 -0.6847 -0.1337  0.7224
  334MOL0     C44975   6.614   0.434   3.384  0.6352 -0.0254 -0.0130
  334MOL0     C44976   6.472   0.495   3.344 -0.2504 -0.3733 -0.9631
  334MOL0     C44977   6.459   0.625   3.406  0.8680 -0.9537  0.5255
  334MOL0     C44978   6.307   0.662   3.399  0.6651 -0.7846  0.6196
  334MOL0     O44979   6.223   0.592   3.495  0.0026  0.0238 -1.2177
  334MOL0     C44980   6.177   0.665   3.605 -1.1300  0.0414  0.2375
  334MOL0     C44981   6.208   0.636   3.732 -0.6637  0.0376  1.0135
  334MOL0     C44982   6.169   0.721   3.843  0.2054  0.8771 -0.9381
  334MOL0     C44983   6.094   0.832   3.824  0.3763 -0.4834  0.1528
  334MOL0     C44984   6.047   0.925   3.934 -0.6635 -0.2672  0.0988
  334MOL0     O44985   5.943   1.006   3.896 -0.4582  0.0133 -0.3496
  334MOL0     C44986   5.917   1.130   3.957 -0.3661 -0.5938  0.1309
  334MOL0     C44987   6.008   1.198   4.043  0.3591 -0.0331 -0.3630
  334MOL0     C44988   5.987   1.326   4.085  0.3123 -0.2594 -1.0550
  334MOL0     C44989   5.864   1.393   4.066 -0.4699 -0.1096  0.2181
  334MOL0     O44990   5.841   1.517   4.119  0.7760  0.2742 -0.0342
  334MOL0     C44991   5.703   1.564   4.127 -1.3730 -0.5441  0.5046
  334MOL0     C44992   5.682   1.678   4.223  0.1486 -0.2348 -0.7170
  334MOL0     C44993   5.727   1.644   4.375  0.0912  0.3306  0.5592
  334MOL0     C44994   5.738   1.766   4.464 -0.2653 -0.2867  0.3467
  334MOL0     C44995   5.597   1.813   4.497  0.7484  0.4925  0.1226
  334MOL0     C44996   5.525   1.720   4.602 -0.7348 -0.6212  0.3111
  334MOL0     C44997   5.576   1.736   4.746  0.1071  0.3624 -0.5536
  334MOL0     C44998   5.512   1.648   4.851  0.9466  0.2623  0.6958
  334MOL0    Cl44999   5.328   1.628   4.844 -0.5008  0.0954  0.6516
  334MOL0     C45000   5.770   1.331   3.978 -0.5251 -0.4518 -1.3924
  334MOL0     C45001   5.796   1.194   3.930 -0.1034  0.3998  0.2852
  334MOL0     O45002   6.100   0.907   4.041  0.7486 -0.2127 -0.1850
  334MOL0     C45003   6.054   0.857   3.688  0.1448  1.1249 -0.3660
  334MOL0     C45004   6.095   0.768   3.580  0.0685 -0.5249 -0.6604
  334MOL0     N45005   6.772   0.593   3.242 -0.4856 -0.4421  0.5334
  334MOL0     N45006   6.840   0.577   3.133  0.2235  0.0819 -0.3848
  334MOL0     C45007   7.822   0.072   3.519  1.1239 -0.3483 -0.0721
  334MOL0     C45008   7.817  -0.017   3.625 -0.5820  0.6241 -0.2307
  334MOL0     C45009   7.732  -0.173   4.031  0.0148 -0.1294 -0.0344
  334MOL0     C45010   7.858  -0.189   4.088  1.0076  0.5270 -0.5113
  334MOL0     C45011   7.889  -0.298   4.175 -0.2410 -0.7395  0.0068
  334MOL0     C45012   7.786  -0.376   4.234  0.1262  0.1397 -0.0329
  334MOL0     O45013   7.826  -0.476   4.317  0.0122  0.2436  0.4852
  334MOL0     C45014   7.742  -0.590   4.340 -0.2082 -1.0757  0.0334
  334MOL0     C45015   7.822  -0.717   4.336  0.0814  0.4648  0.7603
  334MOL0     C45016   7.730  -0.830   4.379 -0.4757  0.5922  0.4481
  334MOL0     C45017   7.808  -0.962   4.340 -1.2499 -0.2064  0.4982
  334MOL0     C45018   7.748  -1.078   4.416  0.4879  0.1227  0.5525
  334MOL0     C45019   7.704  -1.186   4.460  0.0194  0.7303  0.0487
  334MOL0     C45020   7.652  -0.341   4.184  0.5706  0.5717 -0.0248
  334MOL0     C45021   7.625  -0.240   4.081  0.7247  0.5058 -0.4965
  334MOL0     C45022   7.474  -0.209   4.038 -1.0496  0.4187 -0.3562
  334MOL0     H45023   7.479  -0.043   3.646 -1.3004  0.8123 -0.8934
  334MOL0     H45024   7.483   0.118   3.463  0.4560  2.3702  1.4433
  334MOL0     H45025   7.529   0.285   3.346  1.4568 -0.0766  3.3893
  334MOL0     H45026   7.628   0.346   3.214 -1.1243  0.3046 -0.4596
  334MOL0     H45027   7.499   0.076   3.208  1.1583 -0.3113  1.0787
  334MOL0     H45028   7.652   0.096   3.130 -1.4313 -2.3701 -1.2550
  334MOL0     H45029   7.474   0.142   2.962 -2.0521 -3.0127  2.3895
  334MOL0     H45030   7.526   0.302   3.016 -3.3290  1.2492 -3.8215
  334MOL0     H45031   7.270   0.162   3.131  0.1988  0.3139 -0.7374
  334MOL0     H45032   7.354   0.310   3.186  1.3215 -0.0395  0.0075
  334MOL0     H45033   7.315   0.435   3.008 -0.8406  0.3379 -2.0080
  334MOL0     H45034   7.256   0.293   2.905 -1.5784  1.1698 -0.1955
  334MOL0     H45035   7.073   0.248   3.061 -0.4116  0.0959 -0.6025
  334MOL0     H45036   7.130   0.393   3.144  0.5184  2.2020 -0.4342
  334MOL0     H45037   7.071   0.434   2.849  0.1534  2.9194  0.0937
  334MOL0     H45038   7.037   0.532   2.983  5.4682 -0.8254  0.1177
  334MOL0     H45039   6.839   0.432   2.870  0.9668 -0.2410  0.5421
  334MOL0     H45040   6.877   0.282   2.962  1.6088 -0.9039 -0.5615
  334MOL0     H45041   6.693   0.286   3.143 -1.5243  0.2900  2.0028
  334MOL0     H45042   6.603   0.326   3.367  2.2241 -0.7117  2.6403
  334MOL0     H45043   6.647   0.448   3.487  1.8083 -2.2818 -0.0243
  334MOL0     H45044   6.451   0.493   3.237  1.6552 -1.3924 -1.3712
  334MOL0     H45045   6.391   0.434   3.384 -2.9720  2.8808 -1.1490
  334MOL0     H45046   6.519   0.693   3.346  1.8062 -1.9002  0.3507
  334MOL0     H45047   6.489   0.627   3.511 -0.9171  1.7459  1.0930
  334MOL0     H45048   6.270   0.656   3.296  1.1304  2.1415  0.2075
  334MOL0     H45049   6.296   0.770   3.407  0.9981 -0.6327 -0.6944
  334MOL0     H45050   6.290   0.566   3.742  0.6846  1.1238 -1.5298
  334MOL0     H45051   6.200   0.697   3.944  0.1543  2.0048 -0.6380
  334MOL0     H45052   6.096   1.144   4.077 -1.0925 -0.1313  3.9231
  334MOL0     H45053   6.060   1.380   4.144  0.7495 -2.1671  0.2495
  334MOL0     H45054   5.683   1.604   4.027  2.0495  0.8644  0.2205
  334MOL0     H45055   5.643   1.478   4.157 -3.0057 -0.0591 -1.1181
  334MOL0     H45056   5.732   1.774   4.204  1.6015 -1.2568 -2.2752
  334MOL0     H45057   5.573   1.690   4.218  0.2632  2.1715  0.7074
  334MOL0     H45058   5.663   1.561   4.405  0.2377 -0.9195 -2.2761
  334MOL0     H45059   5.828   1.604   4.368 -0.1367 -0.4184  1.4033
  334MOL0     H45060   5.804   1.848   4.434  0.2531 -1.0525 -0.6872
  334MOL0     H45061   5.781   1.726   4.556 -0.4458 -3.0649 -0.6889
  334MOL0     H45062   5.532   1.807   4.409  2.7369 -0.9027 -1.3831
  334MOL0     H45063   5.600   1.909   4.547 -0.3157  0.4990  0.1914
  334MOL0     H45064   5.419   1.746   4.597 -1.2712 -1.8162  3.4914
  334MOL0     H45065   5.532   1.617   4.564 -0.3276 -1.5094  2.6285
  334MOL0     H45066   5.560   1.841   4.774 -2.6431  0.6814 -2.9093
  334MOL0     H45067   5.685   1.731   4.757  0.2683  3.3432  0.0428
  334MOL0     H45068   5.545   1.546   4.830  1.8689  0.8852 -1.1043
  334MOL0     H45069   5.545   1.685   4.948  0.6158  3.0020 -0.1384
  334MOL0     H45070   5.670   1.371   3.965 -0.3333  0.4296 -0.2351
  334MOL0     H45071   5.712   1.155   3.873 -1.4122  3.6092 -0.2136
  334MOL0     H45072   6.000   0.945   3.653  2.2280  2.2377 -0.9638
  334MOL0     H45073   6.056   0.788   3.481 -4.7388 -1.5813  0.7522
  334MOL0     H45074   7.913   0.108   3.472  0.1012 -0.2766 -2.1174
  334MOL0     H45075   7.915  -0.050   3.660 -0.4920  0.7549 -0.3552
  334MOL0     H45076   7.949  -0.139   4.057  0.6092  1.8337  0.3151
  334MOL0     H45077   7.988  -0.309   4.216  0.2594  1.1911 -0.5786
  334MOL0     H45078   7.668  -0.590   4.259 -1.9102  1.0037  1.4758
  334MOL0     H45079   7.687  -0.588   4.435 -0.4889 -1.8546 -0.1041
  334MOL0     H45080   7.909  -0.719   4.403  0.0988 -1.1775  0.7310
  334MOL0     H45081   7.864  -0.751   4.241  1.4431 -0.4747  1.6451
  334MOL0     H45082   7.631  -0.825   4.332  0.7242  3.2760 -2.1156
  334MOL0     H45083   7.728  -0.834   4.489 -0.2736 -1.1213  0.4157
  334MOL0     H45084   7.794  -0.971   4.232 -2.6100  2.7107  0.3442
  334MOL0     H45085   7.916  -0.962   4.362 -1.2376  2.8719  0.8365
  334MOL0     H45086   7.669  -1.270   4.516  0.4406  0.3036 -0.3184
  334MOL0     H45087   7.565  -0.390   4.226  0.5347  1.0301  0.4317
  334MOL0     H45088   7.470  -0.142   3.952 -3.1928 -0.6790 -1.2144
  334MOL0     H45089   7.429  -0.308   4.021  0.0501  0.0661 -1.3645
  334MOL0     H45090   7.425  -0.169   4.127 -1.8229 -2.0066  0.3938
  335MOL0     O45091   0.759   7.761  11.461 -0.4106 -0.0596  0.2241
  335MOL0     C45092   0.815   7.673  11.393  0.6241  0.5940  0.4420
  335MOL0     O45093   0.909   7.698  11.299  0.1465  0.8414  0.1192
  335MOL0     C45094   0.916   7.829  11.249  0.0713 -0.0116  0.0357
  335MOL0     C45095   0.865   7.870  11.125  0.0193 -0.1620  0.2050
  335MOL0     C45096   0.885   7.996  11.068  0.3053  0.6889 -0.6734
  335MOL0     C45097   0.961   8.081  11.149 -0.1870  0.6668 -0.3947
  335MOL0     O45098   0.964   8.215  11.126  0.5357  0.1498  0.0609
  335MOL0     C45099   0.858   8.285  11.057 -1.1361  0.5007 -0.3825
  335MOL0     C45100   0.891   8.433  11.045  0.7429  0.1565  0.9838
  335MOL0     C45101   0.871   8.484  10.899 -0.3441  0.0689  0.2201
  335MOL0     C45102   0.897   8.635  10.884  0.5572  0.2179 -0.1100
  335MOL0     C45103   0.865   8.695  10.742 -0.1958 -0.0890  0.7725
  335MOL0     C45104   0.956   8.640  10.626 -1.1145  0.5766 -0.2941
  335MOL0     C45105   0.936   8.724  10.494 -0.5615  0.0535  0.2349
  335MOL0     C45106   0.952   8.627  10.367 -0.7410  0.4555 -1.1245
  335MOL0     N45107   1.083   8.558  10.381 -0.0294 -0.6160 -0.4286
  335MOL0     C45108   1.108   8.419  10.386 -0.3160 -1.0381 -0.8125
  335MOL0     C45109   1.243   8.409  10.375 -0.3249  0.9000 -0.1512
  335MOL0     C45110   1.319   8.279  10.397 -0.1771  0.3807 -0.5806
  335MOL0     C45111   1.357   8.216  10.263  0.8504  0.7494 -0.1755
  335MOL0     C45112   1.503   8.165  10.230 -0.0100  0.2580  0.0127
  335MOL0     C45113   1.579   8.111  10.359 -0.6230 -0.1882  0.1532
  335MOL0     O45114   1.503   8.027  10.443  0.1471 -0.8379 -1.0699
  335MOL0     C45115   1.432   7.920  10.399  0.1559 -0.0057  0.3513
  335MOL0     C45116   1.457   7.840  10.289 -0.1067 -1.0840 -0.2428
  335MOL0     C45117   1.379   7.735  10.277 -0.1803  0.7311 -0.2569
  335MOL0     C45118   1.266   7.702  10.360  0.1218  0.1499  0.7773
  335MOL0     C45119   1.179   7.593  10.325  0.0543  0.3002 -0.1255
  335MOL0     O45120   1.097   7.555  10.429  1.6430  0.4149  0.4316
  335MOL0     C45121   1.000   7.458  10.404  0.2428 -0.7405  0.2302
  335MOL0     C45122   0.921   7.452  10.284  0.3655 -0.7063 -0.5756
  335MOL0     C45123   0.824   7.354  10.281  0.0383  0.9100  0.2874
  335MOL0     C45124   0.793   7.269  10.388 -0.2517 -0.6532  1.1212
  335MOL0     O45125   0.689   7.183  10.361 -0.0200  0.0127 -0.1536
  335MOL0     C45126   0.651   7.081  10.460  0.1329  0.7938 -0.8230
  335MOL0     C45127   0.516   7.014  10.429  1.0780 -1.2438  0.2011
  335MOL0     C45128   0.402   7.120  10.463  1.3068 -0.1253  0.0072
  335MOL0     C45129   0.253   7.065  10.430  0.2222  0.7801  0.4165
  335MOL0     C45130   0.146   7.167  10.454 -0.2417 -0.3229  0.4919
  335MOL0     C45131  -0.001   7.122  10.411 -1.2102  0.1226 -0.9283
  335MOL0     C45132  -0.108   7.226  10.461  0.1322  0.1385  0.9011
  335MOL0     C45133  -0.252   7.195  10.423  1.3182  1.2375  0.1484
  335MOL0    Cl45134  -0.324   7.097  10.554  0.0555 -0.1254 -0.2019
  335MOL0     C45135   0.872   7.281  10.502  1.1306  0.2886  0.0246
  335MOL0     C45136   0.975   7.372  10.510 -0.1556  0.9367  0.0867
  335MOL0     O45137   1.187   7.526  10.222  0.1538  0.0028 -0.4072
  335MOL0     C45138   1.238   7.788  10.463  0.0875  0.0722  0.3441
  335MOL0     C45139   1.325   7.896  10.486  0.3266  0.9431 -0.0186
  335MOL0     N45140   1.292   8.540  10.358  0.0041 -0.1657 -0.4023
  335MOL0     N45141   1.200   8.630  10.362  0.9305 -0.1225  0.7341
  335MOL0     C45142   1.023   8.048  11.267 -0.0780  0.7334 -0.2342
  335MOL0     C45143   0.991   7.921  11.321 -0.4937 -0.5663 -0.5997
  335MOL0     C45144   0.771   7.527  11.413 -0.2039  0.6949 -0.1823
  335MOL0     C45145   0.633   7.500  11.435 -0.9306 -0.2435  0.7235
  335MOL0     C45146   0.580   7.374  11.460 -0.8537  0.3604 -0.1028
  335MOL0     C45147   0.665   7.267  11.444  0.1023 -0.6831 -0.4412
  335MOL0     O45148   0.620   7.144  11.479 -0.0439  0.4300 -0.8999
  335MOL0     C45149   0.512   7.084  11.403 -0.5910  0.5193 -0.0579
  335MOL0     C45150   0.528   7.101  11.258  0.8022 -0.5278 -0.5413
  335MOL0     C45151   0.436   7.001  11.181 -0.3767  0.1630  0.0421
  335MOL0     C45152   0.425   7.012  11.036  0.0618 -0.4645 -0.1785
  335MOL0     C45153   0.337   7.132  11.004 -1.3581  0.3785 -0.0429
  335MOL0     C45154   0.264   7.231  10.996  0.4539 -0.3101  0.8416
  335MOL0     C45155   0.800   7.291  11.422 -0.8640 -0.6189  0.2215
  335MOL0     C45156   0.861   7.418  11.403 -0.0647  0.3849 -0.3916
  335MOL0     C45157   1.015   7.423  11.393  0.1833  0.3253 -0.0171
  335MOL0     H45158   0.808   7.792  11.076  0.7268 -1.9552  2.0823
  335MOL0     H45159   0.831   8.020  10.977  0.5188  0.1981 -0.9308
  335MOL0     H45160   0.841   8.244  10.957 -1.4405  2.0788 -1.0081
  335MOL0     H45161   0.767   8.273  11.115 -0.8262 -2.0790 -0.3362
  335MOL0     H45162   0.991   8.467  11.075  1.7713 -0.0171 -1.8829
  335MOL0     H45163   0.820   8.487  11.108  2.4621  4.1266 -0.1223
  335MOL0     H45164   0.773   8.468  10.854  0.6873 -3.4562 -1.0258
  335MOL0     H45165   0.934   8.428  10.831  0.1529  0.5347  0.2843
  335MOL0     H45166   0.839   8.686  10.960 -0.0501 -0.8341  0.1566
  335MOL0     H45167   1.000   8.662  10.910  0.0443  1.5780  0.5541
  335MOL0     H45168   0.762   8.665  10.720 -1.4204  3.1900  1.4959
  335MOL0     H45169   0.880   8.803  10.748 -0.0111 -0.0858  0.3134
  335MOL0     H45170   1.063   8.638  10.650 -1.1859 -1.3823  0.0117
  335MOL0     H45171   0.941   8.533  10.610  0.0504  0.5853 -1.5848
  335MOL0     H45172   1.009   8.805  10.487  0.5373 -0.8494  0.9303
  335MOL0     H45173   0.835   8.766  10.494  0.1204  1.8146 -0.9588
  335MOL0     H45174   0.875   8.550  10.357 -0.4434 -0.1402  0.7650
  335MOL0     H45175   0.963   8.679  10.272  4.0658  1.0366 -0.4887
  335MOL0     H45176   1.045   8.333  10.403  0.0673 -1.1903 -0.1374
  335MOL0     H45177   1.406   8.299  10.459 -0.8389  0.2235  0.4150
  335MOL0     H45178   1.246   8.215  10.447  1.5144 -2.2183 -1.2693
  335MOL0     H45179   1.287   8.132  10.257  1.2111  0.2175  2.1238
  335MOL0     H45180   1.331   8.281  10.179  1.9228 -0.4509 -1.4819
  335MOL0     H45181   1.561   8.249  10.189  1.6025 -0.5178  0.6102
  335MOL0     H45182   1.478   8.090  10.155 -1.6269 -0.3187  1.0858
  335MOL0     H45183   1.617   8.189  10.425  1.1346  0.0800 -1.1232
  335MOL0     H45184   1.663   8.056  10.316 -1.7765 -1.4372 -0.5825
  335MOL0     H45185   1.539   7.865  10.223 -1.6720 -0.4127 -2.0290
  335MOL0     H45186   1.388   7.683  10.182 -2.9298 -0.2707 -0.0789
  335MOL0     H45187   0.939   7.517  10.199 -2.3712  2.2069  0.8749
  335MOL0     H45188   0.775   7.334  10.186  4.3252 -2.4661 -1.5331
  335MOL0     H45189   0.731   7.006  10.451  0.2390  0.8202 -0.1034
  335MOL0     H45190   0.644   7.125  10.560 -2.5894 -3.0081  0.9319
  335MOL0     H45191   0.526   6.985  10.324  3.3909  0.4809 -0.1480
  335MOL0     H45192   0.489   6.934  10.498 -2.4797  1.5903  2.4643
  335MOL0     H45193   0.402   7.127  10.572 -1.8826 -1.9770  0.2709
  335MOL0     H45194   0.417   7.220  10.422 -1.3148 -0.8610 -3.1971
  335MOL0     H45195   0.218   6.977  10.485 -3.7322  1.6594 -0.4055
  335MOL0     H45196   0.249   7.044  10.323  3.3182  0.2307  0.3270
  335MOL0     H45197   0.170   7.258  10.398  0.1715 -1.6436 -1.6156
  335MOL0     H45198   0.130   7.193  10.559 -0.0779  0.6723  0.2775
  335MOL0     H45199   0.004   7.110  10.302 -1.1722  1.5253 -1.1022
  335MOL0     H45200  -0.021   7.031  10.467 -3.3356  2.5025  2.5973
  335MOL0     H45201  -0.092   7.317  10.402 -1.9225  2.4146  3.5651
  335MOL0     H45202  -0.091   7.257  10.564  1.4795 -1.0409  1.0601
  335MOL0     H45203  -0.313   7.285  10.417  0.6679  0.7776 -0.3362
  335MOL0     H45204  -0.253   7.133  10.333 -0.5329 -2.4281  2.4014
  335MOL0     H45205   0.857   7.213  10.585  2.2274 -0.4043 -0.3193
  335MOL0     H45206   1.039   7.386  10.596  0.3858  0.3703 -0.2204
  335MOL0     H45207   1.145   7.775  10.517 -1.6420  2.6745 -1.7285
  335MOL0     H45208   1.300   7.966  10.564 -0.4834  1.0453 -0.3582
  335MOL0     H45209   1.081   8.120  11.324 -0.2639  0.2445  0.5799
  335MOL0     H45210   1.041   7.889  11.412  0.1362 -1.0318 -1.1039
  335MOL0     H45211   0.563   7.582  11.443 -4.5217 -2.9325 -0.5176
  335MOL0     H45212   0.476   7.357  11.486 -0.5987 -1.5879 -0.2049
  335MOL0     H45213   0.419   7.124  11.445  1.1665  3.1417  1.6431
  335MOL0     H45214   0.500   6.977  11.420 -0.9220  0.5636  0.0092
  335MOL0     H45215   0.633   7.072  11.247  1.1408 -0.1473  1.3531
  335MOL0     H45216   0.514   7.207  11.233 -1.8670 -0.3194  1.4161
  335MOL0     H45217   0.337   7.009  11.228 -1.5449  1.0280 -2.4123
  335MOL0     H45218   0.476   6.904  11.212  0.3448  0.1616 -0.8537
  335MOL0     H45219   0.527   7.030  11.000  0.0690  1.8598  0.8100
  335MOL0     H45220   0.390   6.920  10.990  1.1971 -0.6526 -0.6999
  335MOL0     H45221   0.195   7.311  10.979  0.1336 -0.8902 -0.8912
  335MOL0     H45222   0.866   7.206  11.408 -0.0399  0.3587 -2.5416
  335MOL0     H45223   1.052   7.502  11.327 -0.8719  1.5990  0.8723
  335MOL0     H45224   1.066   7.445  11.487 -2.0210  4.4641  0.4532
  335MOL0     H45225   1.038   7.324  11.351 -2.3340 -0.3923  0.1038
  336MOL0     O45226   6.057   4.187  10.103 -0.4987  0.4063  0.0087
  336MOL0     C45227   5.983   4.093  10.126  0.5304 -0.1253  0.2182
  336MOL0     O45228   5.990   3.968  10.067  0.2905  0.3049 -0.4151
  336MOL0     C45229   6.081   3.953   9.964  0.3000 -0.1726  0.4166
  336MOL0     C45230   6.049   3.955   9.834  0.0762 -0.3666 -0.0282
  336MOL0     C45231   6.145   3.953   9.741 -0.3157  0.3575 -0.2476
  336MOL0     C45232   6.282   3.933   9.777 -0.1404 -0.1464 -0.7359
  336MOL0     O45233   6.379   3.937   9.671  0.2452  0.3459  0.8016
  336MOL0     C45234   6.512   3.883   9.695  0.2540  0.8636 -0.4285
  336MOL0     C45235   6.571   3.846   9.560  0.9346  1.1570  0.4824
  336MOL0     C45236   6.700   3.774   9.603 -0.4728  0.7405  0.0627
  336MOL0     C45237   6.793   3.764   9.480  0.1013 -0.3640 -0.0349
  336MOL0     C45238   6.908   3.656   9.499 -0.0801 -0.0997 -0.5508
  336MOL0     C45239   7.015   3.680   9.605  0.9868 -0.5010 -0.5564
  336MOL0     C45240   7.095   3.802   9.582  0.2647 -1.4459  0.0193
  336MOL0     C45241   7.187   3.807   9.464 -0.2382  1.1321  0.3280
  336MOL0     N45242   7.211   3.946   9.429  0.1380  0.5109  0.6789
  336MOL0     C45243   7.325   4.012   9.455 -1.1555 -0.1645  0.4502
  336MOL0     C45244   7.297   4.130   9.398  0.9707  0.6696 -0.5607
  336MOL0     C45245   7.408   4.230   9.387 -0.7213 -0.6164 -0.0985
  336MOL0     C45246   7.540   4.184   9.311  1.0340 -0.1100 -0.6605
  336MOL0     C45247   7.516   4.162   9.166  0.0540 -0.4977  0.4609
  336MOL0     C45248   7.451   4.296   9.093 -0.1613 -0.0615 -0.0173
  336MOL0     O45249   7.453   4.285   8.945  0.0380  0.4923  0.4198
  336MOL0     C45250   7.340   4.269   8.877 -0.2282  0.5408 -0.2886
  336MOL0     C45251   7.223   4.218   8.923  0.0618  0.5447 -1.3115
  336MOL0     C45252   7.105   4.216   8.845 -0.4174  0.3231 -0.2371
  336MOL0     C45253   7.111   4.269   8.715  0.2328  0.6358 -0.5554
  336MOL0     C45254   6.982   4.308   8.653 -0.4176  1.3269  1.0684
  336MOL0     O45255   6.876   4.230   8.682 -0.1860 -0.1670 -0.2187
  336MOL0     C45256   6.754   4.245   8.620  0.7795 -0.1884  0.1226
  336MOL0     C45257   6.708   4.161   8.521  0.9420  1.4603  0.1546
  336MOL0     C45258   6.576   4.178   8.462  0.6401 -0.0779 -0.4838
  336MOL0     C45259   6.510   4.293   8.510  0.8052  0.1719 -0.2789
  336MOL0     O45260   6.382   4.315   8.472  0.4621  0.0924  0.3500
  336MOL0     C45261   6.288   4.323   8.582 -0.4750  0.0000  0.2091
  336MOL0     C45262   6.147   4.334   8.519  0.6433  0.1361  0.0084
  336MOL0     C45263   6.044   4.336   8.636  0.5680  0.2197  0.5455
  336MOL0     C45264   5.899   4.369   8.573 -0.2855 -0.2618 -0.4475
  336MOL0     C45265   5.792   4.397   8.683  1.1410 -0.5378  0.3466
  336MOL0     C45266   5.651   4.434   8.629 -0.0400 -0.2728  0.0344
  336MOL0     C45267   5.585   4.352   8.508 -0.1618 -0.8263 -0.6081
  336MOL0     C45268   5.581   4.198   8.525  0.0540  0.3600  0.0732
  336MOL0    Cl45269   5.558   4.150   8.354  0.2223  0.2612 -0.4883
  336MOL0     C45270   6.563   4.379   8.604 -0.4728 -0.7589  0.6239
  336MOL0     C45271   6.681   4.348   8.672 -0.3603 -0.8179 -0.6242
  336MOL0     O45272   6.981   4.401   8.574 -0.0266 -1.2207 -0.1978
  336MOL0     C45273   7.229   4.308   8.660  0.1104  0.8079  1.2780
  336MOL0     C45274   7.343   4.307   8.741 -0.2941  0.0000 -0.1523
  336MOL0     N45275   7.170   4.130   9.349 -0.9500 -0.1002 -0.6318
  336MOL0     N45276   7.124   4.012   9.350 -0.0730 -0.2532  0.7439
  336MOL0     C45277   6.307   3.942   9.916  0.0301  1.4262 -0.0215
  336MOL0     C45278   6.200   3.940  10.013 -0.9976  1.1537 -0.3552
  336MOL0     C45279   5.851   4.128  10.198 -0.3785 -0.2779  0.0194
  336MOL0     C45280   5.805   4.259  10.191 -0.1091 -0.3237 -0.3410
  336MOL0     C45281   5.706   4.308  10.274 -0.3429 -0.0248  0.8072
  336MOL0     C45282   5.651   4.227  10.369 -0.0701  0.0264  0.0970
  336MOL0     O45283   5.568   4.293  10.459 -0.1664 -0.2245  0.2065
  336MOL0     C45284   5.517   4.212  10.566 -0.9414 -0.2153  0.2507
  336MOL0     C45285   5.433   4.302  10.652  0.4327 -0.3628  0.0046
  336MOL0     C45286   5.383   4.261  10.790  0.1676  0.2791 -0.2195
  336MOL0     C45287   5.334   4.391  10.876  0.0491  0.4108 -0.2043
  336MOL0     C45288   5.286   4.326  10.998 -0.1787  0.0747  0.3617
  336MOL0     C45289   5.254   4.284  11.104 -1.2943  0.8404  0.6318
  336MOL0     C45290   5.695   4.093  10.383  0.1624 -0.3205 -0.2446
  336MOL0     C45291   5.784   4.037  10.290  0.3236 -0.3215 -0.3932
  336MOL0     C45292   5.847   3.907  10.319  0.0754  1.0148 -0.4231
  336MOL0     H45293   5.944   3.969   9.811  0.4205 -1.0777 -2.2806
  336MOL0     H45294   6.117   3.959   9.636  1.0839 -0.8640 -0.7253
  336MOL0     H45295   6.576   3.954   9.750  1.3856  0.2545 -0.9268
  336MOL0     H45296   6.491   3.789   9.748  0.4831  0.5146 -0.9547
  336MOL0     H45297   6.603   3.931   9.499  3.7209  0.2514  0.5226
  336MOL0     H45298   6.506   3.783   9.499  1.0450  0.9166  0.6106
  336MOL0     H45299   6.690   3.677   9.653  2.4754 -0.5889 -1.6722
  336MOL0     H45300   6.752   3.830   9.681  1.5353  2.1321 -2.1192
  336MOL0     H45301   6.730   3.742   9.393 -0.7118  0.9152  0.2034
  336MOL0     H45302   6.826   3.867   9.465 -5.4574  2.3036  2.7404
  336MOL0     H45303   6.866   3.558   9.523  1.4624 -0.7925 -0.5511
  336MOL0     H45304   6.964   3.647   9.406  1.9628  0.1003  0.6015
  336MOL0     H45305   6.958   3.699   9.696  2.6036 -3.0662  1.1329
  336MOL0     H45306   7.094   3.605   9.615  1.9516  0.4512 -0.9474
  336MOL0     H45307   7.159   3.821   9.669 -2.1427 -2.0794  2.0636
  336MOL0     H45308   7.029   3.889   9.575  1.0289 -0.7606  1.0500
  336MOL0     H45309   7.278   3.751   9.485  1.5034  3.8343  0.5106
  336MOL0     H45310   7.141   3.762   9.375  0.9584 -1.3837  0.9140
  336MOL0     H45311   7.410   3.984   9.516  0.3189 -1.1542 -1.8857
  336MOL0     H45312   7.371   4.323   9.341 -1.2824 -0.1271  1.2767
  336MOL0     H45313   7.449   4.253   9.486  3.0161 -1.0541 -1.3803
  336MOL0     H45314   7.616   4.260   9.333  0.1571  0.7815 -0.6029
  336MOL0     H45315   7.582   4.091   9.351 -2.2588 -1.0050  1.0884
  336MOL0     H45316   7.449   4.077   9.153  1.5151 -1.4887 -0.9517
  336MOL0     H45317   7.608   4.137   9.113 -0.2110  0.2782 -0.3815
  336MOL0     H45318   7.517   4.381   9.117  1.1120 -1.2953  1.0110
  336MOL0     H45319   7.354   4.333   9.127  0.1546  2.7351 -1.8234
  336MOL0     H45320   7.201   4.192   9.026 -2.5067  2.7154 -1.2128
  336MOL0     H45321   7.010   4.176   8.880  0.0476 -1.9574 -1.3708
  336MOL0     H45322   6.778   4.078   8.515  0.2441  0.9342 -1.0453
  336MOL0     H45323   6.516   4.121   8.391 -1.5502 -1.0000  1.9503
  336MOL0     H45324   6.294   4.239   8.652 -3.6763 -1.0958 -0.6613
  336MOL0     H45325   6.296   4.417   8.639 -0.1295 -0.9116  1.7150
  336MOL0     H45326   6.144   4.421   8.453 -0.0567  0.2638  0.1994
  336MOL0     H45327   6.125   4.247   8.457 -3.9946  3.4675 -3.6854
  336MOL0     H45328   6.032   4.243   8.693 -2.8038  0.2306  0.0491
  336MOL0     H45329   6.079   4.410   8.709  0.4405  1.3297 -0.4807
  336MOL0     H45330   5.868   4.283   8.513 -0.9081  0.9406 -1.9358
  336MOL0     H45331   5.916   4.457   8.510 -0.5873 -1.2455 -1.9556
  336MOL0     H45332   5.829   4.469   8.756 -1.2418  0.4795  0.6191
  336MOL0     H45333   5.775   4.307   8.743 -0.4862 -0.7541 -0.3915
  336MOL0     H45334   5.569   4.441   8.701 -0.1125 -0.2481 -0.0500
  336MOL0     H45335   5.675   4.537   8.599 -0.5345  0.3849  1.7934
  336MOL0     H45336   5.652   4.360   8.422 -1.4864 -4.7733 -2.2583
  336MOL0     H45337   5.490   4.387   8.468 -1.4444 -4.2459 -0.9451
  336MOL0     H45338   5.681   4.159   8.545 -0.0840 -0.7598 -1.2508
  336MOL0     H45339   5.504   4.170   8.598 -0.5905  3.0520  0.5372
  336MOL0     H45340   6.511   4.466   8.641 -0.6453 -0.2002 -0.8490
  336MOL0     H45341   6.714   4.413   8.754 -1.7912  0.9842 -1.4016
  336MOL0     H45342   7.235   4.343   8.558  0.5037 -4.5854 -0.8707
  336MOL0     H45343   7.439   4.348   8.712 -0.0305  2.0910  3.2025
  336MOL0     H45344   6.408   3.933   9.954  1.5040 -2.8164 -3.9560
  336MOL0     H45345   6.215   3.942  10.120 -1.9699  1.1545 -0.2063
  336MOL0     H45346   5.846   4.331  10.121 -1.3116  0.4508 -0.2713
  336MOL0     H45347   5.692   4.415  10.281 -2.6967 -0.1628 -0.7126
  336MOL0     H45348   5.599   4.179  10.630 -0.2015  0.7591 -0.1781
  336MOL0     H45349   5.451   4.130  10.536  0.7901 -1.6938  0.2848
  336MOL0     H45350   5.349   4.332  10.589  0.7484 -1.5128 -1.0249
  336MOL0     H45351   5.493   4.391  10.671  0.0855  0.2360 -1.5416
  336MOL0     H45352   5.470   4.211  10.834  0.7375  1.5380  0.1386
  336MOL0     H45353   5.305   4.186  10.774 -0.9527  1.2178  0.6143
  336MOL0     H45354   5.411   4.468  10.883 -1.0466  1.6769 -1.5006
  336MOL0     H45355   5.245   4.438  10.834  0.2212 -0.8279 -2.0754
  336MOL0     H45356   5.228   4.258  11.205 -2.8013  0.1195  0.0996
  336MOL0     H45357   5.655   4.030  10.462 -3.2350  3.4463  1.3791
  336MOL0     H45358   5.953   3.924  10.337  0.3666  0.7599 -1.8383
  336MOL0     H45359   5.802   3.857  10.406 -3.0590 -0.4302 -2.6520
  336MOL0     H45360   5.833   3.835  10.239  2.0029 -3.1283  2.5931
  337MOL0     O45361  11.440   9.353  10.043  0.3747  0.2041  0.0592
  337MOL0     C45362  11.348   9.296   9.985  0.9598 -1.4928  0.2264
  337MOL0     O45363  11.345   9.269   9.855  0.4542 -0.2780 -0.1025
  337MOL0     C45364  11.431   9.317   9.755  0.4222  0.0154  0.3356
  337MOL0     C45365  11.382   9.275   9.633  0.4055  0.8583  0.9459
  337MOL0     C45366  11.466   9.311   9.518  0.6239  0.0891 -0.4852
  337MOL0     C45367  11.588   9.369   9.519  0.1259  0.4032 -0.1764
  337MOL0     O45368  11.653   9.381   9.402  0.2697 -0.4261  0.3158
  337MOL0     C45369  11.785   9.432   9.401  0.1466  0.5358 -0.2827
  337MOL0     C45370  11.889   9.310   9.397  0.2024 -1.0610  0.1836
  337MOL0     C45371  11.849   9.196   9.297 -0.2464  0.0912  0.5217
  337MOL0     C45372  11.963   9.089   9.303 -0.2806 -0.1621  0.6754
  337MOL0     C45373  11.925   8.966   9.215  0.1459  0.5591  0.8945
  337MOL0     C45374  11.874   8.996   9.070 -0.9346  0.1547  0.2207
  337MOL0     C45375  11.828   8.861   9.015 -0.0113 -0.0898 -0.3213
  337MOL0     C45376  11.939   8.747   9.019  0.3658  0.1589  0.2862
  337MOL0     N45377  11.917   8.650   9.137  0.2736  0.7640  0.0929
  337MOL0     C45378  11.981   8.640   9.261 -0.3823  0.6326 -0.5134
  337MOL0     C45379  11.894   8.563   9.337 -0.0649 -1.5332 -0.1734
  337MOL0     C45380  11.890   8.548   9.491 -0.1249 -0.1965  0.6028
  337MOL0     C45381  11.990   8.639   9.566 -0.8392  0.3723  0.1757
  337MOL0     C45382  12.133   8.574   9.545 -0.3663  0.0629  0.2169
  337MOL0     C45383  12.250   8.639   9.618 -0.1161 -0.5594  0.4384
  337MOL0     O45384  12.291   8.757   9.540 -0.2083  0.1732 -0.0761
  337MOL0     C45385  12.418   8.798   9.558  0.6126 -0.2395 -0.8337
  337MOL0     C45386  12.528   8.740   9.498 -0.1008  0.2884  0.3957
  337MOL0     C45387  12.664   8.783   9.541 -0.3895  0.2585  0.3995
  337MOL0     C45388  12.668   8.887   9.630  0.5838  0.5899 -0.5988
  337MOL0     C45389  12.795   8.946   9.667 -0.1360 -0.6515 -0.6338
  337MOL0     O45390  12.912   8.878   9.645 -0.2791  0.2616 -0.8219
  337MOL0     C45391  13.030   8.951   9.642  0.8097  0.3626 -0.2638
  337MOL0     C45392  13.088   8.992   9.517 -0.3847 -0.7125 -1.3931
  337MOL0     C45393  13.209   9.066   9.505  0.1288 -1.1545  0.3715
  337MOL0     C45394  13.268   9.103   9.618 -0.3343 -1.5130 -0.7104
  337MOL0     O45395  13.373   9.191   9.623 -0.4239 -1.2242 -0.0477
  337MOL0     C45396  13.362   9.320   9.569 -0.3343  0.7491  1.0791
  337MOL0     C45397  13.484   9.383   9.631  0.1575 -0.2197 -0.1739
  337MOL0     C45398  13.449   9.495   9.728 -0.5320 -0.0614  0.3216
  337MOL0     C45399  13.564   9.563   9.801 -0.1731  0.0618  0.4228
  337MOL0     C45400  13.539   9.702   9.840 -0.4301 -1.2743  0.4897
  337MOL0     C45401  13.441   9.715   9.965 -0.2334 -0.3576 -0.2608
  337MOL0     C45402  13.427   9.850  10.003  0.4443  0.0880  0.6033
  337MOL0     C45403  13.340   9.846  10.129  0.4267  0.5522 -0.9697
  337MOL0    Cl45404  13.351  10.019  10.192 -0.2639 -0.1677 -0.3321
  337MOL0     C45405  13.211   9.064   9.740  0.5297 -1.0742 -0.1223
  337MOL0     C45406  13.090   8.995   9.756  0.0576  0.7379  1.0152
  337MOL0     O45407  12.797   9.061   9.705  0.1566 -0.3816 -0.4650
  337MOL0     C45408  12.558   8.949   9.681 -0.3526 -0.1884 -0.7262
  337MOL0     C45409  12.425   8.909   9.648 -0.2614  0.0492  0.7221
  337MOL0     N45410  11.790   8.517   9.253  0.4626 -0.0495  0.1086
  337MOL0     N45411  11.814   8.564   9.127 -0.5993  0.3172 -0.5201
  337MOL0     C45412  11.632   9.410   9.645 -0.1929  0.2696  1.3307
  337MOL0     C45413  11.552   9.386   9.761  0.8941 -0.9852  0.2175
  337MOL0     C45414  11.235   9.234  10.064 -0.2216  1.4757  0.1878
  337MOL0     C45415  11.200   9.107  10.022  0.3510  0.0581  0.1325
  337MOL0     C45416  11.086   9.036  10.083 -0.3944  0.0622 -0.2697
  337MOL0     C45417  11.024   9.083  10.197  0.2118 -0.0222  0.2958
  337MOL0     O45418  10.916   9.036  10.265 -0.3130 -0.0705  0.2022
  337MOL0     C45419  10.835   8.928  10.215 -0.0560 -0.4824  0.7221
  337MOL0     C45420  10.905   8.794  10.266 -0.2194  0.1416 -0.3073
  337MOL0     C45421  10.847   8.665  10.211  0.1200 -0.6767 -0.5859
  337MOL0     C45422  10.734   8.616  10.296 -0.2244 -0.2749 -0.5608
  337MOL0     C45423  10.634   8.543  10.220 -0.5893 -0.2571  0.8290
  337MOL0     C45424  10.547   8.481  10.159 -0.0704 -0.4278 -0.3906
  337MOL0     C45425  11.074   9.210  10.246  0.8534 -0.2281 -0.5028
  337MOL0     C45426  11.180   9.279  10.188  0.3016 -0.9871 -0.3589
  337MOL0     C45427  11.203   9.403  10.256  0.0960  0.4400  0.8927
  337MOL0     H45428  11.297   9.208   9.629  1.7586 -0.8971  0.8157
  337MOL0     H45429  11.424   9.296   9.419  0.0113 -1.8149  0.0075
  337MOL0     H45430  11.781   9.472   9.299 -0.5473  1.8527  0.2375
  337MOL0     H45431  11.801   9.498   9.486  2.4859  0.2808 -0.4500
  337MOL0     H45432  11.893   9.277   9.501 -1.2138  3.2156  1.8081
  337MOL0     H45433  11.987   9.348   9.369 -0.6879  0.0943 -1.5653
  337MOL0     H45434  11.839   9.247   9.201  0.0974 -1.6546 -0.4789
  337MOL0     H45435  11.752   9.152   9.324 -0.4846 -0.0186 -0.4970
  337MOL0     H45436  12.060   9.129   9.273 -0.7551  0.8510  0.4363
  337MOL0     H45437  11.971   9.049   9.405  0.0556 -1.5861  0.1186
  337MOL0     H45438  12.004   8.892   9.227 -0.5395 -0.3119  0.1619
  337MOL0     H45439  11.843   8.915   9.267  1.1262 -0.7099  1.2499
  337MOL0     H45440  11.787   9.061   9.066 -1.2022 -0.2238 -0.1879
  337MOL0     H45441  11.958   9.034   9.010  1.8309 -2.3873  2.1624
  337MOL0     H45442  11.787   8.877   8.914 -4.6149  1.3120  1.5205
  337MOL0     H45443  11.741   8.827   9.071 -0.5108 -1.4132 -1.8232
  337MOL0     H45444  11.938   8.699   8.922  0.0490  0.0702  0.3344
  337MOL0     H45445  12.033   8.804   9.026 -1.0484  2.5304  1.4685
  337MOL0     H45446  12.077   8.687   9.284  0.5312 -1.0807 -0.7021
  337MOL0     H45447  11.801   8.601   9.526  1.7111  4.8454 -1.4463
  337MOL0     H45448  11.896   8.445   9.526 -2.7326 -0.1008  1.5492
  337MOL0     H45449  11.988   8.737   9.519 -0.3421 -1.3962 -3.9185
  337MOL0     H45450  11.955   8.636   9.670 -2.6263  2.0008 -0.3243
  337MOL0     H45451  12.157   8.548   9.442  0.6980  2.2221 -0.1343
  337MOL0     H45452  12.127   8.478   9.598  1.3967  0.6860  1.6882
  337MOL0     H45453  12.329   8.564   9.629  1.5725  1.1928  0.7893
  337MOL0     H45454  12.229   8.671   9.720 -3.8609  0.0391 -0.3674
  337MOL0     H45455  12.506   8.651   9.441  0.1689  0.6160 -0.2251
  337MOL0     H45456  12.754   8.752   9.488  0.1586  2.8328 -0.2745
  337MOL0     H45457  13.034   8.974   9.424 -1.6226  1.2151 -1.1094
  337MOL0     H45458  13.232   9.110   9.409  0.0386  1.9940  1.6693
  337MOL0     H45459  13.372   9.299   9.462  2.1572 -4.4200  1.9455
  337MOL0     H45460  13.271   9.376   9.588 -1.3839 -0.9857  1.4548
  337MOL0     H45461  13.553   9.314   9.679  0.7760  1.8761  2.1953
  337MOL0     H45462  13.546   9.415   9.547 -2.0618  1.7197 -1.2105
  337MOL0     H45463  13.388   9.563   9.668  1.3668  1.3776 -0.0894
  337MOL0     H45464  13.380   9.464   9.807  1.0950  1.6039  2.5194
  337MOL0     H45465  13.650   9.566   9.733 -1.2889  0.9765 -0.9901
  337MOL0     H45466  13.602   9.495   9.879 -1.4348 -3.7872 -2.0666
  337MOL0     H45467  13.494   9.759   9.758 -2.8939  0.1625  2.6589
  337MOL0     H45468  13.633   9.751   9.864 -0.9440  0.6507 -1.1277
  337MOL0     H45469  13.346   9.671   9.934 -1.7281  1.0336  2.0818
  337MOL0     H45470  13.490   9.656  10.043  1.4711  0.2116 -0.8375
  337MOL0     H45471  13.375   9.899   9.920 -0.3731 -0.5620  0.7220
  337MOL0     H45472  13.520   9.904  10.022  0.4863  0.7146 -1.1804
  337MOL0     H45473  13.233   9.827  10.123  0.2621  0.6719  0.9137
  337MOL0     H45474  13.362   9.766  10.200  2.4837  2.2783  0.4662
  337MOL0     H45475  13.256   9.109   9.828  2.5979 -0.9936 -1.1589
  337MOL0     H45476  13.061   8.969   9.857 -0.0970 -0.5666  0.6539
  337MOL0     H45477  12.564   9.040   9.741  1.3185  0.8369 -2.3181
  337MOL0     H45478  12.329   8.947   9.683 -1.6853 -1.9616 -0.7330
  337MOL0     H45479  11.725   9.459   9.670 -0.1216  1.1153 -0.4123
  337MOL0     H45480  11.595   9.414   9.856 -1.0953  0.6934  0.6840
  337MOL0     H45481  11.251   9.050   9.944  0.8862  2.3818 -1.2985
  337MOL0     H45482  11.048   8.942  10.044 -0.2692 -0.2752  0.3951
  337MOL0     H45483  10.827   8.916  10.106 -1.8161 -1.5969  0.9321
  337MOL0     H45484  10.731   8.949  10.241 -0.7441  0.5354 -2.4265
  337MOL0     H45485  10.903   8.793  10.375 -1.0584 -2.5828 -0.2788
  337MOL0     H45486  11.010   8.794  10.237 -0.2486  2.0182 -0.5144
  337MOL0     H45487  10.917   8.582  10.201 -0.6783 -1.3334 -0.7939
  337MOL0     H45488  10.806   8.686  10.112 -0.1321 -1.7906 -0.7327
  337MOL0     H45489  10.776   8.551  10.374  0.1115  0.0612 -0.4548
  337MOL0     H45490  10.686   8.696  10.354  0.2716  0.8755 -1.6941
  337MOL0     H45491  10.476   8.432  10.097  0.2160  1.2058 -2.0863
  337MOL0     H45492  11.033   9.255  10.336  1.7294  1.3510 -0.8626
  337MOL0     H45493  11.310   9.423  10.250  0.3115 -1.0624 -1.1521
  337MOL0     H45494  11.166   9.488  10.198  0.7027 -1.0830 -1.9009
  337MOL0     H45495  11.162   9.416  10.357 -1.4776  1.4220  0.1644
  338MOL0     O45496   8.302   7.581   5.205 -0.5120 -0.3895  0.0421
  338MOL0     C45497   8.405   7.515   5.197 -0.9333 -1.2354  0.6597
  338MOL0     O45498   8.426   7.385   5.211  0.1713 -0.3555 -0.8803
  338MOL0     C45499   8.328   7.322   5.283  0.0204  0.1697  0.1401
  338MOL0     C45500   8.291   7.194   5.239 -0.2876  0.6787 -0.0886
  338MOL0     C45501   8.193   7.118   5.304 -0.9189 -0.3554 -0.1321
  338MOL0     C45502   8.140   7.165   5.422  0.4612 -0.1259 -0.6803
  338MOL0     O45503   8.039   7.100   5.497 -0.5772 -0.2373  1.0224
  338MOL0     C45504   8.022   6.959   5.496 -0.2496  0.9836 -1.4213
  338MOL0     C45505   8.013   6.907   5.645  0.5807  0.1808  0.2315
  338MOL0     C45506   8.086   6.784   5.659 -0.7909 -0.1434 -0.8030
  338MOL0     C45507   8.037   6.693   5.790 -0.4434  0.0491  0.3851
  338MOL0     C45508   8.151   6.595   5.842  0.2135  0.6436  0.3246
  338MOL0     C45509   8.127   6.529   5.975  0.0978  0.1531  0.4159
  338MOL0     C45510   7.985   6.493   6.003 -0.2804  0.2276  0.0657
  338MOL0     C45511   7.948   6.355   5.956  0.1905  0.9058 -0.7759
  338MOL0     N45512   7.827   6.347   5.862  0.2888 -0.1595  0.2048
  338MOL0     C45513   7.828   6.400   5.732  0.4368 -0.4458  0.3231
  338MOL0     C45514   7.701   6.390   5.695 -0.7442 -1.2308 -0.5324
  338MOL0     C45515   7.638   6.454   5.575 -0.1209 -0.3532 -0.5476
  338MOL0     C45516   7.732   6.498   5.460 -0.3739  0.1658 -0.4656
  338MOL0     C45517   7.764   6.376   5.376  0.4295  0.2751  0.1055
  338MOL0     C45518   7.832   6.421   5.244 -0.1197 -0.2157 -0.5366
  338MOL0     O45519   7.969   6.466   5.285 -0.1033  0.3270 -0.5563
  338MOL0     C45520   8.022   6.565   5.193  0.5916  0.3057 -0.7302
  338MOL0     C45521   7.989   6.698   5.196 -0.5316 -0.5069  0.7726
  338MOL0     C45522   8.057   6.787   5.114 -0.4723 -1.5560  1.0976
  338MOL0     C45523   8.163   6.750   5.034 -0.2960  1.0114  0.1107
  338MOL0     C45524   8.227   6.843   4.941 -0.0630  0.4206  0.0256
  338MOL0     O45525   8.205   6.974   4.948  0.8979 -0.3334  0.2680
  338MOL0     C45526   8.251   7.082   4.875 -0.8973  0.4485  0.1295
  338MOL0     C45527   8.363   7.081   4.782  0.2816  0.1723  0.3176
  338MOL0     C45528   8.397   7.205   4.717 -0.3196  0.0684 -0.2418
  338MOL0     C45529   8.336   7.325   4.747  0.0753  0.8289  0.1123
  338MOL0     O45530   8.367   7.434   4.675 -0.7739  0.5657  0.1321
  338MOL0     C45531   8.257   7.530   4.657  0.1065 -0.2918 -0.7050
  338MOL0     C45532   8.284   7.624   4.540  0.3887  0.5264 -0.8001
  338MOL0     C45533   8.405   7.715   4.562  0.0636 -0.1731  0.0953
  338MOL0     C45534   8.376   7.852   4.635 -1.0265 -0.2257 -0.4072
  338MOL0     C45535   8.507   7.942   4.660 -0.1332 -0.2218  0.6536
  338MOL0     C45536   8.536   8.022   4.532  0.0793  0.2734  0.4678
  338MOL0     C45537   8.672   8.096   4.534  0.0577 -0.2350 -0.2389
  338MOL0     C45538   8.672   8.217   4.637  0.4307 -0.2400 -0.7723
  338MOL0    Cl45539   8.761   8.168   4.785 -0.1083  0.5649 -0.2743
  338MOL0     C45540   8.244   7.322   4.854  0.5214 -0.0322 -0.2393
  338MOL0     C45541   8.198   7.203   4.912 -0.0570 -0.5195 -0.2489
  338MOL0     O45542   8.286   6.792   4.848 -0.1064  0.0075  0.9469
  338MOL0     C45543   8.205   6.612   5.043 -1.0723  0.0837  0.8128
  338MOL0     C45544   8.127   6.520   5.110  0.5461  0.8153  0.4978
  338MOL0     N45545   7.629   6.326   5.793 -0.2093  0.3089 -0.4171
  338MOL0     N45546   7.705   6.303   5.893 -0.4818  0.6673  0.1180
  338MOL0     C45547   8.171   7.288   5.472 -0.3265 -0.9127  0.2133
  338MOL0     C45548   8.265   7.374   5.405  0.0553  0.2776  0.1398
  338MOL0     C45549   8.522   7.594   5.173  0.5019 -0.6675  0.7119
  338MOL0     C45550   8.640   7.546   5.217 -0.2569  0.3919 -0.1464
  338MOL0     C45551   8.758   7.618   5.209 -0.2903  0.0529  0.3849
  338MOL0     C45552   8.764   7.748   5.145 -0.3426 -0.5832  0.0434
  338MOL0     O45553   8.880   7.813   5.133  0.4195  0.4254 -0.3917
  338MOL0     C45554   8.988   7.781   5.220  0.0593  0.3447  0.0937
  338MOL0     C45555   9.099   7.879   5.185  0.1378  0.1942  1.1617
  338MOL0     C45556   9.041   8.027   5.176 -0.8137 -0.1040 -0.1997
  338MOL0     C45557   9.007   8.088   5.304  0.2538 -0.5198  0.5601
  338MOL0     C45558   9.117   8.097   5.401  0.3251 -0.1132  0.0528
  338MOL0     C45559   9.202   8.118   5.481 -0.5055 -0.1081  0.2775
  338MOL0     C45560   8.647   7.794   5.079  0.4209  0.6302 -0.1261
  338MOL0     C45561   8.527   7.714   5.087  0.7228 -1.0023 -0.5211
  338MOL0     C45562   8.424   7.745   4.988  0.4904 -0.6815  0.4180
  338MOL0     H45563   8.334   7.147   5.151  1.4763 -1.8072  1.9431
  338MOL0     H45564   8.176   7.021   5.259  0.9452 -1.6460  1.7265
  338MOL0     H45565   7.930   6.938   5.441  0.3694 -2.4319 -1.3764
  338MOL0     H45566   8.099   6.909   5.436  0.3024  1.1865 -0.8867
  338MOL0     H45567   7.908   6.884   5.665  0.6110 -1.2085 -1.0335
  338MOL0     H45568   8.031   6.981   5.724 -2.9690  0.3538  1.0506
  338MOL0     H45569   8.191   6.813   5.666 -1.5556  2.5957  0.6901
  338MOL0     H45570   8.055   6.729   5.570 -2.5052 -0.6044  0.0363
  338MOL0     H45571   8.009   6.755   5.876  0.9865 -2.2425  2.6652
  338MOL0     H45572   7.949   6.632   5.767 -0.2683  0.5890 -1.9676
  338MOL0     H45573   8.142   6.513   5.770  1.8636  0.1986  0.5822
  338MOL0     H45574   8.248   6.645   5.846  0.3768  0.6353 -2.0255
  338MOL0     H45575   8.193   6.444   5.995  1.4364  1.5543  2.4012
  338MOL0     H45576   8.156   6.602   6.052 -1.6196  2.3919 -0.9552
  338MOL0     H45577   7.912   6.571   5.977  0.8949  1.1036 -0.6663
  338MOL0     H45578   7.979   6.485   6.112  1.7178  1.8566  0.3625
  338MOL0     H45579   8.034   6.311   5.904  0.9294 -2.4233  2.7913
  338MOL0     H45580   7.920   6.287   6.037  0.8829 -0.1511 -1.3964
  338MOL0     H45581   7.912   6.438   5.675  0.2089 -1.5183 -0.7602
  338MOL0     H45582   7.551   6.390   5.557 -1.0648  0.0517  2.1327
  338MOL0     H45583   7.596   6.547   5.614 -0.8482 -1.0007  0.2541
  338MOL0     H45584   7.687   6.574   5.394  4.1430  0.9323 -3.1054
  338MOL0     H45585   7.828   6.540   5.492  3.2930 -4.8951 -3.4510
  338MOL0     H45586   7.668   6.329   5.354 -2.5179  4.6264  2.0970
  338MOL0     H45587   7.824   6.309   5.439  0.2772  1.6246  1.7713
  338MOL0     H45588   7.774   6.508   5.209 -0.3923  0.8257  2.2574
  338MOL0     H45589   7.834   6.350   5.161  0.9261 -1.2931  0.3862
  338MOL0     H45590   7.920   6.738   5.270 -2.6817  2.6017 -2.5873
  338MOL0     H45591   8.031   6.892   5.111  2.8087 -0.5762  2.5907
  338MOL0     H45592   8.413   6.989   4.752 -3.6637 -2.9975  2.4844
  338MOL0     H45593   8.466   7.202   4.633 -0.8577 -0.7132 -0.6688
  338MOL0     H45594   8.159   7.485   4.639 -1.0593  1.9498 -0.3277
  338MOL0     H45595   8.239   7.601   4.739 -1.0498  1.6124 -2.5088
  338MOL0     H45596   8.301   7.557   4.456  1.8056 -3.0112  2.0084
  338MOL0     H45597   8.198   7.683   4.507 -0.1760  0.4230  0.4243
  338MOL0     H45598   8.474   7.646   4.612  2.5626  2.2830  0.2332
  338MOL0     H45599   8.457   7.748   4.472 -0.0765  5.2070  1.6500
  338MOL0     H45600   8.337   7.845   4.737  1.3189 -2.9555  0.4439
  338MOL0     H45601   8.310   7.900   4.563  2.0446 -2.0050 -4.8330
  338MOL0     H45602   8.588   7.879   4.697 -1.0586 -1.9783 -0.1966
  338MOL0     H45603   8.500   8.015   4.742 -4.1639  1.5706 -1.0005
  338MOL0     H45604   8.528   7.956   4.445  1.2507 -0.0235  0.5794
  338MOL0     H45605   8.467   8.107   4.525 -0.3691 -0.0325  1.0784
  338MOL0     H45606   8.682   8.127   4.430 -0.7024 -0.7471 -0.4696
  338MOL0     H45607   8.750   8.025   4.563 -1.5974 -1.1857  2.2051
  338MOL0     H45608   8.712   8.305   4.584 -1.4017  0.9794 -0.2214
  338MOL0     H45609   8.568   8.242   4.658  0.8834  1.1528 -0.0347
  338MOL0     H45610   8.192   7.413   4.881 -2.1805 -2.0822  2.1048
  338MOL0     H45611   8.115   7.219   4.980 -0.8035  1.3250 -1.4747
  338MOL0     H45612   8.299   6.594   4.991 -1.5393 -0.6650  0.2053
  338MOL0     H45613   8.135   6.412   5.113 -0.1483  0.7657  0.7372
  338MOL0     H45614   8.121   7.310   5.566 -0.6892  0.7255 -0.3452
  338MOL0     H45615   8.316   7.462   5.441 -1.0165  1.2714 -0.6870
  338MOL0     H45616   8.647   7.473   5.297  1.5844 -0.0694 -0.6819
  338MOL0     H45617   8.837   7.564   5.260  0.5996 -2.6561 -3.4587
  338MOL0     H45618   9.015   7.676   5.207  2.3900  1.0425 -1.3374
  338MOL0     H45619   8.962   7.793   5.326  1.2332  3.1976  0.1708
  338MOL0     H45620   9.151   7.854   5.092  2.9761  0.1903  2.6175
  338MOL0     H45621   9.185   7.879   5.252 -0.2761  3.1756  1.8470
  338MOL0     H45622   8.950   8.031   5.115  0.2447  0.3296 -1.8183
  338MOL0     H45623   9.119   8.090   5.132 -1.9252  1.2542 -0.3103
  338MOL0     H45624   8.982   8.194   5.300  2.6568  0.1861  2.1918
  338MOL0     H45625   8.925   8.027   5.344 -0.5459 -0.7546 -1.3044
  338MOL0     H45626   9.289   8.141   5.539  1.3645 -1.1044 -2.0121
  338MOL0     H45627   8.650   7.873   5.005  1.3562  0.9004  0.1792
  338MOL0     H45628   8.345   7.673   4.968  2.4336 -2.8725  0.3062
  338MOL0     H45629   8.390   7.849   4.995  1.6587 -0.2812  0.3827
  338MOL0     H45630   8.472   7.740   4.890  0.3230  2.0891  0.1079
  339MOL0     O45631   3.298   0.786   3.574 -0.6285 -0.2597 -0.3279
  339MOL0     C45632   3.352   0.790   3.463  0.5218 -0.1049  0.1670
  339MOL0     O45633   3.337   0.898   3.372 -0.0312  0.1824 -0.0767
  339MOL0     C45634   3.257   1.000   3.408 -0.2514  0.1758  0.3362
  339MOL0     C45635   3.134   1.015   3.349 -0.5580  0.2021 -0.3384
  339MOL0     C45636   3.058   1.137   3.361  0.5545  1.1036  0.0141
  339MOL0     C45637   3.107   1.236   3.443 -0.4683  0.4127 -0.5031
  339MOL0     O45638   3.039   1.356   3.483  0.6125 -0.0424  0.1913
  339MOL0     C45639   2.916   1.371   3.430  0.7502  0.3769  0.5848
  339MOL0     C45640   2.836   1.472   3.506 -0.3055  0.0316  0.3268
  339MOL0     C45641   2.906   1.606   3.506  0.0541  0.7888 -0.0573
  339MOL0     C45642   2.823   1.709   3.573  0.6963  0.0336 -1.0964
  339MOL0     C45643   2.861   1.853   3.546 -1.0277  0.0354  0.8835
  339MOL0     C45644   2.781   1.942   3.633  0.1748  0.0985  0.9412
  339MOL0     C45645   2.780   2.083   3.577 -0.0925 -0.0289  0.1792
  339MOL0     C45646   2.692   2.185   3.653  0.3236  0.3267  0.4593
  339MOL0     N45647   2.742   2.329   3.646  0.1479 -0.2741 -1.3009
  339MOL0     C45648   2.811   2.398   3.551 -0.3457 -0.1142 -0.2273
  339MOL0     C45649   2.841   2.520   3.594 -0.1160  0.0048 -0.2402
  339MOL0     C45650   2.921   2.625   3.527 -0.5613  0.8590  0.3088
  339MOL0     C45651   2.829   2.739   3.477 -0.5415  0.2394  0.0054
  339MOL0     C45652   2.910   2.835   3.395 -0.6824 -0.4510 -1.0423
  339MOL0     C45653   2.830   2.928   3.317 -0.9686  0.2387 -0.6819
  339MOL0     O45654   2.902   3.014   3.232 -0.7196  0.0981  0.6570
  339MOL0     C45655   2.849   3.105   3.151 -0.2708 -0.3652 -0.2676
  339MOL0     C45656   2.713   3.130   3.130 -0.3387 -0.0829 -0.3110
  339MOL0     C45657   2.668   3.223   3.039 -0.2334 -1.5241  0.3351
  339MOL0     C45658   2.768   3.287   2.950 -0.3717 -0.8904  0.7645
  339MOL0     C45659   2.739   3.399   2.855  0.1729  0.1651  0.1469
  339MOL0     O45660   2.839   3.485   2.811  0.1315  0.3862 -0.4828
  339MOL0     C45661   2.807   3.587   2.722  0.3182 -0.4958  0.0295
  339MOL0     C45662   2.892   3.591   2.606  0.1915  0.2525 -0.4641
  339MOL0     C45663   2.857   3.668   2.496 -0.0024  0.7395  0.8022
  339MOL0     C45664   2.743   3.739   2.494 -0.2417 -0.1078 -0.7659
  339MOL0     O45665   2.731   3.803   2.372 -0.2900  0.3323  0.1710
  339MOL0     C45666   2.632   3.899   2.361  0.7789  0.2439  0.1700
  339MOL0     C45667   2.665   4.005   2.260  0.0384 -0.7720  0.1193
  339MOL0     C45668   2.561   4.119   2.264  0.3721  0.6236 -0.2221
  339MOL0     C45669   2.420   4.069   2.217  0.0422  0.4047  0.3871
  339MOL0     C45670   2.406   4.025   2.077 -0.4791  1.1422  0.7011
  339MOL0     C45671   2.269   4.078   2.030 -0.1587  0.2910 -0.2110
  339MOL0     C45672   2.227   4.004   1.898  0.2442  0.3724  0.4830
  339MOL0     C45673   2.162   4.078   1.788 -0.8566 -0.4063 -0.5232
  339MOL0    Cl45674   2.022   4.163   1.867  0.0160  0.2494  0.4186
  339MOL0     C45675   2.662   3.744   2.617  0.7416  0.4536 -0.5574
  339MOL0     C45676   2.700   3.664   2.730  0.8142  0.0750  0.5038
  339MOL0     O45677   2.622   3.408   2.828 -0.2286  0.8359 -0.2900
  339MOL0     C45678   2.906   3.252   2.967 -0.3366 -0.1806  0.2421
  339MOL0     C45679   2.945   3.171   3.070 -0.5778 -0.0664 -0.0768
  339MOL0     N45680   2.798   2.530   3.726  0.1931  0.3680  1.0210
  339MOL0     N45681   2.745   2.414   3.757 -0.5610  0.5443  0.2641
  339MOL0     C45682   3.231   1.216   3.511  1.2439 -0.8196  0.2410
  339MOL0     C45683   3.295   1.096   3.495  0.1113 -0.0080  0.0586
  339MOL0     C45684   3.463   0.698   3.431 -0.5138  1.2920 -0.3729
  339MOL0     C45685   3.563   0.749   3.334  0.9434  0.0062  0.1701
  339MOL0     C45686   3.681   0.680   3.298 -0.5751 -0.0652 -0.4662
  339MOL0     C45687   3.707   0.544   3.350  0.3496 -1.4625 -0.1120
  339MOL0     O45688   3.822   0.475   3.331 -0.0081  0.2855 -0.2009
  339MOL0     C45689   3.850   0.463   3.192 -0.6962 -0.1118 -1.1773
  339MOL0     C45690   3.994   0.503   3.179 -0.1627 -0.4629 -0.2291
  339MOL0     C45691   4.096   0.407   3.254  0.0597  0.6652  0.3867
  339MOL0     C45692   4.250   0.439   3.225  0.0955  1.0569 -1.1175
  339MOL0     C45693   4.347   0.339   3.281  0.0940 -0.1415  0.2617
  339MOL0     C45694   4.430   0.266   3.321  1.3996  0.2288 -0.3878
  339MOL0     C45695   3.614   0.498   3.445  0.3032 -0.5750  0.6276
  339MOL0     C45696   3.485   0.565   3.478 -0.1259 -0.6067  0.5225
  339MOL0     C45697   3.372   0.494   3.554 -0.5804 -0.5843 -0.2428
  339MOL0     H45698   3.112   0.924   3.293  3.2307 -2.5006  2.0586
  339MOL0     H45699   2.965   1.135   3.305  1.4080 -1.6339 -1.4652
  339MOL0     H45700   2.920   1.404   3.326  1.0408 -3.2708 -0.7300
  339MOL0     H45701   2.862   1.276   3.433  2.0061 -0.3617  0.6301
  339MOL0     H45702   2.819   1.436   3.608  2.9401 -0.0487  0.9564
  339MOL0     H45703   2.736   1.493   3.466 -0.3242 -0.5439  0.0608
  339MOL0     H45704   2.919   1.630   3.401  4.0150 -0.3793  0.0177
  339MOL0     H45705   3.005   1.614   3.551 -0.5194 -1.3696  1.8194
  339MOL0     H45706   2.718   1.702   3.546  0.4450 -1.7036  0.2132
  339MOL0     H45707   2.816   1.679   3.677 -0.2379  3.0053 -0.2050
  339MOL0     H45708   2.968   1.875   3.554 -0.8529  0.0254 -1.0753
  339MOL0     H45709   2.839   1.872   3.440 -1.3622 -2.2768  0.4907
  339MOL0     H45710   2.679   1.902   3.637  0.9638 -2.0660  0.9723
  339MOL0     H45711   2.807   1.939   3.739 -0.1639 -2.3065  1.0209
  339MOL0     H45712   2.761   2.075   3.469  2.6606 -2.0496 -0.2379
  339MOL0     H45713   2.881   2.124   3.581 -0.0920  0.1503 -1.1064
  339MOL0     H45714   2.589   2.177   3.617 -1.4138  2.1002  4.5227
  339MOL0     H45715   2.686   2.151   3.756 -3.6447 -1.6949 -0.2435
  339MOL0     H45716   2.834   2.357   3.454 -0.2725  3.7532 -2.0396
  339MOL0     H45717   3.003   2.650   3.595  2.2239 -3.1306 -1.1889
  339MOL0     H45718   2.987   2.584   3.450  0.5230 -0.1784  1.7452
  339MOL0     H45719   2.748   2.693   3.421  1.4787 -2.6676 -0.7405
  339MOL0     H45720   2.789   2.784   3.569 -0.2813 -0.0684  0.2717
  339MOL0     H45721   2.986   2.779   3.341  0.1454 -0.3176 -0.0506
  339MOL0     H45722   2.970   2.889   3.470 -0.5398  0.1936 -1.6063
  339MOL0     H45723   2.771   2.977   3.395  1.9676  0.5321  1.5811
  339MOL0     H45724   2.772   2.856   3.260  0.6261 -2.1442  0.5198
  339MOL0     H45725   2.641   3.079   3.192  1.4398 -1.5307  0.6765
  339MOL0     H45726   2.561   3.241   3.039 -0.0426  0.2393 -2.5465
  339MOL0     H45727   2.976   3.525   2.587 -0.3032 -0.2247 -1.0141
  339MOL0     H45728   2.924   3.659   2.411 -0.4076  0.4377  0.5176
  339MOL0     H45729   2.545   3.841   2.328  3.8177 -5.0269  0.3635
  339MOL0     H45730   2.628   3.951   2.457 -0.1259  3.2010 -1.3287
  339MOL0     H45731   2.761   4.046   2.292  0.1617 -2.6581  2.4482
  339MOL0     H45732   2.675   3.955   2.163 -2.6987 -1.0915 -0.0808
  339MOL0     H45733   2.548   4.157   2.365  0.6498 -0.2541  0.1561
  339MOL0     H45734   2.609   4.199   2.207 -0.4685  1.2633 -0.0467
  339MOL0     H45735   2.359   4.158   2.235  0.0955  0.5578 -0.1513
  339MOL0     H45736   2.384   3.983   2.273 -2.0364 -0.7650 -2.5070
  339MOL0     H45737   2.427   3.918   2.069  2.4964  1.6193  0.8370
  339MOL0     H45738   2.493   4.060   2.020  0.9430 -1.8933  0.7948
  339MOL0     H45739   2.197   4.056   2.109  0.9360 -3.4340 -0.0321
  339MOL0     H45740   2.254   4.185   2.015 -3.3377  0.0338  0.4714
  339MOL0     H45741   2.163   3.920   1.925 -1.2823  0.1571 -3.2287
  339MOL0     H45742   2.315   3.956   1.854 -0.9419 -2.5418  1.0606
  339MOL0     H45743   2.226   4.162   1.757  0.1337  0.2968  2.9711
  339MOL0     H45744   2.129   4.012   1.708  2.8622 -2.3724 -0.6667
  339MOL0     H45745   2.568   3.798   2.629  1.1046  0.8997  0.2902
  339MOL0     H45746   2.645   3.654   2.823  1.4737 -1.0229  0.8013
  339MOL0     H45747   2.984   3.312   2.921 -2.1458  1.7067 -0.5142
  339MOL0     H45748   3.048   3.147   3.092 -0.6935  0.0777  0.6380
  339MOL0     H45749   3.265   1.289   3.583  0.8000 -1.6357  1.3018
  339MOL0     H45750   3.383   1.092   3.558  0.2323  3.0434  0.2048
  339MOL0     H45751   3.557   0.852   3.300 -0.7511 -0.3432 -0.6726
  339MOL0     H45752   3.757   0.701   3.224 -0.0043 -1.1547 -0.2096
  339MOL0     H45753   3.792   0.517   3.117 -1.0125 -0.1503 -0.9619
  339MOL0     H45754   3.829   0.358   3.169 -1.9160  0.0714 -0.9910
  339MOL0     H45755   4.003   0.605   3.219  0.6234 -0.4355 -0.4539
  339MOL0     H45756   4.025   0.515   3.075  3.1634  1.6996  0.8382
  339MOL0     H45757   4.073   0.300   3.243  1.1069  0.5507 -0.8428
  339MOL0     H45758   4.091   0.438   3.359 -1.9727  0.5159  0.3751
  339MOL0     H45759   4.270   0.442   3.117 -0.3876 -0.7093 -1.2993
  339MOL0     H45760   4.260   0.535   3.276 -1.0201 -0.8362  3.1744
  339MOL0     H45761   4.503   0.193   3.350  0.4995 -1.4125 -2.0206
  339MOL0     H45762   3.632   0.397   3.481  0.2287 -1.1854 -0.9732
  339MOL0     H45763   3.282   0.549   3.526  0.9857  1.8114 -0.8674
  339MOL0     H45764   3.371   0.386   3.541  1.6118 -1.2154  3.3998
  339MOL0     H45765   3.390   0.513   3.661  0.2996 -3.1831  0.1395
  340MOL0     O45766  10.275   0.230   8.808  0.7905  0.5066 -0.1085
  340MOL0     C45767  10.186   0.143   8.802  0.6082 -0.1984  0.5064
  340MOL0     O45768  10.059   0.161   8.742 -0.0312  0.3633 -0.8544
  340MOL0     C45769  10.046   0.256   8.647  1.0307 -0.1339  0.1688
  340MOL0     C45770  10.135   0.259   8.544  0.8634  0.1622  0.5327
  340MOL0     C45771  10.135   0.356   8.440  0.2130 -0.4594 -0.1399
  340MOL0     C45772  10.041   0.460   8.453 -0.1090 -0.6587 -0.2861
  340MOL0     O45773  10.038   0.565   8.364 -0.2800 -0.9875  0.6391
  340MOL0     C45774  10.175   0.604   8.321 -0.2378 -0.3745  0.9819
  340MOL0     C45775  10.168   0.740   8.251  0.0886 -1.2820 -0.6253
  340MOL0     C45776  10.069   0.744   8.137  0.1573 -0.7322 -0.6455
  340MOL0     C45777  10.071   0.868   8.048  0.6057 -0.0984 -0.3182
  340MOL0     C45778   9.960   0.885   7.947  0.3654  0.6716  0.6824
  340MOL0     C45779   9.978   1.015   7.856  0.4204  0.3494 -0.1117
  340MOL0     C45780   9.878   1.028   7.738 -0.6453  0.1945 -0.1436
  340MOL0     C45781   9.912   1.157   7.667  0.3626  0.6032 -0.0823
  340MOL0     N45782   9.797   1.189   7.583  0.1786  0.0430  0.2976
  340MOL0     C45783   9.721   1.298   7.597 -0.2008  0.2172  0.7021
  340MOL0     C45784   9.637   1.298   7.498 -0.2210  0.5060 -0.0011
  340MOL0     C45785   9.529   1.402   7.478 -0.5321  0.1449  0.2261
  340MOL0     C45786   9.436   1.360   7.369  0.8518 -0.5930  0.2049
  340MOL0     C45787   9.351   1.481   7.334  0.8878 -0.5059  0.3557
  340MOL0     C45788   9.213   1.446   7.266 -0.5495 -1.1623 -0.4706
  340MOL0     O45789   9.224   1.390   7.136 -0.7153  0.0693 -0.1443
  340MOL0     C45790   9.120   1.425   7.058  0.0921 -0.1799  0.3212
  340MOL0     C45791   9.002   1.352   7.080  0.3521  0.1060  0.0062
  340MOL0     C45792   8.905   1.352   6.983  0.0357 -0.3868  0.0264
  340MOL0     C45793   8.932   1.421   6.853 -0.5182 -0.0432 -0.6943
  340MOL0     C45794   8.823   1.446   6.756  0.1086  0.1842  0.3289
  340MOL0     O45795   8.692   1.447   6.804 -0.7465  0.0214  0.4327
  340MOL0     C45796   8.603   1.513   6.722 -0.1626 -0.0869 -0.4967
  340MOL0     C45797   8.499   1.440   6.674 -0.0618 -0.0548  0.6716
  340MOL0     C45798   8.421   1.502   6.574  0.7882  0.0447  0.3551
  340MOL0     C45799   8.437   1.641   6.551 -0.9747 -0.2343  0.7759
  340MOL0     O45800   8.391   1.705   6.441  0.0456  0.4005  0.3377
  340MOL0     C45801   8.342   1.623   6.328 -0.2587 -0.3695 -0.1480
  340MOL0     C45802   8.349   1.710   6.198  0.4427  0.2372 -0.3098
  340MOL0     C45803   8.250   1.666   6.086 -0.0670  0.8453 -1.2629
  340MOL0     C45804   8.279   1.516   6.058  0.3851 -0.4845  0.7245
  340MOL0     C45805   8.198   1.462   5.941  0.1263  0.3063  1.0596
  340MOL0     C45806   8.056   1.427   5.980  0.1358  0.7462  0.4170
  340MOL0     C45807   7.987   1.337   5.885 -0.8979 -0.3935  0.4305
  340MOL0     C45808   7.851   1.294   5.910  0.0987 -0.4717 -0.3122
  340MOL0    Cl45809   7.735   1.433   5.902  0.5257  0.2899  0.8904
  340MOL0     C45810   8.542   1.712   6.606  0.5917  0.3646 -0.9859
  340MOL0     C45811   8.629   1.649   6.692 -0.2083  1.1525  0.1679
  340MOL0     O45812   8.853   1.468   6.633 -0.0085  0.1841  0.2180
  340MOL0     C45813   9.057   1.484   6.834  0.3075 -0.1291  1.0894
  340MOL0     C45814   9.151   1.492   6.937 -0.0443  0.3938  1.0276
  340MOL0     N45815   9.663   1.181   7.420 -0.8220 -0.6413  0.5774
  340MOL0     N45816   9.755   1.115   7.471  0.1880  0.7863 -0.6959
  340MOL0     C45817   9.965   0.464   8.572  0.1524 -0.4544  0.7861
  340MOL0     C45818   9.963   0.365   8.659 -0.2081 -0.1057 -0.1162
  340MOL0     C45819  10.196   0.021   8.887  0.3281  0.0487  0.3266
  340MOL0     C45820  10.076  -0.019   8.948  0.0725 -0.7011 -0.3082
  340MOL0     C45821  10.074  -0.134   9.024  0.5216  0.3084 -0.5667
  340MOL0     C45822  10.188  -0.205   9.059  0.3921  0.3416 -1.4822
  340MOL0     O45823  10.163  -0.309   9.147 -0.5298 -0.3479 -0.1989
  340MOL0     C45824  10.283  -0.386   9.170 -0.7792  1.1082 -1.2381
  340MOL0     C45825  10.245  -0.518   9.240  0.6865  1.1214 -0.2194
  340MOL0     C45826  10.170  -0.500   9.378 -0.3828 -0.5349  0.0001
  340MOL0     C45827  10.114  -0.637   9.402  0.3063  0.4809 -0.3340
  340MOL0     C45828   9.980  -0.659   9.346 -1.2477  0.4329 -0.0923
  340MOL0     C45829   9.865  -0.671   9.309 -0.7055  0.4196 -0.4854
  340MOL0     C45830  10.307  -0.151   9.015 -0.5946 -0.2384 -0.3469
  340MOL0     C45831  10.311  -0.050   8.918  0.1737 -0.2914 -1.0164
  340MOL0     C45832  10.447  -0.001   8.860  0.3436  0.5874  0.0297
  340MOL0     H45833  10.199   0.173   8.525  0.6249  0.0321  0.3088
  340MOL0     H45834  10.188   0.343   8.347  1.2486 -2.4272  0.6668
  340MOL0     H45835  10.246   0.604   8.405  1.1014  0.7123 -0.0956
  340MOL0     H45836  10.214   0.533   8.247  0.2027 -2.2665  2.9009
  340MOL0     H45837  10.257   0.774   8.198 -2.1764  2.2925 -2.5872
  340MOL0     H45838  10.132   0.821   8.316 -1.3127 -1.2383 -1.4109
  340MOL0     H45839   9.968   0.731   8.176 -0.0778  1.1003 -0.5728
  340MOL0     H45840  10.080   0.652   8.079 -1.5220 -1.0307 -0.5350
  340MOL0     H45841  10.067   0.956   8.114  0.4381 -0.8356  0.6696
  340MOL0     H45842  10.167   0.863   7.995  1.6222 -1.0841  1.5120
  340MOL0     H45843   9.972   0.800   7.880 -0.0632  0.8067  0.4292
  340MOL0     H45844   9.859   0.884   7.990  0.0544  1.6122 -0.0083
  340MOL0     H45845   9.959   1.098   7.924 -1.7175 -2.0167  2.4383
  340MOL0     H45846  10.082   1.027   7.823  0.3448  0.3463 -0.3537
  340MOL0     H45847   9.774   1.009   7.769 -0.8143  0.1782 -0.7020
  340MOL0     H45848   9.894   0.944   7.669  2.7839 -2.5084  3.4784
  340MOL0     H45849   9.922   1.234   7.744 -3.2644  3.0216 -1.7463
  340MOL0     H45850  10.006   1.150   7.611  2.6719 -0.8124  3.5894
  340MOL0     H45851   9.723   1.381   7.666 -0.1457  0.0731  0.8760
  340MOL0     H45852   9.462   1.406   7.565  0.2336 -4.4980  1.2827
  340MOL0     H45853   9.580   1.497   7.462  0.5393 -0.3366  0.7245
  340MOL0     H45854   9.496   1.325   7.285 -0.3968 -0.6291 -0.7051
  340MOL0     H45855   9.368   1.280   7.398 -2.2944  0.4608 -3.4127
  340MOL0     H45856   9.402   1.552   7.268  2.3264  0.4925  2.4300
  340MOL0     H45857   9.316   1.514   7.432 -1.2427  0.1580 -0.5606
  340MOL0     H45858   9.155   1.539   7.262  2.4036  0.8106 -2.0554
  340MOL0     H45859   9.165   1.368   7.325  2.4638 -2.2533  0.7401
  340MOL0     H45860   8.958   1.300   7.164 -1.6129  0.1803 -0.9031
  340MOL0     H45861   8.822   1.287   7.010 -0.2873  0.3318  0.7992
  340MOL0     H45862   8.490   1.339   6.712  0.2523 -0.6753 -0.8255
  340MOL0     H45863   8.346   1.444   6.521  0.4470 -2.2030  3.0757
  340MOL0     H45864   8.403   1.533   6.315  0.1990 -0.0883  0.0302
  340MOL0     H45865   8.242   1.583   6.347 -0.6450  0.9898  0.7310
  340MOL0     H45866   8.327   1.813   6.229  0.8960  0.3481 -0.3537
  340MOL0     H45867   8.454   1.701   6.169  0.8228  0.6289  0.8738
  340MOL0     H45868   8.149   1.692   6.119 -1.4844  0.1036 -4.5931
  340MOL0     H45869   8.260   1.727   5.996 -1.6958  1.1477 -1.2627
  340MOL0     H45870   8.239   1.471   6.150 -1.8199  1.4312  0.7911
  340MOL0     H45871   8.386   1.508   6.041  0.4240 -0.7619  1.0670
  340MOL0     H45872   8.238   1.373   5.891 -0.7064  0.3374  0.3027
  340MOL0     H45873   8.205   1.522   5.850  0.3715 -1.1810  0.0565
  340MOL0     H45874   8.056   1.378   6.078  3.0272 -1.4154 -0.5220
  340MOL0     H45875   7.991   1.514   5.996 -3.1687 -1.4184 -0.2577
  340MOL0     H45876   8.050   1.248   5.884 -0.3491 -0.1267  3.3484
  340MOL0     H45877   7.998   1.392   5.791  2.2868 -1.8364 -0.1662
  340MOL0     H45878   7.829   1.213   5.840  0.5755 -0.7631 -0.1331
  340MOL0     H45879   7.845   1.248   6.009  0.6875 -0.5607 -0.3164
  340MOL0     H45880   8.554   1.816   6.577 -0.4695  0.3729 -1.4635
  340MOL0     H45881   8.713   1.700   6.737  1.0800 -1.7898  1.3567
  340MOL0     H45882   9.080   1.524   6.736 -1.3372 -0.7447  0.4178
  340MOL0     H45883   9.242   1.545   6.909 -1.2208  2.8260  1.5426
  340MOL0     H45884   9.903   0.552   8.581  1.6459  0.7125  0.0396
  340MOL0     H45885   9.900   0.358   8.748 -0.6871 -1.6141 -0.5342
  340MOL0     H45886   9.985   0.023   8.906  1.4878  0.5350 -2.3220
  340MOL0     H45887   9.975  -0.159   9.060 -0.5755  4.3158 -0.3798
  340MOL0     H45888  10.361  -0.340   9.231  2.0193  0.1514 -3.8903
  340MOL0     H45889  10.321  -0.426   9.076  2.6200 -0.1597  0.5320
  340MOL0     H45890  10.338  -0.574   9.248 -0.4055 -0.4711  3.4742
  340MOL0     H45891  10.178  -0.578   9.177  0.4480 -1.0099  1.9350
  340MOL0     H45892  10.090  -0.426   9.370 -0.8514 -1.1810 -2.0039
  340MOL0     H45893  10.242  -0.471   9.454  0.4810 -2.0183 -0.2204
  340MOL0     H45894  10.180  -0.714   9.364 -1.1679 -0.4657 -1.0722
  340MOL0     H45895  10.109  -0.661   9.509  2.5578 -0.0101 -0.3074
  340MOL0     H45896   9.768  -0.661   9.264 -0.1004  1.2645 -1.6701
  340MOL0     H45897  10.404  -0.172   9.059  0.8252  3.9879 -1.0392
  340MOL0     H45898  10.490   0.076   8.924 -0.2790  1.9091 -1.0754
  340MOL0     H45899  10.519  -0.081   8.876  5.3277  4.3749 -0.8427
  340MOL0     H45900  10.434   0.034   8.757  1.8950  1.8660  0.2237
  341MOL0     O45901   7.466  10.128   9.523 -0.6002 -0.2080  0.3168
  341MOL0     C45902   7.522  10.014   9.520 -0.8888 -0.3111 -0.8621
  341MOL0     O45903   7.658   9.988   9.529  0.7323 -0.6248  0.5851
  341MOL0     C45904   7.736  10.101   9.530 -0.1574  0.0073  0.2982
  341MOL0     C45905   7.736  10.205   9.626 -0.5628  0.4016 -0.1886
  341MOL0     C45906   7.825  10.314   9.609 -0.2786 -0.2785  0.8329
  341MOL0     C45907   7.926  10.315   9.510 -0.1128  0.3550  0.4861
  341MOL0     O45908   8.001  10.427   9.500  0.0013 -0.4505  0.1754
  341MOL0     C45909   8.110  10.425   9.400  0.1840 -0.1731  0.2975
  341MOL0     C45910   8.176  10.561   9.404  0.5985  0.5574  0.8039
  341MOL0     C45911   8.083  10.679   9.362  0.6083 -0.4884 -0.3518
  341MOL0     C45912   8.171  10.808   9.323  1.0993  0.0876  1.0009
  341MOL0     C45913   8.264  10.851   9.436  0.3231 -0.0314 -0.1121
  341MOL0     C45914   8.377  10.936   9.394 -0.1909  1.1760  1.0682
  341MOL0     C45915   8.354  11.087   9.388  0.9024 -0.4418  0.4960
  341MOL0     C45916   8.267  11.135   9.269 -0.1200 -0.0426 -0.2519
  341MOL0     N45917   8.314  11.074   9.146 -0.1998 -1.0062  0.0623
  341MOL0     C45918   8.231  11.030   9.044 -0.9865 -0.2419 -1.2695
  341MOL0     C45919   8.312  10.991   8.947  0.2328  1.5143 -0.8015
  341MOL0     C45920   8.271  10.926   8.822  0.2974  0.7432  1.2453
  341MOL0     C45921   8.219  10.789   8.849  0.2860 -0.0390  0.5812
  341MOL0     C45922   8.337  10.694   8.884  0.7031 -0.9268  0.2201
  341MOL0     C45923   8.408  10.644   8.755 -0.1401  0.1331 -0.5049
  341MOL0     O45924   8.315  10.573   8.676 -0.0855  0.2278 -0.2741
  341MOL0     C45925   8.357  10.523   8.551 -0.1030  0.7078 -0.1965
  341MOL0     C45926   8.257  10.499   8.461 -0.5653 -0.0132  0.5341
  341MOL0     C45927   8.273  10.439   8.340  0.2680 -0.6997 -0.0768
  341MOL0     C45928   8.400  10.380   8.308 -0.5243 -0.4098 -0.1110
  341MOL0     C45929   8.419  10.317   8.171  0.1136 -0.7715  0.1514
  341MOL0     O45930   8.517  10.385   8.097 -0.2575  0.3651 -0.4159
  341MOL0     C45931   8.572  10.344   7.981  0.2716  0.4117  0.2269
  341MOL0     C45932   8.593  10.206   7.942  0.5786 -0.0320 -0.4921
  341MOL0     C45933   8.638  10.165   7.818 -0.5576 -0.6375  1.1709
  341MOL0     C45934   8.680  10.272   7.736 -0.3929  0.8564  0.7494
  341MOL0     O45935   8.724  10.241   7.610  0.0660  0.1603  1.0390
  341MOL0     C45936   8.863  10.247   7.611 -0.8852 -0.7551 -0.2577
  341MOL0     C45937   8.923  10.168   7.495 -0.0912  0.6957  0.7913
  341MOL0     C45938   9.077  10.180   7.472 -0.2568 -0.0195  0.5462
  341MOL0     C45939   9.137  10.105   7.353  0.7281  0.1005 -0.2315
  341MOL0     C45940   9.094  10.172   7.223  0.0613 -1.1260 -0.1151
  341MOL0     C45941   9.129  10.317   7.193 -1.3677 -0.3504  0.1303
  341MOL0     C45942   9.286  10.317   7.178 -0.0727 -0.1991 -0.6849
  341MOL0     C45943   9.322  10.462   7.189  0.3746 -0.2944  0.3631
  341MOL0    Cl45944   9.502  10.473   7.159 -0.1711 -0.5238 -0.0498
  341MOL0     C45945   8.685  10.410   7.778  0.7236  0.8218  0.0770
  341MOL0     C45946   8.613  10.441   7.893  0.4225 -0.3797  0.1048
  341MOL0     O45947   8.343  10.226   8.133 -0.9664  0.0944 -0.1689
  341MOL0     C45948   8.503  10.399   8.407  0.8768  0.2763  0.2654
  341MOL0     C45949   8.480  10.472   8.524 -0.0119 -0.4433  0.2900
  341MOL0     N45950   8.446  11.018   8.985  0.1398 -0.5127 -0.5413
  341MOL0     N45951   8.440  11.062   9.109 -0.1077  0.2543  1.1700
  341MOL0     C45952   7.925  10.210   9.423  1.0228 -0.2218  0.2565
  341MOL0     C45953   7.836  10.106   9.436  0.2390  0.8822 -0.2965
  341MOL0     C45954   7.443   9.891   9.481 -0.6199 -0.7210 -0.0350
  341MOL0     C45955   7.503   9.762   9.469 -0.8044  0.2699  0.3940
  341MOL0     C45956   7.442   9.641   9.435 -0.6643 -0.1505 -0.4850
  341MOL0     C45957   7.313   9.646   9.391 -0.7622 -0.1142  0.3470
  341MOL0     O45958   7.245   9.545   9.332  0.0085 -0.2194 -0.9651
  341MOL0     C45959   7.249   9.411   9.382 -0.4139  0.0169 -0.3026
  341MOL0     C45960   7.105   9.356   9.408  0.1135 -0.5018 -0.4273
  341MOL0     C45961   7.022   9.449   9.508 -0.3397 -0.1365 -0.4144
  341MOL0     C45962   6.875   9.421   9.500 -0.2281  0.8938 -0.6049
  341MOL0     C45963   6.839   9.292   9.560 -0.0435  0.7728  0.0750
  341MOL0     C45964   6.843   9.173   9.590  0.2222 -0.4076 -0.1108
  341MOL0     C45965   7.237   9.769   9.408  0.2193 -0.1981  0.4374
  341MOL0     C45966   7.304   9.889   9.452  0.2537  0.3429  0.0548
  341MOL0     C45967   7.218  10.015   9.465 -0.7096 -1.0106  0.1528
  341MOL0     H45968   7.670  10.200   9.712  1.4707 -1.4913  1.3865
  341MOL0     H45969   7.811  10.403   9.670 -1.3768  0.6545 -0.7004
  341MOL0     H45970   8.181  10.345   9.425  0.0287  0.1686  1.9420
  341MOL0     H45971   8.066  10.403   9.303  3.3605 -0.7057 -1.1690
  341MOL0     H45972   8.266  10.557   9.342 -2.1481  0.4786 -3.6066
  341MOL0     H45973   8.221  10.585   9.501  0.5225 -2.4217  1.6971
  341MOL0     H45974   8.016  10.708   9.444 -0.0744  0.4006 -1.1977
  341MOL0     H45975   8.018  10.649   9.280 -0.2666  2.8424 -1.0036
  341MOL0     H45976   8.233  10.775   9.239 -0.0330 -2.8755  1.2128
  341MOL0     H45977   8.108  10.890   9.289  0.7989 -0.2646  0.7004
  341MOL0     H45978   8.203  10.906   9.509 -1.2986  0.6863 -1.8907
  341MOL0     H45979   8.305  10.765   9.488 -1.8116 -0.6187  0.7072
  341MOL0     H45980   8.457  10.921   9.467 -0.2404 -0.4136  0.8385
  341MOL0     H45981   8.423  10.903   9.300 -0.1987  1.7648  0.8520
  341MOL0     H45982   8.449  11.139   9.374  0.8292  0.5220  2.9867
  341MOL0     H45983   8.300  11.121   9.478 -0.5593 -0.0173 -0.5015
  341MOL0     H45984   8.167  11.098   9.291 -1.9255  4.0301 -0.6950
  341MOL0     H45985   8.272  11.244   9.262  2.8737 -0.0757  0.0305
  341MOL0     H45986   8.124  11.017   9.054 -0.6178 -1.8372  1.5211
  341MOL0     H45987   8.194  10.993   8.782 -0.8253  0.8117  3.4063
  341MOL0     H45988   8.355  10.916   8.752  0.3042  1.1538  1.1938
  341MOL0     H45989   8.147  10.790   8.931 -0.2870 -0.0102  0.0913
  341MOL0     H45990   8.157  10.747   8.768 -0.7721 -0.6225  1.6656
  341MOL0     H45991   8.300  10.604   8.935  1.2231  0.2561  2.8809
  341MOL0     H45992   8.410  10.745   8.948  0.7390  1.1370 -1.3769
  341MOL0     H45993   8.499  10.591   8.785 -1.5787 -3.0844 -1.4023
  341MOL0     H45994   8.431  10.728   8.690 -1.9257  0.6763 -0.4716
  341MOL0     H45995   8.154  10.532   8.475  0.0192  4.0965 -2.8249
  341MOL0     H45996   8.186  10.421   8.277 -2.9218  1.4125  3.3385
  341MOL0     H45997   8.575  10.125   8.013 -1.3235  0.0744 -0.8118
  341MOL0     H45998   8.641  10.063   7.782  1.5574  0.3861 -2.0015
  341MOL0     H45999   8.902  10.347   7.592  0.3456 -1.5150 -2.0659
  341MOL0     H46000   8.920  10.212   7.698 -1.2558 -0.9326 -0.0839
  341MOL0     H46001   8.894  10.064   7.510  0.9036  0.5002  1.4656
  341MOL0     H46002   8.875  10.204   7.404  0.0995  1.1194  0.8570
  341MOL0     H46003   9.107  10.285   7.468  0.9988 -0.1751  3.4551
  341MOL0     H46004   9.125  10.135   7.560 -1.1142 -0.1849  0.9397
  341MOL0     H46005   9.099  10.002   7.351 -3.7075  1.4337  2.3633
  341MOL0     H46006   9.243  10.096   7.377  0.4345  0.0222  1.0893
  341MOL0     H46007   8.987  10.167   7.200  0.6522  2.3303 -5.5992
  341MOL0     H46008   9.143  10.109   7.148  1.7667  0.2862 -0.2312
  341MOL0     H46009   9.077  10.343   7.101 -2.5921  1.6699  1.3181
  341MOL0     H46010   9.106  10.386   7.275 -2.6077 -0.3619 -0.1951
  341MOL0     H46011   9.315  10.266   7.086 -1.6437 -1.3449 -0.5787
  341MOL0     H46012   9.337  10.261   7.257 -0.7108 -1.0301 -0.8510
  341MOL0     H46013   9.269  10.520   7.113 -0.1028 -1.1542  0.0220
  341MOL0     H46014   9.291  10.498   7.288 -0.6785 -4.0353  1.5346
  341MOL0     H46015   8.734  10.478   7.710 -0.4118  0.7844 -0.7900
  341MOL0     H46016   8.583  10.544   7.912 -2.3552 -0.8424 -1.3450
  341MOL0     H46017   8.601  10.361   8.378 -0.1784 -2.8989  0.4846
  341MOL0     H46018   8.568  10.490   8.585 -0.5840 -0.5799  1.1681
  341MOL0     H46019   7.982  10.214   9.331  0.2928  0.3004 -0.1855
  341MOL0     H46020   7.838  10.027   9.361 -2.5137 -1.2595  1.6959
  341MOL0     H46021   7.608   9.762   9.498 -0.5686  4.3810  0.1860
  341MOL0     H46022   7.500   9.551   9.419 -0.3361  0.5223 -3.9980
  341MOL0     H46023   7.311   9.427   9.471 -0.5376  2.2226 -0.5684
  341MOL0     H46024   7.301   9.340   9.317  2.0608 -2.2493  3.7548
  341MOL0     H46025   7.130   9.263   9.460  2.6057  0.8539  0.9686
  341MOL0     H46026   7.054   9.332   9.314 -2.2724 -1.6450  1.0768
  341MOL0     H46027   7.027   9.558   9.495 -0.0621 -0.2171 -0.9805
  341MOL0     H46028   7.067   9.422   9.604  0.0620 -4.2484 -1.5925
  341MOL0     H46029   6.812   9.492   9.554 -2.4536 -3.9523  4.1289
  341MOL0     H46030   6.845   9.427   9.395 -4.1192  0.1594  0.3283
  341MOL0     H46031   6.874   9.078   9.628  0.7452 -1.6062 -3.2588
  341MOL0     H46032   7.132   9.767   9.382 -0.5158  0.7052  3.0203
  341MOL0     H46033   7.112   9.991   9.466 -0.9547  0.0169 -0.3982
  341MOL0     H46034   7.236  10.075   9.555  1.6421 -0.8977 -0.3239
  341MOL0     H46035   7.238  10.085   9.384 -0.7714  0.3525  1.2760
  342MOL0     O46036   4.023  11.022   3.306 -0.5456  0.0454  0.9833
  342MOL0     C46037   4.079  11.066   3.203 -0.6404  0.5900  0.2360
  342MOL0     O46038   4.179  11.162   3.206 -0.3233  0.5483  0.4258
  342MOL0     C46039   4.233  11.212   3.324  0.3949 -0.2169 -0.8154
  342MOL0     C46040   4.254  11.344   3.326 -0.2739 -0.8682 -0.5140
  342MOL0     C46041   4.301  11.411   3.446 -0.0938  0.2143  0.4697
  342MOL0     C46042   4.345  11.325   3.549  0.9652 -0.0738 -0.4489
  342MOL0     O46043   4.389  11.381   3.665 -0.2668  0.5273 -0.0249
  342MOL0     C46044   4.449  11.511   3.657  0.1424 -0.4344 -0.6495
  342MOL0     C46045   4.564  11.508   3.760  0.4191  0.6009 -0.2918
  342MOL0     C46046   4.678  11.405   3.717 -1.2305 -0.0486 -0.2585
  342MOL0     C46047   4.653  11.273   3.773  0.4098  0.3565  0.0334
  342MOL0     C46048   4.759  11.166   3.734  0.0361  0.2467  0.5412
  342MOL0     C46049   4.731  11.025   3.798 -0.2068 -1.3371  0.2589
  342MOL0     C46050   4.823  10.919   3.730 -0.0374 -0.3699 -0.0058
  342MOL0     C46051   4.802  10.780   3.789 -1.0238 -0.1632 -0.8049
  342MOL0     N46052   4.668  10.715   3.771 -0.3891 -0.1259  0.7549
  342MOL0     C46053   4.636  10.641   3.656  0.9568  0.2158 -1.5478
  342MOL0     C46054   4.528  10.570   3.704 -0.4271  0.1313  1.1379
  342MOL0     C46055   4.441  10.475   3.631  0.0223 -0.2738 -0.1381
  342MOL0     C46056   4.371  10.522   3.501 -0.2423  0.0491 -0.3641
  342MOL0     C46057   4.306  10.656   3.506  0.6430  0.0717 -0.3988
  342MOL0     C46058   4.188  10.668   3.414  0.5723  1.1571 -0.1207
  342MOL0     O46059   4.232  10.626   3.281  0.0029  0.3615  0.3894
  342MOL0     C46060   4.280  10.706   3.172 -0.2256 -0.8050  0.0556
  342MOL0     C46061   4.294  10.844   3.181  0.7800  0.3574 -0.1668
  342MOL0     C46062   4.353  10.907   3.071 -0.2836 -0.0873 -0.9929
  342MOL0     C46063   4.400  10.832   2.957 -0.0365 -0.8234  0.1275
  342MOL0     C46064   4.462  10.911   2.849  0.4405 -0.6991  0.8350
  342MOL0     O46065   4.459  11.050   2.845  0.5391  0.1812 -0.2547
  342MOL0     C46066   4.508  11.141   2.750 -0.3901 -0.0630 -1.2922
  342MOL0     C46067   4.480  11.278   2.775 -0.4742 -0.4696 -0.1772
  342MOL0     C46068   4.530  11.377   2.692 -0.2001 -1.0361 -0.0663
  342MOL0     C46069   4.625  11.351   2.590  0.2405  0.7877 -0.1457
  342MOL0     O46070   4.693  11.457   2.532 -0.0057 -0.6383 -0.3417
  342MOL0     C46071   4.822  11.443   2.481 -0.3028 -0.1535  0.0715
  342MOL0     C46072   4.928  11.396   2.585  0.4562  0.4181 -0.1806
  342MOL0     C46073   4.956  11.516   2.681  0.3194 -0.3835 -0.4755
  342MOL0     C46074   5.067  11.470   2.779  0.3973  0.5675  0.5810
  342MOL0     C46075   5.205  11.503   2.727  0.6487  0.2626  0.1661
  342MOL0     C46076   5.264  11.639   2.768  0.6594 -0.8299 -0.0703
  342MOL0     C46077   5.392  11.660   2.681  0.6204  0.0488 -0.8790
  342MOL0     C46078   5.486  11.761   2.750 -0.6020  0.0842  0.6275
  342MOL0    Cl46079   5.645  11.774   2.658  0.2353 -0.0160 -0.4152
  342MOL0     C46080   4.643  11.217   2.556 -0.4349 -0.2510 -0.0114
  342MOL0     C46081   4.583  11.114   2.636 -0.3467 -0.0514  0.3729
  342MOL0     O46082   4.490  10.842   2.752  0.6562  0.4825 -0.0051
  342MOL0     C46083   4.375  10.694   2.950  0.7728 -0.4243 -0.3336
  342MOL0     C46084   4.308  10.635   3.052 -1.0271  0.0838 -0.2131
  342MOL0     N46085   4.483  10.617   3.823  0.0941  0.5090 -0.0524
  342MOL0     N46086   4.583  10.690   3.872  0.4424  0.2537 -0.0592
  342MOL0     C46087   4.331  11.182   3.545 -0.0180 -0.1898 -0.5277
  342MOL0     C46088   4.285  11.138   3.429  0.1222  1.0239 -0.2716
  342MOL0     C46089   4.048  11.001   3.078  0.7291  0.1037 -0.1724
  342MOL0     C46090   3.981  10.877   3.082  1.1766 -0.3856 -0.7626
  342MOL0     C46091   3.936  10.805   2.972 -1.2393 -0.9794 -0.3840
  342MOL0     C46092   3.957  10.857   2.842 -1.2655 -0.1419  0.4035
  342MOL0     O46093   3.940  10.790   2.723 -0.8505 -0.0576 -0.0543
  342MOL0     C46094   3.944  10.651   2.718  0.7769  0.0299  0.6851
  342MOL0     C46095   4.085  10.591   2.746  0.1318  1.1806 -0.5252
  342MOL0     C46096   4.074  10.448   2.712 -0.8779 -0.7521  0.0211
  342MOL0     C46097   4.199  10.364   2.712 -0.7238 -1.0284  0.7630
  342MOL0     C46098   4.319  10.422   2.650 -0.3105 -0.5583  0.5890
  342MOL0     C46099   4.405  10.488   2.606  0.3612  0.1094  1.2049
  342MOL0     C46100   4.008  10.989   2.835 -0.5781  0.2242 -0.6664
  342MOL0     C46101   4.056  11.060   2.949 -0.2640 -0.0393  0.3902
  342MOL0     C46102   4.115  11.196   2.913  0.2127  0.2230  0.1623
  342MOL0     H46103   4.225  11.400   3.238 -0.9422 -0.3350  0.0291
  342MOL0     H46104   4.284  11.518   3.453  0.9366  0.5593 -1.5811
  342MOL0     H46105   4.486  11.552   3.563  2.3850 -0.4774  0.1632
  342MOL0     H46106   4.379  11.585   3.697  1.9518  0.4400  1.0632
  342MOL0     H46107   4.521  11.483   3.858  0.0597  1.6555 -0.1670
  342MOL0     H46108   4.609  11.608   3.757  1.4965  0.1629  0.4859
  342MOL0     H46109   4.774  11.438   3.756 -0.0240 -2.3158 -1.1259
  342MOL0     H46110   4.688  11.404   3.608  0.9936  2.2187 -0.1611
  342MOL0     H46111   4.648  11.296   3.880  3.0376  3.1441 -0.2984
  342MOL0     H46112   4.560  11.242   3.724 -0.0996  0.6946  0.7693
  342MOL0     H46113   4.765  11.167   3.624 -2.9043 -1.0032  0.2597
  342MOL0     H46114   4.862  11.197   3.752 -0.2793  2.2153 -0.7156
  342MOL0     H46115   4.744  11.021   3.907  0.2830  1.4351  0.3677
  342MOL0     H46116   4.628  10.995   3.778 -2.3734  5.2472 -0.8753
  342MOL0     H46117   4.926  10.958   3.725  0.4294 -1.5436  0.0713
  342MOL0     H46118   4.782  10.901   3.631 -2.8506 -0.2700  1.0469
  342MOL0     H46119   4.874  10.709   3.748 -0.9024  0.1742 -1.1845
  342MOL0     H46120   4.841  10.787   3.891 -0.3620  4.4257 -1.1885
  342MOL0     H46121   4.666  10.622   3.554 -1.3677  1.2543 -2.5066
  342MOL0     H46122   4.494  10.387   3.595 -1.7881 -0.6862 -1.9685
  342MOL0     H46123   4.358  10.453   3.698 -2.2180  0.5300 -2.4825
  342MOL0     H46124   4.441  10.520   3.417 -1.1680  3.5184 -1.3435
  342MOL0     H46125   4.299  10.440   3.487  0.1754 -0.0939 -1.8321
  342MOL0     H46126   4.382  10.731   3.482  0.2869  1.4535  2.4150
  342MOL0     H46127   4.272  10.677   3.607 -0.6921  1.2834 -1.0637
  342MOL0     H46128   4.151  10.771   3.413  0.1711  1.0158 -0.2383
  342MOL0     H46129   4.107  10.601   3.444  1.0703  0.7267  0.2730
  342MOL0     H46130   4.257  10.893   3.271  1.1282 -0.0921  0.2274
  342MOL0     H46131   4.367  11.014   3.069  0.6491 -0.2112 -1.5168
  342MOL0     H46132   4.420  11.304   2.861  0.4445 -0.2449  0.4123
  342MOL0     H46133   4.514  11.482   2.714  2.7056  0.3267 -3.4996
  342MOL0     H46134   4.813  11.366   2.404 -1.7091 -2.4772  2.4116
  342MOL0     H46135   4.855  11.542   2.447 -1.6617 -0.2593 -1.7426
  342MOL0     H46136   4.905  11.308   2.646  0.1796  1.1591  0.8127
  342MOL0     H46137   5.018  11.373   2.528 -0.7302 -2.3921 -1.0739
  342MOL0     H46138   4.993  11.608   2.635  1.0904  0.0049  0.8842
  342MOL0     H46139   4.865  11.532   2.740  0.4709  0.9026 -0.5628
  342MOL0     H46140   5.070  11.361   2.787  3.5914  0.6953  3.1841
  342MOL0     H46141   5.048  11.509   2.879 -1.9705 -1.9356  1.2371
  342MOL0     H46142   5.210  11.493   2.618  0.4681 -0.0726  0.1878
  342MOL0     H46143   5.268  11.425   2.769  1.6653 -0.4734 -2.5551
  342MOL0     H46144   5.177  11.705   2.759 -1.1689 -2.7602  2.1773
  342MOL0     H46145   5.300  11.668   2.867  2.6878 -0.2532 -0.9226
  342MOL0     H46146   5.352  11.715   2.595  2.0930  2.3287 -0.1761
  342MOL0     H46147   5.446  11.565   2.675  1.5988  0.0054  4.2283
  342MOL0     H46148   5.426  11.853   2.754 -1.4121 -0.3507 -0.7117
  342MOL0     H46149   5.501  11.743   2.856 -0.4657 -1.3503  0.3767
  342MOL0     H46150   4.708  11.189   2.474  0.2298 -1.0676  0.7650
  342MOL0     H46151   4.590  11.009   2.607 -1.1505 -0.3479  1.2008
  342MOL0     H46152   4.425  10.639   2.871 -1.6027 -1.9422 -0.9024
  342MOL0     H46153   4.275  10.532   3.053 -0.8411  0.0249  0.0733
  342MOL0     H46154   4.377  11.111   3.613  0.7073  1.2586  0.5378
  342MOL0     H46155   4.286  11.029   3.422  0.7391  0.5138  4.4263
  342MOL0     H46156   3.952  10.826   3.173  2.1501 -2.4635 -1.5669
  342MOL0     H46157   3.898  10.705   2.991 -1.5974 -0.6686  0.5849
  342MOL0     H46158   3.906  10.624   2.619  1.3679  0.0627  0.4447
  342MOL0     H46159   3.868  10.610   2.786  1.0164 -0.8748  0.4307
  342MOL0     H46160   4.112  10.595   2.852 -0.5284 -1.2416 -0.2047
  342MOL0     H46161   4.159  10.651   2.691  1.0290  1.1684  0.6260
  342MOL0     H46162   4.035  10.448   2.609 -0.3478 -0.5469 -0.1780
  342MOL0     H46163   4.000  10.404   2.780 -0.6931  2.0241  2.2025
  342MOL0     H46164   4.221  10.349   2.818  2.1520  3.0838  0.9726
  342MOL0     H46165   4.177  10.272   2.657 -1.7021  0.5655 -1.7064
  342MOL0     H46166   4.481  10.559   2.579  0.3152  0.7429  2.6541
  342MOL0     H46167   4.033  11.037   2.741  0.1243  3.1076  0.8855
  342MOL0     H46168   4.212  11.208   2.962  2.6187 -2.5223 -3.4196
  342MOL0     H46169   4.133  11.210   2.806 -2.7262  3.0603 -0.1130
  342MOL0     H46170   4.044  11.277   2.931  0.0066  0.5667 -1.9257
  343MOL0     O46171   5.795   2.573   9.538 -0.1010 -0.2954  0.4207
  343MOL0     C46172   5.786   2.679   9.468 -0.6215 -0.2292  0.2740
  343MOL0     O46173   5.782   2.693   9.333  0.1776 -0.9137  0.6473
  343MOL0     C46174   5.801   2.575   9.262 -0.3646 -0.3808 -0.9331
  343MOL0     C46175   5.941   2.532   9.235 -0.0276 -0.2700 -0.0502
  343MOL0     C46176   5.962   2.434   9.143  0.0449 -0.4195  0.3404
  343MOL0     C46177   5.847   2.368   9.077 -0.5394 -0.1962 -0.5499
  343MOL0     O46178   5.851   2.278   8.978 -0.0697  0.0716  0.0719
  343MOL0     C46179   5.975   2.244   8.907  0.3568  0.3062 -0.4216
  343MOL0     C46180   5.948   2.216   8.752  0.2137  0.5917 -0.5461
  343MOL0     C46181   5.852   2.094   8.732  0.9271  0.4470  0.3964
  343MOL0     C46182   5.911   1.962   8.798  0.3077 -0.7381 -0.3548
  343MOL0     C46183   5.809   1.850   8.829  0.4522  0.3390 -0.1695
  343MOL0     C46184   5.708   1.877   8.942 -0.1319  0.0302 -0.4969
  343MOL0     C46185   5.586   1.782   8.935  0.1064  0.3479 -0.0064
  343MOL0     C46186   5.495   1.783   9.054  0.2782 -0.0317 -0.1183
  343MOL0     N46187   5.561   1.721   9.159  0.2098  0.9452 -0.0148
  343MOL0     C46188   5.574   1.587   9.181  0.8951  0.1063  0.1338
  343MOL0     C46189   5.642   1.579   9.293  0.3396 -0.3721 -0.6305
  343MOL0     C46190   5.673   1.443   9.345 -0.0109 -0.1776 -0.0296
  343MOL0     C46191   5.588   1.425   9.468 -0.0061 -0.8480  0.4473
  343MOL0     C46192   5.562   1.271   9.501  0.4562 -0.5870  0.2047
  343MOL0     C46193   5.685   1.213   9.566 -0.4228 -0.3241  0.0051
  343MOL0     O46194   5.661   1.238   9.710 -0.5415 -0.2144  0.5819
  343MOL0     C46195   5.777   1.239   9.794  1.0281 -0.0195  0.1517
  343MOL0     C46196   5.898   1.173   9.789 -0.8651  0.9181  1.1625
  343MOL0     C46197   6.007   1.194   9.876 -0.1361  0.2651 -0.7059
  343MOL0     C46198   5.983   1.297   9.979  0.2956 -0.2024  0.7650
  343MOL0     C46199   6.081   1.325  10.094 -0.4805  0.5623  0.3142
  343MOL0     O46200   6.153   1.217  10.141 -0.2263  0.1718  0.3636
  343MOL0     C46201   6.217   1.231  10.257  0.2626 -0.7338 -0.2836
  343MOL0     C46202   6.354   1.234  10.266  0.3303  0.4385  0.0457
  343MOL0     C46203   6.426   1.214  10.385 -0.5569  0.1036 -0.1322
  343MOL0     C46204   6.352   1.199  10.502  1.0350  0.5342  0.3647
  343MOL0     O46205   6.403   1.188  10.634 -0.5718 -0.1300 -0.2164
  343MOL0     C46206   6.489   1.072  10.651  0.6465 -0.2014 -0.1869
  343MOL0     C46207   6.546   1.067  10.797 -1.0054  0.5042  1.0168
  343MOL0     C46208   6.637   0.939  10.812  0.0577 -0.6096 -0.0673
  343MOL0     C46209   6.737   0.943  10.937  0.7038  0.3273  0.3725
  343MOL0     C46210   6.752   0.812  11.005 -0.4343  0.4892 -0.0108
  343MOL0     C46211   6.830   0.714  10.920  0.3438 -0.8121 -0.3215
  343MOL0     C46212   6.876   0.586  10.988 -0.4639 -0.4259  0.0398
  343MOL0     C46213   6.765   0.479  11.000 -0.1528  0.4614 -0.8465
  343MOL0    Cl46214   6.815   0.320  11.045 -0.0181  0.1158  0.0594
  343MOL0     C46215   6.214   1.197  10.498 -0.4259  0.3698 -0.2363
  343MOL0     C46216   6.143   1.233  10.377 -0.2793  0.1727  0.0833
  343MOL0     O46217   6.090   1.441  10.143  0.2581 -0.0426  0.0617
  343MOL0     C46218   5.861   1.361   9.979  0.3064 -0.1189 -0.2359
  343MOL0     C46219   5.764   1.335   9.888 -0.1140  1.2666 -0.4030
  343MOL0     N46220   5.670   1.708   9.331 -0.3940  0.0769  0.6130
  343MOL0     N46221   5.624   1.792   9.253 -0.1973  0.3053  0.1576
  343MOL0     C46222   5.725   2.410   9.111  0.0377 -0.4779  0.6297
  343MOL0     C46223   5.693   2.515   9.200  0.0365 -0.1904  0.6434
  343MOL0     C46224   5.750   2.800   9.540 -0.2981  0.0175 -0.2268
  343MOL0     C46225   5.634   2.871   9.491  0.4615 -1.4535 -0.4214
  343MOL0     C46226   5.597   2.971   9.582 -0.4312 -0.5166 -0.0552
  343MOL0     C46227   5.647   3.014   9.702  0.2469 -0.2370  0.4417
  343MOL0     O46228   5.585   3.117   9.770  0.7883  0.2067 -0.3430
  343MOL0     C46229   5.639   3.160   9.892 -0.2436  0.4190  0.4351
  343MOL0     C46230   5.524   3.259   9.934  0.0933 -0.4629 -0.5077
  343MOL0     C46231   5.515   3.300  10.090  0.4534  0.1471  0.6438
  343MOL0     C46232   5.642   3.355  10.152  0.1294  0.0093 -0.4239
  343MOL0     C46233   5.623   3.366  10.299  0.1038 -0.0130  0.6606
  343MOL0     C46234   5.608   3.382  10.418 -0.9053 -0.3410 -1.0748
  343MOL0     C46235   5.761   2.949   9.743  0.8644  0.3491  0.0848
  343MOL0     C46236   5.813   2.842   9.660 -0.1525 -0.0751 -0.3991
  343MOL0     C46237   5.937   2.763   9.712  0.2152 -0.0606  0.3737
  343MOL0     H46238   6.024   2.570   9.293  0.1967  1.0347 -1.1883
  343MOL0     H46239   6.066   2.409   9.123  0.2037  0.7028 -0.3729
  343MOL0     H46240   6.041   2.332   8.916 -0.2721  0.8675 -1.1719
  343MOL0     H46241   6.029   2.162   8.954  1.7643  0.7991 -1.1011
  343MOL0     H46242   6.050   2.199   8.715 -0.0096  0.3032 -1.0471
  343MOL0     H46243   5.906   2.309   8.712 -1.9984  0.5008  1.3879
  343MOL0     H46244   5.848   2.084   8.623 -2.5832  2.6471  0.1917
  343MOL0     H46245   5.751   2.124   8.762  0.6017 -0.8105  0.6028
  343MOL0     H46246   5.995   1.922   8.741 -0.1838  0.3753 -1.9468
  343MOL0     H46247   5.969   1.993   8.885 -1.0548 -0.7217  0.5763
  343MOL0     H46248   5.770   1.814   8.734 -2.6921 -1.9285  1.7739
  343MOL0     H46249   5.886   1.776   8.853  1.9075  0.1742 -4.5515
  343MOL0     H46250   5.772   1.867   9.030 -0.1993  0.4644 -0.3988
  343MOL0     H46251   5.662   1.976   8.943 -0.2430 -0.0108 -1.0466
  343MOL0     H46252   5.600   1.679   8.902  0.1094  0.6016 -0.8215
  343MOL0     H46253   5.522   1.815   8.852 -3.3225 -3.1721  0.9648
  343MOL0     H46254   5.464   1.886   9.077 -0.6609  0.1758 -2.1071
  343MOL0     H46255   5.408   1.721   9.033  0.7052 -0.8626  0.5031
  343MOL0     H46256   5.539   1.510   9.113 -1.6323  0.1655  1.2475
  343MOL0     H46257   5.652   1.368   9.268 -3.4159 -0.3165  0.8804
  343MOL0     H46258   5.780   1.437   9.367  0.0391 -1.8805 -0.5802
  343MOL0     H46259   5.645   1.462   9.553 -1.0553 -1.0735  1.2687
  343MOL0     H46260   5.498   1.487   9.468  0.7951  0.3623 -0.4345
  343MOL0     H46261   5.549   1.221   9.405  2.2937  3.3692 -2.4127
  343MOL0     H46262   5.472   1.260   9.561 -0.0505 -1.6552 -0.7306
  343MOL0     H46263   5.775   1.263   9.528 -0.7786 -0.1603 -0.6366
  343MOL0     H46264   5.691   1.107   9.537 -0.4938 -0.2429 -0.3109
  343MOL0     H46265   5.916   1.092   9.720  1.6731  0.1110  2.6421
  343MOL0     H46266   6.096   1.134   9.866  0.8595 -0.0251  5.6244
  343MOL0     H46267   6.424   1.252  10.184 -1.6609  2.5676 -1.2950
  343MOL0     H46268   6.533   1.230  10.381 -0.4687  0.3081  2.0244
  343MOL0     H46269   6.438   0.978  10.630  0.7187 -0.4300  0.6402
  343MOL0     H46270   6.575   1.078  10.583 -0.6814  0.4719 -1.8988
  343MOL0     H46271   6.613   1.152  10.808  0.0524 -0.4185  2.0156
  343MOL0     H46272   6.470   1.076  10.875 -0.1289 -1.1311  2.1385
  343MOL0     H46273   6.569   0.858  10.841  1.1694 -1.2184  0.9130
  343MOL0     H46274   6.691   0.909  10.722  0.6059 -1.4590  0.5331
  343MOL0     H46275   6.697   1.011  11.014 -2.0903 -2.3367  1.4612
  343MOL0     H46276   6.829   0.980  10.891 -0.5633  1.7609 -1.1447
  343MOL0     H46277   6.653   0.773  11.030  0.2242 -1.5361 -0.3178
  343MOL0     H46278   6.808   0.832  11.097  2.6926  1.3341 -1.9139
  343MOL0     H46279   6.763   0.673  10.844 -1.9745 -0.9762  1.6760
  343MOL0     H46280   6.911   0.759  10.863  1.8253 -3.7033 -0.6862
  343MOL0     H46281   6.915   0.596  11.090  2.2200 -2.6833 -0.6527
  343MOL0     H46282   6.963   0.545  10.936 -0.5708  0.0586 -0.5335
  343MOL0     H46283   6.688   0.519  11.066  0.5363  0.2436  0.1209
  343MOL0     H46284   6.711   0.470  10.905 -0.9171 -5.6866 -0.2442
  343MOL0     H46285   6.164   1.182  10.593  2.0426 -4.0822  0.6395
  343MOL0     H46286   6.035   1.245  10.378 -0.3772 -0.6912  1.0834
  343MOL0     H46287   5.857   1.443  10.049 -4.7436 -0.3651  0.1628
  343MOL0     H46288   5.679   1.397   9.916 -0.4161  0.2242  1.1496
  343MOL0     H46289   5.647   2.353   9.062 -2.2350 -0.3013  3.6804
  343MOL0     H46290   5.592   2.540   9.227 -0.4625 -2.3583  1.0310
  343MOL0     H46291   5.576   2.860   9.400  1.7795 -1.0489 -1.3493
  343MOL0     H46292   5.503   3.013   9.547 -1.4459 -0.2241  2.7527
  343MOL0     H46293   5.723   3.230   9.880 -0.5809  0.9148  0.9225
  343MOL0     H46294   5.665   3.085   9.966 -1.0332  0.6510  0.9585
  343MOL0     H46295   5.426   3.216   9.912  0.3520 -1.4387  0.1995
  343MOL0     H46296   5.516   3.355   9.882 -0.4797 -1.4162 -2.2310
  343MOL0     H46297   5.470   3.219  10.148 -1.3861 -0.5573 -1.5898
  343MOL0     H46298   5.431   3.370  10.097 -2.0647 -2.8077  2.6203
  343MOL0     H46299   5.720   3.281  10.131 -0.0537 -0.9734  1.9794
  343MOL0     H46300   5.661   3.446  10.095 -1.9727  1.3380  0.8703
  343MOL0     H46301   5.596   3.389  10.524  2.6792 -0.0416 -0.5517
  343MOL0     H46302   5.818   2.993   9.824  1.7634 -0.4702 -0.1004
  343MOL0     H46303   6.011   2.833   9.751  1.2679 -0.8029 -0.2370
  343MOL0     H46304   5.909   2.698   9.796 -1.9612 -0.4174 -0.5671
  343MOL0     H46305   5.988   2.704   9.635  2.3997  2.1721  0.0101
  344MOL0     O46306   5.519   5.303   3.562  0.4765  0.7459  0.9105
  344MOL0     C46307   5.467   5.341   3.669  0.1005 -0.2444 -0.0036
  344MOL0     O46308   5.509   5.453   3.734  0.3196 -0.9561 -0.5622
  344MOL0     C46309   5.633   5.499   3.706 -0.8178 -0.3329  0.2859
  344MOL0     C46310   5.659   5.561   3.580 -0.3007  0.2258  0.6254
  344MOL0     C46311   5.785   5.594   3.537  0.4709 -0.0865  0.3740
  344MOL0     C46312   5.892   5.562   3.624  0.1911 -0.2390  0.7340
  344MOL0     O46313   6.020   5.612   3.589  0.4854  0.2696  0.9240
  344MOL0     C46314   6.081   5.566   3.466 -0.3268  0.4649 -0.1497
  344MOL0     C46315   6.215   5.499   3.511  0.4890 -0.1931 -0.0003
  344MOL0     C46316   6.192   5.364   3.563  0.0337 -0.4496  0.1973
  344MOL0     C46317   6.309   5.272   3.567 -0.4614 -0.2218  0.6146
  344MOL0     C46318   6.377   5.236   3.431  0.6777  0.5013  0.6703
  344MOL0     C46319   6.280   5.170   3.335 -0.8159 -0.7988 -0.9222
  344MOL0     C46320   6.352   5.134   3.202  0.3085  0.4629 -0.6714
  344MOL0     C46321   6.395   4.995   3.208  0.2981 -0.3334 -0.9129
  344MOL0     N46322   6.445   4.952   3.078 -0.2067 -0.3976  0.2505
  344MOL0     C46323   6.579   4.934   3.049  0.5103  0.6966  0.7219
  344MOL0     C46324   6.578   4.879   2.921 -0.6235  0.1138 -0.5655
  344MOL0     C46325   6.702   4.830   2.853 -0.9335  0.3610  0.4730
  344MOL0     C46326   6.663   4.726   2.754 -0.4056 -0.2466  0.2527
  344MOL0     C46327   6.797   4.682   2.687  0.0798  0.2551 -0.4852
  344MOL0     C46328   6.781   4.540   2.622  0.3400  0.0893  0.3731
  344MOL0     O46329   6.658   4.539   2.541 -1.1597 -0.1919 -0.2994
  344MOL0     C46330   6.618   4.416   2.486  0.2812  0.5492  0.5818
  344MOL0     C46331   6.521   4.417   2.381  0.9500  0.2175  0.3246
  344MOL0     C46332   6.486   4.296   2.312  1.0415 -1.0020  0.4647
  344MOL0     C46333   6.540   4.168   2.348  0.3230 -0.0505  0.1501
  344MOL0     C46334   6.497   4.047   2.282  0.3012 -1.1050 -0.1663
  344MOL0     O46335   6.566   3.935   2.325  0.0077 -1.2839  0.5949
  344MOL0     C46336   6.556   3.811   2.258  0.9163  0.5622  1.0522
  344MOL0     C46337   6.581   3.696   2.319  0.6952  0.6354  0.0685
  344MOL0     C46338   6.576   3.571   2.251  1.2905  0.7725 -0.7023
  344MOL0     C46339   6.529   3.557   2.129  0.1233 -0.5157 -0.3329
  344MOL0     O46340   6.502   3.435   2.072  0.6036 -0.0618 -0.0963
  344MOL0     C46341   6.579   3.428   1.950  0.3480 -0.1742  0.4507
  344MOL0     C46342   6.548   3.291   1.896 -0.1775  0.3522 -0.9650
  344MOL0     C46343   6.591   3.268   1.755 -0.9103  0.2338  0.3932
  344MOL0     C46344   6.534   3.139   1.706  0.2363 -0.4279  0.1002
  344MOL0     C46345   6.545   3.137   1.550 -0.1850  0.2825  0.1083
  344MOL0     C46346   6.478   3.009   1.495 -0.9584 -0.5106 -0.1853
  344MOL0     C46347   6.519   2.885   1.568  1.1821  0.0900  0.1707
  344MOL0     C46348   6.475   2.768   1.481 -0.6975  0.2949 -0.0747
  344MOL0    Cl46349   6.536   2.769   1.328 -0.6434 -0.1628 -0.4170
  344MOL0     C46350   6.483   3.671   2.063  0.7054  0.2685 -0.5800
  344MOL0     C46351   6.503   3.795   2.126  0.4264  1.0121  0.3058
  344MOL0     O46352   6.396   4.047   2.219  1.0666 -0.1871  1.1043
  344MOL0     C46353   6.641   4.174   2.447  0.2241  0.6047  0.2999
  344MOL0     C46354   6.676   4.289   2.514 -0.6005  0.3615  0.5572
  344MOL0     N46355   6.447   4.866   2.883  1.0565  0.0589 -1.0210
  344MOL0     N46356   6.368   4.893   2.980  0.2099 -0.5431  0.0175
  344MOL0     C46357   5.871   5.498   3.740  0.4436 -1.1990  0.5383
  344MOL0     C46358   5.743   5.461   3.781 -1.0857 -0.1314  0.1962
  344MOL0     C46359   5.339   5.274   3.707 -0.3601 -0.0632 -0.0333
  344MOL0     C46360   5.306   5.149   3.648  0.5010 -0.8638 -0.5467
  344MOL0     C46361   5.191   5.078   3.679 -0.3302 -0.5768  0.9874
  344MOL0     C46362   5.097   5.130   3.777  0.1835 -0.3742 -0.6655
  344MOL0     O46363   4.977   5.077   3.814 -0.0549 -0.6144  0.6640
  344MOL0     C46364   4.873   5.132   3.751 -0.2424 -0.3825 -0.1294
  344MOL0     C46365   4.747   5.041   3.768 -0.3282  0.8637  0.0572
  344MOL0     C46366   4.767   4.902   3.718 -0.6984  0.1403 -0.7388
  344MOL0     C46367   4.634   4.834   3.685 -0.0300  0.2539 -0.0587
  344MOL0     C46368   4.654   4.692   3.661  0.6286 -0.1371  0.4315
  344MOL0     C46369   4.665   4.575   3.626 -0.0035 -0.1893 -0.2283
  344MOL0     C46370   5.128   5.256   3.831  0.8170 -0.3653  0.6308
  344MOL0     C46371   5.246   5.324   3.804  0.1198 -0.7263  0.8167
  344MOL0     C46372   5.256   5.463   3.865 -0.3357  0.0775 -0.1421
  344MOL0     H46373   5.572   5.588   3.522  0.7616 -2.7393 -2.7171
  344MOL0     H46374   5.806   5.656   3.450 -1.6005 -1.0365 -0.8858
  344MOL0     H46375   6.031   5.499   3.395  0.8401  1.5971 -2.1137
  344MOL0     H46376   6.093   5.654   3.403 -2.7531  0.9934  0.0133
  344MOL0     H46377   6.264   5.553   3.593  1.9636  0.7683 -1.4390
  344MOL0     H46378   6.288   5.501   3.430 -0.1702  0.7464 -0.5951
  344MOL0     H46379   6.120   5.316   3.497 -0.1746 -1.6069  1.2294
  344MOL0     H46380   6.153   5.381   3.664 -1.3745  4.3018 -0.8708
  344MOL0     H46381   6.386   5.312   3.634  1.9186 -0.4409 -1.8401
  344MOL0     H46382   6.268   5.180   3.610 -0.6878 -2.7325 -4.3274
  344MOL0     H46383   6.420   5.322   3.378 -0.3202 -0.6641 -2.2603
  344MOL0     H46384   6.456   5.163   3.446  1.1386  1.2515  2.0586
  344MOL0     H46385   6.241   5.078   3.378 -0.5787 -0.6961 -0.4857
  344MOL0     H46386   6.203   5.240   3.302 -2.4150 -2.0163  0.1019
  344MOL0     H46387   6.436   5.203   3.193 -0.8043  1.7511 -1.5312
  344MOL0     H46388   6.279   5.149   3.122 -1.3817 -0.0429  0.7204
  344MOL0     H46389   6.476   4.991   3.280 -0.4495 -0.3520 -0.0522
  344MOL0     H46390   6.314   4.929   3.242  2.2291 -1.2104  2.3985
  344MOL0     H46391   6.662   4.960   3.114  0.2110 -0.6319  1.7021
  344MOL0     H46392   6.758   4.912   2.806  1.2921 -1.9039 -1.0518
  344MOL0     H46393   6.775   4.779   2.916 -3.0096 -0.3849  2.3900
  344MOL0     H46394   6.617   4.641   2.805 -1.5015  0.4848  0.5299
  344MOL0     H46395   6.592   4.766   2.682  1.0554  0.3639 -0.8925
  344MOL0     H46396   6.887   4.673   2.748  0.9773  2.9965 -1.2785
  344MOL0     H46397   6.807   4.754   2.606  1.5115  0.5026 -0.1176
  344MOL0     H46398   6.760   4.475   2.707 -1.0756 -0.7554 -0.5850
  344MOL0     H46399   6.868   4.504   2.567 -0.3933  0.6042 -1.2016
  344MOL0     H46400   6.470   4.510   2.355  1.8133  0.3665 -0.9364
  344MOL0     H46401   6.395   4.302   2.254 -1.1250 -1.1643  3.5801
  344MOL0     H46402   6.609   3.696   2.424  3.7877  0.8891 -0.6606
  344MOL0     H46403   6.592   3.484   2.314 -2.7238 -0.6035 -1.2559
  344MOL0     H46404   6.564   3.499   1.868 -4.9324 -2.8236 -1.3794
  344MOL0     H46405   6.686   3.432   1.974  0.6544 -1.5557 -0.5897
  344MOL0     H46406   6.609   3.220   1.953 -0.0770 -0.5475 -2.1531
  344MOL0     H46407   6.451   3.253   1.928  0.8604 -3.6461 -1.9380
  344MOL0     H46408   6.555   3.350   1.692 -3.1008  0.2969  1.6239
  344MOL0     H46409   6.699   3.257   1.741 -0.9618 -2.0405  1.3548
  344MOL0     H46410   6.432   3.118   1.737  0.4325  0.1757  1.1876
  344MOL0     H46411   6.592   3.054   1.745  3.1049  1.8167  1.1041
  344MOL0     H46412   6.649   3.145   1.517  1.1298 -1.3009  3.4492
  344MOL0     H46413   6.493   3.223   1.506  0.4560  1.0943  0.8850
  344MOL0     H46414   6.369   3.019   1.491 -0.9515  0.3913 -5.6864
  344MOL0     H46415   6.488   3.005   1.386 -1.3411  0.3174 -0.2624
  344MOL0     H46416   6.476   2.877   1.669  1.0949  2.9990  0.4649
  344MOL0     H46417   6.626   2.863   1.568  1.5903  1.7951 -1.8038
  344MOL0     H46418   6.513   2.677   1.529  0.3507  1.6314  1.7555
  344MOL0     H46419   6.367   2.751   1.471 -0.8004 -0.7679  2.2122
  344MOL0     H46420   6.418   3.669   1.976  0.2708  0.0126 -0.2593
  344MOL0     H46421   6.478   3.872   2.053 -0.4747 -1.8580 -2.6549
  344MOL0     H46422   6.694   4.081   2.467 -2.2318 -0.4665  2.4635
  344MOL0     H46423   6.760   4.272   2.580 -1.3134 -1.1473  1.1307
  344MOL0     H46424   5.953   5.488   3.810  0.2346  3.1085  1.7224
  344MOL0     H46425   5.713   5.405   3.870 -1.2813  0.8973  0.7901
  344MOL0     H46426   5.365   5.095   3.575 -0.9195 -2.2524 -0.7392
  344MOL0     H46427   5.180   4.990   3.616 -1.6904  2.0139 -2.7390
  344MOL0     H46428   4.879   5.138   3.641 -2.2997 -0.2143 -0.2538
  344MOL0     H46429   4.852   5.229   3.794  0.0025  0.3591 -1.5995
  344MOL0     H46430   4.668   5.084   3.706  0.5119  0.2794 -1.4407
  344MOL0     H46431   4.709   5.024   3.870 -1.9278 -1.1652 -0.7971
  344MOL0     H46432   4.817   4.842   3.795  1.6467  4.9837  2.0050
  344MOL0     H46433   4.832   4.901   3.631 -1.2063  3.2887 -1.2894
  344MOL0     H46434   4.556   4.840   3.762 -0.1829  0.1153 -0.2009
  344MOL0     H46435   4.593   4.878   3.594  0.2312 -1.2973 -0.9681
  344MOL0     H46436   4.660   4.479   3.579  2.8007  0.4443 -2.0699
  344MOL0     H46437   5.050   5.304   3.889  2.8068  1.1864  2.2241
  344MOL0     H46438   5.284   5.530   3.784  0.2387 -1.2269 -1.0533
  344MOL0     H46439   5.162   5.494   3.912  0.7949  1.3328  1.4171
  344MOL0     H46440   5.345   5.471   3.929  1.8603  0.2576 -3.0437
  345MOL0     O46441   5.391  10.291   4.193 -0.2612 -0.1781 -0.2771
  345MOL0     C46442   5.432  10.191   4.251 -0.4878 -0.2128 -0.1402
  345MOL0     O46443   5.566  10.167   4.286  0.1723  0.5337  0.0759
  345MOL0     C46444   5.660  10.264   4.277  0.2444 -0.0136  0.0111
  345MOL0     C46445   5.783  10.239   4.213 -0.0684  0.1653  0.1317
  345MOL0     C46446   5.887  10.327   4.214 -0.1580 -1.1480 -0.1526
  345MOL0     C46447   5.864  10.456   4.267  0.0725  0.7452 -0.5503
  345MOL0     O46448   5.979  10.536   4.264 -0.3718  0.0398 -0.1825
  345MOL0     C46449   5.988  10.654   4.349  0.4788 -0.0056  0.5822
  345MOL0     C46450   6.096  10.753   4.315 -0.4810  0.6595 -0.0729
  345MOL0     C46451   6.075  10.830   4.189 -0.0679 -0.0499  0.0648
  345MOL0     C46452   6.176  10.935   4.165 -0.4615  0.2195  0.0535
  345MOL0     C46453   6.156  10.999   4.027 -0.0069  0.6154 -0.3259
  345MOL0     C46454   6.274  11.094   3.999  0.1591 -0.0913  0.2084
  345MOL0     C46455   6.419  11.028   3.997  0.5151  0.0735  0.7253
  345MOL0     C46456   6.412  10.890   3.932  0.5484 -0.1273 -0.2662
  345MOL0     N46457   6.545  10.837   3.945 -0.0911 -0.2965 -0.1698
  345MOL0     C46458   6.607  10.779   4.057 -0.2361 -0.7457 -0.0376
  345MOL0     C46459   6.729  10.752   4.014 -0.7346 -0.3964 -0.9933
  345MOL0     C46460   6.836  10.661   4.076 -0.9899 -0.5821  0.6228
  345MOL0     C46461   6.794  10.512   4.061 -0.3420  0.5397 -0.3850
  345MOL0     C46462   6.894  10.414   4.116 -0.2716  0.9204 -0.3901
  345MOL0     C46463   6.823  10.278   4.129 -1.0418 -0.3458 -0.3111
  345MOL0     O46464   6.780  10.210   4.008 -0.0112 -0.8596 -0.8525
  345MOL0     C46465   6.858  10.178   3.907 -1.0602 -0.0646 -0.3528
  345MOL0     C46466   6.788  10.152   3.794 -0.8151 -0.9064 -0.1644
  345MOL0     C46467   6.851  10.091   3.689  0.0174  0.7485 -0.1752
  345MOL0     C46468   6.986  10.059   3.685 -0.6680  0.8099 -1.1730
  345MOL0     C46469   7.048   9.990   3.579 -0.9474 -0.5143 -0.4568
  345MOL0     O46470   7.182   9.941   3.596  0.1558  0.6976  0.1425
  345MOL0     C46471   7.250   9.907   3.487 -0.2653  1.0169  0.4946
  345MOL0     C46472   7.268   9.994   3.380 -0.1507  0.3284 -0.7758
  345MOL0     C46473   7.343   9.962   3.266 -0.0554  0.0648  0.2109
  345MOL0     C46474   7.403   9.827   3.267  0.1051 -0.8068 -0.0268
  345MOL0     O46475   7.479   9.793   3.165  0.8989 -0.1137 -0.1295
  345MOL0     C46476   7.493   9.872   3.050  0.0018 -0.2769  0.5289
  345MOL0     C46477   7.593   9.823   2.956 -0.3753 -0.0132  0.1984
  345MOL0     C46478   7.542   9.706   2.874  0.0244  0.5655 -0.7781
  345MOL0     C46479   7.610   9.722   2.733  0.1659  0.1116 -0.6997
  345MOL0     C46480   7.584   9.587   2.653  0.9468 -0.2682 -0.3254
  345MOL0     C46481   7.649   9.573   2.521  0.2292 -0.8421  0.4251
  345MOL0     C46482   7.574   9.474   2.426 -1.1832 -0.1886  0.6575
  345MOL0     C46483   7.674   9.435   2.303 -0.4521 -0.1117 -0.2873
  345MOL0    Cl46484   7.595   9.315   2.193 -0.2117  0.1070 -0.0903
  345MOL0     C46485   7.389   9.740   3.372 -0.2438  0.0112  0.3529
  345MOL0     C46486   7.316   9.777   3.488  0.3720 -0.4196  0.2773
  345MOL0     O46487   6.974   9.974   3.490  0.3122 -0.2112 -0.2232
  345MOL0     C46488   7.060  10.098   3.800  0.3166  0.5116  0.3825
  345MOL0     C46489   6.996  10.157   3.910 -0.3226  0.2195  0.4635
  345MOL0     N46490   6.747  10.806   3.892 -0.8277  0.3274  0.2620
  345MOL0     N46491   6.643  10.863   3.854 -0.5108 -1.2181 -0.7248
  345MOL0     C46492   5.745  10.487   4.316 -0.0443 -0.5263 -0.7723
  345MOL0     C46493   5.636  10.397   4.320 -1.0007 -0.5063 -0.3286
  345MOL0     C46494   5.345  10.060   4.256 -0.0041  0.1534 -0.1243
  345MOL0     C46495   5.417   9.935   4.248 -0.2233  0.5447  0.6853
  345MOL0     C46496   5.353   9.815   4.253 -1.0690 -0.1407  0.3695
  345MOL0     C46497   5.218   9.805   4.279 -0.1430 -1.0036 -0.6017
  345MOL0     O46498   5.147   9.689   4.292  0.4070  0.5237 -0.3204
  345MOL0     C46499   5.204   9.560   4.261  0.2883 -0.4085 -0.1506
  345MOL0     C46500   5.187   9.538   4.116 -0.4984  0.0103 -0.1229
  345MOL0     C46501   5.272   9.428   4.048 -0.4137  0.2231  0.0370
  345MOL0     C46502   5.253   9.434   3.899  0.0625  0.2171  0.6452
  345MOL0     C46503   5.343   9.348   3.829 -0.4373  0.6417 -0.1521
  345MOL0     C46504   5.402   9.266   3.764 -0.3517  0.5994  0.4806
  345MOL0     C46505   5.152   9.928   4.297  0.1021  0.4379  0.1195
  345MOL0     C46506   5.208  10.051   4.278 -0.5822  0.3310  0.0009
  345MOL0     C46507   5.105  10.160   4.311 -0.6478 -0.0223  0.4725
  345MOL0     H46508   5.808  10.144   4.167 -2.9900 -1.0297  0.8052
  345MOL0     H46509   5.981  10.304   4.164  0.2907  0.0658  0.1109
  345MOL0     H46510   5.896  10.713   4.350  0.3741  0.0083 -2.0347
  345MOL0     H46511   5.997  10.621   4.452 -0.0178 -0.4401  0.4922
  345MOL0     H46512   6.187  10.693   4.309 -0.9523  0.0481 -1.3896
  345MOL0     H46513   6.096  10.823   4.399  0.0524 -0.1209  0.5878
  345MOL0     H46514   5.975  10.876   4.192  0.3021  0.7614  0.1201
  345MOL0     H46515   6.078  10.757   4.108  1.1143  0.1577 -0.0924
  345MOL0     H46516   6.175  11.002   4.252 -0.1387 -1.4738  1.4116
  345MOL0     H46517   6.275  10.889   4.164 -0.4088  0.2748  1.1809
  345MOL0     H46518   6.149  10.912   3.962  2.3196  0.6874 -0.7785
  345MOL0     H46519   6.062  11.054   4.024 -0.0743  0.7609  2.2222
  345MOL0     H46520   6.248  11.139   3.902  1.2625 -1.3197 -0.6861
  345MOL0     H46521   6.263  11.180   4.066  1.2987  0.7273 -0.6040
  345MOL0     H46522   6.462  11.009   4.096 -0.0680 -2.0659  0.5984
  345MOL0     H46523   6.480  11.100   3.942  3.2551 -1.4200  1.6248
  345MOL0     H46524   6.339  10.824   3.980  0.8660  0.8399  1.6219
  345MOL0     H46525   6.390  10.914   3.828  4.7545  0.5912 -1.2013
  345MOL0     H46526   6.549  10.746   4.143  2.7431 -2.5950  1.4527
  345MOL0     H46527   6.934  10.673   4.030 -0.8355 -4.8418 -0.5860
  345MOL0     H46528   6.852  10.685   4.182 -0.5647 -0.2256  0.4841
  345MOL0     H46529   6.690  10.500   4.092 -0.3414  1.3491 -0.0698
  345MOL0     H46530   6.786  10.490   3.954  0.9870  1.7796 -0.7640
  345MOL0     H46531   6.926  10.445   4.216 -0.0652 -3.6397  1.2040
  345MOL0     H46532   6.982  10.407   4.052  0.0713  4.5545 -0.5267
  345MOL0     H46533   6.738  10.284   4.198 -1.2424  1.8466 -0.6960
  345MOL0     H46534   6.905  10.217   4.169 -0.5563 -0.4166 -1.3866
  345MOL0     H46535   6.683  10.177   3.788 -0.0554  3.3298  1.1468
  345MOL0     H46536   6.803  10.066   3.595 -0.2778  4.4048 -1.1105
  345MOL0     H46537   7.228  10.095   3.382  0.5764  0.6305 -1.0359
  345MOL0     H46538   7.363  10.035   3.188  0.9884  0.1927  0.5828
  345MOL0     H46539   7.400   9.886   2.994 -0.9695 -4.3201  0.8030
  345MOL0     H46540   7.543   9.966   3.076  1.7194 -0.0778 -2.9336
  345MOL0     H46541   7.630   9.908   2.898 -0.1113  0.7709  1.4605
  345MOL0     H46542   7.675   9.786   3.019 -2.0194 -2.4107  1.0517
  345MOL0     H46543   7.584   9.623   2.931 -1.6408  0.9532  1.1386
  345MOL0     H46544   7.433   9.695   2.881 -0.0328 -0.5366 -2.6241
  345MOL0     H46545   7.712   9.757   2.751 -0.8656  2.1829  1.7934
  345MOL0     H46546   7.559   9.802   2.678 -1.9019  0.5556  1.7084
  345MOL0     H46547   7.481   9.598   2.620  1.3668  0.4144 -1.4677
  345MOL0     H46548   7.598   9.494   2.709  3.3255 -0.6674 -1.4473
  345MOL0     H46549   7.649   9.666   2.465 -1.9108  0.7850  2.8757
  345MOL0     H46550   7.754   9.548   2.538  0.3031 -1.7708 -1.2269
  345MOL0     H46551   7.489   9.523   2.378 -1.9169 -3.1607 -1.3769
  345MOL0     H46552   7.540   9.388   2.485  1.9403 -1.1223  1.3031
  345MOL0     H46553   7.705   9.514   2.234 -3.0594  0.2949 -1.0959
  345MOL0     H46554   7.766   9.391   2.344 -1.3205  1.7363  4.3340
  345MOL0     H46555   7.425   9.637   3.370 -0.5318 -0.0967  0.5923
  345MOL0     H46556   7.284   9.709   3.566 -2.4459  2.3715  1.8084
  345MOL0     H46557   7.165  10.072   3.813  1.0061  2.3013 -1.1629
  345MOL0     H46558   7.057  10.185   3.995  0.7654 -0.6686 -0.0012
  345MOL0     H46559   5.723  10.589   4.346  1.5227 -0.7694  1.4899
  345MOL0     H46560   5.537  10.424   4.355 -0.5564 -0.8570  1.2414
  345MOL0     H46561   5.524   9.937   4.234  0.0970 -2.1282  2.0761
  345MOL0     H46562   5.403   9.721   4.234 -0.3902  0.6840 -2.3392
  345MOL0     H46563   5.150   9.476   4.305 -1.1020  0.8056  0.5251
  345MOL0     H46564   5.309   9.539   4.286  1.2494 -0.9459 -3.9652
  345MOL0     H46565   5.226   9.629   4.069 -0.7277 -0.3014 -0.9396
  345MOL0     H46566   5.082   9.512   4.098 -0.6939 -0.3654  1.4049
  345MOL0     H46567   5.235   9.333   4.088  2.7025 -1.4285 -0.7146
  345MOL0     H46568   5.377   9.449   4.070 -0.4237  1.6237 -1.0633
  345MOL0     H46569   5.150   9.406   3.876  0.4921  0.2403 -1.4607
  345MOL0     H46570   5.280   9.536   3.872  1.7603  0.7862  3.9305
  345MOL0     H46571   5.449   9.182   3.718  1.1280  1.0278  1.1691
  345MOL0     H46572   5.044   9.922   4.308  0.0826  1.3862  0.5647
  345MOL0     H46573   5.153  10.259   4.308 -0.3036 -0.1088  2.0143
  345MOL0     H46574   5.040  10.164   4.223  0.8112 -1.0434 -0.6985
  345MOL0     H46575   5.046  10.142   4.402  1.0553 -1.1652  1.4157
  346MOL0     O46576   1.459   2.436   4.786  1.3268 -0.1579 -0.3415
  346MOL0     C46577   1.434   2.430   4.662 -0.4764  0.5013 -0.0982
  346MOL0     O46578   1.418   2.542   4.578 -0.1843 -0.2731 -0.0736
  346MOL0     C46579   1.376   2.665   4.622 -0.6231  0.3828 -0.5587
  346MOL0     C46580   1.322   2.696   4.740  0.3498  0.2620 -0.0291
  346MOL0     C46581   1.273   2.815   4.777  0.3223  0.1300  0.0728
  346MOL0     C46582   1.293   2.923   4.692 -0.7410  0.2383  0.2034
  346MOL0     O46583   1.285   3.050   4.742  0.2181  0.4707 -0.4482
  346MOL0     C46584   1.151   3.076   4.794 -0.0321 -1.2427 -0.3551
  346MOL0     C46585   1.127   3.229   4.803  0.1989 -0.4219 -0.4731
  346MOL0     C46586   0.979   3.256   4.796 -0.0494  0.5330 -0.6224
  346MOL0     C46587   0.915   3.262   4.936 -0.2543  0.5683  0.3355
  346MOL0     C46588   0.766   3.306   4.950  0.0750  0.5947 -0.3699
  346MOL0     C46589   0.724   3.448   4.909  0.1190  0.0303 -0.5736
  346MOL0     C46590   0.574   3.464   4.906  0.1076 -0.6221 -0.3939
  346MOL0     C46591   0.522   3.610   4.906  0.1677 -0.1698  0.2178
  346MOL0     N46592   0.376   3.593   4.919 -0.2677 -0.7896  0.6386
  346MOL0     C46593   0.312   3.564   5.035  0.0775 -0.4213 -0.4592
  346MOL0     C46594   0.184   3.577   5.008  1.1043 -0.0729 -0.1886
  346MOL0     C46595   0.077   3.536   5.107  0.4475 -0.2370 -0.0571
  346MOL0     C46596   0.080   3.626   5.226 -0.8858 -0.1851  0.1994
  346MOL0     C46597   0.020   3.771   5.201 -0.4761  0.0121 -0.1053
  346MOL0     C46598  -0.014   3.820   5.343 -0.3381 -0.0137  0.2952
  346MOL0     O46599  -0.119   3.745   5.401  0.5216  0.5549  0.5418
  346MOL0     C46600  -0.246   3.806   5.378  0.6662  0.3951 -0.0816
  346MOL0     C46601  -0.336   3.751   5.285 -0.0664  0.7900  0.0692
  346MOL0     C46602  -0.450   3.827   5.253 -0.5660  0.0244 -0.1890
  346MOL0     C46603  -0.472   3.956   5.314  0.0341  0.5223  0.0855
  346MOL0     C46604  -0.590   4.034   5.265  0.3681  0.6857 -0.6732
  346MOL0     O46605  -0.621   4.151   5.337 -0.1555  0.1265 -0.3276
  346MOL0     C46606  -0.721   4.234   5.303  1.6045 -0.8160  0.4845
  346MOL0     C46607  -0.774   4.246   5.171 -0.9254 -0.1006  1.5856
  346MOL0     C46608  -0.884   4.334   5.144  0.2553  0.9427  0.2088
  346MOL0     C46609  -0.954   4.405   5.250  0.3666 -0.3279 -0.6010
  346MOL0     O46610  -1.066   4.479   5.232  0.2325  0.1769  0.0686
  346MOL0     C46611  -1.147   4.436   5.131  1.2739 -0.4823  0.3692
  346MOL0     C46612  -1.244   4.554   5.112 -0.0233  0.8483  0.6802
  346MOL0     C46613  -1.364   4.513   5.020 -0.5261  0.1250 -0.2393
  346MOL0     C46614  -1.324   4.466   4.868  0.5755 -0.7653 -0.0624
  346MOL0     C46615  -1.456   4.463   4.784  0.3228  0.7446  0.3524
  346MOL0     C46616  -1.420   4.429   4.643  0.7538  0.3487  0.0268
  346MOL0     C46617  -1.541   4.462   4.549  0.5251 -1.2728  0.3012
  346MOL0     C46618  -1.661   4.369   4.579 -0.6202  0.2631  0.0539
  346MOL0    Cl46619  -1.796   4.395   4.461  0.0223  0.1653  0.0489
  346MOL0     C46620  -0.900   4.400   5.375  0.0499  0.3219  0.6085
  346MOL0     C46621  -0.775   4.324   5.389  0.7638 -0.4874  0.5043
  346MOL0     O46622  -0.654   3.997   5.164 -0.1404 -0.4219 -0.3229
  346MOL0     C46623  -0.390   4.001   5.411 -0.4021 -0.0816  0.5543
  346MOL0     C46624  -0.274   3.933   5.437  0.1635  0.7151  0.3096
  346MOL0     N46625   0.166   3.603   4.874  0.5413  1.0164 -0.1481
  346MOL0     N46626   0.288   3.619   4.816  0.9238 -0.5517 -0.2564
  346MOL0     C46627   1.348   2.900   4.571  1.6290  0.2736  0.2657
  346MOL0     C46628   1.389   2.771   4.531  0.1456 -0.3368  0.0668
  346MOL0     C46629   1.444   2.289   4.608 -0.1791 -0.9334  0.3229
  346MOL0     C46630   1.508   2.279   4.482 -0.0370  0.6750  0.9399
  346MOL0     C46631   1.529   2.151   4.417 -0.3218 -0.2794  0.6664
  346MOL0     C46632   1.505   2.034   4.485  1.0228  0.0180  0.0461
  346MOL0     O46633   1.529   1.917   4.423  0.1030  0.1202 -0.5800
  346MOL0     C46634   1.663   1.902   4.366  1.0164 -0.1127  0.3120
  346MOL0     C46635   1.730   1.761   4.353  0.7682  0.3795 -0.4366
  346MOL0     C46636   1.630   1.631   4.348 -0.7384  0.3540 -0.1696
  346MOL0     C46637   1.703   1.505   4.330  0.1209 -0.1836 -0.8206
  346MOL0     C46638   1.770   1.502   4.201 -0.1215  0.2281  0.0780
  346MOL0     C46639   1.844   1.496   4.104  0.2222 -0.8460 -0.0164
  346MOL0     C46640   1.431   2.048   4.611  0.4551 -0.0259  0.1468
  346MOL0     C46641   1.400   2.174   4.667  0.1715  0.5614  0.7492
  346MOL0     C46642   1.324   2.175   4.792 -0.3662 -1.1243 -0.0844
  346MOL0     H46643   1.315   2.609   4.804  1.9649 -0.6838 -1.0704
  346MOL0     H46644   1.244   2.827   4.881  2.1367  1.3054  0.4991
  346MOL0     H46645   1.078   3.015   4.740 -0.7922 -0.0941 -0.6542
  346MOL0     H46646   1.143   3.043   4.898 -1.0857 -1.0625 -0.3728
  346MOL0     H46647   1.183   3.283   4.727  0.0977  0.9604  0.3921
  346MOL0     H46648   1.175   3.262   4.896 -1.1935 -2.6159  1.1358
  346MOL0     H46649   0.917   3.190   4.734  1.4846 -1.0089 -0.5878
  346MOL0     H46650   0.974   3.353   4.745  1.0528  0.6879 -0.4589
  346MOL0     H46651   0.924   3.162   4.979 -1.0610  1.8029  3.6453
  346MOL0     H46652   0.964   3.328   5.009 -0.5309  1.9415 -0.6798
  346MOL0     H46653   0.705   3.228   4.901 -1.1584  1.0846  0.3385
  346MOL0     H46654   0.750   3.295   5.057 -1.8876  1.4075 -0.5330
  346MOL0     H46655   0.768   3.508   4.989 -1.3516 -0.0328  0.3168
  346MOL0     H46656   0.773   3.468   4.813 -0.5519 -0.5587 -1.0504
  346MOL0     H46657   0.532   3.420   4.997  0.4086 -1.0712 -0.4651
  346MOL0     H46658   0.534   3.408   4.821  0.1702 -2.5990  0.8135
  346MOL0     H46659   0.556   3.670   4.991  1.1115 -0.5510  0.1198
  346MOL0     H46660   0.546   3.662   4.813  1.9957 -0.2329  0.6268
  346MOL0     H46661   0.372   3.532   5.120  1.9352  3.0476 -0.3053
  346MOL0     H46662  -0.024   3.531   5.065  0.2696  0.2864  0.3064
  346MOL0     H46663   0.095   3.432   5.137  1.4238  0.2330  1.0611
  346MOL0     H46664   0.023   3.564   5.295  1.5858 -1.6774  1.0076
  346MOL0     H46665   0.177   3.637   5.275  0.6109  1.5760 -2.8264
  346MOL0     H46666  -0.072   3.777   5.142  0.1482  6.3273 -1.1526
  346MOL0     H46667   0.093   3.844   5.164 -0.1265  0.4823  1.4362
  346MOL0     H46668  -0.044   3.925   5.332  1.6961  0.4376 -1.7125
  346MOL0     H46669   0.073   3.824   5.410  0.0115  1.1854 -0.2122
  346MOL0     H46670  -0.313   3.658   5.235  0.0190  0.2773  1.0377
  346MOL0     H46671  -0.510   3.793   5.169 -2.1465 -0.3768  1.0515
  346MOL0     H46672  -0.735   4.190   5.087 -1.9894  0.5601  0.6322
  346MOL0     H46673  -0.934   4.318   5.048  0.7258 -1.9049  0.3565
  346MOL0     H46674  -1.093   4.417   5.038  2.2389  2.5943  0.1709
  346MOL0     H46675  -1.193   4.344   5.168  0.7925  0.4850  2.3095
  346MOL0     H46676  -1.266   4.583   5.215  1.8566  2.7677  0.6156
  346MOL0     H46677  -1.188   4.642   5.079 -0.2315  2.1209  3.4442
  346MOL0     H46678  -1.416   4.429   5.067  1.7920 -2.4853 -2.0335
  346MOL0     H46679  -1.421   4.607   5.013 -2.6056 -1.1258 -1.0168
  346MOL0     H46680  -1.271   4.370   4.869  4.0273  0.9708  1.4598
  346MOL0     H46681  -1.259   4.543   4.827 -0.6168  0.9334  1.1098
  346MOL0     H46682  -1.500   4.564   4.783  0.7098  0.9568 -2.3252
  346MOL0     H46683  -1.537   4.401   4.823 -0.7578  1.2618 -0.9917
  346MOL0     H46684  -1.341   4.502   4.621  0.3292  1.5666  2.1836
  346MOL0     H46685  -1.397   4.322   4.644 -2.2994 -0.4287  1.9840
  346MOL0     H46686  -1.507   4.468   4.445 -1.8387 -2.9718 -0.6374
  346MOL0     H46687  -1.572   4.567   4.560 -1.4504 -1.8776  0.9782
  346MOL0     H46688  -1.627   4.266   4.569 -2.4026 -0.4935  1.4477
  346MOL0     H46689  -1.708   4.379   4.677  0.7339  1.3352  0.6367
  346MOL0     H46690  -0.949   4.460   5.451 -2.4353  1.5760 -1.8151
  346MOL0     H46691  -0.736   4.322   5.490 -1.1586  1.1085  1.3545
  346MOL0     H46692  -0.409   4.093   5.466  2.6474  0.9861  0.0195
  346MOL0     H46693  -0.217   3.966   5.523  0.2437  0.1514  0.4777
  346MOL0     H46694   1.365   2.976   4.495  0.8500 -1.1490 -1.4196
  346MOL0     H46695   1.425   2.742   4.433  0.8528 -0.1910  0.2773
  346MOL0     H46696   1.540   2.373   4.439  2.0404  0.6563  2.3229
  346MOL0     H46697   1.572   2.161   4.318 -0.5451 -1.0549  0.4819
  346MOL0     H46698   1.731   1.973   4.413 -1.4747  2.0505  0.9417
  346MOL0     H46699   1.648   1.942   4.265  2.8582 -1.1579 -0.4138
  346MOL0     H46700   1.800   1.744   4.435  0.7318  0.1994 -0.4418
  346MOL0     H46701   1.785   1.757   4.258  0.4008 -4.9338 -0.7685
  346MOL0     H46702   1.557   1.643   4.267 -0.0026 -1.1005 -1.0931
  346MOL0     H46703   1.574   1.632   4.442 -0.4332 -0.3201  0.0239
  346MOL0     H46704   1.754   1.475   4.422 -1.3800 -2.5136 -0.6733
  346MOL0     H46705   1.623   1.431   4.317  1.9826 -2.3379 -0.5937
  346MOL0     H46706   1.905   1.487   4.016  0.7757  4.7831 -0.5566
  346MOL0     H46707   1.393   1.967   4.673  2.0705 -0.1518  1.0027
  346MOL0     H46708   1.261   2.265   4.804  2.3275  0.6805  1.6042
  346MOL0     H46709   1.250   2.094   4.797  0.0085 -1.5067 -0.7149
  346MOL0     H46710   1.393   2.159   4.875 -1.3603 -1.1020  0.7795
  347MOL0     O46711   3.939   3.083   7.485  0.2484 -0.9390  0.0083
  347MOL0     C46712   4.007   3.081   7.383 -0.4803 -1.1516 -0.1877
  347MOL0     O46713   4.137   3.141   7.373  0.5785  0.4227 -0.7925
  347MOL0     C46714   4.185   3.198   7.488 -0.0352 -0.9372  0.0519
  347MOL0     C46715   4.193   3.337   7.506  0.7709 -1.0949  1.5801
  347MOL0     C46716   4.245   3.389   7.631  0.3200 -0.1029  0.1179
  347MOL0     C46717   4.293   3.302   7.727 -0.6889  0.4453 -0.0882
  347MOL0     O46718   4.345   3.348   7.836  0.0060 -0.0326 -0.5048
  347MOL0     C46719   4.345   3.266   7.954 -0.4687  0.3513 -0.5134
  347MOL0     C46720   4.372   3.355   8.081  0.1720 -0.1912 -0.8685
  347MOL0     C46721   4.500   3.432   8.059 -0.9015  0.5676 -0.0056
  347MOL0     C46722   4.563   3.494   8.183 -0.0128  0.5525 -0.5625
  347MOL0     C46723   4.671   3.609   8.163 -0.3017  1.4533  0.0217
  347MOL0     C46724   4.742   3.637   8.302 -0.2087  1.7506  0.6407
  347MOL0     C46725   4.824   3.759   8.288 -0.8463 -0.6555  0.3190
  347MOL0     C46726   4.900   3.782   8.420  0.0034  0.2011 -0.1895
  347MOL0     N46727   5.009   3.889   8.403  0.1163 -0.1127  0.2428
  347MOL0     C46728   4.992   3.999   8.318  0.5529 -0.7286 -0.7708
  347MOL0     C46729   5.101   4.082   8.335  0.0432  1.0455 -0.9990
  347MOL0     C46730   5.146   4.213   8.295  0.5490 -0.5148  0.0379
  347MOL0     C46731   5.086   4.319   8.388  1.3832 -0.8185 -0.6335
  347MOL0     C46732   4.933   4.332   8.380  0.2317 -0.1547 -0.1966
  347MOL0     C46733   4.881   4.480   8.418 -0.4503  0.2928 -0.4511
  347MOL0     O46734   4.737   4.500   8.426  0.3059  0.4626 -0.5911
  347MOL0     C46735   4.699   4.629   8.449 -0.0348 -0.3597 -0.3156
  347MOL0     C46736   4.584   4.646   8.540  0.2122 -0.5365 -0.1883
  347MOL0     C46737   4.527   4.773   8.568 -0.1306  0.5313  0.5631
  347MOL0     C46738   4.581   4.887   8.507  0.3497 -0.1016  0.2313
  347MOL0     C46739   4.524   5.023   8.528  0.7756  0.2557 -0.7695
  347MOL0     O46740   4.593   5.132   8.473  0.0786 -0.1302 -0.0524
  347MOL0     C46741   4.547   5.257   8.497 -0.4214 -0.4996 -0.1618
  347MOL0     C46742   4.573   5.316   8.617 -0.5356  0.1306  0.3060
  347MOL0     C46743   4.524   5.449   8.646  0.5715  0.8323 -0.3407
  347MOL0     C46744   4.453   5.516   8.543 -0.4703  0.5155 -0.2183
  347MOL0     O46745   4.415   5.649   8.549  1.2175  1.0533 -0.6819
  347MOL0     C46746   4.444   5.728   8.662 -0.4124  0.7370  0.2665
  347MOL0     C46747   4.344   5.692   8.773  0.1883  0.4792  0.1645
  347MOL0     C46748   4.404   5.740   8.906 -0.0083 -0.3745 -0.5157
  347MOL0     C46749   4.354   5.659   9.030  0.0098  0.1155  0.2165
  347MOL0     C46750   4.398   5.717   9.164 -0.2183  0.2456  0.6471
  347MOL0     C46751   4.546   5.671   9.174  0.2627  0.6255  0.9522
  347MOL0     C46752   4.600   5.683   9.318  0.1131  0.3671 -0.1889
  347MOL0     C46753   4.706   5.581   9.350  0.1701  0.4836  0.2334
  347MOL0    Cl46754   4.799   5.624   9.490  0.2799  0.2111 -0.2081
  347MOL0     C46755   4.438   5.455   8.422  0.2287 -0.1686  0.5805
  347MOL0     C46756   4.482   5.324   8.396 -0.6069  0.1440 -0.1777
  347MOL0     O46757   4.420   5.025   8.607 -0.5102  0.7611 -0.0675
  347MOL0     C46758   4.688   4.866   8.416  0.1030 -0.3365 -0.6183
  347MOL0     C46759   4.746   4.737   8.388  0.0319  0.3025  0.2000
  347MOL0     N46760   5.187   3.998   8.413 -0.1627 -0.5016 -0.5447
  347MOL0     N46761   5.136   3.887   8.456  0.0377  0.3442  0.5437
  347MOL0     C46762   4.294   3.156   7.703  0.6330 -1.2632  0.0831
  347MOL0     C46763   4.235   3.117   7.579 -0.1452  0.7890 -0.1321
  347MOL0     C46764   3.961   3.034   7.248 -0.1373  0.4265 -0.4747
  347MOL0     C46765   4.030   3.077   7.133 -0.2870 -0.2115  0.3121
  347MOL0     C46766   3.972   3.059   7.007 -0.3912 -0.2758 -0.7214
  347MOL0     C46767   3.849   2.987   6.982 -0.5254 -0.1296  0.7566
  347MOL0     O46768   3.778   2.974   6.859 -0.1830 -0.0331 -0.4980
  347MOL0     C46769   3.847   3.005   6.739  0.3572  0.0874  1.4910
  347MOL0     C46770   3.742   3.063   6.637  0.0150 -0.1993 -0.3824
  347MOL0     C46771   3.792   3.090   6.498 -0.1998  0.5572  0.1718
  347MOL0     C46772   3.669   3.100   6.396 -0.6586 -0.6028 -0.9540
  347MOL0     C46773   3.614   2.970   6.370  0.0762  0.5933 -0.4639
  347MOL0     C46774   3.563   2.861   6.346 -0.2475  0.2626 -0.2165
  347MOL0     C46775   3.781   2.939   7.093  0.1182  0.5030  1.4825
  347MOL0     C46776   3.832   2.964   7.224 -0.7526 -0.0420 -0.0942
  347MOL0     C46777   3.751   2.899   7.336  0.7659 -0.1714  0.0974
  347MOL0     H46778   4.144   3.404   7.436  1.6316 -0.2964  1.7177
  347MOL0     H46779   4.224   3.494   7.649  1.6461  0.0501  0.9382
  347MOL0     H46780   4.248   3.220   7.972  0.4790 -1.1333  1.2306
  347MOL0     H46781   4.425   3.193   7.936  0.8479  2.3208 -3.3102
  347MOL0     H46782   4.366   3.302   8.177  2.3506  0.8150 -0.1139
  347MOL0     H46783   4.295   3.433   8.074  0.7263  0.3798 -0.6774
  347MOL0     H46784   4.472   3.518   7.996  0.7692  0.7345 -0.5753
  347MOL0     H46785   4.574   3.371   8.007  0.2406  1.5495  0.4227
  347MOL0     H46786   4.481   3.536   8.243 -1.4677  1.1881 -2.8249
  347MOL0     H46787   4.607   3.406   8.230 -0.2865  1.7491  2.0769
  347MOL0     H46788   4.736   3.581   8.080  0.1860 -0.5207  1.0050
  347MOL0     H46789   4.611   3.695   8.134 -1.4088  0.7814  0.2390
  347MOL0     H46790   4.667   3.630   8.382 -2.1549 -0.3567 -1.1915
  347MOL0     H46791   4.808   3.555   8.331 -1.8586 -0.7466 -2.0864
  347MOL0     H46792   4.758   3.843   8.264 -0.6710 -0.4568  0.5262
  347MOL0     H46793   4.896   3.742   8.208  0.0839  1.2672  0.6697
  347MOL0     H46794   4.825   3.804   8.496  0.4427  2.1500 -0.2708
  347MOL0     H46795   4.942   3.686   8.451 -5.0799 -2.6438 -0.8426
  347MOL0     H46796   4.900   4.028   8.269 -0.1337 -2.4803 -0.5857
  347MOL0     H46797   5.254   4.214   8.308  0.5322 -0.7599  0.2165
  347MOL0     H46798   5.117   4.223   8.190  0.6861  2.3340  0.1927
  347MOL0     H46799   5.117   4.298   8.491 -1.6413 -2.8704  0.0036
  347MOL0     H46800   5.125   4.417   8.360 -1.4050  0.3121 -0.9328
  347MOL0     H46801   4.894   4.254   8.445  3.0743 -1.8018 -0.3202
  347MOL0     H46802   4.906   4.311   8.276  1.7288  0.2472 -0.6866
  347MOL0     H46803   4.930   4.557   8.357 -1.0577 -0.1813 -1.5733
  347MOL0     H46804   4.920   4.499   8.518 -1.6095 -3.1771  0.8115
  347MOL0     H46805   4.522   4.563   8.573 -0.6550  0.4280  0.6866
  347MOL0     H46806   4.442   4.778   8.635  1.4953 -2.3921  3.1396
  347MOL0     H46807   4.636   5.258   8.685 -1.6843 -1.3642  0.1318
  347MOL0     H46808   4.535   5.497   8.743 -3.7753 -0.0672  0.8299
  347MOL0     H46809   4.546   5.721   8.698 -1.6417  1.9230  4.5511
  347MOL0     H46810   4.422   5.831   8.630 -0.2220 -0.0229 -2.5914
  347MOL0     H46811   4.251   5.743   8.743  0.6255  1.1916 -0.0089
  347MOL0     H46812   4.328   5.585   8.782  0.7315  0.5378  2.5202
  347MOL0     H46813   4.513   5.738   8.906  0.1143  2.2553  0.5145
  347MOL0     H46814   4.365   5.841   8.922  0.9159 -0.1576  0.4623
  347MOL0     H46815   4.385   5.556   9.008 -2.1597 -0.1342 -2.0890
  347MOL0     H46816   4.245   5.657   9.028 -0.0468 -1.6539  1.8243
  347MOL0     H46817   4.344   5.656   9.237  0.1488  2.5851  3.0288
  347MOL0     H46818   4.375   5.823   9.179 -1.7264 -0.1484  1.3274
  347MOL0     H46819   4.553   5.564   9.152 -0.6635 -0.0967  3.7225
  347MOL0     H46820   4.601   5.729   9.100 -1.2744 -2.7750 -3.2455
  347MOL0     H46821   4.511   5.666   9.380 -1.5345 -0.2807 -2.5751
  347MOL0     H46822   4.657   5.776   9.324 -0.8134  1.0610 -1.5112
  347MOL0     H46823   4.659   5.484   9.371  2.3455 -1.4903 -3.0539
  347MOL0     H46824   4.762   5.554   9.260 -0.1216 -0.1997  0.2456
  347MOL0     H46825   4.398   5.503   8.334 -0.4040 -1.6789  0.0012
  347MOL0     H46826   4.464   5.284   8.297  0.6927 -1.7211  0.2887
  347MOL0     H46827   4.728   4.953   8.365  0.2364 -1.8356 -3.2929
  347MOL0     H46828   4.824   4.740   8.313 -1.4700  0.5944 -1.3980
  347MOL0     H46829   4.329   3.079   7.770 -2.5134 -2.7902  0.1631
  347MOL0     H46830   4.237   3.008   7.577 -2.9110  0.5937  2.3530
  347MOL0     H46831   4.121   3.136   7.141  0.7760 -1.9579  2.0312
  347MOL0     H46832   4.028   3.105   6.926 -4.2208  1.6247 -2.5140
  347MOL0     H46833   3.881   2.910   6.696 -0.9575  0.5754 -0.8272
  347MOL0     H46834   3.931   3.075   6.734  2.1375 -2.0271 -1.4104
  347MOL0     H46835   3.704   3.154   6.685 -1.6798  0.3488 -2.5797
  347MOL0     H46836   3.664   2.987   6.627  0.8683 -1.1936  0.4035
  347MOL0     H46837   3.859   3.011   6.466 -1.5669 -0.4888 -0.1979
  347MOL0     H46838   3.840   3.188   6.512 -3.5769  2.1648  1.7496
  347MOL0     H46839   3.597   3.174   6.431  0.3613  1.6527 -3.2716
  347MOL0     H46840   3.716   3.147   6.309 -1.5678  2.0188 -0.1299
  347MOL0     H46841   3.523   2.763   6.364  0.8013  0.2283  2.3188
  347MOL0     H46842   3.688   2.903   7.052  0.7665  2.5803 -2.2451
  347MOL0     H46843   3.666   2.962   7.363 -0.6088 -1.3813 -1.2699
  347MOL0     H46844   3.702   2.807   7.305 -0.6216  0.0117  1.6094
  347MOL0     H46845   3.799   2.858   7.425 -2.1031 -2.0844  0.8868
  348MOL0     O46846   0.062   0.059   8.224  0.3658 -0.2924  0.0216
  348MOL0     C46847   0.171   0.121   8.242  0.4340  0.7600 -0.0598
  348MOL0     O46848   0.225   0.201   8.149  0.3930  0.7165  0.0294
  348MOL0     C46849   0.128   0.267   8.083  0.8663  0.2158  0.2803
  348MOL0     C46850   0.109   0.251   7.952 -0.6916  0.2510  0.3769
  348MOL0     C46851   0.022   0.318   7.872  0.9862 -0.1028 -0.3225
  348MOL0     C46852  -0.064   0.416   7.925 -0.7031 -0.3732 -0.8137
  348MOL0     O46853  -0.136   0.514   7.851 -0.3042 -0.3129 -0.0580
  348MOL0     C46854  -0.173   0.476   7.719  1.1120 -0.0522 -0.3085
  348MOL0     C46855  -0.269   0.594   7.681 -0.4412  0.4533  0.2667
  348MOL0     C46856  -0.308   0.591   7.525 -0.3264 -0.0612 -1.3590
  348MOL0     C46857  -0.384   0.720   7.475 -0.0003 -0.9417 -0.2014
  348MOL0     C46858  -0.390   0.747   7.317  0.7190  0.5320  0.2775
  348MOL0     C46859  -0.450   0.890   7.298 -0.4952  0.5819  0.4300
  348MOL0     C46860  -0.471   0.920   7.154  0.3069  0.2649  0.1520
  348MOL0     C46861  -0.611   0.875   7.111  0.5570  0.0195  0.4048
  348MOL0     N46862  -0.638   0.915   6.978  0.1293 -0.1572  0.7655
  348MOL0     C46863  -0.665   1.030   6.910  0.9068 -0.6019 -0.2797
  348MOL0     C46864  -0.696   0.994   6.782 -0.8004  0.1283  0.7041
  348MOL0     C46865  -0.726   1.100   6.676 -0.1983 -0.5004 -0.2264
  348MOL0     C46866  -0.599   1.145   6.607  0.5658  0.4275  0.5307
  348MOL0     C46867  -0.546   1.037   6.499 -0.0435  0.0986 -0.4992
  348MOL0     C46868  -0.435   1.100   6.423 -0.0998 -0.4607  0.2676
  348MOL0     O46869  -0.337   1.176   6.498 -0.2108 -0.1845 -0.3758
  348MOL0     C46870  -0.206   1.171   6.462  0.0512 -0.2644  0.6434
  348MOL0     C46871  -0.113   1.087   6.519 -0.8015 -0.8276 -0.7291
  348MOL0     C46872   0.021   1.070   6.471  0.0384 -0.6829 -1.2970
  348MOL0     C46873   0.060   1.152   6.365  0.4185 -0.3854 -0.2775
  348MOL0     C46874   0.192   1.124   6.303  0.8528 -0.0021  1.0092
  348MOL0     O46875   0.241   1.217   6.220 -0.1255 -1.0764  0.3928
  348MOL0     C46876   0.356   1.187   6.147  0.6859 -0.2567  0.4144
  348MOL0     C46877   0.353   1.184   6.010 -0.3373  0.0700 -0.0659
  348MOL0     C46878   0.463   1.149   5.929 -0.0176  1.2215 -0.5974
  348MOL0     C46879   0.585   1.131   6.000  0.0547  0.1118 -0.6174
  348MOL0     O46880   0.704   1.120   5.925 -0.2535  0.3917  0.3117
  348MOL0     C46881   0.807   1.218   5.946 -0.6185 -0.4211 -1.0893
  348MOL0     C46882   0.899   1.247   5.822  1.0453  0.7793 -0.3461
  348MOL0     C46883   0.827   1.321   5.707  0.1906 -0.3608  0.4549
  348MOL0     C46884   0.744   1.220   5.623  0.1427 -0.2425 -0.2564
  348MOL0     C46885   0.655   1.288   5.514 -0.3413 -0.5536 -0.4299
  348MOL0     C46886   0.732   1.394   5.430  0.2655 -0.7022  0.3043
  348MOL0     C46887   0.862   1.334   5.364  0.0723  0.2499 -0.0672
  348MOL0     C46888   0.950   1.443   5.323 -0.7660 -0.2703 -0.0711
  348MOL0    Cl46889   1.066   1.367   5.213  0.0660  0.1367  0.0635
  348MOL0     C46890   0.589   1.139   6.140 -0.2726 -0.0612  0.7841
  348MOL0     C46891   0.473   1.166   6.217  0.6571 -0.7990 -0.6919
  348MOL0     O46892   0.233   1.013   6.320  0.6973  1.3266  0.2112
  348MOL0     C46893  -0.030   1.249   6.311 -0.3256  0.2975  0.2117
  348MOL0     C46894  -0.156   1.255   6.357  1.8145 -0.0003 -0.0248
  348MOL0     N46895  -0.665   0.860   6.761 -0.1842  0.3704  0.3123
  348MOL0     N46896  -0.638   0.814   6.882  0.4647  0.1134  0.3492
  348MOL0     C46897  -0.042   0.438   8.065 -0.1179  0.4716  0.0999
  348MOL0     C46898   0.049   0.367   8.148 -0.0690 -0.1286  0.7737
  348MOL0     C46899   0.254   0.095   8.371  1.2008 -0.1131 -1.0079
  348MOL0     C46900   0.344   0.194   8.420 -0.0032  1.0824  0.2745
  348MOL0     C46901   0.404   0.165   8.550  1.3166 -0.4205  0.6840
  348MOL0     C46902   0.406   0.037   8.611  0.0236  0.0777  0.7694
  348MOL0     O46903   0.483   0.020   8.727 -0.5841 -0.5311  0.3166
  348MOL0     C46904   0.629   0.008   8.704 -0.0433 -0.2080 -0.3588
  348MOL0     C46905   0.681  -0.130   8.748 -0.0960  0.8168 -0.2663
  348MOL0     C46906   0.836  -0.153   8.705  0.1909  0.4886 -0.8620
  348MOL0     C46907   0.864  -0.299   8.685 -1.6306  0.0292 -0.0050
  348MOL0     C46908   1.013  -0.303   8.699  0.6340  0.3245  0.1028
  348MOL0     C46909   1.138  -0.307   8.686  0.3427 -0.3605  0.1512
  348MOL0     C46910   0.319  -0.058   8.555 -0.0240  0.2604 -0.8112
  348MOL0     C46911   0.251  -0.042   8.437 -0.0809  0.0048  0.3110
  348MOL0     C46912   0.180  -0.160   8.388 -0.0662 -0.0905 -0.1330
  348MOL0     H46913   0.177   0.185   7.898 -0.0225  1.2946 -0.0913
  348MOL0     H46914   0.003   0.283   7.771 -3.3878 -0.7798  0.5286
  348MOL0     H46915  -0.092   0.468   7.647  1.9870 -0.9719  0.7389
  348MOL0     H46916  -0.237   0.388   7.707 -1.1039  1.5484 -0.9341
  348MOL0     H46917  -0.241   0.692   7.718 -0.5108  0.7033 -0.3300
  348MOL0     H46918  -0.357   0.565   7.739 -0.6493  0.8025  0.1226
  348MOL0     H46919  -0.374   0.505   7.511 -0.4931 -0.1356 -0.2146
  348MOL0     H46920  -0.215   0.575   7.469 -0.2960 -0.6009 -1.1628
  348MOL0     H46921  -0.489   0.709   7.505 -0.0149 -1.0162 -0.2812
  348MOL0     H46922  -0.337   0.808   7.519 -0.6552 -0.4627 -0.4388
  348MOL0     H46923  -0.289   0.743   7.274  0.6403  2.1851 -0.1208
  348MOL0     H46924  -0.456   0.677   7.265  0.9308 -0.2302  1.0221
  348MOL0     H46925  -0.549   0.884   7.343 -1.3608 -0.8599 -1.5258
  348MOL0     H46926  -0.387   0.965   7.346  0.6949 -0.5511  0.7004
  348MOL0     H46927  -0.395   0.874   7.090 -1.8253 -2.0065 -0.8911
  348MOL0     H46928  -0.464   1.026   7.128 -3.9260  0.5648 -0.4364
  348MOL0     H46929  -0.614   0.766   7.111 -1.6724  0.0461  0.4588
  348MOL0     H46930  -0.688   0.911   7.180 -2.5099 -2.9833 -1.2024
  348MOL0     H46931  -0.670   1.135   6.937  0.3123 -0.0424 -2.3708
  348MOL0     H46932  -0.788   1.054   6.599 -1.1675 -0.6313  0.6124
  348MOL0     H46933  -0.774   1.195   6.701  0.4194  0.0259 -0.9912
  348MOL0     H46934  -0.619   1.238   6.553 -1.7901 -1.1509 -1.5213
  348MOL0     H46935  -0.523   1.155   6.686  0.3686 -1.4226  1.0077
  348MOL0     H46936  -0.618   0.995   6.428  2.6795  0.4146 -3.6982
  348MOL0     H46937  -0.497   0.959   6.559  2.4008  1.0191 -1.1665
  348MOL0     H46938  -0.480   1.172   6.354  0.5592 -0.6510 -0.3676
  348MOL0     H46939  -0.390   1.026   6.356  2.3593  0.6635  0.5652
  348MOL0     H46940  -0.149   1.044   6.612 -0.5810 -1.4021 -0.9055
  348MOL0     H46941   0.084   0.992   6.513  2.6616  2.1314  0.3223
  348MOL0     H46942   0.258   1.209   5.964 -0.8523  3.1676  2.3143
  348MOL0     H46943   0.450   1.141   5.822 -0.1227 -3.7557 -0.4287
  348MOL0     H46944   0.760   1.310   5.982  1.3919 -0.0773  0.8999
  348MOL0     H46945   0.867   1.185   6.031  0.8344  2.0489 -1.0634
  348MOL0     H46946   0.975   1.319   5.853 -2.0319  4.6182 -0.9543
  348MOL0     H46947   0.943   1.151   5.792 -0.0348 -0.4872  1.8087
  348MOL0     H46948   0.766   1.398   5.756 -1.9082  0.3583 -2.9491
  348MOL0     H46949   0.902   1.365   5.641 -0.6716 -1.2938 -1.2126
  348MOL0     H46950   0.666   1.162   5.672 -2.2839  1.4929 -1.7958
  348MOL0     H46951   0.818   1.147   5.587  2.0267  2.1569 -1.6298
  348MOL0     H46952   0.559   1.331   5.545 -0.8414  1.9155 -4.5799
  348MOL0     H46953   0.630   1.212   5.439  0.1667 -0.2639 -0.8988
  348MOL0     H46954   0.678   1.446   5.350 -1.3353 -2.7452 -0.0228
  348MOL0     H46955   0.772   1.468   5.500  4.2296 -0.7815 -1.5797
  348MOL0     H46956   0.839   1.283   5.270  2.2691  0.6657 -0.8683
  348MOL0     H46957   0.908   1.254   5.424  1.5904  1.3482  0.2893
  348MOL0     H46958   0.897   1.526   5.277 -0.4728  0.9073  1.6333
  348MOL0     H46959   1.006   1.466   5.414  0.8120  0.0658 -1.0985
  348MOL0     H46960   0.676   1.103   6.194  0.7387  3.6043  1.8884
  348MOL0     H46961   0.476   1.157   6.325  1.1925  4.7017  0.0597
  348MOL0     H46962  -0.010   1.316   6.228 -0.4744  1.3074  0.9693
  348MOL0     H46963  -0.225   1.308   6.293  0.0994 -3.0721 -0.9187
  348MOL0     H46964  -0.104   0.517   8.107 -2.9404 -1.7095  0.3147
  348MOL0     H46965   0.056   0.389   8.254  0.6125  4.4220 -0.0003
  348MOL0     H46966   0.351   0.289   8.368  1.4096 -0.7062 -3.1065
  348MOL0     H46967   0.467   0.241   8.595  1.0281 -0.1831  0.6917
  348MOL0     H46968   0.697   0.063   8.770 -0.7823 -1.6576  1.6857
  348MOL0     H46969   0.659   0.023   8.599 -2.6248 -2.9582 -1.6495
  348MOL0     H46970   0.625  -0.207   8.695  1.6023  0.7918 -2.1237
  348MOL0     H46971   0.672  -0.160   8.853 -0.6812 -2.0263 -1.0522
  348MOL0     H46972   0.894  -0.117   8.790  0.2144  0.3652 -0.8252
  348MOL0     H46973   0.856  -0.079   8.627 -1.9909  1.9214 -0.1490
  348MOL0     H46974   0.815  -0.354   8.766  0.6036 -1.3605  0.4854
  348MOL0     H46975   0.822  -0.331   8.589 -0.5296 -2.4873  0.2703
  348MOL0     H46976   1.241  -0.328   8.668  0.1121 -2.0701  0.6387
  348MOL0     H46977   0.319  -0.154   8.605 -3.4238  0.0623 -0.9792
  348MOL0     H46978   0.074  -0.149   8.416 -0.6214 -4.5123  0.1488
  348MOL0     H46979   0.179  -0.171   8.279  2.4662 -0.6877 -0.1394
  348MOL0     H46980   0.210  -0.257   8.428 -0.4524 -1.4235 -2.8626
  349MOL0     O46981  10.881   7.812   7.774 -0.2212 -0.7859 -0.0486
  349MOL0     C46982  10.917   7.715   7.706  0.3851  1.1206 -0.5403
  349MOL0     O46983  10.842   7.596   7.698 -0.0649 -0.3160 -0.2908
  349MOL0     C46984  10.716   7.593   7.758 -0.5242 -0.5032 -0.1952
  349MOL0     C46985  10.623   7.680   7.701  0.4628 -0.7593 -0.1133
  349MOL0     C46986  10.489   7.672   7.752  0.3811 -0.5903 -0.2650
  349MOL0     C46987  10.450   7.568   7.841  0.9222 -0.0995 -0.7924
  349MOL0     O46988  10.325   7.549   7.899 -0.2028 -0.4457  0.3888
  349MOL0     C46989  10.220   7.642   7.886 -0.0165  1.1322 -0.6666
  349MOL0     C46990  10.102   7.582   7.975  1.2941  0.6455 -0.5549
  349MOL0     C46991  10.137   7.590   8.129  0.8526 -0.4739  0.2124
  349MOL0     C46992  10.084   7.729   8.187 -0.6432  0.3189 -0.3096
  349MOL0     C46993  10.102   7.714   8.344 -0.3350 -0.2995 -0.0205
  349MOL0     C46994  10.009   7.805   8.415  0.5312  0.1571  0.0046
  349MOL0     C46995  10.036   7.815   8.565  0.3712 -0.4996  0.1464
  349MOL0     C46996   9.959   7.712   8.646 -0.5014  0.2316  0.7962
  349MOL0     N46997   9.813   7.749   8.639 -0.4254 -1.0441  0.5749
  349MOL0     C46998   9.729   7.676   8.722  1.4993 -0.9655  0.8316
  349MOL0     C46999   9.600   7.728   8.703  0.5805  0.1917 -0.1337
  349MOL0     C47000   9.468   7.675   8.749  0.8118  0.0414 -0.0499
  349MOL0     C47001   9.457   7.713   8.895 -0.8612  0.1846  0.0490
  349MOL0     C47002   9.309   7.732   8.926 -0.8140  0.2614 -0.7317
  349MOL0     C47003   9.295   7.769   9.068  0.1160 -0.6870  0.5677
  349MOL0     O47004   9.354   7.669   9.153  0.7748  0.2625 -0.1635
  349MOL0     C47005   9.375   7.698   9.291  0.5086 -0.2437  0.7641
  349MOL0     C47006   9.433   7.589   9.365 -0.1353 -0.2680  1.6447
  349MOL0     C47007   9.464   7.596   9.498  0.2913  1.3145 -0.3174
  349MOL0     C47008   9.432   7.714   9.566  0.2942  0.0370  0.1088
  349MOL0     C47009   9.462   7.725   9.710 -0.1408 -0.2723 -0.0499
  349MOL0     O47010   9.420   7.839   9.771 -0.0434 -0.9086  0.5094
  349MOL0     C47011   9.472   7.866   9.895  0.7359  0.5993  0.1176
  349MOL0     C47012   9.587   7.924   9.941 -0.6239  0.9030  0.4248
  349MOL0     C47013   9.629   7.920  10.070  0.5528 -0.6463 -0.6081
  349MOL0     C47014   9.565   7.839  10.164  0.0323 -0.8641 -1.7673
  349MOL0     O47015   9.607   7.823  10.300 -0.2155 -0.4356  0.2745
  349MOL0     C47016   9.734   7.893  10.345 -0.6951 -1.0058  0.2299
  349MOL0     C47017   9.743   7.889  10.496 -0.7053  0.0120 -0.2149
  349MOL0     C47018   9.881   7.912  10.553  0.2985  0.6210  0.0469
  349MOL0     C47019   9.875   7.929  10.697  0.8901  0.7624 -0.2531
  349MOL0     C47020  10.024   7.940  10.738  0.1616  0.2654 -0.7031
  349MOL0     C47021  10.092   8.069  10.699  0.4507  1.0888  0.3340
  349MOL0     C47022  10.224   8.094  10.769 -0.1106 -0.0933  0.7152
  349MOL0     C47023  10.212   8.124  10.917 -0.4974 -0.3765  0.4905
  349MOL0    Cl47024  10.047   8.168  10.979 -0.5690  0.0958  0.4532
  349MOL0     C47025   9.437   7.808  10.128  0.2908 -0.0694 -0.2302
  349MOL0     C47026   9.397   7.813  10.000  0.0295 -0.7929 -0.7918
  349MOL0     O47027   9.553   7.649   9.746 -0.2501 -0.8012  0.1676
  349MOL0     C47028   9.369   7.820   9.499  0.1385 -0.7236 -0.0426
  349MOL0     C47029   9.344   7.814   9.362  0.6139 -0.4103  0.3714
  349MOL0     N47030   9.613   7.834   8.616 -0.0676  0.0563 -0.1365
  349MOL0     N47031   9.743   7.854   8.588 -0.1765 -0.4383 -0.3766
  349MOL0     C47032  10.546   7.480   7.887  0.1181  0.4461  0.5258
  349MOL0     C47033  10.679   7.496   7.851  0.5497 -0.7701  0.1578
  349MOL0     C47034  11.032   7.719   7.617  0.1677 -1.1283  0.6432
  349MOL0     C47035  11.157   7.744   7.675  0.3069 -0.4892 -0.1771
  349MOL0     C47036  11.279   7.725   7.600  1.2984  0.8862  0.0476
  349MOL0     C47037  11.278   7.668   7.474  1.0039  0.8347 -0.1304
  349MOL0     O47038  11.382   7.620   7.397 -0.0593 -0.7347  0.8414
  349MOL0     C47039  11.517   7.658   7.425  0.0805 -0.7516 -0.1439
  349MOL0     C47040  11.614   7.564   7.367  0.4390  1.0618  0.2011
  349MOL0     C47041  11.750   7.607   7.415 -0.5535 -0.4683 -0.1021
  349MOL0     C47042  11.864   7.644   7.306  0.5207 -0.5564  0.0075
  349MOL0     C47043  11.892   7.536   7.203 -0.1434  0.6358 -0.5654
  349MOL0     C47044  11.919   7.450   7.120  0.5838 -0.2776 -0.7962
  349MOL0     C47045  11.154   7.641   7.412  0.7159  0.2149 -0.3669
  349MOL0     C47046  11.024   7.665   7.483  1.0422  1.2634 -0.4524
  349MOL0     C47047  10.891   7.635   7.419 -0.2212 -0.1839 -0.0069
  349MOL0     H47048  10.648   7.761   7.633 -0.9703 -0.3081 -0.1416
  349MOL0     H47049  10.409   7.741   7.727  1.3381  0.4259 -0.5870
  349MOL0     H47050  10.263   7.735   7.924  1.1436  0.6381 -0.7510
  349MOL0     H47051  10.192   7.657   7.782  0.7346 -3.6319 -1.7849
  349MOL0     H47052  10.086   7.474   7.965 -0.8022  0.8034  0.6811
  349MOL0     H47053  10.014   7.634   7.937  2.5050  0.6303 -3.6844
  349MOL0     H47054  10.246   7.591   8.143  0.8689 -0.7579  0.1156
  349MOL0     H47055  10.087   7.506   8.177 -1.7170  1.6573  1.5021
  349MOL0     H47056  10.138   7.814   8.145  1.9779 -1.9407 -1.8019
  349MOL0     H47057   9.983   7.740   8.146 -0.3685  1.2678 -0.7756
  349MOL0     H47058  10.082   7.613   8.381 -0.7857 -1.1989 -2.5334
  349MOL0     H47059  10.205   7.740   8.369  0.1267  0.6510 -2.5577
  349MOL0     H47060  10.011   7.899   8.359 -2.3680  1.3313  1.6504
  349MOL0     H47061   9.906   7.772   8.399  1.1782 -1.8288 -0.3059
  349MOL0     H47062  10.006   7.912   8.606 -3.8523 -1.7336  0.4296
  349MOL0     H47063  10.143   7.800   8.583  0.5250 -0.5681 -0.7799
  349MOL0     H47064   9.975   7.616   8.596 -1.9191 -0.0637  0.8707
  349MOL0     H47065   9.998   7.703   8.748  2.9529  1.0101 -0.3007
  349MOL0     H47066   9.744   7.593   8.789  0.1116 -2.0747 -0.1719
  349MOL0     H47067   9.383   7.724   8.700  1.4713  0.1567 -1.1181
  349MOL0     H47068   9.464   7.566   8.735  4.4141 -0.3859  1.2791
  349MOL0     H47069   9.499   7.633   8.956 -2.2075 -0.1046  0.6190
  349MOL0     H47070   9.514   7.805   8.911  1.6602 -0.9249 -1.9358
  349MOL0     H47071   9.258   7.637   8.904 -1.5152  0.2187  0.9756
  349MOL0     H47072   9.266   7.808   8.860  0.1336  0.3332 -1.2803
  349MOL0     H47073   9.187   7.777   9.085 -0.3175  0.4028 -2.1125
  349MOL0     H47074   9.339   7.865   9.097 -1.4854 -0.0545  1.0199
  349MOL0     H47075   9.460   7.504   9.303 -2.0869  1.3599 -1.7179
  349MOL0     H47076   9.526   7.521   9.547 -0.1023 -1.1226 -3.2732
  349MOL0     H47077   9.641   7.968   9.858 -0.1635  1.8429  1.1999
  349MOL0     H47078   9.728   7.963  10.083  1.0014 -1.1618 -2.0505
  349MOL0     H47079   9.822   7.849  10.296 -0.6258 -0.4490 -0.1527
  349MOL0     H47080   9.728   7.997  10.311  0.1611 -0.6356  1.1812
  349MOL0     H47081   9.683   7.978  10.516  0.3621  0.4761  1.0628
  349MOL0     H47082   9.693   7.796  10.525 -4.1920  0.8901 -2.7154
  349MOL0     H47083   9.957   7.843  10.517 -1.1824  0.3254 -2.7802
  349MOL0     H47084   9.903   8.013  10.516 -4.8079  1.0735 -2.6773
  349MOL0     H47085   9.838   7.839  10.746  1.3071  0.8147  0.1596
  349MOL0     H47086   9.813   8.015  10.725 -0.9826 -1.3058  2.4630
  349MOL0     H47087  10.086   7.856  10.704 -0.1060  1.1108 -3.5516
  349MOL0     H47088  10.027   7.937  10.847  2.5477 -3.0715 -0.6848
  349MOL0     H47089  10.121   8.068  10.593  0.6770 -0.0882  0.3938
  349MOL0     H47090  10.025   8.153  10.718 -1.6547 -1.0256  3.1174
  349MOL0     H47091  10.278   8.179  10.727 -3.2845  1.5381 -0.4298
  349MOL0     H47092  10.283   8.003  10.758  0.6928  0.3106  1.5513
  349MOL0     H47093  10.257   8.045  10.977 -2.0833  0.6428  3.1758
  349MOL0     H47094  10.261   8.221  10.935 -2.9326  1.3528 -1.4387
  349MOL0     H47095   9.387   7.747  10.202  1.0121 -1.3160 -0.7378
  349MOL0     H47096   9.302   7.764   9.982  0.6550 -1.6447 -1.8220
  349MOL0     H47097   9.346   7.907   9.559 -0.8448 -1.4631  0.6979
  349MOL0     H47098   9.299   7.902   9.316 -1.2784 -0.6919  1.5469
  349MOL0     H47099  10.506   7.396   7.943  2.5967 -0.5455  0.9184
  349MOL0     H47100  10.763   7.433   7.880  0.4460 -2.3639 -2.6475
  349MOL0     H47101  11.154   7.782   7.777  2.3340  1.2166 -0.6669
  349MOL0     H47102  11.370   7.745   7.656  1.5714  1.4375 -0.5789
  349MOL0     H47103  11.522   7.666   7.534  0.4803 -0.7910 -0.1579
  349MOL0     H47104  11.545   7.755   7.383  0.9860 -0.2904  1.4171
  349MOL0     H47105  11.612   7.561   7.257 -3.4205  3.6994 -0.0044
  349MOL0     H47106  11.598   7.462   7.402  2.2286  0.0787 -1.6676
  349MOL0     H47107  11.790   7.538   7.490 -0.6758  1.1984  1.5836
  349MOL0     H47108  11.731   7.698   7.472  0.5112  0.1312 -0.6473
  349MOL0     H47109  11.826   7.735   7.259  0.4098  0.1642  1.4267
  349MOL0     H47110  11.960   7.671   7.351 -0.8903  2.1131  1.6799
  349MOL0     H47111  11.950   7.364   7.064  0.0200 -1.0071 -0.0219
  349MOL0     H47112  11.154   7.608   7.308  0.7583  1.3505 -0.7382
  349MOL0     H47113  10.816   7.715   7.424 -1.6138 -1.4929  1.7688
  349MOL0     H47114  10.908   7.626   7.311  1.3193  3.1253 -0.1609
  349MOL0     H47115  10.841   7.543   7.452  0.0314 -0.2524  0.1866
  350MOL0     O47116   1.852   0.040   5.907  0.0225  0.4714 -0.5363
  350MOL0     C47117   1.780   0.118   5.838 -0.9025  0.8015 -0.0794
  350MOL0     O47118   1.742   0.246   5.878  0.0769 -0.5945  0.5192
  350MOL0     C47119   1.739   0.278   6.009 -0.1503 -0.1633  0.0938
  350MOL0     C47120   1.664   0.207   6.102  0.1937  0.7551  0.0541
  350MOL0     C47121   1.682   0.244   6.238  0.4202 -0.0010  0.5657
  350MOL0     C47122   1.772   0.350   6.276  0.1751 -0.2139 -0.2585
  350MOL0     O47123   1.793   0.368   6.413 -0.2004 -0.0181  0.2079
  350MOL0     C47124   1.899   0.293   6.472  0.5059  0.2547  0.0110
  350MOL0     C47125   1.852   0.153   6.506  0.2789 -0.5319  0.4108
  350MOL0     C47126   1.715   0.148   6.586 -0.1893 -0.4858  0.8951
  350MOL0     C47127   1.654   0.011   6.587  0.0485 -0.9785  0.6777
  350MOL0     C47128   1.526   0.011   6.675  0.4238  1.1210 -0.3217
  350MOL0     C47129   1.455  -0.127   6.679 -0.6988  0.6278  0.5569
  350MOL0     C47130   1.325  -0.110   6.764  0.0572 -0.5649 -0.5392
  350MOL0     C47131   1.259  -0.235   6.811 -0.2429  0.3399 -0.7993
  350MOL0     N47132   1.129  -0.194   6.865 -0.1658 -0.5296 -0.2782
  350MOL0     C47133   1.045  -0.093   6.809  0.1328  0.3856 -0.6873
  350MOL0     C47134   0.949  -0.056   6.906 -0.2368 -0.7170 -0.5485
  350MOL0     C47135   0.849   0.057   6.912 -0.1981  0.1794  1.4699
  350MOL0     C47136   0.697   0.021   6.906  0.2904  0.4250 -0.6066
  350MOL0     C47137   0.664  -0.114   6.838  0.5566 -1.3345  0.7503
  350MOL0     C47138   0.686  -0.089   6.686 -1.2395 -0.6445 -0.2271
  350MOL0     O47139   0.640  -0.193   6.611 -1.0458 -0.6904  0.2933
  350MOL0     C47140   0.517  -0.197   6.554 -0.3341 -0.1942 -0.0450
  350MOL0     C47141   0.412  -0.119   6.608  0.9212 -0.6056  1.1784
  350MOL0     C47142   0.285  -0.140   6.550 -0.1962 -0.5818 -0.0943
  350MOL0     C47143   0.259  -0.250   6.464  0.0475 -0.0731  0.2713
  350MOL0     C47144   0.121  -0.273   6.430  1.3169 -0.3579 -0.6401
  350MOL0     O47145   0.088  -0.362   6.323  0.8836  0.0445 -0.1248
  350MOL0     C47146  -0.039  -0.357   6.266 -0.5004 -0.4181  0.1549
  350MOL0     C47147  -0.133  -0.466   6.270  0.7499  0.8119 -0.5380
  350MOL0     C47148  -0.267  -0.456   6.233  0.1518 -0.0663 -0.3899
  350MOL0     C47149  -0.306  -0.335   6.178  1.0998  0.3015 -0.1642
  350MOL0     O47150  -0.433  -0.321   6.128  0.4982  1.2515 -0.1262
  350MOL0     C47151  -0.524  -0.208   6.154  0.0137  0.4182 -0.0548
  350MOL0     C47152  -0.607  -0.223   6.289  0.7673  0.4363  0.2117
  350MOL0     C47153  -0.698  -0.346   6.277  0.1091 -0.0868  0.7630
  350MOL0     C47154  -0.766  -0.394   6.401  0.0540  0.8162  0.3215
  350MOL0     C47155  -0.889  -0.488   6.380 -0.0888 -0.7300 -0.1137
  350MOL0     C47156  -0.920  -0.546   6.514  0.6951  0.0643 -0.5595
  350MOL0     C47157  -1.037  -0.654   6.520 -0.0621  0.1543 -0.2458
  350MOL0     C47158  -1.167  -0.608   6.464 -0.4292  0.0863  0.0400
  350MOL0    Cl47159  -1.212  -0.450   6.542 -0.2176  0.7182  0.0409
  350MOL0     C47160  -0.216  -0.239   6.168 -0.5945  0.3820 -0.2387
  350MOL0     C47161  -0.086  -0.240   6.207  0.7597 -0.4271 -0.0918
  350MOL0     O47162   0.034  -0.229   6.507 -0.9819  0.5673  0.8071
  350MOL0     C47163   0.359  -0.337   6.429 -0.6754  0.0761  1.2281
  350MOL0     C47164   0.494  -0.305   6.468 -0.2281 -0.8014  0.4722
  350MOL0     N47165   0.991  -0.130   7.014 -0.1911  0.8869 -0.0321
  350MOL0     N47166   1.079  -0.214   6.988  0.0832  0.1360 -0.3052
  350MOL0     C47167   1.845   0.420   6.184  0.4139  0.5952  0.8365
  350MOL0     C47168   1.813   0.388   6.045  0.3337 -0.2525 -1.0603
  350MOL0     C47169   1.765   0.075   5.694  0.9268  0.0906 -0.0273
  350MOL0     C47170   1.804  -0.047   5.661  0.1775  1.6703  0.5378
  350MOL0     C47171   1.782  -0.103   5.538 -0.3234  0.0350  0.3398
  350MOL0     C47172   1.712  -0.021   5.446 -0.2315  0.4789  0.5579
  350MOL0     O47173   1.700  -0.082   5.317  0.0125  0.1759 -0.0178
  350MOL0     C47174   1.639  -0.006   5.206  0.5591  0.4831  0.0179
  350MOL0     C47175   1.598  -0.093   5.084  0.1886 -0.0365 -0.3225
  350MOL0     C47176   1.640  -0.030   4.955 -0.4000 -0.1416 -0.8037
  350MOL0     C47177   1.596  -0.103   4.837 -0.1150 -0.6244  0.2862
  350MOL0     C47178   1.456  -0.140   4.817  0.1111 -0.3084 -0.3902
  350MOL0     C47179   1.339  -0.169   4.798  0.9656  0.3272  1.1515
  350MOL0     C47180   1.672   0.106   5.472 -0.0088  0.8005  0.0476
  350MOL0     C47181   1.685   0.153   5.605 -0.5434  0.1795 -0.4648
  350MOL0     C47182   1.613   0.280   5.623 -1.0110 -0.9597  0.2390
  350MOL0     H47183   1.598   0.130   6.064  2.0318 -0.5004 -0.7293
  350MOL0     H47184   1.619   0.189   6.307 -1.9534  0.6194 -0.9821
  350MOL0     H47185   1.989   0.285   6.411  0.1476  0.0728 -0.4986
  350MOL0     H47186   1.930   0.349   6.561 -1.6791 -1.9121  2.2530
  350MOL0     H47187   1.932   0.100   6.559  2.1638  0.6358 -1.1372
  350MOL0     H47188   1.849   0.091   6.416 -1.2334 -2.2019  1.5245
  350MOL0     H47189   1.645   0.216   6.536  2.6534  1.4161 -0.8395
  350MOL0     H47190   1.737   0.187   6.686  2.1885  0.4525  0.0758
  350MOL0     H47191   1.641  -0.026   6.485  4.3631 -0.7528 -0.1611
  350MOL0     H47192   1.727  -0.051   6.640 -0.9073 -0.6391  2.4348
  350MOL0     H47193   1.546   0.031   6.780  1.1408  2.8339 -0.7635
  350MOL0     H47194   1.456   0.090   6.646  0.0505  0.4797 -1.2552
  350MOL0     H47195   1.429  -0.148   6.575  1.2880  4.0806 -0.7899
  350MOL0     H47196   1.527  -0.201   6.716 -0.2531  0.0333 -1.3909
  350MOL0     H47197   1.266  -0.047   6.697 -0.4357  3.0670  2.9073
  350MOL0     H47198   1.362  -0.046   6.845  0.9065 -0.3992 -1.0378
  350MOL0     H47199   1.246  -0.297   6.722  1.2862 -1.1682 -0.0397
  350MOL0     H47200   1.323  -0.284   6.885 -2.5911  4.1286  4.3864
  350MOL0     H47201   1.036  -0.043   6.713 -4.2175  0.6944 -0.3365
  350MOL0     H47202   0.877   0.106   7.005 -3.1317  4.5394  0.3689
  350MOL0     H47203   0.867   0.112   6.819 -2.9316  0.5567  1.0619
  350MOL0     H47204   0.671   0.016   7.012  2.8209 -1.3664  0.0049
  350MOL0     H47205   0.654   0.111   6.860  2.5226  1.3516 -1.0205
  350MOL0     H47206   0.558  -0.138   6.856 -0.0871 -0.4786 -1.5552
  350MOL0     H47207   0.723  -0.200   6.872 -1.6039 -2.7602  1.1235
  350MOL0     H47208   0.793  -0.079   6.671 -1.4738 -0.3999 -1.8905
  350MOL0     H47209   0.639   0.008   6.667 -2.3713 -0.9984  0.6234
  350MOL0     H47210   0.416  -0.040   6.682 -0.7665 -0.7168  1.4147
  350MOL0     H47211   0.205  -0.070   6.573 -0.3159 -1.1109  1.1486
  350MOL0     H47212  -0.102  -0.558   6.318 -0.5005  2.2427  3.4430
  350MOL0     H47213  -0.340  -0.536   6.235  1.9122 -2.0949  5.9945
  350MOL0     H47214  -0.466  -0.114   6.157  0.8425 -0.0977  0.4505
  350MOL0     H47215  -0.597  -0.207   6.072 -1.1163  1.6957  0.9231
  350MOL0     H47216  -0.534  -0.262   6.360 -1.7130 -3.2015  1.0295
  350MOL0     H47217  -0.661  -0.132   6.318 -0.5001  0.0500 -0.8124
  350MOL0     H47218  -0.771  -0.331   6.197  0.8456 -0.7650 -0.0487
  350MOL0     H47219  -0.639  -0.430   6.241 -1.7087 -1.8115  1.5950
  350MOL0     H47220  -0.805  -0.308   6.455 -1.0049  2.3584 -2.6634
  350MOL0     H47221  -0.694  -0.444   6.466  0.3779  2.1639  1.0384
  350MOL0     H47222  -0.864  -0.577   6.321 -3.2111 -2.4226  0.8731
  350MOL0     H47223  -0.967  -0.437   6.323  0.3416 -0.1935 -0.2315
  350MOL0     H47224  -0.825  -0.585   6.549  0.7668  2.7999  2.7787
  350MOL0     H47225  -0.936  -0.469   6.589  0.3458 -1.1778  0.6770
  350MOL0     H47226  -1.052  -0.681   6.624 -2.8875  1.1407 -0.3214
  350MOL0     H47227  -0.994  -0.732   6.455  0.9317  3.1566 -3.4762
  350MOL0     H47228  -1.153  -0.600   6.356  1.0260  0.3974  0.2227
  350MOL0     H47229  -1.247  -0.678   6.486  0.3886 -0.5067  1.2742
  350MOL0     H47230  -0.248  -0.145   6.124 -1.3853  0.1919 -0.0907
  350MOL0     H47231  -0.016  -0.158   6.192  3.5031 -2.6248 -0.1053
  350MOL0     H47232   0.344  -0.426   6.369 -5.4587 -0.7164  3.1545
  350MOL0     H47233   0.577  -0.373   6.450  0.7937  0.2750  0.9654
  350MOL0     H47234   1.926   0.488   6.210 -1.9500  5.0267 -2.1512
  350MOL0     H47235   1.862   0.447   5.969  2.4665 -1.7663 -0.9523
  350MOL0     H47236   1.853  -0.116   5.729 -2.8997 -0.6102  0.6706
  350MOL0     H47237   1.807  -0.205   5.509 -1.3652 -0.1825  0.1565
  350MOL0     H47238   1.713   0.070   5.179  0.6319 -0.4828 -2.8183
  350MOL0     H47239   1.554   0.050   5.245  0.3159 -1.2080  2.0710
  350MOL0     H47240   1.492  -0.109   5.102  0.3978 -0.4098  0.6325
  350MOL0     H47241   1.645  -0.191   5.095 -0.2273  0.0367  3.2917
  350MOL0     H47242   1.748  -0.014   4.950 -0.1839 -1.1845  0.1672
  350MOL0     H47243   1.579   0.060   4.939  0.8670  0.9178  0.0682
  350MOL0     H47244   1.633  -0.052   4.747  0.0230 -1.9766 -0.4661
  350MOL0     H47245   1.644  -0.202   4.837  1.9256  0.2520 -2.1003
  350MOL0     H47246   1.236  -0.194   4.782  1.1778  0.8959 -1.7025
  350MOL0     H47247   1.626   0.166   5.394 -1.1198 -1.3220 -1.0210
  350MOL0     H47248   1.527   0.272   5.690 -0.7930  1.7059  0.9331
  350MOL0     H47249   1.674   0.362   5.663  1.4033 -2.3282 -0.4344
  350MOL0     H47250   1.579   0.330   5.532  3.1856  1.6401 -0.1553
  351MOL0     O47251  11.350   8.856   3.167 -0.4366 -0.9543  0.0829
  351MOL0     C47252  11.429   8.909   3.245  0.2103 -0.5018 -0.1286
  351MOL0     O47253  11.407   9.032   3.299 -0.2910  0.4619  0.2466
  351MOL0     C47254  11.339   9.126   3.220  0.1364 -0.1929  0.6654
  351MOL0     C47255  11.355   9.141   3.075  0.0349 -1.2160  0.0522
  351MOL0     C47256  11.272   9.233   3.002 -0.2993 -0.0016  0.7531
  351MOL0     C47257  11.190   9.316   3.076 -0.1273 -0.0651 -0.7164
  351MOL0     O47258  11.102   9.403   3.008 -1.0867  0.3659  0.1280
  351MOL0     C47259  11.153   9.489   2.897  0.6288 -0.8123  0.7125
  351MOL0     C47260  11.173   9.642   2.939 -0.8723 -0.1534  0.5494
  351MOL0     C47261  11.220   9.735   2.823  0.4492 -0.2926  0.2511
  351MOL0     C47262  11.229   9.887   2.868 -0.7791  0.1942 -0.8292
  351MOL0     C47263  11.225   9.995   2.764 -0.7572 -0.4215  0.3382
  351MOL0     C47264  11.338   9.979   2.654 -0.4361 -0.2667 -0.3612
  351MOL0     C47265  11.339  10.103   2.553  1.1904 -0.7385  0.3057
  351MOL0     C47266  11.465  10.118   2.449  0.5799 -0.9437 -0.2895
  351MOL0     N47267  11.597  10.094   2.493 -0.2014  0.3286 -0.6199
  351MOL0     C47268  11.657  10.178   2.592  0.1727 -0.6035 -0.9851
  351MOL0     C47269  11.790  10.145   2.597  0.6285 -0.2839  1.3278
  351MOL0     C47270  11.909  10.191   2.672  1.2777  0.6146 -0.4332
  351MOL0     C47271  11.985  10.313   2.617  0.2642  0.8566 -0.6028
  351MOL0     C47272  12.110  10.321   2.699  0.1528 -0.2805  0.5893
  351MOL0     C47273  12.171  10.460   2.675 -0.2234  0.1980 -0.8058
  351MOL0     O47274  12.304  10.468   2.736  0.4641 -0.5971 -0.1091
  351MOL0     C47275  12.314  10.499   2.869 -0.3576 -0.2584  0.2878
  351MOL0     C47276  12.212  10.561   2.948 -1.0370  0.0115  0.0197
  351MOL0     C47277  12.240  10.591   3.076 -0.3764  0.2281 -0.4731
  351MOL0     C47278  12.359  10.565   3.138  0.4133  0.4376 -1.0097
  351MOL0     C47279  12.379  10.608   3.276  0.7374 -0.8164  0.4693
  351MOL0     O47280  12.290  10.694   3.327 -0.0753 -0.5021  0.4194
  351MOL0     C47281  12.284  10.723   3.458  1.1284 -0.1205 -0.0656
  351MOL0     C47282  12.224  10.840   3.488 -0.1945 -0.1698  0.1395
  351MOL0     C47283  12.208  10.882   3.619 -0.1973  0.6780  0.3354
  351MOL0     C47284  12.253  10.814   3.730 -0.0387  0.5119 -0.1676
  351MOL0     O47285  12.233  10.861   3.859 -0.2310 -0.6363  0.0392
  351MOL0     C47286  12.216  10.778   3.978 -1.3102  0.4158 -0.5079
  351MOL0     C47287  12.152  10.868   4.082 -0.0466  0.4205  0.3977
  351MOL0     C47288  12.059  10.805   4.190  0.4525 -0.0490 -0.1650
  351MOL0     C47289  11.995  10.929   4.258 -0.6896 -0.3753  0.4467
  351MOL0     C47290  11.871  10.881   4.337 -0.4536 -0.2262  0.2056
  351MOL0     C47291  11.804  11.001   4.403  0.1225 -1.2494  0.2903
  351MOL0     C47292  11.715  10.974   4.524  1.1131  0.2393 -0.1795
  351MOL0     C47293  11.568  10.940   4.481  0.0143 -0.9682  0.4236
  351MOL0    Cl47294  11.467  10.913   4.634 -0.1883  0.2263 -0.5206
  351MOL0     C47295  12.299  10.690   3.707 -0.7115 -0.4520 -0.1393
  351MOL0     C47296  12.318  10.644   3.569 -0.2751 -0.1207 -0.2365
  351MOL0     O47297  12.477  10.566   3.344 -0.1982  0.6777  0.8368
  351MOL0     C47298  12.461  10.504   3.061 -0.0431 -0.1289 -0.1179
  351MOL0     C47299  12.443  10.474   2.928 -0.3373 -0.7769  1.5133
  351MOL0     N47300  11.813  10.057   2.492 -0.6867  1.2620  1.2943
  351MOL0     N47301  11.704  10.028   2.432 -0.3691 -0.2925  0.1415
  351MOL0     C47302  11.169   9.297   3.210  0.1144  0.7935 -0.3231
  351MOL0     C47303  11.241   9.198   3.282 -0.4657 -0.3484 -0.5961
  351MOL0     C47304  11.546   8.835   3.307  0.6835  0.4789  0.0634
  351MOL0     C47305  11.590   8.712   3.244  1.0102  0.0409 -0.7660
  351MOL0     C47306  11.701   8.637   3.284 -0.0155  0.0319 -0.8552
  351MOL0     C47307  11.777   8.687   3.391  0.1042 -1.0233  0.0114
  351MOL0     O47308  11.887   8.609   3.427  0.4089 -0.0991  0.9572
  351MOL0     C47309  11.995   8.666   3.512  0.0894  0.4692  0.0967
  351MOL0     C47310  12.082   8.759   3.423  0.6074 -0.0183  0.3481
  351MOL0     C47311  12.145   8.689   3.305  0.1866 -0.3759  0.3756
  351MOL0     C47312  12.289   8.631   3.326 -0.4671  0.3016 -0.4343
  351MOL0     C47313  12.322   8.528   3.228 -1.5004 -0.5129 -0.7101
  351MOL0     C47314  12.362   8.434   3.157  0.0743 -0.0835  0.3286
  351MOL0     C47315  11.730   8.807   3.456  0.5357 -1.1637 -0.7651
  351MOL0     C47316  11.610   8.875   3.426 -0.4141  0.3411 -0.0896
  351MOL0     C47317  11.543   8.967   3.528  0.3684 -0.0546  0.1020
  351MOL0     H47318  11.420   9.072   3.021 -2.2801 -2.4003 -1.3708
  351MOL0     H47319  11.292   9.255   2.898 -0.0148  0.5426  0.9181
  351MOL0     H47320  11.246   9.446   2.857 -0.9362 -1.8125 -2.1173
  351MOL0     H47321  11.087   9.474   2.811 -0.6118  1.4571  1.1866
  351MOL0     H47322  11.251   9.654   3.014  1.0491  0.3072 -1.4023
  351MOL0     H47323  11.080   9.685   2.978  0.0423  1.3500  1.1705
  351MOL0     H47324  11.148   9.717   2.743 -2.1567 -2.9003  2.9520
  351MOL0     H47325  11.315   9.702   2.780  1.5912  0.8989  1.7065
  351MOL0     H47326  11.140   9.900   2.930  0.6244  0.3523  1.2545
  351MOL0     H47327  11.308   9.914   2.938 -1.5526  1.3634 -0.3780
  351MOL0     H47328  11.128  10.006   2.716  0.3976  1.2966 -1.8157
  351MOL0     H47329  11.254  10.087   2.816 -0.5608  0.7415 -1.7124
  351MOL0     H47330  11.437   9.986   2.701 -0.4679 -1.0289 -0.1650
  351MOL0     H47331  11.342   9.876   2.617 -1.9129 -2.3876  4.5413
  351MOL0     H47332  11.330  10.195   2.611  2.1495 -0.1943 -0.3664
  351MOL0     H47333  11.247  10.108   2.493  2.1099  1.4450 -1.0698
  351MOL0     H47334  11.460  10.048   2.365 -2.1512  2.3436 -3.1575
  351MOL0     H47335  11.471  10.218   2.406  1.4174 -2.0957 -3.0617
  351MOL0     H47336  11.612  10.251   2.658  0.5805  0.7685 -2.1565
  351MOL0     H47337  11.876  10.201   2.775 -1.0892  0.8429 -1.1471
  351MOL0     H47338  11.976  10.104   2.671  0.4803 -0.0359  0.8658
  351MOL0     H47339  12.010  10.292   2.513 -0.0071 -4.6351  0.1036
  351MOL0     H47340  11.915  10.395   2.631 -1.5504 -0.8843  1.2619
  351MOL0     H47341  12.184  10.247   2.668  2.4647  2.6142 -1.3510
  351MOL0     H47342  12.082  10.314   2.805 -1.5211 -0.3228  0.1771
  351MOL0     H47343  12.107  10.542   2.709  0.9627  1.1299 -0.7488
  351MOL0     H47344  12.194  10.481   2.570  2.6926  2.0527  0.0703
  351MOL0     H47345  12.115  10.582   2.905  0.7292  1.4755 -3.6615
  351MOL0     H47346  12.153  10.630   3.126 -1.1682 -4.0883  2.0115
  351MOL0     H47347  12.195  10.904   3.405 -1.8819 -1.9911 -0.7763
  351MOL0     H47348  12.166  10.979   3.643  0.0603  1.2981 -1.5093
  351MOL0     H47349  12.156  10.688   3.959 -1.5481  0.3113  0.6674
  351MOL0     H47350  12.306  10.736   4.024 -2.2378  0.2938  1.2702
  351MOL0     H47351  12.225  10.929   4.135  1.3337 -0.5681 -0.3070
  351MOL0     H47352  12.095  10.943   4.027 -0.3333  0.7109  1.0775
  351MOL0     H47353  11.984  10.746   4.137  0.8967 -0.1643 -0.6710
  351MOL0     H47354  12.116  10.741   4.258  0.4467 -0.5630 -0.6354
  351MOL0     H47355  11.977  11.014   4.191  1.3267 -0.9763 -0.9639
  351MOL0     H47356  12.071  10.965   4.328  1.1471 -3.2438  0.1108
  351MOL0     H47357  11.903  10.821   4.422  2.1744 -0.3006 -0.7533
  351MOL0     H47358  11.802  10.812   4.287  1.2975 -1.4346 -0.6450
  351MOL0     H47359  11.881  11.075   4.430 -1.0724 -0.9370  3.3092
  351MOL0     H47360  11.751  11.044   4.318  0.5480 -1.7481 -0.2323
  351MOL0     H47361  11.702  11.060   4.590 -0.9207 -0.6457  0.6528
  351MOL0     H47362  11.757  10.895   4.586 -2.5416 -0.7486  1.3158
  351MOL0     H47363  11.522  11.027   4.433  1.0363  0.1903  1.4866
  351MOL0     H47364  11.557  10.854   4.414  1.0875 -0.5934 -0.2573
  351MOL0     H47365  12.341  10.629   3.787  0.7441  1.7061  0.8355
  351MOL0     H47366  12.353  10.543   3.550 -0.6396 -1.2268  4.0180
  351MOL0     H47367  12.554  10.476   3.108 -1.8493 -3.0172  2.0902
  351MOL0     H47368  12.523  10.434   2.868  0.9714  2.9032  0.5277
  351MOL0     H47369  11.082   9.348   3.250 -0.3817  0.6111 -1.1375
  351MOL0     H47370  11.230   9.171   3.386  3.3027 -0.9059 -0.2246
  351MOL0     H47371  11.547   8.668   3.155 -0.0816 -0.0389 -0.2080
  351MOL0     H47372  11.734   8.552   3.225  1.5462 -0.1183  0.1921
  351MOL0     H47373  12.050   8.583   3.559 -0.4342  1.1325  1.9791
  351MOL0     H47374  11.964   8.730   3.595 -1.8823  1.4570 -1.3239
  351MOL0     H47375  12.151   8.808   3.492  2.0625 -0.5358 -0.7019
  351MOL0     H47376  12.027   8.849   3.392 -1.8261 -0.2065  3.5577
  351MOL0     H47377  12.166   8.778   3.244 -0.1946 -0.0635  0.7011
  351MOL0     H47378  12.082   8.613   3.258  1.2081 -1.0420  0.0364
  351MOL0     H47379  12.369   8.702   3.303  0.4856  0.1719  2.1689
  351MOL0     H47380  12.305   8.600   3.430  0.5714  1.5643 -0.1854
  351MOL0     H47381  12.399   8.356   3.092 -1.5840 -1.9744  1.5297
  351MOL0     H47382  11.768   8.827   3.555 -2.7016 -1.4238  0.6534
  351MOL0     H47383  11.575   8.933   3.627  0.3695  0.5702  0.3174
  351MOL0     H47384  11.565   9.072   3.506  0.1673 -0.0169  0.0813
  351MOL0     H47385  11.437   8.943   3.523  0.8260 -1.9834 -1.6127
  352MOL0     O47386   3.869  10.414   3.682  0.3802  0.7901 -0.4184
  352MOL0     C47387   3.766  10.476   3.682  0.3367  1.3709 -0.2329
  352MOL0     O47388   3.748  10.602   3.732  0.0831  0.1163  0.3245
  352MOL0     C47389   3.863  10.672   3.770 -0.4997 -0.3788 -0.2260
  352MOL0     C47390   3.925  10.769   3.687  0.2249 -0.6323 -0.8385
  352MOL0     C47391   4.040  10.831   3.741  0.8006  0.7095  0.0056
  352MOL0     C47392   4.087  10.802   3.876 -0.1744  0.8550  0.3084
  352MOL0     O47393   4.198  10.850   3.926 -0.3948  0.0126  0.0045
  352MOL0     C47394   4.269  10.946   3.859  0.0063 -0.7721 -0.3857
  352MOL0     C47395   4.360  11.017   3.964  0.1023  0.4313  1.1192
  352MOL0     C47396   4.413  10.942   4.083  0.1439  0.2602 -0.3045
  352MOL0     C47397   4.511  11.033   4.162 -0.2606 -0.0060 -0.5778
  352MOL0     C47398   4.541  10.958   4.292  0.3641 -0.6699 -0.7569
  352MOL0     C47399   4.650  11.037   4.369 -1.1525 -0.6077 -1.7587
  352MOL0     C47400   4.670  10.965   4.506 -0.1503 -1.2577  0.4166
  352MOL0     C47401   4.775  11.031   4.600 -0.5609 -0.8512 -0.2227
  352MOL0     N47402   4.777  10.977   4.736  0.2349 -0.5290  0.4354
  352MOL0     C47403   4.789  10.849   4.784  0.3118 -0.3896  0.3910
  352MOL0     C47404   4.827  10.860   4.915 -0.8101  0.6657 -0.6740
  352MOL0     C47405   4.849  10.741   5.007 -0.2394  0.0239  0.0445
  352MOL0     C47406   4.877  10.616   4.933 -0.4815 -0.1697  0.4112
  352MOL0     C47407   5.019  10.616   4.871  0.0843  0.0050  0.5335
  352MOL0     C47408   5.144  10.582   4.959  0.1050 -0.0955 -0.6052
  352MOL0     O47409   5.150  10.439   4.974 -0.4857 -0.0340 -0.0537
  352MOL0     C47410   5.260  10.366   5.002  0.0497  0.1009  0.1850
  352MOL0     C47411   5.258  10.225   5.007 -1.2992  0.1188  0.7143
  352MOL0     C47412   5.385  10.153   5.011 -0.0905 -0.1947 -0.3820
  352MOL0     C47413   5.505  10.222   5.039 -0.3431 -0.1788  0.1874
  352MOL0     C47414   5.639  10.146   5.051 -0.3833 -0.3969 -0.5212
  352MOL0     O47415   5.629  10.025   5.105 -0.5569  0.4416  0.9859
  352MOL0     C47416   5.734   9.941   5.092  0.0095  0.0277 -0.3202
  352MOL0     C47417   5.720   9.826   5.015 -0.2775 -0.8441 -0.4889
  352MOL0     C47418   5.833   9.746   4.987  0.6707 -0.0878 -0.0574
  352MOL0     C47419   5.963   9.763   5.052 -0.2595  0.1689  0.4625
  352MOL0     O47420   6.078   9.696   5.048  0.4908  0.1084  1.2029
  352MOL0     C47421   6.127   9.667   4.914  0.6957 -0.2938 -0.0523
  352MOL0     C47422   6.160   9.800   4.828 -0.1174 -0.2148 -0.4051
  352MOL0     C47423   6.231   9.919   4.887  0.3018 -0.7878 -0.3123
  352MOL0     C47424   6.369   9.894   4.944  0.5274 -0.0219  0.2547
  352MOL0     C47425   6.442  10.024   4.977 -0.3549 -0.8313 -0.1686
  352MOL0     C47426   6.371  10.112   5.079 -0.1487 -0.8704 -1.3766
  352MOL0     C47427   6.456  10.232   5.131  0.6824  0.5501  0.2286
  352MOL0     C47428   6.463  10.254   5.280  0.0615  0.4712 -0.6536
  352MOL0    Cl47429   6.570  10.389   5.312  0.5168  0.1733  0.0048
  352MOL0     C47430   5.968   9.876   5.132  0.0941  0.1376  0.6033
  352MOL0     C47431   5.858   9.961   5.153  0.2312  0.4351 -0.3285
  352MOL0     O47432   5.737  10.201   5.008 -0.2187 -0.0963 -0.2918
  352MOL0     C47433   5.500  10.356   5.043  0.9478  1.4237 -0.1205
  352MOL0     C47434   5.380  10.422   5.020 -0.6021 -0.1016 -0.1303
  352MOL0     N47435   4.830  10.984   4.949 -0.3830 -0.3217  1.1578
  352MOL0     N47436   4.792  11.053   4.844  0.3249 -0.0505 -0.0594
  352MOL0     C47437   4.026  10.708   3.946 -0.0721  0.0222 -0.0312
  352MOL0     C47438   3.916  10.639   3.901  1.5925  0.4451 -0.2813
  352MOL0     C47439   3.648  10.419   3.607 -0.3455  0.6314 -0.2105
  352MOL0     C47440   3.561  10.517   3.550 -0.2668  0.6942  0.0603
  352MOL0     C47441   3.457  10.474   3.470 -0.5243 -1.5203 -1.4858
  352MOL0     C47442   3.448  10.338   3.426 -0.0642  0.4688 -0.6883
  352MOL0     O47443   3.340  10.306   3.342  0.1317 -0.4353  0.6996
  352MOL0     C47444   3.370  10.297   3.207 -0.0510  0.4133  0.1200
  352MOL0     C47445   3.283  10.393   3.123  0.1413  0.0267  0.4053
  352MOL0     C47446   3.273  10.536   3.180 -0.8169  0.6833 -0.1871
  352MOL0     C47447   3.182  10.624   3.090 -0.1014  0.1486 -0.2741
  352MOL0     C47448   3.035  10.591   3.094  0.1776  0.4281 -0.5769
  352MOL0     C47449   2.917  10.553   3.110 -0.8572 -0.7518  0.3703
  352MOL0     C47450   3.534  10.249   3.485 -0.2428 -0.3325  0.2396
  352MOL0     C47451   3.633  10.287   3.576  0.5451  0.2286 -0.2611
  352MOL0     C47452   3.703  10.171   3.648  0.5366  0.3911 -0.8874
  352MOL0     H47453   3.887  10.800   3.590 -0.7344 -2.8454 -1.2376
  352MOL0     H47454   4.094  10.912   3.694 -0.2041 -0.8813 -4.3675
  352MOL0     H47455   4.321  10.897   3.776  3.7563  1.1637  0.5969
  352MOL0     H47456   4.213  11.033   3.824 -1.2823 -0.9652  1.1061
  352MOL0     H47457   4.316  11.111   3.999  0.2116  0.2387  1.7735
  352MOL0     H47458   4.446  11.061   3.911  0.2235 -0.8820  0.1882
  352MOL0     H47459   4.467  10.850   4.061 -0.5379  0.0169 -0.9913
  352MOL0     H47460   4.317  10.923   4.131  0.2265 -1.2804 -0.7006
  352MOL0     H47461   4.595  11.041   4.092 -1.4532 -0.6627 -2.1635
  352MOL0     H47462   4.461  11.126   4.187  1.8292  0.1150  4.3439
  352MOL0     H47463   4.455  10.944   4.359  0.0485 -1.8276 -1.3696
  352MOL0     H47464   4.582  10.858   4.273 -1.0899 -1.5527  0.4808
  352MOL0     H47465   4.747  11.034   4.319 -0.2487 -1.0904 -0.0472
  352MOL0     H47466   4.615  11.140   4.386  0.1515 -0.6655  2.3508
  352MOL0     H47467   4.702  10.865   4.477  6.3982 -0.4402  3.0551
  352MOL0     H47468   4.574  10.952   4.558 -1.0403  0.7762 -0.5602
  352MOL0     H47469   4.872  11.016   4.551 -0.7831 -3.2979 -0.0203
  352MOL0     H47470   4.767  11.139   4.615  2.1919 -0.8770  2.3476
  352MOL0     H47471   4.761  10.758   4.732  1.2212 -1.6265  1.9371
  352MOL0     H47472   4.938  10.763   5.068 -0.9238  1.5282  0.5494
  352MOL0     H47473   4.765  10.720   5.073 -0.6459  1.6072  0.0773
  352MOL0     H47474   4.872  10.537   5.009 -2.8387  0.1410  0.6510
  352MOL0     H47475   4.792  10.590   4.871 -2.4560  3.8716  1.0728
  352MOL0     H47476   5.044  10.720   4.848  3.7082 -1.1315 -1.4505
  352MOL0     H47477   5.022  10.551   4.784  0.8441  2.0370 -1.0409
  352MOL0     H47478   5.136  10.631   5.057  2.0558 -2.1945  0.7187
  352MOL0     H47479   5.239  10.610   4.913 -0.0225 -2.7482 -2.7378
  352MOL0     H47480   5.159  10.181   4.996 -0.5412 -1.4955  0.0294
  352MOL0     H47481   5.386  10.045   5.003  2.5897 -0.1404 -2.0554
  352MOL0     H47482   5.619   9.804   4.982 -0.5137 -1.3851  0.5514
  352MOL0     H47483   5.818   9.666   4.914  0.9326  1.1452 -1.5029
  352MOL0     H47484   6.219   9.612   4.936  1.1309  0.7154  0.7442
  352MOL0     H47485   6.061   9.600   4.858  1.3119  0.1013 -1.2870
  352MOL0     H47486   6.204   9.778   4.731 -0.4084 -3.9784  0.1607
  352MOL0     H47487   6.060   9.836   4.802 -1.4387 -3.5246 -0.3794
  352MOL0     H47488   6.236  10.003   4.818  4.9514 -0.0185  0.6281
  352MOL0     H47489   6.173   9.959   4.971 -0.1427 -0.6433 -0.6809
  352MOL0     H47490   6.432   9.849   4.867 -0.7008 -2.1263  0.3766
  352MOL0     H47491   6.364   9.823   5.027 -1.3908 -0.8790 -0.5139
  352MOL0     H47492   6.453  10.085   4.887  0.8975  3.1613  2.4095
  352MOL0     H47493   6.546  10.002   5.006  0.5589  3.4563  0.5011
  352MOL0     H47494   6.282  10.161   5.038 -2.0273 -1.6290  1.4662
  352MOL0     H47495   6.333  10.064   5.169  0.5159 -0.6323 -0.9629
  352MOL0     H47496   6.423  10.328   5.092  3.2186  1.5850  0.4126
  352MOL0     H47497   6.564  10.225   5.110  0.5745  0.8788 -0.4725
  352MOL0     H47498   6.359  10.272   5.311  0.0320  1.7673 -1.4199
  352MOL0     H47499   6.485  10.166   5.342 -2.8713  0.1399  0.0770
  352MOL0     H47500   6.058   9.883   5.193  0.5189 -1.4418  0.2160
  352MOL0     H47501   5.870  10.049   5.216  0.1837 -0.3459  0.8133
  352MOL0     H47502   5.599  10.400   5.050  1.2420  0.8664 -0.6992
  352MOL0     H47503   5.397  10.529   5.025 -0.1319 -0.1049 -1.4114
  352MOL0     H47504   4.080  10.675   4.034  0.7253  1.9404  0.2399
  352MOL0     H47505   3.871  10.561   3.964 -0.6230  0.5956 -1.5674
  352MOL0     H47506   3.585  10.619   3.579 -1.4564  0.4356  2.1618
  352MOL0     H47507   3.402  10.557   3.429  1.7179  1.2569  0.7143
  352MOL0     H47508   3.350  10.195   3.174 -1.1250  0.7266 -0.2270
  352MOL0     H47509   3.473  10.322   3.179  0.1481 -0.8382 -0.3056
  352MOL0     H47510   3.178  10.363   3.128 -0.0286  0.6190  0.4435
  352MOL0     H47511   3.324  10.387   3.021 -0.4655 -1.6636  0.2282
  352MOL0     H47512   3.371  10.584   3.171 -0.5413  0.1650  0.0187
  352MOL0     H47513   3.243  10.541   3.285  1.2282 -2.7805  0.7131
  352MOL0     H47514   3.190  10.729   3.121 -4.8554  0.2906  1.1177
  352MOL0     H47515   3.220  10.617   2.987  0.5013  3.1695 -0.3720
  352MOL0     H47516   2.819  10.512   3.125 -0.8479 -0.2930  1.8524
  352MOL0     H47517   3.544  10.148   3.446 -2.4155 -1.2447  1.8475
  352MOL0     H47518   3.803  10.155   3.608  1.4137  1.4024  0.7742
  352MOL0     H47519   3.727  10.200   3.751  2.0379  0.4383 -1.2268
  352MOL0     H47520   3.644  10.079   3.649 -0.2232  0.8158  2.0035
  353MOL0     O47521   6.015   6.635   3.751  0.0384  0.3156  0.7206
  353MOL0     C47522   6.129   6.684   3.757 -0.1426 -0.3752  0.3882
  353MOL0     O47523   6.160   6.817   3.721  0.2130  0.1898 -1.1049
  353MOL0     C47524   6.063   6.890   3.664  0.6005  0.0725  0.0829
  353MOL0     C47525   5.949   6.939   3.736  0.0714  0.8890 -0.8552
  353MOL0     C47526   5.853   7.016   3.669  0.1284  1.0338  0.0414
  353MOL0     C47527   5.866   7.041   3.527  0.8365 -1.4360 -1.4387
  353MOL0     O47528   5.776   7.111   3.454  0.6484  0.0618  0.0067
  353MOL0     C47529   5.651   7.157   3.522 -0.2739  0.7420 -0.2124
  353MOL0     C47530   5.569   7.241   3.431  0.1795  0.1480  0.1651
  353MOL0     C47531   5.445   7.279   3.513 -0.0552  0.5368 -0.3754
  353MOL0     C47532   5.337   7.321   3.414  0.8086  0.2115 -0.9550
  353MOL0     C47533   5.359   7.438   3.312  0.9147  1.2364 -0.6531
  353MOL0     C47534   5.210   7.474   3.271 -0.8236 -0.5737 -0.2433
  353MOL0     C47535   5.207   7.549   3.141  0.1093 -0.3578  0.2799
  353MOL0     C47536   5.299   7.681   3.135  0.1063 -0.5971  0.0776
  353MOL0     N47537   5.247   7.780   3.228 -0.4002 -0.1129 -0.5794
  353MOL0     C47538   5.125   7.849   3.238  0.8811 -0.3079 -0.9695
  353MOL0     C47539   5.130   7.936   3.344 -0.5963 -0.0744 -0.2264
  353MOL0     C47540   5.043   8.044   3.386  0.5177  0.8083  0.1241
  353MOL0     C47541   4.928   8.084   3.299 -0.4291 -0.1918  0.5569
  353MOL0     C47542   4.976   8.160   3.174 -0.0314  0.2463 -1.2776
  353MOL0     C47543   4.862   8.224   3.112  0.4851 -0.1142 -0.5333
  353MOL0     O47544   4.899   8.280   2.981 -0.7012 -0.0826 -0.6760
  353MOL0     C47545   4.859   8.401   2.936  0.6794  0.7506  0.5825
  353MOL0     C47546   4.918   8.456   2.827 -1.4431 -0.7522 -0.3269
  353MOL0     C47547   4.875   8.577   2.774  0.6591 -0.4850 -0.4688
  353MOL0     C47548   4.770   8.656   2.841  0.3999  0.6426 -1.6255
  353MOL0     C47549   4.722   8.790   2.791  0.1858 -0.0295  1.2590
  353MOL0     O47550   4.610   8.838   2.856 -0.0011  0.4152  0.3808
  353MOL0     C47551   4.569   8.962   2.805 -0.3339 -0.1134 -0.5062
  353MOL0     C47552   4.469   8.995   2.721 -0.2545  0.0474  0.0974
  353MOL0     C47553   4.427   9.126   2.690 -0.9799  0.6989  0.6218
  353MOL0     C47554   4.506   9.234   2.731  0.1480 -0.5688 -0.0751
  353MOL0     O47555   4.475   9.365   2.688  0.6053 -0.0255 -0.1774
  353MOL0     C47556   4.580   9.454   2.717 -0.5637 -0.3070  0.0382
  353MOL0     C47557   4.549   9.598   2.680 -0.0488  0.2879  0.4351
  353MOL0     C47558   4.650   9.697   2.721  0.0321 -0.6097  0.8881
  353MOL0     C47559   4.796   9.664   2.685  0.3060  0.5695 -0.0360
  353MOL0     C47560   4.889   9.786   2.708 -0.5986 -1.0579  0.0938
  353MOL0     C47561   5.037   9.779   2.650 -0.1078  0.8000 -0.9419
  353MOL0     C47562   5.119   9.901   2.685 -0.5287 -1.1023  0.2917
  353MOL0     C47563   5.240   9.854   2.766 -0.0708 -0.2447  0.0664
  353MOL0    Cl47564   5.188   9.787   2.928 -0.3106  0.2912  0.2586
  353MOL0     C47565   4.619   9.208   2.811 -0.2790 -0.3697  0.0783
  353MOL0     C47566   4.639   9.074   2.855 -0.5811  0.1743 -0.9093
  353MOL0     O47567   4.778   8.840   2.690 -0.0503 -0.1215  0.4849
  353MOL0     C47568   4.715   8.594   2.961  0.6133  1.4828 -0.1345
  353MOL0     C47569   4.754   8.477   3.000 -0.4629  0.6904 -0.7582
  353MOL0     N47570   5.264   7.922   3.387  0.2519 -0.8282 -0.3644
  353MOL0     N47571   5.330   7.836   3.326 -0.2445 -0.0376  0.2881
  353MOL0     C47572   5.978   7.009   3.462  0.7848  1.4080  0.3797
  353MOL0     C47573   6.069   6.919   3.522 -0.4760 -0.7626 -1.1909
  353MOL0     C47574   6.233   6.579   3.782 -0.2087 -0.8276 -0.0160
  353MOL0     C47575   6.370   6.626   3.785  0.2322 -0.3394  1.1712
  353MOL0     C47576   6.467   6.538   3.833 -0.5586 -0.0872 -0.5198
  353MOL0     C47577   6.441   6.408   3.860  0.7305  0.3830  0.3637
  353MOL0     O47578   6.552   6.324   3.879  0.4987 -0.6189 -0.1992
  353MOL0     C47579   6.522   6.184   3.892 -0.4089 -0.5045  0.6128
  353MOL0     C47580   6.661   6.100   3.916  1.2772 -0.5633  0.7064
  353MOL0     C47581   6.678   6.094   4.070  0.1831  0.8693 -0.3007
  353MOL0     C47582   6.825   6.047   4.118 -0.2435 -1.0057 -0.0698
  353MOL0     C47583   6.839   5.909   4.081  0.3703  0.4762  0.1306
  353MOL0     C47584   6.879   5.803   4.030 -0.1008  0.0977 -0.2615
  353MOL0     C47585   6.306   6.362   3.847  0.0079  0.0425 -0.6338
  353MOL0     C47586   6.206   6.447   3.818  1.3300  0.7262  0.6929
  353MOL0     C47587   6.071   6.382   3.840  0.3178 -0.1565  0.2979
  353MOL0     H47588   5.943   6.919   3.843 -1.6473  3.1266 -0.4540
  353MOL0     H47589   5.769   7.049   3.729  1.2468  1.5435  1.3895
  353MOL0     H47590   5.586   7.074   3.552  0.7207  0.4457  1.2303
  353MOL0     H47591   5.684   7.219   3.605  2.5924 -0.3445 -0.4229
  353MOL0     H47592   5.547   7.167   3.353 -2.4139  0.8393  0.1431
  353MOL0     H47593   5.627   7.325   3.392  1.2909 -0.4096  0.5717
  353MOL0     H47594   5.466   7.369   3.572 -0.4856 -0.0878  0.7594
  353MOL0     H47595   5.409   7.202   3.581 -0.3495  1.7790  0.9267
  353MOL0     H47596   5.320   7.224   3.366 -0.8489 -1.7697  3.1971
  353MOL0     H47597   5.252   7.336   3.482  0.5063 -0.7764 -1.0990
  353MOL0     H47598   5.415   7.517   3.362  2.1359  0.8314 -1.3401
  353MOL0     H47599   5.415   7.399   3.226 -0.4429 -0.2255 -0.9406
  353MOL0     H47600   5.151   7.384   3.250  1.1658 -1.2821 -3.3119
  353MOL0     H47601   5.164   7.526   3.356  1.4983 -0.2138  0.8520
  353MOL0     H47602   5.103   7.572   3.115 -0.2314 -0.4141  1.5639
  353MOL0     H47603   5.239   7.481   3.061 -1.8161 -2.1994  0.9832
  353MOL0     H47604   5.398   7.648   3.166 -0.6588 -3.1117  0.0585
  353MOL0     H47605   5.312   7.727   3.037 -0.1826  3.8075  1.8480
  353MOL0     H47606   5.034   7.853   3.178 -1.3985  0.3182  2.2623
  353MOL0     H47607   4.992   8.018   3.479  0.2961  3.2736  0.7742
  353MOL0     H47608   5.099   8.136   3.407 -0.9756  1.4308  1.6637
  353MOL0     H47609   4.873   7.994   3.270 -1.0611  0.3802 -0.0439
  353MOL0     H47610   4.873   8.156   3.361 -2.6850  0.2301 -1.7731
  353MOL0     H47611   5.035   8.097   3.106 -0.3062 -1.0087 -0.3887
  353MOL0     H47612   5.044   8.240   3.206 -0.2557 -0.2514  0.5168
  353MOL0     H47613   4.827   8.304   3.178  2.7904  2.3683 -2.0758
  353MOL0     H47614   4.788   8.146   3.098 -1.4154  1.0187  2.2229
  353MOL0     H47615   5.001   8.400   2.784  2.0526  1.6299  2.7223
  353MOL0     H47616   4.924   8.619   2.687  0.6751 -0.0400 -0.2488
  353MOL0     H47617   4.422   8.917   2.662 -1.5924  1.0371 -0.1772
  353MOL0     H47618   4.343   9.136   2.622 -0.7986 -1.0211  0.0956
  353MOL0     H47619   4.587   9.457   2.826  1.0160  4.1227  0.0480
  353MOL0     H47620   4.674   9.417   2.676  0.6060  4.0277 -1.8251
  353MOL0     H47621   4.520   9.611   2.575  1.7544 -0.3451 -0.1782
  353MOL0     H47622   4.457   9.623   2.734  0.1869  0.2758  0.8436
  353MOL0     H47623   4.631   9.787   2.662  1.0335  1.8829  4.0640
  353MOL0     H47624   4.656   9.704   2.830  1.4560  1.2519  0.7349
  353MOL0     H47625   4.801   9.622   2.584  1.9332 -1.4888  0.8095
  353MOL0     H47626   4.838   9.575   2.733 -0.3338 -1.0612 -2.3235
  353MOL0     H47627   4.893   9.799   2.817 -4.7560  3.4187  0.0874
  353MOL0     H47628   4.843   9.878   2.671 -1.7935 -1.2167  1.0936
  353MOL0     H47629   5.075   9.678   2.668 -1.6525 -0.6289 -4.6085
  353MOL0     H47630   5.022   9.782   2.541 -2.3370  0.0545 -0.7169
  353MOL0     H47631   5.063   9.977   2.740  0.7024 -0.4549  0.6820
  353MOL0     H47632   5.136   9.955   2.592  0.0501 -1.1158  0.3833
  353MOL0     H47633   5.302   9.784   2.708  2.4909 -0.7247  3.1052
  353MOL0     H47634   5.295   9.946   2.788 -2.0945  0.6305  1.7536
  353MOL0     H47635   4.693   9.279   2.847  1.6786 -1.8606 -0.8561
  353MOL0     H47636   4.718   9.061   2.929 -0.4619 -0.3432 -1.1180
  353MOL0     H47637   4.638   8.642   3.021 -1.8471  0.1592 -2.0614
  353MOL0     H47638   4.700   8.438   3.086 -0.0173 -0.5829 -1.0325
  353MOL0     H47639   5.993   7.049   3.362 -2.0955  2.5949  0.3471
  353MOL0     H47640   6.162   6.883   3.478  0.8120 -1.3373  1.7533
  353MOL0     H47641   6.390   6.731   3.767  1.2676 -0.4052  1.8079
  353MOL0     H47642   6.572   6.559   3.849 -0.6506 -0.0026 -0.0403
  353MOL0     H47643   6.486   6.147   3.795  0.2755  0.9384 -0.2244
  353MOL0     H47644   6.446   6.162   3.968 -1.5462 -1.9488 -0.8771
  353MOL0     H47645   6.749   6.133   3.860  0.9053 -0.2688  0.2940
  353MOL0     H47646   6.627   6.004   3.875  0.4906 -0.3756  0.9012
  353MOL0     H47647   6.603   6.027   4.111  2.1484 -2.2982 -1.4793
  353MOL0     H47648   6.677   6.198   4.103 -0.6066  0.2161  1.8696
  353MOL0     H47649   6.905   6.102   4.067 -2.0967  1.5199 -0.4228
  353MOL0     H47650   6.849   6.052   4.225  3.4239 -0.4702 -0.7699
  353MOL0     H47651   6.906   5.714   3.977  0.0947  0.8297 -1.4376
  353MOL0     H47652   6.287   6.256   3.865 -2.6986  0.5472 -0.0835
  353MOL0     H47653   6.080   6.279   3.879  1.0871 -0.4808 -0.6993
  353MOL0     H47654   6.033   6.446   3.920  1.5807  1.7983 -0.6084
  353MOL0     H47655   6.011   6.378   3.749  0.5825 -2.8801  0.1487
  354MOL0     O47656   5.348   9.306   8.459  0.5076 -0.7419 -0.3557
  354MOL0     C47657   5.235   9.278   8.413  0.0568 -0.0884 -0.3848
  354MOL0     O47658   5.192   9.156   8.377  0.2455  0.0926  0.0856
  354MOL0     C47659   5.264   9.041   8.405 -0.3174 -0.0131 -0.5174
  354MOL0     C47660   5.331   9.020   8.524 -0.4635  0.6100  0.2394
  354MOL0     C47661   5.404   8.904   8.555  0.2494 -0.2883 -0.2617
  354MOL0     C47662   5.408   8.808   8.453 -0.9713 -0.3090  0.6963
  354MOL0     O47663   5.477   8.690   8.462 -0.0348  0.5117 -0.8192
  354MOL0     C47664   5.517   8.641   8.599 -0.4061 -0.0770  0.6492
  354MOL0     C47665   5.558   8.493   8.562  0.3986 -0.2155 -0.3232
  354MOL0     C47666   5.552   8.390   8.678  0.1377  0.1713 -0.3405
  354MOL0     C47667   5.690   8.377   8.741  0.6443 -0.3240 -0.0466
  354MOL0     C47668   5.698   8.265   8.848  0.3319 -0.6600 -0.2824
  354MOL0     C47669   5.844   8.288   8.884  0.4846  0.5723 -0.3142
  354MOL0     C47670   5.880   8.205   9.005 -0.7638  0.0545  0.4794
  354MOL0     C47671   5.883   8.050   8.976 -0.9522 -0.1796  0.2349
  354MOL0     N47672   5.997   8.013   8.893 -0.8009 -0.1922 -0.6929
  354MOL0     C47673   6.120   7.959   8.944 -0.1186 -0.3954  0.4030
  354MOL0     C47674   6.197   7.920   8.837  0.1633 -0.3808 -0.7361
  354MOL0     C47675   6.337   7.880   8.853 -0.2877  0.6976  0.3490
  354MOL0     C47676   6.353   7.734   8.902  0.1515 -0.0200  0.2534
  354MOL0     C47677   6.300   7.625   8.807  0.9729  0.2924 -0.2563
  354MOL0     C47678   6.389   7.612   8.681  0.5600 -0.1011  0.3594
  354MOL0     O47679   6.361   7.492   8.603  0.1956  0.1109  0.0946
  354MOL0     C47680   6.244   7.495   8.526 -0.3118  0.5642 -0.6462
  354MOL0     C47681   6.205   7.375   8.465  0.1598 -0.6487  0.1265
  354MOL0     C47682   6.085   7.362   8.402  0.2849  0.3667 -0.5270
  354MOL0     C47683   5.999   7.474   8.396  0.4153 -0.7125 -0.3823
  354MOL0     C47684   5.865   7.475   8.327  0.2540  0.4366 -0.7717
  354MOL0     O47685   5.841   7.367   8.255 -1.0398  0.1128 -1.1536
  354MOL0     C47686   5.724   7.367   8.180  0.2670 -0.0495 -0.2996
  354MOL0     C47687   5.600   7.328   8.235  0.3599  0.8648  0.3044
  354MOL0     C47688   5.484   7.316   8.160  0.7791 -1.1874  1.0966
  354MOL0     C47689   5.493   7.356   8.034  0.1566 -0.1438  0.3531
  354MOL0     O47690   5.380   7.351   7.956  0.3275  0.7706 -0.4678
  354MOL0     C47691   5.387   7.242   7.863  0.2342  0.1938  0.1602
  354MOL0     C47692   5.322   7.272   7.732  0.2021 -0.9904  0.5261
  354MOL0     C47693   5.431   7.211   7.632 -0.5230 -0.1213 -0.4094
  354MOL0     C47694   5.389   7.254   7.492 -0.4501  0.1799 -1.1287
  354MOL0     C47695   5.511   7.262   7.398 -0.1210 -0.3489  0.3268
  354MOL0     C47696   5.467   7.321   7.269  1.0051 -0.2520  0.0656
  354MOL0     C47697   5.579   7.341   7.157  0.9473  0.2292  1.3487
  354MOL0     C47698   5.685   7.441   7.189 -0.5348  0.1214 -0.2653
  354MOL0    Cl47699   5.614   7.583   7.238  0.0046  0.0421  0.2921
  354MOL0     C47700   5.611   7.383   7.970  0.4701  0.0575  0.0988
  354MOL0     C47701   5.728   7.392   8.042  0.6339 -0.2371 -0.2569
  354MOL0     O47702   5.797   7.582   8.325  0.3981 -0.0791 -0.6672
  354MOL0     C47703   6.035   7.591   8.463 -0.1478 -0.6168 -0.2744
  354MOL0     C47704   6.160   7.597   8.519  0.4295 -0.5787  0.4855
  354MOL0     N47705   6.109   7.936   8.737 -1.1322 -0.7890  0.9652
  354MOL0     N47706   5.992   7.981   8.765  0.7567 -0.5893  0.2890
  354MOL0     C47707   5.351   8.843   8.329  0.3117 -0.2176  0.2627
  354MOL0     C47708   5.272   8.951   8.303  0.4476 -0.2041  0.2404
  354MOL0     C47709   5.155   9.396   8.368  0.4174  0.2753 -0.1562
  354MOL0     C47710   5.107   9.473   8.472 -0.7043  0.1847 -1.0272
  354MOL0     C47711   5.037   9.594   8.446  0.6063  0.7658 -0.2339
  354MOL0     C47712   4.994   9.616   8.314  0.2069 -0.0727 -0.6393
  354MOL0     O47713   4.915   9.730   8.302  0.2618 -0.4970  1.6493
  354MOL0     C47714   4.882   9.787   8.174  0.9642  0.4749  0.7880
  354MOL0     C47715   4.763   9.888   8.188  0.0351 -0.8199 -0.3100
  354MOL0     C47716   4.689   9.897   8.047  0.5720 -0.3414 -0.6951
  354MOL0     C47717   4.618  10.038   8.055  0.4892  0.5690  0.1539
  354MOL0     C47718   4.533  10.068   7.938 -0.1424 -0.9677  0.2213
  354MOL0     C47719   4.464  10.095   7.842 -0.3993  0.2770  0.1910
  354MOL0     C47720   5.059   9.549   8.210  0.9200 -0.8349  0.8161
  354MOL0     C47721   5.135   9.435   8.234 -1.5878  0.2216 -0.5286
  354MOL0     C47722   5.205   9.357   8.121 -0.2086 -0.2335  0.6783
  354MOL0     H47723   5.343   9.090   8.606  1.5326  0.4769  0.1080
  354MOL0     H47724   5.448   8.898   8.654  3.6132 -0.4324 -1.6158
  354MOL0     H47725   5.597   8.700   8.644 -1.0151  0.2078  1.3681
  354MOL0     H47726   5.434   8.647   8.670 -0.0863 -0.3135  1.0486
  354MOL0     H47727   5.661   8.500   8.527  0.8717  0.7170  1.1656
  354MOL0     H47728   5.487   8.455   8.488  1.8142  0.5353 -2.1417
  354MOL0     H47729   5.512   8.299   8.632 -2.5803 -0.0287  2.1529
  354MOL0     H47730   5.472   8.427   8.742 -0.8795 -0.2360 -1.3345
  354MOL0     H47731   5.759   8.345   8.662 -1.3521 -3.1314 -0.8104
  354MOL0     H47732   5.719   8.475   8.782  1.3318 -1.1950  1.6176
  354MOL0     H47733   5.638   8.286   8.937  3.1421  1.2976  1.3406
  354MOL0     H47734   5.673   8.166   8.808 -1.0105 -0.7158  0.6439
  354MOL0     H47735   5.911   8.262   8.802  1.3412  1.7978 -0.0260
  354MOL0     H47736   5.851   8.396   8.905 -2.3696  2.1506 -5.5501
  354MOL0     H47737   5.813   8.233   9.087 -0.3659  1.8183  0.2486
  354MOL0     H47738   5.977   8.236   9.044  1.1913 -1.0162 -3.1211
  354MOL0     H47739   5.890   8.001   9.074  0.6238 -2.5099 -0.9581
  354MOL0     H47740   5.795   8.017   8.921 -0.2042 -3.3907  0.7705
  354MOL0     H47741   6.154   7.948   9.047 -1.5014 -2.8533  0.6993
  354MOL0     H47742   6.374   7.895   8.751  0.9529 -1.8080  0.3429
  354MOL0     H47743   6.404   7.939   8.917  0.7362 -0.1860  0.1267
  354MOL0     H47744   6.458   7.708   8.921 -0.7913 -2.7953  2.3404
  354MOL0     H47745   6.301   7.739   8.997  0.3610 -0.4548  0.3948
  354MOL0     H47746   6.197   7.650   8.778  1.0525  0.7228 -0.1703
  354MOL0     H47747   6.292   7.528   8.857 -1.4194  0.0455 -0.9641
  354MOL0     H47748   6.492   7.609   8.717 -0.1194  1.2437  2.5984
  354MOL0     H47749   6.375   7.704   8.623  4.0725 -0.4659 -1.2918
  354MOL0     H47750   6.272   7.289   8.464 -0.1284 -0.9086 -2.2417
  354MOL0     H47751   6.051   7.268   8.358 -1.8289  1.6061 -1.6946
  354MOL0     H47752   5.591   7.292   8.337  0.1171 -1.5009 -0.4861
  354MOL0     H47753   5.391   7.279   8.200 -1.1994  0.7765 -1.3475
  354MOL0     H47754   5.490   7.207   7.849  0.8107  2.4417 -1.7864
  354MOL0     H47755   5.324   7.169   7.916  0.0270  1.1193  1.2156
  354MOL0     H47756   5.216   7.252   7.718  0.7135 -2.8264 -1.1645
  354MOL0     H47757   5.327   7.380   7.713 -1.6077 -1.3136 -2.4182
  354MOL0     H47758   5.530   7.254   7.649 -1.2211  0.0236  4.7457
  354MOL0     H47759   5.437   7.102   7.639  2.1856 -0.1532 -1.7746
  354MOL0     H47760   5.351   7.356   7.503  1.8036  1.1360 -1.7247
  354MOL0     H47761   5.311   7.189   7.451 -0.1503  0.5988 -2.4007
  354MOL0     H47762   5.554   7.162   7.384  2.4432  0.8280 -0.7179
  354MOL0     H47763   5.595   7.321   7.433 -1.8958  1.7609  1.2636
  354MOL0     H47764   5.382   7.263   7.230  1.8395  0.1633 -2.5659
  354MOL0     H47765   5.420   7.418   7.290 -0.3467 -0.8908  0.1381
  354MOL0     H47766   5.541   7.368   7.058  1.5991 -1.7928  0.4819
  354MOL0     H47767   5.631   7.246   7.142 -1.5225 -1.1269  0.7621
  354MOL0     H47768   5.740   7.396   7.272  0.1989 -2.6578 -2.1667
  354MOL0     H47769   5.752   7.451   7.104  0.2588  0.6710  0.4049
  354MOL0     H47770   5.609   7.401   7.863 -0.0722  0.8920  0.2399
  354MOL0     H47771   5.824   7.420   7.998 -0.1033 -0.2726 -1.9693
  354MOL0     H47772   5.971   7.678   8.452  1.2954  0.1618 -3.9307
  354MOL0     H47773   6.187   7.694   8.561  0.2067 -0.4557  0.3455
  354MOL0     H47774   5.352   8.778   8.242 -0.3497  1.9681 -1.4557
  354MOL0     H47775   5.235   8.969   8.202  0.0053  0.7863  0.5712
  354MOL0     H47776   5.121   9.431   8.571  1.1425 -1.1191 -1.7813
  354MOL0     H47777   4.972   9.644   8.517 -1.4542 -0.9686 -0.7860
  354MOL0     H47778   4.844   9.711   8.105 -0.2613  0.8785  0.9806
  354MOL0     H47779   4.966   9.840   8.129  1.5796 -1.1430 -0.0379
  354MOL0     H47780   4.796   9.982   8.233  0.1594 -2.1643  2.5656
  354MOL0     H47781   4.683   9.851   8.252 -1.9616  3.5018  0.0633
  354MOL0     H47782   4.609   9.823   8.050 -0.4170  0.2783 -5.0792
  354MOL0     H47783   4.749   9.881   7.957  1.4713  0.2879 -0.2175
  354MOL0     H47784   4.557  10.028   8.145  0.0042  0.6502 -0.1654
  354MOL0     H47785   4.692  10.114   8.078 -0.2369  0.8741  1.5639
  354MOL0     H47786   4.421  10.110   7.745 -1.3554 -3.3713 -0.0894
  354MOL0     H47787   5.029   9.577   8.110  3.4959 -0.7878  0.0021
  354MOL0     H47788   5.162   9.391   8.027 -1.3063  1.0809  1.6305
  354MOL0     H47789   5.310   9.390   8.117  0.0279 -1.0701 -2.0340
  354MOL0     H47790   5.198   9.249   8.137 -0.4616 -1.0772 -3.9176
  355MOL0     O47791   1.248   4.630   0.552 -0.4917 -0.2969  0.5683
  355MOL0     C47792   1.248   4.752   0.557  0.0814  0.4781 -0.8917
  355MOL0     O47793   1.149   4.828   0.614 -0.5625 -0.3226 -0.1467
  355MOL0     C47794   1.064   4.765   0.704 -0.4545 -0.6073 -0.1082
  355MOL0     C47795   0.930   4.772   0.685  0.2330 -0.5159  0.3272
  355MOL0     C47796   0.829   4.731   0.780 -0.2789 -0.6648  0.6267
  355MOL0     C47797   0.874   4.664   0.894  0.3424  0.0246 -1.1497
  355MOL0     O47798   0.782   4.614   0.981 -0.7401 -0.4802 -0.4911
  355MOL0     C47799   0.824   4.509   1.071  0.4833 -0.3376  0.1026
  355MOL0     C47800   0.707   4.426   1.124 -0.0716  0.9015  0.9788
  355MOL0     C47801   0.740   4.281   1.169  0.0828 -0.1767  0.2105
  355MOL0     C47802   0.780   4.195   1.044 -0.0259 -0.3522  0.1378
  355MOL0     C47803   0.746   4.043   1.062  0.1053  0.4491 -0.7225
  355MOL0     C47804   0.781   3.939   0.955 -1.3529  0.0619  0.7057
  355MOL0     C47805   0.769   3.794   1.005  0.1357 -0.2411  1.1595
  355MOL0     C47806   0.816   3.693   0.900 -0.3594 -0.0941  0.4015
  355MOL0     N47807   0.789   3.555   0.956  0.2807  0.5946 -0.0755
  355MOL0     C47808   0.830   3.495   1.075  1.1661 -0.0142  0.6537
  355MOL0     C47809   0.769   3.371   1.075  1.1156  0.3802 -0.6758
  355MOL0     C47810   0.798   3.267   1.182 -0.4860 -0.7901 -0.0993
  355MOL0     C47811   0.725   3.127   1.177 -0.5995  0.2650 -0.2902
  355MOL0     C47812   0.575   3.149   1.192 -0.6927  0.5898 -0.3025
  355MOL0     C47813   0.500   3.072   1.074 -0.8068  0.2606  0.3372
  355MOL0     O47814   0.480   2.936   1.119  0.3157  0.2337 -0.1915
  355MOL0     C47815   0.346   2.913   1.157 -0.5554  0.8561 -0.3753
  355MOL0     C47816   0.248   2.879   1.071 -0.7803  0.3566  0.0461
  355MOL0     C47817   0.122   2.853   1.101  0.3282 -0.3123 -0.8684
  355MOL0     C47818   0.081   2.847   1.226  0.1079 -0.4993  0.0833
  355MOL0     C47819  -0.055   2.800   1.267  1.2969 -0.0171  0.0666
  355MOL0     O47820  -0.081   2.750   1.386  0.2729  0.6027 -0.2088
  355MOL0     C47821  -0.210   2.695   1.419  0.0618 -0.2443 -0.9130
  355MOL0     C47822  -0.327   2.766   1.398 -0.3290 -1.0991 -0.0799
  355MOL0     C47823  -0.457   2.724   1.437 -0.4650  0.1860  0.0436
  355MOL0     C47824  -0.466   2.608   1.528  0.6972  0.7010  0.7537
  355MOL0     O47825  -0.577   2.548   1.580  0.0456  0.2168 -0.1427
  355MOL0     C47826  -0.705   2.600   1.539  0.6038 -0.1376 -0.5471
  355MOL0     C47827  -0.822   2.515   1.587 -0.0372  0.4749  0.0226
  355MOL0     C47828  -0.955   2.580   1.549 -0.1803  0.5592 -0.0390
  355MOL0     C47829  -1.074   2.553   1.647 -0.3479  0.5657  0.8657
  355MOL0     C47830  -1.103   2.400   1.650 -0.0335 -0.5312 -0.7516
  355MOL0     C47831  -1.226   2.352   1.741  0.3574  0.9795 -0.1717
  355MOL0     C47832  -1.237   2.199   1.743 -0.6745  0.3331 -0.1599
  355MOL0     C47833  -1.387   2.165   1.758  0.5716 -0.5717  0.3068
  355MOL0    Cl47834  -1.459   2.248   1.901 -0.4018  0.1135  0.0764
  355MOL0     C47835  -0.351   2.540   1.543 -0.0730 -0.2954  0.8621
  355MOL0     C47836  -0.223   2.585   1.498  0.2813 -0.5507 -0.2501
  355MOL0     O47837  -0.139   2.822   1.178 -0.1318  0.4539  1.0297
  355MOL0     C47838   0.183   2.868   1.331 -0.4767  0.7767 -0.0199
  355MOL0     C47839   0.315   2.899   1.291 -0.1502  0.6855 -0.2089
  355MOL0     N47840   0.703   3.358   0.954  0.0833  0.5040 -0.0418
  355MOL0     N47841   0.723   3.465   0.888  0.1388 -0.1622  0.1113
  355MOL0     C47842   1.012   4.648   0.911 -0.4184 -0.5754 -0.2826
  355MOL0     C47843   1.101   4.696   0.817 -0.6479  0.0875 -0.5193
  355MOL0     C47844   1.350   4.837   0.478  0.3286  0.1835  0.3691
  355MOL0     C47845   1.340   4.978   0.493 -0.4143  0.7274 -0.5724
  355MOL0     C47846   1.418   5.064   0.416  0.6226  0.5606 -0.0010
  355MOL0     C47847   1.508   5.016   0.320  0.0662  0.1877 -0.1241
  355MOL0     O47848   1.593   5.118   0.267  0.1386  0.2512 -0.3583
  355MOL0     C47849   1.681   5.081   0.153 -0.3793  0.8086 -0.1435
  355MOL0     C47850   1.784   5.185   0.142  0.6967 -0.2154  0.0946
  355MOL0     C47851   1.706   5.319   0.130 -0.2814  0.5163 -0.1256
  355MOL0     C47852   1.763   5.428   0.039 -0.0385 -0.0713  0.2133
  355MOL0     C47853   1.871   5.499   0.108 -0.7266  1.0825  0.0604
  355MOL0     C47854   1.965   5.550   0.174 -1.3168  0.5194 -0.1244
  355MOL0     C47855   1.506   4.875   0.291  0.2087 -0.5039 -0.0033
  355MOL0     C47856   1.427   4.794   0.370 -0.2493  0.6926  0.5885
  355MOL0     C47857   1.427   4.646   0.330  0.2660  0.0698 -0.3791
  355MOL0     H47858   0.887   4.816   0.596 -2.4949 -3.0983  0.2008
  355MOL0     H47859   0.724   4.753   0.763  0.3692  0.8520 -1.7890
  355MOL0     H47860   0.903   4.442   1.036  1.1836  0.3406  0.3385
  355MOL0     H47861   0.871   4.568   1.151 -2.3550  2.9051 -0.3633
  355MOL0     H47862   0.625   4.433   1.051  1.3361  1.6669 -0.5910
  355MOL0     H47863   0.666   4.480   1.210 -0.4806 -0.2632  1.5392
  355MOL0     H47864   0.652   4.241   1.221 -0.8022  0.0766 -1.0611
  355MOL0     H47865   0.824   4.288   1.240 -1.0790 -1.4701  1.8070
  355MOL0     H47866   0.711   4.220   0.962 -0.4580 -1.2503  0.2107
  355MOL0     H47867   0.885   4.208   1.017  0.8027 -3.3783  1.5318
  355MOL0     H47868   0.814   4.013   1.142 -1.8208 -3.1102 -0.2194
  355MOL0     H47869   0.643   4.031   1.097 -0.4301 -0.0595 -2.3778
  355MOL0     H47870   0.726   3.955   0.861  0.4458 -2.0018 -0.7819
  355MOL0     H47871   0.888   3.958   0.942 -1.7544  3.2719  1.1894
  355MOL0     H47872   0.661   3.780   1.016 -0.1051  1.0665  0.6339
  355MOL0     H47873   0.821   3.776   1.099  0.4123  0.3224  1.1139
  355MOL0     H47874   0.762   3.704   0.805  0.2708 -0.3063  0.0093
  355MOL0     H47875   0.917   3.705   0.858 -0.5913 -2.6126 -1.0603
  355MOL0     H47876   0.879   3.536   1.162 -1.3331 -1.1406  2.7339
  355MOL0     H47877   0.907   3.255   1.191 -0.6828 -2.5168  0.4403
  355MOL0     H47878   0.767   3.303   1.280 -1.3431 -1.6602 -0.0408
  355MOL0     H47879   0.754   3.087   1.080  0.3994  2.6922 -1.0819
  355MOL0     H47880   0.768   3.066   1.257 -1.6374  0.1992  0.2350
  355MOL0     H47881   0.556   3.254   1.166  0.3484  0.8317 -0.1268
  355MOL0     H47882   0.542   3.132   1.295 -0.4363  4.8055  0.6786
  355MOL0     H47883   0.561   3.069   0.983 -4.2130 -1.3462 -2.1169
  355MOL0     H47884   0.419   3.134   1.035  0.5309  2.3661  0.7499
  355MOL0     H47885   0.274   2.878   0.966 -1.9323 -1.3735 -0.2689
  355MOL0     H47886   0.056   2.820   1.022 -0.2884 -0.9508 -0.1043
  355MOL0     H47887  -0.318   2.865   1.356  4.1590 -0.6538  1.4638
  355MOL0     H47888  -0.549   2.775   1.409  0.4413  1.0457 -1.5836
  355MOL0     H47889  -0.727   2.704   1.566  0.9780 -0.2633  0.2479
  355MOL0     H47890  -0.696   2.592   1.430 -1.6237  0.9717 -0.8806
  355MOL0     H47891  -0.819   2.416   1.540 -1.3299 -1.2535  3.2004
  355MOL0     H47892  -0.815   2.515   1.696 -0.7122  3.1182  0.1382
  355MOL0     H47893  -0.954   2.689   1.551  4.7181  0.7403  1.0079
  355MOL0     H47894  -0.985   2.536   1.454 -0.8315 -1.9275  1.2308
  355MOL0     H47895  -1.158   2.617   1.618  1.2189  1.5420 -2.0132
  355MOL0     H47896  -1.049   2.589   1.747  0.8608  0.3300  0.6694
  355MOL0     H47897  -1.010   2.347   1.676  0.5688 -0.8498 -3.2487
  355MOL0     H47898  -1.122   2.364   1.548 -1.1510  0.0540 -0.7600
  355MOL0     H47899  -1.211   2.386   1.844  3.2398 -0.1709 -0.1089
  355MOL0     H47900  -1.318   2.396   1.702 -1.6591 -1.8995  1.0481
  355MOL0     H47901  -1.172   2.169   1.826 -2.5709 -0.5352  1.0626
  355MOL0     H47902  -1.205   2.141   1.656  0.0701  2.9316 -1.7241
  355MOL0     H47903  -1.430   2.196   1.662  1.4110  1.3746  0.5148
  355MOL0     H47904  -1.414   2.059   1.767 -3.7926  0.3731  0.5230
  355MOL0     H47905  -0.340   2.452   1.604  0.8073 -0.0169  1.1152
  355MOL0     H47906  -0.133   2.535   1.532  0.7416  1.1359  1.1214
  355MOL0     H47907   0.161   2.874   1.437  1.3139 -0.9000  0.5113
  355MOL0     H47908   0.388   2.921   1.368 -0.3666  3.3628 -0.6512
  355MOL0     H47909   1.048   4.597   1.000  0.0864  1.5663  0.8117
  355MOL0     H47910   1.206   4.676   0.834 -0.6987  0.6334  0.4985
  355MOL0     H47911   1.289   5.024   0.577  0.4493  0.8236 -0.0856
  355MOL0     H47912   1.412   5.169   0.442  3.8355  1.4305 -2.1765
  355MOL0     H47913   1.619   5.078   0.063 -1.1607 -1.9633  0.4051
  355MOL0     H47914   1.727   4.983   0.158 -0.4604  0.8044  0.6067
  355MOL0     H47915   1.847   5.161   0.056  0.4892 -0.2712 -0.0412
  355MOL0     H47916   1.851   5.181   0.229  0.9603  0.9222 -0.0482
  355MOL0     H47917   1.704   5.363   0.230  2.7588  1.3578 -0.3197
  355MOL0     H47918   1.604   5.300   0.097  0.4776  1.4274 -3.4665
  355MOL0     H47919   1.796   5.380  -0.053 -0.7182  0.9303 -0.5719
  355MOL0     H47920   1.689   5.504   0.013  0.0080 -0.2518 -0.4730
  355MOL0     H47921   2.046   5.600   0.223 -2.4018  0.3699  1.9148
  355MOL0     H47922   1.576   4.841   0.216  0.8598  3.0329 -1.2196
  355MOL0     H47923   1.486   4.631   0.239 -2.1252 -0.1374 -1.9943
  355MOL0     H47924   1.441   4.577   0.413  1.7947 -1.6721 -2.0060
  355MOL0     H47925   1.321   4.627   0.307 -0.3843 -0.3009  2.4661
  356MOL0     O47926   0.068   7.730   8.942 -0.2249 -0.0549  0.0406
  356MOL0     C47927   0.127   7.632   8.899 -0.7048  0.2637 -0.3083
  356MOL0     O47928   0.083   7.509   8.925 -0.1969  0.3458  1.1760
  356MOL0     C47929  -0.018   7.474   9.012 -0.4286  0.0394  0.8120
  356MOL0     C47930  -0.006   7.346   9.076  0.8544 -0.6640  0.7700
  356MOL0     C47931  -0.105   7.295   9.158 -0.9219  0.0058  0.2938
  356MOL0     C47932  -0.230   7.361   9.162  0.1495  0.4615  0.2882
  356MOL0     O47933  -0.324   7.306   9.257  0.1824 -0.4826 -0.2387
  356MOL0     C47934  -0.437   7.379   9.302  0.3719 -0.1066 -0.8573
  356MOL0     C47935  -0.475   7.305   9.436  0.0060 -0.1687 -0.0490
  356MOL0     C47936  -0.596   7.339   9.514  0.6262  0.5361 -0.3275
  356MOL0     C47937  -0.733   7.336   9.457 -0.6333  0.6408  0.4067
  356MOL0     C47938  -0.752   7.228   9.349 -0.4527  0.9524  0.4535
  356MOL0     C47939  -0.896   7.223   9.300 -0.8800 -0.6553  1.0995
  356MOL0     C47940  -0.912   7.125   9.190  0.5559  0.5594 -0.0206
  356MOL0     C47941  -1.042   7.140   9.111 -1.1578  0.4826 -0.0045
  356MOL0     N47942  -1.049   7.277   9.047 -0.7216  0.2980 -1.0187
  356MOL0     C47943  -0.964   7.326   8.950 -0.2148 -0.3210 -1.0862
  356MOL0     C47944  -0.965   7.461   8.970  0.4833  1.5108 -0.6565
  356MOL0     C47945  -0.868   7.559   8.911 -0.7309 -0.1963  0.3807
  356MOL0     C47946  -0.717   7.526   8.952  0.9161 -0.8886  0.9586
  356MOL0     C47947  -0.607   7.587   8.853  0.1461  0.0999 -1.0161
  356MOL0     C47948  -0.625   7.735   8.837 -0.5608  0.4607 -0.3312
  356MOL0     O47949  -0.507   7.813   8.807  0.5669  1.2185 -0.4627
  356MOL0     C47950  -0.408   7.766   8.722 -0.6692 -0.7868  0.6642
  356MOL0     C47951  -0.443   7.724   8.586 -0.0617  0.8157 -0.2256
  356MOL0     C47952  -0.344   7.655   8.504 -0.3075  0.0791  0.0302
  356MOL0     C47953  -0.204   7.670   8.545  0.5523 -0.1200 -0.4677
  356MOL0     C47954  -0.085   7.632   8.465  0.2173 -0.1728 -0.2504
  356MOL0     O47955   0.034   7.605   8.536 -0.1555 -0.1710  0.2083
  356MOL0     C47956   0.136   7.538   8.475 -0.7205  0.4875  0.2171
  356MOL0     C47957   0.132   7.415   8.400 -0.3126  0.2363  0.3707
  356MOL0     C47958   0.248   7.385   8.327 -0.2062 -0.3042 -0.0289
  356MOL0     C47959   0.372   7.453   8.361  0.6336 -0.3319 -0.1413
  356MOL0     O47960   0.489   7.412   8.315 -0.2244  0.0536  0.1273
  356MOL0     C47961   0.490   7.362   8.177 -0.0782 -1.0864  0.3371
  356MOL0     C47962   0.628   7.363   8.122 -0.2866 -0.3980  0.6320
  356MOL0     C47963   0.684   7.501   8.073  0.7659  0.6140  0.0997
  356MOL0     C47964   0.823   7.486   8.016 -0.6585  0.2192  0.1409
  356MOL0     C47965   0.876   7.613   7.961 -0.4395 -0.7274 -0.5432
  356MOL0     C47966   1.031   7.613   7.922  0.1894  0.1841 -0.2206
  356MOL0     C47967   1.061   7.718   7.815  0.0332  0.1928  0.2787
  356MOL0     C47968   1.012   7.867   7.833 -0.2332 -0.5982  0.2203
  356MOL0    Cl47969   1.101   7.936   7.972 -0.2348 -0.2300  0.6043
  356MOL0     C47970   0.373   7.558   8.445 -0.5143 -0.8413 -0.0680
  356MOL0     C47971   0.254   7.609   8.485 -0.7923  0.5806 -0.3659
  356MOL0     O47972  -0.104   7.615   8.347  0.6375  0.3639  0.2911
  356MOL0     C47973  -0.175   7.739   8.668 -0.9550 -0.0659  0.8105
  356MOL0     C47974  -0.272   7.780   8.750  0.1808 -0.3528 -0.8482
  356MOL0     N47975  -1.059   7.488   9.067 -0.1881  0.6790 -0.1143
  356MOL0     N47976  -1.107   7.383   9.112 -0.7800 -0.0232 -0.2905
  356MOL0     C47977  -0.247   7.482   9.096  0.3636 -1.2272  0.0019
  356MOL0     C47978  -0.147   7.542   9.025 -0.0820 -0.0696 -0.4117
  356MOL0     C47979   0.259   7.649   8.833 -0.7159 -0.2440  0.6983
  356MOL0     C47980   0.338   7.541   8.792  0.4223 -1.0227  0.3375
  356MOL0     C47981   0.466   7.561   8.743 -0.1854 -0.3017  0.7348
  356MOL0     C47982   0.532   7.685   8.730 -0.0030 -0.1274  1.5716
  356MOL0     O47983   0.662   7.682   8.681 -0.0531  0.0294 -0.2321
  356MOL0     C47984   0.733   7.795   8.632 -0.0718 -0.5492  0.9339
  356MOL0     C47985   0.694   7.822   8.490 -0.5422  0.4404 -0.0617
  356MOL0     C47986   0.749   7.727   8.382 -0.2162  0.1007 -0.4664
  356MOL0     C47987   0.891   7.702   8.395  0.9290  0.4032 -0.6761
  356MOL0     C47988   0.979   7.824   8.407  0.4819  0.0002 -0.5689
  356MOL0     C47989   1.052   7.923   8.402  0.0035 -0.5098 -0.5214
  356MOL0     C47990   0.455   7.792   8.768  1.4579  0.7485 -0.0359
  356MOL0     C47991   0.323   7.780   8.810 -0.0344  0.0283 -0.0338
  356MOL0     C47992   0.264   7.911   8.841  0.7208  0.2086  0.6084
  356MOL0     H47993   0.088   7.294   9.061 -0.4150 -2.6575 -0.7972
  356MOL0     H47994  -0.095   7.196   9.202  0.1962  0.8477  2.0083
  356MOL0     H47995  -0.427   7.488   9.309  1.7001 -0.2892  1.1039
  356MOL0     H47996  -0.519   7.363   9.231 -0.9828 -1.4108  0.8965
  356MOL0     H47997  -0.388   7.313   9.501  1.0439  1.2412 -1.5387
  356MOL0     H47998  -0.471   7.197   9.417  1.1979 -0.6977  2.7363
  356MOL0     H47999  -0.569   7.435   9.560  3.2673  0.8538 -2.2936
  356MOL0     H48000  -0.603   7.277   9.604  1.2322  1.1204  0.1425
  356MOL0     H48001  -0.808   7.318   9.536  0.8107 -1.2681  1.4427
  356MOL0     H48002  -0.747   7.429   9.402  1.5408 -0.2689 -1.8375
  356MOL0     H48003  -0.688   7.236   9.261  1.1001  0.6973  1.5318
  356MOL0     H48004  -0.731   7.127   9.384 -0.2246  1.0876  0.7114
  356MOL0     H48005  -0.967   7.206   9.382 -0.5946 -2.9185  0.9219
  356MOL0     H48006  -0.912   7.323   9.257  4.4570  0.7857  1.8075
  356MOL0     H48007  -0.932   7.027   9.234  2.5724 -0.7524 -1.8259
  356MOL0     H48008  -0.824   7.124   9.126 -0.0898  2.1647 -0.9945
  356MOL0     H48009  -1.054   7.054   9.044  0.1021 -1.0172  1.5762
  356MOL0     H48010  -1.123   7.154   9.182 -1.4353 -0.8545 -0.0324
  356MOL0     H48011  -0.901   7.275   8.877  1.0910  0.0051 -0.2238
  356MOL0     H48012  -0.888   7.565   8.803 -0.5342 -0.5267  0.3257
  356MOL0     H48013  -0.902   7.655   8.951 -3.3353 -0.7247 -0.3875
  356MOL0     H48014  -0.689   7.568   9.049 -0.4183  1.3502  0.4577
  356MOL0     H48015  -0.712   7.418   8.965  0.8616 -0.7348  2.3802
  356MOL0     H48016  -0.618   7.539   8.756  1.1798  0.9160 -1.5707
  356MOL0     H48017  -0.515   7.559   8.906 -2.2822 -0.5513  3.2939
  356MOL0     H48018  -0.668   7.782   8.925 -1.1706  4.2037 -2.3947
  356MOL0     H48019  -0.696   7.752   8.755 -0.3425 -1.0211 -0.8575
  356MOL0     H48020  -0.541   7.747   8.546 -0.2251  0.9538  0.2428
  356MOL0     H48021  -0.360   7.615   8.405  3.1659 -2.6806  0.3875
  356MOL0     H48022   0.034   7.370   8.383 -1.8093  3.0259  0.9848
  356MOL0     H48023   0.256   7.291   8.273  2.8948 -0.7261  0.9698
  356MOL0     H48024   0.451   7.259   8.176 -3.0300 -0.0723 -0.2712
  356MOL0     H48025   0.430   7.425   8.111 -0.1560  1.2351  2.4722
  356MOL0     H48026   0.694   7.334   8.203  0.2062  0.8763  0.7072
  356MOL0     H48027   0.633   7.297   8.035 -0.0863  0.9434 -0.4104
  356MOL0     H48028   0.622   7.541   7.992 -0.2324  0.3525  0.7238
  356MOL0     H48029   0.684   7.564   8.162 -1.0181  1.0080 -0.1382
  356MOL0     H48030   0.831   7.409   7.939  0.8966 -0.9710  1.4255
  356MOL0     H48031   0.888   7.460   8.100 -0.0938  0.0443 -0.3411
  356MOL0     H48032   0.865   7.699   8.028  1.1110 -0.6621 -0.3369
  356MOL0     H48033   0.808   7.631   7.877  0.0678  5.1019 -0.1462
  356MOL0     H48034   1.084   7.632   8.016 -1.1370  1.7375  0.2748
  356MOL0     H48035   1.072   7.517   7.893 -2.7124 -1.8372  1.7884
  356MOL0     H48036   1.001   7.684   7.731 -0.2112 -0.4599  0.7150
  356MOL0     H48037   1.167   7.716   7.786 -0.3277  0.7481 -1.1360
  356MOL0     H48038   1.038   7.931   7.748 -1.0258 -0.0331  0.3879
  356MOL0     H48039   0.903   7.872   7.845 -0.3268 -1.5364 -0.1265
  356MOL0     H48040   0.472   7.595   8.471 -1.3279  2.5889 -1.2768
  356MOL0     H48041   0.252   7.699   8.545 -1.2025 -0.6992  1.6240
  356MOL0     H48042  -0.073   7.753   8.703 -1.3645  0.2508  1.9309
  356MOL0     H48043  -0.247   7.830   8.842 -2.0935  2.0413 -1.4021
  356MOL0     H48044  -0.349   7.519   9.091  0.2120 -1.3673  1.5746
  356MOL0     H48045  -0.147   7.615   8.945 -0.1540 -0.2501 -0.5758
  356MOL0     H48046   0.297   7.441   8.801 -3.0772  0.3149  0.8712
  356MOL0     H48047   0.537   7.481   8.724  2.5799  2.0666  0.1950
  356MOL0     H48048   0.841   7.798   8.649  0.4920 -3.3013 -1.3993
  356MOL0     H48049   0.685   7.871   8.694  0.1252 -0.0712  0.5106
  356MOL0     H48050   0.731   7.922   8.467 -0.9811  0.2653 -1.6554
  356MOL0     H48051   0.585   7.823   8.483 -0.5373  0.2711 -0.1665
  356MOL0     H48052   0.728   7.762   8.281  1.9138  1.4649 -0.4951
  356MOL0     H48053   0.710   7.625   8.391  1.4369 -0.7263 -2.0972
  356MOL0     H48054   0.913   7.634   8.477  0.2833  0.3011 -0.5873
  356MOL0     H48055   0.907   7.656   8.297 -0.9201 -1.0457 -0.3345
  356MOL0     H48056   1.121   8.005   8.389 -1.0184  0.7108  1.4278
  356MOL0     H48057   0.493   7.887   8.731  1.5886  0.9135  0.5186
  356MOL0     H48058   0.337   7.992   8.833 -0.4589  1.1955 -0.7888
  356MOL0     H48059   0.180   7.923   8.772 -2.3683 -2.1547  3.5974
  356MOL0     H48060   0.220   7.907   8.941  0.6642  0.1863  0.5821
  357MOL0     O48061   8.365   0.436   2.060 -0.4133 -0.7632  0.2765
  357MOL0     C48062   8.256   0.401   2.009 -0.8165  0.5762 -0.0921
  357MOL0     O48063   8.145   0.381   2.081  0.6356 -0.7666 -0.8498
  357MOL0     C48064   8.156   0.309   2.193  0.4115 -0.4372 -0.6632
  357MOL0     C48065   8.085   0.362   2.300 -0.4458 -0.5927 -0.1363
  357MOL0     C48066   8.093   0.300   2.430  0.5623 -0.9034  0.7050
  357MOL0     C48067   8.168   0.179   2.447 -0.6673 -0.0678  0.6620
  357MOL0     O48068   8.144   0.112   2.565  0.2094  0.0536 -0.3840
  357MOL0     C48069   8.221  -0.011   2.579  0.2538  0.6637  0.9683
  357MOL0     C48070   8.217  -0.049   2.729  0.1794  0.0652 -0.4203
  357MOL0     C48071   8.208  -0.205   2.757  0.1070  0.2886 -0.0795
  357MOL0     C48072   8.337  -0.285   2.740  0.8435 -0.7768 -0.1501
  357MOL0     C48073   8.323  -0.433   2.789  0.0248 -1.1127 -0.0878
  357MOL0     C48074   8.260  -0.452   2.929  0.4147 -0.3425 -1.4298
  357MOL0     C48075   8.318  -0.570   3.008 -0.2522  0.1521 -0.2627
  357MOL0     C48076   8.267  -0.581   3.156 -0.3909 -0.1797 -0.5080
  357MOL0     N48077   8.267  -0.465   3.250 -0.8725 -0.6305  0.4308
  357MOL0     C48078   8.167  -0.377   3.261 -0.1485  0.9254  0.9569
  357MOL0     C48079   8.223  -0.263   3.306 -0.2369  0.3882 -0.6886
  357MOL0     C48080   8.161  -0.127   3.331 -0.9911 -0.3168 -0.4396
  357MOL0     C48081   8.119  -0.061   3.194 -0.0788  0.1670  0.3514
  357MOL0     C48082   8.021   0.060   3.196  0.1817  0.4444  0.0269
  357MOL0     C48083   7.962   0.081   3.055  0.4383 -0.6095  0.4789
  357MOL0     O48084   7.918  -0.040   2.992  0.8367  0.3192 -0.0656
  357MOL0     C48085   7.885  -0.045   2.862  1.0047  0.0227  1.3866
  357MOL0     C48086   7.872   0.079   2.791 -0.4409  0.1474 -0.2965
  357MOL0     C48087   7.860   0.073   2.656 -0.1330 -0.1271  0.1060
  357MOL0     C48088   7.819  -0.046   2.589  0.9408  0.9271 -0.1424
  357MOL0     C48089   7.798  -0.032   2.447  0.0866 -0.3268 -0.0841
  357MOL0     O48090   7.783  -0.145   2.381 -0.6088  0.7562 -0.2137
  357MOL0     C48091   7.752  -0.147   2.248  0.7803 -0.6061  0.2720
  357MOL0     C48092   7.691  -0.045   2.174  0.0226 -0.1713  0.1240
  357MOL0     C48093   7.677  -0.061   2.036 -0.6706 -0.3184 -0.2487
  357MOL0     C48094   7.723  -0.176   1.974  0.2525 -2.0573  0.5055
  357MOL0     O48095   7.706  -0.192   1.832 -0.0871  0.6793 -0.2509
  357MOL0     C48096   7.733  -0.079   1.764  0.4684 -0.2355  0.9440
  357MOL0     C48097   7.698  -0.104   1.623 -0.4790 -0.0141  0.3831
  357MOL0     C48098   7.820  -0.184   1.566  0.4547  0.0203 -0.5788
  357MOL0     C48099   7.835  -0.149   1.422 -1.4263  0.6378 -0.1474
  357MOL0     C48100   7.924  -0.259   1.371  0.8094 -0.4008  0.3000
  357MOL0     C48101   7.930  -0.260   1.224 -0.0774 -0.7146 -0.3165
  357MOL0     C48102   8.014  -0.379   1.181  0.0863 -0.1660  0.0934
  357MOL0     C48103   8.043  -0.380   1.033  0.0083 -0.6916  0.2032
  357MOL0    Cl48104   8.051  -0.551   0.977 -0.1010  0.2895  0.4672
  357MOL0     C48105   7.772  -0.273   2.057  0.4346  1.1376  1.1154
  357MOL0     C48106   7.781  -0.266   2.193 -0.4764 -0.0824 -0.3190
  357MOL0     O48107   7.808   0.079   2.388  0.9567  0.4625  0.0986
  357MOL0     C48108   7.819  -0.171   2.659 -0.0668 -0.3918 -0.3761
  357MOL0     C48109   7.859  -0.169   2.792 -1.1767 -0.2915 -0.2318
  357MOL0     N48110   8.361  -0.280   3.309  0.0566  0.0653  0.2470
  357MOL0     N48111   8.391  -0.405   3.287  0.2759 -0.1570 -0.7663
  357MOL0     C48112   8.227   0.121   2.327 -0.5857  0.0941 -0.2296
  357MOL0     C48113   8.220   0.187   2.204  0.1354 -0.4699  0.9323
  357MOL0     C48114   8.259   0.393   1.862 -0.2544 -0.7024  0.2280
  357MOL0     C48115   8.374   0.331   1.806  0.2753  0.2158 -0.6302
  357MOL0     C48116   8.395   0.322   1.668  0.1277 -0.4325  0.1944
  357MOL0     C48117   8.304   0.375   1.581  0.4930 -0.5655 -0.3154
  357MOL0     O48118   8.328   0.359   1.444  0.5407 -0.4318 -0.2778
  357MOL0     C48119   8.249   0.427   1.351  0.4718  0.0747 -0.3339
  357MOL0     C48120   8.320   0.440   1.212 -0.3868 -0.0321 -0.1143
  357MOL0     C48121   8.425   0.558   1.213  0.0805  0.2435  0.9189
  357MOL0     C48122   8.369   0.698   1.196 -0.0952 -0.9108  0.2966
  357MOL0     C48123   8.481   0.794   1.216  0.5112  0.5581  1.1818
  357MOL0     C48124   8.552   0.891   1.222 -1.1180  0.2445 -0.5593
  357MOL0     C48125   8.191   0.436   1.638  0.0815 -0.1422 -0.4513
  357MOL0     C48126   8.163   0.451   1.775  0.0884 -0.6902  0.1026
  357MOL0     C48127   8.035   0.525   1.821  0.7963  0.1049 -0.6445
  357MOL0     H48128   8.008   0.437   2.285 -1.7745 -1.7703  0.5425
  357MOL0     H48129   8.036   0.353   2.506 -1.8153  2.3686 -2.9632
  357MOL0     H48130   8.172  -0.081   2.511 -2.3322  3.3807 -0.2071
  357MOL0     H48131   8.326  -0.002   2.547 -0.7705  1.4678 -2.5724
  357MOL0     H48132   8.132   0.004   2.774 -1.9483 -1.7879 -2.0228
  357MOL0     H48133   8.304  -0.002   2.775  0.4825  1.4886 -2.3120
  357MOL0     H48134   8.140  -0.245   2.682 -0.6867  0.6190  0.4589
  357MOL0     H48135   8.166  -0.220   2.857  2.8877 -1.6365  0.9368
  357MOL0     H48136   8.375  -0.283   2.638  2.8264  0.8822  0.5517
  357MOL0     H48137   8.415  -0.242   2.805  2.2186  1.8178 -3.1992
  357MOL0     H48138   8.252  -0.479   2.721 -0.4443  0.1204 -0.4661
  357MOL0     H48139   8.418  -0.485   2.775  0.9187  0.0711  1.2706
  357MOL0     H48140   8.262  -0.365   2.996 -2.3092 -0.8578 -0.5522
  357MOL0     H48141   8.156  -0.482   2.917  0.0795  0.1817 -0.0168
  357MOL0     H48142   8.427  -0.574   3.011 -0.1333  0.9566  4.4018
  357MOL0     H48143   8.288  -0.659   2.951  0.7949  0.0238 -0.6377
  357MOL0     H48144   8.166  -0.624   3.155 -0.7582  0.6658 -1.0193
  357MOL0     H48145   8.340  -0.653   3.193 -0.0106 -1.4364 -3.4508
  357MOL0     H48146   8.065  -0.390   3.226  1.0941  0.2587 -3.0199
  357MOL0     H48147   8.074  -0.135   3.397  1.1233 -0.7881  2.5587
  357MOL0     H48148   8.224  -0.064   3.395 -0.6718 -0.9121 -0.1589
  357MOL0     H48149   8.211  -0.033   3.141  0.4689  3.7329  2.7881
  357MOL0     H48150   8.063  -0.142   3.146  1.0014  0.8517 -2.2419
  357MOL0     H48151   8.056   0.151   3.245 -2.7117  0.4797  2.2787
  357MOL0     H48152   7.946   0.027   3.268 -0.3225 -0.0736 -0.7162
  357MOL0     H48153   8.025   0.145   2.993 -0.1488  0.1982  0.7046
  357MOL0     H48154   7.877   0.146   3.075 -0.4742 -1.4022 -0.6587
  357MOL0     H48155   7.885   0.184   2.817  0.9629  1.2088 -4.4030
  357MOL0     H48156   7.860   0.168   2.605  0.0021 -0.0025  0.3400
  357MOL0     H48157   7.652   0.050   2.208 -1.6064  1.5785 -5.4459
  357MOL0     H48158   7.651   0.029   1.980 -0.5222 -1.9480 -3.1332
  357MOL0     H48159   7.654  -0.009   1.793 -1.0804 -1.7069  0.4378
  357MOL0     H48160   7.830  -0.032   1.786  0.4374  0.9643 -1.1931
  357MOL0     H48161   7.597  -0.145   1.614  0.1037 -1.1442 -1.4691
  357MOL0     H48162   7.699  -0.004   1.578  1.0449  1.1488  2.7935
  357MOL0     H48163   7.914  -0.177   1.621  0.5204 -0.9858 -0.5427
  357MOL0     H48164   7.794  -0.291   1.569  2.0941 -0.5786 -3.5993
  357MOL0     H48165   7.883  -0.050   1.415 -1.3904  0.6336  0.0343
  357MOL0     H48166   7.738  -0.134   1.374 -2.4790  1.4144  2.0767
  357MOL0     H48167   7.890  -0.361   1.393 -2.5709  0.5984  0.2296
  357MOL0     H48168   8.020  -0.244   1.423  0.9209  1.6494 -0.3971
  357MOL0     H48169   7.828  -0.264   1.186 -1.4106 -1.4645  2.9706
  357MOL0     H48170   7.984  -0.174   1.182  1.2140  0.3796  3.1923
  357MOL0     H48171   7.952  -0.466   1.203 -0.6963 -1.1000 -4.5648
  357MOL0     H48172   8.105  -0.383   1.241  0.5928  2.3978 -0.3579
  357MOL0     H48173   7.971  -0.316   0.982  1.2832  0.8838  0.2896
  357MOL0     H48174   8.142  -0.339   1.008 -0.3666 -0.7011 -1.3870
  357MOL0     H48175   7.805  -0.365   2.010  6.6821  3.3433  0.3348
  357MOL0     H48176   7.817  -0.344   2.259 -1.3230  1.1880  1.7688
  357MOL0     H48177   7.795  -0.269   2.619 -3.4029 -0.4955  1.5278
  357MOL0     H48178   7.867  -0.264   2.844 -0.8622 -1.5427 -2.4570
  357MOL0     H48179   8.274   0.024   2.315  1.6504  1.3628 -2.7506
  357MOL0     H48180   8.263   0.141   2.116  0.7220 -2.4480  2.1945
  357MOL0     H48181   8.447   0.286   1.873 -2.5517 -1.4702  1.5587
  357MOL0     H48182   8.485   0.271   1.634 -0.1083  0.1426 -1.3646
  357MOL0     H48183   8.220   0.529   1.378  0.8583 -0.1728  1.0934
  357MOL0     H48184   8.157   0.370   1.335 -0.9245  0.8543  3.6761
  357MOL0     H48185   8.243   0.455   1.135  2.0452 -1.5713 -3.0849
  357MOL0     H48186   8.379   0.352   1.185  1.6228  1.8250 -2.2194
  357MOL0     H48187   8.484   0.536   1.124 -0.4200 -4.7991  1.4876
  357MOL0     H48188   8.492   0.553   1.300  0.8425 -2.7901  0.2913
  357MOL0     H48189   8.329   0.703   1.094 -1.3436  0.4581  0.8087
  357MOL0     H48190   8.288   0.727   1.264 -0.5373  1.4352 -1.1269
  357MOL0     H48191   8.617   0.975   1.238  3.0119 -2.5189 -1.2857
  357MOL0     H48192   8.114   0.472   1.571 -1.5112  3.0507  2.7454
  357MOL0     H48193   7.969   0.464   1.883  2.6319  0.0672  1.4076
  357MOL0     H48194   8.061   0.597   1.899 -0.7268 -0.8691  0.8429
  357MOL0     H48195   7.972   0.564   1.741 -1.0829 -1.7542 -0.1411
  358MOL0     O48196   2.496   9.571   3.546 -0.0931  0.8228  0.9715
  358MOL0     C48197   2.570   9.578   3.644 -0.0672  0.5266  0.2206
  358MOL0     O48198   2.526   9.567   3.778 -0.6199 -0.0833  0.4055
  358MOL0     C48199   2.389   9.532   3.800 -0.3293 -0.3935 -0.5502
  358MOL0     C48200   2.319   9.599   3.908  0.2449 -0.0158  0.1433
  358MOL0     C48201   2.186   9.570   3.938 -0.0186  0.3559 -0.0095
  358MOL0     C48202   2.124   9.466   3.869  0.6028 -0.0666  0.5812
  358MOL0     O48203   1.994   9.435   3.907 -0.1533 -0.3311 -0.3431
  358MOL0     C48204   1.971   9.415   4.055  0.1606  0.3326  0.2026
  358MOL0     C48205   1.853   9.309   4.063 -0.7403 -0.6239 -0.6429
  358MOL0     C48206   1.910   9.171   4.013  0.1398  0.4380  0.7645
  358MOL0     C48207   1.807   9.059   4.025 -0.4311 -0.8980 -0.8392
  358MOL0     C48208   1.880   8.931   3.978 -0.4582  0.0295  0.5773
  358MOL0     C48209   1.786   8.820   3.931  0.3394 -0.2377 -0.6580
  358MOL0     C48210   1.844   8.673   3.955 -0.1106  0.7097  0.1762
  358MOL0     C48211   1.830   8.631   4.102 -0.0203  0.0450  0.6929
  358MOL0     N48212   1.856   8.490   4.137 -0.5249  0.6257  1.1880
  358MOL0     C48213   1.975   8.426   4.146  0.0583 -0.7780 -0.3397
  358MOL0     C48214   1.945   8.297   4.187 -1.2436 -0.7175  0.3547
  358MOL0     C48215   2.047   8.191   4.205 -0.6627  0.7653  0.1833
  358MOL0     C48216   2.014   8.111   4.331  0.8070 -0.1977  0.4437
  358MOL0     C48217   2.126   8.031   4.392  0.0928  0.4355  0.3695
  358MOL0     C48218   2.156   7.913   4.306 -0.4968 -0.3411  0.5589
  358MOL0     O48219   2.253   7.828   4.371  0.1419  0.2513  0.0685
  358MOL0     C48220   2.285   7.708   4.298  0.2571 -0.3970 -0.3430
  358MOL0     C48221   2.203   7.647   4.199  0.9607  0.2422  0.2453
  358MOL0     C48222   2.248   7.544   4.114 -0.6075 -0.2388 -0.1521
  358MOL0     C48223   2.373   7.478   4.131 -0.0598 -0.0887  0.4045
  358MOL0     C48224   2.429   7.385   4.024 -0.1366  0.1645 -1.1799
  358MOL0     O48225   2.329   7.341   3.948  0.0574  0.5283  0.0297
  358MOL0     C48226   2.357   7.288   3.827  0.2028 -0.1212  0.6784
  358MOL0     C48227   2.288   7.172   3.783 -0.0920  0.4789  0.6465
  358MOL0     C48228   2.330   7.115   3.650  0.1162 -1.5037  0.3546
  358MOL0     C48229   2.434   7.180   3.572  0.6003  0.1127  0.0417
  358MOL0     O48230   2.492   7.138   3.452 -0.0209  0.5619 -0.1381
  358MOL0     C48231   2.450   7.012   3.400  0.5738 -0.4061 -0.0100
  358MOL0     C48232   2.524   6.979   3.278 -0.0926  0.3249 -0.9499
  358MOL0     C48233   2.655   6.908   3.314 -0.3841  0.0050 -0.2710
  358MOL0     C48234   2.733   6.865   3.195 -0.3758 -0.1411 -0.7044
  358MOL0     C48235   2.806   6.729   3.217 -0.1318 -0.6948  0.1259
  358MOL0     C48236   2.903   6.711   3.095 -0.0871  0.7018 -0.4603
  358MOL0     C48237   2.982   6.583   3.108  0.8138 -0.6787 -0.8732
  358MOL0     C48238   3.101   6.610   3.197 -0.3161  0.1203 -0.8052
  358MOL0    Cl48239   3.234   6.660   3.095 -0.2007 -0.0254 -0.1108
  358MOL0     C48240   2.482   7.306   3.611  0.5103  0.5715 -0.0522
  358MOL0     C48241   2.449   7.351   3.743 -0.2215  0.1575 -0.2236
  358MOL0     O48242   2.547   7.360   4.017  0.1187  0.0000 -0.1409
  358MOL0     C48243   2.452   7.528   4.233 -1.5532 -0.5468 -0.4326
  358MOL0     C48244   2.413   7.651   4.303 -1.2227  0.2615 -0.5747
  358MOL0     N48245   1.809   8.281   4.190  0.3922  1.0936 -0.1698
  358MOL0     N48246   1.764   8.399   4.167  1.2148  0.3000 -0.3780
  358MOL0     C48247   2.192   9.396   3.768  0.6294  0.3515 -0.1516
  358MOL0     C48248   2.322   9.428   3.740  0.1268  0.3782  0.1602
  358MOL0     C48249   2.714   9.598   3.623 -0.5631  0.7498  0.5947
  358MOL0     C48250   2.744   9.623   3.490  0.0332 -0.2153  0.8985
  358MOL0     C48251   2.881   9.642   3.459 -0.8047  0.1512  0.4633
  358MOL0     C48252   2.992   9.643   3.548  0.2323  0.4421  0.3638
  358MOL0     O48253   3.111   9.680   3.484  0.0356 -0.4802 -0.6283
  358MOL0     C48254   3.210   9.741   3.566 -0.3386  0.6923 -0.4625
  358MOL0     C48255   3.309   9.821   3.476  0.6803  0.8306 -0.2743
  358MOL0     C48256   3.234   9.938   3.405 -0.2603 -0.5350  0.0261
  358MOL0     C48257   3.184   9.902   3.260  0.6100  1.1793  0.6948
  358MOL0     C48258   3.114  10.015   3.198  0.5913  0.1229  0.5406
  358MOL0     C48259   3.058  10.095   3.122 -0.1256  0.5917 -0.0002
  358MOL0     C48260   2.956   9.618   3.681  0.7873  0.1952 -0.3404
  358MOL0     C48261   2.823   9.583   3.718 -0.3548 -0.1414  0.1632
  358MOL0     C48262   2.803   9.554   3.862  0.2624  0.2167  0.3365
  358MOL0     H48263   2.368   9.682   3.957 -0.6210 -1.0418  2.9152
  358MOL0     H48264   2.144   9.611   4.029 -3.3456 -4.5233  1.0382
  358MOL0     H48265   2.064   9.381   4.100  1.5022 -0.3907 -2.8411
  358MOL0     H48266   1.927   9.502   4.106 -0.6687 -0.7569  1.4191
  358MOL0     H48267   1.764   9.345   4.010  1.0153 -0.9661 -4.0739
  358MOL0     H48268   1.819   9.289   4.165 -2.9146  0.1239 -1.1608
  358MOL0     H48269   2.006   9.148   4.061 -0.7119 -1.8435  1.4921
  358MOL0     H48270   1.938   9.186   3.908 -2.7286  4.1708  0.3154
  358MOL0     H48271   1.760   9.049   4.124 -1.6252  2.8768 -0.8699
  358MOL0     H48272   1.721   9.080   3.961 -2.4662  2.6706  2.6432
  358MOL0     H48273   1.942   8.964   3.894  0.3647 -0.8762  0.8202
  358MOL0     H48274   1.948   8.894   4.055 -0.3382  0.1608  0.5366
  358MOL0     H48275   1.705   8.841   4.001  1.0064  3.2147 -0.7238
  358MOL0     H48276   1.760   8.835   3.826 -0.0719  0.6126 -0.4421
  358MOL0     H48277   1.946   8.672   3.918 -0.7822 -1.0135 -1.7832
  358MOL0     H48278   1.773   8.600   3.915 -1.4363  1.1569  1.5966
  358MOL0     H48279   1.903   8.696   4.151  1.5785 -2.1939  1.4495
  358MOL0     H48280   1.726   8.653   4.126 -1.0899 -1.5291 -2.0631
  358MOL0     H48281   2.074   8.470   4.136  1.4144 -3.2300  1.2696
  358MOL0     H48282   2.037   8.128   4.116 -0.4282 -0.2634  0.8691
  358MOL0     H48283   2.143   8.243   4.207  0.1012 -0.5726 -0.0867
  358MOL0     H48284   1.971   8.183   4.401  0.5515  1.5292 -1.3859
  358MOL0     H48285   1.927   8.046   4.313 -2.2718  2.6686  3.5043
  358MOL0     H48286   2.094   8.004   4.493 -1.0131  1.7445  0.4001
  358MOL0     H48287   2.206   8.106   4.396 -1.6932  2.4772 -0.3702
  358MOL0     H48288   2.189   7.941   4.206 -0.3212 -1.8078  0.1894
  358MOL0     H48289   2.061   7.860   4.293 -0.2435 -0.7245  0.2605
  358MOL0     H48290   2.108   7.693   4.172 -1.0311 -4.0479 -1.0221
  358MOL0     H48291   2.176   7.511   4.040 -1.7614 -2.2453  1.7344
  358MOL0     H48292   2.226   7.119   3.855 -0.8372  0.1474 -0.2316
  358MOL0     H48293   2.280   7.026   3.613 -0.9057 -0.1251 -1.8381
  358MOL0     H48294   2.439   6.921   3.459 -3.0459 -1.1484 -1.5321
  358MOL0     H48295   2.346   7.030   3.371  0.0848 -1.2831  1.1118
  358MOL0     H48296   2.453   6.917   3.222 -2.5751  0.1904  2.0793
  358MOL0     H48297   2.525   7.071   3.218 -1.9067  1.2237  0.3086
  358MOL0     H48298   2.719   6.982   3.362 -2.8931  2.1035  0.0502
  358MOL0     H48299   2.636   6.822   3.380 -2.0626 -0.5681 -1.4538
  358MOL0     H48300   2.811   6.938   3.171 -1.2465  1.3511  0.7907
  358MOL0     H48301   2.667   6.849   3.109 -1.0671 -3.1010  0.2242
  358MOL0     H48302   2.734   6.650   3.240 -0.4977 -0.6750 -0.8959
  358MOL0     H48303   2.867   6.740   3.308 -0.4083  2.2670  0.0472
  358MOL0     H48304   2.847   6.700   3.002 -1.3038  1.5987  0.1307
  358MOL0     H48305   2.975   6.794   3.099 -0.5732  1.1604  3.9521
  358MOL0     H48306   3.024   6.571   3.008  0.5891  0.0692 -1.0639
  358MOL0     H48307   2.919   6.500   3.140 -0.7691 -0.5158 -3.3448
  358MOL0     H48308   3.087   6.680   3.281 -4.6234 -1.8322  0.3783
  358MOL0     H48309   3.142   6.523   3.249  2.9977  1.9143 -0.1341
  358MOL0     H48310   2.562   7.354   3.555  1.6041 -2.6161 -1.4569
  358MOL0     H48311   2.499   7.438   3.786 -0.3493 -1.6406  4.0901
  358MOL0     H48312   2.554   7.491   4.232  0.7162  4.6960  1.0213
  358MOL0     H48313   2.480   7.691   4.378 -3.1256  0.1814  1.2394
  358MOL0     H48314   2.136   9.319   3.716  0.1568  1.4182 -1.2833
  358MOL0     H48315   2.372   9.367   3.665  2.8582 -1.1149  2.9449
  358MOL0     H48316   2.666   9.638   3.416 -1.2126 -2.6738  1.6151
  358MOL0     H48317   2.907   9.665   3.356 -0.7122  4.0258  1.2020
  358MOL0     H48318   3.268   9.671   3.627  0.1152  2.3710  1.0995
  358MOL0     H48319   3.150   9.801   3.635 -0.6119 -0.9070  0.7531
  358MOL0     H48320   3.341   9.745   3.404 -1.2407 -0.0967 -0.2119
  358MOL0     H48321   3.391   9.862   3.536  0.7155 -0.0368  0.2828
  358MOL0     H48322   3.310  10.016   3.401 -0.1529 -0.6542 -0.2785
  358MOL0     H48323   3.146   9.971   3.462  0.4227  0.6071  0.4502
  358MOL0     H48324   3.270   9.879   3.197 -0.8922  0.0075 -1.0056
  358MOL0     H48325   3.115   9.818   3.266  3.3616 -1.5981 -2.5428
  358MOL0     H48326   3.009  10.169   3.063 -0.7515  1.9898  2.1511
  358MOL0     H48327   3.039   9.614   3.752  0.2789 -1.3934  0.2096
  358MOL0     H48328   2.763   9.643   3.911 -2.5584 -0.3313 -0.7822
  358MOL0     H48329   2.728   9.475   3.874 -0.4211  1.1668  3.0078
  358MOL0     H48330   2.896   9.520   3.909  0.4693  2.1592  1.4187
  359MOL0     O48331   6.717   8.678   5.123 -0.8290  0.4093 -0.3864
  359MOL0     C48332   6.765   8.761   5.047 -0.5291 -0.0381  0.8063
  359MOL0     O48333   6.782   8.891   5.079 -0.3726 -0.6672 -0.0354
  359MOL0     C48334   6.789   8.925   5.212 -0.0770 -0.8448 -0.0843
  359MOL0     C48335   6.870   8.863   5.305 -0.4524  0.7147 -0.1851
  359MOL0     C48336   6.869   8.894   5.441 -0.1332  0.1197 -0.3507
  359MOL0     C48337   6.809   9.005   5.484  0.6681 -0.0541 -0.2255
  359MOL0     O48338   6.819   9.027   5.620  1.2113 -0.0252  0.3166
  359MOL0     C48339   6.884   9.155   5.661 -0.3393  0.2451  0.5072
  359MOL0     C48340   6.809   9.232   5.770 -0.2672  0.6379 -0.2749
  359MOL0     C48341   6.778   9.145   5.887  0.2493  0.8620 -0.6277
  359MOL0     C48342   6.742   9.246   5.998  0.0121  1.0007  0.1110
  359MOL0     C48343   6.672   9.172   6.111  0.7900  0.1338 -0.4663
  359MOL0     C48344   6.747   9.062   6.184 -0.0983 -0.0906  0.1214
  359MOL0     C48345   6.856   9.130   6.268 -0.6684 -0.5108 -0.5739
  359MOL0     C48346   6.906   9.045   6.390  0.3172 -0.8671 -0.6316
  359MOL0     N48347   6.919   9.126   6.512  0.2972 -0.1744  0.1276
  359MOL0     C48348   7.018   9.227   6.530 -0.0547 -0.0163  0.6362
  359MOL0     C48349   7.011   9.252   6.657  0.5601  0.3088  0.2384
  359MOL0     C48350   7.122   9.329   6.729  0.2177 -0.0079  0.3466
  359MOL0     C48351   7.092   9.478   6.721 -0.1213 -0.2055  0.2270
  359MOL0     C48352   7.197   9.564   6.798  0.0107 -0.2199 -0.1605
  359MOL0     C48353   7.199   9.535   6.945 -0.4267  0.0791 -0.3180
  359MOL0     O48354   7.268   9.639   7.011  0.7612  0.0944 -0.1451
  359MOL0     C48355   7.307   9.618   7.136  0.8685 -0.0021  0.2805
  359MOL0     C48356   7.400   9.709   7.183 -0.1132 -0.4019  0.1716
  359MOL0     C48357   7.447   9.703   7.317  0.5997 -0.5926  0.1913
  359MOL0     C48358   7.389   9.600   7.402 -0.0066 -0.5391 -0.5692
  359MOL0     C48359   7.438   9.591   7.547  1.3151  0.0658 -0.6283
  359MOL0     O48360   7.535   9.680   7.579  0.3071  0.0047  0.8052
  359MOL0     C48361   7.570   9.697   7.711 -0.1057  0.7430  0.3029
  359MOL0     C48362   7.621   9.585   7.782  0.5581  0.3189  0.1330
  359MOL0     C48363   7.654   9.601   7.919  0.1368 -0.5938 -0.0998
  359MOL0     C48364   7.656   9.733   7.970 -1.1824 -0.1501  0.1800
  359MOL0     O48365   7.675   9.761   8.097  0.2164  0.6634 -0.1618
  359MOL0     C48366   7.647   9.674   8.205  0.2559  0.6937 -0.2943
  359MOL0     C48367   7.620   9.745   8.323  0.7774  0.3284  0.1577
  359MOL0     C48368   7.493   9.837   8.307  0.6595  0.6267  0.9197
  359MOL0     C48369   7.497   9.904   8.448  0.3326  0.3704 -0.4352
  359MOL0     C48370   7.362   9.984   8.453  0.4093  0.2165 -0.3792
  359MOL0     C48371   7.353  10.061   8.579 -0.3195 -0.7747  0.5618
  359MOL0     C48372   7.235  10.156   8.589  0.0887 -0.0465  0.4192
  359MOL0     C48373   7.108  10.084   8.576 -0.5942  0.3353 -0.0322
  359MOL0    Cl48374   7.090   9.992   8.733  0.1971 -0.2504 -0.2643
  359MOL0     C48375   7.614   9.845   7.892 -0.1849 -0.1776 -0.5673
  359MOL0     C48376   7.574   9.826   7.760 -0.1750  0.4548  0.1621
  359MOL0     O48377   7.383   9.511   7.623 -0.3476 -0.4617 -0.9967
  359MOL0     C48378   7.296   9.506   7.355 -0.8392  0.0533 -0.3597
  359MOL0     C48379   7.260   9.510   7.216  0.5095 -0.9718  0.5213
  359MOL0     N48380   6.919   9.184   6.714  0.6480  0.6458 -1.1570
  359MOL0     N48381   6.848   9.117   6.626 -0.1662  0.4035 -0.4146
  359MOL0     C48382   6.725   9.079   5.396  0.4185  0.7298  0.2137
  359MOL0     C48383   6.709   9.030   5.262  0.2507 -0.3115 -0.1815
  359MOL0     C48384   6.823   8.718   4.914  0.3252 -0.0310 -0.5715
  359MOL0     C48385   6.919   8.615   4.914  0.2527  0.3116 -0.0874
  359MOL0     C48386   6.995   8.580   4.809  0.8639 -0.1149  0.6477
  359MOL0     C48387   6.981   8.652   4.688  0.1699  0.7043 -0.2784
  359MOL0     O48388   7.048   8.634   4.569  1.0635 -0.3371 -0.2626
  359MOL0     C48389   7.138   8.520   4.563  0.3266 -0.3734 -0.9203
  359MOL0     C48390   7.157   8.495   4.414  1.5176 -0.3640 -0.1883
  359MOL0     C48391   7.270   8.396   4.400  0.1022  0.3611  0.3460
  359MOL0     C48392   7.231   8.295   4.301 -0.1660  0.3553  0.3882
  359MOL0     C48393   7.346   8.243   4.222  0.9644  0.7420 -0.2531
  359MOL0     C48394   7.434   8.189   4.171  0.1895  0.5636 -0.8757
  359MOL0     C48395   6.875   8.748   4.690  0.2422  0.0415 -0.1270
  359MOL0     C48396   6.798   8.789   4.803 -0.2977 -0.0687  1.3294
  359MOL0     C48397   6.686   8.884   4.777 -0.0895 -0.0373 -0.0808
  359MOL0     H48398   6.922   8.774   5.272  0.4377  2.1483 -3.0339
  359MOL0     H48399   6.915   8.828   5.514 -2.1086 -0.0036  0.8399
  359MOL0     H48400   6.986   9.147   5.697  0.7658 -2.4175 -2.6115
  359MOL0     H48401   6.892   9.208   5.565 -1.4133  1.7447  1.2072
  359MOL0     H48402   6.714   9.269   5.729 -2.2308 -2.0992  1.5009
  359MOL0     H48403   6.869   9.319   5.799  0.8178 -0.1386 -0.1094
  359MOL0     H48404   6.856   9.076   5.921 -1.7070 -0.7472  0.7843
  359MOL0     H48405   6.691   9.080   5.876  0.8525 -0.1150  0.2632
  359MOL0     H48406   6.826   9.311   6.024 -0.5522  3.0052 -2.5662
  359MOL0     H48407   6.663   9.311   5.959 -0.7175  0.0962  0.0376
  359MOL0     H48408   6.641   9.240   6.192  2.6754  1.1860 -0.5783
  359MOL0     H48409   6.571   9.146   6.077  0.2459  2.6658 -1.0235
  359MOL0     H48410   6.677   9.024   6.259  2.4615  1.1471  3.3729
  359MOL0     H48411   6.784   8.985   6.116  0.7622  1.7541 -1.5956
  359MOL0     H48412   6.821   9.231   6.295  1.0944  0.0708 -0.3611
  359MOL0     H48413   6.948   9.154   6.213  0.6935  0.2108  1.8822
  359MOL0     H48414   6.835   8.965   6.414 -0.6425  0.7676  2.6156
  359MOL0     H48415   6.991   8.983   6.361  0.4623 -2.6822  3.0686
  359MOL0     H48416   7.096   9.277   6.473 -2.0092  2.7274  0.1710
  359MOL0     H48417   7.118   9.307   6.836 -1.5743 -0.1845  0.2861
  359MOL0     H48418   7.218   9.301   6.686  0.5650  2.7229 -0.8236
  359MOL0     H48419   7.068   9.493   6.615 -0.3943 -2.8485 -0.1679
  359MOL0     H48420   7.000   9.497   6.776 -0.0278  1.3203 -0.0957
  359MOL0     H48421   7.176   9.670   6.786  0.6905 -0.3820 -3.8617
  359MOL0     H48422   7.299   9.562   6.758  0.8503 -1.7935  1.8379
  359MOL0     H48423   7.262   9.445   6.953  1.6710  1.6340  2.3311
  359MOL0     H48424   7.101   9.511   6.987  0.4976 -1.0048  1.3340
  359MOL0     H48425   7.432   9.781   7.108  1.7495 -1.9484 -0.6126
  359MOL0     H48426   7.518   9.780   7.345 -1.2800  0.9535  0.9442
  359MOL0     H48427   7.617   9.490   7.731 -1.1773 -0.2010  1.1657
  359MOL0     H48428   7.694   9.519   7.978  2.0873  1.1291  1.1046
  359MOL0     H48429   7.556   9.620   8.178 -0.1772  1.4023 -0.2677
  359MOL0     H48430   7.728   9.601   8.216 -2.3141 -2.1340  1.6238
  359MOL0     H48431   7.616   9.667   8.399 -0.4327 -0.0258 -0.2545
  359MOL0     H48432   7.704   9.812   8.346 -0.0870  1.7198 -0.5416
  359MOL0     H48433   7.505   9.904   8.222 -0.3052 -0.6225 -0.2534
  359MOL0     H48434   7.405   9.777   8.283  2.1584 -0.9025 -1.1898
  359MOL0     H48435   7.575   9.980   8.455 -0.2291  0.9694 -0.5167
  359MOL0     H48436   7.507   9.828   8.527  0.0865  0.4855 -0.2901
  359MOL0     H48437   7.285   9.906   8.456 -0.2770  0.8990 -0.1898
  359MOL0     H48438   7.359  10.040   8.359  4.0139  2.5014  0.6605
  359MOL0     H48439   7.361  10.000   8.670  0.5296 -2.1791 -0.4046
  359MOL0     H48440   7.439  10.127   8.573 -1.0800  0.4769  2.3455
  359MOL0     H48441   7.234  10.228   8.506 -1.9643 -0.9564 -0.3988
  359MOL0     H48442   7.233  10.211   8.683  2.2121  0.6319  0.1387
  359MOL0     H48443   7.017  10.143   8.562 -2.0157 -1.5585  0.7167
  359MOL0     H48444   7.101  10.030   8.481  4.5740 -0.2180 -0.4018
  359MOL0     H48445   7.573   9.937   7.934 -1.0478  0.4561 -2.6504
  359MOL0     H48446   7.540   9.907   7.697  2.9997  2.7747  1.2178
  359MOL0     H48447   7.259   9.426   7.418 -2.7315  0.0020 -1.4591
  359MOL0     H48448   7.196   9.433   7.175 -3.1057  2.5671 -1.2661
  359MOL0     H48449   6.678   9.172   5.426  0.6101  1.4804 -1.6411
  359MOL0     H48450   6.643   9.081   5.193  0.4974 -2.6078 -2.2655
  359MOL0     H48451   6.936   8.563   5.008 -0.2524 -0.5902 -0.4849
  359MOL0     H48452   7.067   8.501   4.829 -1.4234 -2.0840  1.6421
  359MOL0     H48453   7.093   8.424   4.590  1.6704 -0.4843  1.1093
  359MOL0     H48454   7.234   8.531   4.614 -0.2237  0.9473 -0.1066
  359MOL0     H48455   7.191   8.586   4.363  1.2832 -0.9105 -1.3488
  359MOL0     H48456   7.065   8.470   4.361 -0.1685 -0.7167  2.6882
  359MOL0     H48457   7.292   8.338   4.490  3.4829  1.4430  0.3324
  359MOL0     H48458   7.352   8.462   4.371 -0.8719  0.2391 -3.2720
  359MOL0     H48459   7.171   8.218   4.350  2.1981 -0.7249  1.7446
  359MOL0     H48460   7.177   8.349   4.222 -1.8094 -0.0146  1.2192
  359MOL0     H48461   7.523   8.147   4.128 -0.3926 -0.5850 -0.9845
  359MOL0     H48462   6.870   8.808   4.600  0.4726  2.6731  1.5094
  359MOL0     H48463   6.637   8.903   4.872  1.8138  1.8764  0.6045
  359MOL0     H48464   6.719   8.979   4.733 -1.7122  0.6991  0.2356
  359MOL0     H48465   6.613   8.834   4.712 -0.0533 -0.8251  0.4694
  360MOL0     O48466   4.753   3.204   9.562 -0.7635 -0.8326 -0.3205
  360MOL0     C48467   4.637   3.243   9.588 -0.6012  0.8932  0.3978
  360MOL0     O48468   4.583   3.372   9.579 -0.8237  0.2043  0.4345
  360MOL0     C48469   4.679   3.468   9.588  0.8751  1.1824 -0.5565
  360MOL0     C48470   4.744   3.508   9.474 -0.5441 -0.5330 -0.0641
  360MOL0     C48471   4.816   3.631   9.479  0.4876  0.6038  0.1724
  360MOL0     C48472   4.823   3.705   9.593 -0.5982  0.4340 -0.7341
  360MOL0     O48473   4.913   3.815   9.608  0.0915 -0.5618  0.4448
  360MOL0     C48474   4.958   3.878   9.479 -0.1033 -0.4552 -0.5654
  360MOL0     C48475   5.045   4.007   9.501  0.4326 -0.1858  0.1131
  360MOL0     C48476   5.191   3.976   9.523  0.5042 -0.8264 -0.1171
  360MOL0     C48477   5.245   4.072   9.631 -0.2497 -0.7854 -0.9616
  360MOL0     C48478   5.352   4.000   9.714 -0.1010 -0.2441  0.9575
  360MOL0     C48479   5.461   3.931   9.627  0.8652 -0.5537 -0.2067
  360MOL0     C48480   5.531   4.023   9.516 -0.0579  0.2121  0.1273
  360MOL0     C48481   5.609   4.134   9.591 -0.7876  0.0404 -0.3430
  360MOL0     N48482   5.702   4.207   9.502 -0.3107  0.0412  0.0516
  360MOL0     C48483   5.664   4.283   9.393  0.0402  0.5173 -0.8453
  360MOL0     C48484   5.776   4.339   9.340 -0.8522  0.5075  0.7940
  360MOL0     C48485   5.794   4.435   9.223  0.3144 -0.4445 -0.9117
  360MOL0     C48486   5.834   4.590   9.279 -0.4017 -0.2483  0.1559
  360MOL0     C48487   5.954   4.644   9.192  0.0684 -0.1978  0.2583
  360MOL0     C48488   5.983   4.789   9.204 -0.1529 -0.5197 -0.9763
  360MOL0     O48489   5.864   4.867   9.194  0.0717  1.1326 -0.4691
  360MOL0     C48490   5.870   4.997   9.240  0.7330  0.2822 -0.0618
  360MOL0     C48491   5.983   5.062   9.270 -0.0487 -0.5345 -1.5623
  360MOL0     C48492   5.974   5.191   9.328 -0.3716  0.3207 -0.1378
  360MOL0     C48493   5.854   5.257   9.346  0.0142 -0.0166 -0.3359
  360MOL0     C48494   5.860   5.403   9.393  0.0739  1.1568 -0.3191
  360MOL0     O48495   5.755   5.478   9.361 -0.4619 -0.4752  0.2537
  360MOL0     C48496   5.764   5.610   9.374 -1.0203 -0.4662 -0.6889
  360MOL0     C48497   5.682   5.686   9.464  0.1841  0.5116 -0.6801
  360MOL0     C48498   5.688   5.823   9.474  0.9683 -0.3395 -0.4534
  360MOL0     C48499   5.796   5.896   9.415  0.4097 -0.7105  0.4471
  360MOL0     O48500   5.830   6.026   9.421 -0.2669  0.7209 -0.5890
  360MOL0     C48501   5.764   6.100   9.534  1.1707 -0.0309  0.2603
  360MOL0     C48502   5.811   6.239   9.526 -0.8053 -1.1300  0.0084
  360MOL0     C48503   5.955   6.256   9.559  0.0548  0.6040  1.0622
  360MOL0     C48504   6.059   6.223   9.450 -0.6122 -0.0127  0.4119
  360MOL0     C48505   6.193   6.303   9.463 -0.3828  1.1053 -0.6649
  360MOL0     C48506   6.277   6.244   9.580  1.0617  0.0693 -0.1681
  360MOL0     C48507   6.414   6.318   9.592 -0.3085 -0.7419 -0.0823
  360MOL0     C48508   6.537   6.221   9.612 -0.2014 -0.1208 -0.3934
  360MOL0    Cl48509   6.680   6.307   9.688  0.5120  0.4480  0.5625
  360MOL0     C48510   5.877   5.825   9.334 -0.5392 -0.0745 -0.1051
  360MOL0     C48511   5.860   5.683   9.303 -0.1251  0.1220 -0.3078
  360MOL0     O48512   5.960   5.445   9.446 -0.2787 -0.2811 -0.2814
  360MOL0     C48513   5.727   5.190   9.322 -0.3677  0.3484  0.2340
  360MOL0     C48514   5.745   5.059   9.270 -0.0871 -0.6094  0.2429
  360MOL0     N48515   5.884   4.292   9.422  0.6431  0.1466  0.0695
  360MOL0     N48516   5.840   4.214   9.511  0.0942 -0.0698 -0.7254
  360MOL0     C48517   4.750   3.661   9.708  0.2299  0.2386 -0.2046
  360MOL0     C48518   4.676   3.543   9.700  0.5105  0.2038  0.0648
  360MOL0     C48519   4.546   3.134   9.640 -0.7543  0.5852  0.0438
  360MOL0     C48520   4.416   3.179   9.673  0.9308  0.6590 -0.6292
  360MOL0     C48521   4.319   3.092   9.730  0.3214 -0.7793 -0.7913
  360MOL0     C48522   4.347   2.965   9.768 -0.0782  0.0129 -0.4740
  360MOL0     O48523   4.242   2.916   9.843 -0.6936  0.1662  0.4144
  360MOL0     C48524   4.248   2.782   9.902 -0.8636  0.3543  0.1285
  360MOL0     C48525   4.334   2.800  10.014  0.1868 -0.2203 -0.7520
  360MOL0     C48526   4.371   2.654  10.069 -0.0862  0.1829  0.1228
  360MOL0     C48527   4.461   2.652  10.190 -0.1353  0.6725 -0.3352
  360MOL0     C48528   4.461   2.522  10.257  0.1011 -0.1669  0.2321
  360MOL0     C48529   4.465   2.416  10.319  0.2090 -0.0479  1.1291
  360MOL0     C48530   4.480   2.912   9.729 -0.5246 -0.7061 -0.7686
  360MOL0     C48531   4.578   2.998   9.672 -0.0495 -0.3720  0.6170
  360MOL0     C48532   4.717   2.938   9.651  0.4375 -0.8008  0.2750
  360MOL0     H48533   4.732   3.451   9.382 -0.0973 -4.1146  1.9013
  360MOL0     H48534   4.863   3.664   9.387 -1.0982  1.2638 -0.4339
  360MOL0     H48535   5.023   3.813   9.420  3.5307  3.1555 -0.9868
  360MOL0     H48536   4.864   3.898   9.429  0.5164 -0.7682 -1.8874
  360MOL0     H48537   5.000   4.064   9.582 -1.2509 -1.1077 -0.1420
  360MOL0     H48538   5.043   4.065   9.408  0.1306 -1.6205 -0.8066
  360MOL0     H48539   5.243   3.981   9.427 -0.5753  0.3417 -0.6767
  360MOL0     H48540   5.207   3.873   9.555  1.9379 -0.0084  1.9760
  360MOL0     H48541   5.291   4.151   9.570 -0.5455 -0.5811 -0.9198
  360MOL0     H48542   5.167   4.096   9.703 -0.1342 -1.6732 -0.5322
  360MOL0     H48543   5.404   4.060   9.789  0.3592 -0.1002  0.5330
  360MOL0     H48544   5.297   3.930   9.777  2.7162 -3.0934  0.4691
  360MOL0     H48545   5.539   3.899   9.698  0.0921  2.6497  2.3209
  360MOL0     H48546   5.407   3.854   9.571 -1.6032  1.1823 -0.3781
  360MOL0     H48547   5.450   4.066   9.456 -0.2645 -0.8578 -0.3918
  360MOL0     H48548   5.590   3.949   9.461  1.4639  0.6861  1.0856
  360MOL0     H48549   5.536   4.205   9.630 -1.4420 -1.2427  0.8663
  360MOL0     H48550   5.661   4.103   9.683 -0.6856  0.6225 -0.2053
  360MOL0     H48551   5.565   4.291   9.350 -0.6527 -4.3263 -0.7220
  360MOL0     H48552   5.877   4.408   9.158  1.2953  1.9563 -0.7635
  360MOL0     H48553   5.700   4.437   9.166 -1.0937  0.2013  1.3059
  360MOL0     H48554   5.750   4.657   9.258 -0.3772  0.1429  1.2576
  360MOL0     H48555   5.853   4.580   9.386  4.1726  0.3715 -0.3966
  360MOL0     H48556   5.921   4.626   9.089  0.7164  1.4355 -0.2669
  360MOL0     H48557   6.047   4.592   9.216  0.1008  0.4908  1.6874
  360MOL0     H48558   6.060   4.810   9.129 -2.2224 -0.0930 -3.0911
  360MOL0     H48559   6.027   4.814   9.301  0.6032  1.6143 -1.8063
  360MOL0     H48560   6.087   5.035   9.263  0.2513 -0.7581  1.8269
  360MOL0     H48561   6.072   5.236   9.346 -1.4955  2.4920  0.9687
  360MOL0     H48562   5.616   5.621   9.521  1.4120 -1.1403 -1.0713
  360MOL0     H48563   5.633   5.880   9.548  1.0086  0.7849 -1.2704
  360MOL0     H48564   5.657   6.104   9.509  1.4592  4.5727 -1.1349
  360MOL0     H48565   5.778   6.064   9.636 -0.1530  1.5368  1.0406
  360MOL0     H48566   5.795   6.283   9.428 -0.1913  3.9875  1.9013
  360MOL0     H48567   5.754   6.304   9.593  0.4772  0.1862 -0.1024
  360MOL0     H48568   5.972   6.362   9.578  3.3634  0.5286 -0.7477
  360MOL0     H48569   5.983   6.190   9.642  0.9584 -0.2765  0.0739
  360MOL0     H48570   6.010   6.246   9.354  0.1718  3.8039  0.7611
  360MOL0     H48571   6.078   6.115   9.444  2.0301  0.4573 -0.8916
  360MOL0     H48572   6.161   6.406   9.476 -0.1596  1.0312  0.5485
  360MOL0     H48573   6.242   6.293   9.365  3.9715  0.2989  1.3463
  360MOL0     H48574   6.223   6.248   9.675 -2.9261 -0.9733 -2.1839
  360MOL0     H48575   6.312   6.146   9.547  3.8527  1.0628 -0.3782
  360MOL0     H48576   6.403   6.388   9.675 -0.5963  1.0078 -1.5179
  360MOL0     H48577   6.432   6.386   9.508  1.4648 -0.6894  0.3115
  360MOL0     H48578   6.513   6.140   9.681  2.2972  1.1722  2.2024
  360MOL0     H48579   6.579   6.172   9.523 -2.9327 -3.4594 -0.0461
  360MOL0     H48580   5.953   5.880   9.280  0.2457  2.3966  3.1768
  360MOL0     H48581   5.934   5.625   9.248  0.8774  0.9062  0.1719
  360MOL0     H48582   5.630   5.236   9.335 -1.5491 -0.6933 -3.6209
  360MOL0     H48583   5.652   5.011   9.240 -1.6438  3.5088 -2.4455
  360MOL0     H48584   4.742   3.715   9.801  0.6874 -1.4353  0.8403
  360MOL0     H48585   4.617   3.515   9.787 -0.3683 -0.2206 -0.6568
  360MOL0     H48586   4.390   3.283   9.664  2.3758  0.9804 -1.3274
  360MOL0     H48587   4.217   3.125   9.749 -0.9889 -3.1222 -3.1513
  360MOL0     H48588   4.292   2.711   9.831 -3.5403  2.5361 -4.1339
  360MOL0     H48589   4.151   2.738   9.927 -0.5453  1.4448  3.8142
  360MOL0     H48590   4.266   2.851  10.084  0.3355  0.4256 -1.0768
  360MOL0     H48591   4.421   2.863   9.995 -0.4098  0.4877 -1.1899
  360MOL0     H48592   4.433   2.608   9.991  2.4738 -0.5578  2.4154
  360MOL0     H48593   4.279   2.597  10.083  0.1810 -0.8297 -1.8834
  360MOL0     H48594   4.560   2.680  10.153  0.3385 -0.6124 -0.1058
  360MOL0     H48595   4.424   2.728  10.260 -2.2320 -0.4435 -0.1642
  360MOL0     H48596   4.465   2.324  10.374  0.5628 -0.1455  0.9657
  360MOL0     H48597   4.502   2.810   9.758  0.4665 -0.1836  0.3859
  360MOL0     H48598   4.777   3.002   9.716 -2.3112  1.3675  0.9136
  360MOL0     H48599   4.707   2.830   9.661  1.3080 -0.8490  0.6695
  360MOL0     H48600   4.756   2.957   9.551  0.2268  2.3947  0.6824
  361MOL0     O48601   1.706   8.503   3.005 -1.3728  1.1020  0.2477
  361MOL0     C48602   1.675   8.589   2.930  0.0619 -0.7386  0.7901
  361MOL0     O48603   1.707   8.721   2.945 -0.0199 -0.8059  0.0641
  361MOL0     C48604   1.814   8.750   3.020 -0.5104 -0.5396 -0.1853
  361MOL0     C48605   1.857   8.687   3.145 -0.6449  0.3027 -0.2149
  361MOL0     C48606   1.969   8.725   3.215 -1.6492  1.1928 -0.0570
  361MOL0     C48607   2.055   8.827   3.168  0.5231 -0.3018 -0.7689
  361MOL0     O48608   2.171   8.868   3.233 -0.1668  0.0271  0.3858
  361MOL0     C48609   2.278   8.925   3.153 -0.4026 -0.3280  1.1357
  361MOL0     C48610   2.417   8.949   3.221  0.3555  0.4682  0.6635
  361MOL0     C48611   2.394   9.065   3.314  0.7512  0.1465 -0.0211
  361MOL0     C48612   2.517   9.090   3.392  0.0985 -0.3576 -0.4146
  361MOL0     C48613   2.628   9.150   3.314  0.1871  0.1541  0.6756
  361MOL0     C48614   2.753   9.159   3.403  0.2774 -0.1790 -0.5525
  361MOL0     C48615   2.876   9.193   3.328  0.2764 -0.1714  0.3928
  361MOL0     C48616   2.989   9.190   3.427 -0.5517  0.7074  0.8367
  361MOL0     N48617   3.112   9.262   3.388 -0.1609 -0.3905  0.6279
  361MOL0     C48618   3.189   9.357   3.452  0.1123  0.0442  0.7790
  361MOL0     C48619   3.299   9.370   3.380  0.5503  0.2772  0.4895
  361MOL0     C48620   3.420   9.456   3.407  0.4715  1.3158  0.3041
  361MOL0     C48621   3.532   9.357   3.441  0.1596 -0.6847 -1.1483
  361MOL0     C48622   3.662   9.422   3.483 -0.9291 -0.2946 -0.1950
  361MOL0     C48623   3.744   9.342   3.588 -0.1369  0.0794  0.1469
  361MOL0     O48624   3.872   9.405   3.624  0.4990  0.0435 -0.2657
  361MOL0     C48625   3.974   9.321   3.659  0.4707  0.3617  0.0326
  361MOL0     C48626   4.099   9.371   3.682  0.9236 -1.2141  1.1950
  361MOL0     C48627   4.202   9.289   3.729 -1.0373 -0.5483 -0.2996
  361MOL0     C48628   4.191   9.150   3.749 -0.6782 -0.0434  0.9170
  361MOL0     C48629   4.307   9.066   3.796  0.1921  0.0949  0.1552
  361MOL0     O48630   4.279   8.931   3.820 -0.1051 -0.3490  0.4808
  361MOL0     C48631   4.390   8.871   3.876 -0.3847 -0.2355  0.1151
  361MOL0     C48632   4.461   8.772   3.814  0.0873  0.4210  0.4685
  361MOL0     C48633   4.569   8.697   3.876  0.3670  0.2141 -0.1706
  361MOL0     C48634   4.608   8.727   4.002 -0.0906 -0.2038 -0.7163
  361MOL0     O48635   4.720   8.680   4.070  0.3692 -0.8111  0.8954
  361MOL0     C48636   4.805   8.586   4.007 -0.3465  1.0847  0.1741
  361MOL0     C48637   4.740   8.447   4.021 -0.2187  1.1054  0.5528
  361MOL0     C48638   4.830   8.333   3.969  0.1432 -0.4531 -1.1225
  361MOL0     C48639   4.941   8.327   4.086  0.7554 -0.0882  0.8500
  361MOL0     C48640   4.957   8.189   4.151 -0.0969  0.3918  0.3235
  361MOL0     C48641   4.860   8.137   4.261  0.1758 -0.5505  0.3130
  361MOL0     C48642   4.864   7.991   4.304  0.7609  0.3229  0.2212
  361MOL0     C48643   4.947   7.963   4.432 -0.8125  0.0215 -0.7164
  361MOL0    Cl48644   4.921   7.800   4.468  0.4596  0.2248 -0.2329
  361MOL0     C48645   4.533   8.830   4.064  0.7802  0.4063  0.0228
  361MOL0     C48646   4.416   8.883   4.011  0.3372  0.0604 -1.1146
  361MOL0     O48647   4.416   9.128   3.812 -0.2056  0.6607  0.0978
  361MOL0     C48648   4.065   9.098   3.717  0.4746 -0.7418 -0.4268
  361MOL0     C48649   3.954   9.179   3.689  0.0821 -0.1895 -0.1829
  361MOL0     N48650   3.286   9.285   3.274  0.0344  0.5182 -0.2523
  361MOL0     N48651   3.179   9.219   3.281 -0.5221 -0.4713 -0.3815
  361MOL0     C48652   2.016   8.891   3.051  0.4365  0.4149 -0.7232
  361MOL0     C48653   1.906   8.849   2.975 -0.1484 -0.2735  0.6215
  361MOL0     C48654   1.565   8.562   2.830 -0.1254 -0.9703  0.2643
  361MOL0     C48655   1.500   8.438   2.842  0.7695  0.2761 -0.4536
  361MOL0     C48656   1.399   8.390   2.764  0.4975  0.0214 -0.4262
  361MOL0     C48657   1.359   8.477   2.660 -0.2684 -0.0264  0.7064
  361MOL0     O48658   1.257   8.422   2.584  0.0166 -1.0832  0.4587
  361MOL0     C48659   1.174   8.505   2.495 -0.7366  0.2804 -0.5615
  361MOL0     C48660   1.092   8.608   2.570  0.3210  0.1749 -0.2200
  361MOL0     C48661   0.976   8.669   2.498 -0.1448  0.4237 -0.3496
  361MOL0     C48662   0.926   8.787   2.596  0.0531  0.1867  0.5763
  361MOL0     C48663   0.819   8.866   2.541  0.5036 -0.0793 -0.3924
  361MOL0     C48664   0.733   8.933   2.489  0.3838  0.1510 -0.0539
  361MOL0     C48665   1.424   8.598   2.641  0.1647 -0.5602 -0.3980
  361MOL0     C48666   1.524   8.651   2.721  0.8635  0.4726 -0.3849
  361MOL0     C48667   1.565   8.793   2.680 -0.0066  0.1504  0.1896
  361MOL0     H48668   1.798   8.608   3.189  1.0726 -0.7424  0.2993
  361MOL0     H48669   2.004   8.685   3.309 -4.4718 -2.4537 -0.3624
  361MOL0     H48670   2.298   8.852   3.073  1.6946  0.6459  0.6901
  361MOL0     H48671   2.261   9.021   3.105  2.0324  0.4828  1.7175
  361MOL0     H48672   2.492   8.970   3.144 -0.0046 -1.0518 -0.1435
  361MOL0     H48673   2.444   8.867   3.289 -3.5984  2.3574  5.0058
  361MOL0     H48674   2.308   9.040   3.376  0.0747 -0.6765 -1.2331
  361MOL0     H48675   2.366   9.153   3.256 -2.4659  2.0690  4.0257
  361MOL0     H48676   2.500   9.164   3.471  2.0406  0.4554 -0.6912
  361MOL0     H48677   2.542   8.994   3.438 -1.7193 -0.9400 -0.5559
  361MOL0     H48678   2.658   9.094   3.226 -0.5436  0.8136 -0.0146
  361MOL0     H48679   2.593   9.248   3.280 -0.0400  0.8973  2.8890
  361MOL0     H48680   2.721   9.245   3.464 -0.2715  1.1410 -2.6219
  361MOL0     H48681   2.772   9.074   3.469 -1.6195 -0.0845  0.1573
  361MOL0     H48682   2.863   9.298   3.300 -1.3518 -0.9826 -2.2265
  361MOL0     H48683   2.891   9.127   3.242 -1.0114  0.6905 -0.5487
  361MOL0     H48684   2.951   9.242   3.515 -2.8497 -0.5825  0.6843
  361MOL0     H48685   3.022   9.093   3.466  2.0603  1.3266  0.3732
  361MOL0     H48686   3.173   9.410   3.545  1.2068 -1.2122  1.7332
  361MOL0     H48687   3.440   9.511   3.314  0.3644 -1.7602 -1.6745
  361MOL0     H48688   3.411   9.526   3.491  3.2029 -0.0114  1.8284
  361MOL0     H48689   3.505   9.285   3.518  2.2254 -1.4497 -1.0931
  361MOL0     H48690   3.558   9.298   3.353 -1.6491 -2.3604 -0.6272
  361MOL0     H48691   3.642   9.519   3.529  0.2922 -0.2237  0.2121
  361MOL0     H48692   3.729   9.437   3.397  0.9233  1.5840  1.4748
  361MOL0     H48693   3.767   9.243   3.549  0.8902 -0.9029  2.9789
  361MOL0     H48694   3.677   9.327   3.672 -1.8921  0.1823 -1.1891
  361MOL0     H48695   4.104   9.477   3.660  0.2359 -1.7749 -2.0476
  361MOL0     H48696   4.300   9.336   3.738 -1.1851 -0.0504 -1.2062
  361MOL0     H48697   4.449   8.749   3.709 -1.8881  3.3645 -0.0542
  361MOL0     H48698   4.622   8.624   3.816 -3.0953 -1.4338 -1.4966
  361MOL0     H48699   4.829   8.615   3.904  1.8330  1.6534  0.8083
  361MOL0     H48700   4.897   8.577   4.065 -0.8007  1.0845  0.9059
  361MOL0     H48701   4.721   8.426   4.126 -0.3490 -1.2553  0.1135
  361MOL0     H48702   4.654   8.445   3.953  2.7198  1.2799 -3.5343
  361MOL0     H48703   4.780   8.236   3.960  0.9432 -0.8401 -1.4953
  361MOL0     H48704   4.871   8.361   3.872 -1.6368  3.0458 -1.0251
  361MOL0     H48705   4.912   8.378   4.179 -2.5610 -0.0382 -0.1112
  361MOL0     H48706   5.040   8.356   4.050 -0.1829  2.2807  0.0202
  361MOL0     H48707   5.062   8.186   4.182 -0.0082 -0.9500 -0.0612
  361MOL0     H48708   4.944   8.111   4.076 -1.7408 -0.2431  1.2136
  361MOL0     H48709   4.861   8.207   4.345  0.1987  0.2656 -0.3579
  361MOL0     H48710   4.760   8.147   4.217 -0.5341 -2.5758  1.3213
  361MOL0     H48711   4.893   7.920   4.226 -0.5871 -2.1672  1.8587
  361MOL0     H48712   4.761   7.958   4.321  0.1980  3.0885  3.2373
  361MOL0     H48713   5.056   7.964   4.420 -0.6501  2.6959  0.3066
  361MOL0     H48714   4.922   8.024   4.519 -1.1217 -0.4234 -0.4863
  361MOL0     H48715   4.554   8.877   4.160 -0.7508  0.4937  0.3343
  361MOL0     H48716   4.360   8.964   4.056  1.3884  1.4267 -2.1502
  361MOL0     H48717   4.054   8.990   3.719  0.1963 -0.7122  1.2663
  361MOL0     H48718   3.863   9.120   3.681  0.8915 -2.0187  2.7298
  361MOL0     H48719   2.067   8.971   2.999  2.2135  0.4365  0.9250
  361MOL0     H48720   1.892   8.896   2.878 -1.3126 -1.2408  0.2972
  361MOL0     H48721   1.537   8.362   2.910 -0.4714 -3.2603 -3.3901
  361MOL0     H48722   1.359   8.291   2.781  0.2833 -0.1673 -1.8976
  361MOL0     H48723   1.109   8.431   2.447 -1.0157 -1.3960  2.1781
  361MOL0     H48724   1.222   8.567   2.418  2.4355  0.5455  1.4378
  361MOL0     H48725   1.164   8.684   2.602  1.2916 -0.3501 -1.0782
  361MOL0     H48726   1.041   8.571   2.659  1.0801  4.2760  2.1867
  361MOL0     H48727   0.906   8.587   2.481  3.5256 -3.0258 -0.2272
  361MOL0     H48728   1.009   8.709   2.402 -0.2153 -0.5850 -0.8043
  361MOL0     H48729   0.902   8.748   2.696  1.8897  0.4005  1.1345
  361MOL0     H48730   1.013   8.851   2.615  0.1779 -0.2718  1.6699
  361MOL0     H48731   0.665   8.997   2.437  1.5838 -0.4751 -2.5215
  361MOL0     H48732   1.405   8.659   2.553  3.2850  2.0209  0.5362
  361MOL0     H48733   1.662   8.815   2.727 -0.5377 -1.4667  2.1955
  361MOL0     H48734   1.576   8.812   2.573  2.8365 -0.5993  0.2499
  361MOL0     H48735   1.489   8.859   2.721 -1.6422 -0.9101 -1.0326
  362MOL0     O48736   7.070   4.647   5.776  0.4762  0.1293 -0.3909
  362MOL0     C48737   7.166   4.676   5.836  0.3285  0.7249 -0.4895
  362MOL0     O48738   7.177   4.740   5.959  0.2200  0.5350 -0.3321
  362MOL0     C48739   7.081   4.819   6.018  0.1691 -0.3566  1.0652
  362MOL0     C48740   6.976   4.878   5.944 -0.1753 -0.7451 -0.0368
  362MOL0     C48741   6.891   4.974   6.010  1.1987 -0.8207 -0.8770
  362MOL0     C48742   6.925   5.015   6.140 -0.2902 -0.0223  0.9478
  362MOL0     O48743   6.840   5.107   6.187  0.0364  1.2586  0.5037
  362MOL0     C48744   6.721   5.045   6.241 -0.3266 -0.2359 -0.7529
  362MOL0     C48745   6.670   5.134   6.347 -0.9686 -0.1084 -0.7051
  362MOL0     C48746   6.785   5.199   6.429  0.2735  0.4603  0.4459
  362MOL0     C48747   6.740   5.247   6.577 -0.1847  0.0740  1.0956
  362MOL0     C48748   6.859   5.319   6.657 -0.2589 -0.3662  0.5033
  362MOL0     C48749   6.961   5.217   6.706  0.8397  0.7899  0.6861
  362MOL0     C48750   6.902   5.081   6.769  0.9487 -1.2492 -0.0941
  362MOL0     C48751   7.025   5.003   6.813 -1.2490 -0.1832 -0.0130
  362MOL0     N48752   7.115   4.964   6.696  0.2293 -0.0869 -0.2089
  362MOL0     C48753   7.214   5.027   6.621  0.2277 -0.6756  0.2251
  362MOL0     C48754   7.234   4.943   6.513  0.1499 -0.4191 -0.4184
  362MOL0     C48755   7.326   4.972   6.406 -0.5282 -0.5107  0.7658
  362MOL0     C48756   7.422   4.854   6.373  0.3334 -0.0743  0.2713
  362MOL0     C48757   7.525   4.874   6.267 -0.3399  1.0566 -0.1768
  362MOL0     C48758   7.610   4.744   6.248 -0.2804 -0.5338 -0.5270
  362MOL0     O48759   7.741   4.807   6.227 -0.4367  0.3228 -0.2353
  362MOL0     C48760   7.823   4.773   6.130  0.1883  0.2238  0.4996
  362MOL0     C48761   7.773   4.761   5.993 -0.9285 -0.5688 -0.2028
  362MOL0     C48762   7.861   4.722   5.886 -0.2281  0.3771  0.1967
  362MOL0     C48763   7.991   4.678   5.923 -0.1046  0.0473 -0.3413
  362MOL0     C48764   8.082   4.617   5.819  0.1735 -0.4484 -0.9541
  362MOL0     O48765   8.031   4.588   5.700 -0.0281 -0.2331 -0.5804
  362MOL0     C48766   8.113   4.529   5.609  0.4946 -1.6517  1.0992
  362MOL0     C48767   8.244   4.577   5.568  0.3905 -0.1522 -0.2788
  362MOL0     C48768   8.325   4.499   5.484 -0.3755 -0.2013 -0.0921
  362MOL0     C48769   8.264   4.387   5.425 -0.8752  0.5727  0.2619
  362MOL0     O48770   8.323   4.307   5.332 -0.3169  0.6106 -0.3089
  362MOL0     C48771   8.449   4.343   5.263 -0.8549  0.7482  0.8002
  362MOL0     C48772   8.468   4.241   5.150  0.8676  0.1458  0.1615
  362MOL0     C48773   8.608   4.234   5.094 -0.3209 -0.1888  0.3537
  362MOL0     C48774   8.622   4.131   4.979  0.9862 -0.9392 -0.8400
  362MOL0     C48775   8.729   4.176   4.882 -1.1592 -0.1356 -0.3905
  362MOL0     C48776   8.762   4.082   4.772 -0.8290 -0.2174 -0.1232
  362MOL0     C48777   8.650   4.056   4.669  1.0061  0.4503 -1.0613
  362MOL0     C48778   8.674   3.927   4.598 -0.8042 -0.2117  0.7739
  362MOL0    Cl48779   8.534   3.879   4.493  0.2716  0.0708 -0.0940
  362MOL0     C48780   8.131   4.344   5.452 -0.0238  0.2772 -0.2887
  362MOL0     C48781   8.063   4.417   5.543 -0.4131  0.0444 -0.3803
  362MOL0     O48782   8.206   4.624   5.853 -0.6778  0.3029 -0.2612
  362MOL0     C48783   8.034   4.685   6.059  0.2125  0.2656 -0.1874
  362MOL0     C48784   7.954   4.739   6.155  0.4082 -0.2727 -0.2012
  362MOL0     N48785   7.160   4.832   6.530 -0.0475 -0.5993  0.2154
  362MOL0     N48786   7.085   4.851   6.638 -0.0763  0.5484  0.0613
  362MOL0     C48787   7.034   4.969   6.210 -0.1634 -0.3191  0.2458
  362MOL0     C48788   7.107   4.862   6.150  0.0272  0.6196 -0.6307
  362MOL0     C48789   7.290   4.627   5.760  0.3503  0.8771  0.4572
  362MOL0     C48790   7.290   4.645   5.621  0.5832  0.3846 -0.1177
  362MOL0     C48791   7.408   4.628   5.550  0.7579 -0.7957  0.6351
  362MOL0     C48792   7.522   4.583   5.617  0.0916 -0.1100 -0.2818
  362MOL0     O48793   7.638   4.569   5.547 -0.1579 -0.3677  0.2030
  362MOL0     C48794   7.658   4.627   5.414  0.4118  0.5730  0.6314
  362MOL0     C48795   7.789   4.555   5.356  0.4709 -0.3561  0.3133
  362MOL0     C48796   7.822   4.606   5.215 -0.1447 -0.1393 -0.1009
  362MOL0     C48797   7.952   4.550   5.160  0.0088 -0.5722 -0.0577
  362MOL0     C48798   7.948   4.406   5.149  0.3441 -0.8413 -0.1365
  362MOL0     C48799   7.931   4.284   5.127  0.6286 -0.2924 -0.9993
  362MOL0     C48800   7.523   4.566   5.750 -1.1314  0.1071  0.8819
  362MOL0     C48801   7.409   4.575   5.824  1.4510 -0.0529 -0.3097
  362MOL0     C48802   7.426   4.546   5.973 -0.9151 -0.2184 -0.3061
  362MOL0     H48803   6.948   4.848   5.843 -0.6854  2.9413 -1.1260
  362MOL0     H48804   6.797   5.004   5.965  1.1413 -0.5287 -0.5634
  362MOL0     H48805   6.646   5.019   6.166 -2.1899  0.2625  0.8602
  362MOL0     H48806   6.744   4.948   6.287  1.0568  0.7110  0.6869
  362MOL0     H48807   6.612   5.060   6.404 -1.1790  0.0626 -0.6942
  362MOL0     H48808   6.617   5.217   6.298  1.4266  2.7118  1.1237
  362MOL0     H48809   6.821   5.290   6.379 -3.1720  1.6938 -0.0678
  362MOL0     H48810   6.877   5.139   6.429  1.3600  2.0422  0.9431
  362MOL0     H48811   6.673   5.331   6.561 -1.2747 -0.7620  1.1962
  362MOL0     H48812   6.701   5.168   6.643  0.7614 -0.0175  1.5753
  362MOL0     H48813   6.903   5.392   6.589  1.6366 -0.4217  1.5712
  362MOL0     H48814   6.836   5.380   6.744  2.5914  1.3469  0.2048
  362MOL0     H48815   7.005   5.183   6.611  0.0313  2.2617 -0.2650
  362MOL0     H48816   7.023   5.265   6.783 -0.2313  3.5957 -0.0480
  362MOL0     H48817   6.848   5.019   6.696  1.1142  1.4009 -2.7109
  362MOL0     H48818   6.831   5.098   6.851 -0.7964  0.0161 -1.7502
  362MOL0     H48819   7.089   5.046   6.891  0.2232 -1.5753 -0.4013
  362MOL0     H48820   7.003   4.908   6.864  0.6309 -0.2685  0.7265
  362MOL0     H48821   7.264   5.122   6.635  1.1553 -1.0265 -0.6369
  362MOL0     H48822   7.263   4.997   6.320  2.2982  0.4644 -1.1326
  362MOL0     H48823   7.390   5.057   6.428  1.1494 -2.0679  2.2563
  362MOL0     H48824   7.485   4.835   6.461 -1.1379 -1.5521  1.0861
  362MOL0     H48825   7.373   4.757   6.358 -1.0591  0.6937 -0.3083
  362MOL0     H48826   7.598   4.952   6.291  1.1239 -0.6546  1.1891
  362MOL0     H48827   7.480   4.887   6.168  0.8597 -2.7200 -1.3653
  362MOL0     H48828   7.582   4.681   6.162  2.7282 -1.8214 -0.6813
  362MOL0     H48829   7.605   4.672   6.330  1.9193  0.5233  0.5938
  362MOL0     H48830   7.668   4.786   5.988 -0.7212  0.2688 -0.6713
  362MOL0     H48831   7.839   4.720   5.780  0.8712  0.3341 -0.0366
  362MOL0     H48832   8.278   4.674   5.602  0.8188 -0.3675 -0.0955
  362MOL0     H48833   8.429   4.522   5.463 -0.3115  0.0687  0.4986
  362MOL0     H48834   8.444   4.446   5.228 -1.0781  0.9547  1.4266
  362MOL0     H48835   8.535   4.322   5.328 -0.3932 -0.7798 -0.2431
  362MOL0     H48836   8.442   4.139   5.178 -1.2408  0.4058 -0.6737
  362MOL0     H48837   8.413   4.274   5.061  3.3828  1.8306 -0.8631
  362MOL0     H48838   8.633   4.332   5.054  0.6698 -0.2701  0.7642
  362MOL0     H48839   8.686   4.217   5.169  2.8733 -2.8157 -3.1300
  362MOL0     H48840   8.525   4.115   4.930  0.8887 -2.3634 -0.2403
  362MOL0     H48841   8.647   4.034   5.022  2.9642 -0.1996 -0.2227
  362MOL0     H48842   8.823   4.173   4.939 -1.2873 -3.1257 -0.1635
  362MOL0     H48843   8.716   4.283   4.861 -2.1564 -0.4522 -1.4806
  362MOL0     H48844   8.849   4.117   4.716 -0.3030  1.1166  1.4441
  362MOL0     H48845   8.793   4.004   4.842  1.5106  0.0109 -0.8119
  362MOL0     H48846   8.654   4.137   4.595  3.4128  1.6910  0.2855
  362MOL0     H48847   8.556   4.049   4.724  0.9436  2.1071 -0.8959
  362MOL0     H48848   8.761   3.947   4.535 -2.5704 -0.1233 -1.8449
  362MOL0     H48849   8.683   3.841   4.664 -1.6022 -0.1218  1.0189
  362MOL0     H48850   8.085   4.251   5.420  0.1236  0.6189 -1.5336
  362MOL0     H48851   7.962   4.383   5.565 -2.1750  0.5508 -5.9347
  362MOL0     H48852   8.134   4.646   6.075  0.2573 -1.2464 -3.3295
  362MOL0     H48853   7.975   4.749   6.261 -2.5536 -0.7214  0.5272
  362MOL0     H48854   7.051   5.003   6.311 -0.7688  0.5996  0.0492
  362MOL0     H48855   7.198   4.833   6.203 -2.2267 -3.7596  1.3653
  362MOL0     H48856   7.199   4.680   5.574  0.5569 -1.6809 -1.7175
  362MOL0     H48857   7.400   4.640   5.443 -0.2651  0.5214  0.8420
  362MOL0     H48858   7.677   4.735   5.421  0.0055  0.9482 -2.5865
  362MOL0     H48859   7.573   4.609   5.348  2.1823 -2.0349 -1.1170
  362MOL0     H48860   7.756   4.451   5.351 -0.6670  0.0209 -0.4418
  362MOL0     H48861   7.880   4.570   5.415 -1.3134  4.3808  2.3704
  362MOL0     H48862   7.829   4.715   5.215 -2.1520  0.0553  1.4160
  362MOL0     H48863   7.739   4.577   5.149  0.3109  0.1494 -0.8146
  362MOL0     H48864   7.956   4.591   5.059 -0.9103 -0.6190 -0.1172
  362MOL0     H48865   8.034   4.587   5.222  1.2081 -0.1180 -1.8497
  362MOL0     H48866   7.911   4.182   5.099 -2.3140  0.7120 -3.1233
  362MOL0     H48867   7.619   4.546   5.796 -1.0203  0.3597  0.7618
  362MOL0     H48868   7.534   4.544   5.993 -1.3701  2.1727  3.2067
  362MOL0     H48869   7.391   4.633   6.028 -0.5724 -0.3282  0.0886
  362MOL0     H48870   7.382   4.453   6.010  1.6131 -1.6075 -0.5053
  363MOL0     O48871   5.273   0.928   3.936 -0.9544  0.8739  0.0876
  363MOL0     C48872   5.215   0.940   4.042 -0.3240 -1.4946  0.0066
  363MOL0     O48873   5.140   1.043   4.071  0.0116 -1.4304  0.7428
  363MOL0     C48874   5.123   1.154   3.985 -0.0822 -0.3817 -0.0122
  363MOL0     C48875   4.995   1.179   3.935 -0.6116  0.0576  1.1961
  363MOL0     C48876   4.972   1.291   3.846 -0.2493  0.0124 -0.2916
  363MOL0     C48877   5.081   1.381   3.824 -0.2056 -0.9952 -0.4407
  363MOL0     O48878   5.076   1.499   3.747  0.2927  0.5758 -0.1872
  363MOL0     C48879   5.034   1.614   3.818  0.3466  0.2507 -0.2151
  363MOL0     C48880   4.996   1.723   3.714  0.0226 -0.3875 -0.3906
  363MOL0     C48881   4.992   1.864   3.778 -1.2062  0.0672 -0.7980
  363MOL0     C48882   5.078   1.954   3.684  0.3722 -1.0941 -0.2037
  363MOL0     C48883   5.106   2.096   3.729 -0.1965 -0.7372 -0.8909
  363MOL0     C48884   5.127   2.114   3.880 -0.2628  0.0436  1.3546
  363MOL0     C48885   5.185   2.253   3.924  0.1502  0.1037  0.6302
  363MOL0     C48886   5.063   2.348   3.918  0.6039  0.0618 -0.6529
  363MOL0     N48887   5.100   2.486   3.968  0.5804 -0.1125  0.8160
  363MOL0     C48888   5.202   2.564   3.910  0.3427 -0.1501 -0.0650
  363MOL0     C48889   5.174   2.684   3.948 -0.0771 -0.7665 -0.1142
  363MOL0     C48890   5.258   2.809   3.925  0.2518  0.6379  0.8575
  363MOL0     C48891   5.355   2.848   4.037  0.1665 -0.1546  0.1447
  363MOL0     C48892   5.379   3.001   4.053 -0.5150 -1.2625 -0.4105
  363MOL0     C48893   5.256   3.075   4.090  0.9900  0.3996 -0.5261
  363MOL0     O48894   5.276   3.210   4.132 -0.4911 -0.2298  0.5066
  363MOL0     C48895   5.333   3.245   4.251  0.3768  0.1627 -0.1528
  363MOL0     C48896   5.353   3.147   4.349 -0.1037  0.6982  0.7713
  363MOL0     C48897   5.408   3.186   4.471  0.0818 -0.6816  0.3093
  363MOL0     C48898   5.456   3.317   4.499  0.9370  0.8092  0.1559
  363MOL0     C48899   5.527   3.348   4.625  0.8042 -1.0378  0.4518
  363MOL0     O48900   5.534   3.481   4.660 -0.0563  0.6631  0.1351
  363MOL0     C48901   5.597   3.528   4.767  0.4703  0.3913 -0.3669
  363MOL0     C48902   5.669   3.639   4.776 -0.2994  0.4428 -0.4999
  363MOL0     C48903   5.727   3.699   4.891  0.0070 -1.4558  0.3954
  363MOL0     C48904   5.703   3.630   5.012 -0.1291  0.1847  0.5929
  363MOL0     O48905   5.748   3.663   5.134 -0.0757  0.6045 -0.1905
  363MOL0     C48906   5.829   3.790   5.152  0.4106 -0.1372  0.0604
  363MOL0     C48907   5.865   3.803   5.304  0.4030 -0.3440  1.0394
  363MOL0     C48908   5.746   3.847   5.384 -0.5809  0.1959  0.4100
  363MOL0     C48909   5.765   3.836   5.533 -1.0143 -0.9514  0.3078
  363MOL0     C48910   5.654   3.892   5.625  0.4345  0.5405 -0.2082
  363MOL0     C48911   5.567   3.773   5.666 -0.0122 -0.3815 -0.4179
  363MOL0     C48912   5.461   3.825   5.764  0.7022  0.4254 -0.0085
  363MOL0     C48913   5.353   3.720   5.802  0.6830  0.3555  0.6141
  363MOL0    Cl48914   5.249   3.701   5.653  0.1720 -0.0541 -0.3719
  363MOL0     C48915   5.646   3.508   5.008 -0.2372  0.2913  0.4418
  363MOL0     C48916   5.596   3.456   4.885  1.0279  0.3236 -0.3792
  363MOL0     O48917   5.599   3.260   4.664 -0.0472  0.0243 -0.3920
  363MOL0     C48918   5.435   3.411   4.399  0.7170 -0.2419  0.5107
  363MOL0     C48919   5.378   3.382   4.275 -0.4269  0.8162  0.7339
  363MOL0     N48920   5.068   2.676   4.038 -0.9403  0.1241  0.5802
  363MOL0     N48921   5.023   2.558   4.052 -0.1724  0.1143 -0.1985
  363MOL0     C48922   5.210   1.345   3.865 -0.2866  0.4928 -0.2308
  363MOL0     C48923   5.224   1.242   3.949  0.2713  0.5361 -0.8950
  363MOL0     C48924   5.204   0.819   4.125  0.1713 -0.8712 -0.2053
  363MOL0     C48925   5.260   0.698   4.070 -0.7258  0.2461  0.1315
  363MOL0     C48926   5.253   0.576   4.134 -1.1349  0.0547  1.0869
  363MOL0     C48927   5.213   0.567   4.266 -0.4007  0.6017 -0.2055
  363MOL0     O48928   5.225   0.446   4.330 -0.2654 -0.5204 -0.1720
  363MOL0     C48929   5.339   0.437   4.415 -0.3316  0.4398 -0.2927
  363MOL0     C48930   5.319   0.327   4.518  0.1603 -1.0158 -0.1590
  363MOL0     C48931   5.228   0.376   4.632  0.4475  0.4247 -0.5015
  363MOL0     C48932   5.161   0.248   4.692 -0.2757  0.1599 -0.0662
  363MOL0     C48933   5.125   0.257   4.834  1.2032  0.1809 -0.0994
  363MOL0     C48934   5.100   0.271   4.948  0.4243 -0.2100 -0.2513
  363MOL0     C48935   5.160   0.685   4.325 -0.1779 -0.2380  0.1299
  363MOL0     C48936   5.152   0.808   4.257 -0.0856  0.0354  0.4369
  363MOL0     C48937   5.094   0.910   4.337 -0.1945 -0.0718 -0.0110
  363MOL0     H48938   4.925   1.103   3.967  1.2240 -1.5686  1.5740
  363MOL0     H48939   4.875   1.307   3.801 -0.3724  4.0705  1.0476
  363MOL0     H48940   4.960   1.591   3.895  0.6642 -2.9808 -0.7549
  363MOL0     H48941   5.119   1.652   3.876  0.8785 -0.1138 -0.7377
  363MOL0     H48942   4.898   1.697   3.673  0.4028 -0.9716 -0.9375
  363MOL0     H48943   5.057   1.722   3.624 -0.2272 -1.3393 -0.5553
  363MOL0     H48944   5.045   1.861   3.874 -1.2348 -2.5395 -0.7978
  363MOL0     H48945   4.884   1.885   3.776 -1.0910  0.7311 -3.7385
  363MOL0     H48946   5.181   1.918   3.676  0.8094  0.4562 -3.0722
  363MOL0     H48947   5.030   1.952   3.586  0.3316 -0.5368 -0.2001
  363MOL0     H48948   5.192   2.132   3.672 -0.3286  4.3316  1.5504
  363MOL0     H48949   5.024   2.160   3.696  0.3592 -1.9934 -5.3800
  363MOL0     H48950   5.029   2.099   3.926 -0.3873 -0.6086  0.9044
  363MOL0     H48951   5.201   2.042   3.916  0.8759 -0.6449 -1.9613
  363MOL0     H48952   5.272   2.287   3.868 -1.3247  0.5748 -1.4968
  363MOL0     H48953   5.213   2.246   4.029  1.3689 -1.5757  0.2252
  363MOL0     H48954   5.017   2.353   3.819 -0.3268  1.5685 -0.1822
  363MOL0     H48955   4.995   2.315   3.997  0.9238 -0.5719 -0.6392
  363MOL0     H48956   5.273   2.543   3.831 -0.2428  1.6031 -1.1338
  363MOL0     H48957   5.320   2.799   3.835  1.0455  1.6984  1.2650
  363MOL0     H48958   5.204   2.903   3.910 -1.8975 -0.3886  1.8258
  363MOL0     H48959   5.331   2.805   4.134  1.0240  0.1149  0.4887
  363MOL0     H48960   5.449   2.796   4.013 -0.6742 -0.6942 -2.3534
  363MOL0     H48961   5.410   3.044   3.958 -2.4752  1.8892  0.2512
  363MOL0     H48962   5.462   3.031   4.118 -1.7629  1.9471 -0.1220
  363MOL0     H48963   5.210   3.009   4.165 -2.0452  1.1968 -1.5153
  363MOL0     H48964   5.182   3.077   4.009 -2.5249 -2.5341  2.2655
  363MOL0     H48965   5.321   3.045   4.327 -1.8081  1.6656 -1.5797
  363MOL0     H48966   5.405   3.110   4.548  3.0122 -2.3533 -1.0487
  363MOL0     H48967   5.685   3.694   4.684 -1.9445  0.1247 -1.0138
  363MOL0     H48968   5.782   3.792   4.895 -2.4354  0.1356 -0.6607
  363MOL0     H48969   5.920   3.781   5.092  1.3693  0.8766  1.3056
  363MOL0     H48970   5.773   3.878   5.121  0.3876 -0.2602 -0.2451
  363MOL0     H48971   5.915   3.714   5.344  0.9450 -0.2511  0.5964
  363MOL0     H48972   5.934   3.887   5.314 -0.4498  0.4097  0.7336
  363MOL0     H48973   5.742   3.954   5.361  1.6158 -0.1812 -2.2804
  363MOL0     H48974   5.655   3.790   5.366 -1.5685  1.5771  0.9488
  363MOL0     H48975   5.845   3.905   5.560 -2.5207 -0.5234  4.3515
  363MOL0     H48976   5.793   3.736   5.567  3.0847 -0.8435 -2.0141
  363MOL0     H48977   5.591   3.967   5.575 -2.3334  0.2182  2.4890
  363MOL0     H48978   5.706   3.924   5.716  0.8132 -4.0307  1.4031
  363MOL0     H48979   5.516   3.726   5.582  0.9279  0.4017 -1.4635
  363MOL0     H48980   5.630   3.700   5.718 -0.8186 -1.5510 -1.0374
  363MOL0     H48981   5.418   3.919   5.727  2.6163  0.7587 -1.5616
  363MOL0     H48982   5.518   3.869   5.846 -0.9515  2.1912  0.2773
  363MOL0     H48983   5.393   3.624   5.836 -0.9726  0.5453  3.3942
  363MOL0     H48984   5.288   3.758   5.881  1.9869  3.1918  0.4406
  363MOL0     H48985   5.624   3.441   5.091  0.9505 -1.7038 -0.7678
  363MOL0     H48986   5.548   3.360   4.893  1.6114  0.0522 -0.0523
  363MOL0     H48987   5.476   3.511   4.415  2.5508 -0.9196  0.3494
  363MOL0     H48988   5.374   3.459   4.198  1.2531 -0.1396 -0.3554
  363MOL0     H48989   5.298   1.403   3.839 -0.5475  0.0743 -2.1589
  363MOL0     H48990   5.325   1.218   3.983  0.1981 -1.3117 -1.8173
  363MOL0     H48991   5.302   0.703   3.969  0.7815  0.4131  0.7371
  363MOL0     H48992   5.303   0.499   4.076  0.5406  0.9739  1.2746
  363MOL0     H48993   5.371   0.527   4.469  0.9195 -0.1600  0.0160
  363MOL0     H48994   5.418   0.407   4.345 -0.3578  1.8647 -0.9683
  363MOL0     H48995   5.417   0.301   4.560  0.5155  1.2843  0.6062
  363MOL0     H48996   5.277   0.240   4.467 -1.9145 -2.0950  3.0682
  363MOL0     H48997   5.158   0.452   4.596  0.5907  0.6360 -0.3377
  363MOL0     H48998   5.294   0.418   4.709  1.0516 -1.6699  0.1860
  363MOL0     H48999   5.073   0.218   4.635 -1.6292  1.4514  1.2810
  363MOL0     H49000   5.235   0.167   4.684 -0.1589 -0.0202  2.1498
  363MOL0     H49001   5.105   0.262   5.055  0.2027 -0.9209 -0.2967
  363MOL0     H49002   5.112   0.672   4.421 -0.8146  2.3722  0.2213
  363MOL0     H49003   5.147   1.003   4.317 -0.4774  0.0753 -0.0826
  363MOL0     H49004   4.989   0.920   4.306 -1.0099 -2.7398  1.5665
  363MOL0     H49005   5.102   0.890   4.444 -4.3372 -1.2341  0.2404
  364MOL0     O49006   8.789   6.944   1.371  0.3655  0.5411  0.5835
  364MOL0     C49007   8.788   6.825   1.324 -0.0755  0.3082 -0.0894
  364MOL0     O49008   8.897   6.761   1.276 -0.5079  0.0760 -0.6860
  364MOL0     C49009   9.029   6.799   1.299  0.5356 -0.3664 -0.4598
  364MOL0     C49010   9.075   6.921   1.352 -0.0199 -1.4435 -0.3349
  364MOL0     C49011   9.210   6.945   1.380 -0.6723  0.5336  0.2788
  364MOL0     C49012   9.306   6.842   1.339 -0.3728 -0.7859 -0.7449
  364MOL0     O49013   9.441   6.866   1.373 -0.4779 -0.1052 -0.6072
  364MOL0     C49014   9.478   6.932   1.494  0.0559 -0.5245 -0.8109
  364MOL0     C49015   9.530   7.081   1.474  0.0793  0.9366 -0.5353
  364MOL0     C49016   9.540   7.139   1.621 -0.6663 -0.1439 -0.2307
  364MOL0     C49017   9.588   7.279   1.609 -0.0025 -0.4015 -1.3354
  364MOL0     C49018   9.606   7.337   1.751 -0.0157 -0.4066  0.7824
  364MOL0     C49019   9.651   7.485   1.731  1.2635  0.2214  0.0508
  364MOL0     C49020   9.629   7.593   1.838 -0.7910 -0.2910  0.5369
  364MOL0     C49021   9.475   7.633   1.836 -0.0203 -0.4114  0.0588
  364MOL0     N49022   9.381   7.539   1.903  0.3934  0.4614  0.2319
  364MOL0     C49023   9.400   7.488   2.025  1.3567 -0.1961 -0.9598
  364MOL0     C49024   9.276   7.445   2.065  0.1432  0.7892  0.6313
  364MOL0     C49025   9.240   7.391   2.200  0.1103 -0.3407  0.4795
  364MOL0     C49026   9.092   7.363   2.222 -0.0582  0.4865  0.4368
  364MOL0     C49027   9.058   7.386   2.370 -0.6285 -0.5675  0.5045
  364MOL0     C49028   8.909   7.401   2.391  0.2934  0.1231 -0.3903
  364MOL0     O49029   8.886   7.396   2.536 -0.6581  0.1556 -0.5868
  364MOL0     C49030   8.759   7.371   2.587  0.0689 -0.1232 -0.4576
  364MOL0     C49031   8.756   7.374   2.728 -0.3687 -0.6944 -0.0448
  364MOL0     C49032   8.633   7.347   2.786  0.6143 -0.1070  0.0757
  364MOL0     C49033   8.513   7.322   2.708  0.3169  0.0754  0.4863
  364MOL0     C49034   8.379   7.310   2.774 -0.4533  1.0672 -0.3783
  364MOL0     O49035   8.272   7.288   2.695 -0.0677  0.0821 -0.0087
  364MOL0     C49036   8.155   7.256   2.769  0.0902  0.1819  1.5564
  364MOL0     C49037   8.138   7.120   2.787  0.0996  0.5430 -0.0932
  364MOL0     C49038   8.027   7.068   2.851 -0.5395 -0.2938  0.3141
  364MOL0     C49039   7.925   7.158   2.885  0.5294  0.3463 -1.0180
  364MOL0     O49040   7.814   7.123   2.955 -0.0492  0.0903  0.0485
  364MOL0     C49041   7.808   6.994   3.026  0.5185  0.1170 -0.3725
  364MOL0     C49042   7.672   6.981   3.092  0.2872 -0.6275  0.2561
  364MOL0     C49043   7.671   7.009   3.247  0.1877  0.0603 -0.5909
  364MOL0     C49044   7.529   7.001   3.301 -0.1857 -0.8036 -0.5083
  364MOL0     C49045   7.456   7.131   3.269 -0.2879  0.6883  0.4423
  364MOL0     C49046   7.314   7.129   3.309  0.2456  0.0754  0.1732
  364MOL0     C49047   7.249   7.258   3.274 -0.6294 -0.0876  0.4838
  364MOL0     C49048   7.113   7.283   3.324 -0.0547 -0.0834  0.6258
  364MOL0    Cl49049   7.085   7.447   3.249  0.3579  0.1963 -0.1571
  364MOL0     C49050   7.931   7.291   2.854  0.2326 -0.0569  0.2841
  364MOL0     C49051   8.047   7.340   2.791 -0.6582 -0.2542  0.6716
  364MOL0     O49052   8.375   7.312   2.899  0.4236  0.6940  1.1307
  364MOL0     C49053   8.525   7.321   2.566  0.1105  0.5635  0.4227
  364MOL0     C49054   8.649   7.351   2.510  0.3653  0.0817  0.9789
  364MOL0     N49055   9.198   7.429   1.940 -1.1364 -0.1041 -0.8172
  364MOL0     N49056   9.264   7.497   1.845 -0.1458  0.8628 -0.0990
  364MOL0     C49057   9.256   6.727   1.292  0.6252  0.9677  0.7026
  364MOL0     C49058   9.123   6.703   1.267  0.2175 -0.0505 -0.2648
  364MOL0     C49059   8.659   6.764   1.302 -0.0075 -0.4503  0.6182
  364MOL0     C49060   8.656   6.659   1.205  0.7686 -1.5260 -0.4690
  364MOL0     C49061   8.532   6.601   1.180 -0.7512  0.5103  0.3357
  364MOL0     C49062   8.406   6.648   1.225 -0.9966 -0.7889 -0.1767
  364MOL0     O49063   8.283   6.605   1.186  0.8220 -0.5338  0.1680
  364MOL0     C49064   8.271   6.475   1.128 -0.5930 -1.1804  0.4681
  364MOL0     C49065   8.134   6.412   1.104  0.1920 -0.7119  0.1280
  364MOL0     C49066   8.060   6.394   1.230  0.2785 -1.1355  0.3936
  364MOL0     C49067   7.930   6.307   1.217 -0.0260  0.5491  0.2721
  364MOL0     C49068   7.819   6.399   1.191  0.0537 -0.0678  0.0607
  364MOL0     C49069   7.719   6.466   1.171 -0.1257 -0.1941 -0.6881
  364MOL0     C49070   8.410   6.755   1.307  0.6674  0.8197 -1.1345
  364MOL0     C49071   8.531   6.808   1.355 -0.1997  0.7837 -0.9604
  364MOL0     C49072   8.519   6.916   1.464  0.6197 -0.7374  0.1700
  364MOL0     H49073   9.015   7.007   1.382  2.2332  0.7822 -1.7837
  364MOL0     H49074   9.216   7.050   1.406  0.2085  1.3627 -2.9231
  364MOL0     H49075   9.391   6.933   1.560 -0.6908  2.3260 -1.6751
  364MOL0     H49076   9.562   6.879   1.540 -0.8324 -1.3898 -0.1378
  364MOL0     H49077   9.441   7.126   1.428  0.4309  4.1487  1.5645
  364MOL0     H49078   9.612   7.102   1.405 -0.2457  0.4003 -1.0972
  364MOL0     H49079   9.602   7.069   1.678  1.8285  1.7211 -0.5096
  364MOL0     H49080   9.439   7.126   1.661 -1.4777 -0.8419 -2.3319
  364MOL0     H49081   9.688   7.286   1.563  0.8536 -0.0907  0.4699
  364MOL0     H49082   9.510   7.336   1.557 -0.9325 -1.1918 -0.8250
  364MOL0     H49083   9.513   7.333   1.809  0.0094 -1.3556  0.7606
  364MOL0     H49084   9.683   7.283   1.807  2.5221  1.2602 -0.9160
  364MOL0     H49085   9.760   7.483   1.729  1.2980  1.4631 -2.1919
  364MOL0     H49086   9.618   7.530   1.637  0.2964  1.8562  1.1252
  364MOL0     H49087   9.707   7.668   1.822  2.7726 -3.8472 -0.5833
  364MOL0     H49088   9.668   7.560   1.935  1.5601  1.5595  0.3119
  364MOL0     H49089   9.459   7.732   1.879 -0.0712 -1.0564  1.5898
  364MOL0     H49090   9.445   7.636   1.730 -1.5746 -2.3451  0.3748
  364MOL0     H49091   9.488   7.495   2.088  1.0901  1.4749 -0.7344
  364MOL0     H49092   9.299   7.301   2.222  0.6888 -0.0542  0.1175
  364MOL0     H49093   9.275   7.462   2.275 -0.6123 -0.2582  0.7447
  364MOL0     H49094   9.031   7.435   2.167 -4.2396 -3.3555 -0.5681
  364MOL0     H49095   9.049   7.270   2.184 -0.7012  1.0434 -0.2191
  364MOL0     H49096   9.110   7.471   2.416 -1.6730 -0.8960  2.3880
  364MOL0     H49097   9.088   7.291   2.415 -1.1836 -1.2609 -0.5546
  364MOL0     H49098   8.856   7.315   2.349  3.8040 -1.7070 -1.4272
  364MOL0     H49099   8.873   7.497   2.353  1.6408  1.6730  1.9980
  364MOL0     H49100   8.845   7.378   2.790 -0.1480 -2.5373 -0.1720
  364MOL0     H49101   8.620   7.347   2.894 -3.6586  0.4133 -0.2622
  364MOL0     H49102   8.204   7.041   2.754 -0.3700  1.3370 -3.3083
  364MOL0     H49103   8.025   6.963   2.875  2.1038 -0.2643  0.9784
  364MOL0     H49104   7.821   6.913   2.953 -2.3734  0.1288 -1.0069
  364MOL0     H49105   7.886   6.995   3.103 -1.0795  2.9645  1.4011
  364MOL0     H49106   7.608   7.050   3.037  1.2627  0.3432  0.2964
  364MOL0     H49107   7.640   6.882   3.060 -1.4849 -0.3659  1.0938
  364MOL0     H49108   7.735   6.930   3.285  0.1400  0.2667 -0.0742
  364MOL0     H49109   7.714   7.107   3.271  2.5682 -1.1008  0.1505
  364MOL0     H49110   7.527   6.986   3.410 -2.8237  0.4053 -0.2969
  364MOL0     H49111   7.473   6.917   3.258 -1.9685  0.6303 -1.1518
  364MOL0     H49112   7.456   7.157   3.163  0.2452 -3.1698 -0.6331
  364MOL0     H49113   7.498   7.213   3.328 -2.2022  0.2139  2.6031
  364MOL0     H49114   7.269   7.041   3.263 -1.7675  0.9714  0.3391
  364MOL0     H49115   7.313   7.127   3.418  0.1567  3.1360  0.3144
  364MOL0     H49116   7.230   7.267   3.167  0.8840 -2.1201 -0.0109
  364MOL0     H49117   7.316   7.335   3.313  0.5168 -1.5173  1.4710
  364MOL0     H49118   7.036   7.217   3.283  1.2917 -0.9002 -0.6863
  364MOL0     H49119   7.105   7.287   3.433  1.4368 -0.1834  0.7514
  364MOL0     H49120   7.848   7.355   2.881 -2.1391 -2.1024 -1.6008
  364MOL0     H49121   8.066   7.446   2.781 -1.9342 -0.0864 -0.3163
  364MOL0     H49122   8.443   7.303   2.498  0.7173  4.8869 -1.8036
  364MOL0     H49123   8.653   7.356   2.402 -0.1216 -2.1283  0.8092
  364MOL0     H49124   9.320   6.642   1.268 -1.7413 -0.4933 -0.8642
  364MOL0     H49125   9.087   6.606   1.233 -0.1571  0.2658 -0.7707
  364MOL0     H49126   8.741   6.635   1.142  0.9669 -0.8495 -0.4629
  364MOL0     H49127   8.534   6.531   1.097 -2.9191  0.4480  0.2929
  364MOL0     H49128   8.318   6.402   1.194  1.8504  0.0569  0.2355
  364MOL0     H49129   8.325   6.479   1.033 -2.6631 -1.6165 -0.7755
  364MOL0     H49130   8.135   6.316   1.050 -0.8394 -1.1591  0.8601
  364MOL0     H49131   8.095   6.487   1.034  2.4053  1.0323  0.6844
  364MOL0     H49132   8.029   6.486   1.282  1.3620 -0.3581 -0.3043
  364MOL0     H49133   8.123   6.352   1.309 -0.7072  2.9587  3.7372
  364MOL0     H49134   7.938   6.233   1.137  3.0526 -0.7572  1.6281
  364MOL0     H49135   7.907   6.262   1.314  1.0954  3.1607  1.8673
  364MOL0     H49136   7.639   6.533   1.146 -2.8762 -4.1444 -3.8915
  364MOL0     H49137   8.317   6.802   1.337  0.4030  1.3293 -2.6253
  364MOL0     H49138   8.419   6.911   1.508  0.9315 -1.8320  0.7609
  364MOL0     H49139   8.580   6.895   1.552  0.7109 -1.5935 -0.0972
  364MOL0     H49140   8.551   7.010   1.418  0.7430 -1.1703 -0.6562
  365MOL0     O49141   9.095  11.403   6.459  0.0715 -0.5890  0.2202
  365MOL0     C49142   9.212  11.379   6.479 -0.5336 -0.5736 -0.4982
  365MOL0     O49143   9.306  11.383   6.386  0.5376  0.0476 -0.7127
  365MOL0     C49144   9.263  11.414   6.251  0.2623 -0.0258 -0.4278
  365MOL0     C49145   9.314  11.532   6.191  0.2305 -0.4254  0.8322
  365MOL0     C49146   9.280  11.569   6.064 -0.2840  0.5454 -0.6921
  365MOL0     C49147   9.180  11.496   5.990 -0.2291  0.1959  0.3770
  365MOL0     O49148   9.137  11.555   5.878 -0.2667 -0.4016 -0.4521
  365MOL0     C49149   9.211  11.526   5.772  0.3975 -0.4793 -0.0387
  365MOL0     C49150   9.210  11.639   5.674 -0.5543 -0.1930 -0.2929
  365MOL0     C49151   9.303  11.746   5.723 -0.7940 -0.5662 -0.0505
  365MOL0     C49152   9.293  11.868   5.633  0.1117 -0.4996  0.7345
  365MOL0     C49153   9.407  11.962   5.649  0.2589  1.1396  0.0909
  365MOL0     C49154   9.382  12.093   5.567  0.7454  0.5909 -0.1502
  365MOL0     C49155   9.504  12.180   5.564 -0.0284 -0.0074  0.3398
  365MOL0     C49156   9.588  12.131   5.443 -0.6645  0.6089  0.3959
  365MOL0     N49157   9.719  12.199   5.425 -0.4310 -0.0005  0.8419
  365MOL0     C49158   9.749  12.326   5.449  0.2913  0.2345 -0.2351
  365MOL0     C49159   9.875  12.337   5.413  0.5977  0.1133 -0.8328
  365MOL0     C49160   9.954  12.466   5.397  0.7049  0.5452  0.6099
  365MOL0     C49161  10.012  12.508   5.531 -0.3884  0.4519 -0.1465
  365MOL0     C49162  10.124  12.604   5.528  0.6050  0.4682 -0.6171
  365MOL0     C49163  10.179  12.614   5.664 -0.3316  0.1973 -0.3097
  365MOL0     O49164  10.081  12.608   5.767 -0.9941 -0.1437 -0.7946
  365MOL0     C49165  10.134  12.660   5.887 -0.0831  0.3386 -0.2026
  365MOL0     C49166  10.095  12.790   5.925  0.5364  0.3201 -0.1074
  365MOL0     C49167  10.148  12.850   6.041 -0.2349  0.7265 -0.1689
  365MOL0     C49168  10.215  12.763   6.129 -0.6905  1.1777  0.2761
  365MOL0     C49169  10.267  12.829   6.250 -0.2329  0.0141  0.1585
  365MOL0     O49170  10.355  12.762   6.330 -0.2892  0.4506  0.4048
  365MOL0     C49171  10.389  12.800   6.455 -0.8909  0.8254 -0.2869
  365MOL0     C49172  10.285  12.810   6.555 -0.7163 -0.4776 -0.9375
  365MOL0     C49173  10.330  12.849   6.687 -0.4656 -0.6586 -0.0286
  365MOL0     C49174  10.462  12.892   6.704  0.6250  0.4171 -0.9357
  365MOL0     O49175  10.513  12.940   6.829  0.3089  0.1188 -0.2755
  365MOL0     C49176  10.424  12.988   6.930 -0.2425  0.2010 -0.3370
  365MOL0     C49177  10.484  13.006   7.066  0.4463  0.0277  0.1911
  365MOL0     C49178  10.564  12.882   7.116 -0.8849  0.1434  0.6822
  365MOL0     C49179  10.623  12.905   7.261  0.2855  1.3605  0.0387
  365MOL0     C49180  10.734  12.804   7.304  0.3777 -0.3074  0.3511
  365MOL0     C49181  10.827  12.859   7.413 -1.2904 -0.2102 -0.0571
  365MOL0     C49182  10.919  12.743   7.466 -0.1407 -0.7972  0.1242
  365MOL0     C49183  11.007  12.797   7.568 -0.7759 -0.8510  0.1118
  365MOL0    Cl49184  11.105  12.667   7.626 -0.1962 -0.0566  0.1012
  365MOL0     C49185  10.555  12.891   6.600  0.8742 -1.2414 -0.1964
  365MOL0     C49186  10.517  12.837   6.481  0.7393 -0.3035  0.0077
  365MOL0     O49187  10.225  12.941   6.273 -0.7950  0.6418  0.0288
  365MOL0     C49188  10.246  12.626   6.105  0.4165 -0.5405 -0.6260
  365MOL0     C49189  10.213  12.577   5.978  0.7494 -0.1642 -1.0301
  365MOL0     N49190   9.922  12.205   5.386 -0.6721  0.3908 -0.6706
  365MOL0     N49191   9.822  12.131   5.387  0.0490 -0.3315  0.6709
  365MOL0     C49192   9.127  11.384   6.051 -0.1604 -0.1797  0.3873
  365MOL0     C49193   9.163  11.343   6.180 -0.7221 -0.5286  0.1183
  365MOL0     C49194   9.268  11.338   6.612  0.2452  0.3635 -0.0944
  365MOL0     C49195   9.402  11.337   6.642 -0.8118 -0.7363 -0.3709
  365MOL0     C49196   9.466  11.301   6.761  0.1451 -0.4063 -0.1336
  365MOL0     C49197   9.384  11.250   6.863 -1.1425 -0.0479  0.8013
  365MOL0     O49198   9.439  11.204   6.977  0.7600  0.3617 -0.4991
  365MOL0     C49199   9.365  11.237   7.095  0.8295  0.2443 -0.1341
  365MOL0     C49200   9.454  11.236   7.216 -0.8789  0.0528  0.5639
  365MOL0     C49201   9.573  11.324   7.203  0.5504  0.9437  0.4023
  365MOL0     C49202   9.654  11.352   7.334 -0.1456 -0.7490 -0.0067
  365MOL0     C49203   9.694  11.237   7.414  0.8308  0.7155  0.9249
  365MOL0     C49204   9.739  11.143   7.471  0.0958  0.4945  0.3827
  365MOL0     C49205   9.245  11.250   6.844 -0.3765  0.1579 -0.2961
  365MOL0     C49206   9.187  11.287   6.719  0.6763 -0.6356  0.0502
  365MOL0     C49207   9.049  11.247   6.691  0.1641 -0.0564  0.1295
  365MOL0     H49208   9.384  11.589   6.252 -2.3194 -0.2205  3.8810
  365MOL0     H49209   9.308  11.670   6.036  0.2611  0.8615  0.9179
  365MOL0     H49210   9.314  11.499   5.799 -0.3421 -2.2471  1.1557
  365MOL0     H49211   9.167  11.439   5.723 -2.1542  1.2055 -0.9465
  365MOL0     H49212   9.108  11.676   5.662 -0.3303  1.8587  2.9895
  365MOL0     H49213   9.240  11.617   5.571  0.9571  4.0570 -0.9676
  365MOL0     H49214   9.402  11.699   5.723  0.1017  1.2127  0.7971
  365MOL0     H49215   9.286  11.773   5.828 -1.3658 -0.0345 -0.2802
  365MOL0     H49216   9.273  11.837   5.530 -1.7238  1.9988  0.2205
  365MOL0     H49217   9.204  11.923   5.667  0.5616  1.7594 -1.4008
  365MOL0     H49218   9.444  11.983   5.750  3.1927  1.8927 -1.0501
  365MOL0     H49219   9.483  11.897   5.605  0.5143 -1.8376  4.3402
  365MOL0     H49220   9.332  12.074   5.471 -0.1098  2.1340 -0.0416
  365MOL0     H49221   9.301  12.147   5.617 -0.1056  0.5759 -1.4611
  365MOL0     H49222   9.564  12.176   5.656  0.2636  0.0867  0.1542
  365MOL0     H49223   9.467  12.282   5.552 -0.6816 -0.4355 -1.7403
  365MOL0     H49224   9.603  12.025   5.462 -3.5644 -0.2084 -1.3540
  365MOL0     H49225   9.525  12.148   5.356  0.4371  3.3798  0.0199
  365MOL0     H49226   9.682  12.411   5.462  0.2270  0.7386 -3.1788
  365MOL0     H49227  10.029  12.460   5.317  0.3709  0.4113  0.3049
  365MOL0     H49228   9.886  12.546   5.366 -0.4996 -1.1752 -1.4029
  365MOL0     H49229   9.929  12.543   5.592  1.2543 -0.5796  2.8706
  365MOL0     H49230  10.055  12.413   5.565 -1.1441 -0.2938 -1.1992
  365MOL0     H49231  10.067  12.696   5.515  2.8954  1.9250 -0.8610
  365MOL0     H49232  10.201  12.601   5.450  0.5297 -0.6295 -0.6633
  365MOL0     H49233  10.223  12.714   5.676 -2.4069  1.1700 -0.4077
  365MOL0     H49234  10.247  12.533   5.692  0.4669  1.2247  0.8347
  365MOL0     H49235  10.047  12.860   5.857  0.3592  0.9463  0.6592
  365MOL0     H49236  10.115  12.952   6.054 -2.9862 -0.2708  1.5283
  365MOL0     H49237  10.186  12.777   6.526 -0.4712 -2.1683 -0.0341
  365MOL0     H49238  10.264  12.858   6.772  0.0311  2.3266  0.1557
  365MOL0     H49239  10.373  13.081   6.906 -1.8888 -0.0041  2.0394
  365MOL0     H49240  10.352  12.909   6.953 -0.9753  1.6890  3.1533
  365MOL0     H49241  10.547  13.096   7.069 -0.4833  0.6859  0.4852
  365MOL0     H49242  10.402  13.040   7.131  0.7505  2.1907 -0.4712
  365MOL0     H49243  10.517  12.784   7.129 -0.6730  0.3527  3.3912
  365MOL0     H49244  10.649  12.884   7.046 -1.1583  1.5850  0.3600
  365MOL0     H49245  10.538  12.912   7.328 -1.4007 -0.2559 -1.8086
  365MOL0     H49246  10.676  13.001   7.255  0.0001  1.4287 -2.1855
  365MOL0     H49247  10.792  12.779   7.215 -0.8683 -0.5240 -0.4291
  365MOL0     H49248  10.686  12.710   7.330 -1.0599  0.7215  1.5750
  365MOL0     H49249  10.889  12.941   7.376 -1.8057  0.6715  1.0115
  365MOL0     H49250  10.772  12.904   7.495  1.2691  1.2087  0.9930
  365MOL0     H49251  10.977  12.706   7.381  0.4639 -2.0788  1.0605
  365MOL0     H49252  10.858  12.659   7.502 -5.0998  2.7553  1.0760
  365MOL0     H49253  11.082  12.868   7.532 -0.4534 -2.4779 -2.7044
  365MOL0     H49254  10.944  12.836   7.649 -2.0766 -1.6941 -0.4561
  365MOL0     H49255  10.657  12.926   6.606  0.2118  0.9215 -0.9579
  365MOL0     H49256  10.589  12.826   6.401  2.1123 -3.4857  1.4912
  365MOL0     H49257  10.294  12.562   6.178 -2.4144 -0.1431  1.7942
  365MOL0     H49258  10.236  12.477   5.942  1.6767 -0.8685  1.3811
  365MOL0     H49259   9.049  11.332   5.997 -0.2218 -0.8212  1.0776
  365MOL0     H49260   9.100  11.264   6.216 -5.4873  3.3566  1.3257
  365MOL0     H49261   9.469  11.355   6.559 -0.2997 -2.1168 -0.2820
  365MOL0     H49262   9.574  11.310   6.767  0.0277  0.1199  1.5788
  365MOL0     H49263   9.282  11.166   7.107  2.2698 -1.5972 -0.5628
  365MOL0     H49264   9.334  11.342   7.089  0.7782  0.5726  3.5022
  365MOL0     H49265   9.493  11.137   7.240 -0.5588  0.7115  2.9890
  365MOL0     H49266   9.385  11.261   7.297 -1.0786  1.3684  0.0173
  365MOL0     H49267   9.533  11.414   7.155 -1.4042  0.1905  0.4912
  365MOL0     H49268   9.643  11.283   7.130 -1.7039 -0.1397 -1.2844
  365MOL0     H49269   9.734  11.420   7.306  0.0955 -0.6967  0.7686
  365MOL0     H49270   9.586  11.410   7.397 -0.1580  2.8220 -3.0170
  365MOL0     H49271   9.776  11.065   7.535  0.9502  1.1395  0.6925
  365MOL0     H49272   9.175  11.204   6.913 -1.2172 -0.3245 -1.4498
  365MOL0     H49273   9.038  11.182   6.604 -4.0052  1.2979 -0.6285
  365MOL0     H49274   9.004  11.188   6.772  0.9412 -2.1141 -0.8762
  365MOL0     H49275   8.985  11.336   6.681 -0.2677  0.1725  3.5870
  366MOL0     O49276   1.283   3.155  10.529  0.7000 -0.1915  0.4755
  366MOL0     C49277   1.172   3.197  10.563 -0.1218  0.4546  0.4721
  366MOL0     O49278   1.153   3.335  10.589 -0.0413 -1.2582 -0.4207
  366MOL0     C49279   1.225   3.424  10.504  0.3607 -0.0055  0.7070
  366MOL0     C49280   1.243   3.393  10.371  0.4545  0.8249  0.1616
  366MOL0     C49281   1.311   3.470  10.282  0.3407 -0.0483 -0.4593
  366MOL0     C49282   1.374   3.586  10.324 -0.4202 -0.3183 -1.0744
  366MOL0     O49283   1.451   3.656  10.243  0.0651 -0.1017 -0.0007
  366MOL0     C49284   1.582   3.622  10.267 -0.6421 -0.6754 -0.6701
  366MOL0     C49285   1.681   3.729  10.233 -0.2096 -0.3898 -0.2013
  366MOL0     C49286   1.623   3.822  10.125 -0.4254  0.1439 -1.1183
  366MOL0     C49287   1.740   3.891  10.050 -0.3218  0.4954  0.3180
  366MOL0     C49288   1.831   3.979  10.136  0.6906  0.3208  0.4447
  366MOL0     C49289   1.894   4.094  10.051 -0.3002 -0.1563 -0.5349
  366MOL0     C49290   2.019   4.164  10.117  0.3434  0.5531 -0.0874
  366MOL0     C49291   1.971   4.225  10.257 -0.1494 -0.5158  0.5274
  366MOL0     N49292   2.086   4.257  10.347  0.4673 -0.6829 -0.9966
  366MOL0     C49293   2.198   4.186  10.357 -0.1526  0.0020  0.5728
  366MOL0     C49294   2.302   4.274  10.383 -0.1081  0.2410 -0.2841
  366MOL0     C49295   2.450   4.255  10.404 -0.8241  0.6628 -0.1767
  366MOL0     C49296   2.472   4.148  10.524  0.7524  0.2738  0.2254
  366MOL0     C49297   2.602   4.079  10.527 -0.7136  0.7185  1.0378
  366MOL0     C49298   2.597   3.979  10.648  0.3624  0.5987  0.3032
  366MOL0     O49299   2.694   3.879  10.636  0.3428  0.4176  0.4912
  366MOL0     C49300   2.662   3.762  10.560 -0.0530 -0.1303  0.2231
  366MOL0     C49301   2.764   3.662  10.555  0.1192 -0.1482 -0.4284
  366MOL0     C49302   2.744   3.536  10.499 -0.0747 -1.0759 -0.1173
  366MOL0     C49303   2.612   3.514  10.445  0.4008 -0.5193 -0.3838
  366MOL0     C49304   2.577   3.387  10.383  0.1749 -0.3582  0.5923
  366MOL0     O49305   2.472   3.389  10.295  0.3027 -0.1431  0.6883
  366MOL0     C49306   2.480   3.302  10.180  0.1997 -0.1617 -0.2532
  366MOL0     C49307   2.605   3.277  10.126  0.2749 -0.0234  0.5075
  366MOL0     C49308   2.623   3.209  10.006 -0.2681  0.2113  0.4689
  366MOL0     C49309   2.509   3.146   9.954 -0.6733 -1.2562 -0.3912
  366MOL0     O49310   2.502   3.064   9.843 -0.2777 -0.3507  0.4050
  366MOL0     C49311   2.625   3.037   9.773  0.3190 -0.4155 -0.2269
  366MOL0     C49312   2.597   2.994   9.629  0.0465 -0.7965 -0.3493
  366MOL0     C49313   2.667   2.857   9.596  0.4371  0.3628  0.1546
  366MOL0     C49314   2.595   2.774   9.488 -0.0138 -0.4691 -0.7135
  366MOL0     C49315   2.576   2.630   9.533  0.0220  0.7434 -0.1293
  366MOL0     C49316   2.709   2.561   9.542 -0.0768  0.5025  0.1882
  366MOL0     C49317   2.708   2.419   9.605 -0.5882  0.2628  0.5758
  366MOL0     C49318   2.746   2.309   9.503  0.3824  0.6747  0.2417
  366MOL0    Cl49319   2.631   2.309   9.370  0.0609 -0.2490  0.4988
  366MOL0     C49320   2.377   3.168  10.008  0.6735 -0.0459  0.0335
  366MOL0     C49321   2.363   3.254  10.117  0.2037 -0.1906 -0.3246
  366MOL0     O49322   2.632   3.280  10.412  0.4955 -0.2393 -0.6012
  366MOL0     C49323   2.519   3.615  10.448  0.6475  0.1758 -0.2941
  366MOL0     C49324   2.536   3.743  10.503 -0.0126 -0.1194  0.4216
  366MOL0     N49325   2.249   4.403  10.390  0.2751 -0.0808 -0.5132
  366MOL0     N49326   2.120   4.393  10.358 -1.1554  0.5415  0.3188
  366MOL0     C49327   1.347   3.630  10.460 -0.0551  0.4640  0.9290
  366MOL0     C49328   1.270   3.551  10.547 -0.3764 -0.1605 -1.2222
  366MOL0     C49329   1.068   3.107  10.599  0.3591 -0.7716 -0.0573
  366MOL0     C49330   0.968   3.146  10.691 -0.9348 -0.2348  0.5191
  366MOL0     C49331   0.881   3.059  10.758  0.1176  0.2295 -0.6087
  366MOL0     C49332   0.872   2.927  10.715 -1.0884 -0.1530  1.1291
  366MOL0     O49333   0.779   2.841  10.771  1.2164  0.4746 -0.3244
  366MOL0     C49334   0.813   2.718  10.833  0.4768  0.6370  0.2327
  366MOL0     C49335   0.701   2.665  10.918  0.0828 -0.4110  0.0439
  366MOL0     C49336   0.661   2.763  11.024 -0.9735 -1.0825  0.1767
  366MOL0     C49337   0.568   2.707  11.129 -0.0163  0.0090  0.2699
  366MOL0     C49338   0.587   2.808  11.238  0.0589  0.5064 -0.3246
  366MOL0     C49339   0.611   2.899  11.309 -0.0755 -0.0783 -0.5998
  366MOL0     C49340   0.969   2.887  10.622 -0.0252  0.6182  0.2123
  366MOL0     C49341   1.059   2.971  10.557  0.3610 -0.5726  0.0536
  366MOL0     C49342   1.149   2.920  10.443  0.8956  0.0379 -0.3768
  366MOL0     H49343   1.197   3.303  10.333  0.3378  1.4048 -1.1404
  366MOL0     H49344   1.303   3.440  10.178 -1.0707  2.2461 -1.1085
  366MOL0     H49345   1.610   3.588  10.367  1.8514 -0.9586 -1.3935
  366MOL0     H49346   1.597   3.541  10.195  4.2390  0.4315 -1.2090
  366MOL0     H49347   1.778   3.690  10.200  0.0667  0.3183 -0.2388
  366MOL0     H49348   1.691   3.786  10.325 -2.9390  1.4309 -0.9193
  366MOL0     H49349   1.558   3.890  10.181  1.0718 -1.0418  2.3498
  366MOL0     H49350   1.551   3.766  10.064 -2.1437  1.1270 -0.0821
  366MOL0     H49351   1.784   3.822   9.977 -3.3656 -0.6927 -0.5545
  366MOL0     H49352   1.686   3.962   9.986 -0.2154  1.5423  1.3506
  366MOL0     H49353   1.765   4.029  10.207  2.1687  3.9417 -0.4696
  366MOL0     H49354   1.906   3.913  10.181  1.2715 -0.8358 -2.0237
  366MOL0     H49355   1.931   4.051   9.957 -1.2790 -0.8146 -0.6407
  366MOL0     H49356   1.818   4.170  10.032 -2.6257 -1.7795  1.5804
  366MOL0     H49357   2.060   4.231  10.041  1.7008 -0.7214 -0.5241
  366MOL0     H49358   2.102   4.095  10.135  2.5375  3.5863  2.6991
  366MOL0     H49359   1.921   4.322  10.246  0.2634 -0.2306  1.1362
  366MOL0     H49360   1.897   4.155  10.296 -1.1298 -1.2968 -2.4349
  366MOL0     H49361   2.217   4.080  10.348 -0.1530 -0.1445  2.0538
  366MOL0     H49362   2.494   4.208  10.316  3.3354  1.7478  1.0997
  366MOL0     H49363   2.504   4.349  10.420  2.0039 -0.6637 -1.2577
  366MOL0     H49364   2.458   4.203  10.618  2.7249  2.3462 -0.6100
  366MOL0     H49365   2.392   4.073  10.530  0.8986  0.0352 -0.7897
  366MOL0     H49366   2.689   4.142  10.550 -0.7996  1.0736  0.3965
  366MOL0     H49367   2.628   4.030  10.433 -3.2729 -1.2517  1.2313
  366MOL0     H49368   2.494   3.945  10.662  1.3527 -1.8954  2.4415
  366MOL0     H49369   2.621   4.039  10.736  1.5178 -1.6277  1.6176
  366MOL0     H49370   2.860   3.669  10.605  0.5186  1.1370 -1.3231
  366MOL0     H49371   2.819   3.458  10.497 -1.0542 -2.1040  1.1386
  366MOL0     H49372   2.694   3.305  10.181 -0.1984 -2.0025  2.3974
  366MOL0     H49373   2.721   3.195   9.961 -0.3396 -1.3516  0.7591
  366MOL0     H49374   2.691   3.124   9.772 -0.4078  0.1494 -1.4543
  366MOL0     H49375   2.682   2.960   9.826 -0.9271  0.5914  2.7288
  366MOL0     H49376   2.490   2.989   9.606  0.0587  2.6748 -1.6538
  366MOL0     H49377   2.636   3.066   9.557 -2.4610  0.4873 -0.5096
  366MOL0     H49378   2.765   2.886   9.557  1.6631  1.1257  3.4698
  366MOL0     H49379   2.680   2.803   9.690 -3.4442  1.1524  1.3241
  366MOL0     H49380   2.662   2.765   9.402 -0.4158  0.7390 -1.1796
  366MOL0     H49381   2.500   2.819   9.455 -0.2645 -0.4813 -0.0290
  366MOL0     H49382   2.505   2.581   9.466  0.2650 -0.1519  0.2506
  366MOL0     H49383   2.526   2.628   9.630 -1.3730 -0.7799 -0.8298
  366MOL0     H49384   2.750   2.553   9.441  2.8379  1.4358  1.2138
  366MOL0     H49385   2.783   2.605   9.609  0.7321 -2.2491  1.2273
  366MOL0     H49386   2.605   2.391   9.629 -1.5596  1.5230 -1.7993
  366MOL0     H49387   2.768   2.417   9.697 -2.9871 -0.2646  2.2335
  366MOL0     H49388   2.850   2.328   9.475  0.2430  1.8651  0.4737
  366MOL0     H49389   2.740   2.209   9.547 -0.2847 -0.1001 -1.5040
  366MOL0     H49390   2.298   3.127   9.945  0.0580  1.0782  0.0558
  366MOL0     H49391   2.266   3.274  10.160  1.3430 -0.3442  2.5005
  366MOL0     H49392   2.419   3.613  10.406  0.3235  0.6362  0.4493
  366MOL0     H49393   2.449   3.805  10.517 -1.8616 -2.5637  0.5400
  366MOL0     H49394   1.405   3.716  10.491  2.0722 -0.3629 -0.4803
  366MOL0     H49395   1.274   3.593  10.647 -1.3880  3.0044 -2.3697
  366MOL0     H49396   0.975   3.249  10.726 -0.3538  0.0478 -0.3795
  366MOL0     H49397   0.815   3.096  10.835 -2.9078 -1.5777 -2.1803
  366MOL0     H49398   0.904   2.727  10.894  0.7107  4.9850 -0.4084
  366MOL0     H49399   0.821   2.642  10.755 -0.0214 -2.3433  2.8940
  366MOL0     H49400   0.736   2.581  10.978  3.3497 -0.6897 -2.0326
  366MOL0     H49401   0.613   2.635  10.860 -3.0180 -1.4823  4.7426
  366MOL0     H49402   0.620   2.855  10.980 -1.3148  0.2583  3.0859
  366MOL0     H49403   0.758   2.796  11.062 -0.3755 -1.7189 -0.7511
  366MOL0     H49404   0.463   2.710  11.097 -0.8678 -0.2536  2.8075
  366MOL0     H49405   0.602   2.610  11.166 -2.8150 -0.5862  1.5931
  366MOL0     H49406   0.640   2.983  11.370  0.2642  0.5522 -1.5853
  366MOL0     H49407   0.968   2.787  10.580 -1.6747  0.2574  1.0006
  366MOL0     H49408   1.106   2.836  10.388  0.4710 -1.0027  1.4928
  366MOL0     H49409   1.165   2.983  10.355  0.0401 -2.2141 -2.2530
  366MOL0     H49410   1.249   2.886  10.471  0.4367 -0.2899  0.9102
  367MOL0     O49411  11.468   0.541   5.115 -0.2359  0.0679 -0.9367
  367MOL0     C49412  11.555   0.611   5.178  0.7624 -0.0101  0.4342
  367MOL0     O49413  11.697   0.595   5.178  0.3486  0.2584 -0.1081
  367MOL0     C49414  11.750   0.498   5.092  0.1616  0.1105  0.5757
  367MOL0     C49415  11.833   0.543   4.993 -0.8756 -0.3308 -1.1745
  367MOL0     C49416  11.904   0.461   4.906  0.2270  0.6310 -0.4246
  367MOL0     C49417  11.871   0.328   4.912 -0.1941 -0.2393  0.2101
  367MOL0     O49418  11.933   0.240   4.821 -0.3082 -0.4554 -0.6253
  367MOL0     C49419  11.904   0.253   4.681 -0.4914  0.3361  0.6150
  367MOL0     C49420  12.033   0.215   4.611  0.8332  0.0393  0.1370
  367MOL0     C49421  12.017   0.207   4.465 -0.4975  0.1161 -0.1551
  367MOL0     C49422  12.134   0.137   4.382  0.2422  0.1405 -0.1203
  367MOL0     C49423  12.262   0.227   4.373  0.1071 -0.0454  0.7646
  367MOL0     C49424  12.380   0.140   4.337  0.1396  0.6684 -0.5069
  367MOL0     C49425  12.507   0.214   4.279  0.0604 -0.0790  0.1093
  367MOL0     C49426  12.621   0.215   4.372 -0.2772 -0.7882 -0.4784
  367MOL0     N49427  12.732   0.117   4.356 -0.1673 -0.4456  0.0259
  367MOL0     C49428  12.767   0.017   4.449 -0.1664 -0.5686  0.2022
  367MOL0     C49429  12.845  -0.070   4.380 -0.3173 -0.3114  0.3255
  367MOL0     C49430  12.914  -0.200   4.420 -0.0235  0.3795 -0.4499
  367MOL0     C49431  13.068  -0.182   4.437 -0.1822 -0.6810 -0.2324
  367MOL0     C49432  13.117  -0.325   4.463 -0.1040  0.3767 -0.2589
  367MOL0     C49433  13.261  -0.331   4.508  0.1446 -0.7723  0.6287
  367MOL0     O49434  13.358  -0.298   4.407  0.1333 -0.1931 -0.2672
  367MOL0     C49435  13.489  -0.313   4.447 -0.1999 -0.3702  0.5334
  367MOL0     C49436  13.531  -0.305   4.582 -0.2474 -0.3756 -0.2561
  367MOL0     C49437  13.672  -0.300   4.605  0.0731 -0.6821 -1.1023
  367MOL0     C49438  13.766  -0.314   4.511 -0.2844  0.2485 -0.0181
  367MOL0     C49439  13.911  -0.318   4.556 -0.2861 -0.4207 -0.2063
  367MOL0     O49440  14.000  -0.367   4.460  0.3061 -0.1380 -0.6362
  367MOL0     C49441  14.133  -0.364   4.495  0.1232  0.3352  0.2400
  367MOL0     C49442  14.204  -0.256   4.434 -0.3104  0.6817 -0.0235
  367MOL0     C49443  14.338  -0.249   4.473  0.2367 -0.3259 -0.5626
  367MOL0     C49444  14.401  -0.330   4.568 -0.6177 -0.3712 -0.0827
  367MOL0     O49445  14.539  -0.310   4.596 -0.0304  0.4099 -0.3221
  367MOL0     C49446  14.630  -0.416   4.564  0.0829  0.4969 -0.3830
  367MOL0     C49447  14.748  -0.421   4.663  0.4859 -0.3833 -0.3715
  367MOL0     C49448  14.820  -0.290   4.650 -0.5789  0.6987  0.4707
  367MOL0     C49449  14.968  -0.311   4.705  0.4142 -0.0881  0.1853
  367MOL0     C49450  15.035  -0.176   4.716 -0.5029  0.9391  0.2441
  367MOL0     C49451  14.991  -0.061   4.628  0.8000 -1.1862  0.2764
  367MOL0     C49452  15.061   0.072   4.675 -1.3849  0.8172 -0.5121
  367MOL0     C49453  15.222   0.056   4.696  0.5648  0.1151 -0.6830
  367MOL0    Cl49454  15.282   0.006   4.542  0.0521 -0.7547 -0.0560
  367MOL0     C49455  14.325  -0.428   4.635  0.1443  0.3140 -0.2865
  367MOL0     C49456  14.191  -0.439   4.599  0.3992 -0.1493 -0.2355
  367MOL0     O49457  13.932  -0.304   4.676 -0.1598  0.3909 -0.7084
  367MOL0     C49458  13.725  -0.332   4.383  0.2447 -0.9627  0.0726
  367MOL0     C49459  13.585  -0.324   4.349  0.7687  0.0517 -0.5956
  367MOL0     N49460  12.847  -0.025   4.247  0.8056  0.3030 -0.6965
  367MOL0     N49461  12.781   0.080   4.236  0.8648  0.7585 -0.1480
  367MOL0     C49462  11.791   0.272   5.019  0.2259  0.0818 -0.0716
  367MOL0     C49463  11.741   0.358   5.108  0.2904  0.6612  0.0181
  367MOL0     C49464  11.507   0.708   5.275  0.8052  0.0504  0.3446
  367MOL0     C49465  11.450   0.828   5.224 -0.2638  0.3808  0.0959
  367MOL0     C49466  11.416   0.924   5.321  0.5170  0.0164  0.2945
  367MOL0     C49467  11.431   0.907   5.458  0.0161  0.0388  0.0509
  367MOL0     O49468  11.401   1.014   5.538 -0.0197  0.2787 -0.5395
  367MOL0     C49469  11.262   1.016   5.573  0.2266  0.2477  0.6975
  367MOL0     C49470  11.226   1.069   5.717  0.3997  0.4115  0.0710
  367MOL0     C49471  11.247   1.215   5.731 -0.5838  0.5289 -0.3072
  367MOL0     C49472  11.259   1.271   5.871 -0.1820  0.7445  0.8922
  367MOL0     C49473  11.141   1.248   5.954  0.1510 -0.6327 -0.4229
  367MOL0     C49474  11.052   1.229   6.034 -0.3987 -0.8857  0.0112
  367MOL0     C49475  11.490   0.789   5.504  0.9621  0.0612  0.3145
  367MOL0     C49476  11.525   0.692   5.411 -0.7079  0.9721 -0.2408
  367MOL0     C49477  11.601   0.577   5.469 -0.4621  0.3160 -0.4178
  367MOL0     H49478  11.839   0.651   4.985 -0.6116 -0.2842 -0.3562
  367MOL0     H49479  11.975   0.487   4.828 -0.3281 -3.2059 -2.4819
  367MOL0     H49480  11.833   0.175   4.653 -1.1164  0.3719  2.0400
  367MOL0     H49481  11.878   0.357   4.661 -1.2220  0.7022  3.1270
  367MOL0     H49482  12.061   0.118   4.654  1.2792 -0.6537 -1.6093
  367MOL0     H49483  12.119   0.273   4.647 -0.3712 -0.9194  5.2484
  367MOL0     H49484  12.000   0.309   4.431  0.6226  1.2410  2.4063
  367MOL0     H49485  11.927   0.154   4.433  0.1156  0.2987 -2.3923
  367MOL0     H49486  12.169   0.044   4.428  1.3449  1.8596  2.7477
  367MOL0     H49487  12.106   0.109   4.280  1.7937 -1.3604 -0.1777
  367MOL0     H49488  12.238   0.293   4.289 -0.8811  0.3151  1.3224
  367MOL0     H49489  12.271   0.283   4.466 -0.6147  0.6853  0.4087
  367MOL0     H49490  12.415   0.089   4.428 -0.6742  1.0204  0.0111
  367MOL0     H49491  12.354   0.077   4.251  1.9474  1.4296 -1.6671
  367MOL0     H49492  12.481   0.317   4.250  6.0893  2.0491  0.9830
  367MOL0     H49493  12.539   0.169   4.185 -1.5257  0.5974 -0.8040
  367MOL0     H49494  12.679   0.307   4.386  0.8642 -1.8606  3.0986
  367MOL0     H49495  12.580   0.205   4.473  0.2273  0.2582 -0.1601
  367MOL0     H49496  12.725   0.004   4.549 -3.0613 -2.8035 -1.1540
  367MOL0     H49497  12.878  -0.241   4.515 -1.2375 -2.0767 -1.8906
  367MOL0     H49498  12.892  -0.272   4.341 -1.4577  0.9409 -0.5846
  367MOL0     H49499  13.116  -0.138   4.349  0.6949  0.9556  1.0110
  367MOL0     H49500  13.096  -0.124   4.525 -1.2710  0.6046 -0.7000
  367MOL0     H49501  13.095  -0.392   4.379 -0.0375  0.9603 -0.7509
  367MOL0     H49502  13.055  -0.362   4.545  1.7348 -1.1362  0.5420
  367MOL0     H49503  13.281  -0.437   4.528  1.2712 -0.9427 -1.1664
  367MOL0     H49504  13.253  -0.283   4.606 -1.9517 -1.9196  1.0736
  367MOL0     H49505  13.462  -0.282   4.663 -1.5547  1.1356 -1.7303
  367MOL0     H49506  13.711  -0.286   4.705  2.2716  2.4833 -2.2521
  367MOL0     H49507  14.144  -0.198   4.364  0.2272  0.1453 -0.9554
  367MOL0     H49508  14.397  -0.170   4.428 -0.7576 -0.4326 -2.1350
  367MOL0     H49509  14.578  -0.512   4.566 -0.6533  0.9028  0.4097
  367MOL0     H49510  14.671  -0.395   4.465  2.2660 -1.3089  0.0525
  367MOL0     H49511  14.729  -0.422   4.770  0.8248  0.0564 -0.3055
  367MOL0     H49512  14.813  -0.505   4.636  0.6734 -1.2275  2.4774
  367MOL0     H49513  14.839  -0.260   4.547  2.9257  0.0939  0.8146
  367MOL0     H49514  14.763  -0.209   4.697 -1.0028  1.1935 -0.8617
  367MOL0     H49515  15.022  -0.375   4.634 -1.9562 -0.8427 -1.0352
  367MOL0     H49516  14.970  -0.358   4.804  0.5050  0.7887  0.6144
  367MOL0     H49517  15.140  -0.204   4.705 -0.9343 -1.8181  2.1916
  367MOL0     H49518  15.033  -0.139   4.819 -1.2827  1.4434  0.0592
  367MOL0     H49519  15.013  -0.082   4.523  0.8636  2.9401 -0.7308
  367MOL0     H49520  14.883  -0.051   4.642  0.9314 -1.0805  1.3011
  367MOL0     H49521  15.023   0.100   4.774 -0.9597 -1.5287  0.3937
  367MOL0     H49522  15.045   0.144   4.595 -2.1923 -1.7414 -2.8078
  367MOL0     H49523  15.265   0.154   4.719 -0.0451  0.9437 -2.8603
  367MOL0     H49524  15.246  -0.024   4.766 -0.7724 -0.7415 -1.1734
  367MOL0     H49525  14.372  -0.496   4.705 -3.8594  0.7990  3.2058
  367MOL0     H49526  14.130  -0.524   4.627 -1.3371  0.3772 -2.1735
  367MOL0     H49527  13.796  -0.323   4.302  0.3376  2.5250  0.3748
  367MOL0     H49528  13.552  -0.331   4.246  0.5963  1.9855 -0.7155
  367MOL0     H49529  11.771   0.166   5.029 -0.6331  0.2066 -0.4124
  367MOL0     H49530  11.687   0.310   5.188  1.0500  0.8563  0.6589
  367MOL0     H49531  11.439   0.838   5.116  0.5537 -1.3685 -0.1971
  367MOL0     H49532  11.370   1.014   5.283  3.1322  1.8027  1.0948
  367MOL0     H49533  11.229   0.912   5.564 -0.9058  0.7441 -1.3854
  367MOL0     H49534  11.223   1.066   5.485 -0.8755 -2.2636 -0.3272
  367MOL0     H49535  11.284   1.010   5.788  1.3911 -1.1317 -1.9246
  367MOL0     H49536  11.119   1.064   5.740  0.4682 -0.3740  0.2406
  367MOL0     H49537  11.166   1.259   5.672 -1.9499 -0.7697  0.5193
  367MOL0     H49538  11.337   1.240   5.675  0.4176 -3.7625 -0.9686
  367MOL0     H49539  11.338   1.212   5.919 -1.1931 -2.4588 -1.0522
  367MOL0     H49540  11.274   1.378   5.858 -3.0982  0.9118 -2.4043
  367MOL0     H49541  10.973   1.206   6.102 -0.4777 -0.3704  0.0986
  367MOL0     H49542  11.490   0.767   5.610  0.5332 -1.7044 -0.0136
  367MOL0     H49543  11.582   0.480   5.423 -0.0240  0.3557 -0.6937
  367MOL0     H49544  11.709   0.593   5.457 -0.5841  0.9835 -0.7163
  367MOL0     H49545  11.572   0.566   5.573  3.8865 -2.5289  0.7697
  368MOL0     O49546   3.646   3.029   4.865  0.1162 -0.2058 -0.0908
  368MOL0     C49547   3.656   3.082   4.754  0.7364  1.2687  0.4904
  368MOL0     O49548   3.654   3.014   4.633  0.5242 -1.1954 -0.1600
  368MOL0     C49549   3.633   2.882   4.637 -0.3673 -0.8219  0.8791
  368MOL0     C49550   3.728   2.784   4.673  0.5865  0.3373 -0.3819
  368MOL0     C49551   3.694   2.638   4.682 -0.0338 -1.1852 -0.6271
  368MOL0     C49552   3.574   2.600   4.632  0.1371 -0.4528  0.1113
  368MOL0     O49553   3.539   2.469   4.626  0.0554  0.3581 -0.1969
  368MOL0     C49554   3.639   2.370   4.656  0.9526  0.5283  0.5333
  368MOL0     C49555   3.581   2.226   4.623  0.5975  0.5198  0.0235
  368MOL0     C49556   3.660   2.125   4.709  0.2428 -0.9165  0.6245
  368MOL0     C49557   3.665   1.991   4.630 -0.2695  0.0345 -0.0328
  368MOL0     C49558   3.528   1.917   4.608 -0.7450  0.2519  0.0516
  368MOL0     C49559   3.422   1.910   4.713 -0.2844 -0.3359 -0.2722
  368MOL0     C49560   3.471   1.875   4.857  0.2660  0.5713  0.6727
  368MOL0     C49561   3.544   1.733   4.871  0.0710  0.4321  0.6363
  368MOL0     N49562   3.561   1.734   5.016  0.6773 -0.6233  0.2054
  368MOL0     C49563   3.490   1.671   5.110  0.8272 -0.0916 -0.4593
  368MOL0     C49564   3.536   1.722   5.228 -0.6293 -0.9263 -0.4588
  368MOL0     C49565   3.497   1.673   5.361 -1.2241 -1.0464 -0.3892
  368MOL0     C49566   3.588   1.555   5.398  0.2514 -0.2150 -0.6306
  368MOL0     C49567   3.543   1.420   5.342 -0.4569  0.2412 -0.7737
  368MOL0     C49568   3.640   1.307   5.385 -0.4400 -0.6287  0.0940
  368MOL0     O49569   3.555   1.191   5.370  0.0059 -0.4597  0.0682
  368MOL0     C49570   3.610   1.066   5.354 -0.2075 -0.2155 -0.2244
  368MOL0     C49571   3.739   1.038   5.408  0.6984 -0.7777 -0.3639
  368MOL0     C49572   3.795   0.912   5.407 -0.8123  0.8504  0.0567
  368MOL0     C49573   3.730   0.800   5.351  0.2324  0.3140  0.0649
  368MOL0     C49574   3.779   0.658   5.360  0.8254  0.0203 -0.8311
  368MOL0     O49575   3.685   0.566   5.361 -0.9499 -0.7138  0.3771
  368MOL0     C49576   3.715   0.456   5.283 -0.3241 -0.1237  0.2843
  368MOL0     C49577   3.746   0.333   5.351 -0.8220 -0.8805  0.1057
  368MOL0     C49578   3.771   0.213   5.292  0.3589  0.3665 -0.7342
  368MOL0     C49579   3.769   0.200   5.155 -0.1267 -0.0445 -0.6348
  368MOL0     O49580   3.784   0.075   5.095  0.4745  0.0703  0.5262
  368MOL0     C49581   3.918   0.042   5.062 -0.5000 -0.4090 -0.3780
  368MOL0     C49582   3.955  -0.107   5.082  0.0752  0.3035  0.0240
  368MOL0     C49583   3.888  -0.190   4.958 -0.4813 -0.3151 -0.2917
  368MOL0     C49584   3.879  -0.330   5.009 -0.2387  0.2806  0.2079
  368MOL0     C49585   3.794  -0.400   4.907  0.2069  0.0269  0.6266
  368MOL0     C49586   3.743  -0.527   4.963  0.3071  0.2265 -0.4082
  368MOL0     C49587   3.849  -0.630   5.022  0.1277 -0.2282  0.2679
  368MOL0     C49588   3.795  -0.769   5.062  0.0500  0.0689  0.2370
  368MOL0    Cl49589   3.931  -0.883   5.085  0.3351 -0.1110  0.0066
  368MOL0     C49590   3.747   0.317   5.083 -0.4670  0.2029  0.0523
  368MOL0     C49591   3.725   0.443   5.145  0.5975 -0.4489  0.5247
  368MOL0     O49592   3.903   0.642   5.369 -0.4377 -0.6497  0.9230
  368MOL0     C49593   3.605   0.826   5.289 -0.1954  0.2022 -1.1739
  368MOL0     C49594   3.547   0.954   5.287  0.4050 -0.5157 -1.3142
  368MOL0     N49595   3.641   1.819   5.199 -0.1598 -0.3363  0.3307
  368MOL0     N49596   3.652   1.824   5.074  0.2335  0.1256 -0.5381
  368MOL0     C49597   3.489   2.699   4.570  0.0956 -0.9770 -0.2761
  368MOL0     C49598   3.516   2.834   4.586  0.1524  0.0052  0.1476
  368MOL0     C49599   3.684   3.221   4.739 -0.4721  0.1412  0.3062
  368MOL0     C49600   3.770   3.267   4.635  0.7005 -0.0067  0.9484
  368MOL0     C49601   3.785   3.406   4.618  1.2846 -0.2552 -0.3382
  368MOL0     C49602   3.736   3.496   4.720 -0.5852 -0.3453  0.1132
  368MOL0     O49603   3.759   3.633   4.719  0.3616 -0.2163 -0.4199
  368MOL0     C49604   3.817   3.695   4.604 -0.2670 -0.9524 -0.3197
  368MOL0     C49605   3.816   3.850   4.611 -0.3077  0.6232 -0.7409
  368MOL0     C49606   3.880   3.901   4.479 -0.3627  0.1026 -0.1129
  368MOL0     C49607   3.863   4.051   4.470 -0.8875  0.2754  0.6662
  368MOL0     C49608   3.733   4.098   4.493  0.4005 -0.1486  0.2842
  368MOL0     C49609   3.614   4.130   4.493 -1.1469 -0.5688  0.4873
  368MOL0     C49610   3.657   3.443   4.816  0.8570 -0.5147  0.5717
  368MOL0     C49611   3.635   3.312   4.831  0.0298  0.8364 -0.2706
  368MOL0     C49612   3.550   3.272   4.953 -1.0315 -0.7856 -0.3768
  368MOL0     H49613   3.829   2.806   4.706  1.4894 -2.7734 -0.7722
  368MOL0     H49614   3.764   2.566   4.723 -1.8237 -1.2314  2.6384
  368MOL0     H49615   3.727   2.373   4.591  1.6917  3.3130  1.5037
  368MOL0     H49616   3.677   2.381   4.758 -1.4384  1.5810  1.3730
  368MOL0     H49617   3.582   2.205   4.516 -1.4417  0.0302  0.0601
  368MOL0     H49618   3.474   2.214   4.644  0.9530  0.7217  2.2613
  368MOL0     H49619   3.616   2.114   4.809  0.6789 -1.2611  0.7829
  368MOL0     H49620   3.762   2.160   4.725  0.6220 -2.2300  1.2076
  368MOL0     H49621   3.726   2.005   4.541  0.2902 -0.4213  0.2765
  368MOL0     H49622   3.724   1.926   4.695  2.6091  0.5958 -1.8854
  368MOL0     H49623   3.481   1.953   4.515  3.8499 -0.1985 -2.7448
  368MOL0     H49624   3.569   1.818   4.583  3.5359  1.3891  1.7193
  368MOL0     H49625   3.372   2.007   4.716  0.1615  0.0033 -2.4713
  368MOL0     H49626   3.346   1.837   4.684 -0.8076 -0.3154  0.9873
  368MOL0     H49627   3.375   1.871   4.911  0.2167 -0.5936  0.5091
  368MOL0     H49628   3.531   1.958   4.895  0.8275  0.7226 -0.5115
  368MOL0     H49629   3.482   1.647   4.845  0.6984  0.4933 -1.2137
  368MOL0     H49630   3.635   1.721   4.810  1.7004  0.7194  2.8595
  368MOL0     H49631   3.420   1.591   5.092  0.6493 -0.2623  0.8801
  368MOL0     H49632   3.512   1.759   5.426 -2.7185 -0.3800 -0.8906
  368MOL0     H49633   3.394   1.637   5.353 -1.3655 -0.9924  0.9047
  368MOL0     H49634   3.693   1.574   5.377  0.3019 -0.0875 -0.2653
  368MOL0     H49635   3.578   1.554   5.507 -0.1820  0.4056 -0.6561
  368MOL0     H49636   3.543   1.434   5.234 -2.1594  0.0898 -0.8140
  368MOL0     H49637   3.441   1.402   5.375  0.0281  0.5088  0.9734
  368MOL0     H49638   3.676   1.315   5.488  1.2869  2.0100 -0.5794
  368MOL0     H49639   3.731   1.317   5.324 -1.2745  1.7558 -0.9237
  368MOL0     H49640   3.795   1.113   5.462 -0.5930  1.0026 -1.3716
  368MOL0     H49641   3.900   0.897   5.432 -1.2477  1.0587  2.1848
  368MOL0     H49642   3.759   0.334   5.459  2.0925  1.7975 -0.1362
  368MOL0     H49643   3.779   0.132   5.364 -2.1830  0.3133 -0.4131
  368MOL0     H49644   3.951   0.068   4.961  0.7800  0.7617  0.2977
  368MOL0     H49645   3.985   0.110   5.116 -3.3965 -0.3925  3.6529
  368MOL0     H49646   4.064  -0.111   5.080  0.3922  0.4277  4.8810
  368MOL0     H49647   3.915  -0.145   5.177 -2.5744 -0.2195 -1.2278
  368MOL0     H49648   3.787  -0.153   4.938 -0.5347  1.4103  2.6033
  368MOL0     H49649   3.961  -0.195   4.877 -1.2048 -1.0834 -0.9177
  368MOL0     H49650   3.838  -0.333   5.111  0.5963  1.2049  0.5857
  368MOL0     H49651   3.982  -0.367   5.011 -0.0954  0.6452 -0.2894
  368MOL0     H49652   3.870  -0.429   4.834 -0.0253  0.3588  0.2512
  368MOL0     H49653   3.711  -0.338   4.873 -1.7110 -1.2326  2.7453
  368MOL0     H49654   3.674  -0.486   5.038  1.0857  2.2026 -0.7028
  368MOL0     H49655   3.683  -0.578   4.887  1.8416 -2.1556 -0.1161
  368MOL0     H49656   3.909  -0.581   5.100  0.1283  0.9775 -0.4644
  368MOL0     H49657   3.910  -0.664   4.939  0.2320  0.0134  0.2457
  368MOL0     H49658   3.739  -0.759   5.155 -1.0890  2.7716 -0.6642
  368MOL0     H49659   3.727  -0.806   4.985 -0.2277 -2.0857  1.4411
  368MOL0     H49660   3.740   0.313   4.975 -1.7323  0.8022  0.0952
  368MOL0     H49661   3.706   0.532   5.086 -4.6674 -1.0966  0.8003
  368MOL0     H49662   3.539   0.747   5.254 -0.8556 -1.7979  3.7844
  368MOL0     H49663   3.452   0.969   5.237 -0.4295  0.3549  0.4478
  368MOL0     H49664   3.394   2.680   4.519 -0.1828  2.5380 -1.3418
  368MOL0     H49665   3.440   2.908   4.563  0.8752  1.0772  1.1009
  368MOL0     H49666   3.819   3.190   4.576 -0.4143 -1.9405  2.4234
  368MOL0     H49667   3.841   3.438   4.531  0.7378  0.1710 -0.5346
  368MOL0     H49668   3.748   3.659   4.526 -1.8033  2.6361 -0.8060
  368MOL0     H49669   3.919   3.660   4.587  0.2497  0.6835 -0.7287
  368MOL0     H49670   3.864   3.900   4.696 -0.8872  1.5891 -0.9726
  368MOL0     H49671   3.709   3.874   4.621 -0.0466  1.0611  1.5857
  368MOL0     H49672   3.832   3.846   4.397 -1.7815 -0.5393  1.1036
  368MOL0     H49673   3.988   3.884   4.473  0.6422  4.5567  1.3966
  368MOL0     H49674   3.928   4.091   4.549  2.4064 -0.1465 -1.6185
  368MOL0     H49675   3.906   4.093   4.378 -1.1288 -0.0978  0.3792
  368MOL0     H49676   3.516   4.172   4.485 -2.5695 -3.5711  0.5690
  368MOL0     H49677   3.605   3.505   4.889 -2.9559 -1.0199 -1.4584
  368MOL0     H49678   3.531   3.350   5.027  0.4550 -1.4811  0.7666
  368MOL0     H49679   3.454   3.231   4.919 -1.9470 -1.3371  2.5731
  368MOL0     H49680   3.609   3.200   5.010 -0.0302 -0.7404 -1.3285
  369MOL0     O49681   6.127   9.084   3.621 -0.6703  0.0163  0.2296
  369MOL0     C49682   6.176   9.194   3.636  0.3715  1.2590 -0.4892
  369MOL0     O49683   6.219   9.278   3.532  0.1543  0.4267  1.0873
  369MOL0     C49684   6.181   9.251   3.401 -0.4188 -0.6664 -0.4112
  369MOL0     C49685   6.055   9.219   3.347 -0.8424 -0.0890 -1.6878
  369MOL0     C49686   6.035   9.186   3.211 -0.1423 -0.5059 -0.0247
  369MOL0     C49687   6.138   9.207   3.119  0.6260 -0.1705 -0.6007
  369MOL0     O49688   6.121   9.180   2.986  0.4026  0.0590  0.3482
  369MOL0     C49689   5.989   9.202   2.933  0.2637 -0.8388 -0.1398
  369MOL0     C49690   5.949   9.351   2.944  0.1013  0.1736 -0.5385
  369MOL0     C49691   5.802   9.355   2.910 -1.1739  0.1053  0.4746
  369MOL0     C49692   5.770   9.373   2.759 -0.4948  0.2653 -0.2972
  369MOL0     C49693   5.623   9.355   2.725  0.3632 -0.0869  0.2507
  369MOL0     C49694   5.532   9.448   2.793  0.3154  0.0226 -0.9471
  369MOL0     C49695   5.380   9.427   2.798 -0.2586 -0.0660 -0.2905
  369MOL0     C49696   5.335   9.306   2.889 -0.5110  0.7925  0.3183
  369MOL0     N49697   5.361   9.339   3.031  0.1505  0.1210  0.1170
  369MOL0     C49698   5.416   9.251   3.119  0.3444 -0.1073 -0.2375
  369MOL0     C49699   5.428   9.308   3.236  0.8189  0.1686  0.5286
  369MOL0     C49700   5.493   9.248   3.359 -0.1088 -0.8798 -0.0429
  369MOL0     C49701   5.463   9.100   3.370 -0.1152 -0.3607 -0.2779
  369MOL0     C49702   5.312   9.087   3.387  0.0539 -0.0090  1.2167
  369MOL0     C49703   5.254   8.943   3.377 -0.5103  0.4622  0.2431
  369MOL0     O49704   5.272   8.886   3.249  0.2233  0.2517  1.3380
  369MOL0     C49705   5.225   8.943   3.136  0.1573 -0.6744  0.1544
  369MOL0     C49706   5.097   8.999   3.136 -0.2396 -0.4584  0.5328
  369MOL0     C49707   5.045   9.055   3.026 -0.6390  0.4852  0.3140
  369MOL0     C49708   5.116   9.045   2.898 -0.0671  0.1739 -0.0490
  369MOL0     C49709   5.083   9.115   2.775  0.4282 -0.0952  0.2971
  369MOL0     O49710   4.964   9.183   2.782  0.9893  0.3519  0.5534
  369MOL0     C49711   4.934   9.244   2.668  0.8927  0.5971 -0.5608
  369MOL0     C49712   4.875   9.161   2.566 -0.6032  0.0631 -0.5197
  369MOL0     C49713   4.850   9.213   2.444 -0.5973  1.0206  0.6335
  369MOL0     C49714   4.900   9.339   2.402 -0.2565  0.5141 -0.2733
  369MOL0     O49715   4.896   9.393   2.278  0.5107  0.4528 -1.4140
  369MOL0     C49716   4.937   9.304   2.171  0.2938 -1.3557 -0.4590
  369MOL0     C49717   4.967   9.404   2.060  0.3002  0.3381 -0.3549
  369MOL0     C49718   5.020   9.344   1.933  0.2452 -0.7392  0.4301
  369MOL0     C49719   5.011   9.459   1.827  0.0030 -0.0046  0.9417
  369MOL0     C49720   5.109   9.578   1.870  0.6033 -0.5456 -0.2638
  369MOL0     C49721   5.250   9.529   1.883 -0.5814  0.1758  0.4899
  369MOL0     C49722   5.371   9.616   1.902 -0.1405  0.3510 -0.5579
  369MOL0     C49723   5.495   9.538   1.918  0.1406 -0.1821 -0.7679
  369MOL0    Cl49724   5.619   9.660   1.950  0.1506 -0.1676 -0.2934
  369MOL0     C49725   4.951   9.419   2.507 -0.0032  0.5697 -0.3037
  369MOL0     C49726   4.968   9.371   2.641 -0.5377 -0.4664 -0.0692
  369MOL0     O49727   5.163   9.119   2.681  0.0178  0.2636  0.5179
  369MOL0     C49728   5.236   8.978   2.900 -0.3480 -0.4127 -0.3969
  369MOL0     C49729   5.291   8.930   3.020 -0.3324 -0.1639 -0.0034
  369MOL0     N49730   5.382   9.437   3.223  0.5168 -0.1407  0.5314
  369MOL0     N49731   5.341   9.461   3.101 -0.3911  0.4751  0.5742
  369MOL0     C49732   6.258   9.236   3.176 -0.1496 -0.9941  0.4655
  369MOL0     C49733   6.277   9.265   3.309 -0.0468 -0.4547 -0.4904
  369MOL0     C49734   6.161   9.267   3.761  0.8786  0.3229 -0.2201
  369MOL0     C49735   6.263   9.364   3.778 -0.2268  0.9443  0.0891
  369MOL0     C49736   6.278   9.431   3.899  0.6949 -0.5917 -0.0847
  369MOL0     C49737   6.181   9.403   3.999  2.2389  0.5766 -0.2229
  369MOL0     O49738   6.200   9.463   4.126 -0.3491 -0.9738  0.1482
  369MOL0     C49739   6.097   9.446   4.222  1.0176  0.5528 -0.0848
  369MOL0     C49740   6.146   9.517   4.347 -0.0576  0.3870  0.3499
  369MOL0     C49741   6.082   9.494   4.480  0.4308 -0.6045  0.8485
  369MOL0     C49742   6.078   9.344   4.518 -0.7519 -0.2091  0.4568
  369MOL0     C49743   5.996   9.335   4.643  0.0248 -0.2608  1.0201
  369MOL0     C49744   5.925   9.347   4.745  0.5695 -0.4331  0.6548
  369MOL0     C49745   6.077   9.310   3.976  0.2676  0.0888  0.2719
  369MOL0     C49746   6.061   9.251   3.854  0.2551  0.1147 -0.1006
  369MOL0     C49747   5.939   9.163   3.835 -0.4468 -0.6500  0.5366
  369MOL0     H49748   5.967   9.211   3.409 -0.5885  3.4650 -0.6211
  369MOL0     H49749   5.936   9.151   3.185 -1.2905  1.6140  1.2842
  369MOL0     H49750   5.987   9.172   2.828  0.0095  0.1945 -0.4397
  369MOL0     H49751   5.911   9.141   2.980 -0.3114 -0.8899 -1.1217
  369MOL0     H49752   5.992   9.408   2.860  2.0753 -2.9744 -1.8680
  369MOL0     H49753   5.974   9.398   3.040  3.2134  2.1016 -2.0983
  369MOL0     H49754   5.758   9.442   2.959  0.1295  2.6051 -2.5235
  369MOL0     H49755   5.744   9.269   2.946 -2.9282  0.5803 -1.0834
  369MOL0     H49756   5.801   9.475   2.735  0.7802 -0.0245  0.0543
  369MOL0     H49757   5.822   9.306   2.690  0.6806  2.8274 -2.0802
  369MOL0     H49758   5.598   9.371   2.620 -1.6510 -1.2156  0.5116
  369MOL0     H49759   5.604   9.254   2.764  0.4776  0.5114  1.9272
  369MOL0     H49760   5.556   9.457   2.900  1.0585 -0.2843 -1.0774
  369MOL0     H49761   5.551   9.547   2.751 -1.0918 -0.4791 -2.9131
  369MOL0     H49762   5.326   9.421   2.703 -4.5245 -1.2960  1.9404
  369MOL0     H49763   5.337   9.517   2.843 -2.2051 -0.6290 -0.9524
  369MOL0     H49764   5.228   9.286   2.877 -0.6312  2.4720 -2.4828
  369MOL0     H49765   5.395   9.222   2.852 -0.7220  1.5776 -1.9708
  369MOL0     H49766   5.461   9.156   3.092  0.4304 -0.3020  0.5626
  369MOL0     H49767   5.599   9.268   3.341 -1.0563  3.3751 -2.0364
  369MOL0     H49768   5.466   9.310   3.444  0.7315  1.8048 -1.6065
  369MOL0     H49769   5.501   9.047   3.283 -1.6787 -1.7172 -0.1907
  369MOL0     H49770   5.506   9.054   3.459  1.1563  0.6661 -0.3299
  369MOL0     H49771   5.253   9.148   3.318  1.5864 -0.0768 -0.2175
  369MOL0     H49772   5.287   9.129   3.485  1.4036  0.9271  1.1822
  369MOL0     H49773   5.147   8.942   3.401  0.0461  0.0353  2.9440
  369MOL0     H49774   5.295   8.870   3.447  2.8799 -0.2369 -2.2472
  369MOL0     H49775   5.031   9.001   3.222 -0.3018  1.5680  0.4826
  369MOL0     H49776   4.950   9.104   3.043 -0.8567 -0.4659  2.0369
  369MOL0     H49777   4.853   9.060   2.600  4.5582 -0.2872  2.9410
  369MOL0     H49778   4.810   9.155   2.362 -0.4654  0.2196  1.1157
  369MOL0     H49779   5.024   9.245   2.203  0.6836 -0.1961  0.7273
  369MOL0     H49780   4.861   9.238   2.128 -0.6826  0.3906 -1.5061
  369MOL0     H49781   4.881   9.469   2.043 -2.8540 -4.1079 -4.2651
  369MOL0     H49782   5.049   9.468   2.094  1.3471 -1.7899  1.3668
  369MOL0     H49783   5.120   9.301   1.929  0.1146 -0.9653 -1.1652
  369MOL0     H49784   4.964   9.257   1.896  1.6399 -1.8184  0.7521
  369MOL0     H49785   4.912   9.503   1.815 -0.1050 -0.9247 -2.5624
  369MOL0     H49786   5.036   9.413   1.731  0.9932  2.7087 -0.1822
  369MOL0     H49787   5.080   9.635   1.959 -0.7363  0.4924 -1.3141
  369MOL0     H49788   5.098   9.658   1.796  2.8426 -0.5410 -0.6824
  369MOL0     H49789   5.244   9.455   1.963 -2.5993  3.0866  3.2893
  369MOL0     H49790   5.270   9.471   1.792 -0.5185  1.8209 -0.5841
  369MOL0     H49791   5.350   9.671   1.994 -3.6659  0.7604 -1.4781
  369MOL0     H49792   5.379   9.682   1.815 -4.0352  0.7266 -0.8172
  369MOL0     H49793   5.480   9.481   2.010 -2.1754  0.4593 -0.6749
  369MOL0     H49794   5.521   9.478   1.830  0.1196 -0.3160 -0.6838
  369MOL0     H49795   4.984   9.521   2.487 -1.1587  0.8278 -0.9590
  369MOL0     H49796   5.030   9.428   2.709  2.2517 -4.9745  1.6092
  369MOL0     H49797   5.292   8.987   2.807 -0.6380  3.2068 -0.3893
  369MOL0     H49798   5.392   8.890   3.022 -1.4053 -3.1464  0.3119
  369MOL0     H49799   6.340   9.248   3.106  1.0341  5.2779  2.2501
  369MOL0     H49800   6.369   9.304   3.351 -1.6055  0.1679  2.6008
  369MOL0     H49801   6.341   9.381   3.705  2.4997  0.0207  2.5571
  369MOL0     H49802   6.358   9.500   3.922  0.1536 -0.7949  2.8875
  369MOL0     H49803   6.083   9.341   4.251  1.4836  0.6363  0.4649
  369MOL0     H49804   6.001   9.488   4.193 -0.0121 -1.6761 -0.1128
  369MOL0     H49805   6.139   9.621   4.315  0.0850  0.0406 -0.8805
  369MOL0     H49806   6.253   9.497   4.359 -0.4453 -1.4538  1.0629
  369MOL0     H49807   5.981   9.536   4.478 -0.1731 -2.0364 -0.8058
  369MOL0     H49808   6.134   9.544   4.563  0.8434 -0.5181  0.5404
  369MOL0     H49809   6.036   9.277   4.443 -2.1492 -0.6785  1.6142
  369MOL0     H49810   6.180   9.319   4.547 -1.6302 -2.4595  1.8337
  369MOL0     H49811   5.881   9.370   4.839 -0.7231  2.7311 -0.5843
  369MOL0     H49812   6.012   9.277   4.056  1.9220 -6.5352 -0.5585
  369MOL0     H49813   5.897   9.176   3.735 -1.9762  1.2399  1.3424
  369MOL0     H49814   5.980   9.062   3.846  3.2663  0.5308 -1.0373
  369MOL0     H49815   5.858   9.178   3.908 -1.1253 -0.3518 -0.2594
  370MOL0     O49816   3.001  11.175   6.206 -0.1272  0.5312  0.4269
  370MOL0     C49817   3.056  11.206   6.103 -0.1393  0.1179  0.8077
  370MOL0     O49818   3.082  11.333   6.073 -0.7950 -0.3227  0.7516
  370MOL0     C49819   3.096  11.423   6.171  0.1767 -0.3560 -0.4045
  370MOL0     C49820   2.999  11.524   6.180  0.0274  0.3249 -0.4691
  370MOL0     C49821   3.037  11.629   6.261 -1.4398 -0.4092  0.2320
  370MOL0     C49822   3.156  11.631   6.344 -0.5236  0.4642  0.1696
  370MOL0     O49823   3.181  11.727   6.429 -0.3218 -0.3300 -0.5352
  370MOL0     C49824   3.287  11.825   6.405 -0.5094  0.1549 -0.0984
  370MOL0     C49825   3.308  11.914   6.518 -0.0436  0.2882 -0.4155
  370MOL0     C49826   3.192  12.009   6.555  0.3287 -0.4247 -0.4464
  370MOL0     C49827   3.139  12.087   6.431 -0.2829 -0.3911 -0.6036
  370MOL0     C49828   2.992  12.062   6.416 -0.3982  0.3808 -0.2283
  370MOL0     C49829   2.925  12.170   6.313  0.2461  0.2493  0.2922
  370MOL0     C49830   3.015  12.235   6.199  0.0648  0.2400 -0.6988
  370MOL0     C49831   2.968  12.263   6.054  0.3647 -0.2968 -0.0718
  370MOL0     N49832   3.068  12.321   5.965 -0.2799  0.1823  0.0137
  370MOL0     C49833   3.201  12.300   5.957  0.7354  0.3535  0.4169
  370MOL0     C49834   3.246  12.387   5.866 -0.3512 -0.3299  0.4043
  370MOL0     C49835   3.387  12.400   5.819  0.7661  0.4226  0.8094
  370MOL0     C49836   3.432  12.270   5.743  0.3400  0.7267 -0.7692
  370MOL0     C49837   3.553  12.280   5.657  0.2779 -0.2941 -0.1076
  370MOL0     C49838   3.683  12.297   5.730 -0.2207  0.3591  0.8264
  370MOL0     O49839   3.688  12.420   5.797 -0.5269 -0.9814  0.3995
  370MOL0     C49840   3.797  12.432   5.879 -0.2408 -0.2113  0.1015
  370MOL0     C49841   3.903  12.505   5.833 -0.3004 -0.1785 -0.7306
  370MOL0     C49842   4.008  12.520   5.917 -0.2463 -0.3103  0.0329
  370MOL0     C49843   3.998  12.484   6.053 -0.9014 -0.2876  0.1644
  370MOL0     C49844   4.109  12.511   6.142 -0.2721 -0.0231  0.9358
  370MOL0     O49845   4.237  12.515   6.101  0.1541  0.4303 -0.4942
  370MOL0     C49846   4.339  12.558   6.189 -0.2256 -0.0641  0.2102
  370MOL0     C49847   4.365  12.505   6.321  0.1888 -0.3283  0.2449
  370MOL0     C49848   4.480  12.555   6.388  0.3760  0.9777  0.5234
  370MOL0     C49849   4.573  12.641   6.332 -0.2875 -0.7735  1.1226
  370MOL0     O49850   4.674  12.678   6.417  0.0361  0.1471 -0.4804
  370MOL0     C49851   4.734  12.802   6.406 -0.4726  0.5659  0.8150
  370MOL0     C49852   4.887  12.802   6.445  0.0927 -0.0570  0.9497
  370MOL0     C49853   4.924  12.883   6.570 -0.3137  0.7191  0.0794
  370MOL0     C49854   5.055  12.842   6.634  0.8679  0.2281 -0.4395
  370MOL0     C49855   5.103  12.939   6.754 -0.2400  0.4266  0.9593
  370MOL0     C49856   5.233  12.909   6.839  0.8697  0.4285 -0.3176
  370MOL0     C49857   5.346  12.857   6.747 -0.6067 -0.4339  0.3762
  370MOL0     C49858   5.483  12.877   6.806  0.9371 -1.4930  0.0070
  370MOL0    Cl49859   5.522  12.769   6.941  0.1416  0.0520  0.2039
  370MOL0     C49860   4.544  12.693   6.201  0.5356 -0.4872 -0.4363
  370MOL0     C49861   4.429  12.646   6.128  0.1961 -0.8559 -0.3626
  370MOL0     O49862   4.072  12.528   6.265 -0.6725 -0.1428 -0.1771
  370MOL0     C49863   3.886  12.416   6.102 -0.1733 -0.2058  0.5216
  370MOL0     C49864   3.782  12.388   6.010  0.4702  0.6009  0.6166
  370MOL0     N49865   3.139  12.459   5.819  0.2641 -0.2766 -0.7555
  370MOL0     N49866   3.027  12.419   5.882 -1.2278  0.3212 -0.3135
  370MOL0     C49867   3.232  11.511   6.351  0.8542 -1.0053  0.8052
  370MOL0     C49868   3.207  11.421   6.250 -0.1352 -0.3654  0.2219
  370MOL0     C49869   3.114  11.104   6.013 -0.1148  0.3755 -0.8980
  370MOL0     C49870   3.170  11.145   5.899 -0.6308 -0.3257  0.4044
  370MOL0     C49871   3.224  11.056   5.809  0.3019  0.3011  0.2329
  370MOL0     C49872   3.215  10.917   5.827  0.0246  0.3150  0.0652
  370MOL0     O49873   3.263  10.832   5.729  0.4159 -0.1724  0.4144
  370MOL0     C49874   3.157  10.767   5.656 -1.1579  0.4097  0.6162
  370MOL0     C49875   3.042  10.852   5.613  1.1289 -0.2178 -0.2114
  370MOL0     C49876   3.080  10.938   5.490  0.0301  0.7480  1.2704
  370MOL0     C49877   3.005  11.079   5.490  0.7124  0.1559 -0.6458
  370MOL0     C49878   2.966  11.118   5.355  0.9224 -0.2422 -0.2719
  370MOL0     C49879   2.924  11.172   5.250  0.2655  0.3129  0.7144
  370MOL0     C49880   3.162  10.870   5.947 -0.0845 -0.1850  0.2573
  370MOL0     C49881   3.111  10.968   6.041 -0.2067  0.4890  0.3316
  370MOL0     C49882   3.110  10.917   6.182  0.2509  0.1990  0.0420
  370MOL0     H49883   2.910  11.536   6.119  0.6833  1.3934 -1.2399
  370MOL0     H49884   2.981  11.722   6.257 -4.6138 -2.1911 -1.4801
  370MOL0     H49885   3.378  11.765   6.391  0.1892  0.7470  1.6492
  370MOL0     H49886   3.288  11.879   6.310  4.2411 -0.3531 -0.5815
  370MOL0     H49887   3.397  11.978   6.512  0.6366 -0.7145 -1.4117
  370MOL0     H49888   3.332  11.852   6.605  1.5637  1.3308 -0.0882
  370MOL0     H49889   3.238  12.081   6.623 -0.7566 -2.2747  2.4181
  370MOL0     H49890   3.114  11.950   6.605  1.1230 -0.7411  0.4303
  370MOL0     H49891   3.159  12.190   6.460  0.1833 -0.0368 -2.0648
  370MOL0     H49892   3.201  12.068   6.342  1.4478 -4.1204  1.1853
  370MOL0     H49893   2.975  11.960   6.381  0.7688  0.8119 -2.1415
  370MOL0     H49894   2.937  12.073   6.510  0.5697 -2.5447  0.7984
  370MOL0     H49895   2.837  12.129   6.264  2.3443 -1.7802 -2.0229
  370MOL0     H49896   2.901  12.262   6.367 -0.3067  0.2540  0.0396
  370MOL0     H49897   3.095  12.164   6.174 -0.6836  0.1365 -3.0165
  370MOL0     H49898   3.062  12.325   6.241  2.6565 -1.7445  0.9919
  370MOL0     H49899   2.927  12.172   6.010  0.7056  0.0400 -1.1097
  370MOL0     H49900   2.885  12.334   6.059  0.4552 -0.2121  0.2848
  370MOL0     H49901   3.264  12.226   6.007  0.2906  0.3270  0.9525
  370MOL0     H49902   3.401  12.482   5.747 -4.9731  0.8518 -0.2287
  370MOL0     H49903   3.444  12.412   5.912 -0.7559  1.9115  1.6083
  370MOL0     H49904   3.453  12.188   5.812  1.4427  0.2541 -1.6361
  370MOL0     H49905   3.351  12.223   5.686  0.2919  0.1487 -0.2356
  370MOL0     H49906   3.536  12.348   5.573 -2.8654 -0.5312  0.2393
  370MOL0     H49907   3.570  12.179   5.617 -0.6461  0.1124 -1.5893
  370MOL0     H49908   3.767  12.267   5.667 -0.4101 -2.5689  1.8103
  370MOL0     H49909   3.701  12.226   5.811  2.8612  1.0118  0.8482
  370MOL0     H49910   3.899  12.526   5.727 -4.9381  1.3505 -0.4696
  370MOL0     H49911   4.106  12.552   5.882 -0.4550  1.8751  1.2487
  370MOL0     H49912   4.308  12.422   6.363 -0.3250  0.6519  1.5600
  370MOL0     H49913   4.477  12.545   6.496 -3.5068  0.5845  0.4929
  370MOL0     H49914   4.724  12.837   6.303 -0.8062  0.3115  0.7600
  370MOL0     H49915   4.677  12.870   6.469 -1.5963  1.7141 -1.3450
  370MOL0     H49916   4.915  12.699   6.468  2.7211  0.9835  3.0002
  370MOL0     H49917   4.941  12.844   6.360 -0.4140 -2.8164 -0.8567
  370MOL0     H49918   4.936  12.987   6.539 -0.3918  0.3662 -1.1821
  370MOL0     H49919   4.851  12.864   6.650 -2.6562  1.3756 -1.7975
  370MOL0     H49920   5.138  12.851   6.563  0.3088  0.7405 -1.0469
  370MOL0     H49921   5.051  12.738   6.667  2.3655 -0.3238 -1.8470
  370MOL0     H49922   5.033  12.947   6.838 -0.0925 -0.1701  1.1489
  370MOL0     H49923   5.127  13.039   6.717  2.7021 -0.7039 -0.5184
  370MOL0     H49924   5.252  12.999   6.897 -1.2552  0.5024  0.3523
  370MOL0     H49925   5.223  12.829   6.913 -0.2632  0.3814 -0.5086
  370MOL0     H49926   5.324  12.906   6.653 -1.4526 -2.1447 -0.3675
  370MOL0     H49927   5.331  12.750   6.731  0.4638 -0.7523  1.3260
  370MOL0     H49928   5.554  12.870   6.724  1.6415  0.2371  0.4111
  370MOL0     H49929   5.496  12.981   6.838  1.3169 -1.3049 -0.7278
  370MOL0     H49930   4.600  12.778   6.161  1.1086 -0.4420  0.4402
  370MOL0     H49931   4.409  12.699   6.036  2.7638  0.9877  0.0297
  370MOL0     H49932   3.901  12.369   6.199 -0.0716  1.7035  1.4817
  370MOL0     H49933   3.702  12.316   6.025  2.3897 -1.7391  0.1011
  370MOL0     H49934   3.326  11.530   6.403  0.6881 -0.1926  0.8348
  370MOL0     H49935   3.280  11.346   6.222  0.4150 -0.7036  2.4271
  370MOL0     H49936   3.182  11.250   5.874 -0.8790 -1.1227 -3.8326
  370MOL0     H49937   3.272  11.094   5.720 -0.2818  2.7353  0.8669
  370MOL0     H49938   3.127  10.683   5.719  0.2881  1.5304  2.9338
  370MOL0     H49939   3.198  10.731   5.561  3.6373  2.5646  1.5658
  370MOL0     H49940   3.003  10.899   5.704  0.9451 -3.7567  1.7532
  370MOL0     H49941   2.962  10.784   5.579  1.1776  0.0609 -0.8815
  370MOL0     H49942   3.047  10.879   5.404 -3.5286 -0.2456  3.1033
  370MOL0     H49943   3.189  10.948   5.480  0.1055  0.4261  1.7501
  370MOL0     H49944   2.910  11.081   5.544  0.7652  0.1533 -0.5546
  370MOL0     H49945   3.072  11.159   5.521  2.1748 -0.2076 -2.7007
  370MOL0     H49946   2.881  11.210   5.159  1.5667  0.2165  0.0312
  370MOL0     H49947   3.169  10.764   5.972  1.1309  0.5224  3.4414
  370MOL0     H49948   3.107  10.808   6.192  0.9060  0.3682  2.9958
  370MOL0     H49949   3.198  10.961   6.231 -0.9460  2.4468  0.2890
  370MOL0     H49950   3.014  10.942   6.226 -1.1586  0.8412 -3.0980
  371MOL0     O49951   0.691   9.680   8.969 -0.0832 -0.5281 -0.6320
  371MOL0     C49952   0.576   9.722   8.981 -1.0230 -0.1583  0.0234
  371MOL0     O49953   0.487   9.767   8.886  0.7734  1.1971  0.2220
  371MOL0     C49954   0.514   9.788   8.751  0.9979 -0.3531  0.4125
  371MOL0     C49955   0.635   9.781   8.686 -0.4433 -0.1972 -0.7228
  371MOL0     C49956   0.643   9.781   8.549 -0.2009 -0.3271 -0.0656
  371MOL0     C49957   0.527   9.786   8.476  0.4713  0.8990 -0.1420
  371MOL0     O49958   0.555   9.790   8.344  0.5682  0.5885  0.8630
  371MOL0     C49959   0.459   9.714   8.271 -1.0683  0.9047 -0.0331
  371MOL0     C49960   0.509   9.703   8.121  0.3278 -0.2850 -0.1921
  371MOL0     C49961   0.630   9.603   8.106  0.7481  1.0329 -1.3539
  371MOL0     C49962   0.691   9.622   7.958 -0.1540  0.1949 -1.6293
  371MOL0     C49963   0.829   9.548   7.964 -0.5537  0.1648 -0.0801
  371MOL0     C49964   0.882   9.520   7.822 -0.4459  0.0426 -0.0073
  371MOL0     C49965   1.022   9.440   7.827 -0.3027 -0.1619 -0.9163
  371MOL0     C49966   1.150   9.521   7.859  0.2726  0.0281  0.0511
  371MOL0     N49967   1.278   9.454   7.870  0.0915  0.1602 -0.1237
  371MOL0     C49968   1.395   9.503   7.817  0.7536 -0.9174 -0.3576
  371MOL0     C49969   1.493   9.432   7.868  0.0708  0.4305 -0.0334
  371MOL0     C49970   1.636   9.455   7.839  0.2874 -0.3734 -0.0071
  371MOL0     C49971   1.680   9.386   7.704 -0.0256  0.0682 -0.8712
  371MOL0     C49972   1.838   9.371   7.680  0.5087 -0.7292 -0.8684
  371MOL0     C49973   1.856   9.314   7.537 -0.0078  0.1963  0.1627
  371MOL0     O49974   1.997   9.288   7.506 -0.4904 -0.5478 -0.1312
  371MOL0     C49975   2.072   9.393   7.455  0.2519 -1.2579 -0.1866
  371MOL0     C49976   2.202   9.371   7.423  0.8737 -0.3110  0.1048
  371MOL0     C49977   2.282   9.470   7.361  0.4599 -0.3079 -1.1352
  371MOL0     C49978   2.226   9.591   7.322 -0.4448  0.9049 -0.1181
  371MOL0     C49979   2.306   9.696   7.257 -0.2894  0.4611 -0.3835
  371MOL0     O49980   2.431   9.668   7.237 -0.3531  0.3884  0.2206
  371MOL0     C49981   2.505   9.775   7.189 -0.5538  0.4990 -0.6180
  371MOL0     C49982   2.603   9.739   7.088  0.0779 -1.0112 -0.6085
  371MOL0     C49983   2.685   9.840   7.033 -0.2602 -0.1215 -0.4376
  371MOL0     C49984   2.673   9.974   7.072  0.4915 -0.1296  0.2266
  371MOL0     O49985   2.741  10.072   7.009  0.5145  0.9127  0.5463
  371MOL0     C49986   2.878  10.089   7.057  1.6049  0.3394  0.3529
  371MOL0     C49987   2.877  10.187   7.176 -0.4058  0.3743 -0.5362
  371MOL0     C49988   2.969  10.311   7.157 -0.1774 -0.6350  0.2718
  371MOL0     C49989   3.121  10.265   7.154 -0.8292  0.1484 -0.1115
  371MOL0     C49990   3.219  10.383   7.149  0.0894 -0.5279  0.6505
  371MOL0     C49991   3.240  10.466   7.276 -0.7352  0.6127 -0.3296
  371MOL0     C49992   3.257  10.615   7.253  0.5922  0.5491 -0.2181
  371MOL0     C49993   3.399  10.659   7.234 -0.1502  0.6502  0.5880
  371MOL0    Cl49994   3.407  10.827   7.216 -0.6630 -0.1323  0.5228
  371MOL0     C49995   2.591  10.000   7.175 -0.3851  0.5404 -0.3186
  371MOL0     C49996   2.518   9.902   7.238 -0.4884 -0.8197  0.2757
  371MOL0     O49997   2.250   9.806   7.237  0.2174  0.2886  0.5221
  371MOL0     C49998   2.092   9.610   7.353  0.0493 -0.8366 -0.0795
  371MOL0     C49999   2.016   9.516   7.418  1.0153  0.4226  0.6232
  371MOL0     N50000   1.446   9.349   7.965  0.7781 -0.0373 -0.8139
  371MOL0     N50001   1.319   9.367   7.965  0.0085 -0.6093 -0.4455
  371MOL0     C50002   0.398   9.783   8.540 -0.4885 -0.4006  0.9364
  371MOL0     C50003   0.398   9.797   8.683 -0.5250 -0.1559  1.2220
  371MOL0     C50004   0.538   9.727   9.114 -0.7670  0.3168 -0.6079
  371MOL0     C50005   0.404   9.735   9.142  0.4126 -0.0934 -0.8205
  371MOL0     C50006   0.350   9.732   9.270  0.1050  0.5818  0.3230
  371MOL0     C50007   0.434   9.722   9.381 -0.9203  0.2929 -0.3613
  371MOL0     O50008   0.379   9.741   9.508 -0.5751  0.1473  0.4156
  371MOL0     C50009   0.465   9.780   9.618 -0.3887  0.5479  0.2979
  371MOL0     C50010   0.382   9.842   9.737 -0.0126 -0.7783  0.3203
  371MOL0     C50011   0.274   9.741   9.797  0.7504 -0.2772 -0.2180
  371MOL0     C50012   0.196   9.814   9.901  0.2557  0.4206 -0.4170
  371MOL0     C50013   0.130   9.722  10.005 -0.5769  0.1940  0.7409
  371MOL0     C50014   0.101   9.642  10.094 -0.4482 -0.3485  0.3672
  371MOL0     C50015   0.575   9.726   9.353  0.3823  0.7550 -0.0127
  371MOL0     C50016   0.627   9.731   9.225 -0.2185  0.4107  0.6611
  371MOL0     C50017   0.781   9.722   9.229  0.4044 -0.2545  0.2748
  371MOL0     H50018   0.727   9.790   8.743 -0.7108  4.0005 -0.6704
  371MOL0     H50019   0.734   9.795   8.492 -1.4762  1.6044 -1.8142
  371MOL0     H50020   0.457   9.617   8.322  1.7733  0.8077  0.0442
  371MOL0     H50021   0.363   9.765   8.262 -0.7477  1.6232  0.5547
  371MOL0     H50022   0.553   9.801   8.099 -2.3321  0.7719 -1.1859
  371MOL0     H50023   0.416   9.688   8.066 -0.4076  2.6104  0.1174
  371MOL0     H50024   0.593   9.501   8.114  1.9422  0.7209  2.5890
  371MOL0     H50025   0.700   9.621   8.188 -0.5821  1.9560 -0.3657
  371MOL0     H50026   0.622   9.580   7.884  1.0526 -1.1291 -2.0659
  371MOL0     H50027   0.718   9.726   7.937  1.3222 -0.2442 -2.0442
  371MOL0     H50028   0.900   9.594   8.033  1.0522 -1.9545 -0.2027
  371MOL0     H50029   0.801   9.451   8.006  0.1539 -0.0348 -0.0602
  371MOL0     H50030   0.798   9.468   7.774 -0.6812  0.8512 -0.4951
  371MOL0     H50031   0.897   9.621   7.783 -0.2342  1.3657  3.2366
  371MOL0     H50032   1.034   9.391   7.730  1.5011 -1.2253 -0.2112
  371MOL0     H50033   1.005   9.369   7.909 -4.2928  0.8351 -0.6905
  371MOL0     H50034   1.148   9.596   7.779 -1.1273 -0.8662 -0.8019
  371MOL0     H50035   1.125   9.560   7.958  0.2957 -1.1516  0.5400
  371MOL0     H50036   1.396   9.586   7.747 -0.7358 -0.8081 -0.2937
  371MOL0     H50037   1.668   9.559   7.838  4.3760 -1.4535 -0.1205
  371MOL0     H50038   1.705   9.410   7.911  1.4431  0.1703 -0.7507
  371MOL0     H50039   1.642   9.284   7.710 -0.5942  0.3063 -0.3982
  371MOL0     H50040   1.629   9.437   7.622  1.1063  2.2066 -0.3281
  371MOL0     H50041   1.866   9.307   7.764 -2.5054  1.0308  1.7364
  371MOL0     H50042   1.884   9.469   7.695  1.2467 -1.3335  1.2046
  371MOL0     H50043   1.791   9.369   7.469 -2.4204 -0.7839  1.5552
  371MOL0     H50044   1.815   9.212   7.534 -3.3883  1.4316 -0.0265
  371MOL0     H50045   2.246   9.278   7.458  0.0562 -0.5121  0.6110
  371MOL0     H50046   2.386   9.451   7.338  0.0628 -3.5085 -0.8402
  371MOL0     H50047   2.603   9.633   7.064  2.0782 -0.8625 -1.5130
  371MOL0     H50048   2.748   9.811   6.950  0.1574  0.4500 -0.3248
  371MOL0     H50049   2.911   9.992   7.095  1.1725  1.1127  2.8605
  371MOL0     H50050   2.940  10.140   6.983  0.7194 -0.9193 -1.3260
  371MOL0     H50051   2.778  10.232   7.179 -1.1933 -1.3173  0.4431
  371MOL0     H50052   2.900  10.146   7.275  1.4271 -0.4813 -1.2622
  371MOL0     H50053   2.942  10.365   7.066  0.0642 -2.8250 -1.1647
  371MOL0     H50054   2.956  10.376   7.245  4.8815 -0.2556  1.0204
  371MOL0     H50055   3.128  10.210   7.060  1.6841 -0.7416  0.5222
  371MOL0     H50056   3.151  10.199   7.236 -0.8669  1.2482  0.8127
  371MOL0     H50057   3.189  10.446   7.065 -3.4670 -1.3588  1.1439
  371MOL0     H50058   3.316  10.339   7.121  0.8562  0.2866  1.9205
  371MOL0     H50059   3.144  10.463   7.327 -0.2333  1.4489  0.6918
  371MOL0     H50060   3.318  10.420   7.338 -0.8180  1.9004  0.7580
  371MOL0     H50061   3.221  10.675   7.337 -2.7027 -0.1125 -0.9961
  371MOL0     H50062   3.192  10.642   7.169 -1.0987 -1.5835  0.2960
  371MOL0     H50063   3.469  10.620   7.308 -4.0058 -1.6462  3.4384
  371MOL0     H50064   3.438  10.614   7.142  1.6665  0.2968  1.4892
  371MOL0     H50065   2.569  10.097   7.217 -1.1716 -0.3884  1.5315
  371MOL0     H50066   2.444   9.914   7.316 -2.1753  0.2345 -1.3907
  371MOL0     H50067   2.064   9.709   7.318  1.5948 -0.2632  0.1894
  371MOL0     H50068   1.913   9.543   7.438  0.6223  0.4314 -1.2642
  371MOL0     H50069   0.303   9.794   8.489 -0.2921  0.9863  0.8205
  371MOL0     H50070   0.300   9.794   8.729 -2.8538 -0.8634 -3.2641
  371MOL0     H50071   0.325   9.749   9.068 -0.1425  1.4974  0.0343
  371MOL0     H50072   0.243   9.737   9.291  0.5478  3.4684  2.5267
  371MOL0     H50073   0.532   9.862   9.589 -1.4807  0.7186 -1.9838
  371MOL0     H50074   0.522   9.693   9.652  1.3633  1.1391 -0.9663
  371MOL0     H50075   0.327   9.925   9.690 -1.3699 -1.9308 -0.2194
  371MOL0     H50076   0.453   9.880   9.810 -1.9016  1.9735  0.9233
  371MOL0     H50077   0.318   9.652   9.842  0.2616 -0.4905 -0.1461
  371MOL0     H50078   0.212   9.714   9.711  0.6473  1.7043 -0.8139
  371MOL0     H50079   0.272   9.877   9.948  2.1364  0.2281 -2.9437
  371MOL0     H50080   0.121   9.878   9.855 -0.5529 -0.1318  0.1063
  371MOL0     H50081   0.099   9.556  10.159  2.3644 -2.8570 -2.4679
  371MOL0     H50082   0.646   9.738   9.434  1.2776  0.6713 -0.7712
  371MOL0     H50083   0.818   9.626   9.191 -3.8046 -3.3581  3.1602
  371MOL0     H50084   0.803   9.801   9.156 -0.2609  1.9980  2.3840
  371MOL0     H50085   0.831   9.742   9.324  2.9988 -1.2883 -0.7643
  372MOL0     O50086   0.408   8.878  11.460  0.8640  0.3781 -1.2284
  372MOL0     C50087   0.402   8.768  11.402 -0.1964  0.6355  0.1446
  372MOL0     O50088   0.362   8.649  11.451  0.4078  0.0051 -0.6372
  372MOL0     C50089   0.298   8.657  11.570 -0.2530  0.8158  0.6928
  372MOL0     C50090   0.162   8.665  11.575  0.6884 -0.0418 -0.6822
  372MOL0     C50091   0.078   8.673  11.688 -1.1997  0.4424 -0.0304
  372MOL0     C50092   0.149   8.670  11.815 -0.8842 -0.2742  0.9229
  372MOL0     O50093   0.088   8.681  11.932 -0.1284  0.0655 -0.1749
  372MOL0     C50094  -0.041   8.629  11.942 -0.2462  0.4547 -0.2493
  372MOL0     C50095  -0.062   8.567  12.076  0.6592  0.5750  0.1422
  372MOL0     C50096   0.026   8.440  12.098 -0.5466 -0.9841 -0.2427
  372MOL0     C50097   0.029   8.391  12.244 -0.1795  0.1424 -0.4710
  372MOL0     C50098   0.049   8.236  12.251 -0.6876  0.5598 -0.2141
  372MOL0     C50099   0.035   8.200  12.408 -0.5339  0.5798 -0.6827
  372MOL0     C50100   0.095   8.060  12.435  0.4367  0.6274  0.4920
  372MOL0     C50101   0.116   8.032  12.586  0.5909  0.0208 -0.0937
  372MOL0     N50102   0.239   7.950  12.608 -0.3751 -0.4314 -0.2653
  372MOL0     C50103   0.284   7.840  12.543 -0.5276 -0.1238  1.0301
  372MOL0     C50104   0.365   7.777  12.635  0.8037 -0.3158 -0.4397
  372MOL0     C50105   0.444   7.653  12.626  0.7173 -1.1852  0.1382
  372MOL0     C50106   0.577   7.691  12.685 -0.7630  0.1819  0.0831
  372MOL0     C50107   0.682   7.576  12.669  0.0588 -0.0035  0.4636
  372MOL0     C50108   0.678   7.468  12.779  0.6685  0.0112 -0.3137
  372MOL0     O50109   0.748   7.344  12.746  0.9826  0.2691  1.0226
  372MOL0     C50110   0.749   7.245  12.839 -0.1594 -0.6664  0.9428
  372MOL0     C50111   0.837   7.148  12.790 -0.3125 -0.0732 -0.2420
  372MOL0     C50112   0.844   7.027  12.865 -0.9552  0.0967 -0.0464
  372MOL0     C50113   0.766   7.010  12.974  0.2604  0.9420 -1.1331
  372MOL0     C50114   0.781   6.890  13.059 -0.2960  0.3145 -0.8968
  372MOL0     O50115   0.717   6.880  13.175 -0.2597 -0.0650  0.5610
  372MOL0     C50116   0.702   6.765  13.248  0.0971 -0.4409  0.2357
  372MOL0     C50117   0.680   6.778  13.388  0.7279  0.1760 -0.4929
  372MOL0     C50118   0.663   6.668  13.465  0.1889 -0.3910 -0.5181
  372MOL0     C50119   0.664   6.538  13.402  0.4056 -0.4041 -0.3942
  372MOL0     O50120   0.636   6.423  13.459 -0.8487  0.1920 -0.0498
  372MOL0     C50121   0.558   6.421  13.580  0.0297 -0.4861 -0.3348
  372MOL0     C50122   0.507   6.280  13.618  0.2795  1.3163  0.4582
  372MOL0     C50123   0.605   6.167  13.561 -0.6584  0.0904  0.5019
  372MOL0     C50124   0.578   6.033  13.627  0.4011 -0.0373  0.8046
  372MOL0     C50125   0.603   6.024  13.775 -0.3037 -0.9006  0.5248
  372MOL0     C50126   0.743   6.078  13.813  0.3944 -0.0598 -1.2614
  372MOL0     C50127   0.797   6.019  13.940  0.4217  0.6853 -0.3438
  372MOL0     C50128   0.928   6.081  14.010  0.1407 -0.0764  0.1338
  372MOL0    Cl50129   1.068   6.068  13.896 -0.0995 -0.2976  0.2011
  372MOL0     C50130   0.690   6.526  13.260 -0.5550  0.0124 -0.9398
  372MOL0     C50131   0.705   6.638  13.184  0.1651 -0.0174  0.0592
  372MOL0     O50132   0.863   6.802  13.016 -0.4759  0.3593  0.3813
  372MOL0     C50133   0.676   7.111  13.013 -0.3751  0.0086  0.0640
  372MOL0     C50134   0.659   7.230  12.939  0.0940  0.4023 -0.8755
  372MOL0     N50135   0.343   7.831  12.758  0.2545  0.2511  0.0857
  372MOL0     N50136   0.273   7.942  12.743 -0.5630  0.4456 -0.3009
  372MOL0     C50137   0.295   8.667  11.815 -0.1500  0.5123 -0.2726
  372MOL0     C50138   0.363   8.655  11.692  0.2221 -0.3391 -0.5218
  372MOL0     C50139   0.434   8.775  11.252  0.1307  0.8131  1.7788
  372MOL0     C50140   0.433   8.900  11.183 -0.3133 -0.2759  0.3230
  372MOL0     C50141   0.450   8.918  11.045  0.2312 -0.0690  0.7653
  372MOL0     C50142   0.490   8.806  10.969 -0.3862  0.3624  0.2751
  372MOL0     O50143   0.532   8.809  10.842 -0.7539  0.6716 -0.1545
  372MOL0     C50144   0.500   8.927  10.768 -0.1519  0.4501 -0.3334
  372MOL0     C50145   0.351   8.925  10.723 -0.0664  0.6688 -0.1516
  372MOL0     C50146   0.301   8.822  10.616  0.6812  0.3975 -0.0776
  372MOL0     C50147   0.156   8.837  10.577  0.1618  0.0426 -0.6938
  372MOL0     C50148   0.127   8.732  10.482  0.8497 -0.6302  0.2139
  372MOL0     C50149   0.117   8.645  10.402 -0.2096 -1.2586 -0.2983
  372MOL0     C50150   0.480   8.682  11.023 -0.5642 -0.2899 -0.4867
  372MOL0     C50151   0.460   8.666  11.160 -0.2548  0.4421  0.2835
  372MOL0     C50152   0.489   8.523  11.211  0.9486  0.7460  0.1246
  372MOL0     H50153   0.105   8.652  11.484  1.6505 -2.0387 -1.0372
  372MOL0     H50154  -0.029   8.677  11.666 -1.0691 -1.8389 -1.2933
  372MOL0     H50155  -0.108   8.715  11.934 -0.9704  0.0344  0.9887
  372MOL0     H50156  -0.070   8.558  11.864  2.0790  0.7247 -1.4590
  372MOL0     H50157  -0.170   8.558  12.084  0.0424  2.1846 -3.7960
  372MOL0     H50158  -0.032   8.641  12.151 -1.2631  5.4497 -3.3439
  372MOL0     H50159   0.132   8.462  12.078 -0.7718 -1.1054 -1.6831
  372MOL0     H50160  -0.017   8.362  12.034 -1.6531  1.3884 -2.6069
  372MOL0     H50161   0.115   8.434  12.296 -1.4577  1.0141  0.9638
  372MOL0     H50162  -0.065   8.426  12.287 -0.0879  0.3739 -0.4564
  372MOL0     H50163  -0.024   8.178  12.192 -0.1396  0.6359 -0.9845
  372MOL0     H50164   0.144   8.208  12.206 -0.7969 -1.5881  0.7765
  372MOL0     H50165   0.100   8.269  12.463 -2.2497  1.6716  0.0504
  372MOL0     H50166  -0.066   8.216  12.446  1.1448  4.5771  3.0807
  372MOL0     H50167   0.184   8.050  12.373 -0.3215 -0.0146 -0.5294
  372MOL0     H50168   0.014   8.000  12.392 -0.9281  2.0412  0.9518
  372MOL0     H50169   0.119   8.123  12.646  0.4925  1.3703 -2.0878
  372MOL0     H50170   0.030   7.967  12.606 -0.4048  1.1675 -0.6199
  372MOL0     H50171   0.283   7.830  12.435 -1.7366 -0.6203  1.0675
  372MOL0     H50172   0.402   7.568  12.680  1.2701 -0.9994  0.8699
  372MOL0     H50173   0.442   7.632  12.519  1.2429 -2.6749  0.3979
  372MOL0     H50174   0.617   7.778  12.632 -0.8394 -0.6363 -1.3761
  372MOL0     H50175   0.568   7.731  12.787  1.1305  3.8634 -1.0126
  372MOL0     H50176   0.779   7.627  12.670  0.7819 -1.3252  1.3898
  372MOL0     H50177   0.677   7.523  12.574  2.8301 -0.5089  0.5215
  372MOL0     H50178   0.574   7.437  12.787  1.2017 -1.4197  2.0809
  372MOL0     H50179   0.704   7.514  12.875  0.1631  1.0558 -0.6575
  372MOL0     H50180   0.885   7.172  12.695 -0.4697 -1.3856 -0.6645
  372MOL0     H50181   0.908   6.946  12.832  1.2429  1.9768 -0.6416
  372MOL0     H50182   0.682   6.873  13.440  0.2213  0.8020 -1.5669
  372MOL0     H50183   0.642   6.680  13.570  0.8305 -0.2231 -0.4031
  372MOL0     H50184   0.620   6.452  13.665 -0.7963  1.2316 -0.3273
  372MOL0     H50185   0.471   6.486  13.584  0.6782  0.4806 -1.3207
  372MOL0     H50186   0.508   6.270  13.727  0.5582  2.0260  0.5264
  372MOL0     H50187   0.406   6.255  13.586  0.5218 -2.2638  2.0364
  372MOL0     H50188   0.589   6.163  13.453 -0.1390  1.7488  0.3417
  372MOL0     H50189   0.707   6.204  13.577 -0.4110  0.3456 -1.4710
  372MOL0     H50190   0.628   5.950  13.575  0.9965 -0.2216  1.6525
  372MOL0     H50191   0.474   6.011  13.601  1.2631 -1.1357 -2.1717
  372MOL0     H50192   0.602   5.919  13.805  0.8362 -1.3181 -0.7671
  372MOL0     H50193   0.517   6.077  13.817 -0.9801 -0.8011 -0.8959
  372MOL0     H50194   0.815   6.062  13.733  4.1677 -2.1250  2.1584
  372MOL0     H50195   0.748   6.186  13.832 -2.9248  0.2353 -1.5355
  372MOL0     H50196   0.814   5.913  13.920 -2.1291  0.2039 -0.1984
  372MOL0     H50197   0.720   6.020  14.018 -0.4914 -1.8732 -1.1115
  372MOL0     H50198   0.921   6.187  14.036  0.0492  0.3757 -1.6297
  372MOL0     H50199   0.951   6.023  14.100 -1.5007  0.3806  0.8907
  372MOL0     H50200   0.709   6.426  13.221 -0.0713 -0.3429  0.1709
  372MOL0     H50201   0.700   6.627  13.077 -0.3109  1.9681 -0.1692
  372MOL0     H50202   0.602   7.096  13.090 -0.6822 -0.0727 -0.2457
  372MOL0     H50203   0.585   7.304  12.967  0.1860  0.7678 -1.5656
  372MOL0     H50204   0.348   8.654  11.909 -2.0809  2.3649  1.1707
  372MOL0     H50205   0.471   8.652  11.703  0.0933 -1.9934  0.6063
  372MOL0     H50206   0.420   8.987  11.246  1.8061  1.3036 -1.2598
  372MOL0     H50207   0.450   9.020  11.009 -0.1885 -0.4914 -0.4669
  372MOL0     H50208   0.569   8.928  10.683 -0.8626 -1.6555 -1.0088
  372MOL0     H50209   0.524   9.018  10.824  3.4452  1.0591 -2.5190
  372MOL0     H50210   0.325   9.026  10.690  0.6565  2.3283  3.8286
  372MOL0     H50211   0.288   8.905  10.810  0.7404 -4.2719 -0.4079
  372MOL0     H50212   0.310   8.723  10.662 -3.6501 -0.5777 -0.8829
  372MOL0     H50213   0.368   8.826  10.530  0.5408 -3.9820 -0.5829
  372MOL0     H50214   0.089   8.824  10.662  1.8087  0.5963  0.7578
  372MOL0     H50215   0.133   8.940  10.546  2.6905  0.9382  0.1054
  372MOL0     H50216   0.122   8.554  10.345  1.6703 -0.6063 -1.2533
  372MOL0     H50217   0.498   8.605  10.949 -0.1458 -0.4499 -0.2197
  372MOL0     H50218   0.537   8.538  11.308  1.2363 -1.5428  0.3970
  372MOL0     H50219   0.398   8.464  11.227  0.8326 -0.4147 -3.8049
  372MOL0     H50220   0.547   8.464  11.139  2.8043  1.7630  0.7205
  373MOL0     O50221   4.495   5.136   1.005  0.6008  0.2795 -0.2803
  373MOL0     C50222   4.521   5.055   1.094 -0.7940 -0.7246 -0.5694
  373MOL0     O50223   4.596   4.940   1.076 -0.2242  0.1718  0.2671
  373MOL0     C50224   4.630   4.911   0.948 -0.5228  0.8775  0.4100
  373MOL0     C50225   4.535   4.876   0.849  0.1934 -0.5867 -0.4814
  373MOL0     C50226   4.577   4.827   0.723  0.1075 -1.1219 -0.3675
  373MOL0     C50227   4.710   4.814   0.689 -0.2498 -0.2762  0.1922
  373MOL0     O50228   4.761   4.753   0.582  0.4682 -0.0752  0.8204
  373MOL0     C50229   4.667   4.658   0.520  0.1816 -0.8166  0.2296
  373MOL0     C50230   4.724   4.573   0.396 -0.3364  0.1565 -0.7942
  373MOL0     C50231   4.764   4.680   0.290 -0.6012  0.6088  0.1347
  373MOL0     C50232   4.828   4.614   0.167 -0.0797 -0.2617 -0.1301
  373MOL0     C50233   4.892   4.720   0.069  0.7045  0.3868 -0.4808
  373MOL0     C50234   4.981   4.630  -0.024  1.0353 -0.7061  0.6178
  373MOL0     C50235   4.888   4.566  -0.129  0.0769  0.3743  0.4605
  373MOL0     C50236   4.957   4.553  -0.266  0.4959  0.2099  0.3657
  373MOL0     N50237   4.870   4.497  -0.369 -0.1253 -0.7770  0.5543
  373MOL0     C50238   4.853   4.366  -0.407 -0.2793  0.6317 -0.3372
  373MOL0     C50239   4.744   4.375  -0.484  0.6142  0.2298  0.5573
  373MOL0     C50240   4.686   4.257  -0.560 -0.6327 -0.4132  0.7421
  373MOL0     C50241   4.790   4.191  -0.666  0.2201 -1.1602 -0.4790
  373MOL0     C50242   4.872   4.293  -0.743  0.1611 -0.6289 -0.5939
  373MOL0     C50243   4.909   4.233  -0.876  0.2535 -0.3474 -0.4565
  373MOL0     O50244   4.983   4.124  -0.843 -0.3758  0.6463  0.3364
  373MOL0     C50245   5.067   4.068  -0.939 -0.1724 -0.9177  0.0775
  373MOL0     C50246   5.116   4.118  -1.067 -0.0564  0.6100 -0.5961
  373MOL0     C50247   5.219   4.058  -1.142  0.2411 -0.8221  0.4216
  373MOL0     C50248   5.265   3.930  -1.105  0.3875 -0.2330  0.3928
  373MOL0     C50249   5.356   3.860  -1.188 -0.5297  0.4474  0.2134
  373MOL0     O50250   5.379   3.911  -1.313  1.3359  0.6985  0.1965
  373MOL0     C50251   5.469   3.844  -1.390 -0.5112  0.5513  0.0577
  373MOL0     C50252   5.571   3.922  -1.447 -0.6556  0.8779 -0.0681
  373MOL0     C50253   5.670   3.863  -1.531 -0.5416 -0.5174  0.4133
  373MOL0     C50254   5.651   3.730  -1.574  0.5471 -0.8406 -0.0787
  373MOL0     O50255   5.729   3.674  -1.675  0.0659 -0.1910  0.8960
  373MOL0     C50256   5.812   3.565  -1.646  0.0260 -0.3066 -0.0424
  373MOL0     C50257   5.936   3.621  -1.591 -0.5062  0.9400 -0.3959
  373MOL0     C50258   6.025   3.499  -1.550 -0.7298  0.3381 -0.4992
  373MOL0     C50259   6.170   3.560  -1.530  0.3018 -0.0058 -0.5250
  373MOL0     C50260   6.258   3.472  -1.445  0.0850 -0.8543 -0.3723
  373MOL0     C50261   6.405   3.513  -1.455 -0.2630 -0.2009  0.3373
  373MOL0     C50262   6.506   3.436  -1.367  0.3519  0.2812  0.2229
  373MOL0     C50263   6.525   3.284  -1.400 -1.0208  0.3107  1.1650
  373MOL0    Cl50264   6.688   3.220  -1.362  0.0515  0.0553 -0.3331
  373MOL0     C50265   5.539   3.664  -1.528 -0.0554  0.7976 -0.2513
  373MOL0     C50266   5.446   3.717  -1.440  0.0307  0.0228  0.2430
  373MOL0     O50267   5.414   3.757  -1.147 -0.2731  0.1524  0.3322
  373MOL0     C50268   5.207   3.877  -0.988 -0.0999 -0.1175 -0.0739
  373MOL0     C50269   5.109   3.937  -0.911  0.7347 -0.7862 -0.4354
  373MOL0     N50270   4.709   4.506  -0.512  0.0120 -0.6322  0.5231
  373MOL0     N50271   4.788   4.574  -0.444  0.2752 -0.6520  0.1899
  373MOL0     C50272   4.804   4.856   0.780 -0.1255 -0.9801 -0.0324
  373MOL0     C50273   4.764   4.899   0.905 -0.5944  0.9782 -1.0024
  373MOL0     C50274   4.464   5.081   1.227 -0.4389  0.3768  1.2569
  373MOL0     C50275   4.527   5.014   1.328  0.9246  0.5740 -0.4976
  373MOL0     C50276   4.483   5.010   1.457  0.2110  1.0199  0.3809
  373MOL0     C50277   4.368   5.091   1.485 -0.2497 -0.2084 -0.3712
  373MOL0     O50278   4.311   5.085   1.618 -0.1042 -0.2493 -0.4968
  373MOL0     C50279   4.389   5.059   1.734 -0.5083 -0.0978  0.0483
  373MOL0     C50280   4.352   5.162   1.839 -0.5565 -0.5686 -1.0663
  373MOL0     C50281   4.238   5.110   1.925  0.0508 -0.6231  1.3718
  373MOL0     C50282   4.187   5.218   2.023  0.6267 -0.5803  0.1623
  373MOL0     C50283   4.091   5.313   1.959  0.3271  0.1386  0.0012
  373MOL0     C50284   4.008   5.375   1.898  0.1377  0.3244  0.0491
  373MOL0     C50285   4.312   5.172   1.388 -0.2811 -0.2214  0.4899
  373MOL0     C50286   4.349   5.159   1.253 -0.1149 -0.1126 -0.6535
  373MOL0     C50287   4.261   5.224   1.149  0.8104  0.9817 -0.3849
  373MOL0     H50288   4.433   4.899   0.877  0.7116  0.8376  0.3120
  373MOL0     H50289   4.504   4.805   0.645 -0.5534  3.1316 -1.2072
  373MOL0     H50290   4.623   4.593   0.597 -3.8044 -0.0609 -1.1879
  373MOL0     H50291   4.575   4.703   0.483 -1.0685 -0.5100  3.3325
  373MOL0     H50292   4.649   4.499   0.365  1.1392 -1.7273 -0.0642
  373MOL0     H50293   4.817   4.522   0.422 -0.4002 -0.1489 -1.1490
  373MOL0     H50294   4.827   4.760   0.332 -1.1654  1.5065 -0.6662
  373MOL0     H50295   4.668   4.717   0.251 -1.3455 -3.5459 -2.5666
  373MOL0     H50296   4.921   4.567   0.202  0.4744 -1.2889 -2.7653
  373MOL0     H50297   4.753   4.559   0.109 -0.1609  1.2119 -1.4826
  373MOL0     H50298   4.814   4.775   0.016 -0.3462 -0.4555  0.1374
  373MOL0     H50299   4.946   4.806   0.108 -3.6561  5.1680 -3.5982
  373MOL0     H50300   5.049   4.701  -0.073  0.7575 -1.4703 -0.9399
  373MOL0     H50301   5.036   4.551   0.027 -0.0868 -0.7576  1.7831
  373MOL0     H50302   4.789   4.611  -0.136 -0.5221 -0.6580  1.8636
  373MOL0     H50303   4.875   4.461  -0.102  1.3887 -0.2068 -1.0323
  373MOL0     H50304   4.984   4.651  -0.305  1.2864 -0.1202  0.0745
  373MOL0     H50305   5.045   4.490  -0.246  0.4011  0.8864  3.3098
  373MOL0     H50306   4.899   4.270  -0.384 -1.8896 -0.3737 -1.1211
  373MOL0     H50307   4.659   4.178  -0.489  0.1105 -2.7677 -1.4001
  373MOL0     H50308   4.602   4.302  -0.613  1.5378  1.1246 -1.6360
  373MOL0     H50309   4.865   4.129  -0.617 -0.3378 -1.5582 -0.1104
  373MOL0     H50310   4.736   4.119  -0.728 -0.2218 -0.4657 -0.9134
  373MOL0     H50311   4.954   4.322  -0.676 -2.1946 -0.7655  2.6378
  373MOL0     H50312   4.802   4.375  -0.762 -3.4254 -3.2572  0.1988
  373MOL0     H50313   4.983   4.297  -0.925  2.3257 -0.1906  2.5496
  373MOL0     H50314   4.824   4.214  -0.941  1.0904 -2.1150 -1.1087
  373MOL0     H50315   5.084   4.218  -1.095 -2.2904  0.2001  0.2675
  373MOL0     H50316   5.245   4.122  -1.226 -0.6640  0.7224  1.2787
  373MOL0     H50317   5.570   4.029  -1.433 -1.5793  0.9035 -0.2702
  373MOL0     H50318   5.750   3.925  -1.567 -1.3487  0.7881  0.7963
  373MOL0     H50319   5.766   3.481  -1.591  2.1623 -0.6931  1.2653
  373MOL0     H50320   5.846   3.518  -1.738  1.4526 -3.2371  1.8200
  373MOL0     H50321   5.983   3.663  -1.680 -0.5188 -2.0224 -1.9243
  373MOL0     H50322   5.929   3.698  -1.513 -0.6771 -1.4992  2.2032
  373MOL0     H50323   5.999   3.446  -1.459 -1.5943 -1.2410 -1.6191
  373MOL0     H50324   6.047   3.435  -1.636 -1.8357  2.4633 -2.4747
  373MOL0     H50325   6.168   3.657  -1.479 -0.3931  0.7698 -1.9861
  373MOL0     H50326   6.202   3.578  -1.633 -5.9722 -1.8725 -3.2361
  373MOL0     H50327   6.251   3.376  -1.497  2.8999 -0.4675 -1.6298
  373MOL0     H50328   6.223   3.459  -1.342 -0.1020 -1.9336 -0.5550
  373MOL0     H50329   6.437   3.479  -1.554 -3.2394 -1.1400 -0.3804
  373MOL0     H50330   6.426   3.620  -1.444 -2.0090  0.5067 -2.3700
  373MOL0     H50331   6.479   3.448  -1.262  0.9134 -0.8296  0.5121
  373MOL0     H50332   6.605   3.481  -1.372 -0.3113  1.7098 -0.6047
  373MOL0     H50333   6.448   3.228  -1.346 -0.9589 -2.1828 -1.1181
  373MOL0     H50334   6.508   3.265  -1.506 -0.6563 -1.5678  1.4036
  373MOL0     H50335   5.515   3.571  -1.579  2.1584  1.0547 -1.9390
  373MOL0     H50336   5.362   3.658  -1.405  0.9546 -0.7715  1.2110
  373MOL0     H50337   5.226   3.776  -0.953 -2.9891 -0.9177 -0.4849
  373MOL0     H50338   5.080   3.885  -0.820 -2.5113  0.9599 -0.3128
  373MOL0     H50339   4.909   4.850   0.753 -0.0255  0.1764  0.0556
  373MOL0     H50340   4.832   4.921   0.986 -2.2988  0.2764  0.7163
  373MOL0     H50341   4.610   4.945   1.322  0.5040 -0.0475  0.4934
  373MOL0     H50342   4.548   4.957   1.525  1.8520  3.4275  0.8315
  373MOL0     H50343   4.494   5.071   1.706  1.0233 -3.6117  3.2997
  373MOL0     H50344   4.384   4.953   1.761  1.4010 -0.1118  0.4949
  373MOL0     H50345   4.328   5.262   1.800 -3.5188 -1.1519 -0.9741
  373MOL0     H50346   4.440   5.180   1.901  0.6550  0.9546 -3.1016
  373MOL0     H50347   4.274   5.023   1.982  1.7530  0.4837  2.0839
  373MOL0     H50348   4.160   5.073   1.858  0.6246 -0.5604  0.6596
  373MOL0     H50349   4.133   5.169   2.104  2.0381 -2.8307 -0.1892
  373MOL0     H50350   4.268   5.273   2.071  1.7523 -3.3202  1.6110
  373MOL0     H50351   3.925   5.417   1.846  0.0937  0.1367 -0.0354
  373MOL0     H50352   4.229   5.233   1.422  1.3623  2.6135 -0.2063
  373MOL0     H50353   4.225   5.153   1.074  1.7026  1.1377 -0.9629
  373MOL0     H50354   4.173   5.270   1.195  1.1174  0.9747  0.2241
  373MOL0     H50355   4.307   5.310   1.100 -2.5103  2.0265 -1.9625
  374MOL0     O50356   7.862   3.969   9.630 -0.7735  0.7347  0.0810
  374MOL0     C50357   7.969   3.999   9.679 -0.1296 -0.7615 -0.4585
  374MOL0     O50358   8.073   3.912   9.701 -0.4567  0.2215  0.2504
  374MOL0     C50359   8.075   3.785   9.646 -0.4678 -0.2590 -1.0003
  374MOL0     C50360   8.089   3.781   9.510 -0.8240 -0.0809 -0.0388
  374MOL0     C50361   8.080   3.663   9.448 -0.8652 -0.2785  0.7753
  374MOL0     C50362   8.080   3.544   9.523 -1.8859  0.1004  0.5639
  374MOL0     O50363   8.111   3.427   9.461  0.2142 -0.3982 -0.0838
  374MOL0     C50364   8.183   3.321   9.535 -0.8109  0.5934  0.5067
  374MOL0     C50365   8.082   3.209   9.564  0.3683 -0.9506  0.1407
  374MOL0     C50366   8.120   3.129   9.684 -0.3851 -0.8282  0.0879
  374MOL0     C50367   8.035   2.993   9.674 -0.0892  0.4642 -0.5760
  374MOL0     C50368   7.887   3.018   9.709  0.7649  0.1279  0.5788
  374MOL0     C50369   7.788   2.904   9.693 -0.7273  0.0661  0.1512
  374MOL0     C50370   7.768   2.886   9.541  0.1972  0.3157 -0.2064
  374MOL0     C50371   7.817   2.757   9.481 -0.7778  0.8990  0.1546
  374MOL0     N50372   7.764   2.721   9.348  0.1627 -0.1055 -0.6015
  374MOL0     C50373   7.637   2.738   9.304  0.2689  0.3957 -0.1059
  374MOL0     C50374   7.614   2.639   9.212 -0.0153  0.9482 -0.3717
  374MOL0     C50375   7.482   2.609   9.144 -0.5040  0.0133  0.1869
  374MOL0     C50376   7.376   2.537   9.226  0.2589 -0.1953 -0.7486
  374MOL0     C50377   7.248   2.508   9.149 -0.4476 -0.0676  0.4752
  374MOL0     C50378   7.260   2.462   8.999  0.7011  0.8812  0.9951
  374MOL0     O50379   7.254   2.570   8.904  0.6648  0.2915  0.0610
  374MOL0     C50380   7.312   2.538   8.778  0.9318  0.1182 -0.0315
  374MOL0     C50381   7.226   2.539   8.671 -0.2646  0.0465 -0.2506
  374MOL0     C50382   7.273   2.509   8.545 -1.0930 -1.0250  0.6261
  374MOL0     C50383   7.407   2.482   8.517  0.5912 -0.0818 -0.3106
  374MOL0     C50384   7.444   2.471   8.371 -0.0460  0.1554  1.1480
  374MOL0     O50385   7.535   2.378   8.346 -0.2331 -0.4781  0.3734
  374MOL0     C50386   7.585   2.340   8.217 -0.7314 -0.6917  0.1125
  374MOL0     C50387   7.503   2.291   8.115  0.5249 -0.6508 -0.2233
  374MOL0     C50388   7.561   2.276   7.994 -0.3345 -0.1629  1.0529
  374MOL0     C50389   7.704   2.311   7.966  0.6680  0.3330  0.4389
  374MOL0     O50390   7.771   2.286   7.850  0.3196 -0.6892  0.1204
  374MOL0     C50391   7.718   2.188   7.763  0.0794 -0.6139  0.2740
  374MOL0     C50392   7.824   2.137   7.662 -0.5726 -0.0280 -0.3662
  374MOL0     C50393   7.855   2.253   7.561 -0.2288  0.4646  0.4105
  374MOL0     C50394   7.970   2.201   7.475  0.1912 -0.1588  1.4069
  374MOL0     C50395   8.039   2.297   7.391  0.0435 -0.5581  0.8167
  374MOL0     C50396   8.139   2.228   7.287  0.1943 -0.0795 -0.3693
  374MOL0     C50397   8.257   2.323   7.269 -0.3679  0.3771  0.0191
  374MOL0     C50398   8.299   2.334   7.116 -0.9025  0.1861  0.4172
  374MOL0    Cl50399   8.150   2.380   7.032  0.5724  0.2040  0.1264
  374MOL0     C50400   7.778   2.359   8.074  1.0401 -0.6168 -0.2212
  374MOL0     C50401   7.725   2.365   8.202  0.2461 -0.6150  0.1910
  374MOL0     O50402   7.381   2.528   8.276 -0.1076 -0.2108  0.7867
  374MOL0     C50403   7.491   2.469   8.618 -0.1797  0.1450  0.3347
  374MOL0     C50404   7.447   2.501   8.750 -0.6084  0.5114  0.0118
  374MOL0     N50405   7.728   2.559   9.196 -1.3368  0.5492 -0.1435
  374MOL0     N50406   7.820   2.616   9.270  0.2549  0.2669  0.1743
  374MOL0     C50407   8.062   3.542   9.663 -0.4434 -1.0329 -0.2494
  374MOL0     C50408   8.061   3.672   9.729  0.4685 -0.3159 -0.4128
  374MOL0     C50409   7.980   4.142   9.717 -0.3901  0.7001 -0.4790
  374MOL0     C50410   8.099   4.180   9.775 -0.1269 -0.5051 -0.0163
  374MOL0     C50411   8.116   4.306   9.831  0.1788  0.4261  0.7344
  374MOL0     C50412   8.013   4.397   9.832  0.8013 -0.3785 -0.3240
  374MOL0     O50413   8.023   4.506   9.920 -0.0878 -0.2959  0.5156
  374MOL0     C50414   8.143   4.584   9.908  0.6410 -0.4200 -1.3958
  374MOL0     C50415   8.128   4.727   9.968 -0.5708  0.0756  0.5355
  374MOL0     C50416   8.245   4.822   9.908 -0.4476  1.1278 -0.5420
  374MOL0     C50417   8.219   4.975   9.928 -0.6571 -0.0677 -0.0567
  374MOL0     C50418   8.359   5.037   9.929  0.6267 -0.9405 -0.2448
  374MOL0     C50419   8.471   5.090   9.935  0.3782 -0.4419  0.0006
  374MOL0     C50420   7.898   4.371   9.764 -0.6400  0.1577  0.0720
  374MOL0     C50421   7.878   4.239   9.710 -1.0181 -0.3382 -0.7203
  374MOL0     C50422   7.739   4.220   9.658 -0.0341  0.0545 -0.2081
  374MOL0     H50423   8.121   3.865   9.449 -0.4100  0.3993  0.8366
  374MOL0     H50424   8.102   3.656   9.342 -0.7785 -2.4207  0.8886
  374MOL0     H50425   8.266   3.275   9.480 -2.3047 -1.1038 -0.4084
  374MOL0     H50426   8.220   3.363   9.629 -0.4220 -1.6226  1.4148
  374MOL0     H50427   8.095   3.154   9.470  1.7864  4.8112 -3.5623
  374MOL0     H50428   7.981   3.250   9.565  1.4268  1.8956 -0.0917
  374MOL0     H50429   8.103   3.184   9.777 -2.2336  1.2047 -1.3680
  374MOL0     H50430   8.228   3.113   9.690 -0.6687 -2.8849  0.2969
  374MOL0     H50431   8.041   2.943   9.577  1.2410  0.5642 -0.5686
  374MOL0     H50432   8.071   2.923   9.750 -1.5195 -1.8788 -1.9074
  374MOL0     H50433   7.881   3.064   9.808  2.8349  0.0314  0.7955
  374MOL0     H50434   7.853   3.098   9.643  0.0976 -0.8769 -0.3362
  374MOL0     H50435   7.832   2.812   9.732  1.1494  1.8428  2.4901
  374MOL0     H50436   7.692   2.912   9.744 -1.7414 -3.7391 -0.8554
  374MOL0     H50437   7.797   2.970   9.477 -0.7873  1.5307  0.8859
  374MOL0     H50438   7.660   2.897   9.530 -0.1267  3.6982  3.7858
  374MOL0     H50439   7.925   2.764   9.467 -0.7673 -0.2191 -0.4767
  374MOL0     H50440   7.806   2.675   9.552  3.5344  3.1568  3.9147
  374MOL0     H50441   7.568   2.811   9.345  1.0910 -0.3021  2.7842
  374MOL0     H50442   7.428   2.701   9.120  0.8581  1.9646  3.7954
  374MOL0     H50443   7.510   2.543   9.062 -1.2148  0.4472 -0.4163
  374MOL0     H50444   7.403   2.435   9.255 -0.4374 -0.4426 -0.9484
  374MOL0     H50445   7.365   2.593   9.320  1.4229  1.1007 -1.3463
  374MOL0     H50446   7.193   2.602   9.148  0.8049  0.7170  1.4960
  374MOL0     H50447   7.185   2.435   9.201 -0.9721  1.4307  2.0674
  374MOL0     H50448   7.170   2.402   8.986  2.1367 -1.1335 -0.1237
  374MOL0     H50449   7.349   2.399   8.985  0.8721  0.7989  2.2621
  374MOL0     H50450   7.118   2.548   8.679 -0.2641 -0.0904 -0.0901
  374MOL0     H50451   7.199   2.525   8.468 -0.6894  4.7281  0.9241
  374MOL0     H50452   7.401   2.273   8.146  1.2779  0.3426  3.2242
  374MOL0     H50453   7.493   2.242   7.917 -1.7315  2.5090  0.9699
  374MOL0     H50454   7.683   2.105   7.826  3.3932 -2.6921 -0.3836
  374MOL0     H50455   7.630   2.218   7.706 -0.7335  0.4624  2.0254
  374MOL0     H50456   7.909   2.091   7.713 -2.4200 -4.0959 -0.4903
  374MOL0     H50457   7.789   2.049   7.606 -3.4806 -1.2836  3.0172
  374MOL0     H50458   7.770   2.259   7.493 -0.6170 -1.5757  0.6591
  374MOL0     H50459   7.871   2.346   7.616 -0.5599  1.0333 -0.4452
  374MOL0     H50460   7.922   2.130   7.407 -0.9111  2.1312 -0.3647
  374MOL0     H50461   8.039   2.136   7.529 -0.7885 -0.7478  1.9717
  374MOL0     H50462   8.086   2.360   7.466 -0.3761 -1.6239  2.0166
  374MOL0     H50463   7.966   2.363   7.343 -0.7153  0.5373  3.3076
  374MOL0     H50464   8.188   2.137   7.324 -0.2957  0.4488  1.6876
  374MOL0     H50465   8.078   2.202   7.200  0.4780  1.2336 -0.9820
  374MOL0     H50466   8.340   2.277   7.323 -0.9264 -2.2159 -1.1830
  374MOL0     H50467   8.239   2.426   7.303 -0.2427  0.0778  1.0155
  374MOL0     H50468   8.371   2.415   7.103 -0.7460 -0.4709 -4.4526
  374MOL0     H50469   8.346   2.245   7.074 -2.2256 -1.0046  1.3609
  374MOL0     H50470   7.880   2.391   8.055  0.5564  0.3817 -1.3204
  374MOL0     H50471   7.795   2.398   8.279  2.6115 -2.1880 -1.1467
  374MOL0     H50472   7.599   2.463   8.606 -0.2204  0.3047 -0.1430
  374MOL0     H50473   7.527   2.508   8.823  0.7664 -1.5753 -1.1714
  374MOL0     H50474   8.061   3.453   9.726 -0.6729 -2.1187 -1.7467
  374MOL0     H50475   8.054   3.684   9.836  2.5129 -0.2920 -0.2448
  374MOL0     H50476   8.184   4.112   9.775  0.5879  0.3592 -0.4562
  374MOL0     H50477   8.213   4.330   9.874  0.1742  0.7653  0.5638
  374MOL0     H50478   8.166   4.594   9.802 -1.1366  0.2046 -1.7582
  374MOL0     H50479   8.225   4.540   9.966  2.0309  0.2063 -2.8281
  374MOL0     H50480   8.138   4.729  10.077 -0.7624  1.9266  0.5524
  374MOL0     H50481   8.027   4.761   9.943  0.2119  1.1133 -1.4090
  374MOL0     H50482   8.268   4.785   9.808 -0.5528 -0.1628 -0.1020
  374MOL0     H50483   8.329   4.797   9.973 -3.0207 -2.3107  1.8435
  374MOL0     H50484   8.158   5.008   9.843  0.1612  0.1623 -0.5670
  374MOL0     H50485   8.166   4.995  10.021  1.2959  0.8582  0.9238
  374MOL0     H50486   8.565   5.139   9.944  0.9520 -1.5185  0.0763
  374MOL0     H50487   7.813   4.438   9.775  0.7934  2.4114 -1.7206
  374MOL0     H50488   7.739   4.196   9.552  0.7763 -2.9171  0.3645
  374MOL0     H50489   7.695   4.131   9.703 -0.0331 -1.7959 -3.5654
  374MOL0     H50490   7.668   4.300   9.681  0.4569  0.9185 -1.6069
  375MOL0     O50491   7.165   7.278  10.480 -0.5309  0.7463 -0.8981
  375MOL0     C50492   7.101   7.273  10.381  0.0059 -0.2026  0.5975
  375MOL0     O50493   7.003   7.185  10.338 -0.0252  0.5188  0.5927
  375MOL0     C50494   6.948   7.102  10.439 -0.5018 -0.2095  0.6946
  375MOL0     C50495   7.003   6.972  10.445 -1.0934 -0.8235 -0.6717
  375MOL0     C50496   6.959   6.893  10.554  0.6733 -0.5722  0.1082
  375MOL0     C50497   6.858   6.939  10.647 -0.5668  0.0408  0.0553
  375MOL0     O50498   6.808   6.860  10.745 -0.5700 -0.3398 -0.5287
  375MOL0     C50499   6.757   6.730  10.720  0.2408 -0.5250 -0.9632
  375MOL0     C50500   6.865   6.632  10.759  0.5580  0.6886 -0.6779
  375MOL0     C50501   6.885   6.617  10.916  0.3330  0.4811  0.5969
  375MOL0     C50502   6.944   6.476  10.946 -0.3107 -1.0651 -0.8776
  375MOL0     C50503   6.954   6.456  11.097  0.2452  0.6550 -0.0982
  375MOL0     C50504   6.979   6.314  11.148  0.1485 -0.6817  0.0730
  375MOL0     C50505   6.889   6.198  11.103 -0.3396  0.5003  1.0778
  375MOL0     C50506   6.739   6.218  11.113 -0.8308 -0.2892 -0.5742
  375MOL0     N50507   6.667   6.099  11.062  0.3747 -0.6551  0.3790
  375MOL0     C50508   6.524   6.088  11.055 -0.7505 -0.0719 -0.0591
  375MOL0     C50509   6.503   5.960  11.001 -0.0511 -0.3914 -0.0453
  375MOL0     C50510   6.370   5.886  10.972  0.1893 -0.7287 -1.0280
  375MOL0     C50511   6.340   5.929  10.832  0.9786 -0.2839 -0.4677
  375MOL0     C50512   6.215   5.860  10.781  0.8595 -0.6832  0.7018
  375MOL0     C50513   6.146   5.931  10.657 -0.0921 -0.8726 -1.0552
  375MOL0     O50514   6.254   5.972  10.579 -0.1455 -0.5872 -0.0780
  375MOL0     C50515   6.258   5.935  10.446  0.3663 -0.9976  0.5253
  375MOL0     C50516   6.235   5.804  10.395  0.0974 -0.2857  0.9667
  375MOL0     C50517   6.236   5.775  10.257  0.0973 -1.1580  0.2276
  375MOL0     C50518   6.278   5.881  10.165  0.8531  0.7645 -0.0509
  375MOL0     C50519   6.288   5.858  10.017 -0.4252 -0.5315  0.2956
  375MOL0     O50520   6.327   5.953   9.932  0.3594 -0.0089 -0.8288
  375MOL0     C50521   6.353   5.918   9.804 -0.3822 -0.2083 -0.0107
  375MOL0     C50522   6.258   5.939   9.704 -0.4761  0.8615 -0.1334
  375MOL0     C50523   6.277   5.903   9.569  0.2286 -0.1990 -0.6672
  375MOL0     C50524   6.399   5.850   9.530 -0.6974  0.7729 -1.1631
  375MOL0     O50525   6.423   5.800   9.405 -0.4667  0.8533 -0.5578
  375MOL0     C50526   6.322   5.779   9.307  0.7165  0.3382  1.0571
  375MOL0     C50527   6.371   5.692   9.189  0.2487 -0.1172 -0.4122
  375MOL0     C50528   6.494   5.748   9.111  0.3333 -0.0794 -0.3991
  375MOL0     C50529   6.615   5.652   9.144  0.1718 -0.0455  0.4481
  375MOL0     C50530   6.731   5.668   9.050 -0.0324  0.6465  0.4341
  375MOL0     C50531   6.711   5.565   8.938  0.0121 -0.3229 -0.3491
  375MOL0     C50532   6.797   5.599   8.813 -0.3227 -0.2161 -0.7830
  375MOL0     C50533   6.759   5.515   8.691 -0.2116  0.0153 -0.0465
  375MOL0    Cl50534   6.602   5.568   8.641  0.7847  0.1752  0.1220
  375MOL0     C50535   6.513   5.855   9.618 -0.0817  0.4663 -0.4835
  375MOL0     C50536   6.483   5.882   9.758 -0.8020 -0.6625 -0.0459
  375MOL0     O50537   6.271   5.743   9.996  1.0783 -0.0894  0.3038
  375MOL0     C50538   6.288   6.013  10.213 -0.0572  0.2425  0.4095
  375MOL0     C50539   6.292   6.032  10.353 -0.0851 -0.0908  0.6843
  375MOL0     N50540   6.627   5.909  10.984 -0.3888  0.8033  0.7737
  375MOL0     N50541   6.722   5.986  11.008 -0.6055 -0.7647 -1.0966
  375MOL0     C50542   6.797   7.062  10.624  0.7534  0.7436  0.4869
  375MOL0     C50543   6.846   7.143  10.523  0.9066  0.0421  0.5965
  375MOL0     C50544   7.116   7.395  10.301  0.8986 -0.2918  0.4864
  375MOL0     C50545   7.128   7.515  10.372 -0.7289 -0.4051 -0.6340
  375MOL0     C50546   7.132   7.639  10.303  0.3346 -0.4216 -0.2049
  375MOL0     C50547   7.130   7.643  10.165  0.2514  0.7355  0.4988
  375MOL0     O50548   7.163   7.758  10.089 -0.1336  0.1154 -0.1064
  375MOL0     C50549   7.191   7.887  10.164  0.1348  0.9771 -0.0736
  375MOL0     C50550   7.049   7.950  10.184 -0.9764  0.0456 -0.1878
  375MOL0     C50551   7.061   8.105  10.180 -0.6715 -0.0031 -0.6300
  375MOL0     C50552   6.924   8.176  10.195 -0.5690  0.2732  0.5433
  375MOL0     C50553   6.835   8.158  10.075 -0.2479  0.6157 -0.1968
  375MOL0     C50554   6.769   8.121   9.980 -1.0709  0.0233  1.0781
  375MOL0     C50555   7.119   7.524  10.091  1.6956 -0.9569 -0.4812
  375MOL0     C50556   7.117   7.394  10.160 -0.1852 -0.8192  0.8777
  375MOL0     C50557   7.108   7.271  10.072  0.3678 -1.0888 -0.0605
  375MOL0     H50558   7.082   6.931  10.383  0.9983 -0.1369  1.3816
  375MOL0     H50559   6.998   6.792  10.562  2.0591 -0.2032 -1.4929
  375MOL0     H50560   6.658   6.719  10.766 -0.2701  0.3972 -1.7988
  375MOL0     H50561   6.736   6.719  10.613 -0.2151 -0.2861 -0.9008
  375MOL0     H50562   6.951   6.654  10.694 -1.4358 -0.2318 -3.8935
  375MOL0     H50563   6.813   6.545  10.718  1.1008  0.7430 -1.4977
  375MOL0     H50564   6.792   6.642  10.967  0.2601  0.4319  0.4889
  375MOL0     H50565   6.963   6.689  10.942 -1.7622  2.6650  1.1603
  375MOL0     H50566   6.874   6.411  10.891  0.0366 -1.5326 -0.7743
  375MOL0     H50567   7.045   6.454  10.909 -1.1494 -4.6150 -1.4136
  375MOL0     H50568   7.033   6.521  11.136 -0.0441  0.6609  0.4894
  375MOL0     H50569   6.857   6.486  11.137 -0.6854 -2.1316  0.0079
  375MOL0     H50570   7.075   6.284  11.105  1.4278  3.6712 -0.6694
  375MOL0     H50571   6.991   6.326  11.256  2.9606  0.7319 -0.3081
  375MOL0     H50572   6.924   6.113  11.162  0.5346 -0.1996 -0.3728
  375MOL0     H50573   6.902   6.173  10.997 -0.8567  0.9327  0.9061
  375MOL0     H50574   6.725   6.231  11.221  4.9508  0.8881  0.3769
  375MOL0     H50575   6.703   6.315  11.076  1.9654  1.6729  1.3967
  375MOL0     H50576   6.461   6.171  11.086  2.5932  1.5650  3.2582
  375MOL0     H50577   6.359   5.783  11.006  1.0899 -0.4311  0.2206
  375MOL0     H50578   6.295   5.939  11.033  0.0723  0.7191 -2.3548
  375MOL0     H50579   6.318   6.036  10.822 -3.9878 -1.0370 -0.4168
  375MOL0     H50580   6.417   5.894  10.763  1.3002 -1.3257  0.4077
  375MOL0     H50581   6.146   5.866  10.866 -2.8206  1.9103 -2.1125
  375MOL0     H50582   6.237   5.755  10.759 -0.3485 -1.1065  1.3873
  375MOL0     H50583   6.097   6.025  10.681  0.7222  0.0257 -2.7257
  375MOL0     H50584   6.071   5.870  10.606  2.5214 -2.3169 -3.5310
  375MOL0     H50585   6.194   5.726  10.458 -0.8038 -0.7072 -0.0944
  375MOL0     H50586   6.213   5.677  10.218 -0.3296 -1.3177  0.8669
  375MOL0     H50587   6.154   5.958   9.728  0.1113  0.1221  3.6450
  375MOL0     H50588   6.191   5.899   9.503 -2.6985  0.2288  2.8279
  375MOL0     H50589   6.231   5.734   9.347 -0.2841  0.8824 -0.5083
  375MOL0     H50590   6.300   5.878   9.266  2.9677 -0.2417 -1.8392
  375MOL0     H50591   6.389   5.591   9.227  3.4661 -0.1527 -1.7414
  375MOL0     H50592   6.291   5.683   9.114 -1.0021 -4.6476  1.1168
  375MOL0     H50593   6.486   5.740   9.003  0.4317 -2.4248 -0.2792
  375MOL0     H50594   6.520   5.853   9.128  1.8362 -0.6232  1.0008
  375MOL0     H50595   6.571   5.553   9.132 -2.9810  1.2295  0.3760
  375MOL0     H50596   6.637   5.674   9.249 -1.3477 -0.7883  0.9506
  375MOL0     H50597   6.830   5.642   9.090 -0.1697  0.8052  0.8821
  375MOL0     H50598   6.740   5.772   9.017 -1.6001  0.8176  0.4831
  375MOL0     H50599   6.743   5.464   8.964  0.8373  0.3884  1.5145
  375MOL0     H50600   6.606   5.568   8.907 -0.2856 -0.1844  0.6615
  375MOL0     H50601   6.902   5.579   8.836 -0.1739  0.3708 -0.9176
  375MOL0     H50602   6.794   5.707   8.792  0.7216  1.0863  4.4335
  375MOL0     H50603   6.841   5.536   8.621 -1.5423 -2.1086 -2.4278
  375MOL0     H50604   6.753   5.407   8.710 -4.8234  0.2371  0.7694
  375MOL0     H50605   6.606   5.809   9.587 -0.5752 -0.7818 -0.1495
  375MOL0     H50606   6.564   5.877   9.830 -0.6424  0.1123 -0.1684
  375MOL0     H50607   6.303   6.101  10.151  3.1304 -1.4294 -1.5438
  375MOL0     H50608   6.308   6.125  10.405 -2.2136  0.1067  1.0788
  375MOL0     H50609   6.729   7.090  10.704  1.6687  0.7145  1.3040
  375MOL0     H50610   6.787   7.232  10.504  1.3978  0.3778  0.6510
  375MOL0     H50611   7.123   7.513  10.480  2.2891  0.6633 -0.3917
  375MOL0     H50612   7.137   7.724  10.370 -0.4220  0.2870 -1.0212
  375MOL0     H50613   7.254   7.940  10.091  0.8295 -1.4560 -1.3657
  375MOL0     H50614   7.250   7.875  10.256  0.6722 -0.1777 -0.5495
  375MOL0     H50615   7.009   7.921  10.282  1.0664 -1.8969  0.1415
  375MOL0     H50616   6.972   7.922  10.112 -0.2785  0.3857 -1.0839
  375MOL0     H50617   7.099   8.129  10.080  2.4069 -2.1434 -0.1259
  375MOL0     H50618   7.137   8.137  10.251  1.3804 -2.6349 -1.4632
  375MOL0     H50619   6.870   8.148  10.286 -2.3565  3.5034  0.6422
  375MOL0     H50620   6.949   8.282  10.211 -2.2831  0.3658  3.1742
  375MOL0     H50621   6.724   8.099   9.885  0.6968  0.2279  0.1659
  375MOL0     H50622   7.113   7.527   9.983 -1.0768 -0.5584 -0.3943
  375MOL0     H50623   7.004   7.241  10.086 -1.5570  4.3908 -0.3507
  375MOL0     H50624   7.128   7.294   9.967  0.8167 -3.4622 -0.5530
  375MOL0     H50625   7.170   7.189  10.109  1.6355  0.2190  0.8410
  376MOL0     O50626  10.288   1.672   4.386 -0.1394  0.2604 -0.1260
  376MOL0     C50627  10.262   1.570   4.327 -0.5463 -0.0575 -0.7448
  376MOL0     O50628  10.201   1.556   4.209  0.1134 -0.4772 -0.6201
  376MOL0     C50629  10.125   1.650   4.144 -0.0817  0.7817 -0.1309
  376MOL0     C50630  10.099   1.609   4.007  0.3137  0.0970 -0.8232
  376MOL0     C50631  10.043   1.707   3.917  0.1736  0.3502 -0.3733
  376MOL0     C50632  10.010   1.827   3.974 -0.6038  0.5928 -0.0760
  376MOL0     O50633   9.945   1.928   3.908  0.1738  0.0327 -0.4095
  376MOL0     C50634   9.985   1.958   3.776 -0.2201 -0.4425  0.9459
  376MOL0     C50635  10.123   2.026   3.770  0.0075 -0.3345 -0.5970
  376MOL0     C50636  10.125   2.180   3.801 -0.6640 -0.1271 -0.7868
  376MOL0     C50637  10.257   2.238   3.872  0.1368  0.0018  0.5337
  376MOL0     C50638  10.233   2.386   3.912  0.5246 -1.0402 -0.1557
  376MOL0     C50639  10.364   2.445   3.969 -0.2628 -0.5931  0.1616
  376MOL0     C50640  10.398   2.396   4.107  0.4825 -0.2784  0.8664
  376MOL0     C50641  10.524   2.444   4.166  0.8060  0.4011 -0.0615
  376MOL0     N50642  10.645   2.413   4.084 -0.5572  0.1116  0.4661
  376MOL0     C50643  10.687   2.290   4.048 -0.0959 -0.3560  0.0639
  376MOL0     C50644  10.810   2.300   3.989 -0.0667  0.8016 -0.6663
  376MOL0     C50645  10.905   2.178   3.960  0.0739  0.1378  0.3524
  376MOL0     C50646  10.856   2.054   4.030  0.0687  1.1256  0.0629
  376MOL0     C50647  10.952   1.939   4.005 -1.3238  0.1147  0.2206
  376MOL0     C50648  10.917   1.847   3.895 -0.3062 -0.8630 -0.8723
  376MOL0     O50649  11.026   1.806   3.814 -0.6202  0.7870  0.4414
  376MOL0     C50650  11.074   1.677   3.821  0.1480  0.1391 -0.7341
  376MOL0     C50651  11.126   1.625   3.708 -0.2032  0.0717  0.7909
  376MOL0     C50652  11.184   1.492   3.710 -0.7670 -0.3526 -0.4608
  376MOL0     C50653  11.189   1.415   3.827 -0.4623  0.0336 -0.1524
  376MOL0     C50654  11.260   1.285   3.838  0.2680  0.3120  0.1355
  376MOL0     O50655  11.260   1.231   3.962 -0.1130 -0.9791 -0.5964
  376MOL0     C50656  11.297   1.099   3.982  0.4417 -0.7966  0.0675
  376MOL0     C50657  11.237   1.000   3.914 -0.4756 -0.5051 -0.7290
  376MOL0     C50658  11.273   0.868   3.924 -0.2552 -0.3789  1.4180
  376MOL0     C50659  11.378   0.838   4.010 -0.0544  0.9365 -0.9300
  376MOL0     O50660  11.421   0.709   4.044 -0.6494 -0.1969 -0.1664
  376MOL0     C50661  11.434   0.598   3.948  0.0050 -0.4922 -0.3776
  376MOL0     C50662  11.545   0.628   3.855 -0.9364 -0.8222  0.4903
  376MOL0     C50663  11.677   0.611   3.930  0.3850 -0.7291 -0.4618
  376MOL0     C50664  11.753   0.484   3.880 -0.0717  0.7072  0.2028
  376MOL0     C50665  11.900   0.480   3.937  0.0999 -0.1313  0.8794
  376MOL0     C50666  11.978   0.349   3.916 -0.5266 -0.0845 -0.2492
  376MOL0     C50667  12.125   0.366   3.962 -0.8344  0.2254  0.7230
  376MOL0     C50668  12.213   0.233   3.948  0.1345 -1.0602  0.1099
  376MOL0    Cl50669  12.113   0.093   3.998  0.0456 -0.4220  0.0535
  376MOL0     C50670  11.454   0.943   4.073 -0.1396 -0.3628  0.1008
  376MOL0     C50671  11.410   1.075   4.059  0.2613  0.0335  0.4329
  376MOL0     O50672  11.326   1.235   3.739  0.2197  0.1568  0.1011
  376MOL0     C50673  11.133   1.473   3.942  0.9025 -0.4853  0.1258
  376MOL0     C50674  11.074   1.603   3.936  0.5250 -0.0060 -0.3016
  376MOL0     N50675  10.839   2.432   3.987  0.4220  0.1345  0.1834
  376MOL0     N50676  10.733   2.503   4.026 -0.5784  1.3322 -0.1886
  376MOL0     C50677  10.023   1.865   4.109  0.1652  0.3064  0.3658
  376MOL0     C50678  10.088   1.774   4.185  0.1197  0.2058 -0.5075
  376MOL0     C50679  10.318   1.453   4.389 -0.2019 -0.5507  0.6914
  376MOL0     C50680  10.413   1.469   4.492 -0.3958  0.2892 -0.5448
  376MOL0     C50681  10.476   1.348   4.549 -0.5050  0.4531 -0.2676
  376MOL0     C50682  10.422   1.215   4.529  0.3245 -0.1429  0.2587
  376MOL0     O50683  10.461   1.092   4.584 -0.1465 -0.6833 -0.2560
  376MOL0     C50684  10.561   1.087   4.689 -0.2502 -1.1461 -0.3960
  376MOL0     C50685  10.631   0.959   4.668 -0.4870  0.2066  0.3159
  376MOL0     C50686  10.748   0.949   4.766  0.2626 -0.3277  0.0041
  376MOL0     C50687  10.797   0.797   4.778  0.0261  0.1539 -0.3226
  376MOL0     C50688  10.704   0.728   4.862  0.5531 -1.1495  0.6067
  376MOL0     C50689  10.631   0.686   4.952 -1.1107  0.3767 -0.1731
  376MOL0     C50690  10.324   1.210   4.431 -0.5396  0.6651 -0.4629
  376MOL0     C50691  10.269   1.323   4.363 -1.4811 -1.4326 -0.0645
  376MOL0     C50692  10.161   1.290   4.252 -0.3360 -0.1448 -0.3104
  376MOL0     H50693  10.139   1.512   3.981  2.4547  1.1309 -1.6451
  376MOL0     H50694  10.048   1.690   3.809  2.2124 -1.3578 -0.0731
  376MOL0     H50695  10.000   1.869   3.715  0.8332 -0.0767  0.6339
  376MOL0     H50696   9.914   2.022   3.723  0.0894  0.2060  1.2978
  376MOL0     H50697  10.150   2.025   3.664  0.3765  0.5740 -0.5230
  376MOL0     H50698  10.200   1.967   3.821  0.2267 -0.5496 -1.1701
  376MOL0     H50699  10.043   2.206   3.869 -0.3419 -0.2685 -0.3315
  376MOL0     H50700  10.115   2.233   3.706 -1.0722  2.4220  0.5918
  376MOL0     H50701  10.291   2.184   3.961  0.3362  0.8359  0.9737
  376MOL0     H50702  10.336   2.245   3.796  1.1781 -1.7440  1.3967
  376MOL0     H50703  10.194   2.444   3.828 -0.1515 -0.8446  0.2832
  376MOL0     H50704  10.149   2.393   3.981  0.4768  1.8983 -0.3768
  376MOL0     H50705  10.449   2.411   3.909  0.5388  0.4977  0.6429
  376MOL0     H50706  10.355   2.554   3.981  0.8522 -0.7816  3.7513
  376MOL0     H50707  10.410   2.288   4.097  2.2997 -0.0260 -0.0843
  376MOL0     H50708  10.315   2.424   4.172  1.1929  3.2552  0.4533
  376MOL0     H50709  10.522   2.550   4.195 -0.7038  0.8494 -1.6134
  376MOL0     H50710  10.521   2.389   4.261 -0.4447 -1.7055 -1.2447
  376MOL0     H50711  10.646   2.195   4.081  0.7566 -1.2571 -1.3810
  376MOL0     H50712  10.898   2.165   3.851 -2.9467  1.7241  0.2342
  376MOL0     H50713  11.008   2.193   3.994 -0.9708  1.4650  3.2263
  376MOL0     H50714  10.833   2.073   4.135 -0.2886 -1.4792  0.5342
  376MOL0     H50715  10.758   2.022   3.994 -0.0194 -0.5218  1.6030
  376MOL0     H50716  10.966   1.884   4.098  1.6944  0.5775  0.1413
  376MOL0     H50717  11.056   1.969   3.991 -1.0200 -0.9848  0.0405
  376MOL0     H50718  10.841   1.898   3.836  0.1149 -0.7258 -1.3024
  376MOL0     H50719  10.862   1.762   3.938 -0.5857  0.1084  0.7751
  376MOL0     H50720  11.110   1.687   3.621 -0.0122  0.9881  1.3956
  376MOL0     H50721  11.233   1.449   3.623 -1.6590 -0.2885 -1.0150
  376MOL0     H50722  11.145   1.027   3.863 -1.9619 -2.9693  0.4537
  376MOL0     H50723  11.211   0.793   3.875 -1.7637  1.1209  0.9484
  376MOL0     H50724  11.431   0.500   3.995 -2.1195 -0.3425 -0.1333
  376MOL0     H50725  11.343   0.592   3.888 -0.0799 -3.1982 -0.0950
  376MOL0     H50726  11.532   0.553   3.777  0.5759 -1.9154  1.2184
  376MOL0     H50727  11.547   0.727   3.809  0.7932 -1.7352 -1.5685
  376MOL0     H50728  11.747   0.695   3.920 -0.0676 -0.2726  0.1372
  376MOL0     H50729  11.657   0.603   4.037 -0.8003  0.5103 -0.5596
  376MOL0     H50730  11.740   0.487   3.772  2.0590  1.9509 -0.0642
  376MOL0     H50731  11.702   0.389   3.904 -0.9919  0.9265 -0.8301
  376MOL0     H50732  11.898   0.510   4.042 -0.5063  2.9833  0.0863
  376MOL0     H50733  11.945   0.556   3.872  0.5333 -2.4467 -1.6993
  376MOL0     H50734  11.940   0.270   3.982  3.7366 -1.9860  0.2865
  376MOL0     H50735  11.982   0.310   3.814 -0.0249 -0.8841  0.0644
  376MOL0     H50736  12.137   0.392   4.068 -1.5103  0.3560  0.7665
  376MOL0     H50737  12.169   0.435   3.890  0.2301 -1.4545 -0.3026
  376MOL0     H50738  12.245   0.228   3.843 -0.9808 -1.3876 -0.2191
  376MOL0     H50739  12.296   0.242   4.019 -0.5265 -0.4657  0.8178
  376MOL0     H50740  11.532   0.915   4.143  0.5823 -1.3180 -1.0430
  376MOL0     H50741  11.460   1.150   4.119 -1.0609  0.2209  1.3353
  376MOL0     H50742  11.144   1.425   4.039  1.6476  1.4521  1.0387
  376MOL0     H50743  11.037   1.652   4.026  1.5572  0.8254 -0.3120
  376MOL0     H50744   9.982   1.959   4.144  0.5333  0.3188  0.7807
  376MOL0     H50745  10.104   1.796   4.290 -0.9924 -1.8858  0.1514
  376MOL0     H50746  10.455   1.568   4.507  0.8853 -0.1712 -0.9340
  376MOL0     H50747  10.561   1.353   4.616 -2.1879 -1.7424  2.2147
  376MOL0     H50748  10.507   1.090   4.784  0.2367  2.0320 -0.0875
  376MOL0     H50749  10.631   1.171   4.689 -2.5056  0.8700 -1.8046
  376MOL0     H50750  10.667   0.947   4.565 -4.5082 -2.0401 -1.0485
  376MOL0     H50751  10.564   0.874   4.682 -0.2050 -0.3316 -1.3612
  376MOL0     H50752  10.715   0.968   4.868 -0.7917 -2.8312  0.1848
  376MOL0     H50753  10.831   1.012   4.732 -1.8215  0.9841 -3.0791
  376MOL0     H50754  10.800   0.743   4.683  2.8831 -1.4561  0.5488
  376MOL0     H50755  10.890   0.800   4.836  0.0265 -1.6465 -0.1809
  376MOL0     H50756  10.574   0.640   5.030 -2.2093  0.6089 -0.8065
  376MOL0     H50757  10.274   1.116   4.410  0.5485 -0.0368 -0.0033
  376MOL0     H50758  10.064   1.332   4.278  0.2480 -0.7387  3.2663
  376MOL0     H50759  10.222   1.318   4.165  1.9215  2.7221  1.9847
  376MOL0     H50760  10.127   1.187   4.238 -2.0830  0.0444  1.9476
  377MOL0     O50761   4.869   2.167   5.225  0.2269 -0.0539  0.1532
  377MOL0     C50762   4.824   2.224   5.131  0.1905 -0.2118  0.2153
  377MOL0     O50763   4.793   2.362   5.128  0.0609  0.3351 -0.3986
  377MOL0     C50764   4.885   2.458   5.175  0.1401 -0.0763 -0.3241
  377MOL0     C50765   5.009   2.436   5.252  0.2788 -0.2935 -0.4540
  377MOL0     C50766   5.083   2.540   5.303  0.4825 -0.6864 -0.3708
  377MOL0     C50767   5.024   2.673   5.301 -0.0211 -0.3804 -0.0491
  377MOL0     O50768   5.098   2.776   5.348  0.5074 -0.5844  0.2329
  377MOL0     C50769   5.155   2.777   5.478 -0.0168  0.3099 -0.6308
  377MOL0     C50770   5.119   2.888   5.571 -0.0432 -0.1564  0.3668
  377MOL0     C50771   5.085   3.018   5.502  0.2954  0.3684 -0.1113
  377MOL0     C50772   5.206   3.078   5.435  0.2003 -0.8587 -0.2142
  377MOL0     C50773   5.183   3.214   5.381  0.2777  0.1628 -0.4506
  377MOL0     C50774   5.082   3.223   5.277  0.1539 -0.0000  1.0098
  377MOL0     C50775   5.081   3.127   5.165  0.7335  0.5628  0.4171
  377MOL0     C50776   5.215   3.113   5.089  0.7484 -0.9215 -0.5960
  377MOL0     N50777   5.206   2.999   5.009 -0.4848 -0.0451 -0.0700
  377MOL0     C50778   5.111   2.897   5.017  1.0230 -0.4050 -0.5215
  377MOL0     C50779   5.129   2.830   4.905 -0.5990  0.7096  0.0782
  377MOL0     C50780   5.073   2.706   4.876 -0.1776  0.4741  0.8680
  377MOL0     C50781   4.957   2.717   4.779 -0.3690 -0.2470 -0.8043
  377MOL0     C50782   4.845   2.817   4.821  0.4214  0.1489 -0.3856
  377MOL0     C50783   4.723   2.811   4.721  0.4066  0.2688 -0.2066
  377MOL0     O50784   4.614   2.899   4.767  0.1277  0.1889  0.3317
  377MOL0     C50785   4.611   3.014   4.694  0.4339 -0.4577  0.2004
  377MOL0     C50786   4.545   3.024   4.572  0.3194 -0.2123 -1.2460
  377MOL0     C50787   4.551   3.143   4.498 -0.1557  0.2324 -0.1891
  377MOL0     C50788   4.638   3.253   4.533 -0.3860 -0.3256 -0.7492
  377MOL0     C50789   4.668   3.366   4.436 -0.3675 -0.1091 -0.9323
  377MOL0     O50790   4.620   3.343   4.307  0.5457 -0.3466  0.2983
  377MOL0     C50791   4.629   3.440   4.217  0.4130 -0.7672  0.9401
  377MOL0     C50792   4.752   3.519   4.197 -1.0875 -0.0023  0.2984
  377MOL0     C50793   4.756   3.617   4.102 -0.2216 -0.3187  0.1388
  377MOL0     C50794   4.647   3.634   4.009 -1.1779  0.1374  0.1664
  377MOL0     O50795   4.655   3.711   3.891 -0.3464  0.0428  0.1425
  377MOL0     C50796   4.747   3.819   3.887  0.7820  0.0582 -0.5190
  377MOL0     C50797   4.862   3.775   3.798 -0.1416 -0.2152 -0.0341
  377MOL0     C50798   4.967   3.883   3.791 -0.8774 -0.0282 -0.3987
  377MOL0     C50799   5.050   3.915   3.912  0.4114  0.1184  0.2542
  377MOL0     C50800   5.174   4.003   3.867 -0.1061  0.8618 -0.1358
  377MOL0     C50801   5.297   4.027   3.969  0.0553  0.9484  0.0609
  377MOL0     C50802   5.433   4.046   3.891  0.8338 -0.4309  0.1256
  377MOL0     C50803   5.554   4.041   3.973 -1.6374  1.2721 -0.0340
  377MOL0    Cl50804   5.579   3.865   4.026  0.3846  0.1171 -0.4379
  377MOL0     C50805   4.530   3.554   4.028 -0.2590 -0.3200  0.1458
  377MOL0     C50806   4.520   3.461   4.136 -1.0897  0.0037 -0.0731
  377MOL0     O50807   4.723   3.472   4.474  0.3189 -0.4139 -0.3136
  377MOL0     C50808   4.703   3.241   4.662  0.1225 -0.0260  0.7005
  377MOL0     C50809   4.678   3.128   4.741  0.2554  0.8844 -0.3016
  377MOL0     N50810   5.229   2.885   4.827  0.3396  0.2721  0.3433
  377MOL0     N50811   5.281   2.980   4.898  0.2191 -0.1002 -0.1542
  377MOL0     C50812   4.900   2.694   5.233 -0.2711  0.0785  0.0500
  377MOL0     C50813   4.831   2.586   5.170 -0.1367 -1.5130 -0.2497
  377MOL0     C50814   4.763   2.145   5.025  0.0036 -0.5073 -0.1286
  377MOL0     C50815   4.671   2.041   5.049  0.5507  0.4172 -0.7426
  377MOL0     C50816   4.601   1.967   4.946  0.2254  0.0884 -0.1968
  377MOL0     C50817   4.612   2.010   4.813  0.0995 -0.2627  1.0256
  377MOL0     O50818   4.534   1.959   4.711  0.1035 -0.5599  0.5137
  377MOL0     C50819   4.423   1.880   4.735 -0.0666 -0.5287 -0.6600
  377MOL0     C50820   4.298   1.943   4.800 -0.2355 -0.5697  0.4004
  377MOL0     C50821   4.253   2.068   4.721  0.2427  1.8336 -0.2474
  377MOL0     C50822   4.188   2.030   4.591 -0.7657  0.3545  0.1265
  377MOL0     C50823   4.175   2.143   4.496  0.6130  0.3839  0.0076
  377MOL0     C50824   4.152   2.232   4.417  0.3123 -0.2478 -0.5076
  377MOL0     C50825   4.697   2.123   4.790  0.0931 -0.5061 -0.5900
  377MOL0     C50826   4.778   2.180   4.892 -0.4296 -0.9915  0.3452
  377MOL0     C50827   4.890   2.270   4.848  0.2641  0.0897 -0.1268
  377MOL0     H50828   5.054   2.339   5.270  2.6692  0.8340 -0.0764
  377MOL0     H50829   5.181   2.520   5.345  0.9194  0.2032 -0.9428
  377MOL0     H50830   5.136   2.687   5.537  3.1258  0.4532  0.8287
  377MOL0     H50831   5.264   2.779   5.462  0.0573 -1.8661 -0.7172
  377MOL0     H50832   5.198   2.905   5.645 -1.1095  1.9391  1.1008
  377MOL0     H50833   5.035   2.852   5.630  1.3576 -0.3411  2.3671
  377MOL0     H50834   5.045   3.086   5.577  0.3389 -1.5193  1.7221
  377MOL0     H50835   4.994   3.014   5.442 -0.6643  3.7372  0.9354
  377MOL0     H50836   5.284   3.094   5.510 -0.4789  2.4242 -0.0874
  377MOL0     H50837   5.253   3.014   5.359 -0.7357 -0.1663 -1.4145
  377MOL0     H50838   5.176   3.280   5.469  0.1195 -3.0870  2.1835
  377MOL0     H50839   5.280   3.235   5.337 -0.3346 -1.2085 -2.5809
  377MOL0     H50840   4.984   3.210   5.323 -1.7922 -1.4871 -3.1167
  377MOL0     H50841   5.078   3.321   5.228  0.2797 -1.2020 -1.5406
  377MOL0     H50842   4.990   3.141   5.107  0.0064 -4.0970  0.0134
  377MOL0     H50843   5.064   3.027   5.208  2.0736  0.9635  2.0327
  377MOL0     H50844   5.243   3.200   5.029  0.2359  0.5336  1.1884
  377MOL0     H50845   5.291   3.101   5.167  0.8543  2.9178  0.0816
  377MOL0     H50846   5.034   2.863   5.085  0.4137  0.9993 -0.4823
  377MOL0     H50847   5.142   2.642   4.821 -1.1038 -1.0481  1.4393
  377MOL0     H50848   5.057   2.662   4.974  3.9855 -1.6123  0.8357
  377MOL0     H50849   4.985   2.741   4.676 -3.8759 -3.1287 -2.6668
  377MOL0     H50850   4.930   2.611   4.789  5.1570 -1.8513  1.0788
  377MOL0     H50851   4.888   2.918   4.816 -0.9766  0.8506  0.8430
  377MOL0     H50852   4.821   2.803   4.927  1.5628  1.3796  0.0593
  377MOL0     H50853   4.690   2.707   4.711  0.4172  0.4952 -3.7110
  377MOL0     H50854   4.759   2.842   4.623  0.8621  2.0317  0.4799
  377MOL0     H50855   4.484   2.942   4.535  0.5102 -1.1037  0.2839
  377MOL0     H50856   4.504   3.153   4.400  0.4710 -0.7059 -0.5981
  377MOL0     H50857   4.843   3.506   4.254 -1.8998 -0.2590  1.5635
  377MOL0     H50858   4.851   3.657   4.072  1.1105 -0.7642  3.3274
  377MOL0     H50859   4.696   3.902   3.837  2.6663  1.0553 -0.8532
  377MOL0     H50860   4.777   3.843   3.989 -0.2612 -0.0760 -0.1611
  377MOL0     H50861   4.907   3.684   3.839  0.1032 -0.4550 -0.8185
  377MOL0     H50862   4.827   3.753   3.697 -2.1342 -2.5620  1.0829
  377MOL0     H50863   5.041   3.857   3.715  2.2696 -0.9546  2.7308
  377MOL0     H50864   4.913   3.972   3.756 -2.7345 -0.8511  0.2131
  377MOL0     H50865   5.080   3.830   3.976 -0.5077 -0.2721  0.1849
  377MOL0     H50866   4.987   3.976   3.977  0.9915  0.5392  0.4320
  377MOL0     H50867   5.142   4.103   3.836 -0.5814  1.7216  2.8502
  377MOL0     H50868   5.220   3.949   3.783 -2.5139 -0.9406 -0.3954
  377MOL0     H50869   5.269   4.115   4.027 -2.2016  2.5404 -3.1629
  377MOL0     H50870   5.297   3.932   4.023 -1.0664  0.8510 -0.0991
  377MOL0     H50871   5.428   4.141   3.837  0.3481  0.1921  1.2279
  377MOL0     H50872   5.438   3.978   3.805 -2.2289  2.0335 -2.2411
  377MOL0     H50873   5.644   4.082   3.925 -0.9024  0.6107  0.7463
  377MOL0     H50874   5.534   4.094   4.067 -2.0722 -0.3645  0.8385
  377MOL0     H50875   4.440   3.573   3.969  1.9383  3.2423 -2.4750
  377MOL0     H50876   4.429   3.412   4.169 -0.6329 -0.5986  0.3225
  377MOL0     H50877   4.767   3.323   4.693 -2.9221  2.2944  1.3798
  377MOL0     H50878   4.735   3.127   4.834 -1.4098 -2.9561  0.8817
  377MOL0     H50879   4.870   2.797   5.216 -0.5133 -0.2360 -1.5385
  377MOL0     H50880   4.736   2.602   5.121 -0.1370 -2.9486 -0.7738
  377MOL0     H50881   4.644   2.027   5.153 -1.9394 -1.4554 -1.5410
  377MOL0     H50882   4.527   1.894   4.975  2.3801 -1.8612  0.7271
  377MOL0     H50883   4.444   1.799   4.804  1.8811  1.5203  1.3233
  377MOL0     H50884   4.403   1.841   4.635 -2.6376 -0.6825 -0.1717
  377MOL0     H50885   4.308   1.978   4.903  3.7901 -0.3016  0.0910
  377MOL0     H50886   4.218   1.869   4.790 -1.5060  0.8295 -0.1548
  377MOL0     H50887   4.335   2.140   4.726 -0.1340  2.2319  4.2418
  377MOL0     H50888   4.163   2.101   4.773 -2.3003 -2.8193 -1.0860
  377MOL0     H50889   4.245   1.954   4.537 -1.8028 -0.1989 -0.2099
  377MOL0     H50890   4.085   1.998   4.613 -0.5063  1.9423  4.8613
  377MOL0     H50891   4.123   2.316   4.356 -4.2901  0.2872  1.9564
  377MOL0     H50892   4.694   2.158   4.688  0.0963 -3.1493 -1.5824
  377MOL0     H50893   4.990   2.241   4.880  0.3186  1.0915  0.6743
  377MOL0     H50894   4.889   2.292   4.740 -1.8218 -1.5008 -0.5092
  377MOL0     H50895   4.867   2.371   4.884 -0.3923  0.5563 -1.7368
  378MOL0     O50896   8.473   0.498   3.700 -0.6458 -0.2199  0.0448
  378MOL0     C50897   8.515   0.510   3.584  0.9249  0.3267 -0.1242
  378MOL0     O50898   8.468   0.611   3.500 -0.2899  0.7904  0.0597
  378MOL0     C50899   8.368   0.696   3.520 -0.1899  0.1904 -0.2817
  378MOL0     C50900   8.297   0.718   3.638  0.3577 -0.5357 -0.0605
  378MOL0     C50901   8.192   0.806   3.645 -0.3436  0.8571 -0.0161
  378MOL0     C50902   8.151   0.876   3.533  0.3594  1.1665  0.4466
  378MOL0     O50903   8.038   0.950   3.528 -0.1858  0.8185 -0.2987
  378MOL0     C50904   8.036   1.086   3.588  0.7320  0.7314 -0.0442
  378MOL0     C50905   8.138   1.184   3.530 -0.2218 -0.5023 -0.0346
  378MOL0     C50906   8.121   1.327   3.581 -0.9630  0.0843  0.2725
  378MOL0     C50907   8.109   1.336   3.737  0.1001 -1.2693 -0.6122
  378MOL0     C50908   8.105   1.485   3.784  0.6325 -0.2411 -0.8118
  378MOL0     C50909   8.141   1.491   3.927 -0.8349 -0.0433 -0.3713
  378MOL0     C50910   8.011   1.463   4.008 -1.0815  0.3861 -0.5150
  378MOL0     C50911   8.048   1.457   4.160 -0.6944 -0.2069  0.2856
  378MOL0     N50912   7.943   1.410   4.249  1.0857 -0.3583 -0.8672
  378MOL0     C50913   7.844   1.319   4.214  0.9622  0.5320  0.3671
  378MOL0     C50914   7.759   1.319   4.320 -0.3626 -0.1060 -0.1068
  378MOL0     C50915   7.631   1.242   4.308 -0.1553 -0.1361  0.3313
  378MOL0     C50916   7.519   1.298   4.397  0.3588  0.1628  0.1873
  378MOL0     C50917   7.393   1.205   4.374  0.4318 -0.5615  0.8534
  378MOL0     C50918   7.270   1.266   4.438 -0.7245 -1.4704  0.3817
  378MOL0     O50919   7.214   1.363   4.349 -0.0783  0.5040 -0.8925
  378MOL0     C50920   7.091   1.417   4.384 -0.1825 -0.5047  0.1353
  378MOL0     C50921   7.018   1.490   4.291  0.3364  0.4700 -0.2872
  378MOL0     C50922   6.913   1.569   4.334  0.6358 -0.5843  0.2045
  378MOL0     C50923   6.877   1.580   4.467 -0.4089 -0.5586  0.0802
  378MOL0     C50924   6.777   1.684   4.503 -0.8543 -0.6150  0.1170
  378MOL0     O50925   6.686   1.653   4.599  0.5512 -1.2039 -0.5943
  378MOL0     C50926   6.598   1.748   4.659  0.4855  0.4924  1.0224
  378MOL0     C50927   6.462   1.719   4.659  0.2850  0.9289  0.1519
  378MOL0     C50928   6.376   1.810   4.716 -0.0065  0.4700  1.2764
  378MOL0     C50929   6.411   1.937   4.758  0.2677  1.0157  0.5041
  378MOL0     O50930   6.313   2.012   4.815  0.6367 -0.2352  0.5536
  378MOL0     C50931   6.316   2.149   4.771  0.7847  0.5684 -0.2024
  378MOL0     C50932   6.218   2.228   4.859 -0.7128  0.9861 -0.0879
  378MOL0     C50933   6.242   2.224   5.011 -1.0103 -0.5499  0.2373
  378MOL0     C50934   6.133   2.307   5.083 -0.0696  0.0524 -0.5145
  378MOL0     C50935   6.153   2.355   5.219 -1.1850 -0.7736  0.0193
  378MOL0     C50936   6.031   2.432   5.258 -0.0354  0.0300  0.6359
  378MOL0     C50937   6.034   2.456   5.410 -0.0805 -0.0541 -0.8698
  378MOL0     C50938   5.909   2.441   5.488  1.3135  0.8228  0.2727
  378MOL0    Cl50939   5.838   2.287   5.452 -0.4670  0.0791  0.3207
  378MOL0     C50940   6.549   1.971   4.759  0.3560 -0.8170 -0.6078
  378MOL0     C50941   6.642   1.873   4.714  0.2749  1.1205 -0.3343
  378MOL0     O50942   6.776   1.782   4.435 -0.7021  0.6771 -0.2075
  378MOL0     C50943   6.958   1.515   4.561 -0.6983  0.1204  1.3864
  378MOL0     C50944   7.057   1.424   4.515 -0.2374  0.2223 -0.3864
  378MOL0     N50945   7.808   1.411   4.411 -0.2692 -0.3037  0.4575
  378MOL0     N50946   7.920   1.460   4.373  0.3210  0.5950  0.5024
  378MOL0     C50947   8.226   0.868   3.418  0.4009 -0.4268  0.1869
  378MOL0     C50948   8.338   0.789   3.415 -0.1834  0.4010  0.4543
  378MOL0     C50949   8.626   0.415   3.540  0.1378  0.4512 -0.8900
  378MOL0     C50950   8.647   0.303   3.623 -0.7146  0.4996 -1.0327
  378MOL0     C50951   8.739   0.203   3.597  0.5608 -0.0908  0.2495
  378MOL0     C50952   8.822   0.224   3.488 -0.8235  0.1049  0.1525
  378MOL0     O50953   8.927   0.140   3.460  0.2558  0.5170  0.0089
  378MOL0     C50954   8.915  -0.000   3.495 -0.5822  0.4264  0.5927
  378MOL0     C50955   8.965  -0.088   3.387 -0.0866  0.0838 -0.0007
  378MOL0     C50956   8.935  -0.235   3.413  0.4639  1.0956  0.5779
  378MOL0     C50957   9.052  -0.310   3.473 -0.4144  1.4618  0.2165
  378MOL0     C50958   9.048  -0.312   3.623 -0.2558  0.1535 -0.6874
  378MOL0     C50959   9.009  -0.320   3.733 -0.2614  0.2074 -0.9514
  378MOL0     C50960   8.798   0.328   3.404  0.3710 -0.0001 -0.2126
  378MOL0     C50961   8.706   0.432   3.423 -0.8294 -0.9224  0.5334
  378MOL0     C50962   8.704   0.537   3.329 -0.1972 -0.2058  0.0275
  378MOL0     H50963   8.318   0.663   3.729  0.6676 -2.3187 -1.1628
  378MOL0     H50964   8.128   0.825   3.730 -0.7370 -2.7909  0.6515
  378MOL0     H50965   7.932   1.119   3.575  0.2183 -1.0494 -0.8187
  378MOL0     H50966   8.045   1.071   3.696  0.6330 -4.2928 -0.5237
  378MOL0     H50967   8.107   1.186   3.425  0.2086 -3.1634 -0.2633
  378MOL0     H50968   8.245   1.167   3.541 -0.3742 -1.0987  0.5473
  378MOL0     H50969   8.026   1.374   3.550 -1.8385 -0.5689  1.8253
  378MOL0     H50970   8.205   1.383   3.540 -2.7020  2.9861  0.3674
  378MOL0     H50971   8.029   1.277   3.782 -0.0552 -0.0848  0.7685
  378MOL0     H50972   8.202   1.295   3.778 -0.1306  0.0750  1.4081
  378MOL0     H50973   8.186   1.530   3.725  0.2024  1.1416 -0.3849
  378MOL0     H50974   8.015   1.547   3.779  2.5270  2.7821 -0.0649
  378MOL0     H50975   8.212   1.414   3.958  0.5313  0.6438 -1.6828
  378MOL0     H50976   8.179   1.589   3.954 -0.6799  0.3529 -1.9201
  378MOL0     H50977   7.964   1.367   3.987  0.3055 -0.8665  1.7014
  378MOL0     H50978   7.938   1.542   3.987 -0.0607  0.6010 -3.9606
  378MOL0     H50979   8.147   1.412   4.174  0.8860  2.7746 -0.3283
  378MOL0     H50980   8.066   1.555   4.205  0.2403 -0.8959  1.4844
  378MOL0     H50981   7.806   1.282   4.120 -0.2697 -1.5859  1.6174
  378MOL0     H50982   7.591   1.240   4.207 -2.4271  1.9914  1.0838
  378MOL0     H50983   7.652   1.140   4.342 -1.2923 -0.1760  0.9664
  378MOL0     H50984   7.547   1.289   4.502  0.0265 -1.3278  0.1800
  378MOL0     H50985   7.495   1.401   4.370 -2.1925 -0.5074 -0.3364
  378MOL0     H50986   7.418   1.110   4.422  0.5691 -1.4397 -0.8808
  378MOL0     H50987   7.376   1.180   4.269 -1.2441 -3.7251  1.7410
  378MOL0     H50988   7.303   1.315   4.530 -1.0564 -1.4607  0.4954
  378MOL0     H50989   7.196   1.187   4.455 -1.2168 -1.7862 -2.6688
  378MOL0     H50990   7.054   1.487   4.189  1.4071 -3.2815  0.0766
  378MOL0     H50991   6.864   1.632   4.260 -1.4953 -0.2371  1.8271
  378MOL0     H50992   6.419   1.639   4.600 -0.2207  1.0204  0.3914
  378MOL0     H50993   6.272   1.781   4.706  0.7087 -1.5089 -1.3083
  378MOL0     H50994   6.411   2.203   4.771  0.6812  1.0103 -3.9631
  378MOL0     H50995   6.280   2.150   4.668 -0.3633 -2.3260  0.0761
  378MOL0     H50996   6.212   2.334   4.832 -0.2866  2.0195  3.3926
  378MOL0     H50997   6.121   2.184   4.834  0.2019 -1.2488  0.0753
  378MOL0     H50998   6.243   2.120   5.044  2.9166  0.0842  2.7315
  378MOL0     H50999   6.339   2.259   5.048 -1.3040  0.2428  0.2746
  378MOL0     H51000   6.043   2.247   5.069 -0.9643  1.3254 -0.3416
  378MOL0     H51001   6.121   2.397   5.023  1.8863  3.3215  3.4673
  378MOL0     H51002   6.237   2.425   5.209  0.1456 -2.0936  1.4138
  378MOL0     H51003   6.177   2.274   5.288 -1.8580  0.8652  2.3009
  378MOL0     H51004   6.039   2.530   5.209 -4.0474 -0.7096 -2.0098
  378MOL0     H51005   5.944   2.372   5.229  1.8010 -3.9487  2.6328
  378MOL0     H51006   6.066   2.560   5.421 -0.8127  0.6545 -4.4232
  378MOL0     H51007   6.102   2.383   5.456 -1.7800 -1.0139  0.2356
  378MOL0     H51008   5.917   2.432   5.597 -3.0612  1.3994  0.7965
  378MOL0     H51009   5.841   2.525   5.472  0.2748  0.7556  3.5237
  378MOL0     H51010   6.579   2.070   4.790 -0.2785 -1.1145  1.0783
  378MOL0     H51011   6.746   1.903   4.703  0.3259  0.9785 -0.2368
  378MOL0     H51012   6.942   1.522   4.668  0.0481  0.9834  1.4506
  378MOL0     H51013   7.097   1.365   4.596 -2.9403  1.0851  1.7223
  378MOL0     H51014   8.203   0.927   3.330 -1.0064  0.3451  1.0258
  378MOL0     H51015   8.380   0.761   3.319 -2.6453 -5.4248  0.6690
  378MOL0     H51016   8.596   0.276   3.714  1.2253 -1.3800 -0.4383
  378MOL0     H51017   8.747   0.123   3.670 -1.2141  1.6673  2.5527
  378MOL0     H51018   8.818  -0.030   3.534  0.4208  0.6868  3.5346
  378MOL0     H51019   8.986  -0.018   3.576  0.1777  1.8466  0.2713
  378MOL0     H51020   9.071  -0.064   3.373 -0.5173  2.4423  0.4529
  378MOL0     H51021   8.907  -0.056   3.300 -3.8435  0.9135  2.5547
  378MOL0     H51022   8.896  -0.289   3.327  0.5952  2.5063 -0.4081
  378MOL0     H51023   8.847  -0.249   3.476  1.8395 -1.1109  2.1548
  378MOL0     H51024   9.049  -0.417   3.450 -2.9301  0.7654  3.1270
  378MOL0     H51025   9.141  -0.261   3.433 -1.0789  2.8981  0.4548
  378MOL0     H51026   8.961  -0.313   3.829 -0.8431  4.8712 -1.3543
  378MOL0     H51027   8.866   0.337   3.320  1.7735 -1.7289  0.6812
  378MOL0     H51028   8.619   0.528   3.261  0.7764 -2.3841 -0.9978
  378MOL0     H51029   8.693   0.637   3.370 -1.3860 -0.3642  0.1263
  378MOL0     H51030   8.794   0.535   3.266 -0.8856  3.0517 -1.2375
  379MOL0     O51031   6.488   3.403  11.345  0.1967  0.3738  0.1857
  379MOL0     C51032   6.550   3.309  11.298  0.6495 -0.0249  0.3993
  379MOL0     O51033   6.651   3.317  11.208 -0.1911 -0.0710  0.1872
  379MOL0     C51034   6.742   3.420  11.212 -0.0453 -0.4203 -0.6501
  379MOL0     C51035   6.748   3.517  11.319 -0.4985  1.0559 -0.4272
  379MOL0     C51036   6.841   3.623  11.309 -0.2800 -0.0391  0.3268
  379MOL0     C51037   6.911   3.639  11.186  0.0150  0.8123  0.1554
  379MOL0     O51038   6.993   3.747  11.159 -0.1883 -0.1201  0.5658
  379MOL0     C51039   7.000   3.845  11.256  1.0879 -0.4548 -0.1621
  379MOL0     C51040   7.091   3.955  11.193  0.0743  0.2378 -0.2703
  379MOL0     C51041   7.087   4.083  11.266 -0.3156  0.4828  0.0374
  379MOL0     C51042   6.963   4.167  11.238 -0.9871  0.3124 -0.2086
  379MOL0     C51043   6.961   4.309  11.294 -0.0956 -0.2923 -0.1439
  379MOL0     C51044   7.075   4.403  11.240 -0.3345 -0.3073  0.5601
  379MOL0     C51045   7.050   4.553  11.277 -0.8991 -0.0620  0.0774
  379MOL0     C51046   6.942   4.619  11.198  0.4159  0.0322  0.8383
  379MOL0     N51047   6.967   4.610  11.051 -0.6038  0.4063 -0.4066
  379MOL0     C51048   7.067   4.673  10.982  0.3045 -0.2173  0.1607
  379MOL0     C51049   7.019   4.662  10.854  0.3886 -0.1575  0.3383
  379MOL0     C51050   7.076   4.717  10.729 -0.3363  0.3977 -0.6502
  379MOL0     C51051   7.170   4.615  10.649 -0.1282 -0.2267 -0.2002
  379MOL0     C51052   7.083   4.524  10.571  0.3712  0.7702 -0.3405
  379MOL0     C51053   7.166   4.423  10.483  0.8984 -0.2106  0.3909
  379MOL0     O51054   7.243   4.345  10.572 -1.5789  0.0733 -0.6520
  379MOL0     C51055   7.287   4.222  10.515 -0.6375  0.5965  0.3855
  379MOL0     C51056   7.192   4.124  10.467  0.6308  0.1734 -0.9353
  379MOL0     C51057   7.223   4.015  10.385  0.5238 -0.2961  0.6722
  379MOL0     C51058   7.359   3.982  10.367 -0.0793 -0.0505  1.3630
  379MOL0     C51059   7.395   3.878  10.277  0.0697 -0.0922  0.3987
  379MOL0     O51060   7.294   3.795  10.231  0.7461  0.4449 -0.0876
  379MOL0     C51061   7.340   3.676  10.178  0.2391  0.1569 -0.3481
  379MOL0     C51062   7.343   3.664  10.036 -0.4913  0.4693 -0.8912
  379MOL0     C51063   7.402   3.552   9.971  0.4374 -0.3067 -0.0622
  379MOL0     C51064   7.468   3.455  10.052 -0.0237 -0.6489  0.3474
  379MOL0     O51065   7.540   3.357   9.986 -0.0415 -0.5298  0.1180
  379MOL0     C51066   7.626   3.391   9.883 -0.3301  0.4189  0.3625
  379MOL0     C51067   7.676   3.258   9.835 -0.4732 -0.2726  0.2070
  379MOL0     C51068   7.580   3.198   9.737  0.0036  0.7296 -0.7960
  379MOL0     C51069   7.459   3.139   9.818  0.6225 -0.1493  0.4690
  379MOL0     C51070   7.389   3.034   9.728 -0.3833 -0.0871  0.1409
  379MOL0     C51071   7.295   2.941   9.798  0.1723  0.7548 -0.1037
  379MOL0     C51072   7.222   2.834   9.703  0.1768  0.2752 -0.0470
  379MOL0     C51073   7.305   2.723   9.673 -0.4588  0.5859  0.4122
  379MOL0    Cl51074   7.217   2.582   9.600  0.2086 -0.1663 -0.2131
  379MOL0     C51075   7.464   3.464  10.187  0.3725  0.5154  0.0405
  379MOL0     C51076   7.398   3.569  10.252  0.0076 -0.4783  0.3225
  379MOL0     O51077   7.511   3.869  10.242 -0.2587  0.5994  1.1171
  379MOL0     C51078   7.456   4.071  10.419 -1.1133 -0.1292 -0.5224
  379MOL0     C51079   7.416   4.185  10.488 -0.3958 -0.2573  0.0029
  379MOL0     N51080   6.896   4.600  10.860 -0.1926 -0.4920  0.4339
  379MOL0     N51081   6.854   4.579  10.977 -0.3483 -0.2485  0.6088
  379MOL0     C51082   6.901   3.549  11.084  0.4591  0.3009 -0.6518
  379MOL0     C51083   6.821   3.431  11.098 -0.0336 -0.4257  0.3365
  379MOL0     C51084   6.505   3.180  11.334 -0.8962  0.4890  0.1533
  379MOL0     C51085   6.584   3.069  11.291  0.8035 -0.2099 -0.0449
  379MOL0     C51086   6.545   2.941  11.331 -0.8789  0.1748  0.4752
  379MOL0     C51087   6.436   2.920  11.404 -1.1688 -0.9202 -0.1931
  379MOL0     O51088   6.416   2.795  11.448 -0.0052 -0.2736 -0.2831
  379MOL0     C51089   6.283   2.757  11.493 -0.5593 -0.5807 -0.0296
  379MOL0     C51090   6.242   2.635  11.403 -0.7830 -0.6078 -0.1506
  379MOL0     C51091   6.288   2.496  11.462  0.2059  0.2559  0.3400
  379MOL0     C51092   6.432   2.492  11.483 -0.3096  0.6749 -0.6837
  379MOL0     C51093   6.526   2.476  11.369  0.3586  0.0470  0.0604
  379MOL0     C51094   6.605   2.449  11.288  0.9621  1.3567  0.2038
  379MOL0     C51095   6.375   3.030  11.462 -0.6911  0.3514 -0.2188
  379MOL0     C51096   6.407   3.157  11.428  1.0218 -0.6666 -0.5277
  379MOL0     C51097   6.332   3.265  11.508 -1.4851  0.5177  0.7733
  379MOL0     H51098   6.685   3.506  11.407 -0.5835  0.7859 -0.5217
  379MOL0     H51099   6.858   3.697  11.387  0.6069  1.8908 -1.6176
  379MOL0     H51100   6.904   3.894  11.276  1.2354 -0.6987  1.3237
  379MOL0     H51101   7.050   3.808  11.347  1.7353  1.2407  0.2136
  379MOL0     H51102   7.059   3.962  11.089 -3.5090 -1.7478  0.5590
  379MOL0     H51103   7.192   3.913  11.182  0.3485  0.5869  0.7444
  379MOL0     H51104   7.173   4.135  11.224  1.1465 -1.1162  0.9297
  379MOL0     H51105   7.089   4.081  11.376 -5.2821  2.4252  0.4486
  379MOL0     H51106   6.957   4.160  11.129 -0.7405 -3.5549 -0.1332
  379MOL0     H51107   6.877   4.119  11.284  0.4148 -3.0842 -0.8009
  379MOL0     H51108   6.866   4.352  11.259 -2.3005 -0.3686  4.9283
  379MOL0     H51109   6.952   4.322  11.402 -2.3926  1.3724 -0.4371
  379MOL0     H51110   7.166   4.379  11.295 -0.4552 -0.4185  0.7120
  379MOL0     H51111   7.103   4.386  11.135  3.1570 -2.6467  1.6931
  379MOL0     H51112   7.140   4.612  11.254  1.1251 -2.0955  2.1625
  379MOL0     H51113   7.032   4.562  11.384  2.2006 -1.5981  0.8352
  379MOL0     H51114   6.845   4.573  11.218 -1.0187  0.2691 -4.3258
  379MOL0     H51115   6.922   4.723  11.223 -3.9642  0.2033 -2.2236
  379MOL0     H51116   7.159   4.721  11.015  1.1127 -1.8232  0.3353
  379MOL0     H51117   6.989   4.747  10.669  0.2419  0.3654 -1.5246
  379MOL0     H51118   7.130   4.808  10.757  0.1225 -0.5548  1.7671
  379MOL0     H51119   7.232   4.671  10.579  1.4375  0.6697  1.8025
  379MOL0     H51120   7.231   4.558  10.719  2.1644  2.7237  0.4214
  379MOL0     H51121   7.019   4.583  10.504 -0.2250  0.2492 -0.2397
  379MOL0     H51122   7.002   4.476  10.627 -3.7520  5.8684 -1.0795
  379MOL0     H51123   7.234   4.485  10.425  1.0220  3.0029  3.6280
  379MOL0     H51124   7.096   4.361  10.426  3.1567 -3.2623  0.6709
  379MOL0     H51125   7.087   4.133  10.491  0.7562  0.3850 -0.4535
  379MOL0     H51126   7.135   3.957  10.356  0.3943  0.9012 -1.5085
  379MOL0     H51127   7.301   3.741   9.973 -0.1518  0.0749 -1.6134
  379MOL0     H51128   7.388   3.542   9.864 -1.4427  1.2495 -0.0061
  379MOL0     H51129   7.581   3.442   9.798  0.8550 -1.2844 -1.3747
  379MOL0     H51130   7.712   3.444   9.927  1.2022 -3.1707  2.0882
  379MOL0     H51131   7.768   3.271   9.778  0.5241 -2.9189  1.0383
  379MOL0     H51132   7.710   3.195   9.918 -0.6345 -0.1524  0.3659
  379MOL0     H51133   7.535   3.268   9.666 -4.3489 -0.0663  0.8780
  379MOL0     H51134   7.618   3.117   9.674 -3.8660 -1.0523 -1.1520
  379MOL0     H51135   7.382   3.215   9.836 -0.8684 -1.9117  1.9332
  379MOL0     H51136   7.486   3.093   9.913 -4.4196 -3.6688  0.5923
  379MOL0     H51137   7.472   2.977   9.686 -0.3791 -1.2134  1.6155
  379MOL0     H51138   7.348   3.072   9.633  1.0215 -3.2369 -1.8681
  379MOL0     H51139   7.350   2.886   9.876 -1.9531 -1.4978 -0.0874
  379MOL0     H51140   7.219   3.000   9.849  0.9754  1.3816  0.4030
  379MOL0     H51141   7.177   2.885   9.618 -2.9886  0.8660  1.8121
  379MOL0     H51142   7.144   2.783   9.760  2.1532 -3.4284 -0.3230
  379MOL0     H51143   7.384   2.765   9.611 -1.4212  0.5431 -0.8879
  379MOL0     H51144   7.351   2.698   9.769 -0.5550 -0.5692  0.1648
  379MOL0     H51145   7.519   3.387  10.240  0.1323  1.5082  1.7835
  379MOL0     H51146   7.402   3.583  10.359  0.6507 -1.8213  0.4830
  379MOL0     H51147   7.562   4.055  10.408 -0.8653 -3.7649  4.0287
  379MOL0     H51148   7.496   4.255  10.507 -1.9176  1.5678 -0.0937
  379MOL0     H51149   6.956   3.580  10.995  0.7072  2.5124  0.2258
  379MOL0     H51150   6.826   3.359  11.017  1.5292 -1.7358  1.5269
  379MOL0     H51151   6.669   3.076  11.225 -0.3598  0.8607 -1.5174
  379MOL0     H51152   6.602   2.859  11.288 -1.3726  0.0813 -0.0070
  379MOL0     H51153   6.210   2.834  11.465 -0.2605 -0.0446  0.6373
  379MOL0     H51154   6.280   2.735  11.600  0.6927  0.9059  0.3510
  379MOL0     H51155   6.284   2.642  11.302 -1.7128 -2.8473 -0.7628
  379MOL0     H51156   6.132   2.633  11.405 -0.7756 -0.9927  1.4563
  379MOL0     H51157   6.258   2.425  11.384 -2.7507  1.0354  0.6526
  379MOL0     H51158   6.232   2.475  11.554 -4.2728 -0.1495 -2.1932
  379MOL0     H51159   6.465   2.582  11.534  2.8594 -1.7707  2.0348
  379MOL0     H51160   6.458   2.410  11.551 -1.5251 -0.2900 -1.3403
  379MOL0     H51161   6.686   2.425  11.223 -0.3330  2.1444 -1.7836
  379MOL0     H51162   6.289   3.016  11.527  0.0298 -0.3159  0.6195
  379MOL0     H51163   6.392   3.342  11.557 -1.5046 -0.7338  2.8610
  379MOL0     H51164   6.265   3.322  11.443  1.1216  1.7109 -1.0383
  379MOL0     H51165   6.285   3.214  11.593  3.3488 -1.0295  2.8581
  380MOL0     O51166   9.601   3.783   6.418 -0.3687  0.1452 -0.7806
  380MOL0     C51167   9.693   3.869   6.405  0.3693  0.4003 -1.1748
  380MOL0     O51168   9.806   3.882   6.482 -0.5040 -0.1559 -0.0166
  380MOL0     C51169   9.827   3.795   6.582  0.2422 -0.3263 -0.4865
  380MOL0     C51170   9.775   3.837   6.703 -1.4099  0.0325 -0.4204
  380MOL0     C51171   9.808   3.754   6.810  0.3659  1.0631 -0.9592
  380MOL0     C51172   9.842   3.618   6.782 -0.6502  0.8132 -1.2348
  380MOL0     O51173   9.865   3.547   6.889 -0.1594 -0.4061  0.1746
  380MOL0     C51174   9.822   3.406   6.888 -0.0285  0.0889  0.5757
  380MOL0     C51175   9.706   3.392   6.983  0.0925  0.1175 -0.1113
  380MOL0     C51176   9.642   3.256   6.982 -0.3434  0.0492  0.3358
  380MOL0     C51177   9.724   3.171   7.074 -0.6168 -0.2448 -0.9637
  380MOL0     C51178   9.725   3.029   7.038  1.1781 -0.9039 -0.7861
  380MOL0     C51179   9.592   2.952   7.049  0.1616 -0.0529 -0.4279
  380MOL0     C51180   9.506   2.959   7.174 -1.1228  0.7578 -0.7095
  380MOL0     C51181   9.377   2.893   7.137 -0.2218  0.4163  0.2142
  380MOL0     N51182   9.287   2.877   7.253 -0.0283  0.3052  0.7099
  380MOL0     C51183   9.259   2.751   7.309 -0.8649 -0.5853  0.7502
  380MOL0     C51184   9.199   2.782   7.431  1.3189  0.2328  0.6490
  380MOL0     C51185   9.140   2.679   7.530  1.7511  0.2257 -0.0637
  380MOL0     C51186   9.201   2.703   7.666 -0.1612  0.2974 -0.7897
  380MOL0     C51187   9.169   2.594   7.758  0.9548  0.4903 -0.4226
  380MOL0     C51188   9.026   2.542   7.749  0.0335 -0.5071 -0.0065
  380MOL0     O51189   8.996   2.460   7.851  0.7504  0.3306 -0.0203
  380MOL0     C51190   8.871   2.412   7.870 -0.5799  0.7853  0.6913
  380MOL0     C51191   8.760   2.448   7.789 -0.6300 -0.3276  0.5009
  380MOL0     C51192   8.631   2.392   7.798 -0.4315 -0.2131 -0.0472
  380MOL0     C51193   8.607   2.299   7.898  0.1175 -0.4664  0.3704
  380MOL0     C51194   8.473   2.265   7.922 -0.0112 -0.0865  0.4196
  380MOL0     O51195   8.445   2.214   8.044 -0.1213 -0.0691  0.0593
  380MOL0     C51196   8.327   2.154   8.084 -0.2838  0.3886 -0.3145
  380MOL0     C51197   8.208   2.128   8.010  0.2732 -0.0459 -0.1989
  380MOL0     C51198   8.099   2.076   8.069  0.0156  1.2312 -0.1252
  380MOL0     C51199   8.102   2.032   8.204  0.0047  0.1004 -0.8672
  380MOL0     O51200   7.989   1.988   8.278 -0.0674  0.3187 -0.1221
  380MOL0     C51201   7.862   2.041   8.247  0.3295 -0.2029 -0.5672
  380MOL0     C51202   7.747   1.991   8.350  0.0398 -0.3772 -0.2169
  380MOL0     C51203   7.786   2.029   8.495 -0.6709 -0.4978 -0.2498
  380MOL0     C51204   7.762   2.168   8.529 -0.0613 -0.8401  0.0464
  380MOL0     C51205   7.846   2.229   8.637  0.0243 -0.6978  0.5360
  380MOL0     C51206   7.774   2.238   8.767 -0.2268 -0.1143  0.2977
  380MOL0     C51207   7.856   2.318   8.871 -0.1427 -0.4756 -0.1064
  380MOL0     C51208   7.968   2.233   8.934 -0.1105 -0.3496 -0.3099
  380MOL0    Cl51209   7.900   2.099   9.028 -0.0108  0.2922  0.6587
  380MOL0     C51210   8.224   2.043   8.278  0.7435 -0.4462 -0.8035
  380MOL0     C51211   8.331   2.105   8.218 -0.1159 -0.5281 -0.1991
  380MOL0     O51212   8.394   2.278   7.830 -0.5401 -0.0228 -0.0631
  380MOL0     C51213   8.714   2.273   7.986  0.7638  0.2486  0.5768
  380MOL0     C51214   8.844   2.316   7.975 -0.0270 -0.0978 -0.6695
  380MOL0     N51215   9.200   2.917   7.449  0.4018 -0.1887 -0.3697
  380MOL0     N51216   9.260   2.973   7.354  0.3855  0.3140  0.8371
  380MOL0     C51217   9.857   3.572   6.647  0.2999  0.0521  0.0497
  380MOL0     C51218   9.866   3.667   6.546  0.2860  0.4359 -0.0497
  380MOL0     C51219   9.670   3.973   6.308  0.0625  0.7565  0.5755
  380MOL0     C51220   9.622   3.931   6.182  0.6193 -0.3958 -0.1210
  380MOL0     C51221   9.596   4.018   6.079 -0.0255 -0.8439 -0.0471
  380MOL0     C51222   9.641   4.150   6.097  0.2297 -0.3341  0.1552
  380MOL0     O51223   9.639   4.226   5.981  0.5061 -0.3087  0.0565
  380MOL0     C51224   9.709   4.357   5.989  0.5222 -0.7166 -0.5111
  380MOL0     C51225   9.712   4.411   5.842  0.0249  0.3254 -0.4000
  380MOL0     C51226   9.578   4.436   5.801  1.5341 -0.7700 -0.9332
  380MOL0     C51227   9.574   4.562   5.710  0.2147 -0.5857  0.4567
  380MOL0     C51228   9.453   4.607   5.668  0.0520  0.8846 -0.6323
  380MOL0     C51229   9.360   4.679   5.634 -0.2120  0.8182 -0.1332
  380MOL0     C51230   9.699   4.197   6.216 -0.2874 -0.1854  0.1823
  380MOL0     C51231   9.704   4.111   6.322  0.2472  0.7146 -0.7245
  380MOL0     C51232   9.743   4.161   6.462  0.0737 -0.4225  0.2538
  380MOL0     H51233   9.740   3.939   6.715 -1.1970  0.1204 -0.5572
  380MOL0     H51234   9.812   3.794   6.910 -1.8163  0.5365 -0.6136
  380MOL0     H51235   9.781   3.371   6.793 -2.2138 -0.1158  1.5319
  380MOL0     H51236   9.903   3.335   6.910  1.2016  1.6139  1.0998
  380MOL0     H51237   9.629   3.458   6.944  0.8979  1.0009 -0.2643
  380MOL0     H51238   9.726   3.438   7.081 -5.4764  1.1389  0.8424
  380MOL0     H51239   9.651   3.218   6.880 -2.8681  0.0927  0.0325
  380MOL0     H51240   9.535   3.257   7.004 -0.9259  0.2939 -2.2119
  380MOL0     H51241   9.831   3.196   7.070 -0.4326 -0.8289 -0.0199
  380MOL0     H51242   9.698   3.187   7.179  1.7018 -0.1285 -0.3538
  380MOL0     H51243   9.772   3.022   6.939  0.6754  1.8963 -1.2908
  380MOL0     H51244   9.792   2.975   7.105 -0.2847 -4.5931 -2.0115
  380MOL0     H51245   9.541   2.979   6.956  0.5716  0.3317 -0.5428
  380MOL0     H51246   9.611   2.846   7.033  0.1679  0.2818 -3.1617
  380MOL0     H51247   9.485   3.059   7.212 -1.7429 -0.3069  1.9480
  380MOL0     H51248   9.548   2.898   7.254 -1.1731  0.2110 -1.0958
  380MOL0     H51249   9.324   2.961   7.070  0.7752  2.3185  1.2609
  380MOL0     H51250   9.398   2.801   7.082 -2.1071  0.9361 -1.4811
  380MOL0     H51251   9.271   2.649   7.272  2.1544 -0.7929  1.9799
  380MOL0     H51252   9.031   2.695   7.531  1.2475 -2.6762 -0.0737
  380MOL0     H51253   9.157   2.574   7.502 -0.0538 -0.5208  1.3810
  380MOL0     H51254   9.309   2.722   7.657 -0.6002  2.1081 -3.1473
  380MOL0     H51255   9.160   2.796   7.707  2.3518  0.4061  1.8316
  380MOL0     H51256   9.189   2.632   7.858  0.8085  0.1830 -0.2758
  380MOL0     H51257   9.242   2.518   7.726 -0.2710 -0.7082 -0.4774
  380MOL0     H51258   9.012   2.494   7.652 -0.1093  1.6210 -1.0938
  380MOL0     H51259   8.964   2.632   7.751  0.9310  0.1748 -1.1477
  380MOL0     H51260   8.772   2.516   7.706  1.8391  2.2363  2.7649
  380MOL0     H51261   8.554   2.425   7.728  1.4461  2.5500 -1.0159
  380MOL0     H51262   8.210   2.153   7.905 -1.6558 -0.1992 -0.2978
  380MOL0     H51263   8.015   2.050   8.006 -0.9098  0.1139  1.4889
  380MOL0     H51264   7.867   2.149   8.262  1.8267 -0.0440 -1.9237
  380MOL0     H51265   7.823   2.017   8.147  0.8158 -1.0663 -0.5566
  380MOL0     H51266   7.656   2.039   8.313 -1.4574 -1.7052  1.5458
  380MOL0     H51267   7.732   1.883   8.343 -1.2668 -0.1836 -0.6070
  380MOL0     H51268   7.743   1.966   8.573 -2.0588  0.7034 -0.0198
  380MOL0     H51269   7.895   2.021   8.501 -0.7840 -1.0966  3.9017
  380MOL0     H51270   7.657   2.186   8.553  0.3275  4.9567 -1.0944
  380MOL0     H51271   7.798   2.228   8.445  3.8604 -0.4463  1.7632
  380MOL0     H51272   7.858   2.336   8.617 -2.1565 -0.9318 -2.7486
  380MOL0     H51273   7.951   2.199   8.650  0.5831  0.7009 -0.5006
  380MOL0     H51274   7.685   2.302   8.757  3.6740  5.7321 -2.5274
  380MOL0     H51275   7.732   2.141   8.798 -0.0289 -1.0442 -2.1240
  380MOL0     H51276   7.781   2.347   8.946 -1.2979 -0.6550 -1.1594
  380MOL0     H51277   7.895   2.407   8.821  0.2405 -0.5057  0.1371
  380MOL0     H51278   8.032   2.193   8.854 -0.1680  1.7012 -1.4546
  380MOL0     H51279   8.040   2.283   8.999 -0.9729  1.2455 -0.5277
  380MOL0     H51280   8.239   2.016   8.382  3.1247  0.4701 -0.8294
  380MOL0     H51281   8.428   2.117   8.266 -0.0807 -1.2231 -0.0871
  380MOL0     H51282   8.686   2.206   8.066 -0.5523 -0.2767 -0.2832
  380MOL0     H51283   8.924   2.284   8.040  1.9440 -1.3739 -3.5079
  380MOL0     H51284   9.870   3.465   6.639  0.0806  0.0946 -1.2234
  380MOL0     H51285   9.880   3.641   6.441  1.9891 -0.5954  0.3868
  380MOL0     H51286   9.601   3.825   6.175 -0.3309 -0.2926  0.9795
  380MOL0     H51287   9.551   3.992   5.983 -1.3773  0.0472  0.3190
  380MOL0     H51288   9.813   4.337   6.018  0.1146 -0.9992  0.8119
  380MOL0     H51289   9.675   4.438   6.053  1.3817  0.6377 -1.6824
  380MOL0     H51290   9.750   4.328   5.782  0.7023  1.0093 -0.9426
  380MOL0     H51291   9.781   4.494   5.821 -0.3396  1.0424  1.0893
  380MOL0     H51292   9.510   4.453   5.884  0.2779 -0.6650 -1.9571
  380MOL0     H51293   9.540   4.362   5.730 -0.4540 -0.1029 -0.6186
  380MOL0     H51294   9.631   4.649   5.745  3.8888 -1.7912 -1.9046
  380MOL0     H51295   9.616   4.534   5.613  2.9737  1.1730  1.0202
  380MOL0     H51296   9.283   4.737   5.587 -1.1473 -1.5828 -1.7349
  380MOL0     H51297   9.728   4.300   6.235 -0.8741 -0.2218  1.3190
  380MOL0     H51298   9.847   4.135   6.483  0.1033 -3.1653 -2.5717
  380MOL0     H51299   9.725   4.269   6.465 -0.5193 -0.4836 -0.7229
  380MOL0     H51300   9.675   4.105   6.527 -0.6969 -1.1102 -1.1056
  381MOL0     O51301   9.522   7.697   0.960  1.3078  0.1849 -0.0451
  381MOL0     C51302   9.617   7.749   0.901 -0.5392  0.4092 -0.1723
  381MOL0     O51303   9.632   7.881   0.868  0.2606  0.0824  0.0251
  381MOL0     C51304   9.533   7.975   0.898 -0.1990 -0.1357 -0.8489
  381MOL0     C51305   9.573   8.103   0.944  0.1280 -0.2207 -0.7031
  381MOL0     C51306   9.468   8.201   0.971 -0.1287  0.0824 -0.0230
  381MOL0     C51307   9.331   8.176   0.940 -0.5016 -0.1533 -0.8515
  381MOL0     O51308   9.238   8.262   0.987 -0.1786 -0.1185  0.2609
  381MOL0     C51309   9.108   8.247   0.931 -0.3517  0.2871  0.0400
  381MOL0     C51310   9.045   8.388   0.937 -0.1791  0.0642  0.7669
  381MOL0     C51311   9.007   8.426   1.072 -0.5983  0.5395  0.3722
  381MOL0     C51312   8.924   8.555   1.064  1.0045  0.2471  0.3223
  381MOL0     C51313   8.912   8.605   1.204  0.1597 -0.2691 -0.1401
  381MOL0     C51314   8.822   8.725   1.216  1.0359 -0.9861 -0.2727
  381MOL0     C51315   8.820   8.789   1.360 -0.6137 -0.3567 -0.6280
  381MOL0     C51316   8.752   8.727   1.486 -0.4848 -0.2068  0.6300
  381MOL0     N51317   8.683   8.825   1.564  0.1224  0.4373  0.7327
  381MOL0     C51318   8.568   8.882   1.530 -0.0451 -0.8571 -0.8557
  381MOL0     C51319   8.553   8.983   1.623 -1.0202 -0.3907 -0.6744
  381MOL0     C51320   8.442   9.086   1.619  0.1301  0.7267 -0.3347
  381MOL0     C51321   8.311   9.051   1.696 -0.0829 -0.1734 -0.3043
  381MOL0     C51322   8.230   9.176   1.738 -0.4863  0.1497  0.0322
  381MOL0     C51323   8.148   9.224   1.623 -0.5984  0.1145 -0.4263
  381MOL0     O51324   8.052   9.119   1.588  0.1157 -0.1877 -0.0217
  381MOL0     C51325   7.929   9.155   1.524 -0.9765 -1.2241 -0.2125
  381MOL0     C51326   7.877   9.280   1.502 -0.3849  0.2897 -0.6356
  381MOL0     C51327   7.749   9.297   1.455 -0.0015 -0.0229 -0.2331
  381MOL0     C51328   7.671   9.195   1.415 -0.3710 -0.6196 -0.0140
  381MOL0     C51329   7.547   9.218   1.343 -0.0360  0.9305  0.4648
  381MOL0     O51330   7.509   9.345   1.321  0.5751  0.0110 -0.7404
  381MOL0     C51331   7.389   9.370   1.259 -0.2655 -0.6578 -0.2325
  381MOL0     C51332   7.374   9.480   1.166 -0.6700 -0.9664 -1.2850
  381MOL0     C51333   7.260   9.491   1.082 -0.9672 -0.1028 -0.3078
  381MOL0     C51334   7.153   9.408   1.098 -1.2551 -0.9860  0.4849
  381MOL0     O51335   7.055   9.414   1.016  0.6539  0.5607  0.7806
  381MOL0     C51336   7.035   9.305   0.932  0.3335  1.3385  0.7351
  381MOL0     C51337   6.904   9.319   0.848 -0.2788 -0.7920  0.0211
  381MOL0     C51338   6.883   9.460   0.779  0.0890 -0.4445 -0.2335
  381MOL0     C51339   6.764   9.455   0.682 -0.5406 -0.1660 -0.5422
  381MOL0     C51340   6.801   9.486   0.537  0.2085  0.0966 -0.0050
  381MOL0     C51341   6.691   9.553   0.443 -0.5204  0.0067 -0.0763
  381MOL0     C51342   6.632   9.680   0.504  0.0703 -0.4733  0.2666
  381MOL0     C51343   6.517   9.725   0.413 -0.5299  0.0704 -0.1847
  381MOL0    Cl51344   6.442   9.865   0.490  0.0616  0.1401 -0.0569
  381MOL0     C51345   7.150   9.310   1.200 -0.4287 -0.3596  0.1055
  381MOL0     C51346   7.269   9.294   1.271  0.0921 -0.1044  0.3503
  381MOL0     O51347   7.501   9.116   1.288 -0.5419 -0.4784 -0.2099
  381MOL0     C51348   7.722   9.072   1.430  0.3667  0.5423  0.1530
  381MOL0     C51349   7.849   9.056   1.487 -0.2585  0.0535 -0.0251
  381MOL0     N51350   8.663   8.978   1.710  0.5031 -0.3234  0.1067
  381MOL0     N51351   8.734   8.872   1.676  0.0054 -0.4942 -0.3231
  381MOL0     C51352   9.303   8.052   0.884 -0.5624 -0.0152  0.1897
  381MOL0     C51353   9.397   7.952   0.866 -0.3512 -0.1628 -0.5484
  381MOL0     C51354   9.727   7.666   0.870 -0.5864 -0.1764 -0.1443
  381MOL0     C51355   9.798   7.704   0.750 -0.1041 -0.9954  0.1365
  381MOL0     C51356   9.894   7.624   0.694  0.0793 -0.7888  0.1590
  381MOL0     C51357   9.929   7.506   0.755  0.3486 -0.2055 -0.3265
  381MOL0     O51358  10.035   7.449   0.681  0.8656 -0.4977 -0.0971
  381MOL0     C51359  10.068   7.318   0.729  0.7367  0.3044  0.6925
  381MOL0     C51360   9.986   7.199   0.672  0.2645  0.0303 -0.2045
  381MOL0     C51361  10.035   7.061   0.729 -0.0795  0.2287  1.1961
  381MOL0     C51362   9.939   6.943   0.697  0.4334 -0.9274  0.0424
  381MOL0     C51363   9.937   6.914   0.555 -0.8655  0.0823  0.8230
  381MOL0     C51364   9.911   6.875   0.444 -0.5784 -0.5346 -1.2854
  381MOL0     C51365   9.868   7.469   0.878 -0.2344  0.6181 -0.3471
  381MOL0     C51366   9.766   7.544   0.936  0.2103 -0.7771  0.1733
  381MOL0     C51367   9.719   7.492   1.071 -0.7037 -0.4244 -0.6005
  381MOL0     H51368   9.679   8.119   0.960  1.8934 -5.2924 -4.5035
  381MOL0     H51369   9.483   8.300   1.012 -1.7245  1.3962 -2.3529
  381MOL0     H51370   9.104   8.220   0.825  0.5235 -0.7014  0.2466
  381MOL0     H51371   9.049   8.175   0.988 -1.2385  1.1562  0.2561
  381MOL0     H51372   8.958   8.390   0.870  0.3556  1.3207  0.0591
  381MOL0     H51373   9.118   8.460   0.898 -2.5755  2.3666  0.2369
  381MOL0     H51374   9.101   8.448   1.125 -1.3429  0.9887  1.5490
  381MOL0     H51375   8.951   8.342   1.114  0.4841  0.1141  1.0061
  381MOL0     H51376   8.979   8.621   0.997  1.5863  0.6176  1.1446
  381MOL0     H51377   8.824   8.531   1.027 -0.0425  1.2705  2.2985
  381MOL0     H51378   8.889   8.521   1.270 -1.5880 -0.2133 -0.6459
  381MOL0     H51379   9.012   8.634   1.239 -0.6543  0.9223  1.2880
  381MOL0     H51380   8.848   8.803   1.144  0.2751 -2.1547 -1.8612
  381MOL0     H51381   8.720   8.693   1.195  0.5049 -1.7946  2.9192
  381MOL0     H51382   8.779   8.889   1.343  2.1009  0.9125 -0.1492
  381MOL0     H51383   8.927   8.804   1.374 -0.0845 -1.3948 -3.1317
  381MOL0     H51384   8.682   8.647   1.459  0.7521 -1.9565  2.3217
  381MOL0     H51385   8.831   8.678   1.543 -0.8287 -0.3387  0.9959
  381MOL0     H51386   8.494   8.845   1.460  0.2138  1.1743 -2.2871
  381MOL0     H51387   8.484   9.176   1.665 -3.5313  1.9607  0.9384
  381MOL0     H51388   8.401   9.113   1.521 -1.5443 -0.1925  0.0729
  381MOL0     H51389   8.258   8.981   1.632  3.1808 -3.0506 -0.1213
  381MOL0     H51390   8.349   8.996   1.783  2.2056 -1.4099 -1.9757
  381MOL0     H51391   8.294   9.252   1.784  0.1403  0.3184 -1.1036
  381MOL0     H51392   8.169   9.146   1.824  1.9387 -0.5975  1.5798
  381MOL0     H51393   8.211   9.251   1.537  3.2634 -1.6810  1.5738
  381MOL0     H51394   8.114   9.317   1.670  3.9766  0.8998  1.9843
  381MOL0     H51395   7.937   9.370   1.511  0.2281 -0.0386 -1.3456
  381MOL0     H51396   7.710   9.393   1.425  1.9166 -0.0491 -3.1721
  381MOL0     H51397   7.455   9.546   1.136 -0.3899  0.3085  1.8927
  381MOL0     H51398   7.249   9.574   1.013  1.6846 -1.7008 -2.8816
  381MOL0     H51399   7.129   9.293   0.878  0.4767 -0.3571  1.3074
  381MOL0     H51400   7.033   9.211   0.988  1.8180  1.5960  1.2861
  381MOL0     H51401   6.909   9.235   0.779 -2.3440 -2.3649  1.6251
  381MOL0     H51402   6.819   9.301   0.915  1.3642 -0.5597  2.2702
  381MOL0     H51403   6.876   9.535   0.858 -1.0457 -1.6069  0.7947
  381MOL0     H51404   6.974   9.477   0.719 -1.5728 -1.1341 -3.1617
  381MOL0     H51405   6.683   9.520   0.717  0.9828  1.6907 -0.2766
  381MOL0     H51406   6.726   9.353   0.676 -3.0553  0.7664 -2.2529
  381MOL0     H51407   6.835   9.397   0.483  3.7955 -0.1102  2.2486
  381MOL0     H51408   6.881   9.561   0.540  2.3784 -2.1300  1.2070
  381MOL0     H51409   6.731   9.574   0.343 -0.1475 -3.7817 -0.8741
  381MOL0     H51410   6.619   9.474   0.422  0.2637 -1.4842  2.4217
  381MOL0     H51411   6.713   9.752   0.515 -0.0167 -0.3596  0.1611
  381MOL0     H51412   6.581   9.653   0.597 -0.7611 -2.7968 -0.7666
  381MOL0     H51413   6.548   9.753   0.312 -0.5998  0.9595  0.0306
  381MOL0     H51414   6.455   9.635   0.410 -0.0202 -0.4324  2.1460
  381MOL0     H51415   7.061   9.249   1.214 -0.6634 -0.7411 -2.5275
  381MOL0     H51416   7.259   9.206   1.334  1.5624 -0.0315  0.6997
  381MOL0     H51417   7.661   8.983   1.416  0.1511  0.1759  2.8085
  381MOL0     H51418   7.879   8.957   1.519  1.4529  0.7394  0.6029
  381MOL0     H51419   9.206   8.013   0.852  0.2093 -2.0361  0.1353
  381MOL0     H51420   9.350   7.860   0.833 -1.3329 -0.7876  2.2611
  381MOL0     H51421   9.760   7.783   0.685  3.7469  1.3394  0.4468
  381MOL0     H51422   9.927   7.649   0.594 -0.6352  3.0139  0.7394
  381MOL0     H51423  10.069   7.317   0.839  0.3866 -1.3354  0.7067
  381MOL0     H51424  10.175   7.300   0.720  0.2077 -3.0945 -0.3542
  381MOL0     H51425   9.989   7.198   0.563  1.6222  2.1582 -0.2441
  381MOL0     H51426   9.881   7.206   0.701  0.5669 -3.1514  2.2162
  381MOL0     H51427  10.040   7.070   0.838 -2.5282 -1.2489  1.5023
  381MOL0     H51428  10.135   7.048   0.687 -1.7564 -1.9939 -2.5479
  381MOL0     H51429   9.977   6.863   0.761  2.8853  1.3505  1.6871
  381MOL0     H51430   9.840   6.965   0.738  0.7469 -0.4826  0.5736
  381MOL0     H51431   9.877   6.831   0.352 -1.7381 -2.1905 -0.1355
  381MOL0     H51432   9.902   7.381   0.931 -3.0936 -0.9501 -0.9266
  381MOL0     H51433   9.740   7.571   1.144  5.1646 -2.3273  0.3199
  381MOL0     H51434   9.610   7.479   1.075 -1.2376  3.1952  1.2390
  381MOL0     H51435   9.771   7.399   1.097 -0.2144 -1.0240 -3.4052
  382MOL0     O51436   0.357   4.937   1.706  0.2242  0.3013 -0.0844
  382MOL0     C51437   0.462   4.972   1.760  0.1202  0.1361  0.6167
  382MOL0     O51438   0.543   4.884   1.827 -0.0872  0.3584 -0.2828
  382MOL0     C51439   0.494   4.760   1.846  0.7185  0.2711 -0.2904
  382MOL0     C51440   0.573   4.650   1.827 -0.0412  0.5916  0.8155
  382MOL0     C51441   0.533   4.528   1.871  0.0865  0.0872 -0.1447
  382MOL0     C51442   0.410   4.514   1.941  1.4494 -0.4513  0.7272
  382MOL0     O51443   0.389   4.385   1.995 -0.2816 -1.0983  0.0327
  382MOL0     C51444   0.490   4.348   2.095 -0.1639 -0.6089 -0.2121
  382MOL0     C51445   0.436   4.292   2.227 -0.6425 -0.6449 -0.2204
  382MOL0     C51446   0.311   4.218   2.217 -0.0296  0.3614  0.5471
  382MOL0     C51447   0.266   4.146   2.351 -0.6350 -0.2978 -0.6752
  382MOL0     C51448   0.132   4.075   2.320 -0.7559 -0.1253  0.5966
  382MOL0     C51449   0.068   3.999   2.444  0.0583  0.2087 -0.1335
  382MOL0     C51450   0.004   4.095   2.546  0.2630  0.5065 -0.7009
  382MOL0     C51451  -0.038   4.039   2.683  1.1018  0.3786 -0.0249
  382MOL0     N51452  -0.120   4.135   2.746 -0.2546 -0.2065 -1.0665
  382MOL0     C51453  -0.239   4.094   2.806 -1.4418  0.5052  0.5179
  382MOL0     C51454  -0.269   4.188   2.893 -0.6238 -0.7579 -0.1525
  382MOL0     C51455  -0.396   4.205   2.964  0.3945 -0.0281 -0.1871
  382MOL0     C51456  -0.394   4.190   3.120 -0.1368 -1.1331  0.6877
  382MOL0     C51457  -0.533   4.192   3.180  1.2690 -0.6044  0.3799
  382MOL0     C51458  -0.648   4.114   3.114  0.8638 -1.5003  0.4451
  382MOL0     O51459  -0.619   3.975   3.093  0.1984 -0.1877  0.4861
  382MOL0     C51460  -0.633   3.890   3.197  1.0896  0.2417  0.1168
  382MOL0     C51461  -0.701   3.926   3.318  0.1505 -0.0240  0.3867
  382MOL0     C51462  -0.716   3.826   3.420 -0.1797  0.4398 -0.5866
  382MOL0     C51463  -0.673   3.689   3.400 -0.4592  0.0129 -0.0639
  382MOL0     C51464  -0.700   3.579   3.503 -1.3104 -0.7517  0.4761
  382MOL0     O51465  -0.632   3.459   3.471  0.3734  0.6767 -0.5484
  382MOL0     C51466  -0.665   3.348   3.542  0.1134 -0.9647 -1.4847
  382MOL0     C51467  -0.788   3.322   3.597  0.7248  0.4469 -0.3901
  382MOL0     C51468  -0.807   3.197   3.666  0.1191 -1.0189 -0.5115
  382MOL0     C51469  -0.704   3.107   3.662 -0.4921  0.2390  1.9018
  382MOL0     O51470  -0.731   2.982   3.720 -0.3733 -0.1391  1.0957
  382MOL0     C51471  -0.639   2.868   3.712 -0.1678 -0.7389 -0.1864
  382MOL0     C51472  -0.531   2.893   3.820  0.1229  0.8367  0.2843
  382MOL0     C51473  -0.543   2.801   3.942 -0.2217  1.4336  0.4231
  382MOL0     C51474  -0.668   2.829   4.031  0.1407  0.5620 -0.3752
  382MOL0     C51475  -0.669   2.976   4.076  0.3218  0.1473  0.5368
  382MOL0     C51476  -0.773   3.015   4.186 -0.0714 -0.0893 -0.1151
  382MOL0     C51477  -0.916   3.018   4.133 -0.2237  0.3495 -0.9838
  382MOL0     C51478  -1.010   3.015   4.256 -0.5071  0.5633 -0.0959
  382MOL0    Cl51479  -1.008   2.861   4.337 -0.1079  0.5960 -0.2785
  382MOL0     C51480  -0.585   3.122   3.593 -0.6858 -0.5146  0.2283
  382MOL0     C51481  -0.571   3.249   3.536  0.2380  0.0863 -0.2341
  382MOL0     O51482  -0.754   3.620   3.606  0.7194  0.6244 -0.1841
  382MOL0     C51483  -0.607   3.664   3.283  0.0649  0.4539  0.0413
  382MOL0     C51484  -0.591   3.757   3.183  0.4361 -0.6094  0.1513
  382MOL0     N51485  -0.175   4.288   2.879  0.0366 -1.3245 -0.3059
  382MOL0     N51486  -0.084   4.257   2.798  0.1745  0.2019  0.7401
  382MOL0     C51487   0.326   4.630   1.949 -0.0398  0.2170 -0.3530
  382MOL0     C51488   0.373   4.755   1.918  0.2654  0.0026 -0.3074
  382MOL0     C51489   0.522   5.093   1.725 -0.3399 -0.1066  0.7578
  382MOL0     C51490   0.658   5.102   1.739 -0.2480  0.0643 -0.1108
  382MOL0     C51491   0.721   5.212   1.681 -0.5160  0.0748 -0.7530
  382MOL0     C51492   0.646   5.319   1.630 -0.1661  0.4465 -0.0238
  382MOL0     O51493   0.720   5.429   1.583 -0.2345 -0.3274  0.4012
  382MOL0     C51494   0.660   5.551   1.562 -0.3556 -0.2855 -0.0348
  382MOL0     C51495   0.760   5.624   1.478  0.6130 -0.4941 -0.3191
  382MOL0     C51496   0.879   5.678   1.545 -1.6580  0.7744 -0.7605
  382MOL0     C51497   0.993   5.732   1.457 -0.5002 -0.7499 -0.1159
  382MOL0     C51498   0.940   5.868   1.405 -0.8967  0.6000 -0.8310
  382MOL0     C51499   0.915   5.981   1.374  0.3964 -0.1437  0.8293
  382MOL0     C51500   0.510   5.315   1.631 -0.3886  0.1246 -0.4888
  382MOL0     C51501   0.446   5.202   1.675 -1.0576 -0.6505 -0.0975
  382MOL0     C51502   0.298   5.209   1.693 -0.1100  0.2959  0.2322
  382MOL0     H51503   0.674   4.646   1.789  0.3494  2.8819  1.4695
  382MOL0     H51504   0.592   4.441   1.845 -1.2014 -1.5060  1.9026
  382MOL0     H51505   0.565   4.286   2.044  1.4546  1.8801 -1.0050
  382MOL0     H51506   0.549   4.433   2.129 -1.8838  0.4896  0.1521
  382MOL0     H51507   0.421   4.378   2.293 -0.9276 -1.8857  1.3908
  382MOL0     H51508   0.516   4.237   2.277 -1.3120 -0.7925  0.7023
  382MOL0     H51509   0.313   4.147   2.134 -3.3598  2.3832 -1.4781
  382MOL0     H51510   0.230   4.285   2.186  2.2068  2.6347 -0.8266
  382MOL0     H51511   0.338   4.072   2.388 -1.2453 -0.2552  0.6699
  382MOL0     H51512   0.241   4.214   2.433 -4.2776 -2.7238  0.4851
  382MOL0     H51513   0.062   4.155   2.292  0.0169  2.1034  4.3001
  382MOL0     H51514   0.149   4.008   2.236  0.8413  3.2075 -2.0156
  382MOL0     H51515  -0.004   3.919   2.421  3.0075 -2.4265 -0.8519
  382MOL0     H51516   0.146   3.952   2.505  0.1497  2.9223  2.0292
  382MOL0     H51517  -0.091   4.126   2.501 -0.1197 -1.1272 -1.1232
  382MOL0     H51518   0.080   4.170   2.567  5.7318 -4.6449  0.7646
  382MOL0     H51519  -0.092   3.944   2.668  2.0395 -0.8241  3.3167
  382MOL0     H51520   0.045   4.006   2.746 -0.0317 -0.8877  0.8993
  382MOL0     H51521  -0.302   4.007   2.791 -0.6185  0.0887 -0.6446
  382MOL0     H51522  -0.425   4.309   2.945  5.4804  1.5063 -1.0440
  382MOL0     H51523  -0.471   4.139   2.921 -1.5055  0.9781  1.4134
  382MOL0     H51524  -0.343   4.094   3.135  0.2168 -1.6543 -3.0360
  382MOL0     H51525  -0.333   4.270   3.163  0.1975 -2.2829  2.4922
  382MOL0     H51526  -0.568   4.295   3.181 -2.8301 -1.6778 -3.0154
  382MOL0     H51527  -0.519   4.157   3.282 -2.9525 -1.2323  0.9086
  382MOL0     H51528  -0.662   4.158   3.015 -1.2314  0.4792  1.5232
  382MOL0     H51529  -0.743   4.127   3.166  0.3342 -1.6602 -0.4650
  382MOL0     H51530  -0.740   4.022   3.350  0.2227 -1.0201  3.8634
  382MOL0     H51531  -0.756   3.845   3.519  1.2397  0.3217  0.0349
  382MOL0     H51532  -0.865   3.398   3.600  1.1270  0.8543 -0.0272
  382MOL0     H51533  -0.904   3.177   3.712  0.7085 -1.0181  0.7558
  382MOL0     H51534  -0.704   2.785   3.741 -1.8872  1.5087  3.0551
  382MOL0     H51535  -0.590   2.849   3.616  2.8021  0.4756  0.9758
  382MOL0     H51536  -0.439   2.870   3.764 -0.4553 -2.3518  0.4556
  382MOL0     H51537  -0.532   2.996   3.854  0.0362  1.6063 -1.8850
  382MOL0     H51538  -0.550   2.694   3.921  0.2613  0.7968  3.0490
  382MOL0     H51539  -0.455   2.812   4.007  1.7891  0.5647 -2.0038
  382MOL0     H51540  -0.664   2.759   4.115  1.0787  2.0166  0.8488
  382MOL0     H51541  -0.760   2.798   3.980 -0.3154  2.4263 -0.7537
  382MOL0     H51542  -0.682   3.043   3.991  0.9942  0.3319  0.5789
  382MOL0     H51543  -0.573   3.008   4.117 -0.9846  1.7843  2.4867
  382MOL0     H51544  -0.763   2.941   4.265  1.1349 -1.8657 -1.8553
  382MOL0     H51545  -0.744   3.114   4.222  1.0637 -0.3183 -0.3795
  382MOL0     H51546  -0.921   2.922   4.081  0.3993 -0.6402  0.6817
  382MOL0     H51547  -0.938   3.102   4.067  1.5172  2.5522  1.0831
  382MOL0     H51548  -0.974   3.081   4.335  1.0218 -0.2686 -0.0515
  382MOL0     H51549  -1.110   3.048   4.226  0.1333  3.0744  0.2945
  382MOL0     H51550  -0.508   3.048   3.573 -2.5159 -2.7730  1.1050
  382MOL0     H51551  -0.477   3.275   3.488  0.5120  3.1114  1.6549
  382MOL0     H51552  -0.575   3.562   3.263 -1.9288 -0.3338  0.6072
  382MOL0     H51553  -0.547   3.731   3.088 -2.3626  0.3575 -1.5120
  382MOL0     H51554   0.236   4.616   2.009  0.3903  2.8183  1.0441
  382MOL0     H51555   0.318   4.843   1.946  2.1229  1.2879 -0.5368
  382MOL0     H51556   0.725   5.024   1.774 -0.3549 -0.3559 -0.8385
  382MOL0     H51557   0.827   5.227   1.667 -0.4118 -1.2454 -1.5369
  382MOL0     H51558   0.649   5.603   1.657  0.8863  2.8686 -1.4545
  382MOL0     H51559   0.567   5.550   1.503  0.2825  1.2684 -1.1319
  382MOL0     H51560   0.704   5.704   1.429  2.1707  1.5565  1.0886
  382MOL0     H51561   0.803   5.548   1.413  2.2427 -3.5824  3.9005
  382MOL0     H51562   0.922   5.584   1.581 -2.1798  1.2261  1.1921
  382MOL0     H51563   0.868   5.732   1.640  1.0600 -0.6992  0.5410
  382MOL0     H51564   1.086   5.742   1.515 -1.2153  1.0800  0.8310
  382MOL0     H51565   0.999   5.671   1.367 -3.5558 -1.5640  0.1372
  382MOL0     H51566   0.867   6.070   1.339  2.6820  0.0951 -2.1559
  382MOL0     H51567   0.447   5.397   1.599 -4.1526 -2.7813 -1.3032
  382MOL0     H51568   0.245   5.303   1.677 -4.3122 -1.6857  1.0947
  382MOL0     H51569   0.245   5.136   1.631  0.2185  1.0185 -0.9254
  382MOL0     H51570   0.282   5.181   1.798  0.9066 -0.4162  0.2167
  383MOL0     O51571   8.006   9.216   2.322 -0.2361 -0.1296  0.2869
  383MOL0     C51572   8.025   9.230   2.446 -0.1475 -0.0175  0.3213
  383MOL0     O51573   7.925   9.241   2.540 -1.1309  0.3638 -0.0292
  383MOL0     C51574   7.805   9.178   2.530 -1.0144  0.1251 -0.9477
  383MOL0     C51575   7.755   9.095   2.424  1.0335 -0.0542  0.4823
  383MOL0     C51576   7.622   9.051   2.422  0.1492  0.1624  1.4622
  383MOL0     C51577   7.536   9.072   2.530 -0.6151 -0.1770  1.5238
  383MOL0     O51578   7.412   9.006   2.534  0.7624  0.3774 -0.2999
  383MOL0     C51579   7.327   9.006   2.418  0.0595  0.8282  0.4644
  383MOL0     C51580   7.204   9.091   2.478 -0.8875  0.0954 -0.8009
  383MOL0     C51581   7.124   9.177   2.374 -0.7708  0.0562 -0.0320
  383MOL0     C51582   7.210   9.290   2.314 -0.2784  0.3522 -0.6191
  383MOL0     C51583   7.149   9.368   2.191 -0.4853  0.0345 -0.5671
  383MOL0     C51584   7.228   9.499   2.173  0.2195 -0.3961 -0.8494
  383MOL0     C51585   7.220   9.551   2.030  0.8472  0.6467 -0.0449
  383MOL0     C51586   7.245   9.706   2.025 -0.1112  0.7338  1.1421
  383MOL0     N51587   7.357   9.758   2.108  0.8302 -0.0653 -0.1855
  383MOL0     C51588   7.487   9.751   2.065 -0.5552 -0.0854 -0.8086
  383MOL0     C51589   7.568   9.803   2.165  0.2793 -0.9105  0.7623
  383MOL0     C51590   7.726   9.827   2.173  0.4844  0.0381 -1.0169
  383MOL0     C51591   7.750   9.956   2.266 -1.0305 -0.4301 -0.1436
  383MOL0     C51592   7.738   9.938   2.417 -1.3400  0.4104  0.1288
  383MOL0     C51593   7.755  10.071   2.479  0.4537  0.0035 -1.2166
  383MOL0     O51594   7.712  10.064   2.612  0.2855  0.3088 -0.4595
  383MOL0     C51595   7.580  10.103   2.648  0.7978  0.1193  0.0723
  383MOL0     C51596   7.551  10.136   2.784 -0.5622 -0.3820  0.4611
  383MOL0     C51597   7.420  10.180   2.818  0.8685 -0.0686 -0.3401
  383MOL0     C51598   7.311  10.177   2.728  0.1048  0.0718  0.3125
  383MOL0     C51599   7.179  10.206   2.784 -0.9196  0.5246  0.9402
  383MOL0     O51600   7.169  10.235   2.916  0.2755 -0.0040  0.0054
  383MOL0     C51601   7.045  10.231   2.978  0.5654 -1.1621 -0.0125
  383MOL0     C51602   7.029  10.152   3.090 -0.6865 -0.2448 -0.5037
  383MOL0     C51603   6.903  10.149   3.163 -0.9429 -0.0213  1.3447
  383MOL0     C51604   6.796  10.231   3.124 -0.4246 -0.0769 -0.6482
  383MOL0     O51605   6.680  10.235   3.191 -0.4416 -0.2554 -0.7537
  383MOL0     C51606   6.586  10.126   3.168 -0.7961  0.5259 -0.0284
  383MOL0     C51607   6.456  10.187   3.197  0.0052  0.2701 -0.9707
  383MOL0     C51608   6.349  10.079   3.190 -0.1583  0.6112  1.1851
  383MOL0     C51609   6.235  10.127   3.277  0.4418 -0.5064 -0.4872
  383MOL0     C51610   6.119  10.025   3.267  0.5639  0.9108 -0.7537
  383MOL0     C51611   6.005  10.071   3.347 -0.1144 -0.5170  0.1370
  383MOL0     C51612   5.898   9.957   3.325 -0.5498 -0.3081 -0.8126
  383MOL0     C51613   5.787   9.971   3.429  0.2652  0.4811  0.1960
  383MOL0    Cl51614   5.850   9.918   3.588 -0.2167  0.3158 -0.0944
  383MOL0     C51615   6.808  10.317   3.023  0.1854 -0.3095 -0.1656
  383MOL0     C51616   6.933  10.318   2.946  0.2981 -0.5825 -1.2881
  383MOL0     O51617   7.083  10.189   2.705 -0.3892 -0.7545  0.3600
  383MOL0     C51618   7.334  10.123   2.602 -0.7672  0.2767  0.3670
  383MOL0     C51619   7.469  10.101   2.560  0.0705  0.4864 -0.0204
  383MOL0     N51620   7.478   9.851   2.258  0.6446 -0.9480  0.2356
  383MOL0     N51621   7.358   9.815   2.233 -0.2982 -0.4895 -0.5483
  383MOL0     C51622   7.585   9.140   2.641 -0.5785  1.1834 -1.0594
  383MOL0     C51623   7.715   9.190   2.639  0.1509  0.1903 -0.4219
  383MOL0     C51624   8.163   9.282   2.495  0.1086  0.0017  0.9737
  383MOL0     C51625   8.169   9.356   2.613  0.1034 -0.1417  0.4676
  383MOL0     C51626   8.292   9.378   2.680  0.4317 -0.7535  0.8034
  383MOL0     C51627   8.413   9.341   2.625  0.1011 -1.1118 -1.3419
  383MOL0     O51628   8.527   9.378   2.695 -0.2937 -0.5172  0.4875
  383MOL0     C51629   8.645   9.294   2.683 -0.2809  0.4367 -0.3547
  383MOL0     C51630   8.776   9.369   2.640  0.8158  0.6905  0.1942
  383MOL0     C51631   8.757   9.437   2.505 -0.8458 -0.0235  0.2356
  383MOL0     C51632   8.891   9.497   2.446 -0.7293 -0.1639  1.2854
  383MOL0     C51633   8.881   9.514   2.293  0.1294  1.5375  0.2233
  383MOL0     C51634   8.873   9.523   2.172 -0.4201 -0.0949 -0.6326
  383MOL0     C51635   8.407   9.270   2.502  0.1593  0.9680 -0.4424
  383MOL0     C51636   8.292   9.240   2.438  0.1177  1.3488  0.1995
  383MOL0     C51637   8.299   9.154   2.315  0.1731  0.3178  0.0835
  383MOL0     H51638   7.802   9.091   2.326 -1.1530  2.1729 -0.7660
  383MOL0     H51639   7.588   9.004   2.331 -1.9883 -0.7313  2.6355
  383MOL0     H51640   7.362   9.050   2.324  2.1418 -0.0115  0.7921
  383MOL0     H51641   7.284   8.908   2.393 -1.6400  2.1373 -2.2282
  383MOL0     H51642   7.252   9.163   2.545 -0.6676 -2.7697  2.4382
  383MOL0     H51643   7.143   9.022   2.537  2.8629 -1.1382  2.0259
  383MOL0     H51644   7.037   9.223   2.422 -0.5948 -0.9858  1.3524
  383MOL0     H51645   7.083   9.112   2.297 -1.8330  0.6164  0.0407
  383MOL0     H51646   7.240   9.354   2.396 -1.0454  1.9461 -1.5319
  383MOL0     H51647   7.307   9.260   2.275 -1.2745 -1.6709 -1.7156
  383MOL0     H51648   7.167   9.306   2.103  0.0315 -2.0503  0.9260
  383MOL0     H51649   7.042   9.386   2.203 -0.0781  1.3618  1.6233
  383MOL0     H51650   7.183   9.572   2.241  3.2436 -0.8045  1.8016
  383MOL0     H51651   7.332   9.498   2.207 -0.3811 -2.2908  1.1797
  383MOL0     H51652   7.124   9.533   1.981  1.6193  0.1413 -1.4409
  383MOL0     H51653   7.297   9.508   1.965  1.7992 -0.9110  1.9969
  383MOL0     H51654   7.254   9.745   1.923 -0.4100  0.9270  1.1897
  383MOL0     H51655   7.146   9.745   2.048 -0.1938 -0.2095  2.5051
  383MOL0     H51656   7.512   9.723   1.963 -1.0378 -0.4946 -0.8185
  383MOL0     H51657   7.783   9.738   2.202 -0.6533 -0.5563 -0.4891
  383MOL0     H51658   7.765   9.866   2.079  0.8594 -4.1122 -2.8328
  383MOL0     H51659   7.850   9.992   2.238 -1.6686  1.1163 -0.5115
  383MOL0     H51660   7.671  10.023   2.231 -1.3894 -2.0833 -2.8004
  383MOL0     H51661   7.826   9.881   2.448 -0.1034  2.5916  0.7765
  383MOL0     H51662   7.647   9.887   2.450  0.0944 -1.0365  2.1042
  383MOL0     H51663   7.707  10.160   2.437  2.5906  2.7795  1.6367
  383MOL0     H51664   7.862  10.097   2.481  0.2593  0.8090 -0.2138
  383MOL0     H51665   7.646  10.123   2.835  0.6439 -2.8384 -2.1253
  383MOL0     H51666   7.412  10.213   2.921 -3.7775  1.7487 -1.0483
  383MOL0     H51667   7.111  10.085   3.114  0.1135  1.4137  1.7563
  383MOL0     H51668   6.891  10.076   3.243 -0.8688  0.3785  1.7255
  383MOL0     H51669   6.579  10.098   3.062  1.3142  2.5592 -0.8002
  383MOL0     H51670   6.605  10.033   3.223  0.4769  0.0734 -1.1750
  383MOL0     H51671   6.457  10.227   3.299  1.8749 -0.4676 -0.6706
  383MOL0     H51672   6.438  10.275   3.134  0.6835  0.9022 -0.3068
  383MOL0     H51673   6.314  10.079   3.086  0.3358  2.7570  0.9759
  383MOL0     H51674   6.388   9.988   3.236  1.6751  1.5806  1.6413
  383MOL0     H51675   6.189  10.215   3.232 -1.6157 -0.5025  1.4218
  383MOL0     H51676   6.263  10.160   3.378 -3.3601  0.9236  0.2766
  383MOL0     H51677   6.149   9.923   3.295 -1.6116 -0.4376 -2.9414
  383MOL0     H51678   6.085  10.012   3.164  1.5662 -3.3098 -0.7629
  383MOL0     H51679   6.040  10.082   3.450 -1.6256 -0.2849  0.6486
  383MOL0     H51680   5.973  10.169   3.311  1.1722 -0.5811 -1.2955
  383MOL0     H51681   5.938   9.856   3.339  1.6956  0.4835 -1.0166
  383MOL0     H51682   5.861   9.972   3.223 -0.0237  0.5670 -0.8848
  383MOL0     H51683   5.753  10.075   3.426 -4.3059 -0.7938  0.7589
  383MOL0     H51684   5.696   9.913   3.411 -0.6742  0.3356  4.5502
  383MOL0     H51685   6.733  10.391   2.999  0.5337  0.4933  1.1410
  383MOL0     H51686   6.936  10.379   2.856  1.3831 -0.8396 -1.4314
  383MOL0     H51687   7.250  10.101   2.537  1.4164 -0.9699 -2.2124
  383MOL0     H51688   7.484  10.069   2.458 -0.2260 -0.0488  0.1016
  383MOL0     H51689   7.525   9.149   2.732 -1.0603  0.6096 -1.3148
  383MOL0     H51690   7.751   9.223   2.736 -3.2791  0.6294  0.8591
  383MOL0     H51691   8.075   9.399   2.648 -1.0772  1.1894 -3.8006
  383MOL0     H51692   8.285   9.432   2.774 -1.0541  0.9120 -0.1904
  383MOL0     H51693   8.623   9.213   2.612  1.1450  1.5309 -2.1467
  383MOL0     H51694   8.664   9.254   2.783 -1.5701  0.4346 -0.0835
  383MOL0     H51695   8.855   9.293   2.642  0.8052  0.5759 -1.8923
  383MOL0     H51696   8.812   9.448   2.706  2.5817  0.9600 -1.0472
  383MOL0     H51697   8.687   9.521   2.498  0.4870  1.0027 -1.7115
  383MOL0     H51698   8.712   9.359   2.443  2.7363  0.8719 -3.9992
  383MOL0     H51699   8.908   9.600   2.478  0.2048 -0.0687  0.5333
  383MOL0     H51700   8.988   9.455   2.474  0.6455  2.0053  0.0682
  383MOL0     H51701   8.851   9.533   2.067 -2.2485 -3.1688 -0.6648
  383MOL0     H51702   8.493   9.230   2.450 -0.6654 -0.5745 -0.6710
  383MOL0     H51703   8.248   9.197   2.229  2.4996  0.8246 -1.1260
  383MOL0     H51704   8.402   9.131   2.286  0.3076 -0.8750  1.3646
  383MOL0     H51705   8.253   9.056   2.330  2.2557 -1.2524 -2.8382
  384MOL0     O51706   7.481   8.670   8.055 -0.5780 -0.2818 -0.1747
  384MOL0     C51707   7.403   8.596   8.110 -0.3058 -0.6887  0.2499
  384MOL0     O51708   7.432   8.465   8.140  0.2311 -0.1011 -0.6602
  384MOL0     C51709   7.513   8.381   8.058  0.8473 -0.2528 -0.2844
  384MOL0     C51710   7.481   8.242   8.076  0.6168  0.1926  0.3210
  384MOL0     C51711   7.554   8.144   8.003 -0.3197  0.7514 -0.0917
  384MOL0     C51712   7.657   8.183   7.912  0.1668 -0.8716  1.1157
  384MOL0     O51713   7.737   8.099   7.845  0.4590 -0.7148 -0.9836
  384MOL0     C51714   7.726   7.958   7.834 -0.7716  0.1996 -0.2181
  384MOL0     C51715   7.813   7.900   7.718  0.0582  0.2445  0.3691
  384MOL0     C51716   7.964   7.885   7.757 -0.0913 -1.0510  1.0270
  384MOL0     C51717   8.040   7.785   7.660 -0.6140 -0.0561  0.4723
  384MOL0     C51718   8.176   7.753   7.723  1.1841 -0.5739 -0.1881
  384MOL0     C51719   8.280   7.702   7.629 -0.2679  0.1559  0.1512
  384MOL0     C51720   8.431   7.678   7.678 -0.0621  0.0812  0.1301
  384MOL0     C51721   8.435   7.631   7.820  0.4965 -0.3471  0.0950
  384MOL0     N51722   8.354   7.504   7.844 -0.0507  0.8502  0.8458
  384MOL0     C51723   8.331   7.396   7.757 -0.2032 -0.0444  0.0127
  384MOL0     C51724   8.291   7.295   7.835 -0.1090 -0.6878  0.2340
  384MOL0     C51725   8.251   7.148   7.794  0.3602  0.3171  1.4401
  384MOL0     C51726   8.297   7.028   7.870 -0.1821 -0.4443 -0.4803
  384MOL0     C51727   8.423   6.975   7.802  0.2160 -0.0284  1.4496
  384MOL0     C51728   8.541   7.066   7.835 -0.1396 -0.8447  0.4056
  384MOL0     O51729   8.570   7.154   7.725 -0.0501  0.0945  0.3100
  384MOL0     C51730   8.704   7.158   7.686  0.0443  0.4101  0.2910
  384MOL0     C51731   8.782   7.276   7.699 -0.3243  0.0846 -0.0950
  384MOL0     C51732   8.923   7.277   7.679 -0.3243 -0.2012  0.5685
  384MOL0     C51733   8.981   7.162   7.609 -0.3060  0.2442  0.2115
  384MOL0     C51734   9.121   7.168   7.564 -0.0765  0.5704  0.4651
  384MOL0     O51735   9.182   7.287   7.586 -0.8254 -0.6149 -0.0843
  384MOL0     C51736   9.313   7.307   7.577 -0.6006  0.8758  0.2224
  384MOL0     C51737   9.424   7.207   7.583  0.2533 -0.1842 -0.7728
  384MOL0     C51738   9.553   7.254   7.593 -0.7555  0.2284 -0.6280
  384MOL0     C51739   9.585   7.390   7.613 -0.1644  0.5836  1.0394
  384MOL0     O51740   9.717   7.423   7.617 -0.3546  0.2066 -0.1733
  384MOL0     C51741   9.782   7.407   7.742 -0.0258 -0.8746 -0.0209
  384MOL0     C51742   9.872   7.286   7.751 -0.2794 -0.6102 -0.9090
  384MOL0     C51743   9.985   7.261   7.654  0.2265 -0.3238  0.0439
  384MOL0     C51744  10.105   7.361   7.654  0.6448  0.3529  0.0246
  384MOL0     C51745  10.213   7.317   7.552  0.2566  0.1630  0.3859
  384MOL0     C51746  10.344   7.374   7.574  0.8463 -0.7450 -0.0444
  384MOL0     C51747  10.425   7.367   7.450 -0.5533 -0.5613 -0.1790
  384MOL0     C51748  10.552   7.454   7.456  0.4503 -0.8082 -0.0323
  384MOL0    Cl51749  10.625   7.459   7.289 -0.0371  0.1280  0.1850
  384MOL0     C51750   9.482   7.481   7.608 -0.1824 -0.2982  0.7001
  384MOL0     C51751   9.352   7.434   7.602 -0.0458 -0.7488 -0.1927
  384MOL0     O51752   9.172   7.075   7.501  0.1628 -0.0198 -0.3503
  384MOL0     C51753   8.900   7.049   7.595 -0.3279 -0.0644 -0.5696
  384MOL0     C51754   8.770   7.045   7.634 -0.0578 -0.1108  0.2545
  384MOL0     N51755   8.279   7.337   7.958 -0.3290 -0.0229 -0.2939
  384MOL0     N51756   8.317   7.460   7.967 -0.0493 -0.3102  0.2621
  384MOL0     C51757   7.689   8.324   7.913  0.0809  0.2328  0.4893
  384MOL0     C51758   7.622   8.421   7.980 -0.9404  1.0503  0.5361
  384MOL0     C51759   7.269   8.652   8.146  0.0099 -0.3784 -0.0344
  384MOL0     C51760   7.260   8.791   8.125  0.0052  1.0723 -0.6225
  384MOL0     C51761   7.146   8.859   8.151  0.3138 -0.1076 -0.2649
  384MOL0     C51762   7.034   8.804   8.218  0.3023  0.5648  1.2576
  384MOL0     O51763   6.916   8.874   8.255  0.3506 -0.6176  0.6053
  384MOL0     C51764   6.807   8.822   8.334  0.5697  0.2332  0.2442
  384MOL0     C51765   6.684   8.775   8.245  0.8539  0.8269 -0.7467
  384MOL0     C51766   6.601   8.899   8.209 -0.1889  0.1984 -0.0203
  384MOL0     C51767   6.462   8.860   8.153 -0.2262 -0.2552 -1.1912
  384MOL0     C51768   6.369   8.813   8.257 -0.5325 -0.1248 -0.1336
  384MOL0     C51769   6.297   8.784   8.350  0.4216  0.1611  0.5402
  384MOL0     C51770   7.042   8.663   8.232  0.2465 -0.6444 -0.2273
  384MOL0     C51771   7.156   8.586   8.187  0.5915  0.1429  0.5680
  384MOL0     C51772   7.161   8.440   8.201  0.5216 -1.2322 -0.5666
  384MOL0     H51773   7.412   8.207   8.153 -1.1818  0.9784 -0.8636
  384MOL0     H51774   7.536   8.038   8.019  2.8456  0.5124  3.0326
  384MOL0     H51775   7.755   7.906   7.927  1.1100 -0.9101 -1.3581
  384MOL0     H51776   7.623   7.943   7.802 -0.1266  1.1462 -2.9189
  384MOL0     H51777   7.798   7.954   7.624 -1.5947 -2.1899 -0.8738
  384MOL0     H51778   7.776   7.798   7.707  0.5951  0.1059 -0.2391
  384MOL0     H51779   7.963   7.838   7.855 -1.6584  0.2316  1.6638
  384MOL0     H51780   8.005   7.985   7.769  0.4290 -0.8071 -1.8642
  384MOL0     H51781   7.988   7.691   7.643 -2.4101  1.2268 -1.6756
  384MOL0     H51782   8.047   7.830   7.561 -2.1567  1.7271  1.1077
  384MOL0     H51783   8.205   7.848   7.768 -1.7794  0.5601 -0.4337
  384MOL0     H51784   8.152   7.690   7.809  1.9277  0.7077  0.9978
  384MOL0     H51785   8.248   7.602   7.597 -0.0559  0.2865 -0.4861
  384MOL0     H51786   8.273   7.761   7.537  1.3244  2.2945  1.3083
  384MOL0     H51787   8.487   7.771   7.659 -0.2115  0.8998  3.1620
  384MOL0     H51788   8.477   7.593   7.627  0.6362  0.2382  0.4825
  384MOL0     H51789   8.538   7.613   7.852  0.7823 -0.0726 -0.6514
  384MOL0     H51790   8.398   7.710   7.886 -1.9858 -1.4666  0.1510
  384MOL0     H51791   8.358   7.394   7.652 -0.3369  2.3129 -0.1194
  384MOL0     H51792   8.142   7.140   7.800  0.3491 -2.6765 -0.5851
  384MOL0     H51793   8.269   7.134   7.687  0.1711 -0.1643  1.4685
  384MOL0     H51794   8.310   7.054   7.976 -3.6971 -3.2379  0.8381
  384MOL0     H51795   8.220   6.953   7.885 -2.1115  1.8245  1.9938
  384MOL0     H51796   8.408   6.958   7.696 -0.1813 -0.2664  1.5445
  384MOL0     H51797   8.462   6.882   7.845  0.0174  0.2105  2.1669
  384MOL0     H51798   8.631   7.004   7.846  0.9655 -0.4702 -4.3325
  384MOL0     H51799   8.526   7.122   7.927 -1.8965 -2.1801  0.9829
  384MOL0     H51800   8.729   7.367   7.726 -3.0208 -0.3880 -3.1746
  384MOL0     H51801   8.980   7.364   7.712 -0.9508  1.9976 -3.3960
  384MOL0     H51802   9.407   7.100   7.578  0.2354 -0.1648 -1.1246
  384MOL0     H51803   9.633   7.181   7.593 -1.3115 -0.3895 -0.9112
  384MOL0     H51804   9.834   7.500   7.764 -0.4690 -0.7583  0.5434
  384MOL0     H51805   9.701   7.392   7.813 -1.3747 -1.9050 -1.6827
  384MOL0     H51806   9.927   7.278   7.845  2.1845  2.8285 -1.8298
  384MOL0     H51807   9.810   7.196   7.746 -1.2897 -0.1328  1.5534
  384MOL0     H51808  10.025   7.160   7.659 -3.7960 -2.2667 -2.0012
  384MOL0     H51809   9.938   7.270   7.555 -2.1438 -2.3988  0.8945
  384MOL0     H51810  10.143   7.359   7.757 -2.5903  0.9676  1.3658
  384MOL0     H51811  10.068   7.463   7.643 -1.1483 -0.0560  1.6285
  384MOL0     H51812  10.189   7.332   7.446 -0.9966 -1.5780  0.3776
  384MOL0     H51813  10.222   7.208   7.547 -0.7993  0.0843 -0.3591
  384MOL0     H51814  10.329   7.481   7.592  2.2590 -0.8053  1.7431
  384MOL0     H51815  10.394   7.338   7.664  1.2767  1.9400  0.8854
  384MOL0     H51816  10.359   7.422   7.382 -1.0675  1.0528  1.5072
  384MOL0     H51817  10.441   7.266   7.412  1.6567 -0.8058  1.2228
  384MOL0     H51818  10.526   7.559   7.471  1.8778  0.0408 -2.8433
  384MOL0     H51819  10.618   7.417   7.534  0.3815  2.6228  1.8387
  384MOL0     H51820   9.504   7.587   7.620 -1.2230 -0.0117  0.2108
  384MOL0     H51821   9.285   7.519   7.607 -0.4562 -1.1280  2.1006
  384MOL0     H51822   8.930   6.959   7.542 -0.9126  0.9287 -2.6994
  384MOL0     H51823   8.705   6.959   7.623  1.0792 -0.6605 -4.0207
  384MOL0     H51824   7.764   8.356   7.841 -1.8049 -2.1153 -2.8395
  384MOL0     H51825   7.652   8.525   7.969  0.2638  0.6940  0.3757
  384MOL0     H51826   7.342   8.849   8.084  2.4863  0.0099  2.4620
  384MOL0     H51827   7.150   8.962   8.118 -1.0941 -1.1027 -3.9851
  384MOL0     H51828   6.781   8.903   8.402  1.3626  2.0123 -1.4975
  384MOL0     H51829   6.838   8.735   8.393  1.5970  1.4026  1.5060
  384MOL0     H51830   6.628   8.704   8.308  2.0753  0.5256  0.0201
  384MOL0     H51831   6.724   8.730   8.153 -1.3519  2.1882 -2.4955
  384MOL0     H51832   6.658   8.950   8.130 -0.3085 -0.3798 -0.4831
  384MOL0     H51833   6.588   8.964   8.296 -0.9362  0.8773 -0.6205
  384MOL0     H51834   6.421   8.948   8.103  1.6939  2.5169  1.7484
  384MOL0     H51835   6.471   8.791   8.069 -1.0972 -0.0690 -1.4515
  384MOL0     H51836   6.219   8.754   8.416 -2.5894  1.4416 -2.1813
  384MOL0     H51837   6.958   8.611   8.278  0.8803  0.3785  2.2338
  384MOL0     H51838   7.060   8.400   8.217  0.2497  0.2985  2.0041
  384MOL0     H51839   7.190   8.407   8.101  2.1618  0.7444 -0.8131
  384MOL0     H51840   7.222   8.419   8.289  0.2517  3.9823  1.2531
  385MOL0     O51841   7.385   8.467   3.187 -0.6115  0.1920 -0.6465
  385MOL0     C51842   7.364   8.576   3.221 -0.0391  0.0099  0.0962
  385MOL0     O51843   7.242   8.621   3.266  0.5720 -0.5568  0.2800
  385MOL0     C51844   7.120   8.565   3.257 -0.2110  0.5839 -0.1268
  385MOL0     C51845   7.024   8.614   3.351 -0.1183  0.1237 -0.2189
  385MOL0     C51846   6.901   8.552   3.354  0.3057  0.9417  0.3649
  385MOL0     C51847   6.866   8.448   3.273 -0.0611  1.1998  0.5323
  385MOL0     O51848   6.743   8.379   3.287 -0.0309 -1.0273  0.3144
  385MOL0     C51849   6.731   8.236   3.253  0.1298  0.3035 -0.3654
  385MOL0     C51850   6.590   8.176   3.272  0.0320 -0.0734 -0.6219
  385MOL0     C51851   6.489   8.236   3.183 -0.2653  0.2481 -0.4619
  385MOL0     C51852   6.511   8.214   3.025 -0.0529 -0.1875 -0.0192
  385MOL0     C51853   6.385   8.229   2.942  0.9981 -0.5836  0.2392
  385MOL0     C51854   6.368   8.377   2.922  0.5259 -0.2663  0.9751
  385MOL0     C51855   6.261   8.408   2.822 -0.2709  0.6082 -0.0277
  385MOL0     C51856   6.115   8.391   2.882 -0.0269  0.4386 -0.0730
  385MOL0     N51857   6.023   8.423   2.773 -0.2118 -0.1574  0.0773
  385MOL0     C51858   6.002   8.349   2.666  0.4340  1.0834  0.3839
  385MOL0     C51859   5.922   8.416   2.576  0.7531 -0.5026 -1.2490
  385MOL0     C51860   5.863   8.349   2.453  0.2686  0.5193  0.3622
  385MOL0     C51861   5.724   8.287   2.483  0.0920  0.2446  0.1164
  385MOL0     C51862   5.676   8.216   2.357  0.2851  0.2126 -0.0355
  385MOL0     C51863   5.546   8.148   2.386  0.0035 -0.5906  0.1237
  385MOL0     O51864   5.506   8.103   2.258  0.1199  0.5393  0.0971
  385MOL0     C51865   5.567   7.999   2.205  0.2662 -0.0645  0.2459
  385MOL0     C51866   5.547   7.862   2.262 -0.5069 -0.5385  0.6945
  385MOL0     C51867   5.592   7.746   2.203  0.1115  0.3356 -0.7113
  385MOL0     C51868   5.672   7.762   2.087 -0.1204 -0.2261  0.0218
  385MOL0     C51869   5.744   7.647   2.028 -0.3162  0.1558 -0.1498
  385MOL0     O51870   5.871   7.669   1.983  0.3916  0.6853 -0.4934
  385MOL0     C51871   5.936   7.564   1.916  0.3083 -0.2184  0.4624
  385MOL0     C51872   6.005   7.600   1.800  0.1998 -0.0429  0.2927
  385MOL0     C51873   6.093   7.510   1.750 -0.5634 -0.4018 -0.5379
  385MOL0     C51874   6.100   7.373   1.785  0.7710  0.0922 -0.2704
  385MOL0     O51875   6.167   7.265   1.725 -0.2490 -0.5332 -0.1805
  385MOL0     C51876   6.242   7.294   1.603 -0.1026  0.1244 -0.1706
  385MOL0     C51877   6.309   7.161   1.563 -0.0294  0.5918  0.5730
  385MOL0     C51878   6.367   7.172   1.420  0.5600 -0.2031  0.6246
  385MOL0     C51879   6.258   7.164   1.305  0.8361  0.1166  0.2258
  385MOL0     C51880   6.311   7.169   1.153  0.7964 -0.4609 -0.0804
  385MOL0     C51881   6.195   7.146   1.054 -0.3240  0.0598  0.1493
  385MOL0     C51882   6.232   7.200   0.916  0.2564  0.6284  0.7155
  385MOL0     C51883   6.098   7.230   0.839 -0.3767 -0.1783  0.0551
  385MOL0    Cl51884   6.130   7.302   0.680 -0.2776  0.2715 -0.3699
  385MOL0     C51885   6.008   7.332   1.882 -0.3167 -0.2029 -0.8988
  385MOL0     C51886   5.937   7.432   1.950 -0.3931  0.1971 -0.8069
  385MOL0     O51887   5.693   7.534   2.038 -0.6404 -0.2321  0.2158
  385MOL0     C51888   5.700   7.895   2.033 -0.8692  0.0910  0.1777
  385MOL0     C51889   5.645   8.008   2.093 -0.3473 -0.7080 -0.2489
  385MOL0     N51890   5.909   8.542   2.627 -0.7967 -0.0959 -0.2187
  385MOL0     N51891   5.972   8.544   2.739  0.6077 -0.3583  0.0947
  385MOL0     C51892   6.961   8.411   3.166 -1.0626 -0.1339 -0.5843
  385MOL0     C51893   7.095   8.467   3.166  0.2257  0.6005  0.6440
  385MOL0     C51894   7.476   8.673   3.206  0.0997  0.1828  0.2618
  385MOL0     C51895   7.438   8.808   3.185 -0.2148 -0.2619  0.8010
  385MOL0     C51896   7.520   8.911   3.169  0.1632 -0.0653  0.5142
  385MOL0     C51897   7.657   8.878   3.173 -0.6391  0.2175 -0.7981
  385MOL0     O51898   7.744   8.988   3.160 -0.6394  0.1178  0.1099
  385MOL0     C51899   7.870   8.982   3.225  0.3662  0.4815 -0.0866
  385MOL0     C51900   7.861   8.978   3.379  0.7960 -1.0678 -0.6802
  385MOL0     C51901   7.785   9.115   3.431  0.2202 -0.0383 -0.2303
  385MOL0     C51902   7.789   9.123   3.585 -0.0518 -1.0007  0.2132
  385MOL0     C51903   7.927   9.148   3.634 -0.1124  0.4895  0.0754
  385MOL0     C51904   8.033   9.157   3.684  0.3070  0.1818  0.3553
  385MOL0     C51905   7.703   8.748   3.202 -0.7947 -0.4555 -0.9671
  385MOL0     C51906   7.613   8.639   3.225 -0.4067 -0.6765 -0.4661
  385MOL0     C51907   7.663   8.504   3.241  0.6930  0.9692  1.3285
  385MOL0     H51908   7.045   8.696   3.420 -3.1350 -0.5006  1.6204
  385MOL0     H51909   6.835   8.575   3.438 -0.1532 -1.4270  0.7324
  385MOL0     H51910   6.760   8.199   3.154  0.7053 -0.7532  0.1809
  385MOL0     H51911   6.798   8.182   3.321  0.6850  0.9707 -0.3787
  385MOL0     H51912   6.559   8.189   3.376  2.5644  1.8482  0.0071
  385MOL0     H51913   6.605   8.070   3.251 -1.3803 -0.4396  0.1447
  385MOL0     H51914   6.499   8.344   3.194 -1.7455  0.7949 -3.5029
  385MOL0     H51915   6.388   8.211   3.215 -0.5622  0.2639 -1.3571
  385MOL0     H51916   6.591   8.284   2.997  0.4284  0.4256  2.5447
  385MOL0     H51917   6.548   8.111   3.023  1.5861  0.3311  0.9698
  385MOL0     H51918   6.388   8.188   2.841 -0.2956 -0.5448  0.1741
  385MOL0     H51919   6.295   8.179   2.978  0.8186 -0.9149 -0.6646
  385MOL0     H51920   6.347   8.434   3.013  0.9578  3.3519 -1.0148
  385MOL0     H51921   6.455   8.425   2.875  0.4309 -0.4925  0.5644
  385MOL0     H51922   6.279   8.345   2.735  2.2420  1.3521 -0.1487
  385MOL0     H51923   6.279   8.511   2.789  4.3924  1.0244  2.7977
  385MOL0     H51924   6.098   8.290   2.921  0.1526  0.2858 -0.3971
  385MOL0     H51925   6.104   8.475   2.952  1.7929  1.0364 -0.4531
  385MOL0     H51926   6.056   8.255   2.655  1.2262  1.3904  1.5661
  385MOL0     H51927   5.858   8.413   2.364  2.6823 -2.9617 -2.5786
  385MOL0     H51928   5.926   8.270   2.412 -0.1028  0.9551 -1.1016
  385MOL0     H51929   5.731   8.219   2.568 -1.7650  1.0075  0.9520
  385MOL0     H51930   5.655   8.366   2.515  0.8429  1.9919 -2.2974
  385MOL0     H51931   5.743   8.138   2.320  0.1896  0.4159 -0.6446
  385MOL0     H51932   5.659   8.283   2.272  1.2751 -2.6363 -2.6502
  385MOL0     H51933   5.465   8.208   2.429 -0.7647 -1.7646  0.3569
  385MOL0     H51934   5.557   8.060   2.450 -2.3101 -0.5894  0.6096
  385MOL0     H51935   5.486   7.840   2.349 -1.2698  0.9966  0.5837
  385MOL0     H51936   5.573   7.649   2.247 -0.0601  1.3938  1.7226
  385MOL0     H51937   6.004   7.707   1.777 -0.9249 -0.2508 -0.7487
  385MOL0     H51938   6.162   7.562   1.684 -4.4341  3.0469 -2.2736
  385MOL0     H51939   6.185   7.337   1.519  0.5848  3.5103  0.9376
  385MOL0     H51940   6.315   7.373   1.623 -0.5690  1.3044 -2.6467
  385MOL0     H51941   6.397   7.139   1.623  2.3712  1.0799 -2.5364
  385MOL0     H51942   6.250   7.069   1.567  3.1769 -1.5473  2.8522
  385MOL0     H51943   6.448   7.244   1.404  1.7436 -1.8788 -1.3978
  385MOL0     H51944   6.427   7.081   1.406  1.4393  0.3630  0.6497
  385MOL0     H51945   6.196   7.253   1.319 -1.1074 -1.4499  2.4276
  385MOL0     H51946   6.191   7.080   1.328 -0.1139  1.1239  1.2639
  385MOL0     H51947   6.390   7.094   1.138  3.1228  1.5400  1.3777
  385MOL0     H51948   6.346   7.271   1.137 -2.2784  0.5614 -0.8820
  385MOL0     H51949   6.159   7.043   1.048 -1.4105  0.3081  1.9391
  385MOL0     H51950   6.116   7.205   1.100 -1.2273 -0.7521 -0.3405
  385MOL0     H51951   6.290   7.131   0.854 -1.3780 -0.9622  0.8949
  385MOL0     H51952   6.294   7.289   0.933  3.1751 -0.7732 -1.5742
  385MOL0     H51953   6.044   7.137   0.818 -3.3197  1.7207 -1.5274
  385MOL0     H51954   6.037   7.298   0.900  0.8685  0.8860  0.1808
  385MOL0     H51955   6.004   7.231   1.923  2.2369 -0.4035 -0.9874
  385MOL0     H51956   5.893   7.403   2.045  0.0652  2.2640  0.0773
  385MOL0     H51957   5.768   7.902   1.950 -1.6513 -0.7413 -0.5569
  385MOL0     H51958   5.660   8.108   2.054  0.1880 -0.4183  0.6580
  385MOL0     H51959   6.937   8.322   3.108 -1.9587 -0.1240 -0.2444
  385MOL0     H51960   7.170   8.451   3.089  0.0343  0.5303  0.4736
  385MOL0     H51961   7.335   8.840   3.177  0.1745  1.8724  2.9204
  385MOL0     H51962   7.473   9.006   3.144 -3.0043 -2.0288 -1.6775
  385MOL0     H51963   7.935   9.065   3.196 -0.4105  0.3182 -2.4648
  385MOL0     H51964   7.927   8.898   3.187  1.7320  0.6899  1.3744
  385MOL0     H51965   7.963   8.982   3.419  1.4813 -2.3400 -2.1935
  385MOL0     H51966   7.798   8.897   3.417  0.5563 -0.7096 -0.3016
  385MOL0     H51967   7.683   9.122   3.393  0.1501  0.4856  0.0370
  385MOL0     H51968   7.821   9.207   3.385 -5.1286  2.5459 -0.0128
  385MOL0     H51969   7.733   9.209   3.624 -1.6858 -1.3214 -1.2920
  385MOL0     H51970   7.748   9.028   3.619 -0.3262 -0.6973  0.7550
  385MOL0     H51971   8.129   9.191   3.719  1.0237 -0.6158 -0.7754
  385MOL0     H51972   7.809   8.729   3.219 -1.4377 -2.8422  1.0639
  385MOL0     H51973   7.620   8.463   3.333  2.5750  2.3051  2.9025
  385MOL0     H51974   7.641   8.437   3.158  2.9025  3.4661 -1.5054
  385MOL0     H51975   7.769   8.504   3.268  1.0073  1.5013  0.1406
  386MOL0     O51976   4.937   8.845   7.855 -0.2964  0.0463  0.0967
  386MOL0     C51977   5.038   8.912   7.878  0.8122 -0.0134 -0.0978
  386MOL0     O51978   5.155   8.852   7.919  0.0638  0.8850  0.1550
  386MOL0     C51979   5.152   8.711   7.936  0.4987 -0.0134  0.1502
  386MOL0     C51980   5.174   8.617   7.832  0.0198 -0.6841 -0.7143
  386MOL0     C51981   5.155   8.484   7.865 -0.3036  0.3268 -0.5362
  386MOL0     C51982   5.111   8.447   7.996  0.6220 -0.6172  0.7257
  386MOL0     O51983   5.073   8.319   8.037 -0.2898 -0.0734  0.4688
  386MOL0     C51984   5.179   8.235   8.081 -0.9127 -0.2578  0.2808
  386MOL0     C51985   5.117   8.107   8.142 -0.0140  0.1381 -0.7834
  386MOL0     C51986   5.206   8.030   8.246 -0.1297  0.0321  0.6183
  386MOL0     C51987   5.271   8.124   8.349 -0.2738 -0.3691 -0.7002
  386MOL0     C51988   5.292   8.040   8.469 -0.1361 -0.0841  0.6333
  386MOL0     C51989   5.403   7.937   8.460  0.3165  0.3826 -0.0212
  386MOL0     C51990   5.545   8.001   8.465  0.2250 -0.3615 -0.4628
  386MOL0     C51991   5.652   7.916   8.409  0.9490  0.3631 -0.4392
  386MOL0     N51992   5.775   7.981   8.381  0.0831 -0.3560 -0.0948
  386MOL0     C51993   5.901   7.960   8.437  0.4811 -0.9771 -0.8292
  386MOL0     C51994   5.991   8.017   8.353 -1.4449  0.4058  0.0062
  386MOL0     C51995   6.133   8.007   8.394 -0.5051  0.4332 -0.3793
  386MOL0     C51996   6.195   8.144   8.410  0.0724  0.2824 -0.3136
  386MOL0     C51997   6.191   8.190   8.553  0.4442 -0.6896 -0.1013
  386MOL0     C51998   6.188   8.340   8.562  1.3942  0.3956  0.2318
  386MOL0     O51999   6.292   8.402   8.491 -0.1292  0.3142 -0.2557
  386MOL0     C52000   6.422   8.379   8.521  0.0631  0.8917 -0.5162
  386MOL0     C52001   6.510   8.394   8.416 -0.9626  1.0301  0.4086
  386MOL0     C52002   6.646   8.367   8.429  0.1254 -0.2258 -1.3576
  386MOL0     C52003   6.696   8.313   8.548 -0.7824 -0.7313  0.1429
  386MOL0     C52004   6.838   8.290   8.566 -0.6181 -0.4996 -0.9027
  386MOL0     O52005   6.917   8.286   8.453 -1.0544  0.2522 -0.5872
  386MOL0     C52006   7.044   8.251   8.477  0.1673 -0.0308  0.1474
  386MOL0     C52007   7.137   8.342   8.519  1.0585 -0.0134 -0.8821
  386MOL0     C52008   7.264   8.315   8.550 -1.0419  0.0654 -0.1093
  386MOL0     C52009   7.313   8.180   8.535 -0.3177 -0.0842 -0.2851
  386MOL0     O52010   7.447   8.150   8.540 -0.3668 -0.3225 -0.1633
  386MOL0     C52011   7.536   8.248   8.593 -0.2433 -0.0873 -0.1426
  386MOL0     C52012   7.668   8.192   8.597  0.7651  1.0392  0.1747
  386MOL0     C52013   7.673   8.060   8.690  0.1227 -0.2930 -0.2341
  386MOL0     C52014   7.808   7.985   8.693  0.8983 -0.7736  0.1684
  386MOL0     C52015   7.820   7.903   8.821  1.1912 -0.0531  1.1251
  386MOL0     C52016   7.919   7.786   8.817 -0.0977  0.0634  0.1997
  386MOL0     C52017   7.934   7.728   8.956  0.1570 -0.4474 -1.1777
  386MOL0     C52018   8.077   7.696   8.995 -0.5988  0.1664 -0.0366
  386MOL0    Cl52019   8.156   7.595   8.868 -0.0716  0.1225 -0.0921
  386MOL0     C52020   7.227   8.083   8.497  0.1969  0.8532  0.2557
  386MOL0     C52021   7.087   8.113   8.477  0.9221 -0.1962 -0.1542
  386MOL0     O52022   6.878   8.267   8.680 -0.2711  0.1470 -0.1911
  386MOL0     C52023   6.611   8.300   8.654  0.5994  0.6853 -1.1163
  386MOL0     C52024   6.477   8.327   8.640 -0.4089  0.5767 -0.3057
  386MOL0     N52025   5.921   8.067   8.246 -0.0935 -0.2491  1.1688
  386MOL0     N52026   5.796   8.053   8.264 -0.0999 -0.4062 -0.4624
  386MOL0     C52027   5.107   8.546   8.098 -0.1761  0.6518  0.1253
  386MOL0     C52028   5.135   8.673   8.069  0.5269 -0.2515  0.9386
  386MOL0     C52029   5.040   9.066   7.858 -0.3562  0.2412 -0.1127
  386MOL0     C52030   5.171   9.127   7.849 -0.0500  0.8255 -0.0398
  386MOL0     C52031   5.189   9.263   7.816 -1.1096  0.8987 -0.1096
  386MOL0     C52032   5.078   9.340   7.787 -0.6900  0.7826  0.2777
  386MOL0     O52033   5.089   9.473   7.759  0.0889  0.0885  0.5654
  386MOL0     C52034   5.201   9.533   7.678  0.4162 -0.2447  0.4855
  386MOL0     C52035   5.209   9.683   7.712 -0.3154  0.1745  0.9133
  386MOL0     C52036   5.230   9.710   7.860  0.1255 -0.8081 -0.2605
  386MOL0     C52037   5.251   9.867   7.871  0.2154 -0.2695 -1.2824
  386MOL0     C52038   5.129   9.940   7.878 -0.4245  0.6387  0.2750
  386MOL0     C52039   5.026  10.003   7.876 -0.6467 -0.0103  0.1633
  386MOL0     C52040   4.949   9.290   7.794 -0.2423  0.6303 -0.9979
  386MOL0     C52041   4.923   9.152   7.840 -0.0603  0.0662  0.2596
  386MOL0     C52042   4.781   9.108   7.842 -0.2680  0.1870  0.2192
  386MOL0     H52043   5.187   8.659   7.732  1.6118 -0.7137 -0.5335
  386MOL0     H52044   5.164   8.407   7.790  1.2245 -1.8050  1.6923
  386MOL0     H52045   5.252   8.215   8.003 -0.4915  0.8269  0.3874
  386MOL0     H52046   5.230   8.287   8.163 -0.3973 -2.3560  1.3825
  386MOL0     H52047   5.085   8.034   8.066  0.7320 -0.4264 -0.5740
  386MOL0     H52048   5.022   8.138   8.186 -0.2507  3.3561 -3.2047
  386MOL0     H52049   5.282   7.976   8.188 -0.3871  0.8760 -0.5552
  386MOL0     H52050   5.139   7.951   8.281 -2.5004  1.3834 -0.5795
  386MOL0     H52051   5.364   8.168   8.312  1.1226  1.3057  4.1409
  386MOL0     H52052   5.208   8.210   8.374  0.0175 -0.4831  0.4889
  386MOL0     H52053   5.319   8.110   8.548 -2.7615  2.7132 -0.7490
  386MOL0     H52054   5.195   8.000   8.497 -0.7915 -0.6620 -2.1585
  386MOL0     H52055   5.409   7.873   8.549  0.7470  1.0298  0.4286
  386MOL0     H52056   5.390   7.898   8.359 -1.5648 -0.8233  0.6465
  386MOL0     H52057   5.566   8.007   8.573 -1.0366  0.6595 -0.2519
  386MOL0     H52058   5.549   8.100   8.419  0.3627 -0.4327 -0.6041
  386MOL0     H52059   5.675   7.825   8.467 -1.2608 -2.4616 -3.6318
  386MOL0     H52060   5.615   7.882   8.312 -2.0665 -0.0925  0.7641
  386MOL0     H52061   5.929   7.912   8.531  0.4317  1.6875  0.6420
  386MOL0     H52062   6.138   7.951   8.487 -1.2193  2.0461  0.6785
  386MOL0     H52063   6.184   7.943   8.321 -1.0489 -1.5495  0.8888
  386MOL0     H52064   6.297   8.131   8.373  0.2605 -2.5058  0.9193
  386MOL0     H52065   6.149   8.212   8.338 -0.5364  1.3303  1.0049
  386MOL0     H52066   6.278   8.162   8.613  1.8625  1.9930 -0.7432
  386MOL0     H52067   6.097   8.156   8.598 -0.8986  0.8306 -1.6065
  386MOL0     H52068   6.183   8.378   8.665  0.0385  0.6380  0.0959
  386MOL0     H52069   6.097   8.380   8.516  0.5458 -1.5332  0.1352
  386MOL0     H52070   6.456   8.438   8.333 -0.4097 -2.9344 -2.3322
  386MOL0     H52071   6.717   8.383   8.348  3.0966  2.0834  1.4741
  386MOL0     H52072   7.118   8.449   8.522 -1.5105 -0.4195  1.0995
  386MOL0     H52073   7.331   8.400   8.550 -0.3305 -0.3907 -2.4442
  386MOL0     H52074   7.537   8.345   8.541 -1.5200 -0.4136 -0.8210
  386MOL0     H52075   7.498   8.272   8.693  0.7115  1.6326 -0.1451
  386MOL0     H52076   7.694   8.164   8.495 -2.9142 -0.4797 -0.5086
  386MOL0     H52077   7.735   8.273   8.628  3.1799 -0.9795  0.5549
  386MOL0     H52078   7.636   8.086   8.790  2.9343 -0.1955  0.8862
  386MOL0     H52079   7.602   7.987   8.651 -2.4697  2.2949 -0.7605
  386MOL0     H52080   7.890   8.059   8.692  0.1114  0.1271  0.5153
  386MOL0     H52081   7.806   7.915   8.610  2.4805 -2.6540  1.6198
  386MOL0     H52082   7.723   7.864   8.855  0.2271  0.9815 -0.3366
  386MOL0     H52083   7.857   7.976   8.893 -1.9969  0.4623  2.4255
  386MOL0     H52084   7.872   7.703   8.763 -2.1357  0.9088  0.5670
  386MOL0     H52085   8.019   7.814   8.782  0.5547  1.6433  2.9652
  386MOL0     H52086   7.877   7.635   8.965 -0.5096  0.1350  1.6996
  386MOL0     H52087   7.884   7.792   9.029  1.7376 -0.6024  0.0786
  386MOL0     H52088   8.129   7.790   9.018  0.7799 -0.5346 -0.1580
  386MOL0     H52089   8.082   7.641   9.089  0.6814  0.6459  0.2043
  386MOL0     H52090   7.256   7.978   8.498 -2.7035 -0.0208  0.2528
  386MOL0     H52091   7.023   8.029   8.453  0.8004 -0.5002  1.1524
  386MOL0     H52092   6.647   8.263   8.749  1.1157  2.6934 -0.4687
  386MOL0     H52093   6.401   8.325   8.717 -0.6031 -0.8740 -0.5176
  386MOL0     H52094   5.077   8.513   8.197  0.2905 -0.8037 -0.1963
  386MOL0     H52095   5.119   8.747   8.147  0.1134  3.4528 -2.3657
  386MOL0     H52096   5.263   9.076   7.875 -0.2438  1.3111  1.7483
  386MOL0     H52097   5.291   9.301   7.821 -0.6524 -0.2581 -0.1781
  386MOL0     H52098   5.161   9.519   7.577  0.6107 -0.9211  0.4991
  386MOL0     H52099   5.294   9.478   7.694  0.6045 -0.4768 -1.2101
  386MOL0     H52100   5.122   9.737   7.673  0.8855  0.4387 -1.5864
  386MOL0     H52101   5.297   9.718   7.657 -2.4476  0.0696 -2.9001
  386MOL0     H52102   5.323   9.660   7.889 -0.1235 -1.8409 -1.1784
  386MOL0     H52103   5.150   9.681   7.929  1.8682 -1.7490  1.4777
  386MOL0     H52104   5.312   9.896   7.957  1.9356 -2.8692 -1.5087
  386MOL0     H52105   5.300   9.900   7.779  0.9945 -0.3123 -0.8921
  386MOL0     H52106   4.931  10.053   7.877  0.7238  2.7998  0.5636
  386MOL0     H52107   4.870   9.363   7.778 -0.9500 -0.3013 -1.7995
  386MOL0     H52108   4.754   9.052   7.933 -0.6677 -0.3935 -0.2460
  386MOL0     H52109   4.716   9.196   7.850  1.0567  1.0586  2.5155
  386MOL0     H52110   4.752   9.049   7.755 -1.8431  4.2147 -2.2507
  387MOL0     O52111   1.435   5.778   1.756 -0.6639 -0.4507  0.0768
  387MOL0     C52112   1.418   5.750   1.641 -0.6985 -0.4153  0.0393
  387MOL0     O52113   1.362   5.632   1.589 -0.2808  0.8795  0.7420
  387MOL0     C52114   1.295   5.538   1.662  0.4568 -0.1859  0.9771
  387MOL0     C52115   1.277   5.535   1.799  0.1153 -0.4436 -0.9405
  387MOL0     C52116   1.186   5.440   1.859  0.5755  0.1915 -0.1316
  387MOL0     C52117   1.130   5.331   1.777  0.6954  0.3495 -0.0478
  387MOL0     O52118   1.034   5.242   1.827 -0.1109  0.0233  0.1478
  387MOL0     C52119   1.045   5.199   1.964  0.5560  0.7647  0.0376
  387MOL0     C52120   0.952   5.094   2.003  0.2818  0.2719 -0.3024
  387MOL0     C52121   0.991   4.949   1.971  0.2621 -0.3186  0.0200
  387MOL0     C52122   0.910   4.849   2.054 -0.1451 -0.4639  0.0904
  387MOL0     C52123   0.942   4.715   1.998  0.1429 -0.1783  0.3838
  387MOL0     C52124   0.880   4.609   2.093  0.2089 -0.5334  0.8849
  387MOL0     C52125   0.883   4.463   2.032 -0.6403  1.1414 -0.8041
  387MOL0     C52126   1.029   4.442   1.968 -0.7190  1.0049 -0.2668
  387MOL0     N52127   1.061   4.299   1.970 -0.4381  0.0241  0.3797
  387MOL0     C52128   1.003   4.188   1.920  0.6783 -0.3496 -0.4541
  387MOL0     C52129   1.093   4.087   1.945 -0.2644  1.0196  1.6978
  387MOL0     C52130   1.096   3.951   1.884  0.2339  0.2407 -0.8626
  387MOL0     C52131   1.234   3.903   1.835 -0.5701 -0.3092  0.0530
  387MOL0     C52132   1.222   3.774   1.757 -0.7349  0.0383  0.6475
  387MOL0     C52133   1.356   3.729   1.694  0.0730 -0.0003  0.1481
  387MOL0     O52134   1.378   3.591   1.715  0.0436  0.1606  0.1009
  387MOL0     C52135   1.488   3.527   1.674  0.3383  0.3109 -0.0271
  387MOL0     C52136   1.468   3.387   1.643  0.1549  0.1713  0.6667
  387MOL0     C52137   1.565   3.313   1.575  0.6867  0.2890  0.5212
  387MOL0     C52138   1.686   3.376   1.539 -1.3317  0.3349  0.4298
  387MOL0     C52139   1.790   3.299   1.463  0.5685 -0.2663  0.4854
  387MOL0     O52140   1.789   3.171   1.464 -0.0362  0.7856  0.0030
  387MOL0     C52141   1.863   3.084   1.386  0.1958  0.9583  0.3926
  387MOL0     C52142   1.799   2.965   1.350 -0.0631  0.1193  0.0452
  387MOL0     C52143   1.864   2.871   1.273 -0.2721  0.3672 -0.2419
  387MOL0     C52144   1.986   2.906   1.206 -0.4751 -0.0611 -0.7072
  387MOL0     O52145   2.056   2.822   1.124  0.3321  1.0491  0.3513
  387MOL0     C52146   2.007   2.688   1.088 -0.0081  0.0601  0.6059
  387MOL0     C52147   2.118   2.601   1.023 -0.0313 -0.3566 -0.0857
  387MOL0     C52148   2.077   2.457   1.032  0.4872  0.2019  0.2170
  387MOL0     C52149   1.940   2.416   0.966 -0.0703  0.1718 -0.1746
  387MOL0     C52150   1.933   2.440   0.810 -0.0082  1.0696 -0.1514
  387MOL0     C52151   1.786   2.425   0.763 -0.8454  0.7281  0.6611
  387MOL0     C52152   1.772   2.490   0.622 -0.1422 -0.5377  0.5274
  387MOL0     C52153   1.655   2.448   0.536 -0.4296 -0.1523 -0.5792
  387MOL0    Cl52154   1.514   2.513   0.627  0.2338 -0.1700  0.3054
  387MOL0     C52155   2.042   3.026   1.230  0.1104  0.4839  0.7048
  387MOL0     C52156   1.983   3.117   1.317 -0.5277  0.5644  0.3919
  387MOL0     O52157   1.859   3.375   1.391 -0.0513 -0.3457  0.3047
  387MOL0     C52158   1.702   3.510   1.580  0.1280 -0.0426 -0.6720
  387MOL0     C52159   1.601   3.582   1.642 -1.2321 -0.8324  0.5099
  387MOL0     N52160   1.201   4.139   2.014 -0.3057  0.6543  0.0478
  387MOL0     N52161   1.180   4.264   2.031  0.5979 -0.3710 -0.5407
  387MOL0     C52162   1.161   5.336   1.640 -0.3427  0.7981  0.5888
  387MOL0     C52163   1.245   5.427   1.581 -0.2316  0.0890 -0.4648
  387MOL0     C52164   1.467   5.843   1.541  0.7661  0.7014 -0.0911
  387MOL0     C52165   1.588   5.826   1.474  0.0832 -0.8307  0.1133
  387MOL0     C52166   1.635   5.921   1.384  0.7917  0.2148 -0.2694
  387MOL0     C52167   1.567   6.038   1.357 -0.6870  0.6673  0.1827
  387MOL0     O52168   1.608   6.152   1.292 -1.1156 -0.0310  0.6219
  387MOL0     C52169   1.741   6.158   1.234 -0.0221  0.5879 -0.0133
  387MOL0     C52170   1.743   6.078   1.106 -0.1838 -0.0838 -0.0613
  387MOL0     C52171   1.875   6.086   1.023  0.1984 -0.4363  0.7370
  387MOL0     C52172   1.875   5.993   0.893 -0.1340  0.1558 -0.3299
  387MOL0     C52173   1.902   5.850   0.919  0.2493 -0.6404 -0.2970
  387MOL0     C52174   1.921   5.737   0.961 -0.2324 -1.1362 -0.1348
  387MOL0     C52175   1.445   6.050   1.416 -0.2153  0.6331 -0.2193
  387MOL0     C52176   1.396   5.963   1.505  1.0843  0.8108 -0.3530
  387MOL0     C52177   1.250   5.980   1.547 -0.6439 -0.7964 -0.2595
  387MOL0     H52178   1.316   5.612   1.865  2.1095 -1.4581 -0.8359
  387MOL0     H52179   1.168   5.458   1.965 -1.0383 -1.8464  0.0154
  387MOL0     H52180   1.146   5.158   1.971 -0.2148 -1.4280 -0.6858
  387MOL0     H52181   1.042   5.285   2.032 -2.6165  0.7331  0.0972
  387MOL0     H52182   0.852   5.114   1.963  0.4692  2.1585  0.0629
  387MOL0     H52183   0.947   5.113   2.111 -1.5078  1.4991 -0.5539
  387MOL0     H52184   1.095   4.929   1.998  0.4735  2.6069  1.7677
  387MOL0     H52185   0.967   4.927   1.866 -2.2120 -1.2043  0.6885
  387MOL0     H52186   0.932   4.856   2.161  1.3265 -1.3182 -0.1204
  387MOL0     H52187   0.802   4.860   2.044 -0.1065 -1.4816 -1.8190
  387MOL0     H52188   0.897   4.705   1.899  3.2583 -1.2386 -1.0685
  387MOL0     H52189   1.052   4.712   1.991  0.4035  3.2172  1.1698
  387MOL0     H52190   0.945   4.607   2.180 -0.4312 -0.6416  1.3648
  387MOL0     H52191   0.779   4.638   2.124  0.5639  0.4781  1.1289
  387MOL0     H52192   0.807   4.439   1.956 -2.7444 -2.8504  2.1559
  387MOL0     H52193   0.866   4.398   2.119  2.3407  0.4289 -0.6551
  387MOL0     H52194   1.019   4.481   1.866  1.5120  1.4781 -0.3676
  387MOL0     H52195   1.111   4.501   2.010 -0.6792  2.3251 -2.0604
  387MOL0     H52196   0.919   4.197   1.851  0.6580  1.9066 -0.2298
  387MOL0     H52197   1.062   3.883   1.962 -2.2044 -0.9520 -2.8159
  387MOL0     H52198   1.026   3.956   1.800 -0.4777  1.7877 -0.2019
  387MOL0     H52199   1.280   3.982   1.775 -2.1211 -0.0925 -0.9104
  387MOL0     H52200   1.291   3.887   1.927  1.2216  0.1014 -0.9430
  387MOL0     H52201   1.148   3.784   1.678  0.4261 -0.5049 -0.5469
  387MOL0     H52202   1.189   3.697   1.827 -0.8568 -0.5140 -0.0128
  387MOL0     H52203   1.443   3.780   1.735  0.1683 -1.2650  1.5811
  387MOL0     H52204   1.348   3.757   1.588 -2.0602  1.7503  0.6925
  387MOL0     H52205   1.369   3.347   1.662  0.6665 -2.1801 -1.1054
  387MOL0     H52206   1.539   3.208   1.562 -0.8450  0.2528  3.1983
  387MOL0     H52207   1.702   2.940   1.391  0.7617 -1.9907  0.8421
  387MOL0     H52208   1.810   2.786   1.235 -0.4753  1.9221 -3.8258
  387MOL0     H52209   1.968   2.626   1.169 -0.5242 -1.0971 -0.4810
  387MOL0     H52210   1.924   2.707   1.019 -0.3616 -0.8186  0.7714
  387MOL0     H52211   2.132   2.647   0.925 -0.7871 -0.8400 -0.4311
  387MOL0     H52212   2.208   2.600   1.087 -1.3413 -0.4485  1.8488
  387MOL0     H52213   2.159   2.395   0.995  0.5950 -1.0512  2.3493
  387MOL0     H52214   2.067   2.430   1.138 -0.3335 -1.7802 -0.3067
  387MOL0     H52215   1.853   2.462   1.013 -0.6045 -0.1836 -0.8053
  387MOL0     H52216   1.937   2.309   0.989  1.9737  0.3420  1.1929
  387MOL0     H52217   1.994   2.367   0.757 -1.3802 -0.6280  0.5240
  387MOL0     H52218   1.971   2.542   0.795  2.9146  0.4674  2.3340
  387MOL0     H52219   1.760   2.320   0.747 -1.3931  0.9362  0.1241
  387MOL0     H52220   1.712   2.475   0.826 -0.5710  1.8518  0.1217
  387MOL0     H52221   1.850   2.462   0.551 -2.3125 -0.3983 -2.1000
  387MOL0     H52222   1.770   2.598   0.639  3.7442  0.0386 -1.5925
  387MOL0     H52223   1.664   2.494   0.437 -0.4712  1.0430 -0.0454
  387MOL0     H52224   1.648   2.340   0.529  2.9133 -0.6679  1.7990
  387MOL0     H52225   2.139   3.047   1.186  0.0888 -0.9117 -0.0818
  387MOL0     H52226   2.027   3.214   1.336 -0.4123  0.0612  3.1414
  387MOL0     H52227   1.798   3.561   1.574  0.0813  0.2196  0.5141
  387MOL0     H52228   1.618   3.689   1.654 -1.6945 -0.9300  2.3695
  387MOL0     H52229   1.133   5.252   1.576  0.7458  0.9008 -0.0496
  387MOL0     H52230   1.264   5.427   1.474 -1.8087 -0.4408 -0.7631
  387MOL0     H52231   1.637   5.730   1.490  0.0799 -0.8243  0.1618
  387MOL0     H52232   1.734   5.902   1.343  1.0636 -0.0808  0.4838
  387MOL0     H52233   1.816   6.108   1.297 -1.8685 -1.8555  0.3842
  387MOL0     H52234   1.766   6.263   1.217 -3.8458  1.4503 -1.1200
  387MOL0     H52235   1.660   6.114   1.044 -1.9111 -0.1565  2.0694
  387MOL0     H52236   1.734   5.970   1.121  4.1097 -0.4182  1.3808
  387MOL0     H52237   1.973   6.077   1.072  0.9928  1.2144 -0.4375
  387MOL0     H52238   1.880   6.185   0.977  0.3410 -1.1463 -0.8441
  387MOL0     H52239   1.780   6.000   0.840 -1.4869 -3.8123  1.1589
  387MOL0     H52240   1.956   6.023   0.827  0.5300 -0.1161  0.3417
  387MOL0     H52241   1.937   5.639   1.002 -1.1086 -1.2158  0.0367
  387MOL0     H52242   1.389   6.142   1.405  1.3278  1.8899  1.6556
  387MOL0     H52243   1.218   5.908   1.622 -1.7780 -2.8239 -2.5323
  387MOL0     H52244   1.245   6.077   1.598 -0.9647 -0.2310 -1.3218
  387MOL0     H52245   1.186   5.974   1.458 -1.0353 -3.0184  0.1148
  388MOL0     O52246   8.363   1.134   9.701  0.8059  0.2537 -0.3988
  388MOL0     C52247   8.432   1.239   9.696 -0.5556 -0.2834  0.4137
  388MOL0     O52248   8.485   1.308   9.799  0.0215 -0.7918 -1.2584
  388MOL0     C52249   8.473   1.270   9.930 -0.3033  0.3858 -0.5126
  388MOL0     C52250   8.585   1.279  10.012  0.4270 -0.3694  0.1959
  388MOL0     C52251   8.577   1.269  10.154  0.3831 -0.8204  0.3125
  388MOL0     C52252   8.460   1.213  10.207 -0.4756  0.6795 -0.1078
  388MOL0     O52253   8.451   1.165  10.335 -0.3760 -0.3591  0.0121
  388MOL0     C52254   8.531   1.216  10.434 -0.7826 -0.6371 -0.2237
  388MOL0     C52255   8.503   1.363  10.469  0.1285  0.8636  0.3028
  388MOL0     C52256   8.360   1.387  10.526  0.2485  0.3430  0.5345
  388MOL0     C52257   8.335   1.535  10.549  0.3799 -0.0797  0.0063
  388MOL0     C52258   8.199   1.553  10.618  0.2025 -0.0870  0.4294
  388MOL0     C52259   8.144   1.701  10.658  0.6635  0.3423  0.1828
  388MOL0     C52260   8.200   1.731  10.800 -0.1872 -0.3329 -0.6687
  388MOL0     C52261   8.159   1.879  10.811 -0.9684 -0.1389 -0.3931
  388MOL0     N52262   8.019   1.915  10.816  0.0334  0.8784  0.2712
  388MOL0     C52263   7.961   2.044  10.802 -0.4348  0.1325 -0.5251
  388MOL0     C52264   7.828   2.023  10.824 -0.7927 -1.0691  0.5413
  388MOL0     C52265   7.709   2.111  10.797 -0.5284  0.7144 -0.5683
  388MOL0     C52266   7.651   2.096  10.653 -0.2735  0.2864 -0.3802
  388MOL0     C52267   7.755   2.140  10.537 -0.0164  0.3106  0.1006
  388MOL0     C52268   7.739   2.288  10.508 -0.3627  0.0339  0.3717
  388MOL0     O52269   7.851   2.352  10.450 -0.1739  0.3445 -0.7253
  388MOL0     C52270   7.904   2.311  10.334  0.6806 -0.8151 -0.1138
  388MOL0     C52271   7.827   2.311  10.214  1.0270 -0.0366  0.9299
  388MOL0     C52272   7.875   2.258  10.093 -1.0929 -0.6482  0.4858
  388MOL0     C52273   8.016   2.229  10.097  1.2349 -0.2371 -1.4452
  388MOL0     C52274   8.066   2.204   9.957 -0.2504 -0.3029 -0.1335
  388MOL0     O52275   7.989   2.198   9.846 -0.0446  0.1005  0.2040
  388MOL0     C52276   8.007   2.110   9.740 -0.4430 -0.2057  0.5030
  388MOL0     C52277   8.066   1.984   9.756 -0.0293 -0.1300 -0.4600
  388MOL0     C52278   8.068   1.886   9.656  1.0429  0.1495  0.1612
  388MOL0     C52279   8.012   1.924   9.526 -0.2824  0.0483 -0.0306
  388MOL0     O52280   8.018   1.849   9.412  0.0222  0.6105  0.1860
  388MOL0     C52281   7.925   1.858   9.293  0.2619  0.4711 -0.9961
  388MOL0     C52282   7.960   1.718   9.234 -0.3572 -0.1145 -0.7981
  388MOL0     C52283   7.932   1.712   9.082  0.6101  0.1308 -0.3836
  388MOL0     C52284   7.932   1.566   9.038  0.4853 -0.3672 -0.9099
  388MOL0     C52285   7.864   1.538   8.901  0.2923  0.1709  0.0025
  388MOL0     C52286   7.913   1.622   8.783 -0.3144 -0.1291 -0.1021
  388MOL0     C52287   7.914   1.535   8.654 -0.3642 -0.5900  0.0226
  388MOL0     C52288   7.908   1.615   8.530  1.0112  1.3537 -0.9443
  388MOL0    Cl52289   8.075   1.670   8.496 -0.0801  0.1809 -0.0541
  388MOL0     C52290   7.955   2.047   9.514  0.2600 -0.6501  0.2326
  388MOL0     C52291   7.950   2.146   9.611 -0.3127  1.1843 -0.1934
  388MOL0     O52292   8.187   2.194   9.950 -0.1168  0.5480  1.0925
  388MOL0     C52293   8.096   2.246  10.207 -0.3026  0.6053 -0.8363
  388MOL0     C52294   8.038   2.282  10.325 -0.1449 -0.5855  1.2748
  388MOL0     N52295   7.812   1.898  10.861  0.6527  0.4007 -0.7772
  388MOL0     N52296   7.926   1.826  10.847  0.2126  0.0623 -0.6098
  388MOL0     C52297   8.350   1.188  10.118  0.3956  0.0850 -1.5925
  388MOL0     C52298   8.355   1.214   9.983  0.5754 -0.1351 -0.4898
  388MOL0     C52299   8.466   1.298   9.555 -0.4756  0.2967  0.3072
  388MOL0     C52300   8.443   1.439   9.541  0.0073 -0.5031 -0.6303
  388MOL0     C52301   8.501   1.503   9.428  0.1822 -0.7607 -0.0391
  388MOL0     C52302   8.565   1.441   9.318 -0.5584 -0.3061 -0.0416
  388MOL0     O52303   8.636   1.505   9.220 -0.5630 -0.0474  0.5048
  388MOL0     C52304   8.602   1.450   9.083  0.0453  0.0475 -0.7123
  388MOL0     C52305   8.540   1.557   8.995 -0.5727  0.1984 -0.2672
  388MOL0     C52306   8.393   1.571   9.044  0.7690 -0.2002  0.7879
  388MOL0     C52307   8.359   1.719   9.019 -0.2637  1.2462  0.4582
  388MOL0     C52308   8.360   1.748   8.874  0.0576  1.2734  0.5245
  388MOL0     C52309   8.343   1.780   8.759  0.6775  0.4543 -0.0765
  388MOL0     C52310   8.566   1.302   9.327  0.5778  0.3035 -0.4666
  388MOL0     C52311   8.518   1.232   9.442 -0.8508 -0.1144 -0.3762
  388MOL0     C52312   8.531   1.077   9.447  0.3829 -0.1519 -0.1089
  388MOL0     H52313   8.686   1.303   9.979  1.1916  3.0527  4.1922
  388MOL0     H52314   8.661   1.284  10.222  0.3357 -3.7877  1.1562
  388MOL0     H52315   8.505   1.159  10.523  0.4676 -1.1072 -0.1346
  388MOL0     H52316   8.636   1.187  10.423  0.1512  1.1726  2.7676
  388MOL0     H52317   8.517   1.419  10.376  3.4279 -1.7017 -0.9208
  388MOL0     H52318   8.572   1.394  10.548  0.6950  1.6461 -0.4739
  388MOL0     H52319   8.344   1.326  10.616 -1.3540  0.2156  0.1872
  388MOL0     H52320   8.285   1.355  10.454 -0.0716  2.8072 -0.3417
  388MOL0     H52321   8.415   1.575  10.612 -1.8724  2.5082  1.4622
  388MOL0     H52322   8.341   1.593  10.456  6.1377  0.1186  0.1262
  388MOL0     H52323   8.127   1.512  10.545  0.6798 -0.4608  0.1639
  388MOL0     H52324   8.191   1.498  10.712  0.8030  0.4108  0.7787
  388MOL0     H52325   8.170   1.778  10.585 -1.4492  4.5391  3.3775
  388MOL0     H52326   8.034   1.697  10.662  0.6436 -1.6690 -1.1997
  388MOL0     H52327   8.309   1.740  10.798 -0.3903  4.4216 -1.2483
  388MOL0     H52328   8.156   1.685  10.889 -1.9051 -0.1748 -1.3991
  388MOL0     H52329   8.202   1.925  10.901  2.1718 -0.5112 -1.5947
  388MOL0     H52330   8.199   1.934  10.726 -4.4706  4.7973  0.7216
  388MOL0     H52331   8.017   2.124  10.755  1.4101 -0.4590  0.5516
  388MOL0     H52332   7.627   2.103  10.870  0.1327  2.1681  0.3859
  388MOL0     H52333   7.749   2.211  10.815 -0.5351  0.5960  0.1287
  388MOL0     H52334   7.632   1.990  10.636 -1.8232  0.2576  1.1982
  388MOL0     H52335   7.553   2.145  10.647  0.2274  2.1914  3.6028
  388MOL0     H52336   7.744   2.091  10.439  4.8019  1.6309 -1.3676
  388MOL0     H52337   7.851   2.095  10.564 -1.4059 -4.3796 -1.6879
  388MOL0     H52338   7.708   2.335  10.602  1.0462 -0.5944  1.1667
  388MOL0     H52339   7.655   2.298  10.438  1.2638 -2.3175 -2.1088
  388MOL0     H52340   7.722   2.333  10.226  1.1024  0.7159  0.2698
  388MOL0     H52341   7.814   2.241  10.004 -4.3808  3.3753  1.6719
  388MOL0     H52342   8.097   1.956   9.857 -2.2597 -5.3639 -0.8818
  388MOL0     H52343   8.108   1.790   9.689 -1.6331 -0.2684  2.5026
  388MOL0     H52344   7.819   1.860   9.320  0.4459 -0.9251 -0.0210
  388MOL0     H52345   7.953   1.942   9.229  0.3976  1.9132  0.8643
  388MOL0     H52346   8.063   1.682   9.243 -0.5755 -1.0118 -1.7059
  388MOL0     H52347   7.899   1.653   9.297  2.2980 -1.3514  0.6844
  388MOL0     H52348   7.838   1.766   9.066 -0.2285 -0.7736  1.1656
  388MOL0     H52349   8.013   1.758   9.026  1.1075 -1.8336 -1.3572
  388MOL0     H52350   7.874   1.511   9.113  3.1901 -1.5759  0.3918
  388MOL0     H52351   8.035   1.529   9.040  0.7406  0.3461  0.1330
  388MOL0     H52352   7.755   1.540   8.910  0.3246  3.3313  0.8017
  388MOL0     H52353   7.896   1.433   8.895 -1.2820 -0.5118  2.2234
  388MOL0     H52354   7.852   1.712   8.772 -0.5220  0.0996  2.3330
  388MOL0     H52355   8.017   1.650   8.804 -0.2241 -1.7258  1.8984
  388MOL0     H52356   7.822   1.475   8.654  0.1068 -1.3327 -0.5543
  388MOL0     H52357   8.003   1.471   8.656 -1.5844 -2.3681 -0.1619
  388MOL0     H52358   7.868   1.547   8.454 -2.0625  0.5562  1.1597
  388MOL0     H52359   7.838   1.699   8.533 -2.5612 -1.3423  2.4099
  388MOL0     H52360   7.917   2.080   9.418  1.5965  2.1477  0.5528
  388MOL0     H52361   7.892   2.237   9.603  1.0113  1.9825 -1.0824
  388MOL0     H52362   8.198   2.210  10.206 -1.3422 -2.7039 -1.7662
  388MOL0     H52363   8.101   2.280  10.414  2.5046  0.0326 -0.4713
  388MOL0     H52364   8.259   1.140  10.151  2.3259 -3.4614 -0.9771
  388MOL0     H52365   8.263   1.197   9.929  1.3615 -0.7596 -1.6751
  388MOL0     H52366   8.392   1.489   9.623  1.4988 -1.8722  1.1989
  388MOL0     H52367   8.509   1.612   9.425  2.2837 -0.7705  2.1470
  388MOL0     H52368   8.549   1.356   9.068  0.8939 -0.3442 -1.3667
  388MOL0     H52369   8.698   1.431   9.034 -0.1767 -1.6664 -0.5473
  388MOL0     H52370   8.536   1.519   8.893  0.2225  3.2921 -1.5346
  388MOL0     H52371   8.601   1.647   9.007  1.5074 -1.1401 -0.4105
  388MOL0     H52372   8.381   1.564   9.152 -0.2480 -0.0499  0.6948
  388MOL0     H52373   8.325   1.512   8.982  0.2857  1.7658 -0.6872
  388MOL0     H52374   8.259   1.742   9.058  0.7097  3.5709  1.7453
  388MOL0     H52375   8.438   1.765   9.078  2.0490 -3.0860  1.1401
  388MOL0     H52376   8.348   1.769   8.652 -1.0678 -2.9952  0.0510
  388MOL0     H52377   8.617   1.237   9.257 -0.7316  0.2985 -1.4459
  388MOL0     H52378   8.592   1.034   9.368  1.2923 -2.7605  1.8696
  388MOL0     H52379   8.562   1.042   9.546  0.5524  1.1623  0.3313
  388MOL0     H52380   8.432   1.032   9.432  1.2761 -1.3943 -2.7092
  389MOL0     O52381   2.175   3.944   4.691  1.1215 -0.1069  0.1133
  389MOL0     C52382   2.090   3.995   4.616  0.1330  0.7237 -0.0516
  389MOL0     O52383   2.116   4.029   4.491  0.1812  0.3817 -0.3651
  389MOL0     C52384   2.249   4.019   4.452  0.2137 -0.1848 -0.9437
  389MOL0     C52385   2.368   4.062   4.508 -0.6517 -0.0160  0.2101
  389MOL0     C52386   2.484   4.078   4.437 -0.2658 -0.5748  0.0288
  389MOL0     C52387   2.496   4.008   4.309  1.3919 -0.4188 -0.0638
  389MOL0     O52388   2.612   4.016   4.238 -0.3992  0.5590  0.1465
  389MOL0     C52389   2.696   4.130   4.248  0.8498  0.0220 -0.3181
  389MOL0     C52390   2.795   4.128   4.137 -0.0793  0.3331  0.3715
  389MOL0     C52391   2.894   4.248   4.160  0.7013  0.1590  0.3230
  389MOL0     C52392   2.913   4.331   4.026 -0.9093  0.1168  0.0156
  389MOL0     C52393   3.003   4.255   3.919 -0.4535  0.4140 -0.3352
  389MOL0     C52394   3.154   4.251   3.932  0.3076  0.1345 -0.6264
  389MOL0     C52395   3.220   4.140   3.849 -0.3389  0.6044 -0.1055
  389MOL0     C52396   3.217   4.167   3.701  0.9964  0.4868 -0.4665
  389MOL0     N52397   3.270   4.300   3.656 -0.2729  1.3957  0.2915
  389MOL0     C52398   3.398   4.346   3.653 -0.2928  0.1947  0.1216
  389MOL0     C52399   3.389   4.480   3.627  0.7599  0.0564 -0.5703
  389MOL0     C52400   3.507   4.571   3.620 -0.7898 -0.3397 -0.1570
  389MOL0     C52401   3.551   4.594   3.480  0.4421  0.2717 -0.0616
  389MOL0     C52402   3.663   4.695   3.493 -0.3301 -0.1474  0.4728
  389MOL0     C52403   3.743   4.707   3.366  0.3243  0.5971  0.9848
  389MOL0     O52404   3.644   4.728   3.264 -0.0619 -0.2533  0.3750
  389MOL0     C52405   3.689   4.739   3.137 -0.5793 -0.0936  0.1089
  389MOL0     C52406   3.820   4.780   3.098  0.0105  0.5759  0.0461
  389MOL0     C52407   3.859   4.795   2.958 -0.2977 -0.3323 -0.1637
  389MOL0     C52408   3.769   4.743   2.863 -0.3202 -0.0672 -0.0590
  389MOL0     C52409   3.806   4.739   2.724 -0.0430 -0.0026  0.4224
  389MOL0     O52410   3.909   4.817   2.683 -0.0845  0.4359  0.2542
  389MOL0     C52411   3.938   4.826   2.550  1.0899  0.2486  0.0320
  389MOL0     C52412   3.974   4.949   2.503  0.3495  0.8582 -0.7399
  389MOL0     C52413   3.987   4.971   2.365 -0.7608  0.3144  0.7611
  389MOL0     C52414   3.996   4.868   2.274  0.5689  0.6112 -0.0012
  389MOL0     O52415   4.016   4.902   2.145  0.9648  0.3332  0.5835
  389MOL0     C52416   3.914   4.972   2.082 -0.5383  0.5854 -0.4372
  389MOL0     C52417   3.780   4.901   2.099 -0.5019  0.3678 -0.2940
  389MOL0     C52418   3.674   4.986   2.083 -0.1610 -0.1375 -0.1543
  389MOL0     C52419   3.670   5.025   1.942 -0.2359 -0.1814  0.5714
  389MOL0     C52420   3.532   5.075   1.904 -0.5351  0.0853  0.3731
  389MOL0     C52421   3.508   5.094   1.757 -1.0564  0.7438  0.1298
  389MOL0     C52422   3.360   5.091   1.726 -0.9419  0.2584  0.0689
  389MOL0     C52423   3.274   5.191   1.790  0.3532  0.1907  0.4401
  389MOL0    Cl52424   3.110   5.167   1.724 -0.1731  0.0879  0.3150
  389MOL0     C52425   3.966   4.745   2.322 -1.0759  0.9114  0.4392
  389MOL0     C52426   3.939   4.723   2.457  0.1527  0.0764 -0.3243
  389MOL0     O52427   3.733   4.664   2.660  0.4952 -0.2990  0.5285
  389MOL0     C52428   3.639   4.706   2.899 -0.2854 -0.3081 -0.6688
  389MOL0     C52429   3.605   4.700   3.038  0.6929  1.4285  0.4158
  389MOL0     N52430   3.257   4.526   3.630 -0.5702  0.4706  0.1798
  389MOL0     N52431   3.187   4.417   3.639  0.3061 -0.6106 -0.1520
  389MOL0     C52432   2.382   3.951   4.263 -1.1730  0.7487 -0.1341
  389MOL0     C52433   2.261   3.972   4.322 -0.7016  0.7396 -0.2324
  389MOL0     C52434   1.954   4.024   4.670 -0.4914  0.9425 -0.3789
  389MOL0     C52435   1.848   4.024   4.576  1.0485 -0.3693  0.0775
  389MOL0     C52436   1.712   4.024   4.604  0.4567  0.1505  0.0907
  389MOL0     C52437   1.669   4.033   4.737  0.3604  0.1477  0.9756
  389MOL0     O52438   1.537   4.016   4.772  0.1154 -0.1068  0.2994
  389MOL0     C52439   1.433   4.012   4.679  0.2377 -0.9258  0.4507
  389MOL0     C52440   1.299   4.041   4.748  0.3062 -0.3148  0.0452
  389MOL0     C52441   1.202   4.114   4.656 -0.2989  0.7986  0.2455
  389MOL0     C52442   1.086   4.171   4.727 -0.6775  0.2075 -0.1607
  389MOL0     C52443   1.121   4.284   4.804  0.7516 -0.4729 -0.1092
  389MOL0     C52444   1.150   4.380   4.868 -0.1066  0.1877 -0.4083
  389MOL0     C52445   1.768   4.034   4.834  0.4523  0.0310 -0.9038
  389MOL0     C52446   1.905   4.031   4.806 -0.4541  0.1233  0.0523
  389MOL0     C52447   2.014   4.020   4.918  0.0706  0.1863 -0.4048
  389MOL0     H52448   2.374   4.101   4.609  2.4840 -1.5376  0.7313
  389MOL0     H52449   2.564   4.133   4.486 -2.2153  1.9132  0.6677
  389MOL0     H52450   2.643   4.226   4.249 -0.1702 -0.5159 -1.0049
  389MOL0     H52451   2.754   4.116   4.341  1.8064 -0.9127 -1.0287
  389MOL0     H52452   2.745   4.134   4.040  1.3033 -3.9969 -0.8768
  389MOL0     H52453   2.846   4.031   4.142 -1.7776 -0.5633  1.1062
  389MOL0     H52454   2.987   4.195   4.183  0.7984  0.7958  1.4302
  389MOL0     H52455   2.875   4.306   4.250  2.9684  4.4648 -1.6559
  389MOL0     H52456   2.814   4.342   3.981 -0.5522 -0.6286 -0.9691
  389MOL0     H52457   2.952   4.428   4.059  1.1575 -1.5399  2.8678
  389MOL0     H52458   2.970   4.152   3.905 -1.9181  0.9182 -0.8621
  389MOL0     H52459   2.984   4.302   3.822 -0.9233  0.2665 -0.3165
  389MOL0     H52460   3.196   4.348   3.902 -1.4770  0.2017 -3.2025
  389MOL0     H52461   3.180   4.229   4.036  2.1193  0.7932 -0.8928
  389MOL0     H52462   3.166   4.049   3.872  1.3341 -0.6639 -0.9811
  389MOL0     H52463   3.324   4.129   3.884 -0.5269  1.1550  0.6639
  389MOL0     H52464   3.274   4.086   3.655  0.2313  0.8040 -2.0488
  389MOL0     H52465   3.115   4.163   3.661  1.8099 -0.6107 -2.5906
  389MOL0     H52466   3.489   4.286   3.656 -1.8444 -2.2949  0.7642
  389MOL0     H52467   3.468   4.663   3.663 -0.0907 -0.3608  0.5301
  389MOL0     H52468   3.584   4.525   3.682  1.0539 -0.2242 -2.2429
  389MOL0     H52469   3.587   4.500   3.437  0.3091  0.0857  0.2274
  389MOL0     H52470   3.478   4.640   3.412  2.0172  0.8773 -1.4178
  389MOL0     H52471   3.734   4.675   3.574  3.2028 -0.9102 -2.5741
  389MOL0     H52472   3.616   4.790   3.523 -1.8096 -0.6919 -0.0245
  389MOL0     H52473   3.802   4.620   3.334 -0.9585  0.7033 -1.9132
  389MOL0     H52474   3.825   4.779   3.380  0.9445 -0.3442  2.5068
  389MOL0     H52475   3.903   4.811   3.162  1.0106 -0.6690 -0.6125
  389MOL0     H52476   3.958   4.824   2.924 -0.2872 -1.2612 -0.9439
  389MOL0     H52477   3.979   5.034   2.570  2.4179  1.2751 -1.3363
  389MOL0     H52478   4.001   5.071   2.325 -1.8067 -0.0153 -0.4665
  389MOL0     H52479   3.909   5.071   2.127  1.2576  0.6859 -0.3778
  389MOL0     H52480   3.936   4.980   1.975  1.5362 -2.6796 -0.4042
  389MOL0     H52481   3.785   4.817   2.029  0.1480  1.5682 -1.7208
  389MOL0     H52482   3.774   4.867   2.203  1.1511  3.5303  0.9446
  389MOL0     H52483   3.579   4.933   2.098  0.4231 -0.5205  3.0826
  389MOL0     H52484   3.676   5.070   2.154  2.3285  0.5038 -0.9053
  389MOL0     H52485   3.698   4.941   1.877 -0.8291  0.9078 -1.1614
  389MOL0     H52486   3.743   5.106   1.932  1.5010 -1.6705  0.5500
  389MOL0     H52487   3.510   5.159   1.971 -2.6167 -0.6762  0.7276
  389MOL0     H52488   3.463   4.993   1.926  0.2866 -2.1588 -4.1678
  389MOL0     H52489   3.555   5.184   1.718 -1.1530 -0.3075 -2.5720
  389MOL0     H52490   3.552   5.008   1.706  1.3838  2.8006 -1.4822
  389MOL0     H52491   3.318   4.991   1.741 -0.6135 -0.0476 -0.9467
  389MOL0     H52492   3.344   5.100   1.618  0.2625  1.7765 -0.0165
  389MOL0     H52493   3.265   5.178   1.899 -1.9874 -1.0745  0.1580
  389MOL0     H52494   3.330   5.284   1.776  1.7289 -0.8784 -1.5394
  389MOL0     H52495   3.962   4.659   2.256  1.4241  0.6814  0.4902
  389MOL0     H52496   3.907   4.627   2.495 -1.5633  0.6063 -0.3568
  389MOL0     H52497   3.566   4.680   2.823  0.4705 -0.5914 -1.3108
  389MOL0     H52498   3.518   4.647   3.073  3.2229 -1.9277  2.2040
  389MOL0     H52499   2.389   3.899   4.168 -1.2721  2.1852 -0.9583
  389MOL0     H52500   2.172   3.918   4.292  0.4468 -0.9184 -0.8589
  389MOL0     H52501   1.876   4.027   4.471  3.8448  1.5219  0.7496
  389MOL0     H52502   1.645   4.036   4.519  1.8439 -0.8108 -1.1845
  389MOL0     H52503   1.422   3.921   4.618 -1.0074 -0.1420 -0.5449
  389MOL0     H52504   1.454   4.093   4.609 -1.3859 -0.8826 -0.0266
  389MOL0     H52505   1.309   4.098   4.841  2.1365 -1.0519  0.3477
  389MOL0     H52506   1.258   3.950   4.792 -0.9602  0.5627  0.7560
  389MOL0     H52507   1.169   4.035   4.589 -3.8742  0.1996  2.4451
  389MOL0     H52508   1.254   4.187   4.594 -0.9535  0.9134 -0.1809
  389MOL0     H52509   1.003   4.187   4.657 -0.5368 -0.8296 -0.5940
  389MOL0     H52510   1.056   4.100   4.805 -1.2131  1.0076  0.3679
  389MOL0     H52511   1.188   4.466   4.919  0.2053 -0.4547  0.4605
  389MOL0     H52512   1.732   4.022   4.936 -0.0549  2.2991 -0.7792
  389MOL0     H52513   2.063   3.925   4.896  0.6587  0.4864 -0.4161
  389MOL0     H52514   2.083   4.105   4.913 -1.6629  1.9426  2.5112
  389MOL0     H52515   1.980   4.020   5.022  3.5202  2.6392  0.9312
  390MOL0     O52516   6.978   3.747   2.816 -0.0515 -0.3256 -0.1518
  390MOL0     C52517   7.076   3.753   2.885 -1.0342 -0.0787  0.1036
  390MOL0     O52518   7.119   3.862   2.956  0.7933 -0.4491  0.5048
  390MOL0     C52519   7.046   3.980   2.943  0.4356  0.7462  0.2139
  390MOL0     C52520   7.096   4.085   2.868  0.0333 -0.4436 -1.3932
  390MOL0     C52521   7.022   4.204   2.848 -0.6782  0.7988 -0.2146
  390MOL0     C52522   6.889   4.212   2.895 -0.3917  0.2520 -0.4813
  390MOL0     O52523   6.815   4.322   2.884 -0.4493 -0.5282  0.1246
  390MOL0     C52524   6.870   4.422   2.979  0.3186 -0.0952  0.4174
  390MOL0     C52525   6.773   4.432   3.084 -0.2216 -1.1016 -0.1063
  390MOL0     C52526   6.788   4.559   3.168  0.8982  0.2471 -0.5694
  390MOL0     C52527   6.926   4.567   3.241  0.2721  0.5545  0.0878
  390MOL0     C52528   6.930   4.691   3.331 -0.2356 -0.1310 -0.9776
  390MOL0     C52529   7.068   4.698   3.404 -0.0603 -0.5526  0.2244
  390MOL0     C52530   7.082   4.822   3.492 -0.4967  0.1491  0.2516
  390MOL0     C52531   7.227   4.871   3.523 -0.1596  0.6383  0.1351
  390MOL0     N52532   7.229   5.016   3.512 -0.7438 -1.3272  0.1153
  390MOL0     C52533   7.177   5.108   3.604  0.6886 -0.4681 -0.1371
  390MOL0     C52534   7.158   5.226   3.542 -0.7364  0.6598  0.7757
  390MOL0     C52535   7.096   5.346   3.596 -0.2528 -0.2997 -0.8659
  390MOL0     C52536   7.123   5.378   3.747  1.2644  0.7687 -0.7738
  390MOL0     C52537   7.251   5.452   3.769  0.2028  0.3836  0.2324
  390MOL0     C52538   7.307   5.447   3.907  0.2968 -0.4733 -0.0526
  390MOL0     O52539   7.211   5.492   4.003 -0.4420  0.4160 -0.4789
  390MOL0     C52540   7.251   5.515   4.131 -0.2700 -0.7571  0.0238
  390MOL0     C52541   7.376   5.542   4.174 -0.6616 -0.4953 -0.6491
  390MOL0     C52542   7.401   5.578   4.304 -0.1107  0.3766  0.9331
  390MOL0     C52543   7.301   5.569   4.401 -0.8848 -0.4657  0.3196
  390MOL0     C52544   7.344   5.605   4.538  0.1982 -0.0725 -0.3777
  390MOL0     O52545   7.247   5.602   4.636  0.0212  0.1409  0.4757
  390MOL0     C52546   7.272   5.630   4.765  0.4126  0.4369  0.4948
  390MOL0     C52547   7.370   5.567   4.834 -0.4945  0.8767  0.0762
  390MOL0     C52548   7.400   5.602   4.962 -0.5874  0.1344 -0.0519
  390MOL0     C52549   7.327   5.695   5.034  0.4078  1.0321 -1.1362
  390MOL0     O52550   7.332   5.712   5.170 -0.0257 -0.3582  0.3501
  390MOL0     C52551   7.438   5.657   5.244  0.5379  0.2775  0.2222
  390MOL0     C52552   7.376   5.539   5.325 -0.9289  0.6975 -0.1015
  390MOL0     C52553   7.456   5.487   5.442 -0.2763 -0.0219 -0.0631
  390MOL0     C52554   7.398   5.521   5.576  0.5458 -0.8373  0.6768
  390MOL0     C52555   7.256   5.466   5.602  0.4027  0.1932 -1.2941
  390MOL0     C52556   7.261   5.325   5.663 -0.1167  0.4885 -0.4635
  390MOL0     C52557   7.112   5.261   5.661  0.6475  0.4568 -0.5498
  390MOL0     C52558   7.098   5.120   5.713  0.2447 -0.4118 -0.5634
  390MOL0    Cl52559   6.935   5.055   5.661  0.2379  0.0483 -0.1733
  390MOL0     C52560   7.215   5.757   4.974 -0.2523 -0.7827 -0.0002
  390MOL0     C52561   7.193   5.726   4.833  0.1977  0.6982 -0.5921
  390MOL0     O52562   7.461   5.651   4.553  0.1151  0.4860 -0.5564
  390MOL0     C52563   7.180   5.510   4.372 -0.1509 -0.3229  0.0509
  390MOL0     C52564   7.152   5.492   4.237 -0.6502 -0.2860  0.3010
  390MOL0     N52565   7.215   5.209   3.411 -0.7319 -0.4332  0.2204
  390MOL0     N52566   7.242   5.086   3.395  0.2115 -0.3617 -0.0031
  390MOL0     C52567   6.839   4.109   2.977  0.0867  0.9265 -0.2234
  390MOL0     C52568   6.912   3.982   2.986  0.6454 -0.4806  0.2457
  390MOL0     C52569   7.167   3.640   2.887 -0.1530  0.9914  0.0824
  390MOL0     C52570   7.137   3.530   2.803  1.2283  0.2388  0.2624
  390MOL0     C52571   7.214   3.410   2.807  0.4897 -0.1508  0.1295
  390MOL0     C52572   7.325   3.397   2.889  0.4645  0.5509 -0.4847
  390MOL0     O52573   7.415   3.299   2.897 -0.3579 -0.2795  0.8491
  390MOL0     C52574   7.393   3.185   2.806 -0.3043  0.2828  0.4636
  390MOL0     C52575   7.488   3.075   2.841 -0.4931  0.0871 -0.2784
  390MOL0     C52576   7.474   2.967   2.748  0.0031  0.6244  0.4154
  390MOL0     C52577   7.586   2.860   2.760  1.0061  0.0300  0.1365
  390MOL0     C52578   7.638   2.814   2.630 -0.2791  0.5629 -0.2311
  390MOL0     C52579   7.705   2.778   2.535  0.3151 -0.4291 -0.0389
  390MOL0     C52580   7.351   3.501   2.981 -0.1459  0.1451  0.0088
  390MOL0     C52581   7.275   3.623   2.980 -0.1589  0.4617 -0.1110
  390MOL0     C52582   7.308   3.717   3.088 -0.5325  0.1874 -0.8158
  390MOL0     H52583   7.201   4.080   2.841  0.5921  0.9193  0.3745
  390MOL0     H52584   7.078   4.280   2.794  1.1878  0.9708  1.8518
  390MOL0     H52585   6.964   4.398   3.028 -0.3287 -0.2679  1.6177
  390MOL0     H52586   6.884   4.515   2.922 -0.8230  0.0740  0.3780
  390MOL0     H52587   6.774   4.349   3.156 -4.7013 -0.9558  0.3961
  390MOL0     H52588   6.674   4.446   3.038  0.7756 -0.9975 -2.3364
  390MOL0     H52589   6.715   4.551   3.248 -0.1382 -0.3983 -1.5557
  390MOL0     H52590   6.767   4.648   3.107  2.2213  0.2609 -1.0438
  390MOL0     H52591   6.935   4.483   3.311  2.2248  2.8270  2.7951
  390MOL0     H52592   7.014   4.562   3.176 -0.3431  2.1378 -0.9114
  390MOL0     H52593   6.912   4.781   3.272  0.1466  2.0392  1.9927
  390MOL0     H52594   6.855   4.695   3.410  2.2583  0.0703  1.5429
  390MOL0     H52595   7.088   4.609   3.466 -0.6645 -1.9349 -1.4756
  390MOL0     H52596   7.133   4.681   3.318 -1.0032 -1.7874 -0.2732
  390MOL0     H52597   7.026   4.827   3.586  0.3173  5.5702  0.7543
  390MOL0     H52598   7.027   4.904   3.445 -1.7059  0.2944  1.8582
  390MOL0     H52599   7.249   4.842   3.626 -0.8078 -0.3711  0.0023
  390MOL0     H52600   7.304   4.836   3.453 -0.0033  0.7197  0.2642
  390MOL0     H52601   7.145   5.076   3.702  1.0448 -2.5198 -0.6448
  390MOL0     H52602   7.117   5.431   3.532 -3.4351  3.1615  2.2117
  390MOL0     H52603   6.988   5.329   3.598 -0.4857  1.0299  1.7114
  390MOL0     H52604   7.041   5.440   3.785 -0.6533 -2.8177  1.4567
  390MOL0     H52605   7.117   5.286   3.806 -1.4105  0.0208 -2.0479
  390MOL0     H52606   7.223   5.555   3.746 -2.1320  0.2662  2.0947
  390MOL0     H52607   7.330   5.414   3.704 -0.2172 -1.7152  0.8608
  390MOL0     H52608   7.395   5.512   3.900  0.6959 -0.9547  0.4431
  390MOL0     H52609   7.342   5.345   3.926  0.2674 -0.8757 -1.9336
  390MOL0     H52610   7.465   5.518   4.116 -0.0659 -4.1069  1.4335
  390MOL0     H52611   7.505   5.603   4.325  0.5097  1.4111 -2.5585
  390MOL0     H52612   7.429   5.489   4.788 -0.2161  1.1558 -0.0478
  390MOL0     H52613   7.494   5.557   4.994  0.2954  2.7040  1.1814
  390MOL0     H52614   7.530   5.626   5.194  0.4269 -0.2669  0.3446
  390MOL0     H52615   7.465   5.726   5.324  1.6666 -1.9848  1.9397
  390MOL0     H52616   7.293   5.597   5.365 -0.4278  1.6769 -0.4478
  390MOL0     H52617   7.350   5.458   5.255  0.9577  1.9092 -2.3757
  390MOL0     H52618   7.463   5.378   5.438 -0.9092 -0.0509 -0.6379
  390MOL0     H52619   7.559   5.523   5.444  0.5120 -2.0342 -1.2531
  390MOL0     H52620   7.398   5.630   5.571 -2.5684 -0.8080 -1.4670
  390MOL0     H52621   7.461   5.490   5.660 -0.0866 -1.2164  1.0175
  390MOL0     H52622   7.204   5.453   5.507 -1.5301  0.4073 -0.3040
  390MOL0     H52623   7.206   5.528   5.677 -0.1020 -0.0740 -1.4056
  390MOL0     H52624   7.330   5.267   5.600 -1.3269 -1.6369  0.0755
  390MOL0     H52625   7.309   5.330   5.761  1.9490 -2.0683 -1.2145
  390MOL0     H52626   7.087   5.249   5.556  2.8130 -0.0890 -1.0441
  390MOL0     H52627   7.040   5.321   5.719  0.6068 -0.9403  0.9109
  390MOL0     H52628   7.175   5.055   5.669 -0.8931 -0.8252 -2.0047
  390MOL0     H52629   7.108   5.115   5.822  0.9637 -0.9825 -0.6487
  390MOL0     H52630   7.158   5.834   5.025  0.1165  2.2135 -3.6542
  390MOL0     H52631   7.115   5.766   4.769  0.4609 -0.3149 -1.5718
  390MOL0     H52632   7.095   5.505   4.439 -0.7532 -0.4770 -0.7049
  390MOL0     H52633   7.056   5.455   4.204 -0.6024  1.1260 -1.5954
  390MOL0     H52634   6.743   4.129   3.024 -0.1145  0.2990 -0.3613
  390MOL0     H52635   6.873   3.899   3.044 -0.4989 -0.4574 -0.4628
  390MOL0     H52636   7.042   3.531   2.750 -0.3869  2.3614  2.9499
  390MOL0     H52637   7.186   3.335   2.734  2.1723 -0.7603  0.0903
  390MOL0     H52638   7.392   3.215   2.701 -1.2919 -1.8491 -0.1997
  390MOL0     H52639   7.294   3.145   2.831 -0.9094 -0.7449 -2.9890
  390MOL0     H52640   7.473   3.042   2.944 -0.9023 -1.5812 -0.8492
  390MOL0     H52641   7.588   3.119   2.832 -0.7401  0.1889 -4.0247
  390MOL0     H52642   7.492   3.007   2.648  1.7690 -0.4483  0.2574
  390MOL0     H52643   7.380   2.912   2.755  1.3200 -1.6664  1.2429
  390MOL0     H52644   7.674   2.898   2.813  2.0384 -1.6966 -0.2679
  390MOL0     H52645   7.552   2.784   2.830 -1.0554 -0.5199 -1.3614
  390MOL0     H52646   7.772   2.749   2.457  2.1364  0.6948  1.0369
  390MOL0     H52647   7.426   3.473   3.054 -0.7938 -0.6812  0.3698
  390MOL0     H52648   7.227   3.717   3.161 -0.4749  3.1802 -0.6536
  390MOL0     H52649   7.403   3.683   3.131  0.5740  2.6465 -1.1549
  390MOL0     H52650   7.327   3.818   3.051  3.1893 -0.3072 -0.7269
  391MOL0     O52651   8.636   1.428   6.043  0.3965  0.0911  0.3893
  391MOL0     C52652   8.740   1.478   6.002 -0.2845 -0.2592  0.0854
  391MOL0     O52653   8.771   1.524   5.875  0.1356 -0.1069 -0.5539
  391MOL0     C52654   8.668   1.529   5.786 -0.4860 -0.6173  0.0773
  391MOL0     C52655   8.658   1.443   5.678 -0.2007 -0.5191  1.0698
  391MOL0     C52656   8.559   1.448   5.584  0.4186 -0.0807  1.4429
  391MOL0     C52657   8.455   1.544   5.595 -0.9370  0.6044 -0.2578
  391MOL0     O52658   8.360   1.548   5.496  0.3145  0.7125 -0.3678
  391MOL0     C52659   8.269   1.663   5.487  0.1171  0.1207  0.7632
  391MOL0     C52660   8.133   1.637   5.547  0.5254  0.6240  0.2066
  391MOL0     C52661   8.034   1.589   5.433 -0.0225  0.7675 -0.8074
  391MOL0     C52662   7.897   1.553   5.505 -0.5261 -0.3269  0.4186
  391MOL0     C52663   7.785   1.486   5.413 -0.4514 -0.3348  0.5134
  391MOL0     C52664   7.648   1.487   5.491 -0.2793 -0.2361  0.6708
  391MOL0     C52665   7.536   1.451   5.392 -0.3647 -0.5307 -0.0176
  391MOL0     C52666   7.389   1.499   5.433 -0.9020  0.2632 -0.1293
  391MOL0     N52667   7.331   1.420   5.536  0.3975  0.3539 -0.1248
  391MOL0     C52668   7.376   1.418   5.671  0.2365 -0.5661  0.0718
  391MOL0     C52669   7.314   1.313   5.722 -0.2132  0.4151  1.3849
  391MOL0     C52670   7.308   1.285   5.872 -0.0861  0.1414 -0.7298
  391MOL0     C52671   7.335   1.133   5.888  0.2134  0.5283 -0.4745
  391MOL0     C52672   7.485   1.102   5.865  0.5180  0.8924 -0.9516
  391MOL0     C52673   7.535   1.107   5.723 -0.6370  0.0728 -0.0024
  391MOL0     O52674   7.660   1.035   5.712  0.3318  0.2064  0.4059
  391MOL0     C52675   7.704   1.022   5.582 -0.0468 -1.0323 -0.2844
  391MOL0     C52676   7.816   0.940   5.562 -0.5238  0.4059 -0.0671
  391MOL0     C52677   7.881   0.911   5.440  1.0137 -0.4234  1.2043
  391MOL0     C52678   7.810   0.961   5.325  0.2771 -0.3207  0.5265
  391MOL0     C52679   7.861   0.942   5.189  0.9111 -0.5577 -0.3810
  391MOL0     O52680   7.989   0.908   5.181  0.2502  0.1057  0.3174
  391MOL0     C52681   8.057   0.888   5.062 -0.4399  1.1658  0.0974
  391MOL0     C52682   8.092   0.990   4.976  1.1901 -0.4882 -0.3024
  391MOL0     C52683   8.167   0.963   4.859 -0.4273 -0.6131  0.6462
  391MOL0     C52684   8.221   0.841   4.834  0.3865  1.0706  0.4541
  391MOL0     O52685   8.313   0.824   4.730 -0.8244  0.3599  0.0677
  391MOL0     C52686   8.326   0.688   4.677  0.0525 -0.5805  0.0569
  391MOL0     C52687   8.389   0.685   4.538 -0.1064 -0.0198  0.3711
  391MOL0     C52688   8.285   0.733   4.428  0.6321  0.0275  0.8574
  391MOL0     C52689   8.353   0.725   4.288 -0.2784  0.0933  0.3282
  391MOL0     C52690   8.363   0.579   4.230  1.3691  0.3011 -1.2057
  391MOL0     C52691   8.438   0.573   4.098  0.9238 -0.4968 -0.1198
  391MOL0     C52692   8.476   0.440   4.049 -0.4637  0.5151  0.1916
  391MOL0     C52693   8.622   0.410   4.073  0.2975 -0.6254 -0.6451
  391MOL0    Cl52694   8.659   0.241   4.017 -0.1383  0.2758  0.0318
  391MOL0     C52695   8.181   0.734   4.920  0.2823  0.3814 -0.6020
  391MOL0     C52696   8.096   0.751   5.035 -0.2146 -0.1689  0.0011
  391MOL0     O52697   7.783   0.960   5.091  0.7989 -0.3295  0.5940
  391MOL0     C52698   7.691   1.036   5.334  0.5679  0.4489 -0.3939
  391MOL0     C52699   7.633   1.071   5.459  0.0770  0.0969 -0.5891
  391MOL0     N52700   7.242   1.245   5.616 -1.0444 -0.9907 -0.5602
  391MOL0     N52701   7.258   1.309   5.502 -0.0400  0.0737  0.0526
  391MOL0     C52702   8.469   1.636   5.701  0.5424 -0.4188 -0.5302
  391MOL0     C52703   8.571   1.627   5.793  1.0086  0.7976 -0.1467
  391MOL0     C52704   8.861   1.472   6.091  0.6904  0.2604 -0.5456
  391MOL0     C52705   8.984   1.419   6.041 -0.5185 -0.6770 -0.9367
  391MOL0     C52706   9.081   1.382   6.131  0.2671 -0.6873  0.5785
  391MOL0     C52707   9.070   1.412   6.271  0.2832 -0.1983  1.3969
  391MOL0     O52708   9.175   1.365   6.351  0.1779 -0.3812 -0.2027
  391MOL0     C52709   9.156   1.373   6.496 -0.6103  0.1794  0.1860
  391MOL0     C52710   9.273   1.322   6.574 -0.2707 -0.1536 -0.1467
  391MOL0     C52711   9.409   1.396   6.531 -0.3715  0.0034  0.6995
  391MOL0     C52712   9.527   1.298   6.511  0.3652  0.0613 -0.0144
  391MOL0     C52713   9.534   1.188   6.603  0.2342  0.6747  0.7970
  391MOL0     C52714   9.556   1.101   6.690 -0.1821  0.0621  1.0351
  391MOL0     C52715   8.967   1.494   6.312 -0.5498  0.1192 -0.2467
  391MOL0     C52716   8.861   1.514   6.225 -1.2025 -0.5656  0.3765
  391MOL0     C52717   8.750   1.584   6.278  0.2022  0.6320 -1.2775
  391MOL0     H52718   8.730   1.364   5.661 -2.7041 -2.9359  1.0388
  391MOL0     H52719   8.566   1.376   5.503 -4.0303 -0.3379  1.0281
  391MOL0     H52720   8.312   1.758   5.522  0.6100 -0.5741  2.0826
  391MOL0     H52721   8.255   1.677   5.379 -0.4927  2.1359  1.0604
  391MOL0     H52722   8.098   1.728   5.597 -0.4318  0.6731 -0.5103
  391MOL0     H52723   8.152   1.569   5.630 -2.5393  2.2869  2.5105
  391MOL0     H52724   8.068   1.497   5.384 -2.0028  0.8505 -2.4810
  391MOL0     H52725   8.007   1.663   5.357  2.4703  0.9674 -1.5879
  391MOL0     H52726   7.922   1.476   5.579  1.8028 -0.2724 -0.2146
  391MOL0     H52727   7.866   1.650   5.547 -1.4622  2.0113 -4.9042
  391MOL0     H52728   7.755   1.540   5.323 -4.3315 -2.1326  0.5143
  391MOL0     H52729   7.821   1.388   5.380 -0.9814 -0.0879 -0.8856
  391MOL0     H52730   7.647   1.416   5.574 -0.3832 -0.1974  0.7019
  391MOL0     H52731   7.629   1.588   5.527 -0.3423  0.5049 -1.2916
  391MOL0     H52732   7.549   1.352   5.349 -1.6000 -0.1108 -1.4320
  391MOL0     H52733   7.550   1.517   5.306 -1.9693  1.5957  1.2383
  391MOL0     H52734   7.397   1.601   5.471 -2.5632 -0.2735  1.8117
  391MOL0     H52735   7.320   1.490   5.349 -1.9616 -2.1843  0.9261
  391MOL0     H52736   7.428   1.487   5.735  1.0359 -1.0002 -0.1045
  391MOL0     H52737   7.381   1.342   5.929  1.3419 -0.0186 -2.3184
  391MOL0     H52738   7.214   1.299   5.927  2.0742  3.3566  2.5686
  391MOL0     H52739   7.318   1.117   5.995 -2.0143  1.3171 -0.6445
  391MOL0     H52740   7.283   1.057   5.830  0.4691 -1.7650  2.1274
  391MOL0     H52741   7.506   1.002   5.903 -1.1450  1.5492  1.9602
  391MOL0     H52742   7.533   1.183   5.920  0.0312  0.3730  0.2762
  391MOL0     H52743   7.549   1.210   5.689 -1.5675  0.2764  0.1984
  391MOL0     H52744   7.466   1.063   5.651  0.1138 -1.4128  0.1519
  391MOL0     H52745   7.861   0.906   5.654  0.7344  2.7507  0.2708
  391MOL0     H52746   7.974   0.858   5.425  1.2435 -0.1162  1.5273
  391MOL0     H52747   8.062   1.092   4.998  0.5249 -0.3469 -1.7478
  391MOL0     H52748   8.213   1.039   4.796  0.0308 -1.0155  0.4869
  391MOL0     H52749   8.385   0.643   4.757 -0.6035  1.2840  1.6792
  391MOL0     H52750   8.227   0.641   4.668  0.0323 -0.3058 -1.4417
  391MOL0     H52751   8.479   0.748   4.537  1.2710 -1.7625  2.7545
  391MOL0     H52752   8.422   0.582   4.523  2.5602  0.6339  1.0776
  391MOL0     H52753   8.194   0.673   4.428  1.3483 -1.0884  0.5504
  391MOL0     H52754   8.265   0.839   4.444  0.8723  0.1479  0.3560
  391MOL0     H52755   8.453   0.768   4.283  0.4069 -1.4886 -0.1485
  391MOL0     H52756   8.291   0.788   4.224 -0.4857  0.1950  0.6293
  391MOL0     H52757   8.264   0.535   4.233  1.4325  0.1694 -1.0627
  391MOL0     H52758   8.416   0.519   4.304  1.2087  0.3933 -1.0162
  391MOL0     H52759   8.366   0.610   4.024  1.5280 -0.5523 -0.7372
  391MOL0     H52760   8.525   0.639   4.097  1.4237 -1.1301 -1.7856
  391MOL0     H52761   8.457   0.437   3.941  3.8963  1.6088 -0.8022
  391MOL0     H52762   8.417   0.359   4.092  3.2289 -1.7763  1.3992
  391MOL0     H52763   8.679   0.476   4.007  0.7460  0.0400  0.3735
  391MOL0     H52764   8.641   0.430   4.179 -1.4424 -0.5614 -0.3230
  391MOL0     H52765   8.225   0.635   4.916 -1.7787 -0.6364  0.1842
  391MOL0     H52766   8.077   0.670   5.104  0.9023  1.1554  1.9652
  391MOL0     H52767   7.626   1.076   5.257 -0.8510  0.0368  0.5505
  391MOL0     H52768   7.553   1.143   5.454  1.4521  1.6079 -3.1059
  391MOL0     H52769   8.396   1.716   5.710 -0.3944 -1.0113 -2.4236
  391MOL0     H52770   8.582   1.710   5.863 -0.8993 -1.2424  2.8162
  391MOL0     H52771   8.998   1.394   5.936  0.3524  2.6107 -1.7356
  391MOL0     H52772   9.169   1.328   6.096  0.2336 -0.1294 -0.4124
  391MOL0     H52773   9.064   1.319   6.519 -1.1808  0.6789 -0.8554
  391MOL0     H52774   9.144   1.478   6.526  1.1439  0.0754  1.4291
  391MOL0     H52775   9.278   1.216   6.547  0.8986  0.0869 -0.9607
  391MOL0     H52776   9.249   1.336   6.680 -0.6062 -0.4981 -0.1724
  391MOL0     H52777   9.429   1.472   6.607  1.2412 -0.0776  0.4057
  391MOL0     H52778   9.382   1.457   6.444 -2.1487 -0.1990  1.0880
  391MOL0     H52779   9.522   1.242   6.417 -2.0139 -2.3684  1.3951
  391MOL0     H52780   9.626   1.342   6.522 -0.3365  1.5215  0.7871
  391MOL0     H52781   9.585   1.036   6.770  1.6033  2.6887  2.6871
  391MOL0     H52782   8.951   1.530   6.413 -1.1487  0.8755 -0.5999
  391MOL0     H52783   8.688   1.499   6.309  1.5398  0.0900  0.0066
  391MOL0     H52784   8.780   1.644   6.364  2.4073 -0.0522 -1.4997
  391MOL0     H52785   8.702   1.652   6.207  0.0154 -0.9221 -2.7286
  392MOL0     O52786   0.041   7.012   4.722  0.4889 -0.4396  0.2166
  392MOL0     C52787   0.057   7.133   4.695 -0.9111  0.7960  0.2692
  392MOL0     O52788   0.161   7.205   4.740 -0.0213 -0.3699 -0.2414
  392MOL0     C52789   0.277   7.145   4.789 -0.7042 -0.3097 -0.3607
  392MOL0     C52790   0.274   7.111   4.927  0.7614  0.0488 -0.6731
  392MOL0     C52791   0.393   7.044   4.980 -0.2022 -0.6159 -0.0468
  392MOL0     C52792   0.502   7.010   4.900 -0.0138  0.3134 -0.7403
  392MOL0     O52793   0.602   6.944   4.963  0.0697 -0.4996 -0.3899
  392MOL0     C52794   0.730   6.927   4.899 -1.0488 -0.2635  0.0018
  392MOL0     C52795   0.834   6.865   4.984  0.9778 -0.3006 -0.9893
  392MOL0     C52796   0.915   6.766   4.901 -0.8971 -0.4834  0.6950
  392MOL0     C52797   1.008   6.690   4.997 -0.2423 -0.4304 -0.6179
  392MOL0     C52798   1.049   6.563   4.942 -0.8307 -0.5089 -0.9818
  392MOL0     C52799   1.126   6.571   4.815 -0.4875  1.2509  0.1616
  392MOL0     C52800   1.195   6.428   4.767 -0.8110  0.0071 -0.1034
  392MOL0     C52801   1.234   6.430   4.614  0.2549  0.2932  0.1654
  392MOL0     N52802   1.347   6.522   4.577  0.9699  0.2825  0.2968
  392MOL0     C52803   1.331   6.658   4.576 -0.2327 -0.5048  0.7891
  392MOL0     C52804   1.447   6.705   4.530  0.2585  0.4063  1.1900
  392MOL0     C52805   1.486   6.853   4.541 -0.3231  0.1556  0.2401
  392MOL0     C52806   1.458   6.951   4.420  0.5872 -0.6944 -0.0275
  392MOL0     C52807   1.565   6.955   4.308  0.2857  0.1852 -0.6131
  392MOL0     C52808   1.620   6.823   4.266  0.7658 -0.5572 -0.1207
  392MOL0     O52809   1.682   6.828   4.141 -0.7222 -0.2567 -0.1855
  392MOL0     C52810   1.705   6.715   4.067 -0.1534 -0.6703 -0.5189
  392MOL0     C52811   1.747   6.734   3.937 -0.1505  0.0233  0.5513
  392MOL0     C52812   1.790   6.628   3.861  0.2069  0.7813  0.4473
  392MOL0     C52813   1.779   6.498   3.908  0.4942  1.1612 -0.4144
  392MOL0     C52814   1.859   6.392   3.837 -0.3542 -0.4086 -0.3181
  392MOL0     O52815   1.924   6.419   3.717 -0.0695 -0.5599 -0.6151
  392MOL0     C52816   1.991   6.319   3.647  0.6738 -0.2461  0.1074
  392MOL0     C52817   2.129   6.285   3.674  0.7430 -0.4974  0.7658
  392MOL0     C52818   2.185   6.177   3.605 -0.0205  0.0384 -0.2055
  392MOL0     C52819   2.118   6.102   3.509  0.0858 -0.1757 -0.0216
  392MOL0     O52820   2.190   5.997   3.450  0.1867  0.1299 -0.3554
  392MOL0     C52821   2.160   5.967   3.306 -0.2005  0.5310  0.9221
  392MOL0     C52822   2.264   5.859   3.274  1.0559  0.1603  0.4609
  392MOL0     C52823   2.254   5.780   3.149 -0.0619  0.4276  0.6818
  392MOL0     C52824   2.243   5.862   3.017 -0.2674  0.2126 -0.9592
  392MOL0     C52825   2.242   5.766   2.903 -0.6198 -1.0701 -0.1496
  392MOL0     C52826   2.232   5.852   2.772 -0.9329  0.2463  0.8223
  392MOL0     C52827   2.230   5.751   2.657 -0.6341 -0.5178  0.0841
  392MOL0     C52828   2.093   5.697   2.602 -0.3816 -0.8573 -0.6093
  392MOL0    Cl52829   2.033   5.568   2.705  0.1976 -0.5460 -0.5085
  392MOL0     C52830   1.986   6.132   3.484 -0.2398  0.1343 -0.3201
  392MOL0     C52831   1.924   6.243   3.545 -0.3142  0.3148 -0.8855
  392MOL0     O52832   1.858   6.282   3.888 -0.2352  0.6224  0.2017
  392MOL0     C52833   1.727   6.474   4.037  0.0678 -0.8540  0.1908
  392MOL0     C52834   1.705   6.587   4.119  0.4469  0.2961  0.3139
  392MOL0     N52835   1.515   6.593   4.477  0.4104  0.1802 -0.5351
  392MOL0     N52836   1.457   6.487   4.510 -0.3030 -0.2233 -0.2161
  392MOL0     C52837   0.500   7.048   4.766 -0.5126 -0.4768  0.5380
  392MOL0     C52838   0.387   7.116   4.709 -1.1087  0.0918 -0.5102
  392MOL0     C52839  -0.066   7.206   4.646  0.2461  0.6649  1.2486
  392MOL0     C52840  -0.056   7.355   4.629 -0.4956  0.8899  0.8362
  392MOL0     C52841  -0.163   7.426   4.567  0.1966 -0.0469  0.3500
  392MOL0     C52842  -0.276   7.353   4.530  0.8698 -0.4946 -1.0774
  392MOL0     O52843  -0.389   7.410   4.470 -0.2493  0.4939  1.0637
  392MOL0     C52844  -0.398   7.553   4.465 -0.5036  0.0738  0.7789
  392MOL0     C52845  -0.512   7.606   4.383 -0.2172  0.3733 -0.8213
  392MOL0     C52846  -0.510   7.766   4.362  0.3342  0.5141  0.1172
  392MOL0     C52847  -0.395   7.813   4.275  0.2962  0.2466  0.7371
  392MOL0     C52848  -0.407   7.746   4.140  0.2839 -0.1664  0.2694
  392MOL0     C52849  -0.424   7.675   4.044 -0.2571 -0.9410 -0.6214
  392MOL0     C52850  -0.287   7.213   4.538  0.6935 -0.2540  0.9789
  392MOL0     C52851  -0.190   7.136   4.597  0.5329 -0.3862 -0.4045
  392MOL0     C52852  -0.195   6.987   4.597  0.4385  0.7811  0.0132
  392MOL0     H52853   0.186   7.112   4.990  1.0001 -0.3131 -0.3274
  392MOL0     H52854   0.413   7.022   5.085  0.5366 -1.9771 -0.4540
  392MOL0     H52855   0.709   6.858   4.816 -3.3953 -1.4870  1.4938
  392MOL0     H52856   0.773   7.022   4.867  1.1705 -1.0706  0.3744
  392MOL0     H52857   0.787   6.804   5.062  0.5521 -1.1321 -1.8820
  392MOL0     H52858   0.894   6.943   5.033 -0.5707  0.0125  0.5249
  392MOL0     H52859   0.982   6.823   4.838 -0.3455 -2.5600 -0.6919
  392MOL0     H52860   0.862   6.697   4.835 -0.1183  0.0144 -0.4616
  392MOL0     H52861   1.095   6.757   4.999 -0.9848  0.5443  0.1314
  392MOL0     H52862   0.965   6.688   5.098 -1.0466 -1.2700 -0.9700
  392MOL0     H52863   1.115   6.525   5.021 -2.5308  0.6471  1.0738
  392MOL0     H52864   0.974   6.484   4.936  1.6042 -3.1710  0.7311
  392MOL0     H52865   1.061   6.609   4.736 -2.8991 -0.5515  1.1308
  392MOL0     H52866   1.203   6.647   4.824  0.4652  0.9885 -3.9197
  392MOL0     H52867   1.124   6.347   4.784 -1.1067  0.0992 -0.8568
  392MOL0     H52868   1.280   6.401   4.829  1.6177 -1.7049 -3.8176
  392MOL0     H52869   1.243   6.327   4.579 -2.1140  0.6963 -1.8685
  392MOL0     H52870   1.146   6.468   4.562 -0.8491 -1.1936  0.8570
  392MOL0     H52871   1.256   6.726   4.615 -1.3539 -0.1834 -1.7563
  392MOL0     H52872   1.424   6.888   4.624 -0.0405 -0.3161  0.6584
  392MOL0     H52873   1.592   6.862   4.567  0.1637 -0.8545 -1.2859
  392MOL0     H52874   1.366   6.912   4.377  1.1468 -1.6570 -0.3901
  392MOL0     H52875   1.433   7.049   4.463 -0.4769 -1.5762  1.4740
  392MOL0     H52876   1.637   7.030   4.341 -1.0980  1.4986 -0.4632
  392MOL0     H52877   1.519   6.999   4.219  1.4370 -0.9332 -1.8063
  392MOL0     H52878   1.547   6.742   4.262  0.9914 -0.7934  0.5231
  392MOL0     H52879   1.706   6.810   4.333 -0.5276  1.6853  2.1118
  392MOL0     H52880   1.754   6.832   3.890  0.7082 -0.6068 -0.6887
  392MOL0     H52881   1.847   6.648   3.771  0.1803  4.7704  1.1413
  392MOL0     H52882   2.189   6.337   3.749 -1.0281  1.9736  0.5979
  392MOL0     H52883   2.290   6.174   3.632  0.2938  2.0957 -1.0330
  392MOL0     H52884   2.064   5.917   3.297  0.4903 -0.6920  0.1132
  392MOL0     H52885   2.166   6.058   3.245  2.4251  0.4743  0.9507
  392MOL0     H52886   2.365   5.901   3.276  2.0014 -1.8753 -0.5806
  392MOL0     H52887   2.248   5.784   3.353 -1.4242 -0.5589 -0.6498
  392MOL0     H52888   2.343   5.717   3.145 -0.0863  0.4595 -0.5390
  392MOL0     H52889   2.171   5.709   3.162  0.6865 -1.1589 -2.4135
  392MOL0     H52890   2.318   5.941   3.008  0.6419 -0.7628 -2.3389
  392MOL0     H52891   2.149   5.918   3.020 -0.7985 -0.6843 -0.5853
  392MOL0     H52892   2.156   5.698   2.906  1.0199 -3.2564  0.0130
  392MOL0     H52893   2.338   5.712   2.900  0.3469  0.4440  1.3946
  392MOL0     H52894   2.142   5.913   2.759 -0.6523  0.3623 -0.7315
  392MOL0     H52895   2.317   5.920   2.761  0.1227 -1.4879 -5.3583
  392MOL0     H52896   2.301   5.671   2.676 -0.3394  0.1020  1.7617
  392MOL0     H52897   2.268   5.800   2.566 -0.9303 -2.5038 -1.1689
  392MOL0     H52898   2.033   5.788   2.597  1.6125  0.4655 -2.3684
  392MOL0     H52899   2.105   5.655   2.501  0.5555 -0.4535 -0.6740
  392MOL0     H52900   1.930   6.066   3.419 -0.7108 -0.3509  0.5714
  392MOL0     H52901   1.821   6.258   3.514 -0.6083  0.1917  0.0061
  392MOL0     H52902   1.713   6.379   4.086  2.0493 -0.8578  0.8261
  392MOL0     H52903   1.682   6.564   4.222  1.0251  0.5993  0.5149
  392MOL0     H52904   0.588   7.024   4.707 -0.0360 -4.3568  2.5121
  392MOL0     H52905   0.373   7.144   4.605 -2.3768 -2.2813 -1.0606
  392MOL0     H52906   0.042   7.402   4.636  0.8267 -1.3389 -1.1036
  392MOL0     H52907  -0.159   7.532   4.545  1.1023  0.0442  0.8862
  392MOL0     H52908  -0.309   7.583   4.409  0.4470  1.1498  2.7340
  392MOL0     H52909  -0.407   7.601   4.563 -1.2598  0.2546  0.6235
  392MOL0     H52910  -0.603   7.598   4.444  0.2426  0.6734 -0.0917
  392MOL0     H52911  -0.542   7.545   4.297 -2.3908 -2.0959  1.5005
  392MOL0     H52912  -0.479   7.806   4.460  2.3492 -1.7086  0.4767
  392MOL0     H52913  -0.608   7.806   4.335  1.4758  2.1234 -1.9264
  392MOL0     H52914  -0.404   7.921   4.264 -3.9045  0.1305  1.3631
  392MOL0     H52915  -0.295   7.800   4.317  0.5623  2.9556  1.0812
  392MOL0     H52916  -0.441   7.617   3.956 -0.3451 -0.9665 -0.5878
  392MOL0     H52917  -0.382   7.170   4.510  0.6004  0.5187  0.0520
  392MOL0     H52918  -0.110   6.950   4.538 -0.7522 -1.3625 -0.4798
  392MOL0     H52919  -0.200   6.942   4.696 -0.4960 -1.8859 -1.1294
  392MOL0     H52920  -0.285   6.958   4.541  2.7675 -1.0363 -3.1810
  393MOL0     O52921   7.232   1.451   6.285  0.6062  0.5418 -0.2695
  393MOL0     C52922   7.211   1.502   6.178 -0.3754  0.0542  0.1191
  393MOL0     O52923   7.089   1.534   6.130  1.1437  0.3720 -0.1586
  393MOL0     C52924   6.975   1.493   6.202  0.5560 -1.4054 -0.1061
  393MOL0     C52925   6.942   1.353   6.202  0.0339 -0.2303 -0.4210
  393MOL0     C52926   6.828   1.307   6.264 -0.0919 -0.2057  0.0787
  393MOL0     C52927   6.743   1.395   6.338 -0.1613 -0.2631  0.0313
  393MOL0     O52928   6.639   1.352   6.402  0.1691  0.2267  0.1750
  393MOL0     C52929   6.517   1.421   6.376 -0.0909  0.4004 -0.5258
  393MOL0     C52930   6.400   1.322   6.419 -0.5056  0.1135  0.5217
  393MOL0     C52931   6.272   1.403   6.396 -0.2946  0.3984  0.2607
  393MOL0     C52932   6.155   1.310   6.415 -0.5591  0.0145  1.2875
  393MOL0     C52933   6.119   1.248   6.269  0.3673 -0.5227 -0.1890
  393MOL0     C52934   5.993   1.158   6.275 -0.3198 -0.6165 -0.0543
  393MOL0     C52935   5.970   1.096   6.139  0.3171 -0.1269  0.6571
  393MOL0     C52936   5.859   0.992   6.136  0.3007 -0.0216  0.1756
  393MOL0     N52937   5.873   0.911   6.016 -1.3795  0.7250 -0.1743
  393MOL0     C52938   5.828   0.954   5.894 -0.5163  0.2551  0.3072
  393MOL0     C52939   5.831   0.844   5.821  0.8396 -0.4545 -0.6769
  393MOL0     C52940   5.795   0.855   5.676  0.3279  0.3753  0.8289
  393MOL0     C52941   5.779   0.716   5.608  0.3530  0.3108  0.2961
  393MOL0     C52942   5.717   0.711   5.469 -0.7604  0.4445 -0.1971
  393MOL0     C52943   5.568   0.759   5.460 -0.1608  1.1142 -0.7951
  393MOL0     O52944   5.505   0.715   5.338  0.4718 -0.7556  0.6397
  393MOL0     C52945   5.471   0.585   5.318  0.3000  0.6413  0.1298
  393MOL0     C52946   5.483   0.480   5.414 -0.1714 -0.7586  0.0070
  393MOL0     C52947   5.441   0.354   5.386  1.1506 -0.1106  0.4553
  393MOL0     C52948   5.417   0.311   5.259  1.2317 -0.9628  0.5941
  393MOL0     C52949   5.380   0.171   5.230  0.5558  0.7766  0.4734
  393MOL0     O52950   5.377   0.080   5.336  0.4110 -1.3333 -0.0345
  393MOL0     C52951   5.316  -0.044   5.333  0.8237 -0.4697 -0.7954
  393MOL0     C52952   5.385  -0.135   5.416 -0.0108  0.6398  0.0835
  393MOL0     C52953   5.333  -0.268   5.431 -0.0045 -0.6138 -0.3259
  393MOL0     C52954   5.213  -0.309   5.359  0.7490 -0.2683  0.6947
  393MOL0     O52955   5.171  -0.439   5.347  0.4929 -0.8277  0.4509
  393MOL0     C52956   5.040  -0.471   5.402  0.4020 -0.0068  0.1826
  393MOL0     C52957   4.959  -0.544   5.288 -0.7533 -0.2077 -0.2085
  393MOL0     C52958   4.829  -0.607   5.342 -0.9374  0.6733  0.2520
  393MOL0     C52959   4.852  -0.749   5.398  0.1174 -0.1833 -0.0949
  393MOL0     C52960   4.728  -0.808   5.466  0.1608 -0.3214  0.0421
  393MOL0     C52961   4.694  -0.746   5.602 -0.0846 -0.0652  1.1521
  393MOL0     C52962   4.560  -0.793   5.667  0.8194  0.8962 -0.5611
  393MOL0     C52963   4.548  -0.779   5.822  0.6998 -0.7334  0.1185
  393MOL0    Cl52964   4.549  -0.601   5.861  0.0325 -0.0080  0.2182
  393MOL0     C52965   5.146  -0.214   5.288  0.5841 -0.3007  0.0106
  393MOL0     C52966   5.187  -0.074   5.275  0.7536 -0.1235  0.7608
  393MOL0     O52967   5.359   0.148   5.108 -0.4179  0.7454 -0.1610
  393MOL0     C52968   5.420   0.409   5.159 -0.0453  0.0250 -0.1542
  393MOL0     C52969   5.447   0.543   5.187 -0.3061  0.1975 -0.2254
  393MOL0     N52970   5.871   0.733   5.889 -0.3078  0.4173 -0.7766
  393MOL0     N52971   5.900   0.777   6.014  0.4013  0.5176  0.5291
  393MOL0     C52972   6.767   1.529   6.338  0.4261 -0.0768 -0.6042
  393MOL0     C52973   6.884   1.579   6.270 -0.7722 -0.5817 -0.3964
  393MOL0     C52974   7.339   1.564   6.115  0.6093 -0.1927 -0.5157
  393MOL0     C52975   7.326   1.622   5.984  0.3942  0.5669 -0.9768
  393MOL0     C52976   7.420   1.684   5.913  0.0401  0.2670 -0.4857
  393MOL0     C52977   7.545   1.699   5.971  0.3101  0.6079 -0.3509
  393MOL0     O52978   7.635   1.782   5.899 -0.5497  0.6661 -0.2357
  393MOL0     C52979   7.775   1.806   5.943 -0.0647  0.6167  0.3934
  393MOL0     C52980   7.780   1.897   6.065  0.0426  0.5178  0.0476
  393MOL0     C52981   7.902   1.970   6.082 -0.0100  0.0656 -0.3049
  393MOL0     C52982   7.888   2.117   6.116 -0.3357  0.4758 -0.9284
  393MOL0     C52983   8.022   2.190   6.112  1.0776 -0.0896  0.2250
  393MOL0     C52984   8.117   2.260   6.105 -0.6831  0.2175 -0.1238
  393MOL0     C52985   7.564   1.629   6.095  0.4562 -0.2560 -0.5072
  393MOL0     C52986   7.468   1.564   6.168  0.0320 -0.1659 -0.3829
  393MOL0     C52987   7.508   1.492   6.289 -0.3316  0.3600  0.3682
  393MOL0     H52988   7.002   1.293   6.134 -0.2400  1.9035 -2.6967
  393MOL0     H52989   6.788   1.209   6.242 -0.2800  0.5134 -3.4998
  393MOL0     H52990   6.516   1.504   6.447 -0.0785 -1.8063  2.2349
  393MOL0     H52991   6.502   1.460   6.275  1.7803 -2.3402 -1.9936
  393MOL0     H52992   6.402   1.290   6.524 -0.6710 -6.0545 -0.9750
  393MOL0     H52993   6.411   1.237   6.351 -0.2138  0.6416 -0.0996
  393MOL0     H52994   6.276   1.450   6.297 -3.0129  0.4230  0.0995
  393MOL0     H52995   6.258   1.478   6.474  0.6769  1.8585 -0.9123
  393MOL0     H52996   6.181   1.235   6.490 -0.4549 -0.1251  1.1104
  393MOL0     H52997   6.074   1.380   6.439  0.1280  1.0653  0.6577
  393MOL0     H52998   6.115   1.332   6.199 -2.1718  1.9699  2.6342
  393MOL0     H52999   6.208   1.197   6.233  2.6539  1.7895  1.8227
  393MOL0     H53000   6.009   1.077   6.348 -2.0545 -3.8400 -2.9680
  393MOL0     H53001   5.910   1.224   6.302  0.7924  0.7254  0.2212
  393MOL0     H53002   6.066   1.046   6.124  0.6882  0.8974 -0.5200
  393MOL0     H53003   5.952   1.168   6.059 -1.4102  0.3427  1.4263
  393MOL0     H53004   5.836   0.942   6.230 -1.6201 -0.8431 -0.6707
  393MOL0     H53005   5.772   1.055   6.114  1.9802  2.8876  1.1738
  393MOL0     H53006   5.807   1.055   5.860  1.5683  0.8594  0.6249
  393MOL0     H53007   5.698   0.899   5.651  0.9733  0.3016 -2.3252
  393MOL0     H53008   5.869   0.921   5.630 -0.0212 -0.8368 -1.6879
  393MOL0     H53009   5.878   0.668   5.608  1.7483  2.9572 -0.3693
  393MOL0     H53010   5.715   0.649   5.666 -1.2096  0.6066 -1.0473
  393MOL0     H53011   5.717   0.604   5.446  0.0024  0.6437 -1.1798
  393MOL0     H53012   5.781   0.759   5.395  1.9691  0.7431  2.1769
  393MOL0     H53013   5.570   0.868   5.470 -0.5329  1.4291 -3.4287
  393MOL0     H53014   5.515   0.716   5.545 -0.3540  1.4370 -0.7495
  393MOL0     H53015   5.512   0.503   5.516 -3.7115 -0.4952  1.0823
  393MOL0     H53016   5.424   0.297   5.477 -2.0415  0.0530  0.0744
  393MOL0     H53017   5.479  -0.105   5.461 -0.2038  0.0837  0.8648
  393MOL0     H53018   5.374  -0.341   5.499 -2.1097 -3.3510 -1.7919
  393MOL0     H53019   5.051  -0.532   5.493 -2.5170 -2.1957 -0.7776
  393MOL0     H53020   4.974  -0.388   5.427 -3.2451 -2.6522  0.1514
  393MOL0     H53021   4.944  -0.464   5.215 -2.0874 -1.0252 -0.8751
  393MOL0     H53022   5.028  -0.619   5.248  1.7857 -0.2696  3.7333
  393MOL0     H53023   4.797  -0.549   5.429 -1.1987 -3.0788  2.9017
  393MOL0     H53024   4.761  -0.605   5.257  2.3667 -0.1981 -2.6482
  393MOL0     H53025   4.935  -0.760   5.468 -0.2973 -1.4588  0.2176
  393MOL0     H53026   4.880  -0.803   5.307  0.5449 -0.5903  0.2749
  393MOL0     H53027   4.750  -0.912   5.488  1.3856  0.6108  4.0149
  393MOL0     H53028   4.645  -0.792   5.396  1.5550  0.8678 -1.4161
  393MOL0     H53029   4.784  -0.761   5.662  1.7835 -1.2595 -1.7267
  393MOL0     H53030   4.674  -0.645   5.567 -1.5731 -1.5655 -2.9518
  393MOL0     H53031   4.544  -0.900   5.657 -0.8335  1.2275 -2.0258
  393MOL0     H53032   4.477  -0.742   5.617  0.9513  0.8430 -0.8334
  393MOL0     H53033   4.462  -0.836   5.859 -1.2265  1.0437 -1.3375
  393MOL0     H53034   4.631  -0.825   5.876 -0.3203 -2.6553  0.1535
  393MOL0     H53035   5.065  -0.245   5.223 -0.0626  2.2509 -0.5494
  393MOL0     H53036   5.147   0.005   5.212  4.6757  1.7348  0.2979
  393MOL0     H53037   5.386   0.377   5.061 -0.4748 -1.0450  0.3319
  393MOL0     H53038   5.441   0.620   5.111 -0.2710  0.1660 -0.2603
  393MOL0     H53039   6.709   1.592   6.405  2.7850  0.9106  0.6277
  393MOL0     H53040   6.905   1.685   6.266  0.0135 -0.7304 -0.4286
  393MOL0     H53041   7.233   1.617   5.927 -1.6390 -1.1084  2.1752
  393MOL0     H53042   7.386   1.722   5.817 -0.8735  2.9957  0.7925
  393MOL0     H53043   7.814   1.860   5.857  0.3270 -1.4934 -0.8272
  393MOL0     H53044   7.830   1.711   5.947  1.0519  1.2002 -0.4321
  393MOL0     H53045   7.758   1.830   6.149 -0.2185  0.6338  0.0735
  393MOL0     H53046   7.695   1.967   6.057  0.0734  0.9142  2.2783
  393MOL0     H53047   7.961   1.955   5.991  0.2137 -2.6403  0.2181
  393MOL0     H53048   7.955   1.921   6.164  3.0902  3.0510 -0.3021
  393MOL0     H53049   7.824   2.154   6.035  0.1057 -1.5112 -2.2741
  393MOL0     H53050   7.835   2.121   6.212 -1.5163  3.5991 -1.5964
  393MOL0     H53051   8.200   2.327   6.100 -1.2105  0.8557 -0.5202
  393MOL0     H53052   7.655   1.656   6.149  1.1981  3.6702 -3.2776
  393MOL0     H53053   7.479   1.387   6.282 -2.6657  1.0512 -1.4886
  393MOL0     H53054   7.613   1.513   6.311 -0.8763  2.1315  1.4824
  393MOL0     H53055   7.460   1.536   6.377  1.6219  0.8301  1.2722
  394MOL0     O53056   4.657   5.303   4.270  0.1042 -0.4727  0.3701
  394MOL0     C53057   4.662   5.317   4.149  0.5708 -0.3354  0.2128
  394MOL0     O53058   4.769   5.288   4.078 -0.3687 -0.1805 -0.4164
  394MOL0     C53059   4.891   5.273   4.148  0.0679 -0.6205 -0.0017
  394MOL0     C53060   4.938   5.141   4.211  0.2778 -0.4107  0.2691
  394MOL0     C53061   5.071   5.146   4.259  0.4671  0.1981  0.6264
  394MOL0     C53062   5.155   5.253   4.239 -0.4474  0.1132 -0.3061
  394MOL0     O53063   5.279   5.238   4.290  0.1090  0.7969 -0.1023
  394MOL0     C53064   5.381   5.257   4.193 -0.0783 -1.6514 -0.7549
  394MOL0     C53065   5.519   5.231   4.241 -0.2176  0.4979  0.1240
  394MOL0     C53066   5.636   5.303   4.166 -0.1249  0.2446 -0.4489
  394MOL0     C53067   5.775   5.278   4.222  0.1464 -0.4495 -0.3086
  394MOL0     C53068   5.881   5.359   4.136  1.9877  0.3413 -0.6371
  394MOL0     C53069   6.017   5.334   4.204 -0.5351 -0.0741  0.2709
  394MOL0     C53070   6.134   5.404   4.116 -0.1767  0.0320 -0.3878
  394MOL0     C53071   6.159   5.329   3.981 -0.6270 -0.7085 -0.4808
  394MOL0     N53072   6.289   5.264   3.992 -0.2291 -0.2287 -1.2093
  394MOL0     C53073   6.309   5.135   4.004 -0.2438  0.3561  0.3371
  394MOL0     C53074   6.445   5.126   4.005  0.3032  0.3999  0.4195
  394MOL0     C53075   6.519   4.992   4.031 -0.1282  0.0743 -0.1949
  394MOL0     C53076   6.601   5.006   4.155 -0.6353 -0.5085 -0.0215
  394MOL0     C53077   6.668   4.869   4.188  0.8756  0.5089  0.3756
  394MOL0     C53078   6.592   4.767   4.269  0.7845  0.1871  0.9857
  394MOL0     O53079   6.605   4.626   4.228  0.4347 -0.2007 -0.2486
  394MOL0     C53080   6.731   4.569   4.249 -0.0230 -0.6806 -0.1330
  394MOL0     C53081   6.828   4.591   4.153 -0.3861  0.4203 -0.1748
  394MOL0     C53082   6.955   4.543   4.183 -0.2667 -0.3969  0.6007
  394MOL0     C53083   6.986   4.482   4.307  0.0845 -0.5803 -0.3908
  394MOL0     C53084   7.121   4.440   4.341 -0.2554  0.2269  0.6983
  394MOL0     O53085   7.133   4.375   4.464 -0.3143 -0.3344 -0.3598
  394MOL0     C53086   7.253   4.319   4.512 -1.2134 -0.6283 -0.5824
  394MOL0     C53087   7.342   4.235   4.438  0.9351 -0.8828  0.2895
  394MOL0     C53088   7.457   4.182   4.506 -0.8019 -0.8306  0.1773
  394MOL0     C53089   7.480   4.204   4.649 -0.0257  1.3202  0.6525
  394MOL0     O53090   7.588   4.139   4.698 -0.1675 -1.2716 -0.2600
  394MOL0     C53091   7.634   4.183   4.827  0.2192 -0.7197 -1.6621
  394MOL0     C53092   7.670   4.334   4.844  0.0300  0.3286  0.3941
  394MOL0     C53093   7.777   4.365   4.737  0.3925 -0.3380  0.5608
  394MOL0     C53094   7.918   4.312   4.775 -0.1674 -0.4366 -0.0132
  394MOL0     C53095   8.038   4.343   4.694 -1.0191  0.5034  0.8626
  394MOL0     C53096   8.168   4.272   4.739  0.0936 -0.4772  0.4867
  394MOL0     C53097   8.226   4.360   4.856 -0.2204  0.0832  0.1481
  394MOL0     C53098   8.259   4.510   4.823 -0.1198  0.7900 -0.3089
  394MOL0    Cl53099   8.379   4.575   4.934 -0.5889  0.4159 -0.1260
  394MOL0     C53100   7.377   4.268   4.721  0.0731  0.6034 -0.4339
  394MOL0     C53101   7.272   4.325   4.652  0.0047  1.0395 -0.5386
  394MOL0     O53102   7.207   4.442   4.256 -0.4742  0.2789 -0.0346
  394MOL0     C53103   6.882   4.465   4.402  0.0830  0.0911  0.8749
  394MOL0     C53104   6.751   4.509   4.377 -0.4741 -0.4182  1.5107
  394MOL0     N53105   6.508   5.244   3.986 -0.0265  0.4928  1.0339
  394MOL0     N53106   6.409   5.330   3.979 -0.0563 -1.2362 -0.4465
  394MOL0     C53107   5.109   5.374   4.194  0.0929  0.3976 -0.3043
  394MOL0     C53108   4.980   5.382   4.148  0.4480  0.5391 -0.2219
  394MOL0     C53109   4.537   5.322   4.065  0.3792 -0.5367  0.3398
  394MOL0     C53110   4.545   5.321   3.922 -0.7689 -1.4745 -0.2600
  394MOL0     C53111   4.440   5.349   3.836  0.2052 -0.2191 -0.1545
  394MOL0     C53112   4.308   5.347   3.893  0.3242  0.6461  0.5875
  394MOL0     O53113   4.203   5.355   3.812 -0.6106  0.6143 -0.0678
  394MOL0     C53114   4.081   5.410   3.848  0.4273 -0.3876  0.4001
  394MOL0     C53115   3.966   5.360   3.757  0.6601 -1.0744 -0.6299
  394MOL0     C53116   3.829   5.436   3.784 -0.1099  0.0977 -0.3060
  394MOL0     C53117   3.828   5.584   3.750  0.5245 -0.2573  0.3903
  394MOL0     C53118   3.891   5.629   3.624  0.5580 -0.0179 -0.5632
  394MOL0     C53119   3.936   5.660   3.517 -0.5301 -0.5480  0.4933
  394MOL0     C53120   4.296   5.349   4.036 -0.0937 -0.4041  0.2431
  394MOL0     C53121   4.410   5.345   4.116  1.0350  1.2107  0.1471
  394MOL0     C53122   4.380   5.355   4.267  0.2214 -0.1229 -0.1019
  394MOL0     H53123   4.886   5.046   4.202  0.0314 -0.1579 -1.1236
  394MOL0     H53124   5.115   5.056   4.301 -0.5717 -0.6264  0.0159
  394MOL0     H53125   5.361   5.196   4.104  2.3825  0.7035 -3.1363
  394MOL0     H53126   5.373   5.363   4.169  0.0823 -1.2021  1.0591
  394MOL0     H53127   5.531   5.124   4.222  1.0420  1.1307 -3.3170
  394MOL0     H53128   5.531   5.256   4.347 -2.8647 -2.2769  1.2085
  394MOL0     H53129   5.621   5.412   4.167 -0.7850  0.2260 -3.1042
  394MOL0     H53130   5.626   5.264   4.065 -0.3557 -2.4086  0.5149
  394MOL0     H53131   5.788   5.322   4.321 -1.3108  2.1640 -1.1724
  394MOL0     H53132   5.786   5.169   4.227  2.6446 -0.1980  1.1003
  394MOL0     H53133   5.871   5.324   4.033 -2.5882  1.6725 -0.8914
  394MOL0     H53134   5.856   5.464   4.150  2.5156  0.3611  0.2301
  394MOL0     H53135   6.015   5.379   4.304  0.2043 -0.3869  0.4346
  394MOL0     H53136   6.043   5.229   4.218  2.1157  0.0734 -2.4630
  394MOL0     H53137   6.228   5.417   4.170  1.4275 -1.0448 -2.7399
  394MOL0     H53138   6.102   5.508   4.103  3.7378  1.2734 -1.6620
  394MOL0     H53139   6.083   5.255   3.955 -1.2917 -0.3911  0.5142
  394MOL0     H53140   6.163   5.402   3.900 -0.3691  0.0515  0.2048
  394MOL0     H53141   6.234   5.057   4.015 -1.0396  1.2607  1.6930
  394MOL0     H53142   6.434   4.926   4.051 -0.1025 -0.2872 -1.2218
  394MOL0     H53143   6.576   4.952   3.947  1.0983 -0.6387  0.9571
  394MOL0     H53144   6.687   5.071   4.140 -0.4927 -0.0242  2.5238
  394MOL0     H53145   6.533   5.036   4.235  1.2206  2.6394  0.5311
  394MOL0     H53146   6.760   4.888   4.244  0.5192 -0.1295  1.1817
  394MOL0     H53147   6.700   4.813   4.099 -2.9108 -2.8976  0.8840
  394MOL0     H53148   6.489   4.800   4.281  0.7547 -0.0784  1.5188
  394MOL0     H53149   6.629   4.781   4.371 -2.0247  1.8864  1.8764
  394MOL0     H53150   6.808   4.644   4.061 -1.8560  2.8614  1.4196
  394MOL0     H53151   7.037   4.559   4.114 -0.0602 -1.9455  0.4497
  394MOL0     H53152   7.325   4.230   4.331 -0.5069 -2.4167  0.5553
  394MOL0     H53153   7.540   4.142   4.449 -0.1104 -1.2912  1.4538
  394MOL0     H53154   7.557   4.157   4.901  0.1388  1.5443 -0.8914
  394MOL0     H53155   7.721   4.121   4.850  1.7018  1.5800 -0.7835
  394MOL0     H53156   7.594   4.412   4.834  1.4768  1.8303  0.5718
  394MOL0     H53157   7.696   4.339   4.950 -1.2332 -0.6430  0.7795
  394MOL0     H53158   7.754   4.323   4.638  0.6233  0.2770  0.2392
  394MOL0     H53159   7.775   4.469   4.702 -0.4462 -1.1003 -1.8532
  394MOL0     H53160   7.913   4.203   4.789 -0.1501 -0.4040  0.2538
  394MOL0     H53161   7.950   4.353   4.871 -0.7342  0.0408 -0.0233
  394MOL0     H53162   8.062   4.449   4.682  0.4236 -0.0004 -1.3072
  394MOL0     H53163   8.022   4.304   4.593 -1.0277 -2.5080  1.9142
  394MOL0     H53164   8.146   4.168   4.766  1.0015 -0.9577 -0.5354
  394MOL0     H53165   8.241   4.270   4.658  0.2693  1.1498  0.5782
  394MOL0     H53166   8.330   4.330   4.871  1.6495  5.5995  0.4989
  394MOL0     H53167   8.165   4.358   4.947 -1.5342  0.1093 -0.6980
  394MOL0     H53168   8.301   4.521   4.722  0.6617  1.3529  0.0686
  394MOL0     H53169   8.167   4.568   4.832  0.3107  1.5696 -0.8422
  394MOL0     H53170   7.384   4.266   4.829 -3.6145  0.0693 -0.0798
  394MOL0     H53171   7.201   4.380   4.713 -1.7043  1.1323 -2.4944
  394MOL0     H53172   6.886   4.392   4.482 -1.9049 -1.2284 -0.1270
  394MOL0     H53173   6.678   4.498   4.456  0.1005  2.4017  2.5450
  394MOL0     H53174   5.172   5.463   4.199 -0.7256  0.9616  0.4626
  394MOL0     H53175   4.943   5.470   4.095 -2.4495 -0.6459 -0.3455
  394MOL0     H53176   4.642   5.306   3.876  1.5483 -0.1252  3.6733
  394MOL0     H53177   4.449   5.345   3.728 -2.6216 -4.0379 -0.4621
  394MOL0     H53178   4.092   5.519   3.844 -1.6336 -0.1688 -1.6809
  394MOL0     H53179   4.058   5.394   3.954 -0.5640  0.9715  0.4220
  394MOL0     H53180   3.951   5.254   3.778  0.3804 -0.7060  1.2225
  394MOL0     H53181   3.987   5.372   3.651 -2.2433 -2.3679 -1.4655
  394MOL0     H53182   3.810   5.433   3.891  0.4306 -2.3211 -0.2088
  394MOL0     H53183   3.756   5.377   3.727  0.4843  0.4725 -1.4842
  394MOL0     H53184   3.723   5.616   3.750  0.2312 -0.9400 -2.4180
  394MOL0     H53185   3.879   5.634   3.833 -0.7980 -2.0966  2.4385
  394MOL0     H53186   3.962   5.704   3.423 -1.3070 -1.7153 -0.2958
  394MOL0     H53187   4.202   5.367   4.088 -0.1887  0.0394 -0.0793
  394MOL0     H53188   4.410   5.260   4.313  0.8355  1.3240  2.6743
  394MOL0     H53189   4.423   5.437   4.325  1.6860  0.9012 -2.4675
  394MOL0     H53190   4.272   5.353   4.283 -0.0221 -2.4599 -1.5054
  395MOL0     O53191   1.448   9.387   8.487  0.3134 -0.3335 -0.1105
  395MOL0     C53192   1.350   9.452   8.533  0.4661 -0.3843  0.6980
  395MOL0     O53193   1.298   9.566   8.464 -0.7023 -0.6674  0.3664
  395MOL0     C53194   1.356   9.609   8.346  0.0441  0.2000 -0.6728
  395MOL0     C53195   1.273   9.615   8.231  0.2328 -0.3733 -0.6879
  395MOL0     C53196   1.329   9.685   8.118  0.1633  0.5481  0.3604
  395MOL0     C53197   1.462   9.729   8.112 -0.5223  0.3720 -0.0361
  395MOL0     O53198   1.494   9.806   8.003 -0.9667 -0.1725  0.6431
  395MOL0     C53199   1.612   9.898   8.013  0.7863 -0.0515 -0.2244
  395MOL0     C53200   1.709   9.855   7.901 -0.2146 -0.5686  0.1428
  395MOL0     C53201   1.643   9.854   7.766 -0.3579 -0.1230  0.6757
  395MOL0     C53202   1.738   9.815   7.648 -1.0862  0.5017 -0.7291
  395MOL0     C53203   1.869   9.889   7.638 -0.3834 -0.9729 -0.5106
  395MOL0     C53204   1.920   9.910   7.500  0.1687 -0.2656  0.2085
  395MOL0     C53205   2.064   9.969   7.504  0.5242  0.2219  0.4300
  395MOL0     C53206   2.050  10.125   7.466  1.0986 -0.1111 -0.3249
  395MOL0     N53207   2.165  10.207   7.507 -0.0310 -0.4646  0.2852
  395MOL0     C53208   2.297  10.197   7.472  0.2596  0.6869 -0.0669
  395MOL0     C53209   2.360  10.301   7.535  0.7415 -0.0497  0.1902
  395MOL0     C53210   2.504  10.316   7.531  0.5291  0.3489 -0.6230
  395MOL0     C53211   2.553  10.449   7.466 -0.6388  0.2361  0.5143
  395MOL0     C53212   2.703  10.439   7.420  0.7719 -0.2604 -1.1294
  395MOL0     C53213   2.798  10.518   7.516 -0.8982 -0.0801  0.4158
  395MOL0     O53214   2.745  10.656   7.514  0.2647 -0.7157  0.0951
  395MOL0     C53215   2.813  10.748   7.574  0.2361 -0.5763 -0.2945
  395MOL0     C53216   2.913  10.720   7.672 -0.4337 -0.1414  0.2711
  395MOL0     C53217   2.972  10.840   7.727 -0.0280  0.5316  0.3150
  395MOL0     C53218   2.945  10.974   7.690  0.6140 -0.0765  0.2861
  395MOL0     C53219   2.997  11.104   7.745 -0.2858 -0.7300 -0.1158
  395MOL0     O53220   2.929  11.218   7.700 -0.4563  0.3233  0.1871
  395MOL0     C53221   2.925  11.329   7.774  0.8701 -0.5293  0.0267
  395MOL0     C53222   2.938  11.336   7.918  0.0246 -0.8780 -0.0535
  395MOL0     C53223   2.908  11.449   7.991  0.4323 -0.1182 -0.1521
  395MOL0     C53224   2.882  11.570   7.926  0.3346 -0.4425 -0.3803
  395MOL0     O53225   2.892  11.687   8.003 -0.2587 -0.7360 -0.6705
  395MOL0     C53226   2.868  11.825   7.949 -0.6022  0.2789 -0.3646
  395MOL0     C53227   2.873  11.926   8.067  0.5483  0.7440  0.0963
  395MOL0     C53228   2.878  12.072   8.028 -0.6215  0.2406  0.6378
  395MOL0     C53229   3.027  12.105   7.988 -0.1787 -0.0331  0.2316
  395MOL0     C53230   3.053  12.246   7.939 -1.1275 -1.2895 -0.4257
  395MOL0     C53231   3.042  12.353   8.055 -0.1612  1.3888  0.1634
  395MOL0     C53232   3.097  12.500   8.033 -0.7285 -0.2318  0.8767
  395MOL0     C53233   3.108  12.569   8.167  1.2334 -0.0893 -0.3713
  395MOL0    Cl53234   3.165  12.732   8.135 -0.7604  0.4087 -0.1107
  395MOL0     C53235   2.853  11.562   7.788  0.2688 -0.5510 -0.2005
  395MOL0     C53236   2.867  11.439   7.715  0.5679 -0.4345 -0.2442
  395MOL0     O53237   3.093  11.099   7.827 -0.2940 -0.2623 -0.3522
  395MOL0     C53238   2.849  10.990   7.587 -0.3541 -0.6922  0.9580
  395MOL0     C53239   2.786  10.880   7.525  0.7491 -0.9761 -0.1387
  395MOL0     N53240   2.270  10.371   7.602  0.5338  0.4080  0.3966
  395MOL0     N53241   2.152  10.315   7.583 -0.0939  0.0076 -1.0150
  395MOL0     C53242   1.549   9.704   8.220  0.1245 -0.3341 -0.3349
  395MOL0     C53243   1.492   9.646   8.343 -0.0649  0.2555 -0.7033
  395MOL0     C53244   1.284   9.405   8.661 -0.1971  0.0078  0.6599
  395MOL0     C53245   1.160   9.457   8.704  0.1521 -0.2129 -0.2147
  395MOL0     C53246   1.088   9.416   8.817  0.3417 -0.0764  0.4706
  395MOL0     C53247   1.144   9.320   8.894 -0.1283  0.6814  0.2142
  395MOL0     O53248   1.069   9.251   8.992 -0.5426 -0.4951  0.1942
  395MOL0     C53249   1.036   9.122   8.934  0.0924  0.2731  0.2724
  395MOL0     C53250   1.014   9.011   9.032 -0.4429 -0.2646 -1.6633
  395MOL0     C53251   0.900   9.057   9.130 -0.0800  0.4456 -0.1685
  395MOL0     C53252   0.890   8.977   9.262  0.7529 -0.0527  0.2209
  395MOL0     C53253   0.832   8.853   9.212 -1.0457  0.0531 -0.1797
  395MOL0     C53254   0.793   8.749   9.162 -1.3089  1.2347 -0.2903
  395MOL0     C53255   1.267   9.264   8.848 -0.8114 -1.6360 -0.6011
  395MOL0     C53256   1.341   9.297   8.734 -0.3184 -0.5867  0.1149
  395MOL0     C53257   1.471   9.220   8.711  0.5205  0.5856 -1.3692
  395MOL0     H53258   1.174   9.572   8.233 -0.6780  1.0385 -5.3476
  395MOL0     H53259   1.268   9.712   8.031 -1.5880  3.1491  2.2282
  395MOL0     H53260   1.571   9.999   8.002 -0.1216 -0.0563  2.3488
  395MOL0     H53261   1.672   9.893   8.104  1.7275 -1.1727 -0.8875
  395MOL0     H53262   1.756   9.759   7.920 -0.0065 -0.9551 -2.0574
  395MOL0     H53263   1.787   9.932   7.894 -1.9150  1.2100 -0.1539
  395MOL0     H53264   1.608   9.955   7.744 -1.0991 -0.7484 -1.2674
  395MOL0     H53265   1.554   9.790   7.768 -0.9077  0.5644  3.4245
  395MOL0     H53266   1.766   9.710   7.663 -3.0745 -0.1599 -1.3402
  395MOL0     H53267   1.676   9.836   7.560 -1.1431  2.1612 -0.3195
  395MOL0     H53268   1.858   9.985   7.690 -0.1204 -1.5171  0.5614
  395MOL0     H53269   1.951   9.842   7.693  0.4696  1.8526  0.8223
  395MOL0     H53270   1.905   9.816   7.446 -2.5426  0.8237 -1.0837
  395MOL0     H53271   1.854   9.984   7.453 -1.0037 -0.2972  1.7404
  395MOL0     H53272   2.125   9.922   7.427  0.4950 -0.2077  0.6700
  395MOL0     H53273   2.115   9.957   7.600  3.0087  0.3599 -0.7796
  395MOL0     H53274   2.026  10.136   7.360  1.6980  1.9625 -0.2996
  395MOL0     H53275   1.969  10.157   7.533 -1.0033 -3.1915 -1.1802
  395MOL0     H53276   2.335  10.115   7.411  0.0149  1.0268 -0.6829
  395MOL0     H53277   2.533  10.329   7.635  0.3303  1.1222 -0.6593
  395MOL0     H53278   2.554  10.233   7.480 -0.6119 -0.7472 -0.0327
  395MOL0     H53279   2.502  10.475   7.373  1.8119  0.4860 -0.8548
  395MOL0     H53280   2.532  10.525   7.543 -0.3584 -1.2301  2.1021
  395MOL0     H53281   2.714  10.474   7.317  0.2308 -0.1042 -1.1355
  395MOL0     H53282   2.739  10.336   7.429  1.2308  0.0419  1.2606
  395MOL0     H53283   2.903  10.504   7.490 -1.9741 -3.8488 -2.8938
  395MOL0     H53284   2.787  10.477   7.616  2.0658 -1.9490  0.1091
  395MOL0     H53285   2.928  10.623   7.717 -0.8643  1.1852  3.5415
  395MOL0     H53286   3.047  10.812   7.800  0.8350 -1.5413 -1.2714
  395MOL0     H53287   2.954  11.246   7.977  3.0511 -0.2078  0.3290
  395MOL0     H53288   2.908  11.440   8.099 -0.3925 -2.5280 -0.2878
  395MOL0     H53289   2.943  11.847   7.872  0.9019 -4.3538 -0.5543
  395MOL0     H53290   2.772  11.831   7.897  0.4581 -2.2054 -2.9001
  395MOL0     H53291   2.795  11.899   8.139  2.1675 -1.8566  1.0104
  395MOL0     H53292   2.969  11.912   8.117  1.5867 -1.4142 -2.2646
  395MOL0     H53293   2.809  12.098   7.947 -0.4722 -1.2839 -0.0093
  395MOL0     H53294   2.847  12.127   8.117 -0.4793 -0.9455  1.4365
  395MOL0     H53295   3.071  12.030   7.922  2.1435 -1.1337  2.8401
  395MOL0     H53296   3.090  12.104   8.078 -1.4386  0.8192  1.1632
  395MOL0     H53297   2.985  12.269   7.857 -2.7161  0.8685  1.3881
  395MOL0     H53298   3.161  12.252   7.920 -0.8839 -0.3970  1.0518
  395MOL0     H53299   2.934  12.359   8.073 -0.7045 -2.2491 -1.1287
  395MOL0     H53300   3.079  12.307   8.147 -0.2250  0.7997 -0.1025
  395MOL0     H53301   3.031  12.556   7.966 -0.1174  1.7444  1.8497
  395MOL0     H53302   3.195  12.509   7.985 -0.2780  0.2435  1.8530
  395MOL0     H53303   3.010  12.571   8.213 -0.9210  1.0324 -4.5078
  395MOL0     H53304   3.179  12.517   8.232  0.0779  0.3862  1.3227
  395MOL0     H53305   2.813  11.651   7.741 -0.2859  0.3968  1.9561
  395MOL0     H53306   2.850  11.437   7.608  0.8221  3.8771 -0.5426
  395MOL0     H53307   2.826  11.083   7.535  3.2312 -0.1528  0.0378
  395MOL0     H53308   2.702  10.902   7.460 -0.9255 -5.6758  0.0527
  395MOL0     H53309   1.655   9.727   8.212  0.2989 -0.2914  1.6076
  395MOL0     H53310   1.556   9.648   8.431 -1.3100 -2.7857  0.4170
  395MOL0     H53311   1.121   9.548   8.659  0.3832  1.6894  3.0816
  395MOL0     H53312   0.989   9.455   8.840  0.8874  1.3120  0.5618
  395MOL0     H53313   1.106   9.086   8.859 -0.1103 -1.3474  0.8143
  395MOL0     H53314   0.941   9.129   8.881  0.5992  2.2433 -0.4640
  395MOL0     H53315   1.104   9.001   9.095 -1.5441 -1.6624 -0.2198
  395MOL0     H53316   1.002   8.914   8.983 -2.4371 -0.8905 -0.0881
  395MOL0     H53317   0.812   9.048   9.066  0.0053  1.1151 -0.3911
  395MOL0     H53318   0.911   9.166   9.140 -3.6082  1.1606 -2.2184
  395MOL0     H53319   0.984   8.969   9.318 -0.3595  0.7721  2.2743
  395MOL0     H53320   0.824   9.029   9.331  2.3328  0.6622  1.2527
  395MOL0     H53321   0.739   8.662   9.129 -0.1279 -0.2174  1.3703
  395MOL0     H53322   1.315   9.193   8.915 -1.4786 -2.2043 -0.7189
  395MOL0     H53323   1.550   9.290   8.741 -1.0808  1.4266  1.2535
  395MOL0     H53324   1.485   9.139   8.784 -0.8824  2.6153  1.3401
  395MOL0     H53325   1.486   9.167   8.617  3.3300 -3.8063  1.2091
  396MOL0     O53326   8.339   5.526   1.583  0.2448 -0.0229 -0.3009
  396MOL0     C53327   8.220   5.558   1.566 -1.0347 -0.1659  0.2664
  396MOL0     O53328   8.153   5.535   1.446  0.5116 -0.3079 -0.1741
  396MOL0     C53329   8.217   5.509   1.323 -0.2191  0.4057 -0.2506
  396MOL0     C53330   8.273   5.389   1.307  0.7421  0.8186 -0.3426
  396MOL0     C53331   8.315   5.337   1.180 -0.4852 -1.2957  0.0098
  396MOL0     C53332   8.316   5.426   1.072  0.6606  0.4478 -0.4992
  396MOL0     O53333   8.365   5.388   0.951 -0.0305  0.1365 -0.0707
  396MOL0     C53334   8.370   5.256   0.916  0.6886  0.0062 -0.4675
  396MOL0     C53335   8.440   5.255   0.781 -0.2007  0.6271 -0.0697
  396MOL0     C53336   8.488   5.114   0.745 -0.2941 -0.5897  0.3358
  396MOL0     C53337   8.390   4.999   0.749  0.4273  0.4445 -0.3640
  396MOL0     C53338   8.246   5.020   0.684 -0.0180 -0.5382  0.0375
  396MOL0     C53339   8.257   5.019   0.535 -0.3558  1.0573 -1.7201
  396MOL0     C53340   8.280   4.877   0.482  1.2143 -0.1876  0.5022
  396MOL0     C53341   8.372   4.897   0.360  1.2801  0.8171  0.9369
  396MOL0     N53342   8.361   4.788   0.259  0.3880  0.0043  0.0813
  396MOL0     C53343   8.274   4.779   0.146 -0.9943  0.3013 -0.1818
  396MOL0     C53344   8.302   4.661   0.089  0.6705 -0.0002 -0.4711
  396MOL0     C53345   8.226   4.612  -0.028 -0.5409 -0.2025  0.4356
  396MOL0     C53346   8.204   4.462  -0.036  0.1677  0.2744 -0.4270
  396MOL0     C53347   8.110   4.418  -0.156  1.2766 -1.2545  0.1240
  396MOL0     C53348   8.173   4.456  -0.285  0.2850  0.3173  0.1636
  396MOL0     O53349   8.268   4.352  -0.302 -0.0549  0.5849  0.4726
  396MOL0     C53350   8.346   4.354  -0.413  0.4609 -0.3417  0.4206
  396MOL0     C53351   8.367   4.463  -0.509  1.0057 -0.1461 -0.3799
  396MOL0     C53352   8.445   4.449  -0.620 -0.3435 -0.4349  0.4844
  396MOL0     C53353   8.518   4.335  -0.650  0.0168  0.1378 -0.5205
  396MOL0     C53354   8.616   4.327  -0.763 -0.1828 -0.6258  0.3975
  396MOL0     O53355   8.676   4.449  -0.789 -0.3421  0.1603  0.5147
  396MOL0     C53356   8.752   4.449  -0.907 -0.4506  0.4182  0.0448
  396MOL0     C53357   8.887   4.484  -0.902  0.1694 -0.6051 -0.0545
  396MOL0     C53358   8.958   4.493  -1.022 -0.9526  0.7963 -0.1315
  396MOL0     C53359   8.898   4.466  -1.147 -1.0173 -0.6548 -1.3430
  396MOL0     O53360   8.973   4.483  -1.256  0.2348 -0.2538 -0.8998
  396MOL0     C53361   8.912   4.512  -1.379  0.5424  0.3303 -0.4076
  396MOL0     C53362   9.017   4.581  -1.458 -0.9324  0.0524  0.0912
  396MOL0     C53363   8.975   4.642  -1.592 -0.0221  0.9073  0.3342
  396MOL0     C53364   9.091   4.699  -1.674 -0.6733  0.4760 -0.0546
  396MOL0     C53365   9.043   4.800  -1.776 -0.4343  0.1881 -0.4154
  396MOL0     C53366   9.157   4.825  -1.876  0.3436 -0.5904  0.0287
  396MOL0     C53367   9.109   4.947  -1.963  0.3923  0.3959 -0.3542
  396MOL0     C53368   9.009   4.889  -2.072  0.6923 -0.4577 -0.6385
  396MOL0    Cl53369   9.097   4.785  -2.188  0.4740 -0.1278 -0.3055
  396MOL0     C53370   8.766   4.426  -1.143 -0.5402  0.7163 -0.3307
  396MOL0     C53371   8.690   4.414  -1.027 -0.1475  0.1459  0.4324
  396MOL0     O53372   8.648   4.226  -0.814 -0.4597  0.0163  0.2168
  396MOL0     C53373   8.494   4.224  -0.557 -0.5217 -0.0662  0.1505
  396MOL0     C53374   8.411   4.238  -0.445 -0.4612 -0.0345 -0.2395
  396MOL0     N53375   8.399   4.599   0.163 -0.1742  0.1147 -0.4126
  396MOL0     N53376   8.420   4.667   0.274  0.6957  0.7763  0.7913
  396MOL0     C53377   8.273   5.558   1.094 -0.8827  0.9122 -0.2447
  396MOL0     C53378   8.231   5.597   1.218  0.6416 -0.2202  0.1477
  396MOL0     C53379   8.140   5.599   1.677 -0.7590  0.1460 -0.2079
  396MOL0     C53380   8.182   5.578   1.810 -0.4023  1.0285 -0.2653
  396MOL0     C53381   8.099   5.612   1.926  0.3167  0.8426 -0.1731
  396MOL0     C53382   7.989   5.692   1.906 -0.5315 -0.0662 -0.0643
  396MOL0     O53383   7.905   5.736   2.007  0.1961  0.4679 -0.1606
  396MOL0     C53384   7.963   5.758   2.133 -0.2082 -0.9151  0.0727
  396MOL0     C53385   7.892   5.866   2.208 -0.4094  0.2321 -0.1476
  396MOL0     C53386   7.965   5.912   2.333  0.7091 -0.4019  0.8314
  396MOL0     C53387   7.872   5.952   2.452  0.1591  0.0741  0.2883
  396MOL0     C53388   7.797   5.834   2.479 -0.0401 -0.0690  0.2491
  396MOL0     C53389   7.717   5.747   2.520  0.4163  0.5886  0.0578
  396MOL0     C53390   7.952   5.728   1.768 -0.8416  0.4516 -0.2666
  396MOL0     C53391   8.024   5.678   1.658  0.7638 -0.4340  0.7748
  396MOL0     C53392   7.960   5.713   1.526 -0.2594 -0.2448  0.1822
  396MOL0     H53393   8.260   5.318   1.388 -1.0936 -2.7760 -3.4523
  396MOL0     H53394   8.350   5.234   1.172  4.0938  0.1652 -1.9128
  396MOL0     H53395   8.429   5.198   0.988 -0.1647 -0.2523  0.0462
  396MOL0     H53396   8.270   5.210   0.918 -1.2304  3.7994  0.2090
  396MOL0     H53397   8.531   5.315   0.794  0.3290 -0.2582  0.4498
  396MOL0     H53398   8.382   5.305   0.703 -0.1549 -0.0184 -0.5208
  396MOL0     H53399   8.567   5.076   0.811 -0.3182 -1.4164 -0.0954
  396MOL0     H53400   8.539   5.119   0.649  2.4412  1.4956  1.7851
  396MOL0     H53401   8.433   4.911   0.701 -3.9828 -3.0759  1.4734
  396MOL0     H53402   8.373   4.964   0.851 -1.2357  1.6354 -0.1939
  396MOL0     H53403   8.175   4.949   0.727 -2.6041  2.9426  2.0143
  396MOL0     H53404   8.212   5.117   0.721 -3.9647 -2.2179  1.3177
  396MOL0     H53405   8.162   5.060   0.498 -1.0868 -0.5850 -1.7414
  396MOL0     H53406   8.337   5.088   0.504 -0.9100  2.1976 -0.6979
  396MOL0     H53407   8.186   4.834   0.443  0.3390  1.6004  0.5394
  396MOL0     H53408   8.326   4.818   0.562 -0.0353  0.7484  1.9692
  396MOL0     H53409   8.344   4.988   0.306  0.0324  0.8225  1.5540
  396MOL0     H53410   8.477   4.903   0.388  2.2168 -1.2480 -1.6785
  396MOL0     H53411   8.192   4.846   0.123 -0.6474  1.7924  2.4325
  396MOL0     H53412   8.134   4.669  -0.042 -0.0620  0.6251  0.6315
  396MOL0     H53413   8.286   4.636  -0.116 -2.2812 -1.3721 -1.1554
  396MOL0     H53414   8.300   4.416  -0.059  0.6221  2.1057 -2.5143
  396MOL0     H53415   8.158   4.420   0.054  1.9993 -0.0332  0.3979
  396MOL0     H53416   8.009   4.458  -0.147  1.2446 -1.7643  2.7566
  396MOL0     H53417   8.098   4.310  -0.148  1.0095 -1.3524 -1.2941
  396MOL0     H53418   8.218   4.555  -0.284  2.5719 -0.6436 -1.0312
  396MOL0     H53419   8.090   4.455  -0.357  0.1436 -1.4057  0.2981
  396MOL0     H53420   8.331   4.564  -0.491 -0.0530 -0.7790  1.3801
  396MOL0     H53421   8.460   4.534  -0.685 -1.1909 -1.9813 -1.8448
  396MOL0     H53422   8.912   4.520  -0.803 -3.1222  2.1912 -0.0440
  396MOL0     H53423   9.061   4.527  -1.020  0.1930 -2.3006  2.6730
  396MOL0     H53424   8.852   4.432  -1.422 -2.1485  1.3684  1.2105
  396MOL0     H53425   8.843   4.595  -1.363 -1.2869 -0.9573 -1.2739
  396MOL0     H53426   9.059   4.662  -1.397  0.9351 -1.8416  1.4682
  396MOL0     H53427   9.106   4.520  -1.473 -1.3663  0.1420 -3.5340
  396MOL0     H53428   8.913   4.567  -1.642 -0.5694 -1.2847  3.9733
  396MOL0     H53429   8.911   4.727  -1.564 -1.5100 -0.8288  2.4891
  396MOL0     H53430   9.149   4.626  -1.731 -0.7356 -0.4851  1.0688
  396MOL0     H53431   9.163   4.745  -1.605  0.8906  0.0105 -1.3347
  396MOL0     H53432   9.027   4.900  -1.734 -0.2806  0.6645 -1.4489
  396MOL0     H53433   8.949   4.761  -1.816 -1.6765  0.9821  1.5621
  396MOL0     H53434   9.255   4.850  -1.835 -0.2094  0.5005  0.7336
  396MOL0     H53435   9.177   4.733  -1.932 -1.4974 -1.5891  0.9271
  396MOL0     H53436   9.200   4.991  -2.005  1.3179 -2.6028 -1.8125
  396MOL0     H53437   9.055   5.022  -1.904 -2.3255 -0.7324 -1.2250
  396MOL0     H53438   8.920   4.835  -2.038 -1.1163  1.6249 -1.7950
  396MOL0     H53439   8.964   4.967  -2.134 -0.7165  0.7443  1.7347
  396MOL0     H53440   8.713   4.400  -1.234 -1.1506 -2.2481  0.7367
  396MOL0     H53441   8.583   4.402  -1.037  0.1330 -1.9158 -0.4908
  396MOL0     H53442   8.552   4.135  -0.579 -0.3667  0.6067 -2.5282
  396MOL0     H53443   8.398   4.161  -0.369  0.0271  1.5171  1.4859
  396MOL0     H53444   8.287   5.630   1.013  0.2140  0.1178 -0.7960
  396MOL0     H53445   8.189   5.697   1.219  0.1822 -0.4070  0.2094
  396MOL0     H53446   8.274   5.521   1.822  1.0357  3.4576  0.9532
  396MOL0     H53447   8.139   5.591   2.024  1.1382 -1.0659 -0.8710
  396MOL0     H53448   8.068   5.783   2.117 -0.6133  0.8594  0.0154
  396MOL0     H53449   7.956   5.674   2.203 -1.7560  0.7855  2.0728
  396MOL0     H53450   7.797   5.825   2.243  0.0109  0.1821  0.9805
  396MOL0     H53451   7.881   5.955   2.146  2.2795  0.0380 -1.0257
  396MOL0     H53452   8.027   5.997   2.304 -1.6172  0.4347 -2.1514
  396MOL0     H53453   8.037   5.838   2.370  1.0679 -0.2975  0.3612
  396MOL0     H53454   7.927   5.980   2.542 -0.0225  1.8890 -0.1274
  396MOL0     H53455   7.811   6.036   2.418  2.2761  2.1902  1.4353
  396MOL0     H53456   7.645   5.671   2.546  1.6989 -0.1133  1.7279
  396MOL0     H53457   7.862   5.786   1.752 -1.9299 -0.4496  2.1280
  396MOL0     H53458   7.958   5.624   1.463 -0.3457 -2.7293  3.4316
  396MOL0     H53459   7.857   5.747   1.532 -0.0821  0.1553  1.0781
  396MOL0     H53460   8.017   5.797   1.486 -3.4329  3.3368  2.5194
  397MOL0     O53461   2.486  10.346   4.262 -0.0939  0.3486 -0.0121
  397MOL0     C53462   2.515  10.465   4.289  0.2321 -0.4218  0.2036
  397MOL0     O53463   2.630  10.510   4.358 -0.0692 -0.7576 -0.4242
  397MOL0     C53464   2.712  10.422   4.422 -0.1297 -0.5195 -0.2583
  397MOL0     C53465   2.753  10.303   4.366  0.1700  0.0550  0.1942
  397MOL0     C53466   2.839  10.219   4.433  0.9106 -0.4398 -0.4416
  397MOL0     C53467   2.887  10.246   4.564 -1.0782  0.2433 -0.4586
  397MOL0     O53468   2.952  10.154   4.652  0.1367  0.0241 -0.8004
  397MOL0     C53469   2.949  10.011   4.631  0.2579  0.3492  0.4144
  397MOL0     C53470   3.002   9.929   4.749  0.0710 -0.9233  0.2584
  397MOL0     C53471   3.147   9.959   4.771 -0.5698 -0.3094  0.5064
  397MOL0     C53472   3.224   9.837   4.832 -0.4139  0.1308 -1.2225
  397MOL0     C53473   3.317   9.775   4.736  0.4131 -0.0313 -0.0765
  397MOL0     C53474   3.382   9.655   4.788 -0.1744 -0.0876 -0.2392
  397MOL0     C53475   3.463   9.583   4.681 -0.3480 -0.1051  0.1693
  397MOL0     C53476   3.582   9.670   4.637 -0.3601 -0.5640  0.1907
  397MOL0     N53477   3.660   9.594   4.543 -0.6387  0.4376 -0.4341
  397MOL0     C53478   3.756   9.505   4.585 -0.2411  1.0410  0.6832
  397MOL0     C53479   3.768   9.421   4.472  0.3071  0.3417  0.0978
  397MOL0     C53480   3.834   9.282   4.462  0.3486 -0.7277  0.6444
  397MOL0     C53481   3.826   9.199   4.590  0.3585  0.5373  0.0267
  397MOL0     C53482   3.681   9.157   4.627 -0.0059  0.8891  0.0284
  397MOL0     C53483   3.628   9.046   4.528  0.3366 -0.0923 -0.5879
  397MOL0     O53484   3.701   8.920   4.554 -0.1701 -0.5391  0.4011
  397MOL0     C53485   3.646   8.792   4.530  0.0151 -0.0915  0.4158
  397MOL0     C53486   3.732   8.690   4.509  0.2771 -0.2490 -0.5747
  397MOL0     C53487   3.674   8.559   4.501  0.1981 -0.0821 -0.0719
  397MOL0     C53488   3.535   8.530   4.503  0.3477 -0.4055 -0.5005
  397MOL0     C53489   3.481   8.392   4.495 -0.2208  0.3460  0.5844
  397MOL0     O53490   3.574   8.289   4.468 -0.6607 -0.2857  0.0380
  397MOL0     C53491   3.532   8.169   4.429 -0.5663  1.3964  0.0134
  397MOL0     C53492   3.588   8.058   4.492 -0.3073  0.2025 -0.0038
  397MOL0     C53493   3.557   7.936   4.442 -0.2915 -0.2548  0.1401
  397MOL0     C53494   3.469   7.920   4.335  0.0820  0.1346  0.0463
  397MOL0     O53495   3.466   7.792   4.293  0.0222 -0.1033  0.5608
  397MOL0     C53496   3.394   7.760   4.172  0.0025 -0.0995  0.0250
  397MOL0     C53497   3.258   7.698   4.229  0.1659 -0.2289  0.0363
  397MOL0     C53498   3.169   7.669   4.111  0.4236  0.6775 -0.1354
  397MOL0     C53499   3.038   7.603   4.168 -0.4946 -0.8011 -0.3040
  397MOL0     C53500   2.917   7.617   4.078  0.7591  0.3720 -0.6364
  397MOL0     C53501   2.955   7.546   3.940 -0.2592  0.1602 -0.5628
  397MOL0     C53502   2.829   7.527   3.852 -0.3530 -0.1118  0.9323
  397MOL0     C53503   2.868   7.519   3.699 -0.8037  0.3972  0.6707
  397MOL0    Cl53504   2.983   7.395   3.664 -0.0466 -0.2049  0.1659
  397MOL0     C53505   3.413   8.033   4.271 -0.0568 -0.1963  1.0091
  397MOL0     C53506   3.450   8.161   4.323  0.1670 -0.0109 -0.1810
  397MOL0     O53507   3.360   8.382   4.493 -0.3603 -0.3204 -0.5529
  397MOL0     C53508   3.455   8.640   4.515  0.5297 -0.3577 -0.0222
  397MOL0     C53509   3.511   8.766   4.532  0.1998  0.7580  1.0106
  397MOL0     N53510   3.693   9.486   4.368  0.1046 -0.4198 -0.0033
  397MOL0     N53511   3.634   9.592   4.419 -0.4033 -0.2172  0.3131
  397MOL0     C53512   2.848  10.369   4.623  0.1814  0.6682 -0.7603
  397MOL0     C53513   2.763  10.457   4.554  0.1660  0.4167  0.2462
  397MOL0     C53514   2.402  10.566   4.265  0.8064 -0.1258 -1.4298
  397MOL0     C53515   2.326  10.537   4.151 -0.0079  0.7733 -0.2802
  397MOL0     C53516   2.235  10.629   4.106  0.5301  0.2163  0.0636
  397MOL0     C53517   2.208  10.749   4.172 -0.1127 -0.0283 -0.5008
  397MOL0     O53518   2.123  10.848   4.126 -0.1593 -0.3108 -0.1100
  397MOL0     C53519   2.008  10.812   4.048  0.1218  0.0433  0.0756
  397MOL0     C53520   1.893  10.904   4.072  1.4284 -0.3366  0.4132
  397MOL0     C53521   1.919  11.021   3.980 -0.4069 -1.4496  0.2150
  397MOL0     C53522   1.837  11.148   3.991 -0.7261 -0.2917  0.0982
  397MOL0     C53523   1.702  11.119   4.010  0.6672 -0.7824 -0.0577
  397MOL0     C53524   1.585  11.111   4.002  0.2569  0.1520  0.4053
  397MOL0     C53525   2.286  10.769   4.283  0.9762 -0.2530 -0.2813
  397MOL0     C53526   2.376  10.680   4.332 -0.0573  0.6201 -0.4311
  397MOL0     C53527   2.449  10.716   4.465  0.3665  0.7727 -0.1634
  397MOL0     H53528   2.717  10.271   4.269 -1.5118  1.7690  0.1837
  397MOL0     H53529   2.852  10.122   4.387  0.3443 -2.3237  3.0761
  397MOL0     H53530   2.846   9.976   4.619  0.7212 -0.3769 -1.9890
  397MOL0     H53531   3.006   9.984   4.542 -1.5693  1.5852 -1.2296
  397MOL0     H53532   2.981   9.822   4.742 -4.2373 -0.1825 -1.2210
  397MOL0     H53533   2.952   9.957   4.843 -1.6896 -2.7941 -0.0354
  397MOL0     H53534   3.162  10.039   4.844 -0.8183 -0.2321  0.4712
  397MOL0     H53535   3.199   9.996   4.682  2.4356  0.6567  2.5118
  397MOL0     H53536   3.285   9.857   4.921 -0.8147 -1.0846 -0.6576
  397MOL0     H53537   3.160   9.757   4.869 -0.5655  1.3954  1.5558
  397MOL0     H53538   3.258   9.746   4.649 -0.3035 -3.2003  1.3332
  397MOL0     H53539   3.387   9.855   4.710  0.8086 -0.5351 -0.5828
  397MOL0     H53540   3.444   9.682   4.874  0.1524 -0.7428 -0.2651
  397MOL0     H53541   3.310   9.580   4.824  0.0176 -1.9521 -3.3494
  397MOL0     H53542   3.396   9.566   4.596  0.0453  0.9839 -0.3696
  397MOL0     H53543   3.494   9.487   4.724 -0.7137 -1.6758 -2.8024
  397MOL0     H53544   3.545   9.760   4.587 -0.1763  0.5713  2.0340
  397MOL0     H53545   3.645   9.694   4.723  1.3879 -2.9190 -0.3145
  397MOL0     H53546   3.784   9.481   4.687  0.5023 -0.7498  0.1011
  397MOL0     H53547   3.793   9.225   4.377 -0.2004 -0.3035  0.6179
  397MOL0     H53548   3.941   9.291   4.440  0.1739  1.4072  0.4969
  397MOL0     H53549   3.884   9.107   4.577  0.7370  0.7707  0.0727
  397MOL0     H53550   3.860   9.258   4.675 -0.2921 -0.6177  1.1295
  397MOL0     H53551   3.616   9.245   4.625 -0.1874  0.7668  0.4901
  397MOL0     H53552   3.680   9.102   4.721  1.0987 -0.3776 -0.6607
  397MOL0     H53553   3.636   9.080   4.425  0.9956  4.1960  0.6750
  397MOL0     H53554   3.523   9.023   4.549  0.2718 -0.9437 -1.7318
  397MOL0     H53555   3.839   8.710   4.505  0.7454 -1.9513  1.5892
  397MOL0     H53556   3.744   8.477   4.482  1.8578  0.8744  1.5518
  397MOL0     H53557   3.650   8.056   4.581 -2.8739 -0.4849  1.8902
  397MOL0     H53558   3.595   7.849   4.494 -2.4696 -1.4499 -0.1014
  397MOL0     H53559   3.379   7.838   4.097 -1.2197  0.5874  0.9677
  397MOL0     H53560   3.456   7.685   4.120  1.3547  1.6021 -0.9445
  397MOL0     H53561   3.265   7.609   4.292  0.4381 -1.7258 -2.0162
  397MOL0     H53562   3.207   7.781   4.279  1.5197  1.5864 -1.4367
  397MOL0     H53563   3.133   7.765   4.074 -1.0590 -0.6157 -2.2704
  397MOL0     H53564   3.209   7.602   4.035  0.7824  0.6340  0.0870
  397MOL0     H53565   3.011   7.654   4.261  1.9927  3.4282 -1.6118
  397MOL0     H53566   3.060   7.498   4.189 -1.5902 -1.2802 -1.4354
  397MOL0     H53567   2.902   7.722   4.051 -1.3656 -0.1328 -1.6396
  397MOL0     H53568   2.828   7.567   4.118  0.6366  0.3713 -0.9120
  397MOL0     H53569   3.022   7.614   3.886 -1.3331  0.5780 -1.4109
  397MOL0     H53570   3.009   7.455   3.966  0.2424  0.6884  0.3085
  397MOL0     H53571   2.768   7.617   3.857  3.9982  3.3274 -1.0040
  397MOL0     H53572   2.773   7.440   3.889  0.4346 -0.9631  0.1782
  397MOL0     H53573   2.780   7.489   3.641  0.0888  3.0065 -2.3246
  397MOL0     H53574   2.900   7.617   3.664 -0.9584  0.1248 -0.2713
  397MOL0     H53575   3.346   8.033   4.186  1.6786 -2.5650 -0.4872
  397MOL0     H53576   3.428   8.259   4.282 -1.5365  0.9912  2.8285
  397MOL0     H53577   3.347   8.641   4.520  0.4019  4.1506  0.3506
  397MOL0     H53578   3.431   8.839   4.534  0.0626  0.7053 -0.9675
  397MOL0     H53579   2.882  10.388   4.724 -1.2417  0.2207 -0.1741
  397MOL0     H53580   2.713  10.541   4.600  0.2568 -0.0865  1.2970
  397MOL0     H53581   2.334  10.442   4.100  1.2842  1.3972 -1.2915
  397MOL0     H53582   2.178  10.599   4.019  1.4754  0.0375 -0.5120
  397MOL0     H53583   1.975  10.714   4.084 -2.6355  0.7159 -0.4148
  397MOL0     H53584   2.036  10.820   3.942 -2.4501  0.0157 -0.6680
  397MOL0     H53585   1.886  10.930   4.178  2.0573 -0.3521  0.4630
  397MOL0     H53586   1.802  10.850   4.045  2.2926 -1.9933  0.7003
  397MOL0     H53587   1.931  10.992   3.875  0.6533 -2.3891  0.5701
  397MOL0     H53588   2.022  11.048   4.003 -1.0636 -0.9484  2.9437
  397MOL0     H53589   1.864  11.194   4.086 -0.0389 -2.5463  1.0639
  397MOL0     H53590   1.844  11.208   3.900  2.3306  3.0478  2.3042
  397MOL0     H53591   1.479  11.096   3.994  0.0488  1.8209 -0.5021
  397MOL0     H53592   2.274  10.861   4.339  3.3318  0.1303 -0.2793
  397MOL0     H53593   2.554  10.743   4.447  0.6825 -0.4323 -0.1906
  397MOL0     H53594   2.391  10.793   4.517 -0.5626 -0.2992  0.4229
  397MOL0     H53595   2.438  10.635   4.536 -3.2460  1.8584  0.7601
  398MOL0     O53596   0.333  11.189   3.944 -0.0611  0.3039  0.3173
  398MOL0     C53597   0.263  11.241   3.860  0.4011 -0.2871 -0.5885
  398MOL0     O53598   0.189  11.349   3.869  0.2046  0.2147 -0.4796
  398MOL0     C53599   0.196  11.452   3.966 -0.6184  0.6614 -0.1599
  398MOL0     C53600   0.106  11.551   3.939  0.2425  0.1669  0.4924
  398MOL0     C53601   0.081  11.645   4.046  0.2702 -1.3069  1.0323
  398MOL0     C53602   0.172  11.657   4.156  0.2655 -0.4043 -0.4026
  398MOL0     O53603   0.170  11.751   4.265 -0.6881  0.0397  0.2695
  398MOL0     C53604   0.044  11.804   4.310  0.4107  0.0461  0.4739
  398MOL0     C53605   0.058  11.871   4.453 -0.5427  0.4613 -0.4811
  398MOL0     C53606   0.092  12.018   4.436 -0.1391  0.4334  0.7383
  398MOL0     C53607   0.115  12.076   4.576 -0.0725  0.8222  0.3672
  398MOL0     C53608   0.124  12.226   4.559  0.6042  0.4128  0.1412
  398MOL0     C53609   0.166  12.298   4.685  0.4801  0.1030 -0.3172
  398MOL0     C53610   0.093  12.268   4.815  0.2506 -0.9168 -0.4916
  398MOL0     C53611  -0.058  12.289   4.808 -0.5094  1.0259  0.6238
  398MOL0     N53612  -0.107  12.423   4.769 -0.1145 -0.1311 -0.0377
  398MOL0     C53613  -0.212  12.446   4.684  0.8595 -0.6034 -0.0521
  398MOL0     C53614  -0.228  12.578   4.683 -0.2701  0.6358  0.7560
  398MOL0     C53615  -0.335  12.654   4.612  0.3410  0.8180 -0.9653
  398MOL0     C53616  -0.271  12.759   4.526 -0.0528  1.4523 -0.0998
  398MOL0     C53617  -0.168  12.714   4.412  1.5103  0.5533 -0.2671
  398MOL0     C53618  -0.101  12.844   4.347 -0.1846  0.7737 -0.7622
  398MOL0     O53619  -0.193  12.917   4.270 -0.1683 -0.4476  0.2353
  398MOL0     C53620  -0.196  13.050   4.288 -0.0666  0.6446 -0.6454
  398MOL0     C53621  -0.244  13.105   4.409 -0.1346 -0.2544 -0.0890
  398MOL0     C53622  -0.252  13.245   4.428 -0.5973  0.3105 -0.1325
  398MOL0     C53623  -0.210  13.326   4.325 -0.2432 -0.0099 -0.2614
  398MOL0     C53624  -0.192  13.470   4.347 -0.6697 -0.7513 -0.3505
  398MOL0     O53625  -0.158  13.546   4.236  0.8134 -0.1100  0.0379
  398MOL0     C53626  -0.150  13.683   4.243 -0.3662  0.3165  0.3641
  398MOL0     C53627  -0.248  13.759   4.176  0.8671 -1.2098  0.1658
  398MOL0     C53628  -0.239  13.906   4.173 -0.5366 -0.2312  0.8651
  398MOL0     C53629  -0.137  13.975   4.235 -0.2910  0.8115 -0.1213
  398MOL0     O53630  -0.105  14.108   4.222  0.8189  0.3736  0.1302
  398MOL0     C53631  -0.212  14.194   4.177 -0.6643  0.2893 -0.3091
  398MOL0     C53632  -0.184  14.341   4.186  0.2905  0.0416 -0.0404
  398MOL0     C53633  -0.074  14.398   4.103  0.0482 -0.3835  0.4027
  398MOL0     C53634  -0.126  14.437   3.963 -0.2304  0.3244 -0.7037
  398MOL0     C53635  -0.005  14.463   3.882  1.2497  0.0242  0.4600
  398MOL0     C53636   0.057  14.344   3.812 -0.0881  0.2892 -0.5623
  398MOL0     C53637   0.163  14.382   3.707 -0.3942 -0.4579  0.1629
  398MOL0     C53638   0.209  14.262   3.639 -0.1971 -0.0564  0.4686
  398MOL0    Cl53639   0.342  14.177   3.735 -0.4151 -0.2601 -0.0211
  398MOL0     C53640  -0.046  13.890   4.310  0.7619  0.3490  0.2194
  398MOL0     C53641  -0.051  13.750   4.313 -0.0054  0.6325 -0.4591
  398MOL0     O53642  -0.226  13.520   4.453 -0.0060 -0.0827  0.1271
  398MOL0     C53643  -0.168  13.276   4.207 -1.0866  0.2017  0.3177
  398MOL0     C53644  -0.166  13.138   4.183 -0.0022 -0.9631  0.9098
  398MOL0     N53645  -0.140  12.624   4.777 -0.1298 -0.1736  1.0851
  398MOL0     N53646  -0.071  12.537   4.830  0.0788  0.6455 -0.5313
  398MOL0     C53647   0.272  11.562   4.160  0.3944 -0.6538 -0.3269
  398MOL0     C53648   0.291  11.461   4.071  0.8754  0.2213  0.1446
  398MOL0     C53649   0.256  11.153   3.738  0.2232  0.0991  1.5636
  398MOL0     C53650   0.381  11.113   3.678  0.8872  0.6232 -0.6313
  398MOL0     C53651   0.380  11.056   3.557 -0.9698 -0.1249  0.5804
  398MOL0     C53652   0.264  11.025   3.487  0.2827  0.8793  0.1736
  398MOL0     O53653   0.255  10.970   3.361 -0.3178  0.4437  0.3762
  398MOL0     C53654   0.376  10.967   3.282 -0.5899 -0.5409  0.0851
  398MOL0     C53655   0.336  10.912   3.148 -0.1056 -0.5982 -1.0981
  398MOL0     C53656   0.444  10.943   3.043 -0.8562  0.1388  0.1714
  398MOL0     C53657   0.406  10.874   2.910  0.1831 -0.6537  0.0315
  398MOL0     C53658   0.379  10.732   2.929  0.4821  0.3943  0.0612
  398MOL0     C53659   0.374  10.610   2.951 -0.2201  0.4242  0.1187
  398MOL0     C53660   0.142  11.056   3.549  0.1693 -0.5585  0.6863
  398MOL0     C53661   0.137  11.127   3.668  0.3614  0.3370  0.3392
  398MOL0     C53662  -0.005  11.173   3.708  0.0164  1.1616  0.8723
  398MOL0     H53663   0.035  11.533   3.858 -2.1096 -1.0694  2.6855
  398MOL0     H53664   0.005  11.722   4.037 -0.9868 -2.3837  2.1452
  398MOL0     H53665  -0.003  11.863   4.232 -1.1450 -0.5445  0.9294
  398MOL0     H53666  -0.029  11.723   4.313 -2.0148  2.0618 -0.7653
  398MOL0     H53667   0.136  11.825   4.515 -1.9062 -2.3204 -0.6645
  398MOL0     H53668  -0.034  11.854   4.511 -0.7415 -3.0940 -1.5854
  398MOL0     H53669   0.008  12.067   4.386  0.9000  3.1985  1.5234
  398MOL0     H53670   0.176  12.037   4.369 -1.1179  2.8735  0.1227
  398MOL0     H53671   0.023  12.056   4.631 -0.0495 -0.1103  0.0800
  398MOL0     H53672   0.196  12.026   4.629 -0.3698  0.4242  0.4544
  398MOL0     H53673   0.193  12.245   4.476  0.5865 -1.9019 -0.4775
  398MOL0     H53674   0.029  12.271   4.528  1.3872  2.9190  1.1145
  398MOL0     H53675   0.273  12.280   4.697  0.6398 -0.9902 -2.8557
  398MOL0     H53676   0.159  12.405   4.662 -3.9247 -0.1826 -1.2963
  398MOL0     H53677   0.132  12.337   4.890  0.4017 -3.1718  1.6295
  398MOL0     H53678   0.123  12.167   4.845 -0.7944 -0.9812  0.4496
  398MOL0     H53679  -0.087  12.206   4.742  0.9704 -0.5012  1.7772
  398MOL0     H53680  -0.101  12.270   4.907 -0.4324  3.1988  1.1042
  398MOL0     H53681  -0.269  12.373   4.628 -2.4219  0.7142  1.3573
  398MOL0     H53682  -0.395  12.586   4.550 -0.9691 -0.2506  1.3396
  398MOL0     H53683  -0.400  12.701   4.686  0.0075  0.5316 -1.0741
  398MOL0     H53684  -0.345  12.825   4.481  1.5142  1.6982 -2.5153
  398MOL0     H53685  -0.204  12.812   4.594  0.9735 -1.6130  1.4419
  398MOL0     H53686  -0.205  12.653   4.329  0.3698 -0.0553  0.6614
  398MOL0     H53687  -0.093  12.662   4.472  1.4419  1.2368  0.4334
  398MOL0     H53688  -0.019  12.811   4.282  0.8209  3.2613 -0.8752
  398MOL0     H53689  -0.058  12.906   4.426  1.0147 -1.1411  0.1645
  398MOL0     H53690  -0.291  13.039   4.481 -2.2330  2.8962  1.6774
  398MOL0     H53691  -0.294  13.293   4.516  0.4888  1.4129 -0.1896
  398MOL0     H53692  -0.341  13.705   4.161 -0.0456  0.3802 -0.1263
  398MOL0     H53693  -0.310  13.961   4.113 -1.4198 -1.8459  0.3477
  398MOL0     H53694  -0.230  14.174   4.071 -3.2123  2.0957 -0.2916
  398MOL0     H53695  -0.301  14.171   4.236 -0.0743  0.2474  0.5894
  398MOL0     H53696  -0.278  14.384   4.151 -0.8771 -3.5030 -1.7983
  398MOL0     H53697  -0.172  14.355   4.294 -2.5865 -1.0333  0.5135
  398MOL0     H53698  -0.039  14.497   4.132 -1.3700  0.9899 -2.2202
  398MOL0     H53699   0.012  14.331   4.114 -1.0728 -1.7643  1.1258
  398MOL0     H53700  -0.183  14.529   3.978 -0.6770 -0.1993  1.1243
  398MOL0     H53701  -0.193  14.358   3.928 -3.3320  1.9761  1.0397
  398MOL0     H53702   0.072  14.515   3.939  1.9996 -0.9960  0.4102
  398MOL0     H53703  -0.029  14.528   3.797  3.1549 -1.7239 -1.5376
  398MOL0     H53704   0.105  14.272   3.880  0.7162 -0.3226 -1.7229
  398MOL0     H53705  -0.024  14.297   3.756 -1.9493  1.8219  0.7443
  398MOL0     H53706   0.245  14.433   3.759 -0.8484 -1.3812  1.8717
  398MOL0     H53707   0.129  14.460   3.638  0.9645  2.4069  2.5004
  398MOL0     H53708   0.125  14.193   3.627 -1.7303  1.5700  1.2554
  398MOL0     H53709   0.237  14.294   3.538 -1.3099 -2.6709 -0.7535
  398MOL0     H53710   0.042  13.943   4.346 -1.0987  4.7622 -1.1119
  398MOL0     H53711   0.021  13.681   4.355  3.6907  1.6746 -4.4547
  398MOL0     H53712  -0.130  13.336   4.125  0.5171  1.1761  1.7033
  398MOL0     H53713  -0.129  13.100   4.088  0.5237 -0.3457  0.8620
  398MOL0     H53714   0.345  11.578   4.239 -0.4236 -0.9586  0.5143
  398MOL0     H53715   0.374  11.393   4.085  0.1158 -0.7133  0.1970
  398MOL0     H53716   0.472  11.136   3.733  0.9588 -3.5847  1.4433
  398MOL0     H53717   0.479  11.042   3.513 -1.0002 -1.1015  0.7892
  398MOL0     H53718   0.452  10.909   3.335 -0.7916 -0.2640  0.6852
  398MOL0     H53719   0.420  11.067   3.271  0.0887 -0.5350  2.4731
  398MOL0     H53720   0.234  10.948   3.129 -0.1606 -0.9819 -1.5737
  398MOL0     H53721   0.327  10.803   3.159  1.4458 -0.9742 -2.8928
  398MOL0     H53722   0.530  10.887   3.082 -2.6346 -4.3867 -1.7353
  398MOL0     H53723   0.465  11.050   3.037  0.6784 -0.1643 -0.1808
  398MOL0     H53724   0.320  10.928   2.868  2.0301  0.6227 -2.3360
  398MOL0     H53725   0.484  10.894   2.837 -3.4670  3.3482 -3.3778
  398MOL0     H53726   0.383  10.508   2.981  4.7784  0.0612 -1.7573
  398MOL0     H53727   0.046  11.024   3.508  0.4404 -4.5873  2.7254
  398MOL0     H53728  -0.014  11.201   3.814  1.5417 -4.2984  2.7764
  398MOL0     H53729  -0.043  11.246   3.636  1.8447  0.0989 -1.2832
  398MOL0     H53730  -0.070  11.087   3.686  3.7621 -1.5639 -0.6107
  399MOL0     O53731   4.230   2.211  11.242  0.0320  0.9361  0.5561
  399MOL0     C53732   4.187   2.306  11.301 -0.4058  0.2725 -0.0072
  399MOL0     O53733   4.102   2.397  11.247  0.3053 -0.3174  0.3852
  399MOL0     C53734   4.113   2.403  11.104  0.1647 -0.8992 -0.3153
  399MOL0     C53735   4.044   2.312  11.019 -1.0404 -0.4037  0.5331
  399MOL0     C53736   4.054   2.326  10.878  1.5016 -0.0021 -0.4471
  399MOL0     C53737   4.118   2.436  10.819  0.0417 -0.2382 -0.4836
  399MOL0     O53738   4.123   2.440  10.679  0.5013  0.5769 -0.6753
  399MOL0     C53739   4.235   2.499  10.615 -0.2617 -0.2879  0.5907
  399MOL0     C53740   4.182   2.537  10.472 -0.2228 -0.0963 -0.6459
  399MOL0     C53741   4.077   2.652  10.481  0.6067  0.5300  0.7533
  399MOL0     C53742   4.057   2.737  10.356 -0.2585  0.2944 -0.3432
  399MOL0     C53743   3.946   2.670  10.275 -0.5489  0.3505  0.3904
  399MOL0     C53744   3.928   2.738  10.143 -0.8865 -0.0018 -0.2075
  399MOL0     C53745   3.807   2.686  10.066 -0.1686 -0.2182 -0.3351
  399MOL0     C53746   3.805   2.762   9.934 -0.0910 -1.1157  0.4155
  399MOL0     N53747   3.769   2.907   9.959  0.3710 -0.0515  0.1762
  399MOL0     C53748   3.650   2.943  10.021 -1.1002  0.1614  0.1841
  399MOL0     C53749   3.652   3.078  10.019  0.2301  0.5606 -0.1259
  399MOL0     C53750   3.535   3.171  10.044  1.7716  0.2183 -0.0112
  399MOL0     C53751   3.555   3.218  10.188 -0.3790  0.2446 -0.0658
  399MOL0     C53752   3.482   3.347  10.208  1.2821  0.2248 -0.3496
  399MOL0     C53753   3.517   3.401  10.342  0.2213 -0.4085  0.6495
  399MOL0     O53754   3.408   3.462  10.409  0.5804  0.1465 -0.0756
  399MOL0     C53755   3.306   3.372  10.447 -0.3182 -0.7250 -0.5727
  399MOL0     C53756   3.202   3.441  10.511 -0.9604 -0.0301  0.1724
  399MOL0     C53757   3.100   3.373  10.577 -0.0388 -0.1444  0.1072
  399MOL0     C53758   3.106   3.231  10.599 -0.5188 -0.1161  0.3836
  399MOL0     C53759   3.015   3.166  10.698  0.7957  0.4922  0.7205
  399MOL0     O53760   2.940   3.255  10.770 -0.3549  0.0473 -0.1473
  399MOL0     C53761   2.860   3.210  10.867 -0.2078 -0.2998  0.4439
  399MOL0     C53762   2.727   3.181  10.831  0.6880  0.5653 -0.2613
  399MOL0     C53763   2.635   3.138  10.924  0.3429  0.1693 -0.5540
  399MOL0     C53764   2.684   3.128  11.059  0.2248  0.0245 -0.0708
  399MOL0     O53765   2.612   3.083  11.170 -0.1418  0.3263  0.2549
  399MOL0     C53766   2.473   3.134  11.175 -0.2835 -0.3096  0.1637
  399MOL0     C53767   2.464   3.266  11.255 -0.6235 -0.7040  0.0810
  399MOL0     C53768   2.324   3.327  11.250  0.0802 -0.3245  0.2820
  399MOL0     C53769   2.319   3.452  11.345 -0.6222 -0.2959  0.0369
  399MOL0     C53770   2.178   3.518  11.343  0.2913 -0.2326 -0.2029
  399MOL0     C53771   2.166   3.628  11.453 -1.0803  0.3677 -0.6283
  399MOL0     C53772   2.042   3.720  11.433  0.6850 -0.7314 -0.6897
  399MOL0     C53773   2.068   3.852  11.348  0.5866  1.1483 -0.0439
  399MOL0    Cl53774   2.230   3.933  11.406 -0.5431 -0.6901  0.5175
  399MOL0     C53775   2.814   3.154  11.099  0.5759  0.6428  0.0044
  399MOL0     C53776   2.902   3.201  10.995 -0.4487 -0.4439 -0.0566
  399MOL0     O53777   3.004   3.038  10.704  0.3040  0.2278  0.5031
  399MOL0     C53778   3.197   3.156  10.525 -0.7633 -0.5078  0.9747
  399MOL0     C53779   3.298   3.228  10.455  0.6111  0.6432 -0.8334
  399MOL0     N53780   3.770   3.120   9.956 -0.3563 -0.0658 -0.0061
  399MOL0     N53781   3.842   3.015   9.922  0.5383 -1.1471 -0.1405
  399MOL0     C53782   4.190   2.522  10.909  0.3339  0.0959 -0.3108
  399MOL0     C53783   4.190   2.501  11.048  0.2061  0.2282 -0.0608
  399MOL0     C53784   4.220   2.321  11.443 -0.4702  0.3418  0.0054
  399MOL0     C53785   4.260   2.449  11.504 -0.8789  1.4813  1.0486
  399MOL0     C53786   4.325   2.457  11.629  0.0815  0.7606 -0.6690
  399MOL0     C53787   4.305   2.351  11.722 -0.9968 -0.2691  1.1808
  399MOL0     O53788   4.357   2.342  11.839 -0.0832 -0.0330  0.4145
  399MOL0     C53789   4.361   2.456  11.922  0.2126  1.2252 -1.6872
  399MOL0     C53790   4.224   2.499  11.970  0.7786  0.5116  0.8390
  399MOL0     C53791   4.132   2.392  12.043 -0.3327  0.6352 -0.2773
  399MOL0     C53792   3.998   2.454  12.078 -0.0066 -0.6341 -0.0892
  399MOL0     C53793   3.929   2.369  12.174 -0.4578  0.0041 -0.0242
  399MOL0     C53794   3.864   2.303  12.255 -0.6263 -0.0458  0.3982
  399MOL0     C53795   4.259   2.230  11.674  0.2497  0.0207 -0.6470
  399MOL0     C53796   4.230   2.210  11.538 -0.1704  0.0211 -0.2236
  399MOL0     C53797   4.200   2.063  11.493  0.4615 -0.7382 -0.1483
  399MOL0     H53798   3.997   2.227  11.068 -3.1235  1.4811  2.0322
  399MOL0     H53799   4.010   2.246  10.820 -0.6526 -0.4787  1.7057
  399MOL0     H53800   4.271   2.592  10.661 -0.9040  0.0807  0.3640
  399MOL0     H53801   4.318   2.428  10.614 -0.3641 -0.4178  1.1383
  399MOL0     H53802   4.136   2.448  10.427  1.3782 -0.7714 -1.0109
  399MOL0     H53803   4.266   2.572  10.411  2.1040 -1.0638  1.8084
  399MOL0     H53804   4.098   2.722  10.563  0.5999 -0.2305  1.4118
  399MOL0     H53805   3.977   2.617  10.508 -0.8783  1.2833 -3.1635
  399MOL0     H53806   4.024   2.835  10.390 -1.4694 -0.4246  0.5936
  399MOL0     H53807   4.154   2.738  10.304 -0.3904 -0.6958 -0.6369
  399MOL0     H53808   3.964   2.563  10.260  2.1477  0.6413  1.0303
  399MOL0     H53809   3.852   2.677  10.331 -1.9600  0.1826 -1.8564
  399MOL0     H53810   3.911   2.845  10.157  1.4673  0.6255 -1.6248
  399MOL0     H53811   4.024   2.721  10.092 -0.8628 -0.0518 -0.1482
  399MOL0     H53812   3.716   2.679  10.125 -0.2990 -2.3061 -0.6938
  399MOL0     H53813   3.824   2.581  10.037  2.1044  0.2089 -0.7729
  399MOL0     H53814   3.907   2.755   9.894  0.2416 -2.2645  1.3940
  399MOL0     H53815   3.730   2.704   9.879 -0.7885  1.1825 -1.2237
  399MOL0     H53816   3.576   2.873  10.057 -0.6716 -2.5022 -3.5763
  399MOL0     H53817   3.534   3.255   9.973  0.7488  0.8749  0.7367
  399MOL0     H53818   3.435   3.128  10.057  2.3218 -0.5088  2.3505
  399MOL0     H53819   3.518   3.142  10.256  1.3277 -0.7529 -0.2043
  399MOL0     H53820   3.659   3.227  10.218 -1.0767 -2.1532  3.7913
  399MOL0     H53821   3.376   3.325  10.190  0.6154  2.8855 -0.0466
  399MOL0     H53822   3.517   3.429  10.145  1.8195  0.0250 -0.3197
  399MOL0     H53823   3.590   3.482  10.329  2.9954 -2.7584  0.7627
  399MOL0     H53824   3.563   3.329  10.411 -0.7470  0.4195  2.2389
  399MOL0     H53825   3.204   3.548  10.530  1.3975 -0.1814  1.1503
  399MOL0     H53826   3.019   3.427  10.626 -0.1507 -0.8559  0.7193
  399MOL0     H53827   2.697   3.179  10.726  0.5738  1.3864 -0.2504
  399MOL0     H53828   2.529   3.126  10.907  0.0773  0.6222  0.6717
  399MOL0     H53829   2.426   3.153  11.077  1.0401  3.2381  0.0723
  399MOL0     H53830   2.413   3.062  11.231 -0.0128 -3.2327 -2.9801
  399MOL0     H53831   2.487   3.238  11.358 -1.3515 -0.5682  0.2809
  399MOL0     H53832   2.541   3.329  11.209 -0.1321  0.7281  2.6436
  399MOL0     H53833   2.298   3.349  11.146  2.0722  0.9842  0.0030
  399MOL0     H53834   2.270   3.243  11.293  1.6022 -0.9849  0.9735
  399MOL0     H53835   2.381   3.536  11.312 -1.2552 -0.5284 -1.8661
  399MOL0     H53836   2.356   3.431  11.446 -0.1778 -0.5416 -0.1699
  399MOL0     H53837   2.108   3.443  11.378  1.8725 -1.8052 -0.2417
  399MOL0     H53838   2.157   3.545  11.239  3.3133 -1.8780 -1.3795
  399MOL0     H53839   2.168   3.579  11.550 -0.7821  0.7310 -0.4499
  399MOL0     H53840   2.261   3.682  11.459  0.1027 -1.6636 -0.1354
  399MOL0     H53841   2.015   3.752  11.534 -3.7541 -0.7658 -1.6567
  399MOL0     H53842   1.959   3.666  11.386  0.4352  0.5950 -1.8521
  399MOL0     H53843   2.073   3.830  11.241 -1.7213  2.4046 -0.4712
  399MOL0     H53844   1.983   3.919  11.364 -0.2389  0.0313  0.4451
  399MOL0     H53845   2.851   3.153  11.201 -1.6400  2.5577  0.9070
  399MOL0     H53846   3.003   3.230  11.024 -0.0915 -1.9834  0.3276
  399MOL0     H53847   3.190   3.048  10.515  0.3912 -0.4370 -1.7629
  399MOL0     H53848   3.373   3.170  10.401 -0.7407 -1.4597 -0.5404
  399MOL0     H53849   4.257   2.596  10.866 -0.7380  0.8973 -0.6315
  399MOL0     H53850   4.240   2.579  11.105 -1.5606 -0.5810  2.7798
  399MOL0     H53851   4.265   2.533  11.436  1.0499 -0.8924 -1.9897
  399MOL0     H53852   4.377   2.546  11.662  2.1678 -1.3174  2.1094
  399MOL0     H53853   4.389   2.545  11.865 -0.4653  0.6384 -2.9721
  399MOL0     H53854   4.425   2.439  12.009 -2.8165 -2.3734  0.1631
  399MOL0     H53855   4.161   2.513  11.882  0.5343 -1.8928  0.5575
  399MOL0     H53856   4.224   2.596  12.020 -0.5926  2.6588 -2.9024
  399MOL0     H53857   4.179   2.346  12.130 -1.3436 -0.0820 -0.0942
  399MOL0     H53858   4.113   2.307  11.978  0.4794  1.4857 -1.6829
  399MOL0     H53859   4.002   2.559  12.105  1.5609 -0.3064 -1.3780
  399MOL0     H53860   3.941   2.440  11.985 -0.0389  0.7426 -0.2884
  399MOL0     H53861   3.811   2.244  12.326 -0.5782 -0.3901  0.1474
  399MOL0     H53862   4.259   2.150  11.747  1.5890  1.0573  0.5528
  399MOL0     H53863   4.269   2.041  11.411  1.0200  1.1374 -0.2371
  399MOL0     H53864   4.228   1.989  11.568  1.1365 -3.1852 -2.6702
  399MOL0     H53865   4.095   2.060  11.462  0.7767  1.7628 -1.8508
  400MOL0     O53866  10.975  10.196   8.147  0.1179 -0.0821  0.1558
  400MOL0     C53867  10.952  10.312   8.179 -0.4537 -0.3610  0.3368
  400MOL0     O53868  10.877  10.403   8.108  0.2103  0.5931  0.3354
  400MOL0     C53869  10.851  10.368   7.977 -0.0086 -0.0723 -0.0370
  400MOL0     C53870  10.943  10.333   7.877  0.5071 -0.3353  0.4419
  400MOL0     C53871  10.886  10.307   7.754  0.9568  0.4153 -0.6265
  400MOL0     C53872  10.744  10.305   7.723  0.3287  0.4068 -0.1496
  400MOL0     O53873  10.709  10.271   7.598  0.5619  0.6682  0.2117
  400MOL0     C53874  10.569  10.225   7.585  0.2906 -0.8216 -0.4621
  400MOL0     C53875  10.542  10.174   7.444 -0.6633  0.0169 -0.3591
  400MOL0     C53876  10.642  10.065   7.399  0.7807 -0.3600  0.3802
  400MOL0     C53877  10.576   9.995   7.277 -0.7752  0.0365  0.1819
  400MOL0     C53878  10.556  10.105   7.168 -0.4268  0.9304 -0.1009
  400MOL0     C53879  10.568  10.053   7.025  0.2112 -0.3866  0.4344
  400MOL0     C53880  10.537  10.163   6.914  0.3103 -0.2800 -0.7717
  400MOL0     C53881  10.434  10.280   6.935  1.2104  0.2532  0.3395
  400MOL0     N53882  10.421  10.361   6.815  0.3627 -0.5481 -0.4320
  400MOL0     C53883  10.403  10.311   6.693 -0.7367 -0.8277  0.3247
  400MOL0     C53884  10.397  10.419   6.612  0.6299  0.0626  0.6040
  400MOL0     C53885  10.389  10.428   6.465  0.0756  0.0142 -0.3791
  400MOL0     C53886  10.531  10.397   6.404  0.2522  0.2227  0.6397
  400MOL0     C53887  10.536  10.250   6.359 -0.2832  0.3086  0.0157
  400MOL0     C53888  10.689  10.218   6.355  0.6243  0.6405 -0.0843
  400MOL0     O53889  10.774  10.314   6.305  0.0828 -0.0796 -0.0433
  400MOL0     C53890  10.779  10.351   6.174  1.2198 -0.4468 -0.2223
  400MOL0     C53891  10.717  10.279   6.070 -0.1574 -0.2303  0.2302
  400MOL0     C53892  10.701  10.333   5.940 -0.2988 -0.2673 -0.2442
  400MOL0     C53893  10.755  10.459   5.912  0.7591 -0.5792  1.0931
  400MOL0     C53894  10.751  10.510   5.777  0.2244 -0.1992  0.7223
  400MOL0     O53895  10.809  10.630   5.762  0.8347 -0.7728  0.2390
  400MOL0     C53896  10.805  10.712   5.647  0.8883 -0.9417  0.7202
  400MOL0     C53897  10.721  10.688   5.537 -0.2473 -0.8014  0.6299
  400MOL0     C53898  10.713  10.777   5.420 -0.6608 -0.4351 -0.1970
  400MOL0     C53899  10.803  10.886   5.416 -0.6347 -0.0123  0.4521
  400MOL0     O53900  10.801  10.976   5.312 -0.3418  0.4456  0.1214
  400MOL0     C53901  10.930  11.018   5.250 -0.6248  0.1646  0.4817
  400MOL0     C53902  10.914  11.051   5.093  0.2126  0.0779  0.1991
  400MOL0     C53903  10.905  10.916   5.026  0.2390  0.0996 -0.4914
  400MOL0     C53904  10.853  10.931   4.881  0.4104  1.6487  0.5125
  400MOL0     C53905  10.784  10.808   4.825  0.7137 -0.1595 -0.2930
  400MOL0     C53906  10.864  10.684   4.814  0.0703  0.3712 -0.2007
  400MOL0     C53907  10.987  10.691   4.724 -0.1792  0.4808 -0.2012
  400MOL0     C53908  11.039  10.546   4.687 -0.6297  0.2386  0.2481
  400MOL0    Cl53909  11.132  10.465   4.825  0.1532 -0.4285 -0.5864
  400MOL0     C53910  10.901  10.894   5.508  0.1158  0.0448  0.5446
  400MOL0     C53911  10.898  10.820   5.631  0.2527  1.1320 -0.2743
  400MOL0     O53912  10.707  10.447   5.684  0.1526  0.3200 -0.2130
  400MOL0     C53913  10.828  10.527   6.016  0.9870  0.5562  0.5374
  400MOL0     C53914  10.830  10.484   6.145  0.3716  0.8517 -0.0571
  400MOL0     N53915  10.428  10.522   6.690 -0.1974  0.2105 -0.4784
  400MOL0     N53916  10.440  10.491   6.816 -0.0435 -0.2914  0.2384
  400MOL0     C53917  10.656  10.341   7.828  0.3201  0.1514  0.3553
  400MOL0     C53918  10.714  10.375   7.957  0.3668  0.0136  0.2203
  400MOL0     C53919  11.015  10.359   8.295  0.1100 -1.1694  0.2720
  400MOL0     C53920  11.043  10.493   8.291 -0.3060 -0.4688  0.6171
  400MOL0     C53921  11.103  10.560   8.394  0.4383  0.0964 -0.5382
  400MOL0     C53922  11.115  10.494   8.519  0.7546  0.8957  0.0279
  400MOL0     O53923  11.142  10.556   8.634 -0.2712 -0.8862  0.6710
  400MOL0     C53924  11.179  10.694   8.637 -0.7745  0.0823 -0.5602
  400MOL0     C53925  11.312  10.722   8.569  0.0096  0.7817 -0.3648
  400MOL0     C53926  11.334  10.871   8.571  0.4843  0.3618 -0.7462
  400MOL0     C53927  11.481  10.911   8.526 -0.1558 -0.2573  0.2014
  400MOL0     C53928  11.499  10.873   8.384  1.0080 -0.5982 -0.6612
  400MOL0     C53929  11.528  10.857   8.273  0.3694 -0.5584  0.3819
  400MOL0     C53930  11.090  10.356   8.524 -0.0372 -0.0851 -0.4673
  400MOL0     C53931  11.029  10.294   8.420  0.4885 -0.3345  0.4341
  400MOL0     C53932  11.001  10.146   8.441 -0.2858  0.1312 -0.3596
  400MOL0     H53933  11.047  10.314   7.903  0.6243  2.4616  2.5134
  400MOL0     H53934  10.947  10.280   7.669  0.4754  0.5284 -1.0136
  400MOL0     H53935  10.552  10.150   7.663  1.4015 -0.7910 -0.1693
  400MOL0     H53936  10.501  10.307   7.610  0.8289 -0.0151 -1.5640
  400MOL0     H53937  10.542  10.264   7.382  6.6417  1.4275  0.7722
  400MOL0     H53938  10.444  10.126   7.443 -1.1801  1.0518 -1.4414
  400MOL0     H53939  10.670   9.991   7.475  1.1851 -0.8896 -0.2685
  400MOL0     H53940  10.737  10.110   7.371  0.3457 -0.1800 -0.9009
  400MOL0     H53941  10.659   9.933   7.241  0.3974  0.8418  1.3849
  400MOL0     H53942  10.482   9.941   7.291 -0.7745 -0.3155 -1.1012
  400MOL0     H53943  10.462  10.159   7.183 -2.0249 -1.8876  0.8977
  400MOL0     H53944  10.638  10.176   7.175 -0.6431  1.1737 -0.0198
  400MOL0     H53945  10.677  10.049   7.030  0.4445  3.5901  1.3269
  400MOL0     H53946  10.529   9.952   7.005 -0.4698 -0.4104  1.7664
  400MOL0     H53947  10.499  10.105   6.830  2.1716 -2.8059 -0.0016
  400MOL0     H53948  10.633  10.210   6.891  0.7630 -0.6128  0.3858
  400MOL0     H53949  10.340  10.234   6.967  0.2701  3.4631  2.7023
  400MOL0     H53950  10.458  10.343   7.021  0.5284 -0.5114  1.1152
  400MOL0     H53951  10.393  10.209   6.657 -3.0779 -1.2574  1.9492
  400MOL0     H53952  10.316  10.355   6.429 -1.8302  1.1567  0.9775
  400MOL0     H53953  10.354  10.521   6.419 -1.3329 -1.1721 -1.8480
  400MOL0     H53954  10.528  10.464   6.317 -2.7798  3.0828  2.7106
  400MOL0     H53955  10.609  10.419   6.478  2.4250 -3.6875 -0.1997
  400MOL0     H53956  10.480  10.228   6.267  0.8529  2.1887 -1.2094
  400MOL0     H53957  10.489  10.195   6.441 -2.3355 -2.4148 -2.7470
  400MOL0     H53958  10.709  10.131   6.293 -0.8015  1.4932 -1.8408
  400MOL0     H53959  10.714  10.209   6.461 -2.5551  0.7767  0.7941
  400MOL0     H53960  10.672  10.182   6.089  0.0928 -0.4813 -0.4111
  400MOL0     H53961  10.667  10.271   5.858  3.5901 -0.6286 -1.7603
  400MOL0     H53962  10.650  10.606   5.532 -1.9676  0.7175 -1.0746
  400MOL0     H53963  10.642  10.764   5.339 -1.3542  0.4483  0.2503
  400MOL0     H53964  10.955  11.110   5.303  1.9302  0.6552 -1.3698
  400MOL0     H53965  11.006  10.940   5.264  0.9632  1.3583 -1.0280
  400MOL0     H53966  10.820  11.108   5.089  1.8794  2.9425 -1.4737
  400MOL0     H53967  11.005  11.098   5.056  0.8122 -2.4489 -1.8330
  400MOL0     H53968  10.996  10.857   5.039  0.7343  0.9750  0.1305
  400MOL0     H53969  10.829  10.858   5.079 -0.8794  1.0277 -1.0376
  400MOL0     H53970  10.936  10.958   4.817  0.1568  1.5924  0.1581
  400MOL0     H53971  10.775  11.007   4.869 -3.9263 -2.3634  0.2657
  400MOL0     H53972  10.741  10.828   4.726  1.1376 -0.5430 -0.5593
  400MOL0     H53973  10.691  10.793   4.881 -0.6709  0.8588 -2.1948
  400MOL0     H53974  10.892  10.643   4.912 -0.7349 -1.4506 -0.6793
  400MOL0     H53975  10.790  10.612   4.776 -4.6123  4.3930  0.2429
  400MOL0     H53976  11.067  10.742   4.777  2.1918 -2.5971 -0.5511
  400MOL0     H53977  10.960  10.735   4.627  2.4985 -0.2115 -1.3541
  400MOL0     H53978  10.952  10.497   4.644  0.7929  0.5720 -3.3855
  400MOL0     H53979  11.113  10.556   4.607 -1.5165 -1.5455 -0.8499
  400MOL0     H53980  10.972  10.976   5.503  0.8526 -0.6830 -2.2570
  400MOL0     H53981  10.975  10.836   5.706  0.2240  2.8581 -0.5915
  400MOL0     H53982  10.862  10.630   6.011  2.2960  0.0691 -2.0907
  400MOL0     H53983  10.866  10.560   6.214  0.6958  1.2099 -0.6123
  400MOL0     H53984  10.549  10.350   7.816  0.3884  0.1801 -0.2862
  400MOL0     H53985  10.657  10.398   8.047 -0.7678 -0.7916 -0.2745
  400MOL0     H53986  11.032  10.543   8.195 -1.8210  0.8541  1.4544
  400MOL0     H53987  11.107  10.668   8.392  1.1462  0.1241  0.8394
  400MOL0     H53988  11.188  10.724   8.742 -0.6458 -0.7577 -0.3225
  400MOL0     H53989  11.101  10.757   8.595  0.2973  0.9426 -1.2988
  400MOL0     H53990  11.315  10.694   8.464 -0.1518  0.6055 -0.3243
  400MOL0     H53991  11.391  10.668   8.624 -2.0206 -0.8696  1.0843
  400MOL0     H53992  11.319  10.915   8.670  1.5572 -0.3978 -0.2268
  400MOL0     H53993  11.269  10.925   8.502 -1.9369  2.8341  3.0191
  400MOL0     H53994  11.500  11.018   8.525  2.2271 -0.5745  1.9460
  400MOL0     H53995  11.563  10.864   8.582 -0.0046  0.2532  0.4176
  400MOL0     H53996  11.533  10.856   8.166 -5.0797 -1.8067 -0.1590
  400MOL0     H53997  11.106  10.297   8.613 -1.2526 -1.7755 -1.3231
  400MOL0     H53998  10.904  10.119   8.400  0.0309 -1.4390 -0.1666
  400MOL0     H53999  11.067  10.081   8.383 -1.1359 -1.5191  0.4534
  400MOL0     H54000  11.005  10.103   8.542 -1.3866 -2.6955 -1.4207
  401MOL0     O54001   5.844  10.583   9.018  0.1890  0.0740  0.1288
  401MOL0     C54002   5.879  10.684   8.950  0.6593 -0.3016 -1.1538
  401MOL0     O54003   5.891  10.805   9.006  0.3641 -0.0418  0.3501
  401MOL0     C54004   5.827  10.854   9.117  0.7226  0.2484 -0.5507
  401MOL0     C54005   5.820  10.779   9.235 -0.4393  0.0906  0.1037
  401MOL0     C54006   5.790  10.845   9.356 -0.0651  0.7465 -0.2120
  401MOL0     C54007   5.754  10.979   9.363  0.4593  0.5090  0.3146
  401MOL0     O54008   5.727  11.048   9.485 -0.5285 -0.8197 -0.7262
  401MOL0     C54009   5.783  10.990   9.603 -0.0248 -0.2549  0.2836
  401MOL0     C54010   5.939  10.993   9.614  0.1108  0.2224  0.1992
  401MOL0     C54011   5.984  10.916   9.737  0.4013  0.0127 -0.6525
  401MOL0     C54012   6.133  10.889   9.751  0.0646  0.1456 -0.2263
  401MOL0     C54013   6.163  10.815   9.872  0.3880  0.7416 -0.4861
  401MOL0     C54014   6.143  10.880  10.008  0.3325  0.6411  0.1872
  401MOL0     C54015   6.233  11.001  10.035 -0.3513 -0.3458  0.0979
  401MOL0     C54016   6.374  10.970  10.086  0.4825  0.4282 -0.6342
  401MOL0     N54017   6.387  10.944  10.228 -0.2207  0.2298 -0.5446
  401MOL0     C54018   6.394  11.037  10.336  0.1911  0.4335  1.4221
  401MOL0     C54019   6.376  10.959  10.439 -0.5342 -0.9597  0.1254
  401MOL0     C54020   6.387  11.004  10.591 -0.3628  0.4333  0.0985
  401MOL0     C54021   6.513  10.956  10.663 -0.4925 -0.7781  0.6237
  401MOL0     C54022   6.465  10.983  10.806  0.0348 -1.4474  0.1065
  401MOL0     C54023   6.572  10.946  10.914 -0.0714  0.7830 -0.3936
  401MOL0     O54024   6.586  10.803  10.922  0.1913 -0.4149 -0.0706
  401MOL0     C54025   6.643  10.742  11.030  0.6669 -0.6658 -0.2313
  401MOL0     C54026   6.763  10.790  11.087 -0.2046  0.1296  0.2267
  401MOL0     C54027   6.826  10.709  11.190  1.0406 -0.2518  0.1127
  401MOL0     C54028   6.773  10.586  11.233 -0.1596  1.0401 -0.7050
  401MOL0     C54029   6.850  10.524  11.341 -0.0429  0.0634  0.2854
  401MOL0     O54030   6.959  10.601  11.391  0.0344 -0.6210  0.2781
  401MOL0     C54031   7.010  10.583  11.516 -0.4159  0.2025  0.1052
  401MOL0     C54032   7.132  10.649  11.537  0.2980 -0.7408  0.5630
  401MOL0     C54033   7.204  10.652  11.655 -0.3231  0.6378 -0.6386
  401MOL0     C54034   7.152  10.586  11.769  0.6378 -0.6553  0.8550
  401MOL0     O54035   7.202  10.579  11.900 -0.1423 -0.2728 -0.0634
  401MOL0     C54036   7.324  10.647  11.936  0.6249 -0.6918  1.0859
  401MOL0     C54037   7.362  10.611  12.073 -0.2864  1.0467  0.3588
  401MOL0     C54038   7.454  10.726  12.142 -0.1217 -0.5358  0.7472
  401MOL0     C54039   7.551  10.659  12.246  0.1641  0.7804 -0.5635
  401MOL0     C54040   7.611  10.763  12.329  0.6338 -1.0708  0.6672
  401MOL0     C54041   7.710  10.692  12.421  0.3366 -1.2596 -0.7020
  401MOL0     C54042   7.733  10.786  12.546 -0.3100  0.7803 -0.1420
  401MOL0     C54043   7.840  10.727  12.638 -0.0222  0.7173  0.8378
  401MOL0    Cl54044   7.759  10.586  12.719  0.1125  0.3483 -0.1925
  401MOL0     C54045   7.028  10.524  11.751 -0.1459 -0.5065 -0.4803
  401MOL0     C54046   6.956  10.517  11.632  1.5959 -0.8323  0.3523
  401MOL0     O54047   6.812  10.416  11.386  0.7331  0.2978 -0.3054
  401MOL0     C54048   6.659  10.532  11.162  0.1722  0.6621  2.0491
  401MOL0     C54049   6.591  10.621  11.074  0.6463 -0.2370 -0.9399
  401MOL0     N54050   6.368  10.831  10.406 -1.0664 -0.3529 -0.2899
  401MOL0     N54051   6.379  10.811  10.276 -0.6946 -1.4278 -0.2810
  401MOL0     C54052   5.752  11.053   9.251 -0.0281 -1.1120 -0.1310
  401MOL0     C54053   5.801  10.994   9.126  0.0250 -0.3569 -0.8036
  401MOL0     C54054   5.912  10.650   8.812  0.2558 -0.1275 -0.2868
  401MOL0     C54055   5.994  10.538   8.795  0.3304  0.2178 -0.6198
  401MOL0     C54056   6.036  10.498   8.673 -0.0056 -0.2428  0.8793
  401MOL0     C54057   5.991  10.571   8.564  0.7956  0.2997 -0.2326
  401MOL0     O54058   6.011  10.502   8.447  0.5765  0.1410 -0.5309
  401MOL0     C54059   5.993  10.563   8.319 -0.2150 -0.9396 -0.5832
  401MOL0     C54060   5.870  10.524   8.245  0.2335  0.4437  0.0425
  401MOL0     C54061   5.863  10.582   8.110 -0.4297  0.7023 -0.2643
  401MOL0     C54062   5.881  10.728   8.107 -0.8661  0.5979 -1.1231
  401MOL0     C54063   5.756  10.792   8.141  0.0971  0.7851 -0.1757
  401MOL0     C54064   5.649  10.849   8.161  0.7683 -0.3217 -1.0100
  401MOL0     C54065   5.917  10.689   8.589 -0.2398  0.0885  0.6501
  401MOL0     C54066   5.875  10.740   8.710 -0.1585  1.0737 -0.3942
  401MOL0     C54067   5.786  10.855   8.728  0.1753  0.8426  0.1836
  401MOL0     H54068   5.800  10.673   9.239 -0.8039 -0.0406 -2.8899
  401MOL0     H54069   5.795  10.782   9.445 -0.2564  1.7075  0.4983
  401MOL0     H54070   5.748  11.043   9.692 -2.3589 -2.2133  0.6371
  401MOL0     H54071   5.735  10.892   9.612 -1.0937  0.0668 -1.4650
  401MOL0     H54072   5.977  11.095   9.621  0.5112  0.3442 -2.5459
  401MOL0     H54073   5.993  10.956   9.526  1.8652  0.5491  1.0866
  401MOL0     H54074   5.934  10.818   9.737  0.9121 -0.4632  3.6472
  401MOL0     H54075   5.947  10.978   9.819 -2.6947  1.1436 -2.7488
  401MOL0     H54076   6.162  10.839   9.658  3.4689  1.1263  0.1864
  401MOL0     H54077   6.178  10.989   9.751 -0.9713  0.6577 -1.9573
  401MOL0     H54078   6.103  10.724   9.867  2.0119 -0.4945  1.2602
  401MOL0     H54079   6.269  10.792   9.871  0.2567  0.0654  0.0183
  401MOL0     H54080   6.036  10.903  10.018 -1.1357 -5.2888  1.9518
  401MOL0     H54081   6.169  10.811  10.089 -1.9972 -1.6210 -0.8641
  401MOL0     H54082   6.174  11.049  10.114 -1.0846  0.3847 -0.8667
  401MOL0     H54083   6.245  11.060   9.944 -3.1916  0.8356  0.3676
  401MOL0     H54084   6.416  10.885  10.031 -1.2619 -1.4116  0.7767
  401MOL0     H54085   6.424  11.061  10.051  0.5728 -0.2965 -2.5595
  401MOL0     H54086   6.409  11.144  10.338  0.3299  0.4418  0.5396
  401MOL0     H54087   6.374  11.112  10.602  0.3267  0.4073  1.2731
  401MOL0     H54088   6.299  10.951  10.629  0.0486 -0.3828 -0.0490
  401MOL0     H54089   6.533  10.849  10.652  2.6030 -0.0234 -3.3524
  401MOL0     H54090   6.599  11.013  10.626 -1.6205  2.0424  2.0314
  401MOL0     H54091   6.373  10.932  10.834  0.2604 -0.9182  2.0015
  401MOL0     H54092   6.441  11.089  10.823  0.2876 -1.1231 -1.3822
  401MOL0     H54093   6.550  10.982  11.014 -0.5400 -0.5661  0.0164
  401MOL0     H54094   6.664  11.004  10.898  0.0421  0.9614  0.8120
  401MOL0     H54095   6.805  10.886  11.056  1.8630 -0.5885  0.6449
  401MOL0     H54096   6.915  10.757  11.229  0.6199  1.8355 -1.3157
  401MOL0     H54097   7.167  10.700  11.448  0.8270  3.2668  2.8284
  401MOL0     H54098   7.305  10.692  11.658 -0.9070  2.3149 -1.9263
  401MOL0     H54099   7.391  10.627  11.851 -2.2044 -2.9148 -0.7864
  401MOL0     H54100   7.295  10.753  11.936  0.8199 -0.5910 -0.8706
  401MOL0     H54101   7.283  10.592  12.147  0.2063 -2.2859  0.1915
  401MOL0     H54102   7.412  10.515  12.059 -1.2373  0.4833  0.7596
  401MOL0     H54103   7.522  10.774  12.071  1.0368 -0.8731  1.6052
  401MOL0     H54104   7.394  10.802  12.193 -2.0201 -0.7276 -1.0569
  401MOL0     H54105   7.624  10.599  12.191  0.9802 -0.6358  1.8946
  401MOL0     H54106   7.504  10.589  12.316  4.6184 -1.7071  0.2951
  401MOL0     H54107   7.531  10.816  12.383 -1.1048 -1.0696 -1.7593
  401MOL0     H54108   7.672  10.837  12.276  1.1389 -1.2116  1.0454
  401MOL0     H54109   7.668  10.607  12.475  0.9924  0.9067  3.7380
  401MOL0     H54110   7.805  10.681  12.370  2.0118  3.2324  0.8731
  401MOL0     H54111   7.641  10.810  12.600 -0.7996  1.4524 -1.2424
  401MOL0     H54112   7.779  10.880  12.513 -1.8377  1.1121 -1.4341
  401MOL0     H54113   7.935  10.706  12.589  0.8985 -0.7248  3.0749
  401MOL0     H54114   7.869  10.797  12.717  0.6397  0.5149  0.7781
  401MOL0     H54115   6.986  10.471  11.836  1.3102 -2.4474 -0.9332
  401MOL0     H54116   6.858  10.471  11.630  0.5844  1.1514  1.2705
  401MOL0     H54117   6.621  10.431  11.174  0.5865  0.3678  0.9868
  401MOL0     H54118   6.504  10.584  11.020 -0.6637 -2.2765  2.2487
  401MOL0     H54119   5.741  11.160   9.260 -0.3281 -1.2761  1.7903
  401MOL0     H54120   5.823  11.054   9.038  1.2490  1.7307  0.8176
  401MOL0     H54121   6.035  10.486   8.880  0.5668 -0.9124 -1.4034
  401MOL0     H54122   6.098  10.410   8.668 -0.7923 -1.0498  3.5076
  401MOL0     H54123   6.081  10.554   8.254  0.8853  0.7361  0.5931
  401MOL0     H54124   5.989  10.669   8.344 -0.1434 -1.4113  1.6377
  401MOL0     H54125   5.781  10.553   8.301  0.7575 -2.2731  2.5718
  401MOL0     H54126   5.856  10.416   8.245  0.2570  0.4057  2.2327
  401MOL0     H54127   5.761  10.563   8.076 -0.0619  1.1389 -1.6876
  401MOL0     H54128   5.942  10.534   8.050 -3.1965 -2.8612 -1.4092
  401MOL0     H54129   5.960  10.764   8.175 -0.9023  0.0461 -0.7880
  401MOL0     H54130   5.896  10.759   8.003 -1.5211  1.1725 -1.0527
  401MOL0     H54131   5.557  10.902   8.174  0.1887 -1.4461 -0.3575
  401MOL0     H54132   5.889  10.750   8.504 -1.4292 -2.2437 -0.7131
  401MOL0     H54133   5.709  10.849   8.806 -0.8072  1.7503 -0.6894
  401MOL0     H54134   5.846  10.946   8.743  0.6010  0.5103  0.5404
  401MOL0     H54135   5.742  10.845   8.629  2.5360  0.1134 -0.8529
  402MOL0     O54136  10.254  11.279   0.737  0.4558 -0.0173  0.2875
  402MOL0     C54137  10.373  11.242   0.738  0.0452  0.1713 -0.2660
  402MOL0     O54138  10.411  11.120   0.802  0.1020 -0.3529 -0.2999
  402MOL0     C54139  10.319  11.030   0.813  0.7297  0.3655 -0.9361
  402MOL0     C54140  10.296  10.951   0.928 -0.7575 -0.3084 -0.2864
  402MOL0     C54141  10.219  10.838   0.927 -0.4842 -0.5560  0.1510
  402MOL0     C54142  10.157  10.786   0.810 -0.6088 -0.1463  0.3965
  402MOL0     O54143  10.093  10.668   0.822  0.7977  0.6983  0.2417
  402MOL0     C54144  10.030  10.605   0.714  0.8045 -1.3869  0.0348
  402MOL0     C54145  10.022  10.451   0.741 -0.7222 -0.0922 -0.3707
  402MOL0     C54146  10.158  10.383   0.731  0.3001 -0.0293 -0.5053
  402MOL0     C54147  10.219  10.351   0.584 -0.1988 -0.4285 -0.4741
  402MOL0     C54148  10.335  10.258   0.595  0.3307  0.5016  0.0615
  402MOL0     C54149  10.435  10.249   0.478 -0.4479  0.9009  0.3833
  402MOL0     C54150  10.558  10.162   0.525 -0.2466  0.4165  0.4251
  402MOL0     C54151  10.648  10.131   0.408  0.0110  0.1125  0.0247
  402MOL0     N54152  10.680  10.252   0.338  0.0497 -0.7057  0.4461
  402MOL0     C54153  10.776  10.356   0.354 -0.7141 -0.5750 -0.3149
  402MOL0     C54154  10.758  10.445   0.255  0.3424 -0.0145  0.3186
  402MOL0     C54155  10.823  10.579   0.229  0.0785  0.6130 -0.9469
  402MOL0     C54156  10.915  10.611   0.110 -0.0862  0.4665 -0.5123
  402MOL0     C54157  10.851  10.567  -0.019 -0.5504  0.4473 -0.3344
  402MOL0     C54158  10.944  10.618  -0.134 -0.5122  1.2919 -0.1869
  402MOL0     O54159  10.948  10.762  -0.147 -0.4147  0.6047 -0.0366
  402MOL0     C54160  11.069  10.823  -0.167 -0.2619 -0.3189 -0.8503
  402MOL0     C54161  11.192  10.758  -0.194  0.6072 -1.0450 -0.3549
  402MOL0     C54162  11.303  10.841  -0.211 -0.5811  0.2435 -1.0694
  402MOL0     C54163  11.298  10.984  -0.210 -0.3109 -0.1609  0.1926
  402MOL0     C54164  11.418  11.060  -0.249  1.3220 -0.6185 -0.6186
  402MOL0     O54165  11.405  11.186  -0.313 -0.1495 -0.2183  0.1709
  402MOL0     C54166  11.518  11.255  -0.346 -0.1238 -0.1257  0.1776
  402MOL0     C54167  11.562  11.377  -0.282 -1.0579  0.4074  0.0119
  402MOL0     C54168  11.671  11.447  -0.326  0.2771  0.1227  0.9987
  402MOL0     C54169  11.747  11.406  -0.427 -0.7721 -0.1220  0.8854
  402MOL0     O54170  11.859  11.465  -0.480  0.6278  0.0210  0.5931
  402MOL0     C54171  11.936  11.550  -0.391  0.4114 -0.2593  0.1591
  402MOL0     C54172  12.043  11.626  -0.469 -0.3059  0.1760  1.0341
  402MOL0     C54173  12.142  11.664  -0.366  0.0111  0.5925  0.9932
  402MOL0     C54174  12.259  11.750  -0.428 -1.0985 -0.1971  0.6170
  402MOL0     C54175  12.369  11.776  -0.331  0.0384  0.0880 -0.6302
  402MOL0     C54176  12.325  11.871  -0.220 -0.1483 -0.1278  0.2433
  402MOL0     C54177  12.457  11.896  -0.138 -0.0925 -0.7747  0.1981
  402MOL0     C54178  12.441  11.998  -0.039 -0.5935 -0.3359 -0.2181
  402MOL0    Cl54179  12.386  12.146  -0.126 -0.3143 -0.1309  0.8338
  402MOL0     C54180  11.712  11.282  -0.498 -0.7858 -1.0355 -0.2062
  402MOL0     C54181  11.599  11.210  -0.461  0.3595  1.0126  0.4169
  402MOL0     O54182  11.525  11.010  -0.215 -0.2168 -0.7730 -0.0291
  402MOL0     C54183  11.181  11.043  -0.174 -0.0889 -0.4524  1.2889
  402MOL0     C54184  11.069  10.963  -0.155 -0.0946 -0.6486  0.4512
  402MOL0     N54185  10.656  10.396   0.177  0.8089 -0.0457 -0.5879
  402MOL0     N54186  10.618  10.286   0.223  0.3637  0.2279  0.6393
  402MOL0     C54187  10.161  10.861   0.688 -0.4337  1.1227 -0.2821
  402MOL0     C54188  10.240  10.980   0.693 -0.7349 -0.2064  0.3460
  402MOL0     C54189  10.468  11.318   0.656 -0.5467 -0.2178 -0.0909
  402MOL0     C54190  10.561  11.242   0.582 -0.4895 -0.1713  0.2413
  402MOL0     C54191  10.654  11.300   0.497 -0.3464  0.4329 -0.5519
  402MOL0     C54192  10.665  11.442   0.483 -0.6599  1.3715 -0.1504
  402MOL0     O54193  10.760  11.498   0.403 -0.6317 -0.8287 -0.3826
  402MOL0     C54194  10.779  11.635   0.398  0.3252  0.0399 -0.4584
  402MOL0     C54195  10.853  11.679   0.278  0.1356  1.0138 -0.2005
  402MOL0     C54196  10.854  11.832   0.282 -0.4654  0.6299  1.4711
  402MOL0     C54197  10.939  11.882   0.163 -1.0237  0.4075  0.5890
  402MOL0     C54198  10.936  12.027   0.138  0.5633  0.2094 -0.5815
  402MOL0     C54199  10.943  12.146   0.133  0.9618 -0.0661 -0.7946
  402MOL0     C54200  10.574  11.510   0.565 -0.6947 -0.0564  0.1032
  402MOL0     C54201  10.481  11.463   0.651 -0.3959 -0.4180 -0.3248
  402MOL0     C54202  10.395  11.556   0.726 -0.3928 -0.4735  0.0440
  402MOL0     H54203  10.344  10.970   1.023 -1.0530 -1.0629  0.0226
  402MOL0     H54204  10.217  10.784   1.021 -0.2013  2.0042  1.7132
  402MOL0     H54205   9.926  10.638   0.723  1.0910 -0.4670  0.1266
  402MOL0     H54206  10.061  10.634   0.613 -3.7474  1.1971 -0.8695
  402MOL0     H54207   9.951  10.416   0.665  1.3844  2.4649 -3.7753
  402MOL0     H54208   9.987  10.435   0.843 -0.9783 -0.2938 -0.4872
  402MOL0     H54209  10.160  10.285   0.780  1.7639 -0.4935 -1.4228
  402MOL0     H54210  10.230  10.438   0.793 -1.0457  0.2520  0.8640
  402MOL0     H54211  10.140  10.304   0.525  0.2488 -0.4841 -1.0409
  402MOL0     H54212  10.246  10.448   0.540 -4.2212  1.2534  0.3358
  402MOL0     H54213  10.386  10.273   0.691  1.7871 -1.6494 -0.3197
  402MOL0     H54214  10.288  10.162   0.616  0.5190  0.3721 -0.1014
  402MOL0     H54215  10.381  10.209   0.392 -1.0442 -3.3597  2.4584
  402MOL0     H54216  10.469  10.349   0.450 -0.3241  0.2472 -2.0561
  402MOL0     H54217  10.515  10.074   0.575  0.4155  0.6809  1.4704
  402MOL0     H54218  10.608  10.220   0.603  0.0562 -1.2497  1.5206
  402MOL0     H54219  10.742  10.086   0.440  0.9931 -2.8219 -5.7280
  402MOL0     H54220  10.596  10.070   0.333  4.0337 -1.1443 -2.0264
  402MOL0     H54221  10.864  10.355   0.417 -1.1194 -0.0480  0.2695
  402MOL0     H54222  10.736  10.644   0.216  1.3022  2.5869  0.4258
  402MOL0     H54223  10.862  10.620   0.322  1.6229 -0.6665 -0.9980
  402MOL0     H54224  10.935  10.718   0.103 -1.8409  1.1934  3.0590
  402MOL0     H54225  11.006  10.553   0.128 -0.6935 -0.5453 -0.6035
  402MOL0     H54226  10.752  10.611  -0.032 -2.0881 -3.2963 -3.2219
  402MOL0     H54227  10.850  10.457  -0.025 -0.8552  0.1854  3.0675
  402MOL0     H54228  10.897  10.576  -0.224  1.6648 -2.2081  0.1122
  402MOL0     H54229  11.044  10.575  -0.126  0.8347  2.8141 -5.1580
  402MOL0     H54230  11.203  10.651  -0.208 -0.4385 -1.2785  0.5239
  402MOL0     H54231  11.386  10.779  -0.245 -0.8303 -0.6451 -0.0944
  402MOL0     H54232  11.512  11.424  -0.198 -0.8111 -0.0188  0.4054
  402MOL0     H54233  11.690  11.538  -0.270 -0.0916  0.0421  1.2503
  402MOL0     H54234  11.868  11.620  -0.341  1.0612 -0.0795  0.8047
  402MOL0     H54235  11.984  11.481  -0.322  0.0571  0.4604  1.1401
  402MOL0     H54236  12.099  11.570  -0.544  1.6469  0.0552  2.5025
  402MOL0     H54237  12.004  11.716  -0.517 -0.2606 -1.7392 -2.9703
  402MOL0     H54238  12.097  11.723  -0.285  0.5638  1.5627  0.6073
  402MOL0     H54239  12.182  11.572  -0.324 -2.3339 -1.0469 -0.1037
  402MOL0     H54240  12.223  11.849  -0.458 -0.4146 -1.1868 -4.4263
  402MOL0     H54241  12.309  11.713  -0.519  2.8841  5.1750  0.1122
  402MOL0     H54242  12.454  11.818  -0.384  1.3374  1.8359  2.5960
  402MOL0     H54243  12.394  11.683  -0.278 -2.8797 -0.1557  0.5471
  402MOL0     H54244  12.282  11.963  -0.262  0.6104  0.1119 -0.0313
  402MOL0     H54245  12.249  11.834  -0.151  1.2765 -1.3449  1.2338
  402MOL0     H54246  12.541  11.934  -0.197  0.3075  1.7733  2.2459
  402MOL0     H54247  12.498  11.806  -0.090  1.3697 -0.9402 -1.2610
  402MOL0     H54248  12.371  11.978   0.042  0.9591  3.5612  2.3571
  402MOL0     H54249  12.535  12.009   0.017 -0.9035 -2.1359  0.7325
  402MOL0     H54250  11.773  11.253  -0.583  1.7697  1.8679  0.4602
  402MOL0     H54251  11.578  11.124  -0.525  2.8319  0.9870 -0.4715
  402MOL0     H54252  11.176  11.150  -0.161 -1.6392 -0.5551  1.6947
  402MOL0     H54253  10.976  11.016  -0.137  0.3878  1.5000 -2.5627
  402MOL0     H54254  10.103  10.833   0.600  0.0362 -0.6177 -0.0725
  402MOL0     H54255  10.264  11.033   0.601  2.0104 -2.0399 -0.1036
  402MOL0     H54256  10.555  11.133   0.584  2.3269 -0.4536 -1.3088
  402MOL0     H54257  10.703  11.223   0.438  0.9152  0.1184  0.8439
  402MOL0     H54258  10.839  11.666   0.484 -1.0940  1.6345  0.0249
  402MOL0     H54259  10.681  11.683   0.388  2.0943  3.9972 -0.7026
  402MOL0     H54260  10.799  11.630   0.197 -2.3620 -1.3466  2.5993
  402MOL0     H54261  10.958  11.646   0.282 -0.0321  0.5177  0.5625
  402MOL0     H54262  10.899  11.877   0.371 -0.9560  0.3702  1.8530
  402MOL0     H54263  10.755  11.878   0.275 -1.8624 -2.1871  1.0485
  402MOL0     H54264  11.038  11.861   0.205 -1.7316 -0.0244  2.1082
  402MOL0     H54265  10.931  11.818   0.075 -2.2590  0.0926  0.9104
  402MOL0     H54266  10.959  12.251   0.149  2.1397 -0.5079  1.3321
  402MOL0     H54267  10.586  11.618   0.563 -3.6371  0.3384  0.0495
  402MOL0     H54268  10.329  11.513   0.802 -0.2833  2.2824  1.8601
  402MOL0     H54269  10.459  11.625   0.782 -0.6688  0.8120 -1.1478
  402MOL0     H54270  10.336  11.625   0.664 -0.6265  0.7698  1.5954
  403MOL0     O54271   2.215   8.552  10.391 -0.1211 -0.1138  0.6599
  403MOL0     C54272   2.290   8.604  10.476  0.4807 -0.3115  0.3085
  403MOL0     O54273   2.264   8.727  10.527 -0.1062  0.6194  0.0257
  403MOL0     C54274   2.146   8.786  10.499  0.0685 -0.0468  0.4319
  403MOL0     C54275   2.033   8.743  10.562 -0.8008  0.0657 -1.0044
  403MOL0     C54276   1.912   8.800  10.529  0.2344  0.0254 -0.5533
  403MOL0     C54277   1.904   8.894  10.426  0.7899  1.1294 -0.0959
  403MOL0     O54278   1.786   8.934  10.380  0.2647 -0.0109 -0.2047
  403MOL0     C54279   1.750   9.061  10.439  0.4688  0.9266 -0.2715
  403MOL0     C54280   1.595   9.085  10.424  0.4675  0.4660  0.6996
  403MOL0     C54281   1.552   9.120  10.276 -0.1655  0.3932 -0.1299
  403MOL0     C54282   1.418   9.195  10.281  0.8489 -0.0700  0.4187
  403MOL0     C54283   1.394   9.266  10.146  0.9308  0.0355 -1.5139
  403MOL0     C54284   1.261   9.336  10.141  0.3195 -0.6468  0.9640
  403MOL0     C54285   1.211   9.386  10.004 -0.7861 -0.2595 -0.1673
  403MOL0     C54286   1.060   9.418  10.018 -0.9115 -0.0708 -0.2668
  403MOL0     N54287   1.009   9.450   9.889  0.3694 -0.2696 -0.0391
  403MOL0     C54288   0.971   9.363   9.789  0.0476  0.4311 -0.3730
  403MOL0     C54289   0.945   9.434   9.675 -0.0728 -0.0110  0.8195
  403MOL0     C54290   0.912   9.378   9.533  0.5323 -0.2900  0.1763
  403MOL0     C54291   1.023   9.302   9.466 -0.8161 -0.8424  0.9822
  403MOL0     C54292   1.138   9.403   9.443  0.6315 -0.3751 -0.1248
  403MOL0     C54293   1.233   9.404   9.558 -0.0015  0.2974 -0.0747
  403MOL0     O54294   1.355   9.458   9.521 -0.3274  0.1069  1.4798
  403MOL0     C54295   1.431   9.470   9.630 -0.2253  0.4022  0.1299
  403MOL0     C54296   1.498   9.362   9.687 -0.7081  0.4411 -0.4137
  403MOL0     C54297   1.578   9.378   9.809  0.7298 -0.2423 -0.1802
  403MOL0     C54298   1.583   9.503   9.873  0.0336  0.4354  0.1644
  403MOL0     C54299   1.662   9.518  10.003  0.8882  0.2099 -0.7608
  403MOL0     O54300   1.753   9.428  10.035  0.2204 -0.6861  0.1547
  403MOL0     C54301   1.812   9.435  10.162  0.2605 -0.1942  0.2322
  403MOL0     C54302   1.947   9.387  10.176 -0.0808 -0.1237  0.6719
  403MOL0     C54303   2.012   9.375  10.300 -0.3678  0.2920  0.0297
  403MOL0     C54304   1.944   9.409  10.412 -0.3461  0.6075 -0.1192
  403MOL0     O54305   1.985   9.401  10.536 -0.1017 -0.7665  0.3803
  403MOL0     C54306   2.070   9.289  10.570  0.3691 -0.4185  0.3188
  403MOL0     C54307   2.101   9.315  10.726  0.3495 -0.2563  0.9593
  403MOL0     C54308   2.221   9.238  10.774 -0.3118 -0.2651 -0.3344
  403MOL0     C54309   2.254   9.282  10.916  1.0215 -0.5402  0.3673
  403MOL0     C54310   2.398   9.245  10.947  0.4925  0.1740 -0.9007
  403MOL0     C54311   2.447   9.296  11.088 -0.5804  1.7441 -0.0918
  403MOL0     C54312   2.451   9.450  11.110 -0.3648  0.1992  0.4286
  403MOL0     C54313   2.588   9.510  11.129 -0.2215  1.0925 -1.1460
  403MOL0    Cl54314   2.572   9.687  11.161  0.1742  0.1535 -0.0422
  403MOL0     C54315   1.814   9.464  10.403  0.2269 -0.8075 -0.6798
  403MOL0     C54316   1.750   9.473  10.283 -0.5189 -0.0533 -0.5693
  403MOL0     O54317   1.622   9.616  10.066 -0.5440 -0.4331 -0.2273
  403MOL0     C54318   1.510   9.617   9.814 -0.1296  0.3929 -0.7931
  403MOL0     C54319   1.435   9.599   9.692 -0.0371 -0.6281 -0.4439
  403MOL0     N54320   0.967   9.571   9.714  0.2949  0.2532  0.5978
  403MOL0     N54321   0.991   9.577   9.841  0.1193 -0.2593  0.7795
  403MOL0     C54322   2.022   8.934  10.366  0.1681 -0.3010  0.2866
  403MOL0     C54323   2.146   8.881  10.400 -0.0532 -1.2866 -0.5790
  403MOL0     C54324   2.406   8.518  10.510 -0.2142  0.0619  0.7121
  403MOL0     C54325   2.446   8.413  10.417  0.3926  0.7169  0.0205
  403MOL0     C54326   2.568   8.341  10.429  0.5028  0.4032  0.1128
  403MOL0     C54327   2.661   8.367  10.533  0.1368  0.2697  0.3302
  403MOL0     O54328   2.780   8.306  10.531  0.6187  0.5120  0.7274
  403MOL0     C54329   2.900   8.385  10.542  0.6000 -0.7342 -0.3897
  403MOL0     C54330   2.983   8.381  10.411 -0.7985  0.5563 -0.5733
  403MOL0     C54331   3.003   8.239  10.346  0.8528 -0.3942  1.0100
  403MOL0     C54332   2.893   8.190  10.253  0.9576  0.1753 -0.0126
  403MOL0     C54333   2.931   8.065  10.184 -0.4923  0.3320 -0.4835
  403MOL0     C54334   2.951   7.962  10.123 -0.5681 -0.7848 -0.6714
  403MOL0     C54335   2.627   8.480  10.612 -0.1886  0.5717 -0.2119
  403MOL0     C54336   2.503   8.543  10.610 -0.5974 -0.7646 -0.0602
  403MOL0     C54337   2.469   8.631  10.725 -0.1470  0.9570 -0.6125
  403MOL0     H54338   2.024   8.674  10.646  1.1439  0.3844 -0.4843
  403MOL0     H54339   1.823   8.771  10.584  2.0016 -0.8287  2.0309
  403MOL0     H54340   1.770   9.044  10.545  1.6738 -0.2037 -0.6437
  403MOL0     H54341   1.807   9.148  10.405 -1.0682  2.9149  1.9934
  403MOL0     H54342   1.582   9.179  10.478  0.9189  1.7631 -1.3122
  403MOL0     H54343   1.540   9.000  10.464  0.4914  1.1404  2.2195
  403MOL0     H54344   1.546   9.030  10.214 -2.2953 -0.7686  1.6094
  403MOL0     H54345   1.626   9.182  10.226 -0.5416  1.0171  0.0791
  403MOL0     H54346   1.344   9.115  10.292  1.8000 -0.9521  0.5399
  403MOL0     H54347   1.407   9.269  10.360 -2.0791 -0.6705  0.6952
  403MOL0     H54348   1.479   9.334  10.137  0.6110  0.4934 -1.1458
  403MOL0     H54349   1.387   9.198  10.061 -1.8975 -0.1195 -1.2537
  403MOL0     H54350   1.184   9.265  10.172 -0.5815 -1.0516 -1.9799
  403MOL0     H54351   1.271   9.423  10.207  1.6052  0.0917 -0.1544
  403MOL0     H54352   1.233   9.310   9.928 -0.8606 -0.0831 -0.3662
  403MOL0     H54353   1.274   9.465   9.964  0.5080 -0.7015  0.9394
  403MOL0     H54354   1.003   9.333  10.058 -2.8360  1.2410 -0.1150
  403MOL0     H54355   1.045   9.494  10.095  0.3697 -3.6086  3.9005
  403MOL0     H54356   0.971   9.255   9.795 -0.8260  0.4282 -0.3887
  403MOL0     H54357   0.833   9.307   9.560  1.3063 -0.4077  2.3024
  403MOL0     H54358   0.867   9.450   9.464  2.5125 -2.1806 -3.3759
  403MOL0     H54359   1.061   9.225   9.534 -0.4056 -2.3618 -0.8751
  403MOL0     H54360   0.983   9.253   9.376 -0.7152 -0.7499  0.8866
  403MOL0     H54361   1.100   9.504   9.425 -1.6112 -1.0767  0.4421
  403MOL0     H54362   1.186   9.374   9.349  0.0890  3.0471 -1.6336
  403MOL0     H54363   1.247   9.302   9.594 -0.1995  0.1535 -0.3984
  403MOL0     H54364   1.197   9.454   9.648  1.5779 -1.3299  1.5408
  403MOL0     H54365   1.488   9.265   9.640 -1.6418  1.9529 -3.6178
  403MOL0     H54366   1.629   9.292   9.850 -1.1536 -2.4924 -2.2470
  403MOL0     H54367   1.970   9.348  10.078 -1.0291 -0.7486  0.6920
  403MOL0     H54368   2.119   9.359  10.304 -0.1973  1.4763  0.8290
  403MOL0     H54369   2.027   9.193  10.543 -2.2175  1.4352 -3.0205
  403MOL0     H54370   2.165   9.292  10.515 -0.5538 -3.6525 -1.7173
  403MOL0     H54371   2.122   9.423  10.728  1.3430 -0.4523  2.1362
  403MOL0     H54372   2.019   9.286  10.792  1.7197  1.4259  3.5684
  403MOL0     H54373   2.205   9.130  10.775  2.6029 -0.8748  3.6581
  403MOL0     H54374   2.306   9.255  10.708 -0.2585 -0.9101 -0.4376
  403MOL0     H54375   2.180   9.231  10.978 -1.1504  0.8988 -0.8953
  403MOL0     H54376   2.235   9.390  10.922  3.9940  0.1681 -1.1589
  403MOL0     H54377   2.456   9.287  10.864 -0.8905  0.1568 -1.9155
  403MOL0     H54378   2.409   9.136  10.942 -2.7203 -0.2218 -1.3871
  403MOL0     H54379   2.376   9.260  11.163 -1.1500  1.9288 -0.5349
  403MOL0     H54380   2.547   9.252  11.093 -2.4006 -3.2378 -1.3094
  403MOL0     H54381   2.395   9.463  11.203 -0.9937  1.2098 -0.0586
  403MOL0     H54382   2.406   9.519  11.038  2.8609  0.5654 -1.4377
  403MOL0     H54383   2.622   9.458  11.219  2.0058  3.4094 -0.5194
  403MOL0     H54384   2.660   9.495  11.048 -2.0182  0.4693 -2.7093
  403MOL0     H54385   1.768   9.492  10.498 -1.0613  0.0814 -1.5234
  403MOL0     H54386   1.650   9.513  10.278  0.2741  2.1303 -0.2451
  403MOL0     H54387   1.506   9.704   9.878  3.9677 -0.7029  1.2721
  403MOL0     H54388   1.368   9.675   9.652 -0.8501 -0.7914  0.5786
  403MOL0     H54389   2.016   9.016  10.295  2.0154  2.3444  2.9222
  403MOL0     H54390   2.240   8.899  10.349 -0.0591  2.4867  0.4467
  403MOL0     H54391   2.387   8.386  10.330  0.5171  1.0763 -0.1756
  403MOL0     H54392   2.600   8.263  10.361  1.0066 -1.1445  2.0021
  403MOL0     H54393   2.962   8.351  10.626  1.8337  0.9700 -0.5543
  403MOL0     H54394   2.869   8.488  10.559 -0.2347 -1.0786  0.2852
  403MOL0     H54395   3.084   8.405  10.445 -0.1710 -1.6421 -0.7222
  403MOL0     H54396   2.938   8.460  10.350 -2.4072 -0.3562 -0.6151
  403MOL0     H54397   3.034   8.166  10.421  1.1462  0.1581  1.4395
  403MOL0     H54398   3.089   8.259  10.281 -1.5683  2.9881 -1.5186
  403MOL0     H54399   2.807   8.162  10.315  2.3132 -5.0078  0.0015
  403MOL0     H54400   2.868   8.260  10.173 -2.8688 -1.3727 -0.3644
  403MOL0     H54401   2.965   7.869  10.071 -0.9817 -0.0167 -2.2334
  403MOL0     H54402   2.699   8.505  10.690  2.3849  1.5325 -2.7140
  403MOL0     H54403   2.542   8.626  10.806  0.3818  1.8011 -1.0261
  403MOL0     H54404   2.449   8.736  10.703  0.1106  1.3575  0.9748
  403MOL0     H54405   2.381   8.579  10.766  1.3063 -1.5207 -0.4210
  404MOL0     O54406   3.805   7.290   3.571  0.0004  0.6394 -0.1751
  404MOL0     C54407   3.914   7.292   3.510  0.5010  0.6577  0.5726
  404MOL0     O54408   3.936   7.356   3.392 -0.3984 -0.4577  0.7034
  404MOL0     C54409   3.834   7.412   3.313 -0.0330 -0.3294  0.2944
  404MOL0     C54410   3.806   7.350   3.192  0.4193  0.1421 -0.1379
  404MOL0     C54411   3.722   7.418   3.104 -0.2273  0.1927  0.3255
  404MOL0     C54412   3.670   7.545   3.133  0.2927  0.6808  0.4877
  404MOL0     O54413   3.613   7.613   3.026 -0.8613 -0.3573  0.5239
  404MOL0     C54414   3.553   7.737   3.053 -0.0011  0.3626 -0.5565
  404MOL0     C54415   3.576   7.818   2.924 -0.2517  0.1907 -0.0053
  404MOL0     C54416   3.528   7.752   2.789  0.5262 -0.3221 -0.9805
  404MOL0     C54417   3.389   7.682   2.803 -0.2406 -0.3020  0.1974
  404MOL0     C54418   3.340   7.678   2.657 -0.0674 -0.1751 -1.3063
  404MOL0     C54419   3.204   7.603   2.641 -0.6770  0.3105  0.3787
  404MOL0     C54420   3.186   7.561   2.497 -0.2241  0.5696  0.5805
  404MOL0     C54421   3.237   7.424   2.441  0.9317 -0.1135  0.2819
  404MOL0     N54422   3.157   7.308   2.483  0.1493 -0.3003 -0.8600
  404MOL0     C54423   3.157   7.270   2.618 -0.3487  0.3113  1.2163
  404MOL0     C54424   3.073   7.162   2.617  0.2419 -0.1313  0.9690
  404MOL0     C54425   3.045   7.068   2.733  0.0419  1.2961 -0.3693
  404MOL0     C54426   3.164   6.979   2.782  0.0821  0.0988  0.0019
  404MOL0     C54427   3.257   7.056   2.887 -1.2802 -0.2384  0.0079
  404MOL0     C54428   3.391   6.977   2.900  0.7361 -0.8122 -1.1407
  404MOL0     O54429   3.481   7.056   2.989  0.6583 -0.8348 -0.7036
  404MOL0     C54430   3.603   6.993   3.017  0.6872  0.0670  0.3288
  404MOL0     C54431   3.653   7.042   3.132 -1.0520  0.8057  0.0731
  404MOL0     C54432   3.772   6.989   3.196 -0.4748 -0.3880  0.6894
  404MOL0     C54433   3.837   6.875   3.138 -0.7012 -0.6656 -0.1106
  404MOL0     C54434   3.957   6.809   3.203 -0.2109  0.2225 -0.2256
  404MOL0     O54435   4.011   6.868   3.315 -0.5127  0.4049 -0.2488
  404MOL0     C54436   4.115   6.810   3.386  0.1458 -1.1667  0.0385
  404MOL0     C54437   4.221   6.891   3.376 -0.1743  0.0185  0.1610
  404MOL0     C54438   4.341   6.846   3.423 -0.1916 -0.4744  0.1764
  404MOL0     C54439   4.362   6.721   3.477  0.6206  0.5046 -0.4137
  404MOL0     O54440   4.489   6.681   3.521  0.9176  0.2665  0.3817
  404MOL0     C54441   4.541   6.545   3.542  0.1283  0.6543  0.2648
  404MOL0     C54442   4.555   6.477   3.406  0.3453 -0.5819 -0.6520
  404MOL0     C54443   4.676   6.393   3.383 -0.4730 -0.3123 -1.0468
  404MOL0     C54444   4.672   6.342   3.233  0.2344 -0.4091  0.2619
  404MOL0     C54445   4.798   6.271   3.190  0.3161 -0.9228 -0.3019
  404MOL0     C54446   4.777   6.171   3.080  0.2058  0.4525  0.4891
  404MOL0     C54447   4.912   6.099   3.043  0.0731  0.6835 -0.8023
  404MOL0     C54448   4.891   5.956   3.033  0.3238 -0.0617  1.2313
  404MOL0    Cl54449   4.849   5.880   3.194  0.0417  0.0837  0.0299
  404MOL0     C54450   4.247   6.639   3.491  0.4423 -0.1536  1.2050
  404MOL0     C54451   4.124   6.680   3.441  0.2733  0.5746  0.4042
  404MOL0     O54452   4.010   6.711   3.143  0.7002 -0.7101 -0.4544
  404MOL0     C54453   3.793   6.835   3.013  0.0312 -0.1922  0.6325
  404MOL0     C54454   3.673   6.892   2.957 -1.5544 -0.7636  0.9423
  404MOL0     N54455   3.027   7.141   2.484 -0.1164  0.3799  0.2667
  404MOL0     N54456   3.074   7.237   2.403  0.2195  0.0592 -0.4913
  404MOL0     C54457   3.673   7.593   3.265 -0.7827  0.9643 -0.4378
  404MOL0     C54458   3.767   7.530   3.352 -0.2195  0.9058 -0.1713
  404MOL0     C54459   4.030   7.225   3.573  0.1601  0.8368 -0.4358
  404MOL0     C54460   4.158   7.286   3.575  0.3558 -0.7658 -0.4965
  404MOL0     C54461   4.244   7.234   3.668 -0.9212 -0.3855 -0.1597
  404MOL0     C54462   4.227   7.114   3.745 -0.0715  0.4056  0.3369
  404MOL0     O54463   4.322   7.065   3.829  0.3160 -0.2064 -0.3078
  404MOL0     C54464   4.387   6.945   3.780  0.5799 -0.2503  0.8430
  404MOL0     C54465   4.462   6.863   3.891  0.7327 -0.3497 -0.7815
  404MOL0     C54466   4.560   6.962   3.955 -0.8711 -0.1219 -0.1223
  404MOL0     C54467   4.648   6.890   4.048  1.0283 -0.3442  0.0935
  404MOL0     C54468   4.740   6.801   3.977 -0.6739  0.1231 -0.3475
  404MOL0     C54469   4.822   6.722   3.926 -0.0282 -0.1993  0.0047
  404MOL0     C54470   4.097   7.062   3.743 -0.0143 -0.2460 -0.6944
  404MOL0     C54471   3.999   7.115   3.661  0.2926  0.5478  0.2825
  404MOL0     C54472   3.869   7.042   3.654  0.4330 -0.2592 -0.0067
  404MOL0     H54473   3.864   7.263   3.162  2.0666  1.0158  0.3547
  404MOL0     H54474   3.711   7.376   3.004  2.8486 -1.9051  0.7147
  404MOL0     H54475   3.447   7.727   3.076  0.5954 -1.9808  1.5508
  404MOL0     H54476   3.596   7.797   3.134 -2.6535  2.1749 -0.3564
  404MOL0     H54477   3.685   7.829   2.924 -0.3587  1.9436  1.8325
  404MOL0     H54478   3.531   7.917   2.936  0.4836  0.7352 -1.4729
  404MOL0     H54479   3.611   7.687   2.758  2.1221 -0.0376  2.3220
  404MOL0     H54480   3.524   7.830   2.712  0.3534  0.6009 -0.0624
  404MOL0     H54481   3.404   7.585   2.851  2.1184  0.5864  1.4168
  404MOL0     H54482   3.327   7.737   2.874  1.0301  1.8006 -0.2229
  404MOL0     H54483   3.319   7.780   2.622 -0.0425  1.2208  2.2323
  404MOL0     H54484   3.422   7.641   2.595  0.8134 -1.9652  0.7998
  404MOL0     H54485   3.196   7.518   2.709 -0.3907 -0.8998 -1.0586
  404MOL0     H54486   3.131   7.684   2.659  0.6806  1.9137 -1.0111
  404MOL0     H54487   3.215   7.640   2.428  1.1916  0.1547  0.6593
  404MOL0     H54488   3.080   7.561   2.471 -0.2656  0.2838  0.7453
  404MOL0     H54489   3.244   7.419   2.332 -0.8661 -4.3522  0.1495
  404MOL0     H54490   3.338   7.411   2.481  1.6732  0.0850 -1.4535
  404MOL0     H54491   3.218   7.307   2.700  0.0248  0.9836  0.6424
  404MOL0     H54492   3.003   7.110   2.825 -3.7068 -1.3570 -0.6403
  404MOL0     H54493   2.967   6.997   2.705  0.7845  0.5823 -0.6843
  404MOL0     H54494   3.125   6.885   2.824 -1.1438  0.6791  0.2134
  404MOL0     H54495   3.223   6.958   2.693  0.4644  2.6436 -0.4097
  404MOL0     H54496   3.209   7.071   2.984  0.7509  1.4681  0.8491
  404MOL0     H54497   3.273   7.160   2.856 -0.0341 -0.0736  1.1219
  404MOL0     H54498   3.430   6.954   2.800 -2.7460 -0.3565 -2.7513
  404MOL0     H54499   3.360   6.886   2.952 -0.4370  1.7046  3.0576
  404MOL0     H54500   3.610   7.128   3.184  0.9257 -1.2235  5.8520
  404MOL0     H54501   3.794   7.016   3.299 -0.4502 -0.6044  0.7412
  404MOL0     H54502   4.212   6.989   3.331 -1.6951  0.0606  0.5093
  404MOL0     H54503   4.428   6.910   3.417 -1.0918  0.6536 -3.0664
  404MOL0     H54504   4.635   6.553   3.598 -0.0616  1.6321  0.4756
  404MOL0     H54505   4.474   6.492   3.609  0.9699  0.1952  0.7633
  404MOL0     H54506   4.471   6.408   3.392  2.3714 -3.6237  0.9604
  404MOL0     H54507   4.537   6.552   3.329 -3.2856 -0.6723 -0.0619
  404MOL0     H54508   4.760   6.461   3.398 -0.3973 -0.3732 -1.1991
  404MOL0     H54509   4.673   6.317   3.462 -2.8404 -0.4195 -1.1769
  404MOL0     H54510   4.652   6.429   3.170 -1.2192 -0.7824  0.1675
  404MOL0     H54511   4.580   6.283   3.224 -0.4881  0.5363  1.1194
  404MOL0     H54512   4.832   6.217   3.279  0.4455  1.4978  1.2323
  404MOL0     H54513   4.874   6.345   3.162  0.8934 -0.9020  1.2120
  404MOL0     H54514   4.695   6.106   3.110 -0.1321  0.3285 -0.6395
  404MOL0     H54515   4.735   6.235   3.000 -0.8178 -0.8609 -0.0622
  404MOL0     H54516   4.997   6.115   3.110 -1.4216 -2.1140  2.0320
  404MOL0     H54517   4.924   6.137   2.941 -0.9530  2.1957 -0.3981
  404MOL0     H54518   4.808   5.943   2.963  2.9891 -2.4688 -1.7500
  404MOL0     H54519   4.981   5.908   2.994  1.2646  1.4637  1.4503
  404MOL0     H54520   4.253   6.539   3.531  1.3440  0.0449  1.6073
  404MOL0     H54521   4.031   6.624   3.434  0.9970 -0.9937  2.3400
  404MOL0     H54522   3.852   6.754   2.972 -0.1850 -0.1129  0.1538
  404MOL0     H54523   3.630   6.849   2.867  1.3459 -0.4936 -0.6860
  404MOL0     H54524   3.617   7.678   3.304 -1.6719  0.9579 -1.6728
  404MOL0     H54525   3.786   7.584   3.444 -1.4578  1.5857 -0.2946
  404MOL0     H54526   4.172   7.368   3.505  0.7818 -1.7437 -1.5958
  404MOL0     H54527   4.338   7.288   3.668 -0.9711  0.2199 -5.4731
  404MOL0     H54528   4.455   6.974   3.700  0.0999  1.3733  0.9855
  404MOL0     H54529   4.314   6.869   3.749  1.2955 -1.5305  2.1276
  404MOL0     H54530   4.510   6.780   3.839  1.9966 -0.4934  0.5509
  404MOL0     H54531   4.388   6.817   3.957 -1.3262  3.3172 -0.2705
  404MOL0     H54532   4.525   7.054   4.002 -0.9435  0.5342 -1.4125
  404MOL0     H54533   4.632   7.001   3.882 -1.2534 -0.0467 -0.4605
  404MOL0     H54534   4.714   6.959   4.100 -1.0980  1.6521  0.2817
  404MOL0     H54535   4.578   6.835   4.111  2.1700 -2.2647 -0.2266
  404MOL0     H54536   4.897   6.673   3.869  1.3052 -0.8920  2.2552
  404MOL0     H54537   4.076   6.978   3.808  2.3381 -0.5579 -0.2404
  404MOL0     H54538   3.895   6.940   3.682 -0.7097 -0.1769  1.4153
  404MOL0     H54539   3.796   7.088   3.721  1.3334 -0.1703  0.9342
  404MOL0     H54540   3.828   7.034   3.553 -1.2369  0.3536  0.5948
  405MOL0     O54541   5.030   8.418   5.634  1.1847  0.7197  0.6610
  405MOL0     C54542   5.032   8.445   5.511  0.6808 -0.6047 -0.1888
  405MOL0     O54543   5.123   8.519   5.455 -0.1390  0.0084  0.1489
  405MOL0     C54544   5.236   8.558   5.518 -0.1015 -0.8374  0.0289
  405MOL0     C54545   5.316   8.479   5.607 -0.5885 -0.3000 -0.0665
  405MOL0     C54546   5.432   8.535   5.665 -1.1070 -0.3871 -0.1808
  405MOL0     C54547   5.492   8.651   5.616 -0.9984 -0.5185 -0.4881
  405MOL0     O54548   5.611   8.690   5.678 -0.2602  0.0138 -0.0075
  405MOL0     C54549   5.695   8.760   5.591  0.8835 -0.6088 -0.9020
  405MOL0     C54550   5.830   8.772   5.664  0.0748  0.4090 -0.9652
  405MOL0     C54551   5.879   8.630   5.708  0.1021 -0.3379  0.3555
  405MOL0     C54552   5.947   8.646   5.845 -0.3440 -0.0838  0.0112
  405MOL0     C54553   5.981   8.508   5.903 -0.3168  0.1371  0.2483
  405MOL0     C54554   6.095   8.431   5.836 -0.5178  0.4107 -0.1702
  405MOL0     C54555   6.133   8.311   5.925  0.4928 -1.2151  0.3282
  405MOL0     C54556   6.247   8.238   5.863 -0.4682 -0.7509  0.5466
  405MOL0     N54557   6.252   8.203   5.721  0.0059  0.1628 -0.6007
  405MOL0     C54558   6.221   8.075   5.681 -0.1511 -0.3583 -0.0798
  405MOL0     C54559   6.238   8.079   5.550  0.0011  0.1634 -0.0547
  405MOL0     C54560   6.214   7.961   5.451 -1.0112 -0.4089  0.5633
  405MOL0     C54561   6.079   7.892   5.487 -0.4102  0.1815 -0.4978
  405MOL0     C54562   6.092   7.739   5.490 -0.9024 -0.2605  0.3960
  405MOL0     C54563   6.140   7.656   5.363  0.8762 -0.6130 -0.7934
  405MOL0     O54564   6.283   7.643   5.365 -0.4634  0.0252 -0.2364
  405MOL0     C54565   6.350   7.545   5.292 -0.2027  0.7589  0.4098
  405MOL0     C54566   6.280   7.462   5.195 -0.2696  0.5078  0.3376
  405MOL0     C54567   6.350   7.367   5.126 -0.0845 -0.6072 -0.8034
  405MOL0     C54568   6.490   7.369   5.138  0.0300 -0.7291 -0.6600
  405MOL0     C54569   6.557   7.285   5.045  0.7768  0.2015  0.7247
  405MOL0     O54570   6.500   7.171   5.009  0.4443 -0.1157  0.0843
  405MOL0     C54571   6.559   7.090   4.912  0.4771 -0.6385  0.7349
  405MOL0     C54572   6.630   7.120   4.791  0.1534 -0.2128  0.3570
  405MOL0     C54573   6.684   7.019   4.716 -0.4318  0.7024  2.0202
  405MOL0     C54574   6.645   6.884   4.741  0.2958 -0.6250 -0.2489
  405MOL0     O54575   6.682   6.778   4.659 -0.1850  0.1145 -0.5048
  405MOL0     C54576   6.799   6.797   4.569  0.4256 -0.4106  0.2113
  405MOL0     C54577   6.867   6.662   4.542 -0.0156  0.6538 -0.1417
  405MOL0     C54578   6.783   6.567   4.456  0.3996 -0.6089 -0.2236
  405MOL0     C54579   6.659   6.509   4.533  0.4834 -0.0559  0.2444
  405MOL0     C54580   6.583   6.394   4.480 -0.0481  0.7596  0.0923
  405MOL0     C54581   6.497   6.437   4.362 -0.7399 -0.3213 -0.2555
  405MOL0     C54582   6.408   6.326   4.308 -0.9014  0.2667  0.0750
  405MOL0     C54583   6.304   6.370   4.208  0.2303  0.1114 -0.4508
  405MOL0    Cl54584   6.191   6.481   4.290 -0.0633  1.0102 -0.3048
  405MOL0     C54585   6.573   6.852   4.863 -0.4509  0.3982  0.2871
  405MOL0     C54586   6.536   6.957   4.949 -0.8875  0.0232 -0.3820
  405MOL0     O54587   6.669   7.323   5.014  0.0165 -0.1389 -0.3013
  405MOL0     C54588   6.563   7.460   5.227 -0.5168  1.1627 -0.2307
  405MOL0     C54589   6.488   7.544   5.300  0.0827  0.0565 -0.0469
  405MOL0     N54590   6.285   8.208   5.520  0.1591  0.2045  0.1293
  405MOL0     N54591   6.284   8.276   5.629  0.4989 -0.1439  0.7398
  405MOL0     C54592   5.424   8.725   5.518 -0.9594  0.4287 -0.0140
  405MOL0     C54593   5.294   8.678   5.476 -0.4301  0.1315  0.2508
  405MOL0     C54594   4.928   8.380   5.432 -0.8008 -0.2407  0.3907
  405MOL0     C54595   4.926   8.239   5.412 -0.1316 -0.6508  0.1931
  405MOL0     C54596   4.828   8.176   5.342  0.1161 -0.0085 -0.7416
  405MOL0     C54597   4.720   8.240   5.285 -0.1520 -0.4426 -0.1570
  405MOL0     O54598   4.617   8.168   5.237  0.0445  0.2220  0.7622
  405MOL0     C54599   4.490   8.230   5.200 -0.6357  0.1879 -0.7660
  405MOL0     C54600   4.397   8.133   5.131 -0.6005 -0.4417 -0.3166
  405MOL0     C54601   4.357   8.021   5.226  0.0499 -0.0548  0.0382
  405MOL0     C54602   4.448   7.903   5.240 -0.5630 -0.1583  0.1093
  405MOL0     C54603   4.423   7.835   5.369 -0.1091 -0.6348 -0.3936
  405MOL0     C54604   4.390   7.774   5.466  0.1638 -0.4126 -0.3993
  405MOL0     C54605   4.725   8.383   5.310  0.0781 -0.0792  0.7361
  405MOL0     C54606   4.828   8.449   5.377 -0.3342  0.2910  0.3076
  405MOL0     C54607   4.819   8.601   5.377  0.2612 -0.1619 -0.3610
  405MOL0     H54608   5.294   8.380   5.647  0.8559 -0.3163  0.7562
  405MOL0     H54609   5.487   8.480   5.741 -2.9210 -0.3190  1.2530
  405MOL0     H54610   5.707   8.710   5.494 -3.4900 -1.1248 -1.3803
  405MOL0     H54611   5.658   8.861   5.571  1.0790  0.0299  1.5573
  405MOL0     H54612   5.836   8.852   5.738  0.1258 -1.2884  0.9600
  405MOL0     H54613   5.906   8.802   5.591  0.9588 -0.3508 -0.3827
  405MOL0     H54614   5.947   8.593   5.631  1.1189  0.3430  0.9040
  405MOL0     H54615   5.804   8.550   5.715  0.7834 -0.8253  3.2899
  405MOL0     H54616   6.031   8.715   5.844  1.0429 -1.6227 -2.7553
  405MOL0     H54617   5.873   8.688   5.914 -1.0853 -0.8554 -0.2976
  405MOL0     H54618   6.001   8.519   6.010  1.8209 -1.9053  0.1185
  405MOL0     H54619   5.896   8.439   5.899 -0.0034 -0.4048  2.1951
  405MOL0     H54620   6.065   8.404   5.734 -1.1985  0.2031  0.0791
  405MOL0     H54621   6.184   8.494   5.832  2.1696 -2.8041  2.6365
  405MOL0     H54622   6.045   8.246   5.935  0.9564 -1.7855  0.7638
  405MOL0     H54623   6.144   8.342   6.029 -0.8508  1.0132 -0.1372
  405MOL0     H54624   6.336   8.298   5.885 -1.4290  0.1360  2.1831
  405MOL0     H54625   6.252   8.151   5.929  1.6116  0.2192  1.7608
  405MOL0     H54626   6.190   7.986   5.736 -3.0727  0.7718  0.3262
  405MOL0     H54627   6.236   7.983   5.346  1.8890 -0.6383  1.0388
  405MOL0     H54628   6.300   7.901   5.483 -0.0307  2.4328  3.8589
  405MOL0     H54629   6.037   7.929   5.581 -0.8741  1.4018 -1.1510
  405MOL0     H54630   6.009   7.911   5.405 -3.6078 -1.7252  1.6019
  405MOL0     H54631   5.992   7.704   5.517 -1.8957  3.4216  2.1385
  405MOL0     H54632   6.158   7.709   5.572  0.4832 -0.5116 -0.7573
  405MOL0     H54633   6.108   7.703   5.270  1.6055  2.4130  0.3483
  405MOL0     H54634   6.089   7.560   5.366  2.3850 -1.5132 -2.3645
  405MOL0     H54635   6.173   7.468   5.175 -0.3362 -2.5571 -0.8450
  405MOL0     H54636   6.297   7.309   5.052  0.6859 -2.3129 -0.0904
  405MOL0     H54637   6.629   7.225   4.762 -2.6746 -0.3064 -0.1398
  405MOL0     H54638   6.731   7.041   4.621  0.3109  2.1659  2.7053
  405MOL0     H54639   6.759   6.836   4.475  1.9917  0.5054 -0.1042
  405MOL0     H54640   6.877   6.869   4.596  1.3219 -0.7620 -1.3014
  405MOL0     H54641   6.961   6.677   4.489 -1.8737 -0.0245 -3.9835
  405MOL0     H54642   6.888   6.615   4.639 -1.3381 -0.6403 -0.4358
  405MOL0     H54643   6.746   6.617   4.366 -0.6900 -0.0900  0.4800
  405MOL0     H54644   6.841   6.487   4.410  0.9371 -0.9025  0.9342
  405MOL0     H54645   6.589   6.592   4.546 -0.5064 -1.3086  4.2107
  405MOL0     H54646   6.683   6.486   4.637 -1.8412  2.3215  1.4194
  405MOL0     H54647   6.521   6.358   4.563 -0.8460  0.4030 -0.6368
  405MOL0     H54648   6.651   6.315   4.446  0.4093  1.2293 -0.1035
  405MOL0     H54649   6.438   6.523   4.393 -2.2659 -1.6938  0.8049
  405MOL0     H54650   6.557   6.472   4.277 -0.9435  0.9801  0.1215
  405MOL0     H54651   6.367   6.274   4.395  1.5405 -0.0192  1.1372
  405MOL0     H54652   6.457   6.242   4.257 -1.5678 -0.0029 -0.1397
  405MOL0     H54653   6.360   6.439   4.145  2.3158  1.0697  2.2443
  405MOL0     H54654   6.255   6.285   4.161 -0.9469 -1.3719  3.1316
  405MOL0     H54655   6.552   6.748   4.888 -1.0208  0.0278 -1.5931
  405MOL0     H54656   6.479   6.945   5.040 -3.1652 -1.5392 -1.9066
  405MOL0     H54657   6.671   7.457   5.216 -0.5532  1.8050 -0.8511
  405MOL0     H54658   6.540   7.604   5.374  3.1958 -0.7749 -1.4117
  405MOL0     H54659   5.453   8.823   5.484  1.4366  0.3922  1.7174
  405MOL0     H54660   5.243   8.740   5.403  0.1771 -0.2080 -0.4830
  405MOL0     H54661   5.001   8.180   5.465 -0.5241 -2.0689 -0.7768
  405MOL0     H54662   4.820   8.068   5.342  0.7319 -0.0590 -0.9585
  405MOL0     H54663   4.522   8.317   5.141  0.4661 -0.1815 -0.7401
  405MOL0     H54664   4.439   8.265   5.290  0.4050 -2.0098  0.7867
  405MOL0     H54665   4.452   8.107   5.041  0.2283 -1.2535  0.4053
  405MOL0     H54666   4.301   8.183   5.112 -0.9063 -0.8306  0.1632
  405MOL0     H54667   4.262   7.974   5.199  1.3782 -1.4478 -2.5112
  405MOL0     H54668   4.355   8.071   5.324 -0.2198  0.9078 -0.4418
  405MOL0     H54669   4.430   7.840   5.152  3.2195 -0.9847 -0.2103
  405MOL0     H54670   4.552   7.937   5.236 -1.5501  4.4180  3.8104
  405MOL0     H54671   4.367   7.716   5.552  2.1694 -1.3189 -0.4217
  405MOL0     H54672   4.641   8.443   5.275 -1.1877 -0.2814  3.1996
  405MOL0     H54673   4.717   8.640   5.369  0.8354  2.1445  1.9747
  405MOL0     H54674   4.861   8.645   5.468  2.7843 -1.2935 -0.8905
  405MOL0     H54675   4.875   8.639   5.291 -4.4533 -0.4951 -4.0286
  406MOL0     O54676   6.245   7.166   3.420  0.0449  0.4783  0.3448
  406MOL0     C54677   6.313   7.188   3.516  0.2323  0.2825  0.2336
  406MOL0     O54678   6.445   7.184   3.519 -0.6168 -0.3037 -0.0872
  406MOL0     C54679   6.513   7.161   3.410  0.2632 -0.2302  0.4965
  406MOL0     C54680   6.563   7.266   3.334 -0.7049  0.2033 -0.5385
  406MOL0     C54681   6.636   7.253   3.221  0.3414  0.3288 -0.3302
  406MOL0     C54682   6.657   7.126   3.169  1.0247  0.1160 -0.4675
  406MOL0     O54683   6.708   7.100   3.046  0.6919  0.4816  0.3541
  406MOL0     C54684   6.723   7.197   2.951  0.2990 -0.4883  0.6698
  406MOL0     C54685   6.853   7.277   2.978 -0.6826  0.5459 -1.0577
  406MOL0     C54686   6.915   7.317   2.846  0.5314  0.2419  0.2213
  406MOL0     C54687   7.060   7.344   2.870  0.8102  1.2289  0.1039
  406MOL0     C54688   7.142   7.219   2.863  0.0415 -0.0400  0.6555
  406MOL0     C54689   7.288   7.252   2.882 -0.7257  0.4731 -0.6696
  406MOL0     C54690   7.395   7.151   2.863 -0.0276  0.0900  0.1569
  406MOL0     C54691   7.397   7.082   2.735 -0.1886 -0.0750  0.8307
  406MOL0     N54692   7.469   7.149   2.627  0.9147  0.0644 -0.0273
  406MOL0     C54693   7.433   7.274   2.588 -0.7383 -0.5037  0.1003
  406MOL0     C54694   7.529   7.323   2.515  0.0420 -0.2370 -0.1782
  406MOL0     C54695   7.533   7.464   2.473  0.0108 -0.2444  0.0970
  406MOL0     C54696   7.596   7.549   2.583  0.0125 -0.0895  0.4589
  406MOL0     C54697   7.498   7.566   2.699 -0.7471 -0.3138 -0.1781
  406MOL0     C54698   7.533   7.692   2.769  0.0858 -0.5482 -0.7381
  406MOL0     O54699   7.499   7.685   2.909 -0.0456 -0.2199 -0.0843
  406MOL0     C54700   7.583   7.620   3.001 -1.2052 -0.0787 -0.2793
  406MOL0     C54701   7.533   7.577   3.128 -0.2350  0.4374  0.1955
  406MOL0     C54702   7.609   7.496   3.214  0.3656  0.2449 -0.4930
  406MOL0     C54703   7.740   7.465   3.184 -0.3119  0.1458  0.2691
  406MOL0     C54704   7.827   7.378   3.260  0.3618  0.8889 -0.0859
  406MOL0     O54705   7.954   7.363   3.241 -0.2694 -0.2702 -0.1310
  406MOL0     C54706   8.029   7.254   3.282  0.2841 -0.5089 -0.0970
  406MOL0     C54707   8.128   7.199   3.197 -1.0108 -0.4285 -0.4476
  406MOL0     C54708   8.220   7.099   3.246 -0.5130  0.1883  0.4776
  406MOL0     C54709   8.216   7.062   3.380 -0.0467  0.7564  0.6593
  406MOL0     O54710   8.311   6.972   3.415 -0.1747 -0.5734 -0.2325
  406MOL0     C54711   8.365   6.973   3.547 -0.1750  1.1664 -0.6512
  406MOL0     C54712   8.283   6.879   3.637 -0.0473 -0.6358 -0.1409
  406MOL0     C54713   8.348   6.742   3.622 -0.3789  1.3451  0.1778
  406MOL0     C54714   8.282   6.645   3.716 -0.8261 -0.1114  0.4889
  406MOL0     C54715   8.326   6.502   3.688 -0.1769 -0.9461 -0.2444
  406MOL0     C54716   8.238   6.391   3.755  0.2476  0.3943 -0.6313
  406MOL0     C54717   8.290   6.266   3.698 -0.0167 -0.2458 -0.1814
  406MOL0     C54718   8.207   6.137   3.751  0.0289 -0.2239  0.5327
  406MOL0    Cl54719   8.267   5.988   3.679  0.1670  0.1479 -0.1307
  406MOL0     C54720   8.118   7.115   3.464  1.2879  0.7801 -0.1603
  406MOL0     C54721   8.029   7.212   3.419  0.1730  0.8013  0.2154
  406MOL0     O54722   7.768   7.318   3.359 -0.0020 -0.3174  0.3527
  406MOL0     C54723   7.797   7.527   3.071 -0.4184 -0.4971 -0.2198
  406MOL0     C54724   7.714   7.591   2.978  0.2911  0.5276 -0.2234
  406MOL0     N54725   7.620   7.223   2.497  0.5898 -0.4416 -0.4700
  406MOL0     N54726   7.590   7.119   2.573  0.7148  0.4020 -0.4371
  406MOL0     C54727   6.606   7.013   3.244 -0.7795  0.2319  0.7477
  406MOL0     C54728   6.538   7.033   3.364  0.7512  0.0475  0.4824
  406MOL0     C54729   6.239   7.205   3.646 -0.0676 -0.3302  0.5709
  406MOL0     C54730   6.116   7.269   3.632  0.1952  0.4041  0.6139
  406MOL0     C54731   6.041   7.298   3.741 -0.1912 -0.9654  1.0783
  406MOL0     C54732   6.075   7.254   3.866 -0.1866  0.1862 -0.5422
  406MOL0     O54733   6.012   7.271   3.989 -0.5558  0.0523 -0.5167
  406MOL0     C54734   5.887   7.336   3.984  0.2225  0.0973 -0.3297
  406MOL0     C54735   5.900   7.434   4.089  0.1176 -0.1983 -0.0040
  406MOL0     C54736   6.002   7.551   4.061  0.4750  0.6586  0.5605
  406MOL0     C54737   6.028   7.648   4.168 -0.2199  0.5392  0.2331
  406MOL0     C54738   5.902   7.699   4.236 -0.1770 -0.2506  0.8602
  406MOL0     C54739   5.799   7.734   4.294 -0.6073  0.6236 -0.9817
  406MOL0     C54740   6.205   7.204   3.882  0.6008  0.6767  0.9002
  406MOL0     C54741   6.289   7.178   3.776  0.4170 -0.8065  0.2285
  406MOL0     C54742   6.424   7.114   3.812  0.2849 -0.5393  0.0424
  406MOL0     H54743   6.552   7.370   3.362 -0.8020  1.0484 -3.4067
  406MOL0     H54744   6.671   7.338   3.164 -0.0678  0.9240  0.2869
  406MOL0     H54745   6.733   7.156   2.850  3.3231  0.6098  0.4191
  406MOL0     H54746   6.637   7.264   2.948  1.5978  1.3954  2.7806
  406MOL0     H54747   6.930   7.215   3.026  1.4533  2.8426 -1.3131
  406MOL0     H54748   6.835   7.367   3.037  1.9920 -0.0721  0.9296
  406MOL0     H54749   6.873   7.413   2.814 -2.8546 -1.2520 -0.2622
  406MOL0     H54750   6.898   7.230   2.782  3.1823 -3.8804  4.5617
  406MOL0     H54751   7.099   7.412   2.794 -0.2008  1.2773 -0.3786
  406MOL0     H54752   7.082   7.388   2.968  0.7224  0.6635  0.3793
  406MOL0     H54753   7.108   7.150   2.940 -1.6661 -0.2347 -0.2303
  406MOL0     H54754   7.123   7.163   2.771  1.7640 -0.2402  0.3785
  406MOL0     H54755   7.316   7.336   2.818  0.7268  3.3219  3.3156
  406MOL0     H54756   7.302   7.289   2.984 -0.6258 -1.3681  0.0306
  406MOL0     H54757   7.373   7.074   2.937  2.1621  0.0437  0.7999
  406MOL0     H54758   7.494   7.192   2.882 -0.6478  1.2021  1.1017
  406MOL0     H54759   7.440   6.982   2.747 -0.0513  0.0548  1.4531
  406MOL0     H54760   7.294   7.078   2.697 -0.4438  0.2712  1.4710
  406MOL0     H54761   7.351   7.338   2.620  1.5482  1.8674  1.6228
  406MOL0     H54762   7.584   7.487   2.380  0.7954  3.1849  1.2393
  406MOL0     H54763   7.432   7.500   2.450  0.6312  0.7139 -1.1852
  406MOL0     H54764   7.690   7.502   2.614 -0.6294 -0.5767  1.7399
  406MOL0     H54765   7.623   7.644   2.536  0.6305  0.0218  1.0385
  406MOL0     H54766   7.514   7.482   2.767 -3.5625 -0.4932  0.3906
  406MOL0     H54767   7.392   7.557   2.675 -1.7622  2.0869  2.8290
  406MOL0     H54768   7.473   7.772   2.725 -0.1427 -0.0931  0.3515
  406MOL0     H54769   7.634   7.728   2.751  0.8437 -1.5509  1.2595
  406MOL0     H54770   7.429   7.597   3.152 -0.2383 -0.9630  1.5514
  406MOL0     H54771   7.547   7.463   3.297 -2.1638  4.1088 -0.5869
  406MOL0     H54772   8.130   7.232   3.094  2.9510  0.2171 -0.2954
  406MOL0     H54773   8.302   7.065   3.183 -0.5452  0.6305  0.1940
  406MOL0     H54774   8.464   6.927   3.536 -0.2923  0.2911  1.3824
  406MOL0     H54775   8.383   7.071   3.592  0.9924  0.1739  1.2119
  406MOL0     H54776   8.277   6.919   3.739  0.3500  0.3947 -0.5109
  406MOL0     H54777   8.181   6.868   3.600  0.1337 -0.2727 -0.7559
  406MOL0     H54778   8.327   6.711   3.519  1.4707 -0.7946  0.3508
  406MOL0     H54779   8.451   6.725   3.653 -0.7543 -0.0100  0.7746
  406MOL0     H54780   8.173   6.651   3.714 -0.8920 -0.6935  1.5183
  406MOL0     H54781   8.318   6.666   3.817  4.7913  0.0435 -1.2177
  406MOL0     H54782   8.421   6.484   3.739 -0.5951  0.8499  1.3010
  406MOL0     H54783   8.333   6.482   3.581  0.6521  1.4581 -0.6792
  406MOL0     H54784   8.239   6.401   3.864 -0.8929 -2.0928 -0.3231
  406MOL0     H54785   8.138   6.389   3.710 -0.4007 -2.6617  0.7102
  406MOL0     H54786   8.392   6.248   3.733 -0.5499  0.4864  1.9016
  406MOL0     H54787   8.300   6.277   3.590 -1.9367 -1.0153 -0.4718
  406MOL0     H54788   8.223   6.127   3.858  0.5360 -2.2292  0.3155
  406MOL0     H54789   8.099   6.150   3.736 -0.0563 -2.8781 -2.0837
  406MOL0     H54790   8.109   7.096   3.570  0.5616  3.7483  0.4059
  406MOL0     H54791   7.953   7.254   3.483  0.4525  1.4014  0.1599
  406MOL0     H54792   7.901   7.506   3.051  0.4356  0.6927  2.4816
  406MOL0     H54793   7.761   7.619   2.884 -1.9700  0.0072 -1.5862
  406MOL0     H54794   6.624   6.913   3.207  1.4448  0.3857  1.2904
  406MOL0     H54795   6.518   6.948   3.429  3.0021 -0.6822  0.3060
  406MOL0     H54796   6.075   7.296   3.535 -0.1723  2.1841  1.2191
  406MOL0     H54797   5.945   7.348   3.732  0.6975  0.6158 -0.0416
  406MOL0     H54798   5.809   7.261   4.003 -0.8858  2.1458  5.0379
  406MOL0     H54799   5.861   7.393   3.895 -1.1419  0.8336  0.5112
  406MOL0     H54800   5.920   7.384   4.184 -3.4564  1.6434  1.9167
  406MOL0     H54801   5.795   7.466   4.096  0.6184  1.2608  1.5735
  406MOL0     H54802   5.966   7.612   3.977  0.7257  5.1137  3.3685
  406MOL0     H54803   6.099   7.507   4.035 -1.3186 -2.5903 -1.3781
  406MOL0     H54804   6.096   7.594   4.235  2.7543  1.1460 -2.0424
  406MOL0     H54805   6.088   7.732   4.131  1.5785 -1.8052 -2.7194
  406MOL0     H54806   5.703   7.747   4.339  0.3567  0.0652  1.4116
  406MOL0     H54807   6.256   7.199   3.978  2.5028 -1.1053 -0.1162
  406MOL0     H54808   6.505   7.181   3.780 -2.8172  3.4129 -0.3244
  406MOL0     H54809   6.446   7.103   3.918 -0.6452  2.9262  0.7135
  406MOL0     H54810   6.425   7.007   3.786  4.2652 -0.4868 -0.5821
  407MOL0     O54811   4.440   1.896  10.717  0.4658  0.0255 -0.6027
  407MOL0     C54812   4.397   1.985  10.649  1.2851  0.1981  0.3506
  407MOL0     O54813   4.447   2.107  10.639 -0.0422  0.1130  0.4499
  407MOL0     C54814   4.503   2.147  10.757 -0.0749 -0.4548  0.0101
  407MOL0     C54815   4.430   2.178  10.875 -0.4950  1.0745  0.3111
  407MOL0     C54816   4.487   2.232  10.983  0.7115  0.1541 -0.2093
  407MOL0     C54817   4.627   2.245  10.986 -0.1783 -0.2961 -0.2537
  407MOL0     O54818   4.703   2.274  11.096  0.2547 -0.0590 -0.2209
  407MOL0     C54819   4.638   2.278  11.227  0.3004 -0.1774  0.5072
  407MOL0     C54820   4.735   2.211  11.319 -0.2277 -0.0130  1.1126
  407MOL0     C54821   4.668   2.185  11.459  0.3741 -0.7125  0.0035
  407MOL0     C54822   4.763   2.110  11.544 -0.1141 -0.4828 -0.6308
  407MOL0     C54823   4.716   2.093  11.682  0.2266  0.1635 -0.0278
  407MOL0     C54824   4.573   2.044  11.697  0.2334  0.4867  0.0758
  407MOL0     C54825   4.525   2.038  11.839 -0.1990 -0.0025  0.2210
  407MOL0     C54826   4.600   1.934  11.925 -0.2397  0.0019  0.4013
  407MOL0     N54827   4.568   1.971  12.063  0.2316  0.3738 -0.0713
  407MOL0     C54828   4.596   2.089  12.116 -0.1174  0.3620 -0.2587
  407MOL0     C54829   4.569   2.077  12.245  0.1332 -0.1224  0.1178
  407MOL0     C54830   4.566   2.188  12.348  0.6078  0.4486 -0.2959
  407MOL0     C54831   4.452   2.289  12.334  0.5173 -0.6221 -0.7721
  407MOL0     C54832   4.471   2.410  12.420  0.0636  0.4829 -0.6036
  407MOL0     C54833   4.342   2.495  12.435  0.4785  0.5332 -1.1018
  407MOL0     O54834   4.321   2.578  12.322  0.1145 -0.1989  0.3908
  407MOL0     C54835   4.308   2.713  12.348 -0.5928  0.0554  0.5663
  407MOL0     C54836   4.343   2.791  12.235 -0.7274 -1.2606 -1.5833
  407MOL0     C54837   4.346   2.929  12.249 -0.1469  0.4466 -1.0474
  407MOL0     C54838   4.308   2.991  12.369  1.2609  0.7916  0.1375
  407MOL0     C54839   4.310   3.136  12.376 -0.2567  0.6660 -1.0038
  407MOL0     O54840   4.242   3.194  12.483  0.5727  0.5450  1.2056
  407MOL0     C54841   4.261   3.328  12.519  0.4747  0.9137 -0.5026
  407MOL0     C54842   4.273   3.428  12.423 -0.8842  0.7755  0.9733
  407MOL0     C54843   4.310   3.562  12.464 -0.6733 -0.2260  0.4950
  407MOL0     C54844   4.320   3.600  12.605 -0.0889 -0.0379  0.4898
  407MOL0     O54845   4.373   3.717  12.652  0.4971 -1.3384 -0.0262
  407MOL0     C54846   4.399   3.833  12.564  0.6803 -0.1103  0.2216
  407MOL0     C54847   4.464   3.957  12.624  0.7281  1.2324  0.1788
  407MOL0     C54848   4.380   4.088  12.601  0.6551  0.3815  0.4902
  407MOL0     C54849   4.446   4.202  12.673  0.4701  0.6432  0.0310
  407MOL0     C54850   4.387   4.233  12.803  0.6546  0.0956  0.1065
  407MOL0     C54851   4.234   4.235  12.817  0.3491  0.4023 -0.3398
  407MOL0     C54852   4.200   4.279  12.961 -0.0740 -0.0036  0.3788
  407MOL0     C54853   4.197   4.429  12.992  0.6288 -0.1954 -0.6987
  407MOL0    Cl54854   4.039   4.500  12.944  0.1415 -0.0496 -0.1949
  407MOL0     C54855   4.291   3.495  12.702 -0.0382  0.3745  0.5603
  407MOL0     C54856   4.265   3.362  12.659  0.2575  0.7661 -0.3411
  407MOL0     O54857   4.402   3.190  12.321  0.0290 -0.0859 -0.8230
  407MOL0     C54858   4.249   2.914  12.465 -0.1290 -0.4420 -0.2402
  407MOL0     C54859   4.247   2.775  12.458  1.2477 -0.1939 -0.1678
  407MOL0     N54860   4.517   1.952  12.270 -0.7444 -0.1512 -0.4595
  407MOL0     N54861   4.526   1.894  12.158 -1.0668  0.2867 -0.1248
  407MOL0     C54862   4.702   2.216  10.868  1.0481  0.2370 -0.2428
  407MOL0     C54863   4.643   2.165  10.753 -0.0633  0.6480 -0.8644
  407MOL0     C54864   4.284   1.954  10.556 -0.0043 -0.0236 -0.9117
  407MOL0     C54865   4.227   2.061  10.482 -0.1065 -0.2630 -0.4951
  407MOL0     C54866   4.119   2.029  10.396  0.0671 -1.4038  0.1669
  407MOL0     C54867   4.067   1.898  10.372 -0.3940  0.7666 -0.1640
  407MOL0     O54868   3.968   1.880  10.287  0.0166 -0.3207  1.0203
  407MOL0     C54869   3.935   1.750  10.239  0.4857 -0.1392  0.1713
  407MOL0     C54870   4.029   1.722  10.117 -0.3155  0.3504  0.1985
  407MOL0     C54871   4.027   1.842  10.005 -0.1210  0.1036  0.9059
  407MOL0     C54872   3.892   1.860   9.932  0.3843 -0.9076 -0.4873
  407MOL0     C54873   3.862   1.735   9.847 -0.6287  0.4081  0.6801
  407MOL0     C54874   3.844   1.639   9.770  0.2887  0.1368  0.2836
  407MOL0     C54875   4.119   1.794  10.445 -0.2432 -0.7978 -0.2837
  407MOL0     C54876   4.225   1.823  10.531  0.0276 -0.6651 -1.0736
  407MOL0     C54877   4.286   1.704  10.600  0.6716  1.3334 -0.9939
  407MOL0     H54878   4.326   2.151  10.885 -0.7956  1.5974 -1.1742
  407MOL0     H54879   4.420   2.253  11.066  1.2366 -0.8166  0.4819
  407MOL0     H54880   4.631   2.380  11.266 -0.7083 -0.1256  0.2099
  407MOL0     H54881   4.541   2.227  11.232 -0.2529  0.0908 -4.0310
  407MOL0     H54882   4.815   2.284  11.339 -1.4708  1.7185  0.0557
  407MOL0     H54883   4.786   2.133  11.262  2.9512  0.8476  2.5402
  407MOL0     H54884   4.576   2.133  11.431 -0.4164  1.4781 -1.8150
  407MOL0     H54885   4.635   2.281  11.499 -0.6768 -0.8152 -0.5787
  407MOL0     H54886   4.794   2.016  11.496 -0.8406 -2.3063  2.2112
  407MOL0     H54887   4.862   2.156  11.549  1.7045 -4.1997  1.9403
  407MOL0     H54888   4.783   2.018  11.725 -0.2813 -0.5689 -0.4911
  407MOL0     H54889   4.718   2.194  11.725 -2.0037  0.3300 -0.1944
  407MOL0     H54890   4.503   2.114  11.651 -2.2340 -2.7349 -1.4473
  407MOL0     H54891   4.557   1.947  11.650  0.9700 -1.0649  2.7918
  407MOL0     H54892   4.420   2.011  11.825  0.2757 -1.0506 -1.7701
  407MOL0     H54893   4.533   2.139  11.880 -3.5329 -0.2462  1.7710
  407MOL0     H54894   4.570   1.831  11.904  0.8093 -0.0028 -1.3482
  407MOL0     H54895   4.708   1.941  11.912 -0.4755 -0.8180 -2.8950
  407MOL0     H54896   4.633   2.171  12.054  0.0947 -1.3468 -2.5306
  407MOL0     H54897   4.576   2.141  12.446  0.8523 -0.5992 -0.8036
  407MOL0     H54898   4.661   2.238  12.327  0.3755  1.9639  1.9470
  407MOL0     H54899   4.448   2.334  12.235 -0.1709  0.3179 -0.3268
  407MOL0     H54900   4.357   2.238  12.352  1.9443 -2.3175  3.0378
  407MOL0     H54901   4.546   2.482  12.388  1.0850  0.1984  1.0357
  407MOL0     H54902   4.515   2.378  12.515 -1.0671 -1.9613 -0.8245
  407MOL0     H54903   4.367   2.556  12.523  0.3179 -1.9493  0.7827
  407MOL0     H54904   4.250   2.440  12.456  0.3933  1.3129  0.7789
  407MOL0     H54905   4.377   2.740  12.145 -1.6730 -1.1571 -2.0053
  407MOL0     H54906   4.384   2.995  12.172 -0.5101  1.2925 -0.5238
  407MOL0     H54907   4.255   3.394  12.322 -0.9586 -1.4734  1.6755
  407MOL0     H54908   4.313   3.636  12.384  1.9263 -1.5586 -0.7952
  407MOL0     H54909   4.475   3.796  12.495  0.7636 -1.9485  1.2379
  407MOL0     H54910   4.305   3.875  12.529  2.1546  2.4294 -0.9851
  407MOL0     H54911   4.456   3.935  12.731 -2.1794  0.6828 -0.0535
  407MOL0     H54912   4.572   3.964  12.614  1.1591  1.3466  3.5761
  407MOL0     H54913   4.382   4.100  12.493 -0.8881  3.7515  0.7003
  407MOL0     H54914   4.273   4.086  12.625  0.7189  1.9856  1.0744
  407MOL0     H54915   4.445   4.290  12.608 -1.7667  1.2741  0.8583
  407MOL0     H54916   4.548   4.172  12.701 -0.0663  0.7144  2.2748
  407MOL0     H54917   4.419   4.332  12.836 -0.1369 -0.7305  3.8208
  407MOL0     H54918   4.418   4.161  12.878  0.2541 -1.7978 -1.4623
  407MOL0     H54919   4.184   4.294  12.739  1.2671 -0.9555 -2.0407
  407MOL0     H54920   4.196   4.134  12.799 -1.7048  1.2605 -1.1680
  407MOL0     H54921   4.269   4.231  13.031  1.5180 -1.3085 -1.9701
  407MOL0     H54922   4.096   4.249  12.982 -0.1842  0.1413  0.0413
  407MOL0     H54923   4.216   4.446  13.099  2.4371 -0.5226 -0.9289
  407MOL0     H54924   4.281   4.480  12.945 -0.3374  2.5633  0.3618
  407MOL0     H54925   4.286   3.522  12.808  1.0879  3.0161  0.0303
  407MOL0     H54926   4.256   3.282  12.732 -2.4325 -0.5663 -1.9692
  407MOL0     H54927   4.203   2.955  12.554 -1.2457 -4.3230  1.1739
  407MOL0     H54928   4.215   2.716  12.543  1.0913 -0.7653 -0.6130
  407MOL0     H54929   4.808   2.236  10.876  1.1033 -0.0816 -0.1721
  407MOL0     H54930   4.701   2.145  10.663  2.2491  0.4264  0.5713
  407MOL0     H54931   4.261   2.163  10.495  1.9244 -0.5628 -2.8756
  407MOL0     H54932   4.059   2.106  10.348 -0.2939 -0.7229  1.6319
  407MOL0     H54933   3.827   1.749  10.222  0.4857  1.2465 -0.0589
  407MOL0     H54934   3.949   1.669  10.311  1.2927 -0.2830 -0.1417
  407MOL0     H54935   3.997   1.628  10.073  0.6832 -1.4382  2.9905
  407MOL0     H54936   4.133   1.700  10.144  0.3021 -0.9364 -2.8536
  407MOL0     H54937   4.116   1.836   9.942 -1.2340  0.0319 -0.7263
  407MOL0     H54938   4.036   1.938  10.056 -1.8043  2.1561 -2.2809
  407MOL0     H54939   3.812   1.878  10.004 -0.0940 -1.1464 -0.9576
  407MOL0     H54940   3.895   1.947   9.865  3.0070 -0.6134 -0.1001
  407MOL0     H54941   3.847   1.558   9.700  0.6715  1.5276 -1.3915
  407MOL0     H54942   4.091   1.689  10.449 -0.1105 -0.8288 -0.1592
  407MOL0     H54943   4.251   1.706  10.703 -3.0514  2.3071 -2.1182
  407MOL0     H54944   4.249   1.608  10.562  0.1788  1.4782 -0.8850
  407MOL0     H54945   4.395   1.694  10.602  0.5267 -1.6442 -1.9722
  408MOL0     O54946   4.153   3.294   1.729 -0.1678  0.2579 -0.2315
  408MOL0     C54947   4.094   3.212   1.663 -0.0400 -0.2503 -0.0237
  408MOL0     O54948   3.959   3.201   1.659 -0.2012 -0.0044  0.1025
  408MOL0     C54949   3.879   3.290   1.724  0.2039  0.0054  0.5025
  408MOL0     C54950   3.883   3.292   1.863 -0.6101  0.2714  1.1945
  408MOL0     C54951   3.815   3.395   1.922 -0.1421 -0.7337  0.1161
  408MOL0     C54952   3.750   3.503   1.854 -0.2204  0.4835 -1.1815
  408MOL0     O54953   3.693   3.614   1.915 -0.7185  0.0329  0.1270
  408MOL0     C54954   3.706   3.645   2.053 -0.6109  0.4035 -0.0057
  408MOL0     C54955   3.636   3.771   2.090  0.4117 -0.4087  0.2068
  408MOL0     C54956   3.698   3.883   2.007  0.4198 -0.1306 -0.4152
  408MOL0     C54957   3.610   4.006   2.017  0.5755  0.0588  0.0612
  408MOL0     C54958   3.643   4.107   1.907  0.2037  0.7978  0.5823
  408MOL0     C54959   3.536   4.218   1.896 -1.1463  0.1578 -0.3730
  408MOL0     C54960   3.582   4.323   1.788  0.2189  0.2405  0.8284
  408MOL0     C54961   3.586   4.267   1.647  0.1506 -0.3731  0.4212
  408MOL0     N54962   3.449   4.225   1.602 -0.4241 -0.4625  0.0429
  408MOL0     C54963   3.339   4.303   1.610  1.0566 -0.3252  0.1186
  408MOL0     C54964   3.239   4.220   1.553 -0.6708 -0.2032 -0.8463
  408MOL0     C54965   3.094   4.250   1.536  0.3818 -0.1759  0.0602
  408MOL0     C54966   3.068   4.304   1.395 -0.6783  0.1435  0.7888
  408MOL0     C54967   3.053   4.200   1.280  0.2251  0.1044 -0.1694
  408MOL0     C54968   3.002   4.254   1.144  0.6153 -0.5554  0.2098
  408MOL0     O54969   2.893   4.338   1.169  1.0596  0.1974  0.2768
  408MOL0     C54970   2.855   4.411   1.060  0.1868 -0.2869 -0.6918
  408MOL0     C54971   2.734   4.485   1.085  0.3958  0.1213  0.3839
  408MOL0     C54972   2.659   4.550   0.983 -0.6063 -1.0931  0.5160
  408MOL0     C54973   2.725   4.563   0.858  0.2398 -0.3711  0.0287
  408MOL0     C54974   2.676   4.663   0.757  1.0425  0.2522  0.3098
  408MOL0     O54975   2.545   4.700   0.789 -0.6812 -0.4771  0.4994
  408MOL0     C54976   2.470   4.780   0.705 -0.5890 -0.7638 -0.4643
  408MOL0     C54977   2.384   4.728   0.605 -0.9329  0.1147 -0.3220
  408MOL0     C54978   2.304   4.808   0.518 -0.9092  0.3695 -0.0246
  408MOL0     C54979   2.303   4.945   0.529 -0.7237 -0.1594  0.6379
  408MOL0     O54980   2.219   5.023   0.459  0.3794  0.1614  0.1646
  408MOL0     C54981   2.225   5.011   0.316 -0.4709 -0.9752 -0.1673
  408MOL0     C54982   2.147   5.123   0.251  0.0669  0.0532 -1.2262
  408MOL0     C54983   2.223   5.252   0.217 -0.2811  0.8166 -0.2492
  408MOL0     C54984   2.256   5.327   0.341 -0.7489 -0.7628  0.2063
  408MOL0     C54985   2.312   5.465   0.308 -0.2464 -0.5430 -0.4610
  408MOL0     C54986   2.417   5.511   0.414  0.6636 -0.0752  0.3081
  408MOL0     C54987   2.373   5.528   0.558  0.0898 -0.7588 -0.1262
  408MOL0     C54988   2.247   5.621   0.572  0.2433  1.5209 -1.1440
  408MOL0    Cl54989   2.268   5.790   0.516  0.1256 -0.0114  0.1215
  408MOL0     C54990   2.395   5.008   0.619  0.1455  0.2768  0.3893
  408MOL0     C54991   2.469   4.921   0.706 -0.3114 -0.2848 -0.0362
  408MOL0     O54992   2.723   4.678   0.644 -0.3306  0.5511 -0.1235
  408MOL0     C54993   2.840   4.498   0.830 -0.2555  0.0290 -0.0861
  408MOL0     C54994   2.905   4.412   0.923  0.2052 -0.0164  0.0054
  408MOL0     N54995   3.298   4.101   1.523 -0.0731 -1.5063  0.1970
  408MOL0     N54996   3.418   4.104   1.558 -0.3318 -0.1358 -0.2273
  408MOL0     C54997   3.761   3.504   1.714 -0.4358  1.1897 -0.4603
  408MOL0     C54998   3.819   3.392   1.654 -0.4442 -0.0883  0.2188
  408MOL0     C54999   4.180   3.124   1.580 -0.2289  0.1813  0.7926
  408MOL0     C55000   4.133   2.992   1.560 -0.2265 -0.3261  0.2412
  408MOL0     C55001   4.200   2.907   1.472  0.3579  0.3219 -0.2899
  408MOL0     C55002   4.314   2.939   1.409 -0.3957  0.2702  0.3498
  408MOL0     O55003   4.368   2.853   1.319  0.4168  0.1911 -0.9542
  408MOL0     C55004   4.503   2.814   1.362 -0.6326  0.0811 -0.6811
  408MOL0     C55005   4.533   2.682   1.284  0.2297 -0.2574  1.0630
  408MOL0     C55006   4.491   2.552   1.356  0.6004  0.3929  0.2651
  408MOL0     C55007   4.342   2.529   1.366  0.3681 -0.2617 -0.4338
  408MOL0     C55008   4.315   2.546   1.508 -1.2212 -0.5534 -0.1953
  408MOL0     C55009   4.304   2.554   1.625  0.1749  0.0067  0.7184
  408MOL0     C55010   4.369   3.060   1.442 -0.3908 -0.1816 -0.1147
  408MOL0     C55011   4.307   3.155   1.527  0.0857  0.3936  0.0532
  408MOL0     C55012   4.386   3.278   1.549 -0.3693  0.7164  0.0644
  408MOL0     H55013   3.928   3.213   1.922  2.6906  3.0455  2.7490
  408MOL0     H55014   3.815   3.401   2.031 -2.0243  1.4664  0.0720
  408MOL0     H55015   3.665   3.569   2.120 -0.0698  1.3272  1.4263
  408MOL0     H55016   3.812   3.663   2.073 -0.1382 -1.4028 -0.6436
  408MOL0     H55017   3.646   3.790   2.198 -1.6855 -3.3829  1.0268
  408MOL0     H55018   3.530   3.753   2.074  0.0200  1.5829  0.3116
  408MOL0     H55019   3.704   3.848   1.904  0.3173  1.5843 -1.0316
  408MOL0     H55020   3.793   3.901   2.059 -0.2065  4.4076 -0.4106
  408MOL0     H55021   3.507   3.979   1.994  1.5169 -0.1173 -4.9674
  408MOL0     H55022   3.626   4.060   2.111  0.1535 -1.0129  0.7651
  408MOL0     H55023   3.741   4.154   1.913  1.0323 -0.3846 -2.0947
  408MOL0     H55024   3.640   4.050   1.813 -3.2387 -1.2218  1.7569
  408MOL0     H55025   3.437   4.180   1.869  0.2234 -3.7037 -0.5091
  408MOL0     H55026   3.539   4.274   1.990  0.4978  1.6208 -1.2266
  408MOL0     H55027   3.682   4.359   1.816  1.4702 -2.0632 -0.4361
  408MOL0     H55028   3.515   4.410   1.793  3.4326  3.0238 -0.2595
  408MOL0     H55029   3.633   4.338   1.579  2.4718 -0.5203  1.7906
  408MOL0     H55030   3.657   4.184   1.643  1.6100  0.8657 -1.8492
  408MOL0     H55031   3.317   4.403   1.647  1.9190 -0.9299  2.4195
  408MOL0     H55032   3.038   4.156   1.538  0.1838 -0.0566  1.4794
  408MOL0     H55033   3.057   4.325   1.606  0.8999  0.2363 -0.1027
  408MOL0     H55034   2.991   4.381   1.408  1.5094  2.3893  1.3797
  408MOL0     H55035   3.153   4.366   1.367 -2.4898  2.1647 -0.5659
  408MOL0     H55036   2.982   4.127   1.320 -0.7517  0.5431 -1.0580
  408MOL0     H55037   3.141   4.138   1.261 -0.6214 -2.5659  3.3834
  408MOL0     H55038   2.969   4.166   1.087 -4.4845  1.0597  0.2389
  408MOL0     H55039   3.083   4.312   1.099  0.7968  0.5728  1.9021
  408MOL0     H55040   2.702   4.475   1.188  0.3287 -1.6372  0.2295
  408MOL0     H55041   2.564   4.602   0.993 -1.1442 -1.3020 -2.4063
  408MOL0     H55042   2.369   4.621   0.613  1.3463 -0.1505  2.0039
  408MOL0     H55043   2.239   4.754   0.449  0.3245  0.0330 -0.9549
  408MOL0     H55044   2.328   5.010   0.280 -1.2226 -0.7952 -2.4489
  408MOL0     H55045   2.185   4.916   0.281 -0.9531 -0.5033 -0.9104
  408MOL0     H55046   2.111   5.089   0.154  4.0133  0.8043 -3.1412
  408MOL0     H55047   2.057   5.146   0.310 -0.6343 -0.9300 -1.8941
  408MOL0     H55048   2.308   5.219   0.156  0.8099 -0.4138  1.8033
  408MOL0     H55049   2.156   5.320   0.164  0.1328  1.2218 -0.2611
  408MOL0     H55050   2.335   5.270   0.393 -0.5539  1.3805  2.4501
  408MOL0     H55051   2.169   5.329   0.408 -2.2120  2.9995 -1.5332
  408MOL0     H55052   2.234   5.541   0.300  3.4819  3.5457 -3.0836
  408MOL0     H55053   2.368   5.456   0.215  0.1044 -3.3101 -0.0659
  408MOL0     H55054   2.502   5.442   0.414  0.7321  0.0030 -0.4723
  408MOL0     H55055   2.459   5.605   0.376  0.8961  0.0394  0.8347
  408MOL0     H55056   2.447   5.584   0.615 -0.5912  2.0730 -1.7973
  408MOL0     H55057   2.341   5.429   0.590  1.9468 -0.7247  2.1199
  408MOL0     H55058   2.162   5.572   0.522 -0.0079 -1.1514  1.5873
  408MOL0     H55059   2.227   5.617   0.679  2.3548 -0.6209 -0.7427
  408MOL0     H55060   2.404   5.115   0.635  3.0189 -0.2914  3.8171
  408MOL0     H55061   2.523   4.977   0.782  0.8230  1.1452 -1.8027
  408MOL0     H55062   2.874   4.508   0.727  0.7066  2.2995  0.3965
  408MOL0     H55063   2.993   4.356   0.893  0.2685 -1.4914  2.6684
  408MOL0     H55064   3.711   3.581   1.657 -0.9653  1.7883  0.7689
  408MOL0     H55065   3.818   3.375   1.546  1.0822  0.6065  0.0772
  408MOL0     H55066   4.045   2.943   1.601 -0.5631 -0.1817 -0.3002
  408MOL0     H55067   4.159   2.807   1.460  0.9762 -0.0419  0.5242
  408MOL0     H55068   4.529   2.798   1.467  2.0952 -2.4957 -1.6090
  408MOL0     H55069   4.583   2.882   1.330  1.2181 -1.4601  0.5285
  408MOL0     H55070   4.642   2.680   1.275  0.2151 -1.8925  0.9600
  408MOL0     H55071   4.494   2.692   1.183 -0.8832 -2.3886  1.2374
  408MOL0     H55072   4.557   2.542   1.442  1.9570 -1.1249 -0.8676
  408MOL0     H55073   4.518   2.472   1.286 -0.4859  0.3125 -0.0854
  408MOL0     H55074   4.292   2.602   1.301 -1.3223 -1.3719 -0.4329
  408MOL0     H55075   4.309   2.429   1.339 -0.1627 -0.3858  0.6021
  408MOL0     H55076   4.295   2.569   1.731 -0.1211  4.0550  0.2469
  408MOL0     H55077   4.469   3.070   1.401  1.3510 -1.3215  3.4444
  408MOL0     H55078   4.342   3.360   1.491 -5.1488 -2.0983 -0.8902
  408MOL0     H55079   4.399   3.296   1.656  3.2978  1.5973 -0.3905
  408MOL0     H55080   4.481   3.266   1.497 -2.0837 -2.2857 -2.7663
  409MOL0     O55081  11.174   3.931   8.695  0.0033  0.2783 -0.3711
  409MOL0     C55082  11.236   3.852   8.626 -0.7420  0.4587  0.0426
  409MOL0     O55083  11.264   3.732   8.662  0.5536  0.0748  0.6386
  409MOL0     C55084  11.257   3.703   8.800  0.6528  0.3055 -0.0278
  409MOL0     C55085  11.192   3.582   8.837 -0.0073  0.2007 -0.5313
  409MOL0     C55086  11.185   3.542   8.966  0.6118 -0.6551  0.1260
  409MOL0     C55087  11.228   3.629   9.068  0.1044  1.4564  0.0343
  409MOL0     O55088  11.196   3.586   9.193  0.3639  0.6071 -0.3719
  409MOL0     C55089  11.250   3.674   9.300  0.4949 -0.6530 -0.1956
  409MOL0     C55090  11.226   3.605   9.431 -0.0673  0.2676 -0.2709
  409MOL0     C55091  11.089   3.609   9.488  0.3810  1.0100  0.0083
  409MOL0     C55092  11.082   3.567   9.633  0.5477 -0.5478  0.1765
  409MOL0     C55093  10.943   3.580   9.697  0.0696 -0.0735 -0.2995
  409MOL0     C55094  10.942   3.495   9.826  0.0986 -0.0859  0.2398
  409MOL0     C55095  10.817   3.533   9.907 -0.1327  0.2101  0.0584
  409MOL0     C55096  10.789   3.415  10.013 -0.7878  0.6844  1.3523
  409MOL0     N55097  10.827   3.447  10.152  0.0837  0.3806 -0.9058
  409MOL0     C55098  10.742   3.427  10.257  0.2362 -0.5504  0.1236
  409MOL0     C55099  10.815   3.441  10.372 -0.2829 -0.8371  0.0962
  409MOL0     C55100  10.763   3.436  10.512  0.1650  0.6594 -0.1479
  409MOL0     C55101  10.680   3.307  10.538 -0.3065 -0.7271  0.0370
  409MOL0     C55102  10.765   3.180  10.569 -0.2904 -0.4328  0.1609
  409MOL0     C55103  10.694   3.051  10.511 -0.4920 -0.2753  0.6227
  409MOL0     O55104  10.550   3.037  10.550 -0.2107  0.8431 -0.8106
  409MOL0     C55105  10.455   2.980  10.466  0.3902 -0.1758 -0.1287
  409MOL0     C55106  10.348   3.059  10.413  0.0498  0.1481 -0.8381
  409MOL0     C55107  10.251   3.020  10.320 -0.2265  0.3305 -0.5435
  409MOL0     C55108  10.263   2.888  10.279  0.3227 -0.0397 -0.0906
  409MOL0     C55109  10.161   2.839  10.179  1.1230  0.9131 -0.6563
  409MOL0     O55110  10.051   2.916  10.165 -0.4111 -0.6454  0.6324
  409MOL0     C55111   9.969   2.887  10.059 -0.2458  0.0571  1.2162
  409MOL0     C55112   9.828   2.921  10.074 -0.5739 -0.4994 -0.0088
  409MOL0     C55113   9.733   2.907   9.968  0.4675 -1.0231  1.1244
  409MOL0     C55114   9.776   2.840   9.850 -0.1190 -0.0190 -0.4272
  409MOL0     O55115   9.681   2.798   9.751  0.1167  0.5610  1.0132
  409MOL0     C55116   9.543   2.847   9.737 -0.2846  0.3415  0.0808
  409MOL0     C55117   9.479   2.799   9.601 -0.4696 -1.0188 -0.3903
  409MOL0     C55118   9.476   2.646   9.596  0.8294 -1.7543  0.1863
  409MOL0     C55119   9.399   2.614   9.474  0.3899 -0.2598 -0.1113
  409MOL0     C55120   9.362   2.465   9.472 -0.7064  0.6070 -0.0370
  409MOL0     C55121   9.242   2.418   9.377  0.3068 -0.0653 -0.5870
  409MOL0     C55122   9.263   2.460   9.235 -0.7784 -0.2201 -0.6208
  409MOL0     C55123   9.137   2.445   9.148  0.3972 -0.6797  0.6982
  409MOL0    Cl55124   8.973   2.449   9.242 -0.1643  0.2319  0.3445
  409MOL0     C55125   9.909   2.807   9.832  0.2205  0.1490 -0.8645
  409MOL0     C55126  10.006   2.840   9.926  0.7274  0.0485 -0.5399
  409MOL0     O55127  10.185   2.730  10.119  0.7783 -0.6761 -0.4679
  409MOL0     C55128  10.365   2.800  10.332  0.9399 -0.1555 -0.5727
  409MOL0     C55129  10.465   2.848  10.421 -0.0683  0.9292 -0.3931
  409MOL0     N55130  10.936   3.482  10.326  0.6592 -0.9243 -0.4702
  409MOL0     N55131  10.945   3.486  10.201  0.5967 -0.7277  0.2700
  409MOL0     C55132  11.299   3.745   9.037  0.6907 -0.2889  0.4876
  409MOL0     C55133  11.314   3.774   8.903 -0.4481 -0.6122 -0.8042
  409MOL0     C55134  11.245   3.880   8.476  0.1416 -0.2278 -0.3616
  409MOL0     C55135  11.257   3.770   8.386  0.5838  0.3386  0.3618
  409MOL0     C55136  11.249   3.790   8.250 -0.7483 -0.1691  0.4483
  409MOL0     C55137  11.228   3.919   8.190  0.7428 -0.8241  0.1816
  409MOL0     O55138  11.196   3.921   8.054  0.6697 -0.7695 -0.0503
  409MOL0     C55139  11.214   4.042   7.975 -0.2499 -1.0511 -0.5781
  409MOL0     C55140  11.363   4.076   7.985 -0.2938  0.0443  0.4827
  409MOL0     C55141  11.442   3.947   7.932  0.0867 -0.4800  0.7861
  409MOL0     C55142  11.600   3.968   7.903 -0.1247  0.0391 -0.4730
  409MOL0     C55143  11.672   3.847   7.848  0.0713  0.5926  0.1127
  409MOL0     C55144  11.732   3.743   7.817 -0.0981  0.6019  0.2765
  409MOL0     C55145  11.221   4.027   8.275 -0.2397 -0.3638  0.1411
  409MOL0     C55146  11.242   4.008   8.418  0.7972  1.2567  0.6865
  409MOL0     C55147  11.243   4.130   8.516  0.0805  0.9753 -0.3089
  409MOL0     H55148  11.160   3.519   8.754  1.8476 -0.1444 -1.0381
  409MOL0     H55149  11.132   3.451   8.993  1.0774 -0.3551  2.2361
  409MOL0     H55150  11.358   3.684   9.283  0.4194 -1.5751 -1.3820
  409MOL0     H55151  11.207   3.773   9.285  2.1134 -0.4103 -5.1859
  409MOL0     H55152  11.303   3.647   9.497  3.9839 -0.9684 -3.7471
  409MOL0     H55153  11.268   3.506   9.411 -0.4186 -0.3126  1.6805
  409MOL0     H55154  11.013   3.551   9.435 -0.6283  0.4203  2.0093
  409MOL0     H55155  11.049   3.711   9.483 -3.3305 -0.3429 -2.0237
  409MOL0     H55156  11.128   3.469   9.646  1.4736 -0.1629 -0.1192
  409MOL0     H55157  11.146   3.648   9.670 -0.6165  1.6275 -2.2842
  409MOL0     H55158  10.923   3.686   9.720  1.5622  0.2075 -0.2116
  409MOL0     H55159  10.872   3.557   9.617 -0.7930 -0.3836  0.5371
  409MOL0     H55160  10.928   3.397   9.780  0.8401  0.8266 -2.0912
  409MOL0     H55161  11.035   3.497   9.883 -0.2495  3.6582  0.9599
  409MOL0     H55162  10.737   3.538   9.832 -0.3247  0.5854  0.2851
  409MOL0     H55163  10.847   3.623   9.961  3.1748 -1.2733  0.9131
  409MOL0     H55164  10.683   3.388  10.008 -1.2129  2.2507  1.5774
  409MOL0     H55165  10.837   3.323   9.976  3.7555  3.6035 -0.9766
  409MOL0     H55166  10.636   3.406  10.251  0.0596  0.7121 -1.9476
  409MOL0     H55167  10.849   3.436  10.579 -1.0501 -6.4056  2.2585
  409MOL0     H55168  10.693   3.519  10.522  0.3731  0.9185 -0.8227
  409MOL0     H55169  10.604   3.324  10.616 -0.4098  0.7428 -0.3461
  409MOL0     H55170  10.611   3.285  10.456 -1.7672  0.1283  0.9864
  409MOL0     H55171  10.797   3.171  10.673  0.6041 -0.6243 -0.1202
  409MOL0     H55172  10.861   3.197  10.520  1.7427 -1.1252  3.6019
  409MOL0     H55173  10.745   2.969  10.561 -3.7656 -3.4996 -0.8373
  409MOL0     H55174  10.709   3.037  10.403  1.6668  0.7650  0.7440
  409MOL0     H55175  10.339   3.166  10.421 -0.5042 -0.0180  1.8226
  409MOL0     H55176  10.172   3.085  10.285 -1.2964  0.0257  1.1944
  409MOL0     H55177   9.822   2.971  10.170  2.1161 -4.4570  2.5344
  409MOL0     H55178   9.636   2.949   9.989  0.4665  0.7106 -1.7597
  409MOL0     H55179   9.482   2.808   9.819  0.2701 -2.2996 -0.6685
  409MOL0     H55180   9.529   2.955   9.746 -0.3583  0.2066  2.3961
  409MOL0     H55181   9.376   2.834   9.610  0.5998  1.9886  2.0601
  409MOL0     H55182   9.526   2.844   9.513 -1.2571 -0.6307 -0.6186
  409MOL0     H55183   9.579   2.612   9.582  2.1692  1.5268  0.9606
  409MOL0     H55184   9.424   2.615   9.687 -0.8056  0.8227  0.2330
  409MOL0     H55185   9.477   2.641   9.403  4.5915 -0.0946  4.0636
  409MOL0     H55186   9.313   2.681   9.466  0.2749 -0.1282  1.6897
  409MOL0     H55187   9.335   2.452   9.577 -0.2777 -1.3368 -0.1207
  409MOL0     H55188   9.454   2.414   9.443 -2.3322 -0.9105 -2.9388
  409MOL0     H55189   9.234   2.309   9.381 -0.0618 -0.0464 -0.7169
  409MOL0     H55190   9.153   2.463   9.423  0.4175 -1.8559  1.5851
  409MOL0     H55191   9.347   2.398   9.203 -0.3670 -0.3080  0.5985
  409MOL0     H55192   9.309   2.559   9.228  0.5206 -0.8876 -2.0595
  409MOL0     H55193   9.136   2.527   9.075  1.6304 -0.9829  0.3236
  409MOL0     H55194   9.147   2.352   9.092 -0.1367 -0.3822  0.0869
  409MOL0     H55195   9.938   2.745   9.748 -2.8558 -3.7735  0.6084
  409MOL0     H55196  10.106   2.802   9.910 -0.0371 -2.1022 -0.5138
  409MOL0     H55197  10.375   2.694  10.309  2.1797 -0.0960 -0.4019
  409MOL0     H55198  10.548   2.787  10.455  0.8936  1.3291 -1.9437
  409MOL0     H55199  11.330   3.821   9.108  3.4251 -1.3673  0.5684
  409MOL0     H55200  11.375   3.857   8.868 -0.8168 -0.9402 -2.3056
  409MOL0     H55201  11.286   3.674   8.426 -0.6999 -0.1723  0.1229
  409MOL0     H55202  11.254   3.703   8.186 -0.8921  0.5194 -0.5230
  409MOL0     H55203  11.162   4.131   8.012  2.4137  2.3391 -4.0913
  409MOL0     H55204  11.182   4.027   7.871  0.9864  0.0873 -1.1489
  409MOL0     H55205  11.402   4.108   8.082  0.5404 -3.1818  1.3293
  409MOL0     H55206  11.387   4.156   7.915 -1.3654  1.6869  1.9000
  409MOL0     H55207  11.396   3.908   7.841  0.5004 -0.1358  0.4228
  409MOL0     H55208  11.433   3.860   7.997 -3.2514 -0.1302  1.0055
  409MOL0     H55209  11.619   4.039   7.823  0.3985 -0.4092 -0.7519
  409MOL0     H55210  11.637   4.015   7.995 -0.8015 -2.3346  1.1221
  409MOL0     H55211  11.771   3.644   7.812 -1.2964  0.0674  1.1626
  409MOL0     H55212  11.205   4.125   8.231 -2.9966 -1.6249 -2.0313
  409MOL0     H55213  11.159   4.120   8.586 -0.4210 -2.4139 -1.2060
  409MOL0     H55214  11.338   4.137   8.569  0.1083 -1.3696  0.0616
  409MOL0     H55215  11.214   4.224   8.468 -0.4747  0.9471 -0.0336
  410MOL0     O55216  10.655   4.107   6.156  0.0294 -0.3548  0.4607
  410MOL0     C55217  10.673   3.989   6.179  0.0891 -0.9553  0.3659
  410MOL0     O55218  10.789   3.938   6.243  0.6714 -0.4858 -0.5895
  410MOL0     C55219  10.890   4.030   6.230 -0.0133  0.1922  0.1735
  410MOL0     C55220  10.954   4.059   6.113 -0.5412  0.3078  0.0729
  410MOL0     C55221  11.066   4.149   6.103 -0.3224 -0.8256 -0.6768
  410MOL0     C55222  11.114   4.200   6.227  0.6125  0.1700 -0.1474
  410MOL0     O55223  11.212   4.289   6.234  0.2094  0.3818  0.4785
  410MOL0     C55224  11.341   4.216   6.230  0.5594  0.3986 -0.4332
  410MOL0     C55225  11.448   4.285   6.136  0.2066 -0.1095  0.7690
  410MOL0     C55226  11.403   4.246   6.000  1.0372  0.5883  0.4313
  410MOL0     C55227  11.516   4.295   5.905 -0.2685  1.0489 -0.2614
  410MOL0     C55228  11.478   4.274   5.754 -0.8313  0.2142 -0.0910
  410MOL0     C55229  11.338   4.322   5.719  0.7931  0.2038 -0.0564
  410MOL0     C55230  11.304   4.320   5.560  0.0844  0.4083 -0.1997
  410MOL0     C55231  11.340   4.460   5.499  0.4820 -0.4621 -0.3347
  410MOL0     N55232  11.473   4.504   5.528 -0.0354  0.1059 -0.2195
  410MOL0     C55233  11.583   4.491   5.443  1.0890  0.5637  0.0208
  410MOL0     C55234  11.675   4.578   5.485 -0.3327 -0.2542 -0.0922
  410MOL0     C55235  11.813   4.595   5.427  0.2699 -0.5098 -0.4958
  410MOL0     C55236  11.920   4.484   5.458 -0.1521 -1.1226 -0.1047
  410MOL0     C55237  11.969   4.471   5.609 -0.5115  0.3029 -0.8181
  410MOL0     C55238  11.865   4.407   5.702 -0.6167 -0.6178  0.1574
  410MOL0     O55239  11.910   4.415   5.836  0.7125  0.3958 -0.1275
  410MOL0     C55240  11.911   4.306   5.917 -0.1002 -0.8913 -0.6696
  410MOL0     C55241  11.879   4.341   6.045 -0.0525 -0.4232 -0.4373
  410MOL0     C55242  11.876   4.248   6.143  0.9251 -0.6937 -0.3836
  410MOL0     C55243  11.906   4.105   6.118  0.2669 -0.5804  0.5309
  410MOL0     C55244  11.901   4.005   6.227  0.2942 -0.4484 -0.5399
  410MOL0     O55245  11.876   4.035   6.353  0.7370 -0.4569  0.5546
  410MOL0     C55246  11.902   3.951   6.462 -0.6990 -0.0165 -1.0287
  410MOL0     C55247  11.794   3.886   6.524 -0.1951 -0.1612 -0.7837
  410MOL0     C55248  11.815   3.802   6.636  0.0921 -0.8367 -0.0818
  410MOL0     C55249  11.946   3.781   6.681 -0.4474  0.0166  0.0010
  410MOL0     O55250  11.971   3.682   6.777 -0.2809  0.3496 -0.1559
  410MOL0     C55251  11.869   3.596   6.828 -0.4445 -1.0637  0.0444
  410MOL0     C55252  11.943   3.486   6.910  0.8426  0.2446 -0.4266
  410MOL0     C55253  11.851   3.380   6.967  0.7768 -0.4214  0.5754
  410MOL0     C55254  11.887   3.347   7.113  0.5407 -0.3416 -1.0050
  410MOL0     C55255  11.807   3.223   7.156  0.3956  0.4348  0.0613
  410MOL0     C55256  11.836   3.196   7.300  0.1508  0.4591 -0.4190
  410MOL0     C55257  11.795   3.046   7.341  0.1112  0.4633  0.0247
  410MOL0     C55258  11.862   3.004   7.480  0.6607 -0.3274  0.9828
  410MOL0    Cl55259  11.761   3.078   7.604  0.2786 -0.2354  0.2629
  410MOL0     C55260  12.056   3.839   6.616  0.3481  0.2132 -0.2170
  410MOL0     C55261  12.032   3.926   6.510  0.7634 -1.2624 -0.0403
  410MOL0     O55262  11.934   3.891   6.191  0.7496  0.2488  0.0215
  410MOL0     C55263  11.941   4.075   5.985  0.1711  0.4048  0.3249
  410MOL0     C55264  11.946   4.172   5.890  0.1003 -0.5889  0.5780
  410MOL0     N55265  11.622   4.654   5.576 -0.0402  0.0845  0.3652
  410MOL0     N55266  11.516   4.596   5.610  0.5775  0.0384  0.2855
  410MOL0     C55267  11.061   4.162   6.348 -0.1131  0.7696  0.5730
  410MOL0     C55268  10.952   4.078   6.348  0.4903  0.1981 -0.2951
  410MOL0     C55269  10.577   3.884   6.142  0.4788  0.2088  0.5023
  410MOL0     C55270  10.595   3.747   6.192  0.6195  0.2451 -0.5576
  410MOL0     C55271  10.502   3.643   6.156 -0.1503  0.5922 -0.6902
  410MOL0     C55272  10.384   3.673   6.094 -0.9054 -0.0432  0.0576
  410MOL0     O55273  10.284   3.589   6.084  0.3741 -0.1266  0.0811
  410MOL0     C55274  10.179   3.607   6.189 -0.7475  0.0427  0.7513
  410MOL0     C55275  10.160   3.481   6.270  0.2489  0.5217 -0.3830
  410MOL0     C55276  10.098   3.350   6.213  1.3519  0.2845  0.3503
  410MOL0     C55277  10.098   3.234   6.301 -0.3962  0.3008  0.0444
  410MOL0     C55278  10.023   3.236   6.427  0.1700  0.6249  0.4120
  410MOL0     C55279   9.951   3.246   6.521  0.0963 -0.9321  0.0117
  410MOL0     C55280  10.376   3.794   6.032 -0.4255 -0.0447 -0.4599
  410MOL0     C55281  10.461   3.903   6.051  0.3383  0.0284 -0.3874
  410MOL0     C55282  10.436   4.034   5.982  0.5782  0.0596 -0.0005
  410MOL0     H55283  10.923   4.021   6.016  2.2908  2.4181 -1.8222
  410MOL0     H55284  11.120   4.161   6.010  0.0072  2.1845 -0.1710
  410MOL0     H55285  11.382   4.218   6.332  2.4356 -2.0110 -1.0570
  410MOL0     H55286  11.328   4.109   6.214 -1.5419  0.9366 -2.9234
  410MOL0     H55287  11.545   4.246   6.169  1.4402  2.8276  0.8354
  410MOL0     H55288  11.458   4.392   6.153  2.8538  0.0694 -1.3539
  410MOL0     H55289  11.302   4.281   5.978 -0.4825 -2.9803  1.1762
  410MOL0     H55290  11.389   4.139   5.986 -1.3640  0.7222  1.4200
  410MOL0     H55291  11.538   4.402   5.914  3.2035  0.8522 -3.9263
  410MOL0     H55292  11.612   4.248   5.927 -1.2436 -1.3887 -0.8216
  410MOL0     H55293  11.549   4.327   5.690 -0.4992 -0.4988 -0.3199
  410MOL0     H55294  11.495   4.171   5.722  1.5913  0.6063 -0.2651
  410MOL0     H55295  11.274   4.254   5.775  2.0119 -0.2065  0.8755
  410MOL0     H55296  11.311   4.423   5.751  0.1904 -0.3560  1.2802
  410MOL0     H55297  11.195   4.308   5.552 -0.3422  2.3705  1.6916
  410MOL0     H55298  11.346   4.233   5.508 -2.6942 -0.5767 -0.9917
  410MOL0     H55299  11.314   4.460   5.393  1.3741  0.1898 -0.5616
  410MOL0     H55300  11.271   4.533   5.544  1.1680 -0.3692  0.5969
  410MOL0     H55301  11.599   4.427   5.357 -0.3460 -1.8010  1.4159
  410MOL0     H55302  11.805   4.617   5.320  1.1435 -1.4791 -0.7866
  410MOL0     H55303  11.862   4.683   5.469  2.6911 -2.4212  0.9658
  410MOL0     H55304  11.887   4.389   5.415  1.6803 -1.3184 -1.1925
  410MOL0     H55305  12.004   4.518   5.397  0.9677 -2.0786  0.8582
  410MOL0     H55306  11.995   4.573   5.640 -0.9857  0.1514  0.1010
  410MOL0     H55307  12.063   4.415   5.605  0.2195  1.5242 -1.3631
  410MOL0     H55308  11.845   4.304   5.669  0.2747 -0.7622  0.0315
  410MOL0     H55309  11.769   4.457   5.688 -2.0032 -3.3299 -0.6927
  410MOL0     H55310  11.854   4.443   6.072  1.1608  0.3076 -1.9101
  410MOL0     H55311  11.837   4.286   6.236 -1.0560 -0.5153 -1.2216
  410MOL0     H55312  11.690   3.900   6.499 -0.2206 -0.1989 -0.7015
  410MOL0     H55313  11.723   3.768   6.682 -1.0482  0.8043 -1.0520
  410MOL0     H55314  11.796   3.654   6.886 -0.7947 -0.8374 -0.6155
  410MOL0     H55315  11.814   3.535   6.757 -1.1107 -0.9892  0.4834
  410MOL0     H55316  12.016   3.452   6.835 -0.6445  1.7627 -2.6973
  410MOL0     H55317  11.986   3.539   6.995 -1.8999  1.2986  0.3968
  410MOL0     H55318  11.750   3.417   6.949  0.4632 -0.6341  1.8212
  410MOL0     H55319  11.866   3.298   6.896 -0.2747 -0.1828  0.0531
  410MOL0     H55320  11.859   3.431   7.176 -0.3875 -0.0102 -1.8360
  410MOL0     H55321  11.991   3.325   7.140  0.9831  2.6081 -0.0029
  410MOL0     H55322  11.846   3.140   7.097  1.8787  2.9948 -2.8902
  410MOL0     H55323  11.700   3.229   7.137 -0.3681 -0.6655  3.3108
  410MOL0     H55324  11.943   3.214   7.316  0.6123  0.2791 -2.9152
  410MOL0     H55325  11.786   3.266   7.367  1.6487  0.9307  0.2465
  410MOL0     H55326  11.832   2.977   7.264  0.0923 -0.5804  0.9338
  410MOL0     H55327  11.687   3.043   7.353  0.2446 -0.9808  1.0797
  410MOL0     H55328  11.852   2.895   7.488  1.2122 -0.4044  0.6566
  410MOL0     H55329  11.965   3.038   7.492  1.0500 -1.5775  1.3592
  410MOL0     H55330  12.147   3.820   6.671 -0.9292  1.4921  2.4934
  410MOL0     H55331  12.114   3.966   6.450 -0.0804 -0.9437 -1.0087
  410MOL0     H55332  11.958   3.972   5.956  1.5820  0.9300 -0.7908
  410MOL0     H55333  11.965   4.139   5.788 -0.7080  2.1248 -0.5338
  410MOL0     H55334  11.095   4.204   6.442  3.1288 -1.1999  0.4325
  410MOL0     H55335  10.898   4.053   6.439 -1.7110  4.0773 -0.3389
  410MOL0     H55336  10.680   3.729   6.256 -1.9965  2.6983  4.2119
  410MOL0     H55337  10.525   3.541   6.185  0.7900  1.5331  2.2161
  410MOL0     H55338  10.086   3.621   6.134 -0.9222  1.1344  1.3022
  410MOL0     H55339  10.194   3.695   6.253 -0.0965 -1.1078  2.2562
  410MOL0     H55340  10.096   3.511   6.354  0.7475 -0.7607  0.4872
  410MOL0     H55341  10.250   3.461   6.329  0.7291  1.8135 -0.6418
  410MOL0     H55342  10.158   3.322   6.126 -0.2910  1.3122 -1.1726
  410MOL0     H55343   9.998   3.366   6.173  0.0959 -2.2860  2.1514
  410MOL0     H55344  10.061   3.147   6.246 -0.3277  0.3495 -0.0789
  410MOL0     H55345  10.199   3.202   6.325  0.3420  1.2997 -1.5222
  410MOL0     H55346   9.885   3.247   6.605 -1.8713  1.0441 -1.4304
  410MOL0     H55347  10.290   3.796   5.965 -0.3337  0.1065 -0.5752
  410MOL0     H55348  10.352   4.006   5.917  3.4567 -4.3491 -2.3224
  410MOL0     H55349  10.396   4.104   6.056  2.0558  2.6504 -1.4986
  410MOL0     H55350  10.530   4.073   5.941  1.9812 -0.8710  2.1374
  411MOL0     O55351   0.271   4.593   4.280  0.2271  1.2385 -0.4791
  411MOL0     C55352   0.314   4.567   4.398 -1.0043  0.1869 -0.8582
  411MOL0     O55353   0.304   4.658   4.503 -0.2929  0.1901 -0.1087
  411MOL0     C55354   0.183   4.709   4.521  0.2820 -0.3519 -0.5089
  411MOL0     C55355   0.067   4.637   4.525 -0.3920  0.8067 -0.4702
  411MOL0     C55356  -0.052   4.697   4.565  0.4554 -0.6219 -0.4280
  411MOL0     C55357  -0.054   4.835   4.601  0.2681  0.4954 -0.2685
  411MOL0     O55358  -0.175   4.900   4.636 -0.1812  0.1757 -0.1603
  411MOL0     C55359  -0.158   5.024   4.709 -0.2197  0.9549  0.9995
  411MOL0     C55360  -0.293   5.058   4.759  0.9340  0.6169  0.2708
  411MOL0     C55361  -0.378   5.132   4.655  0.0423  0.4921 -0.3874
  411MOL0     C55362  -0.534   5.141   4.688 -1.0371  0.1697  0.8329
  411MOL0     C55363  -0.609   5.216   4.564 -0.0385  0.3386  0.3010
  411MOL0     C55364  -0.758   5.200   4.582  0.2140 -0.1169 -0.3707
  411MOL0     C55365  -0.843   5.256   4.465 -0.0475  0.4872  0.0753
  411MOL0     C55366  -0.988   5.203   4.482 -1.3524 -0.8112  0.4813
  411MOL0     N55367  -1.069   5.241   4.367  0.5411 -0.1367 -0.2634
  411MOL0     C55368  -1.121   5.149   4.282 -1.1361 -0.2392  0.7038
  411MOL0     C55369  -1.154   5.219   4.168  0.4519 -0.3596 -0.0823
  411MOL0     C55370  -1.199   5.164   4.029 -0.5260 -0.6482  0.2857
  411MOL0     C55371  -1.157   5.252   3.909 -0.4222 -0.4148 -0.3495
  411MOL0     C55372  -1.253   5.361   3.876 -0.0567 -0.0487 -0.3223
  411MOL0     C55373  -1.391   5.320   3.830 -0.6616 -0.2995  0.2047
  411MOL0     O55374  -1.486   5.403   3.891 -0.2906  0.0367  0.6255
  411MOL0     C55375  -1.593   5.430   3.813 -1.0499 -0.0666  0.9153
  411MOL0     C55376  -1.651   5.549   3.835 -0.4621  0.0006  0.4967
  411MOL0     C55377  -1.745   5.595   3.737  1.4390 -0.4450  0.4379
  411MOL0     C55378  -1.801   5.510   3.637 -0.4762 -0.2758  0.4714
  411MOL0     C55379  -1.924   5.544   3.559 -0.3577 -0.2797  0.1788
  411MOL0     O55380  -1.959   5.679   3.534  0.0187  0.7310 -0.2092
  411MOL0     C55381  -2.066   5.717   3.458  0.6728  0.3948 -0.1756
  411MOL0     C55382  -2.141   5.637   3.370 -0.7421  0.4551  0.3933
  411MOL0     C55383  -2.250   5.699   3.302 -0.5820 -0.0827 -0.2198
  411MOL0     C55384  -2.277   5.838   3.306 -0.5331 -0.0179 -0.5244
  411MOL0     O55385  -2.385   5.881   3.223 -0.1314 -0.2891  0.0609
  411MOL0     C55386  -2.458   5.998   3.244 -0.0103  0.9559  0.6938
  411MOL0     C55387  -2.569   6.018   3.136  1.3061 -0.8331 -1.1015
  411MOL0     C55388  -2.516   5.994   2.993 -0.4033  0.7783 -0.2351
  411MOL0     C55389  -2.613   5.898   2.916  0.9617 -0.1606 -0.2041
  411MOL0     C55390  -2.566   5.863   2.770 -0.9348  0.1310  1.1054
  411MOL0     C55391  -2.437   5.775   2.769  0.1950 -0.3191  0.4150
  411MOL0     C55392  -2.397   5.747   2.627 -0.5700  0.6571  0.2521
  411MOL0     C55393  -2.249   5.702   2.618 -0.4606  0.2916  0.2275
  411MOL0    Cl55394  -2.246   5.546   2.526 -0.3459 -0.1954 -0.1840
  411MOL0     C55395  -2.203   5.914   3.402 -0.4524  0.9078 -0.0735
  411MOL0     C55396  -2.094   5.854   3.471  0.0089  0.5499 -0.4561
  411MOL0     O55397  -1.997   5.442   3.523 -0.6561  0.2590  0.0975
  411MOL0     C55398  -1.744   5.384   3.619  0.8082 -0.5061 -0.2094
  411MOL0     C55399  -1.639   5.341   3.711  0.6394  0.4407  0.5592
  411MOL0     N55400  -1.145   5.355   4.198 -0.5739 -0.5217 -0.0890
  411MOL0     N55401  -1.082   5.363   4.314  0.9166 -0.3969 -0.9668
  411MOL0     C55402   0.061   4.907   4.593 -0.4189 -0.5623  0.0557
  411MOL0     C55403   0.178   4.850   4.552 -0.9627 -0.4248 -0.8915
  411MOL0     C55404   0.399   4.451   4.428  0.0280 -0.1752  0.6833
  411MOL0     C55405   0.450   4.367   4.323 -0.4483  0.2758 -0.1110
  411MOL0     C55406   0.537   4.262   4.352  0.7301 -1.0965  0.2577
  411MOL0     C55407   0.583   4.234   4.477 -0.0884  0.5763  0.1250
  411MOL0     O55408   0.667   4.134   4.514 -0.6467  0.0186  0.4527
  411MOL0     C55409   0.703   4.030   4.423  0.8237 -0.6656 -0.0681
  411MOL0     C55410   0.806   4.078   4.320  0.7116  0.3763 -0.5820
  411MOL0     C55411   0.779   4.013   4.179 -0.0046  0.3397 -0.4545
  411MOL0     C55412   0.764   3.855   4.170  0.0050  0.4138 -0.0794
  411MOL0     C55413   0.889   3.787   4.220 -0.6356 -0.3485 -0.6204
  411MOL0     C55414   0.990   3.721   4.256  1.1893 -0.2095 -0.1701
  411MOL0     C55415   0.540   4.326   4.574  0.1402 -0.0241  0.1435
  411MOL0     C55416   0.452   4.426   4.558 -0.3194 -1.5842  0.0102
  411MOL0     C55417   0.410   4.497   4.686  0.1116 -0.0469 -0.2743
  411MOL0     H55418   0.051   4.534   4.496 -3.4797  0.6350  1.3128
  411MOL0     H55419  -0.141   4.637   4.585  0.2170  0.0642  0.6913
  411MOL0     H55420  -0.102   5.017   4.802 -1.3078 -1.1706  1.5394
  411MOL0     H55421  -0.121   5.102   4.641 -0.5417 -0.1493 -0.5033
  411MOL0     H55422  -0.281   5.123   4.847  2.8804  0.8801 -0.1327
  411MOL0     H55423  -0.340   4.963   4.784  1.7797 -0.2061 -1.1207
  411MOL0     H55424  -0.364   5.081   4.559  0.2517  1.8926 -1.1361
  411MOL0     H55425  -0.340   5.235   4.652 -1.7263  1.2025  0.1892
  411MOL0     H55426  -0.584   5.046   4.708 -2.2216  0.0677 -2.0752
  411MOL0     H55427  -0.542   5.204   4.777  3.5400 -0.2432  1.7848
  411MOL0     H55428  -0.567   5.315   4.583 -0.2278  0.1267  1.9743
  411MOL0     H55429  -0.571   5.186   4.466  3.6119 -1.1780  1.9932
  411MOL0     H55430  -0.777   5.092   4.582  2.2291 -0.5088  0.2699
  411MOL0     H55431  -0.797   5.252   4.670 -0.1648 -1.4459  0.2752
  411MOL0     H55432  -0.786   5.225   4.377 -1.3413 -0.6656 -0.4025
  411MOL0     H55433  -0.847   5.365   4.465  0.4120  0.5038  0.2241
  411MOL0     H55434  -0.976   5.096   4.498  3.3468 -0.4400  0.7425
  411MOL0     H55435  -1.031   5.253   4.569 -0.5706 -2.6410  1.9848
  411MOL0     H55436  -1.149   5.044   4.285 -2.1796 -0.1811 -2.6651
  411MOL0     H55437  -1.162   5.062   4.022 -2.9729 -1.8880  3.0198
  411MOL0     H55438  -1.308   5.151   4.032 -0.5603 -0.7952 -1.1135
  411MOL0     H55439  -1.056   5.291   3.926 -1.3251  1.7319  0.5979
  411MOL0     H55440  -1.153   5.197   3.815 -1.0155  2.4396 -2.1811
  411MOL0     H55441  -1.221   5.413   3.785  0.3845 -1.5842 -1.0980
  411MOL0     H55442  -1.253   5.432   3.959  0.9780 -0.3718 -0.0333
  411MOL0     H55443  -1.407   5.216   3.861  1.0095 -0.3023  1.1822
  411MOL0     H55444  -1.380   5.327   3.721  2.9727  1.3842  0.5327
  411MOL0     H55445  -1.616   5.620   3.910  0.8114  0.6848 -0.6990
  411MOL0     H55446  -1.776   5.699   3.743  1.6392 -0.4524  1.8111
  411MOL0     H55447  -2.131   5.530   3.356 -2.9270 -0.1932  2.9225
  411MOL0     H55448  -2.308   5.639   3.233 -0.4436 -3.0129  2.0344
  411MOL0     H55449  -2.503   5.988   3.343 -2.3683 -0.9846 -0.4793
  411MOL0     H55450  -2.386   6.081   3.245  3.2623 -1.6835  0.7781
  411MOL0     H55451  -2.648   5.949   3.167 -3.0555  3.2252 -2.0379
  411MOL0     H55452  -2.609   6.120   3.142 -0.7380 -1.5918 -0.8868
  411MOL0     H55453  -2.505   6.088   2.938  0.2569  0.3909 -0.7863
  411MOL0     H55454  -2.415   5.952   2.998 -1.8629 -2.9288  2.4093
  411MOL0     H55455  -2.716   5.934   2.908  0.8721 -0.6600 -1.5672
  411MOL0     H55456  -2.621   5.807   2.975 -0.3638 -1.8503 -2.7765
  411MOL0     H55457  -2.540   5.955   2.717  2.9726 -2.1041 -1.4246
  411MOL0     H55458  -2.646   5.818   2.710 -1.1970  1.7332  0.1964
  411MOL0     H55459  -2.356   5.831   2.817 -0.2353  1.4917 -0.8806
  411MOL0     H55460  -2.465   5.690   2.832 -1.8043  0.0875  0.1375
  411MOL0     H55461  -2.403   5.840   2.569  1.8669  1.0803  0.5925
  411MOL0     H55462  -2.462   5.669   2.585  1.9971  0.4723 -3.9929
  411MOL0     H55463  -2.199   5.788   2.572 -0.3139 -0.4672 -1.0678
  411MOL0     H55464  -2.220   5.675   2.720 -2.9772 -2.3595  0.3706
  411MOL0     H55465  -2.242   6.014   3.417  0.3439  1.1827  0.2283
  411MOL0     H55466  -2.027   5.904   3.540 -0.3358 -2.1031  1.9914
  411MOL0     H55467  -1.792   5.308   3.558 -0.2567  0.1188 -0.1703
  411MOL0     H55468  -1.603   5.240   3.695  0.2635  0.0090  2.2719
  411MOL0     H55469   0.081   5.012   4.613 -4.9613  0.1347  2.0256
  411MOL0     H55470   0.276   4.896   4.566 -0.9174  0.1408 -2.7571
  411MOL0     H55471   0.433   4.394   4.219 -4.3170  3.4503  1.1173
  411MOL0     H55472   0.580   4.205   4.270  1.1229 -1.3666  0.6480
  411MOL0     H55473   0.619   3.997   4.362  1.8221 -1.1378 -1.2391
  411MOL0     H55474   0.741   3.943   4.477  1.6083 -0.2879  0.0102
  411MOL0     H55475   0.898   4.026   4.349  1.7601  1.5118 -1.6936
  411MOL0     H55476   0.820   4.186   4.333 -0.6432  0.5413 -0.3499
  411MOL0     H55477   0.864   4.040   4.116 -0.0356  0.6520 -0.3642
  411MOL0     H55478   0.691   4.058   4.132  0.4069  1.8411  0.1720
  411MOL0     H55479   0.672   3.827   4.221 -2.4803 -1.7601 -5.1635
  411MOL0     H55480   0.761   3.831   4.064 -0.5982  1.9300 -0.4305
  411MOL0     H55481   1.067   3.653   4.287 -0.6733 -1.8545  1.1294
  411MOL0     H55482   0.568   4.311   4.678 -2.2238 -1.0892  0.7005
  411MOL0     H55483   0.302   4.510   4.683  0.3339  3.3229  1.3117
  411MOL0     H55484   0.421   4.423   4.766 -0.9605  0.8590  0.7481
  411MOL0     H55485   0.461   4.591   4.711 -0.3129  0.2902 -0.6565
  412MOL0     O55486   7.124   6.213   4.022  0.1326  0.3630 -0.2811
  412MOL0     C55487   7.245   6.201   4.012  0.1464  0.1228 -0.0696
  412MOL0     O55488   7.327   6.242   3.911  0.1171 -0.0876  0.2291
  412MOL0     C55489   7.267   6.259   3.788  0.8894 -0.0371 -0.5083
  412MOL0     C55490   7.219   6.387   3.753 -0.0544 -0.4772  0.5801
  412MOL0     C55491   7.167   6.419   3.624  0.4747  0.9020 -0.8156
  412MOL0     C55492   7.170   6.317   3.526 -0.4871  0.7007 -0.1999
  412MOL0     O55493   7.123   6.313   3.399  0.3510  0.2177  0.0185
  412MOL0     C55494   7.098   6.441   3.342  0.6833  0.1927 -0.2955
  412MOL0     C55495   7.079   6.414   3.193 -0.1805 -0.1884 -0.1984
  412MOL0     C55496   6.941   6.374   3.148  1.4280 -0.0353  0.0196
  412MOL0     C55497   6.934   6.360   2.996  0.6944  0.4232 -1.3555
  412MOL0     C55498   6.797   6.319   2.942 -0.3013 -0.0651 -0.1736
  412MOL0     C55499   6.794   6.314   2.791  1.5189 -0.3271 -1.1588
  412MOL0     C55500   6.659   6.273   2.730 -0.1472 -0.6157 -0.5106
  412MOL0     C55501   6.632   6.128   2.713  0.5423 -0.1834 -0.5924
  412MOL0     N55502   6.500   6.125   2.649  0.2361  0.0994  0.9233
  412MOL0     C55503   6.380   6.105   2.705 -0.4263 -0.8022 -0.4154
  412MOL0     C55504   6.292   6.080   2.605 -0.5923  0.7310  0.1303
  412MOL0     C55505   6.144   6.045   2.623 -0.0113 -0.1922  0.1179
  412MOL0     C55506   6.118   5.904   2.553  1.2345 -1.3432  0.3957
  412MOL0     C55507   5.989   5.843   2.601 -0.4218 -0.2201 -1.0867
  412MOL0     C55508   5.951   5.723   2.522  0.5504  0.3573 -0.3317
  412MOL0     O55509   5.819   5.680   2.566 -0.2738  0.6066 -0.0601
  412MOL0     C55510   5.759   5.564   2.526  0.2928  0.5908 -0.0209
  412MOL0     C55511   5.825   5.463   2.447  0.1113  0.8897 -0.3243
  412MOL0     C55512   5.771   5.343   2.419  0.1268  0.1538 -0.2375
  412MOL0     C55513   5.637   5.317   2.458 -1.2080  0.5741  0.7768
  412MOL0     C55514   5.575   5.198   2.403  0.3304 -0.2681  0.0028
  412MOL0     O55515   5.642   5.092   2.360 -0.0890 -0.3512 -0.5719
  412MOL0     C55516   5.595   4.962   2.331 -0.7021 -0.3877 -1.0305
  412MOL0     C55517   5.519   4.886   2.426  0.2022 -0.4598 -0.2135
  412MOL0     C55518   5.468   4.761   2.396 -0.8857 -0.5920  0.2711
  412MOL0     C55519   5.480   4.706   2.271 -0.7682  0.4780 -0.2848
  412MOL0     O55520   5.418   4.588   2.242 -0.5674 -0.0151 -0.1279
  412MOL0     C55521   5.474   4.490   2.146 -0.4364 -0.2326 -0.2011
  412MOL0     C55522   5.629   4.451   2.153 -0.0116  0.0931 -0.1264
  412MOL0     C55523   5.666   4.309   2.112 -0.2390  0.4029  0.2283
  412MOL0     C55524   5.657   4.285   1.962 -0.6213  0.0755 -0.0199
  412MOL0     C55525   5.667   4.134   1.920 -0.8453 -0.7302  0.0194
  412MOL0     C55526   5.559   4.036   1.983 -0.6843 -0.3190  0.8198
  412MOL0     C55527   5.566   3.898   1.907  0.3561  0.0630  0.1204
  412MOL0     C55528   5.678   3.801   1.975 -0.2206  0.6128  0.0567
  412MOL0    Cl55529   5.633   3.758   2.150  0.3312  0.4218 -0.2254
  412MOL0     C55530   5.557   4.780   2.176 -0.6659 -0.0281  0.2886
  412MOL0     C55531   5.610   4.905   2.205 -0.3068  0.3443  1.6175
  412MOL0     O55532   5.454   5.207   2.398  0.1403  0.2904  0.4399
  412MOL0     C55533   5.561   5.424   2.512 -0.2148  0.2682 -0.8833
  412MOL0     C55534   5.625   5.538   2.554 -1.3598  0.0330  0.4009
  412MOL0     N55535   6.363   6.079   2.485 -0.1866  0.8359  0.0064
  412MOL0     N55536   6.486   6.106   2.519  0.6466 -0.5056 -0.2797
  412MOL0     C55537   7.220   6.187   3.561  0.3973 -1.4368  0.3021
  412MOL0     C55538   7.262   6.153   3.689 -0.3305 -0.6831 -1.1360
  412MOL0     C55539   7.302   6.130   4.126 -0.4993  0.2409  0.3282
  412MOL0     C55540   7.253   6.008   4.181 -0.6282  0.2096  0.0738
  412MOL0     C55541   7.323   5.949   4.289  0.3144 -0.7599 -0.6613
  412MOL0     C55542   7.446   5.999   4.350 -0.4592  0.3064  0.6348
  412MOL0     O55543   7.507   5.924   4.448  0.1260  0.3516 -0.7377
  412MOL0     C55544   7.638   5.965   4.495  0.6788  0.0998 -0.2679
  412MOL0     C55545   7.649   5.934   4.648 -0.6171  0.4726  0.5690
  412MOL0     C55546   7.575   6.027   4.742  0.5608 -0.9823  0.5999
  412MOL0     C55547   7.581   5.971   4.886  0.1050  0.7160  0.4693
  412MOL0     C55548   7.711   5.980   4.953  0.5622  0.3431  0.6018
  412MOL0     C55549   7.811   5.996   5.022 -0.2201 -0.4492  0.2638
  412MOL0     C55550   7.488   6.120   4.293 -0.2358  0.6257 -0.5647
  412MOL0     C55551   7.418   6.189   4.193 -0.1802 -0.4349 -0.3364
  412MOL0     C55552   7.451   6.332   4.159  0.4681 -0.4552  0.4205
  412MOL0     H55553   7.220   6.471   3.822 -0.2112  3.3507 -3.5949
  412MOL0     H55554   7.123   6.516   3.603  0.4547  0.6861 -1.7931
  412MOL0     H55555   7.006   6.485   3.381  0.5804 -1.1262  1.0474
  412MOL0     H55556   7.183   6.510   3.350 -1.3878  2.7215  2.8182
  412MOL0     H55557   7.153   6.342   3.155 -1.0529 -0.8735 -0.6282
  412MOL0     H55558   7.104   6.509   3.146  0.8652 -1.1042 -1.5838
  412MOL0     H55559   6.867   6.450   3.177 -2.1006 -3.1541 -0.0288
  412MOL0     H55560   6.919   6.279   3.198  1.6274 -0.0797  0.0218
  412MOL0     H55561   6.976   6.449   2.947 -0.7112  1.2764 -1.0686
  412MOL0     H55562   6.995   6.275   2.965  0.1304  0.1695 -1.7726
  412MOL0     H55563   6.766   6.224   2.988  1.0450 -0.1583  0.5992
  412MOL0     H55564   6.724   6.396   2.969 -0.3910 -0.4710  0.8022
  412MOL0     H55565   6.803   6.412   2.744  1.7957  0.3554  0.2711
  412MOL0     H55566   6.876   6.251   2.755  2.6383 -0.5087  1.5226
  412MOL0     H55567   6.649   6.318   2.631  2.3996  1.1024 -0.1146
  412MOL0     H55568   6.588   6.327   2.793  1.7227  1.1662  0.2283
  412MOL0     H55569   6.706   6.081   2.648 -2.4594 -3.0748 -2.2379
  412MOL0     H55570   6.626   6.069   2.805 -0.6916  0.9237  0.0605
  412MOL0     H55571   6.354   6.108   2.811 -1.0447  2.5229 -0.5550
  412MOL0     H55572   6.108   6.037   2.725 -2.0506 -0.7128 -0.6059
  412MOL0     H55573   6.086   6.126   2.579  1.5257  1.8303  1.5970
  412MOL0     H55574   6.097   5.934   2.450  3.9508  1.6132  0.5681
  412MOL0     H55575   6.192   5.825   2.564 -1.8065 -4.7572 -1.5122
  412MOL0     H55576   5.917   5.925   2.604  1.4715  1.4947  1.3975
  412MOL0     H55577   5.996   5.808   2.704  1.3679 -0.2737 -1.1867
  412MOL0     H55578   6.011   5.635   2.542 -2.0499 -1.8367 -1.5595
  412MOL0     H55579   5.955   5.739   2.414  0.0934 -1.3535 -0.6336
  412MOL0     H55580   5.929   5.478   2.418  0.6130 -0.9384  0.3705
  412MOL0     H55581   5.834   5.266   2.376 -0.2122 -0.5346  0.4598
  412MOL0     H55582   5.511   4.930   2.525 -0.2368  2.0081 -1.2548
  412MOL0     H55583   5.419   4.702   2.473 -1.3538 -1.5701 -0.7601
  412MOL0     H55584   5.424   4.393   2.154  0.1015 -0.6646 -1.6541
  412MOL0     H55585   5.438   4.527   2.049 -2.2343  2.6103  1.4085
  412MOL0     H55586   5.696   4.526   2.111  0.2682  0.7882  1.5250
  412MOL0     H55587   5.650   4.449   2.260 -0.4500  2.3942  0.0565
  412MOL0     H55588   5.767   4.281   2.142 -0.6522 -2.3750 -0.6623
  412MOL0     H55589   5.604   4.236   2.164  2.7166 -2.0039  0.6171
  412MOL0     H55590   5.722   4.357   1.912  1.1707  0.1436  2.2118
  412MOL0     H55591   5.565   4.332   1.928  0.4208  0.3423 -2.7666
  412MOL0     H55592   5.767   4.100   1.948 -0.8849 -0.9685 -0.1195
  412MOL0     H55593   5.675   4.153   1.812  1.0885  4.6680  0.8175
  412MOL0     H55594   5.571   4.024   2.092 -1.6354 -1.2146  0.8492
  412MOL0     H55595   5.464   4.091   1.982  1.2843  3.3683  1.1107
  412MOL0     H55596   5.577   3.913   1.799 -2.3782 -1.2355 -0.4275
  412MOL0     H55597   5.466   3.856   1.921 -0.5166  1.9148 -0.2628
  412MOL0     H55598   5.693   3.709   1.917  0.3870  0.9906 -0.3939
  412MOL0     H55599   5.772   3.858   1.971 -0.2705  0.6738 -0.3910
  412MOL0     H55600   5.589   4.738   2.081  0.0580  1.6667 -0.2489
  412MOL0     H55601   5.652   4.969   2.128 -3.0970  1.7114  1.1310
  412MOL0     H55602   5.454   5.417   2.527 -0.3871 -1.7657 -2.5761
  412MOL0     H55603   5.567   5.616   2.603  0.3210  2.3407 -1.0456
  412MOL0     H55604   7.214   6.113   3.482  2.4781 -1.3500  0.0016
  412MOL0     H55605   7.300   6.055   3.716  1.7506 -0.0264 -1.5093
  412MOL0     H55606   7.163   5.963   4.142 -0.7825 -0.9756  1.6854
  412MOL0     H55607   7.277   5.856   4.320 -4.8080  0.6723 -2.9255
  412MOL0     H55608   7.663   6.071   4.482 -1.0620  0.5330 -0.2357
  412MOL0     H55609   7.714   5.905   4.444 -2.6806 -2.7311 -2.4124
  412MOL0     H55610   7.755   5.945   4.675 -0.6678  0.4548  0.7779
  412MOL0     H55611   7.641   5.826   4.661 -0.0368  0.6487  2.8280
  412MOL0     H55612   7.476   6.039   4.697  1.2573 -2.5012 -1.5362
  412MOL0     H55613   7.610   6.131   4.745 -2.6707  0.1860  0.9414
  412MOL0     H55614   7.506   6.022   4.947  0.7627  0.1791  1.7468
  412MOL0     H55615   7.555   5.865   4.870  4.0455 -0.6120  1.6525
  412MOL0     H55616   7.906   6.025   5.062 -0.2705  1.1622 -0.6900
  412MOL0     H55617   7.576   6.169   4.333 -0.0964 -1.0143  1.3347
  412MOL0     H55618   7.497   6.383   4.244 -1.1116  0.6286  0.6737
  412MOL0     H55619   7.515   6.342   4.071 -0.7542 -0.9238 -0.5396
  412MOL0     H55620   7.354   6.381   4.153 -0.3524 -2.1024 -0.4282
  413MOL0     O55621   4.818   3.357   0.305  0.2973  0.0858  0.2311
  413MOL0     C55622   4.752   3.454   0.268  0.7194  0.9997  0.1175
  413MOL0     O55623   4.789   3.543   0.174  0.1038 -0.3138  0.4177
  413MOL0     C55624   4.919   3.532   0.120  0.2294 -0.1203  0.0638
  413MOL0     C55625   5.042   3.507   0.189 -0.7223  0.3507  0.0046
  413MOL0     C55626   5.167   3.496   0.118  0.4637 -0.3356 -0.1775
  413MOL0     C55627   5.176   3.508  -0.021 -0.6315  0.1856 -0.8762
  413MOL0     O55628   5.295   3.491  -0.097  0.2547  0.4811  0.3779
  413MOL0     C55629   5.419   3.507  -0.029 -0.3392  0.0758  0.0894
  413MOL0     C55630   5.542   3.471  -0.132  0.5632 -0.4794  0.0895
  413MOL0     C55631   5.523   3.332  -0.198  0.0102  0.0295  0.1626
  413MOL0     C55632   5.643   3.307  -0.290  0.0897 -0.3239  0.1341
  413MOL0     C55633   5.610   3.185  -0.387 -0.5754  0.1227 -0.2217
  413MOL0     C55634   5.702   3.190  -0.515 -0.1601 -0.3390  1.1265
  413MOL0     C55635   5.633   3.118  -0.630 -0.1617  0.3164 -0.0709
  413MOL0     C55636   5.571   3.213  -0.728 -0.0406 -0.1018 -0.6739
  413MOL0     N55637   5.493   3.132  -0.828  0.5921 -0.2573 -0.2070
  413MOL0     C55638   5.372   3.069  -0.802 -0.0667 -0.3839 -0.1521
  413MOL0     C55639   5.351   2.988  -0.911 -0.6418  0.2418 -1.1584
  413MOL0     C55640   5.230   2.891  -0.927  0.8638 -0.1782  0.3626
  413MOL0     C55641   5.235   2.819  -1.064  0.0637  1.0294  0.9256
  413MOL0     C55642   5.124   2.711  -1.080 -0.0197  0.4340  0.2435
  413MOL0     C55643   5.138   2.639  -1.216 -0.4477  0.0079  0.3865
  413MOL0     O55644   5.036   2.539  -1.232 -0.2239 -0.5549 -0.5428
  413MOL0     C55645   4.985   2.530  -1.352 -0.2237 -0.3730  0.3938
  413MOL0     C55646   4.848   2.541  -1.372  0.4932  0.9730  0.5411
  413MOL0     C55647   4.793   2.545  -1.505  0.0866 -0.2730  0.9471
  413MOL0     C55648   4.883   2.543  -1.617  0.0110 -0.2658  0.1653
  413MOL0     C55649   4.833   2.556  -1.751 -0.1198  0.2529  0.5167
  413MOL0     O55650   4.923   2.590  -1.854 -0.5607  0.1050 -0.1629
  413MOL0     C55651   4.889   2.616  -1.984 -0.0212  0.1887  0.5907
  413MOL0     C55652   4.755   2.628  -2.033  0.1109 -0.1780 -0.5147
  413MOL0     C55653   4.738   2.640  -2.170  0.8977 -0.7321 -0.2397
  413MOL0     C55654   4.844   2.653  -2.259 -0.0957  0.7447 -0.8104
  413MOL0     O55655   4.804   2.656  -2.394 -0.2847  0.6487  0.5639
  413MOL0     C55656   4.903   2.689  -2.495  0.4382 -0.5872 -0.3253
  413MOL0     C55657   4.846   2.706  -2.637  0.1556  0.0407 -0.0105
  413MOL0     C55658   4.763   2.578  -2.673 -0.9238 -0.2132 -0.2060
  413MOL0     C55659   4.721   2.589  -2.816  0.3912 -0.5034  0.3249
  413MOL0     C55660   4.648   2.454  -2.858  0.3561 -0.3505 -0.6455
  413MOL0     C55661   4.650   2.442  -3.010 -0.1524 -0.0783  0.5661
  413MOL0     C55662   4.593   2.315  -3.053 -0.5554  0.4180 -0.5596
  413MOL0     C55663   4.621   2.286  -3.196 -0.3485 -0.2848  0.7696
  413MOL0    Cl55664   4.503   2.153  -3.250 -0.2904  0.0030  0.4713
  413MOL0     C55665   4.972   2.641  -2.208 -0.4247 -0.6339 -0.0063
  413MOL0     C55666   4.996   2.625  -2.072 -0.4074 -0.2656  0.8387
  413MOL0     O55667   4.713   2.535  -1.758  0.2929 -0.5306  0.5092
  413MOL0     C55668   5.018   2.535  -1.595  0.0921 -0.0226 -0.4536
  413MOL0     C55669   5.068   2.532  -1.469  0.3282 -0.1423 -0.1099
  413MOL0     N55670   5.462   2.992  -0.990  0.4605  0.4297  0.2149
  413MOL0     N55671   5.542   3.085  -0.949  0.0609  0.0756  1.1021
  413MOL0     C55672   5.057   3.540  -0.091  0.5316  0.2012 -0.1798
  413MOL0     C55673   4.934   3.559  -0.018  0.1514  0.3545 -1.2678
  413MOL0     C55674   4.609   3.451   0.307 -1.0135 -1.1487  0.8634
  413MOL0     C55675   4.559   3.342   0.382  0.8518  0.4760 -0.3263
  413MOL0     C55676   4.429   3.337   0.439 -0.3448  0.8233 -0.6231
  413MOL0     C55677   4.353   3.446   0.424  0.8931  0.4621  0.0683
  413MOL0     O55678   4.232   3.455   0.490  0.1941 -0.2232 -0.1808
  413MOL0     C55679   4.114   3.427   0.411  0.6743 -0.0945  0.0683
  413MOL0     C55680   4.083   3.283   0.381  0.2523  0.2248 -0.6905
  413MOL0     C55681   3.996   3.220   0.485  0.1328  0.3934 -0.2471
  413MOL0     C55682   4.096   3.178   0.597  0.0884  1.3413 -0.3416
  413MOL0     C55683   4.000   3.156   0.707 -0.0553  0.1946  0.2672
  413MOL0     C55684   3.920   3.125   0.786 -0.4705  1.0627  0.0402
  413MOL0     C55685   4.383   3.545   0.328 -0.5086  0.0129  0.6896
  413MOL0     C55686   4.511   3.555   0.277 -0.6412 -0.7361 -0.7312
  413MOL0     C55687   4.554   3.680   0.197  0.7244  0.3871 -0.5913
  413MOL0     H55688   5.036   3.490   0.296 -1.7666 -0.2491 -0.1445
  413MOL0     H55689   5.253   3.476   0.182 -0.3610 -3.0104  0.2389
  413MOL0     H55690   5.445   3.606   0.009  1.2194 -0.4754  0.5321
  413MOL0     H55691   5.429   3.439   0.055 -1.0711 -0.9819 -0.6617
  413MOL0     H55692   5.636   3.469  -0.077  0.4078 -3.3754  0.3776
  413MOL0     H55693   5.544   3.545  -0.213  1.2083  0.7219  1.1639
  413MOL0     H55694   5.437   3.328  -0.266  4.2474 -1.5912 -5.9126
  413MOL0     H55695   5.520   3.254  -0.122  0.5610  1.8758  2.1907
  413MOL0     H55696   5.672   3.391  -0.352 -0.6273 -0.7689 -0.8258
  413MOL0     H55697   5.733   3.287  -0.230  0.4184  0.4239 -0.1032
  413MOL0     H55698   5.639   3.091  -0.338  2.7428  0.4891 -1.2473
  413MOL0     H55699   5.503   3.182  -0.407 -0.6658  0.9683  0.0814
  413MOL0     H55700   5.703   3.294  -0.549 -1.2049 -0.9084 -0.8488
  413MOL0     H55701   5.800   3.147  -0.495  0.0585 -0.3031  0.1961
  413MOL0     H55702   5.553   3.054  -0.593 -0.6920  2.0187  1.8620
  413MOL0     H55703   5.703   3.056  -0.687 -0.3776  0.3525 -0.3785
  413MOL0     H55704   5.499   3.266  -0.666  0.1591 -0.3176 -0.2499
  413MOL0     H55705   5.647   3.276  -0.774 -0.5825 -1.0100 -2.9544
  413MOL0     H55706   5.302   3.081  -0.720  2.1225  0.0809  1.7728
  413MOL0     H55707   5.236   2.813  -0.851  0.3088  0.9241  1.5868
  413MOL0     H55708   5.133   2.941  -0.916  1.3156  1.4080 -2.1209
  413MOL0     H55709   5.228   2.900  -1.137  1.2796  2.8993  2.7458
  413MOL0     H55710   5.327   2.767  -1.091 -0.9049 -0.2061 -0.0965
  413MOL0     H55711   5.035   2.774  -1.071 -0.7950  0.0082 -3.2096
  413MOL0     H55712   5.122   2.644  -0.993 -1.1813  1.3470  0.9603
  413MOL0     H55713   5.232   2.584  -1.220  0.6190  1.8327 -1.0892
  413MOL0     H55714   5.146   2.720  -1.289 -1.4808 -0.4536 -0.2687
  413MOL0     H55715   4.783   2.528  -1.286 -0.9812  0.7744 -0.5584
  413MOL0     H55716   4.685   2.544  -1.519  0.2326  0.6870 -0.5225
  413MOL0     H55717   4.668   2.613  -1.971 -1.2873  1.5982 -1.9218
  413MOL0     H55718   4.640   2.663  -2.211  0.6743 -0.0486  0.6410
  413MOL0     H55719   4.930   2.790  -2.464 -1.4161  0.1489 -1.0068
  413MOL0     H55720   4.993   2.627  -2.485  0.0456 -0.8858  1.8251
  413MOL0     H55721   4.769   2.783  -2.632  0.6517  0.5626 -0.3296
  413MOL0     H55722   4.925   2.716  -2.712  0.0350 -3.1165 -0.7271
  413MOL0     H55723   4.827   2.490  -2.664 -0.9458 -0.0300  2.2388
  413MOL0     H55724   4.685   2.561  -2.599  1.0340 -1.2833  1.7372
  413MOL0     H55725   4.802   2.612  -2.885  2.6264 -0.5031  2.8087
  413MOL0     H55726   4.660   2.679  -2.830  0.0101 -0.7195  0.5627
  413MOL0     H55727   4.545   2.445  -2.824  1.0143 -2.6453  0.9596
  413MOL0     H55728   4.705   2.363  -2.839  1.1203 -1.1048 -5.3704
  413MOL0     H55729   4.591   2.524  -3.052 -0.2118 -0.4829 -0.1521
  413MOL0     H55730   4.753   2.446  -3.047  0.9211 -3.7891  2.6437
  413MOL0     H55731   4.484   2.323  -3.046 -0.4406  0.9478  0.9441
  413MOL0     H55732   4.617   2.232  -2.987 -0.7898  1.2316  0.5802
  413MOL0     H55733   4.605   2.374  -3.258  4.1534  1.5829  1.8550
  413MOL0     H55734   4.724   2.252  -3.209  0.2294  2.2432 -2.9987
  413MOL0     H55735   5.058   2.651  -2.274  0.3250  2.0600  1.2755
  413MOL0     H55736   5.099   2.605  -2.042  0.6013  1.8479 -0.9160
  413MOL0     H55737   5.086   2.517  -1.677 -1.0376 -0.8942 -1.2312
  413MOL0     H55738   5.176   2.528  -1.460  0.4431  3.0099  1.3998
  413MOL0     H55739   5.067   3.545  -0.199  1.1948 -1.0088 -0.1889
  413MOL0     H55740   4.846   3.582  -0.078 -0.2935 -0.2301 -0.8589
  413MOL0     H55741   4.619   3.254   0.400  1.7175  0.7399 -1.8185
  413MOL0     H55742   4.410   3.252   0.504  3.6093  2.2902  2.8817
  413MOL0     H55743   4.113   3.463   0.307  2.3174 -0.0155  0.0438
  413MOL0     H55744   4.024   3.475   0.449 -0.9781 -3.8074  1.2198
  413MOL0     H55745   4.166   3.212   0.374  0.1096  0.0825 -0.9583
  413MOL0     H55746   4.038   3.285   0.281  0.3154 -0.8168 -0.7453
  413MOL0     H55747   3.953   3.127   0.449 -0.4205  0.4834  0.1589
  413MOL0     H55748   3.911   3.278   0.523  1.2563  1.9518 -0.0205
  413MOL0     H55749   4.154   3.086   0.585 -1.2283  0.5585 -0.8997
  413MOL0     H55750   4.166   3.258   0.624  1.0940 -0.0267  1.3150
  413MOL0     H55751   3.857   3.092   0.866 -0.1735 -2.4604 -1.0106
  413MOL0     H55752   4.306   3.611   0.290 -1.0775 -0.6428  0.6861
  413MOL0     H55753   4.574   3.648   0.095  0.0234 -1.2238 -0.2442
  413MOL0     H55754   4.471   3.752   0.203  1.3326  0.9899  2.2467
  413MOL0     H55755   4.638   3.720   0.254  0.2833 -0.0207  0.3823
  414MOL0     O55756   8.898   3.534  10.434  0.6253  1.2738  0.2934
  414MOL0     C55757   8.996   3.456  10.404  0.0662 -0.2149  0.1169
  414MOL0     O55758   9.020   3.338  10.475 -0.6873 -0.0258  0.8419
  414MOL0     C55759   8.957   3.324  10.587  0.6025 -0.4842  0.7182
  414MOL0     C55760   8.983   3.409  10.694  0.4503  0.2312  0.8089
  414MOL0     C55761   8.926   3.377  10.819 -1.1996 -0.5150  0.5228
  414MOL0     C55762   8.847   3.273  10.841  0.2517 -0.0507  0.6657
  414MOL0     O55763   8.799   3.231  10.960  0.2943 -0.6707 -0.3133
  414MOL0     C55764   8.724   3.317  11.044 -0.0430  0.0282  0.4931
  414MOL0     C55765   8.641   3.243  11.153 -0.6399 -0.1103  0.8127
  414MOL0     C55766   8.705   3.121  11.218 -0.7176 -0.4158 -0.1971
  414MOL0     C55767   8.608   3.070  11.330  0.2210 -0.3238 -0.2605
  414MOL0     C55768   8.656   2.932  11.381  0.2502 -0.3326 -0.4044
  414MOL0     C55769   8.556   2.862  11.473 -0.1712  0.1617 -0.0973
  414MOL0     C55770   8.556   2.921  11.612 -0.7999  0.2340 -0.9670
  414MOL0     C55771   8.488   2.829  11.714 -0.3707  0.5356 -1.3189
  414MOL0     N55772   8.493   2.899  11.841 -0.1104  1.0307 -0.9104
  414MOL0     C55773   8.613   2.899  11.916  0.2188 -1.0251  0.5379
  414MOL0     C55774   8.591   2.997  12.013 -0.3825  0.6404 -1.1459
  414MOL0     C55775   8.685   3.043  12.125  0.3445  0.8223  0.4880
  414MOL0     C55776   8.708   2.918  12.227 -0.0994 -0.0421  0.1915
  414MOL0     C55777   8.825   2.946  12.312 -0.2668  0.3252 -0.6816
  414MOL0     C55778   8.780   3.053  12.413  0.0105 -0.1052 -0.5382
  414MOL0     O55779   8.890   3.083  12.494  0.4079 -0.0054 -0.4026
  414MOL0     C55780   8.876   3.180  12.591  0.5078 -0.0033  0.0859
  414MOL0     C55781   8.968   3.197  12.701 -0.6334 -0.3596  0.6689
  414MOL0     C55782   8.949   3.285  12.810  0.0698  0.6385 -0.4263
  414MOL0     C55783   8.850   3.384  12.797 -1.1401  0.0607  1.1304
  414MOL0     C55784   8.825   3.477  12.910 -0.0562 -0.3633 -0.1747
  414MOL0     O55785   8.922   3.478  13.007 -0.5329 -0.5814 -0.0830
  414MOL0     C55786   8.898   3.562  13.110  0.3471  0.3223 -0.1451
  414MOL0     C55787   9.001   3.637  13.157 -0.2879 -1.0037 -0.1404
  414MOL0     C55788   8.979   3.740  13.260  0.4484 -0.7906  0.5095
  414MOL0     C55789   8.861   3.743  13.327  1.3651  0.0423  0.4568
  414MOL0     O55790   8.853   3.822  13.439  0.2216 -0.0512 -0.4882
  414MOL0     C55791   8.742   3.914  13.443 -0.1742  1.1569  0.4306
  414MOL0     C55792   8.650   3.866  13.551 -0.4458 -0.2489 -0.1626
  414MOL0     C55793   8.619   3.971  13.664  0.6857 -0.8895  0.2611
  414MOL0     C55794   8.566   3.907  13.791  0.3404  0.7385  0.2781
  414MOL0     C55795   8.511   4.014  13.880 -0.1094 -0.0820 -0.2619
  414MOL0     C55796   8.462   3.940  13.995 -0.1135 -0.2108 -0.5288
  414MOL0     C55797   8.415   4.044  14.093  1.3355  0.3401  0.0424
  414MOL0     C55798   8.375   3.976  14.216 -0.2384 -0.3334 -0.2736
  414MOL0    Cl55799   8.280   4.096  14.321  0.0657  0.0053  0.7096
  414MOL0     C55800   8.754   3.657  13.285 -0.4484  0.8600 -0.3420
  414MOL0     C55801   8.769   3.580  13.170 -0.5248  0.5670  0.5510
  414MOL0     O55802   8.731   3.558  12.906  0.2301  0.3935 -0.0761
  414MOL0     C55803   8.770   3.384  12.681  0.6651 -0.2357 -0.2384
  414MOL0     C55804   8.781   3.291  12.580 -0.3654  0.2115 -0.2922
  414MOL0     N55805   8.459   3.041  11.990 -0.0056  0.7649 -0.1259
  414MOL0     N55806   8.403   2.987  11.888 -0.4648 -0.0361 -0.1131
  414MOL0     C55807   8.824   3.190  10.737 -0.4942  0.1745 -0.1912
  414MOL0     C55808   8.873   3.215  10.609 -0.6727  0.1143 -0.1247
  414MOL0     C55809   9.106   3.511  10.312 -0.1101 -0.2568 -0.6294
  414MOL0     C55810   9.121   3.651  10.308  0.5734 -0.5281 -0.0420
  414MOL0     C55811   9.223   3.721  10.235 -0.1634  0.1399 -0.1283
  414MOL0     C55812   9.329   3.641  10.190 -0.1775  0.1626  0.0335
  414MOL0     O55813   9.443   3.684  10.116  0.6508  0.7963  0.2516
  414MOL0     C55814   9.445   3.822  10.088 -0.7037 -0.0586  1.3861
  414MOL0     C55815   9.532   3.829   9.956 -0.9013  0.2304 -0.1048
  414MOL0     C55816   9.678   3.806   9.985 -0.2095  0.5630  0.3444
  414MOL0     C55817   9.753   3.840   9.852 -0.0284 -0.6205 -1.0064
  414MOL0     C55818   9.895   3.811   9.857 -1.1225 -0.5014 -0.3880
  414MOL0     C55819  10.012   3.773   9.837 -0.2499 -0.4049 -0.2819
  414MOL0     C55820   9.316   3.501  10.188 -0.3276  0.0848 -0.3225
  414MOL0     C55821   9.209   3.435  10.245 -0.4215  1.4652 -0.2695
  414MOL0     C55822   9.200   3.284  10.231 -0.2845 -0.0461 -0.5804
  414MOL0     H55823   9.043   3.498  10.685 -1.1914  1.2176 -1.1658
  414MOL0     H55824   8.955   3.438  10.904 -0.4791  0.4565 -0.3941
  414MOL0     H55825   8.789   3.387  11.098 -0.3234  0.4832  0.2554
  414MOL0     H55826   8.661   3.385  10.985 -0.5055 -0.7407  0.0893
  414MOL0     H55827   8.553   3.203  11.101  1.1891 -0.0480 -2.5771
  414MOL0     H55828   8.613   3.323  11.222  1.4752  1.7042 -0.3138
  414MOL0     H55829   8.800   3.145  11.267  0.4962  0.8869 -2.9322
  414MOL0     H55830   8.714   3.044  11.141 -4.9399  0.3266 -1.6673
  414MOL0     H55831   8.616   3.128  11.423  0.1473 -1.5508  0.5232
  414MOL0     H55832   8.502   3.070  11.302 -0.9455 -0.9214  3.4564
  414MOL0     H55833   8.672   2.862  11.299  1.3559 -1.1585  0.4824
  414MOL0     H55834   8.746   2.949  11.440 -0.3470  3.5838 -0.3902
  414MOL0     H55835   8.455   2.879  11.436  0.8369 -0.9057 -3.6577
  414MOL0     H55836   8.581   2.756  11.470 -0.6836 -0.0069  0.9064
  414MOL0     H55837   8.499   3.014  11.620 -0.7656  0.1877 -0.0518
  414MOL0     H55838   8.658   2.934  11.652 -0.1804  0.6149 -2.5940
  414MOL0     H55839   8.383   2.807  11.691 -0.8216 -1.6381  1.9941
  414MOL0     H55840   8.528   2.727  11.721 -4.9087 -1.4016  3.0663
  414MOL0     H55841   8.703   2.837  11.918  0.5884 -0.6254 -1.4962
  414MOL0     H55842   8.780   3.075  12.081 -0.4421  3.4079  0.4790
  414MOL0     H55843   8.644   3.135  12.168 -1.3751 -0.2734  1.3202
  414MOL0     H55844   8.621   2.894  12.288  0.6232 -1.6212  0.6545
  414MOL0     H55845   8.722   2.826  12.170  2.4733  0.5712 -0.3271
  414MOL0     H55846   8.904   2.977  12.244 -1.5399  0.4476 -2.1552
  414MOL0     H55847   8.865   2.868  12.377  3.1383  1.3379 -1.3898
  414MOL0     H55848   8.696   3.008  12.467 -1.1733 -0.2946 -2.4492
  414MOL0     H55849   8.745   3.146  12.367 -1.7166  1.5788  3.6388
  414MOL0     H55850   9.036   3.114  12.717  0.0812  0.1714  0.4284
  414MOL0     H55851   9.028   3.282  12.884  1.2608 -1.4683 -1.6790
  414MOL0     H55852   9.105   3.635  13.128  0.8069  0.6724  3.1306
  414MOL0     H55853   9.057   3.806  13.296 -1.2019  1.2340  0.5077
  414MOL0     H55854   8.804   4.002  13.465  2.1659  0.2427 -1.8899
  414MOL0     H55855   8.684   3.932  13.352  1.2291  3.8936 -0.0386
  414MOL0     H55856   8.561   3.837  13.495 -1.8074  0.3698  1.5876
  414MOL0     H55857   8.683   3.774  13.601 -2.6646 -1.0803 -0.0950
  414MOL0     H55858   8.698   4.038  13.699 -2.0799  2.0926  1.2880
  414MOL0     H55859   8.545   4.034  13.614 -0.0320 -1.6970  0.2758
  414MOL0     H55860   8.645   3.845  13.834 -0.0774 -2.6876 -3.2915
  414MOL0     H55861   8.488   3.838  13.758  4.0122 -2.6969 -2.2029
  414MOL0     H55862   8.430   4.068  13.830 -1.5985 -2.1055 -0.1808
  414MOL0     H55863   8.583   4.090  13.911 -0.2529 -0.5264  1.2175
  414MOL0     H55864   8.383   3.871  13.962  2.6420 -3.0554 -1.6880
  414MOL0     H55865   8.539   3.872  14.030 -0.0023 -0.1055 -0.5666
  414MOL0     H55866   8.327   4.095  14.054  3.4133  4.8418  0.5781
  414MOL0     H55867   8.487   4.120  14.127 -0.3622  0.3911  4.1220
  414MOL0     H55868   8.308   3.890  14.210 -4.6324  2.3107  3.8921
  414MOL0     H55869   8.473   3.961  14.264 -1.2340  2.5574  3.0967
  414MOL0     H55870   8.664   3.669  13.344  1.5165  1.5257  2.7622
  414MOL0     H55871   8.679   3.535  13.130 -0.7369  2.1368 -0.8475
  414MOL0     H55872   8.697   3.463  12.667  0.1892 -0.3630  1.3585
  414MOL0     H55873   8.709   3.312  12.501 -0.9768  2.8916  0.8488
  414MOL0     H55874   8.759   3.103  10.736  0.3861 -0.5097  0.5383
  414MOL0     H55875   8.856   3.143  10.530  4.0888 -1.9753  0.3841
  414MOL0     H55876   9.047   3.718  10.351  0.0101  0.2684 -2.1033
  414MOL0     H55877   9.219   3.829  10.228  1.0072  0.2993  1.2067
  414MOL0     H55878   9.493   3.883  10.165  1.6460  2.6086 -1.8898
  414MOL0     H55879   9.348   3.866  10.061  0.3012  1.0722 -0.6235
  414MOL0     H55880   9.530   3.935   9.929  1.0413  1.2507  3.1732
  414MOL0     H55881   9.484   3.766   9.881 -0.5496 -1.9446  1.4013
  414MOL0     H55882   9.683   3.701  10.014  0.5105  0.1398 -1.2191
  414MOL0     H55883   9.709   3.870  10.069 -1.5625 -0.2617  1.5199
  414MOL0     H55884   9.718   3.776   9.770  1.2615 -1.3077 -1.0374
  414MOL0     H55885   9.736   3.941   9.812  0.3163  0.3642  1.2089
  414MOL0     H55886  10.113   3.747   9.810 -0.7210  0.9397 -3.8967
  414MOL0     H55887   9.390   3.432  10.150  1.1122 -0.3595  2.9534
  414MOL0     H55888   9.093   3.261  10.229 -0.1755 -1.1994  2.1210
  414MOL0     H55889   9.241   3.238  10.140 -1.6322  0.7655 -1.6284
  414MOL0     H55890   9.243   3.246  10.325 -2.0241  1.2872  0.8202
  415MOL0     O55891   1.712   7.468   2.175 -0.2564 -0.7121  0.3415
  415MOL0     C55892   1.739   7.451   2.290  0.8753 -0.0211  1.0482
  415MOL0     O55893   1.649   7.417   2.379  0.6570 -0.0952 -0.2873
  415MOL0     C55894   1.523   7.386   2.329 -1.3547  0.3887 -0.1853
  415MOL0     C55895   1.444   7.490   2.274  0.1265 -1.1564 -0.6097
  415MOL0     C55896   1.334   7.459   2.194 -0.1936  0.3401  0.5905
  415MOL0     C55897   1.300   7.325   2.176  0.2120 -0.0902  0.4100
  415MOL0     O55898   1.195   7.297   2.097 -1.2156 -0.1661 -0.0161
  415MOL0     C55899   1.160   7.166   2.037 -1.0434  0.0697 -0.3643
  415MOL0     C55900   1.188   7.139   1.888  0.2536  0.0754  0.1390
  415MOL0     C55901   1.138   6.999   1.852  0.0072 -0.3754 -0.0681
  415MOL0     C55902   1.200   6.883   1.932 -0.9025 -0.2322 -0.2145
  415MOL0     C55903   1.125   6.752   1.887  0.4015  1.3405 -0.2476
  415MOL0     C55904   1.136   6.705   1.740  0.3386 -1.5652  0.1865
  415MOL0     C55905   1.281   6.679   1.708 -0.3206  0.2641  0.0512
  415MOL0     C55906   1.350   6.560   1.774 -1.1221  0.3873 -0.7038
  415MOL0     N55907   1.267   6.437   1.776 -0.1576  0.0664  0.2811
  415MOL0     C55908   1.206   6.394   1.892 -0.4588 -1.4521 -0.2765
  415MOL0     C55909   1.117   6.295   1.859  0.5783 -0.9934  0.0703
  415MOL0     C55910   1.034   6.216   1.954  0.5164 -0.3172 -0.2025
  415MOL0     C55911   1.053   6.069   1.929  0.7437  0.5657 -0.2959
  415MOL0     C55912   1.016   5.984   2.055 -0.0010 -1.3062 -0.2443
  415MOL0     C55913   1.076   5.842   2.045 -0.0805 -0.5243 -0.0558
  415MOL0     O55914   0.999   5.760   1.959 -0.1490 -0.1368 -0.8688
  415MOL0     C55915   0.912   5.673   2.017  0.1028  0.3945  0.1218
  415MOL0     C55916   0.890   5.547   1.956  0.1417 -0.1345  0.3819
  415MOL0     C55917   0.822   5.446   2.009 -0.8706  0.0800 -1.1570
  415MOL0     C55918   0.757   5.465   2.140 -0.0654 -0.2274  0.0947
  415MOL0     C55919   0.685   5.346   2.199 -0.6354 -0.6201  0.6399
  415MOL0     O55920   0.707   5.241   2.135 -0.7318  0.6383 -0.1428
  415MOL0     C55921   0.627   5.130   2.167 -0.5602  0.1315  0.0690
  415MOL0     C55922   0.493   5.115   2.119 -0.4609 -0.7024  1.1619
  415MOL0     C55923   0.422   4.996   2.155  0.0033 -0.3863  0.7257
  415MOL0     C55924   0.484   4.896   2.229  0.3891 -1.0473 -1.1068
  415MOL0     O55925   0.432   4.769   2.260 -0.2528 -0.6469 -0.1370
  415MOL0     C55926   0.308   4.786   2.322  0.5545 -0.6183 -1.0255
  415MOL0     C55927   0.288   4.651   2.388 -0.7368 -0.1885 -0.9909
  415MOL0     C55928   0.161   4.618   2.465 -0.4866 -0.1267 -0.2131
  415MOL0     C55929   0.061   4.537   2.387  0.5306  0.6520  0.0985
  415MOL0     C55930  -0.051   4.491   2.485 -0.8810  0.0804 -0.1333
  415MOL0     C55931  -0.138   4.603   2.534  0.6020 -0.0482  1.1254
  415MOL0     C55932  -0.209   4.564   2.649 -0.0070 -0.8799 -0.9621
  415MOL0     C55933  -0.287   4.686   2.698 -0.0949 -0.3496  0.5176
  415MOL0    Cl55934  -0.358   4.674   2.853 -0.3049 -0.2990 -0.0240
  415MOL0     C55935   0.605   4.918   2.277  0.7926 -0.4662 -0.2785
  415MOL0     C55936   0.675   5.026   2.243 -1.6586  0.0720  0.3002
  415MOL0     O55937   0.606   5.364   2.292 -0.7190  0.3237 -0.4416
  415MOL0     C55938   0.762   5.595   2.192  0.4617  0.5503 -0.7054
  415MOL0     C55939   0.835   5.695   2.129  0.1492 -0.8787 -0.6553
  415MOL0     N55940   1.126   6.283   1.720  0.1011 -0.0241 -1.3618
  415MOL0     N55941   1.207   6.370   1.674  0.6886  0.7954  0.4859
  415MOL0     C55942   1.369   7.230   2.252 -0.0803  1.0475 -0.2507
  415MOL0     C55943   1.481   7.260   2.326  0.1667  0.1323 -0.8362
  415MOL0     C55944   1.870   7.467   2.344 -0.0211 -0.1714  0.3817
  415MOL0     C55945   1.888   7.474   2.482  0.1251  0.1848 -0.2313
  415MOL0     C55946   2.013   7.481   2.534  0.2682  0.0619 -0.3207
  415MOL0     C55947   2.126   7.494   2.464 -0.9140 -0.3121  0.0791
  415MOL0     O55948   2.255   7.512   2.520  0.6613  0.8991  0.1190
  415MOL0     C55949   2.281   7.458   2.651 -0.4880  0.3223 -0.5053
  415MOL0     C55950   2.292   7.300   2.660 -0.4314  0.4120  0.3058
  415MOL0     C55951   2.431   7.254   2.610 -0.5346  0.5536 -0.1115
  415MOL0     C55952   2.437   7.111   2.564 -0.4507  0.5453  0.2561
  415MOL0     C55953   2.570   7.083   2.524 -0.1052 -0.5795  0.2524
  415MOL0     C55954   2.684   7.085   2.471  0.7216 -0.3426  0.4393
  415MOL0     C55955   2.121   7.499   2.325  0.6691 -0.2933  0.7907
  415MOL0     C55956   1.995   7.480   2.259  1.2271  0.5677 -0.5331
  415MOL0     C55957   1.990   7.480   2.111 -0.3774 -0.5497 -0.6675
  415MOL0     H55958   1.473   7.590   2.305 -0.3229 -1.0554 -0.5122
  415MOL0     H55959   1.276   7.531   2.138  0.9183  0.2087 -0.7758
  415MOL0     H55960   1.212   7.090   2.096 -1.4944  0.1440  0.1347
  415MOL0     H55961   1.056   7.151   2.068 -0.5305 -2.2926  0.4735
  415MOL0     H55962   1.294   7.152   1.863  0.9617 -3.8819  0.4523
  415MOL0     H55963   1.126   7.220   1.849 -0.2488  0.7201  2.1461
  415MOL0     H55964   1.129   6.983   1.744  0.6843  1.9485 -0.5241
  415MOL0     H55965   1.034   7.002   1.887 -0.4820 -3.5418 -0.9668
  415MOL0     H55966   1.309   6.879   1.921 -0.8242  2.6145 -1.3431
  415MOL0     H55967   1.183   6.906   2.038  4.3618  1.1785  0.6276
  415MOL0     H55968   1.153   6.673   1.957  0.4536  1.3388 -0.2701
  415MOL0     H55969   1.019   6.769   1.912 -0.0825 -0.1417 -1.1458
  415MOL0     H55970   1.069   6.618   1.736  0.7024 -2.1032  3.2887
  415MOL0     H55971   1.097   6.784   1.675  4.1445 -0.4903 -1.0291
  415MOL0     H55972   1.348   6.764   1.725  0.6114 -0.4228 -0.0682
  415MOL0     H55973   1.277   6.665   1.600 -1.5906 -1.8763  0.3113
  415MOL0     H55974   1.439   6.549   1.713 -0.3763  2.6019 -0.1038
  415MOL0     H55975   1.391   6.576   1.874 -1.0632  0.1875 -0.6947
  415MOL0     H55976   1.233   6.437   1.988 -3.4714  0.4078 -0.1262
  415MOL0     H55977   1.072   6.228   2.057  1.3386 -1.7251 -0.3217
  415MOL0     H55978   0.929   6.245   1.957  0.4389 -0.6410  0.6020
  415MOL0     H55979   0.993   6.037   1.843 -1.4183  0.6787  1.1109
  415MOL0     H55980   1.160   6.045   1.926  0.5270 -0.4193 -0.5843
  415MOL0     H55981   0.909   5.996   2.074  0.3828  0.1590  1.1631
  415MOL0     H55982   1.074   6.022   2.139 -2.3557  0.9796  0.4603
  415MOL0     H55983   1.089   5.792   2.142 -1.8084  0.4674  0.7159
  415MOL0     H55984   1.180   5.852   2.010  0.1091  1.3048  0.9077
  415MOL0     H55985   0.927   5.533   1.855  1.2000  2.3148  0.3522
  415MOL0     H55986   0.820   5.356   1.949  5.4188 -0.4677 -1.1874
  415MOL0     H55987   0.453   5.189   2.051 -0.3826 -3.8671 -2.7278
  415MOL0     H55988   0.317   4.976   2.135 -1.5128  1.6327  5.3370
  415MOL0     H55989   0.321   4.869   2.392  3.0244 -0.2056 -1.8534
  415MOL0     H55990   0.235   4.804   2.244  0.7025  1.1053 -0.8093
  415MOL0     H55991   0.313   4.580   2.309 -1.3086  0.0604 -1.4067
  415MOL0     H55992   0.363   4.660   2.467 -1.4922 -2.5009  0.0690
  415MOL0     H55993   0.194   4.562   2.553 -1.5867 -0.0429  0.2708
  415MOL0     H55994   0.119   4.713   2.501  1.4811  0.9703 -0.6916
  415MOL0     H55995   0.104   4.452   2.334 -2.4049 -0.3319 -0.9167
  415MOL0     H55996   0.012   4.595   2.308 -2.5247 -2.0333 -0.1938
  415MOL0     H55997   0.003   4.442   2.567  1.4470 -0.2355 -1.7553
  415MOL0     H55998  -0.106   4.413   2.431  0.3881  0.5064 -2.1240
  415MOL0     H55999  -0.087   4.699   2.542  0.4762  0.3028 -1.3531
  415MOL0     H56000  -0.220   4.612   2.461  0.7025  0.4281  1.0722
  415MOL0     H56001  -0.142   4.529   2.728  2.2299 -2.8275 -3.5396
  415MOL0     H56002  -0.273   4.475   2.641 -3.2286  0.8783  2.2779
  415MOL0     H56003  -0.217   4.770   2.693 -0.6423  0.1499  1.0589
  415MOL0     H56004  -0.369   4.689   2.624  0.4222 -0.6822 -0.0794
  415MOL0     H56005   0.645   4.848   2.351  0.1315 -0.4825  0.0674
  415MOL0     H56006   0.776   5.052   2.275 -1.7849  1.6291 -0.4617
  415MOL0     H56007   0.725   5.627   2.289  3.1289  0.2722  0.4760
  415MOL0     H56008   0.840   5.793   2.175 -1.3587 -1.4785  0.9042
  415MOL0     H56009   1.336   7.127   2.256  0.4047  0.9333  1.8138
  415MOL0     H56010   1.539   7.189   2.383 -2.7090 -1.2237  0.5887
  415MOL0     H56011   1.799   7.469   2.543 -0.0526 -3.2427 -0.5822
  415MOL0     H56012   2.027   7.481   2.641  2.6334  1.0603 -0.5618
  415MOL0     H56013   2.214   7.494   2.730 -0.1039 -0.7896  0.3536
  415MOL0     H56014   2.369   7.512   2.686 -1.4798  3.4492 -2.3461
  415MOL0     H56015   2.206   7.256   2.609  0.1303 -2.1623  1.3743
  415MOL0     H56016   2.296   7.268   2.765 -1.5967  1.6178  0.7392
  415MOL0     H56017   2.507   7.284   2.683 -0.6093  3.5473 -1.1392
  415MOL0     H56018   2.451   7.320   2.525  2.8524 -0.0792  0.0342
  415MOL0     H56019   2.409   7.043   2.645 -2.7054 -0.0031 -0.9000
  415MOL0     H56020   2.372   7.097   2.477 -1.4369 -0.2430  1.0916
  415MOL0     H56021   2.780   7.083   2.424 -0.0076  0.7842 -1.1542
  415MOL0     H56022   2.218   7.514   2.279  0.4713 -2.9932 -0.6657
  415MOL0     H56023   1.928   7.399   2.071 -1.2454  0.9679 -2.5579
  415MOL0     H56024   1.945   7.570   2.067  0.1558  1.0281  1.8501
  415MOL0     H56025   2.091   7.477   2.071 -0.0951 -1.1117  0.0645
  416MOL0     O56026   2.329   8.795   9.432  0.7159 -0.6137  0.0067
  416MOL0     C56027   2.297   8.744   9.328  1.0763  0.2965  0.2808
  416MOL0     O56028   2.371   8.730   9.214 -0.6050 -0.0728 -0.4594
  416MOL0     C56029   2.498   8.792   9.217  0.3655 -0.5126  0.2177
  416MOL0     C56030   2.527   8.926   9.184 -0.0153 -0.4022 -0.4447
  416MOL0     C56031   2.660   8.975   9.197 -0.0271 -0.3916 -0.6463
  416MOL0     C56032   2.759   8.897   9.259 -0.2192  0.5824  0.2609
  416MOL0     O56033   2.888   8.943   9.273 -0.4054 -0.0024  0.9351
  416MOL0     C56034   2.940   8.953   9.407  0.1371 -0.2960  0.3166
  416MOL0     C56035   3.033   9.071   9.413 -0.0132  0.0693  0.1043
  416MOL0     C56036   2.955   9.214   9.408 -0.2133 -0.0409 -0.4851
  416MOL0     C56037   3.066   9.319   9.444 -1.8237 -0.3160  0.0329
  416MOL0     C56038   3.019   9.460   9.441  0.4641  0.5855  1.0592
  416MOL0     C56039   3.128   9.570   9.472  0.2544  0.3021 -0.5847
  416MOL0     C56040   3.086   9.710   9.415 -0.1732 -0.5672  0.7747
  416MOL0     C56041   2.961   9.769   9.478  0.0363  0.3625 -0.5572
  416MOL0     N56042   2.950   9.735   9.624  1.0930 -0.1728  1.2899
  416MOL0     C56043   3.027   9.785   9.720 -0.3987 -0.2402  0.0411
  416MOL0     C56044   2.960   9.756   9.835  0.0448  0.4298 -0.7166
  416MOL0     C56045   2.983   9.791   9.982 -0.3666  0.8260 -0.1244
  416MOL0     C56046   3.092   9.713  10.058 -0.1096  1.0276 -0.6040
  416MOL0     C56047   3.110   9.754  10.206  0.3281 -0.0469 -0.0656
  416MOL0     C56048   2.981   9.777  10.304 -0.4636 -0.6611  0.0404
  416MOL0     O56049   2.886   9.671  10.284  0.0925  0.1469 -0.0136
  416MOL0     C56050   2.917   9.539  10.309  0.1288  0.2143  0.5720
  416MOL0     C56051   2.856   9.439  10.227  1.0305 -0.8248  0.6968
  416MOL0     C56052   2.898   9.309  10.221  1.0261  0.6250  0.4578
  416MOL0     C56053   2.996   9.262  10.308  0.2960 -0.3463  0.1225
  416MOL0     C56054   3.051   9.125  10.294  0.8695 -0.2590  0.3231
  416MOL0     O56055   3.175   9.091  10.340  0.3148  0.0407 -0.2002
  416MOL0     C56056   3.206   8.952  10.331 -0.2708  0.1583 -1.0001
  416MOL0     C56057   3.317   8.907  10.253 -0.8483  0.0376 -0.5697
  416MOL0     C56058   3.336   8.773  10.231 -0.3986 -0.0007 -0.0345
  416MOL0     C56059   3.242   8.675  10.280 -0.0059  0.8027 -0.2448
  416MOL0     O56060   3.248   8.544  10.241 -0.1329  0.4231 -0.9964
  416MOL0     C56061   3.190   8.523  10.108  0.0330  0.1186 -0.5073
  416MOL0     C56062   3.222   8.393  10.054  0.1240  0.2581 -0.4782
  416MOL0     C56063   3.369   8.388  10.003  0.7335  0.2565 -0.7249
  416MOL0     C56064   3.398   8.265   9.908 -0.0229  0.2186 -0.7236
  416MOL0     C56065   3.552   8.253   9.859  0.6392  1.2379 -0.4080
  416MOL0     C56066   3.640   8.239   9.981  0.4742  0.1554  0.6881
  416MOL0     C56067   3.630   8.105  10.045  0.3806  0.6817  0.3009
  416MOL0     C56068   3.744   8.074  10.152 -0.8709  0.8797 -0.1854
  416MOL0    Cl56069   3.693   7.909  10.210  0.0078 -0.4043 -0.2313
  416MOL0     C56070   3.136   8.721  10.352  0.4006 -0.6822 -0.5576
  416MOL0     C56071   3.119   8.853  10.383 -0.2415 -0.1800  0.2636
  416MOL0     O56072   2.973   9.048  10.235  0.1377  0.2374  0.2163
  416MOL0     C56073   3.050   9.353  10.396  0.0715  0.2927  0.3310
  416MOL0     C56074   3.007   9.497  10.401  0.1491  0.6842 -0.4764
  416MOL0     N56075   2.843   9.675   9.807 -0.1771 -0.2478 -0.5152
  416MOL0     N56076   2.841   9.664   9.675 -0.0700 -1.0826 -0.6209
  416MOL0     C56077   2.730   8.767   9.302 -0.7451  0.1275 -0.9208
  416MOL0     C56078   2.600   8.713   9.272 -0.1074 -1.6175  0.6395
  416MOL0     C56079   2.158   8.706   9.315  0.2067 -0.3857  0.1299
  416MOL0     C56080   2.067   8.808   9.305 -0.5735  0.3426  0.0562
  416MOL0     C56081   1.932   8.779   9.289  0.8334 -0.6162  0.1806
  416MOL0     C56082   1.883   8.647   9.271  0.6684  0.1011 -0.0141
  416MOL0     O56083   1.738   8.624   9.268  0.0998  0.5608 -0.1703
  416MOL0     C56084   1.659   8.717   9.340  0.0149 -0.6814 -0.6101
  416MOL0     C56085   1.527   8.648   9.383  0.3276  0.1795 -0.5730
  416MOL0     C56086   1.553   8.558   9.500 -0.0817 -0.1263 -0.1106
  416MOL0     C56087   1.427   8.466   9.537  0.4473  0.3196  0.9860
  416MOL0     C56088   1.462   8.392   9.659 -0.2487 -0.0187  0.0188
  416MOL0     C56089   1.495   8.330   9.761 -0.1777  0.1872  0.1926
  416MOL0     C56090   1.978   8.546   9.270  0.5488 -0.6010 -1.3925
  416MOL0     C56091   2.116   8.573   9.284 -0.0133 -0.6669 -0.1998
  416MOL0     C56092   2.217   8.465   9.280  1.3025 -0.0140 -0.9620
  416MOL0     H56093   2.441   8.985   9.155 -1.2751 -1.9980 -0.1582
  416MOL0     H56094   2.678   9.081   9.182  1.3539 -0.6891 -1.1497
  416MOL0     H56095   2.866   8.977   9.484  0.8730  0.6831  0.7527
  416MOL0     H56096   2.990   8.862   9.440 -0.4296  0.2605  2.9044
  416MOL0     H56097   3.111   9.066   9.337  0.5760  0.2044  0.6911
  416MOL0     H56098   3.073   9.056   9.514 -1.8970 -0.9415  0.7610
  416MOL0     H56099   2.872   9.219   9.479  1.6161  1.3974  1.6959
  416MOL0     H56100   2.914   9.225   9.307  0.8751 -0.7619 -1.0395
  416MOL0     H56101   3.109   9.311   9.544 -0.0195  0.5013 -0.6293
  416MOL0     H56102   3.148   9.302   9.373 -2.3561 -1.3538 -0.3508
  416MOL0     H56103   3.002   9.480   9.335 -0.3720 -0.8822  0.8898
  416MOL0     H56104   2.926   9.482   9.494 -0.1565 -0.3520  0.3880
  416MOL0     H56105   3.143   9.587   9.579  2.9848 -1.0968 -0.6622
  416MOL0     H56106   3.230   9.544   9.441  1.1539  0.9036  1.6897
  416MOL0     H56107   3.063   9.694   9.309 -1.5952  0.8271  0.8478
  416MOL0     H56108   3.178   9.769   9.414  2.2350 -3.6153 -4.9925
  416MOL0     H56109   2.947   9.876   9.462  2.0612  0.1489 -5.2015
  416MOL0     H56110   2.877   9.716   9.431 -0.2128 -0.2128  0.4846
  416MOL0     H56111   3.108   9.855   9.737  1.8891 -3.0342  1.5515
  416MOL0     H56112   2.997   9.897  10.006 -0.4635  0.5868  1.0732
  416MOL0     H56113   2.888   9.774  10.035  0.2333 -0.7176  0.5138
  416MOL0     H56114   3.078   9.605  10.068  3.4486  0.4922 -0.4388
  416MOL0     H56115   3.184   9.713   9.999 -0.3396 -2.9177 -1.2525
  416MOL0     H56116   3.143   9.858  10.201 -2.2600  0.8962  0.7212
  416MOL0     H56117   3.190   9.697  10.254 -1.0520  0.2409  2.8133
  416MOL0     H56118   2.944   9.875  10.273  3.8891  0.5676 -2.1984
  416MOL0     H56119   3.019   9.785  10.406  0.5023 -2.3151 -0.1421
  416MOL0     H56120   2.780   9.474  10.157  0.0521 -2.7415  0.7230
  416MOL0     H56121   2.854   9.249  10.143  2.9921  0.7083 -0.7621
  416MOL0     H56122   3.398   8.967  10.212  2.2196 -1.8871  2.1546
  416MOL0     H56123   3.419   8.738  10.172 -0.2119  0.4568 -0.0454
  416MOL0     H56124   3.082   8.526  10.124 -0.2876 -0.7190 -2.2146
  416MOL0     H56125   3.220   8.595  10.031 -1.1586  0.1589 -0.9576
  416MOL0     H56126   3.216   8.315  10.131  0.3492  0.1715 -0.5487
  416MOL0     H56127   3.160   8.364   9.969  1.3449 -1.3644 -0.8635
  416MOL0     H56128   3.389   8.471   9.934 -0.2204  1.1303  0.0286
  416MOL0     H56129   3.428   8.368  10.093 -2.8507 -2.3041  1.3263
  416MOL0     H56130   3.327   8.252   9.825 -0.5794  1.2395 -0.4214
  416MOL0     H56131   3.379   8.182   9.977 -0.6787  2.2356  1.6778
  416MOL0     H56132   3.582   8.338   9.797  0.6233  1.7180  0.2367
  416MOL0     H56133   3.573   8.173   9.787 -0.1667  0.7912 -0.1612
  416MOL0     H56134   3.740   8.255   9.942  0.1449  2.6757  0.7021
  416MOL0     H56135   3.624   8.325  10.046  1.9556  2.0326 -1.3115
  416MOL0     H56136   3.648   8.032   9.966  2.7360  0.0581  1.3141
  416MOL0     H56137   3.535   8.087  10.097  0.6076  0.9609  0.8229
  416MOL0     H56138   3.835   8.057  10.093 -3.1235 -1.9247 -3.2826
  416MOL0     H56139   3.750   8.138  10.240  2.4128 -1.3855  1.4447
  416MOL0     H56140   3.057   8.653  10.379 -1.0386  1.5997  1.3510
  416MOL0     H56141   3.042   8.892  10.448 -0.0427  4.3596 -1.8158
  416MOL0     H56142   3.120   9.320  10.472 -1.5105 -0.2899  1.5946
  416MOL0     H56143   3.044   9.571  10.472 -0.4722  0.6741 -0.1343
  416MOL0     H56144   2.807   8.715   9.359 -2.0384  1.6894  2.4893
  416MOL0     H56145   2.576   8.614   9.308 -1.5883 -1.5344 -0.0310
  416MOL0     H56146   2.105   8.909   9.314 -1.0510  0.4781  0.6056
  416MOL0     H56147   1.868   8.867   9.285 -1.2688 -2.0549  0.8325
  416MOL0     H56148   1.653   8.811   9.284  1.5558  1.5095  2.6063
  416MOL0     H56149   1.710   8.754   9.429 -0.2184 -1.7781  0.0001
  416MOL0     H56150   1.483   8.600   9.296 -2.0247  1.2939 -0.0747
  416MOL0     H56151   1.462   8.723   9.428 -2.3943 -2.3532  0.0146
  416MOL0     H56152   1.578   8.614   9.591  2.5690  0.7320 -1.2578
  416MOL0     H56153   1.645   8.503   9.479  0.3038  1.1061 -1.8468
  416MOL0     H56154   1.338   8.526   9.555  1.2322  1.9383 -0.2414
  416MOL0     H56155   1.406   8.393   9.459  0.7981  1.4140 -0.1713
  416MOL0     H56156   1.537   8.279   9.845  2.8800 -1.7419 -2.2796
  416MOL0     H56157   1.940   8.445   9.276 -0.1266 -0.3669 -1.6236
  416MOL0     H56158   2.184   8.377   9.224  0.7264  1.2114 -2.6317
  416MOL0     H56159   2.300   8.499   9.218 -0.8353  1.0957 -3.3887
  416MOL0     H56160   2.252   8.430   9.378  2.0830 -2.2018 -1.9720
  417MOL0     O56161   1.569   0.165  11.490  0.4482  0.1081 -0.3430
  417MOL0     C56162   1.476   0.224  11.542 -0.2686 -1.0834 -1.0606
  417MOL0     O56163   1.339   0.209  11.517 -0.6856 -0.4429 -0.2323
  417MOL0     C56164   1.299   0.144  11.401 -0.2168 -0.1507  0.2053
  417MOL0     C56165   1.271   0.228  11.306  0.3646  0.4301 -0.4637
  417MOL0     C56166   1.220   0.172  11.181  1.3183  0.0243 -0.0790
  417MOL0     C56167   1.221   0.034  11.168  0.6687 -0.1032  0.2005
  417MOL0     O56168   1.214  -0.032  11.048  0.0681 -0.7570 -0.0663
  417MOL0     C56169   1.163   0.040  10.934  0.0256 -0.1078 -0.2292
  417MOL0     C56170   1.013   0.045  10.917 -0.1565 -0.5582 -0.2775
  417MOL0     C56171   0.965  -0.085  10.852 -1.3926 -0.3947  0.1473
  417MOL0     C56172   0.832  -0.072  10.780  0.4871 -0.4007  0.3611
  417MOL0     C56173   0.770  -0.212  10.771 -0.0653 -1.1520  0.1247
  417MOL0     C56174   0.646  -0.201  10.677 -0.1495  0.2508  0.6910
  417MOL0     C56175   0.623  -0.320  10.585  0.0943 -0.0058  0.1288
  417MOL0     C56176   0.517  -0.288  10.473 -0.3949  0.6199  0.1700
  417MOL0     N56177   0.482  -0.396  10.374 -0.0576  0.1812  0.4443
  417MOL0     C56178   0.417  -0.514  10.402  0.1607 -0.8897 -0.7101
  417MOL0     C56179   0.405  -0.586  10.288 -0.2588  0.2162 -0.7201
  417MOL0     C56180   0.353  -0.722  10.305  1.0222 -0.8336  0.4501
  417MOL0     C56181   0.324  -0.801  10.177 -1.1162  0.2692 -0.2463
  417MOL0     C56182   0.187  -0.771  10.102  0.1838  0.4512 -0.5162
  417MOL0     C56183   0.119  -0.899  10.046  0.0864 -0.0619  0.3908
  417MOL0     O56184  -0.010  -0.878   9.980 -0.2931  0.2198 -0.3442
  417MOL0     C56185  -0.003  -0.882   9.838 -0.4957  0.0261 -0.7433
  417MOL0     C56186   0.102  -0.849   9.756  0.8167  1.0459 -0.2218
  417MOL0     C56187   0.080  -0.866   9.609  0.0611 -0.3947 -0.4797
  417MOL0     C56188  -0.052  -0.873   9.557  0.2292  0.9289  0.5546
  417MOL0     C56189  -0.079  -0.874   9.409 -0.6676 -0.3029  0.1761
  417MOL0     O56190   0.035  -0.886   9.337  0.1197 -1.5101  0.5715
  417MOL0     C56191   0.043  -0.874   9.200  0.1868  0.8927  0.9434
  417MOL0     C56192  -0.040  -0.792   9.123 -0.4651 -0.6088 -0.2215
  417MOL0     C56193  -0.030  -0.784   8.984 -0.0315 -0.1737 -1.3360
  417MOL0     C56194   0.058  -0.874   8.912  0.5644  0.1727 -0.1557
  417MOL0     O56195   0.070  -0.866   8.778  0.5451 -0.4067 -0.1349
  417MOL0     C56196   0.166  -0.946   8.703 -0.8730 -0.0612 -0.1351
  417MOL0     C56197   0.120  -0.934   8.548  0.0511  0.2373  0.8631
  417MOL0     C56198   0.017  -1.045   8.501 -0.2899 -0.4156 -1.1189
  417MOL0     C56199  -0.010  -1.029   8.353  0.3991 -0.2446 -0.7756
  417MOL0     C56200  -0.037  -1.163   8.290  0.0109  0.1654  0.7932
  417MOL0     C56201  -0.044  -1.158   8.133  0.2410  0.4021  0.5032
  417MOL0     C56202  -0.111  -1.040   8.066 -0.4873 -0.7695 -0.7380
  417MOL0     C56203  -0.177  -1.068   7.931 -0.1657 -0.9010 -0.7191
  417MOL0    Cl56204  -0.288  -0.921   7.893  0.3946 -0.0037 -0.2039
  417MOL0     C56205   0.146  -0.958   8.990 -0.0870 -0.1471  0.2895
  417MOL0     C56206   0.140  -0.951   9.129  0.2623 -0.8892  0.8882
  417MOL0     O56207  -0.188  -0.873   9.364 -0.7400 -0.1434 -0.2722
  417MOL0     C56208  -0.154  -0.886   9.654 -0.0711  0.2166  1.2180
  417MOL0     C56209  -0.131  -0.886   9.790  0.5349 -0.1876 -0.5198
  417MOL0     N56210   0.465  -0.505  10.189  0.3435  0.0123 -0.5531
  417MOL0     N56211   0.500  -0.389  10.240  0.1815 -0.7930  0.1484
  417MOL0     C56212   1.263  -0.048  11.265 -0.1975  0.1659 -0.8421
  417MOL0     C56213   1.304   0.003  11.392 -0.6256 -1.3055 -0.2520
  417MOL0     C56214   1.509   0.322  11.647  0.8240 -0.4228 -0.3187
  417MOL0     C56215   1.639   0.363  11.657 -0.0544 -0.2413 -0.7297
  417MOL0     C56216   1.686   0.450  11.760 -0.2499  0.4026  0.0564
  417MOL0     C56217   1.600   0.493  11.864 -0.9676 -0.3678  0.7926
  417MOL0     O56218   1.659   0.581  11.953  0.0848 -0.1256 -0.4297
  417MOL0     C56219   1.782   0.549  12.011 -0.0423  0.5484 -0.7526
  417MOL0     C56220   1.791   0.597  12.157 -0.0230  0.1300  0.0137
  417MOL0     C56221   1.674   0.538  12.233  0.1123  0.2319 -1.1324
  417MOL0     C56222   1.685   0.576  12.382  0.0924 -0.0364  1.1135
  417MOL0     C56223   1.584   0.516  12.460  0.1689 -0.1800 -0.0063
  417MOL0     C56224   1.511   0.459  12.539  0.0204 -0.1856  0.2093
  417MOL0     C56225   1.476   0.442  11.863  0.2707 -0.2034 -0.4918
  417MOL0     C56226   1.419   0.377  11.746 -0.3055  0.1831 -0.5597
  417MOL0     C56227   1.265   0.355  11.758  0.9653  0.2048  0.4839
  417MOL0     H56228   1.268   0.329  11.345 -2.5631  0.9873 -1.8785
  417MOL0     H56229   1.174   0.241  11.110 -1.3214 -1.2916  0.2263
  417MOL0     H56230   1.192   0.146  10.938  0.3901 -0.2185  0.1295
  417MOL0     H56231   1.215   0.006  10.844  0.3866 -1.0868  0.3381
  417MOL0     H56232   0.992   0.139  10.867  2.4064 -0.0672 -0.5603
  417MOL0     H56233   0.971   0.055  11.017 -0.9179  2.0962 -0.8042
  417MOL0     H56234   0.950  -0.161  10.929  0.0924  1.6836  2.6417
  417MOL0     H56235   1.042  -0.125  10.786  1.7346  1.0829  2.6554
  417MOL0     H56236   0.760  -0.016  10.840  0.0889 -0.7406  0.2035
  417MOL0     H56237   0.831  -0.017  10.685  0.7113 -0.6636  0.2039
  417MOL0     H56238   0.840  -0.282  10.724 -1.0382 -0.1354 -3.1377
  417MOL0     H56239   0.740  -0.241  10.871 -1.3438 -0.6449 -0.0966
  417MOL0     H56240   0.562  -0.207  10.746 -2.3639  0.3503 -1.8410
  417MOL0     H56241   0.652  -0.109  10.617  2.0129  1.0364  2.0081
  417MOL0     H56242   0.594  -0.403  10.650 -1.8342  0.0737 -0.5559
  417MOL0     H56243   0.716  -0.340  10.530 -0.3644 -1.5053 -0.1487
  417MOL0     H56244   0.428  -0.256  10.528 -1.1682 -0.0672 -0.6652
  417MOL0     H56245   0.560  -0.212  10.408  3.7862 -1.2537  0.4020
  417MOL0     H56246   0.388  -0.544  10.502  3.4520 -0.6780  0.4248
  417MOL0     H56247   0.429  -0.775  10.362 -1.3503 -3.0440  1.7776
  417MOL0     H56248   0.268  -0.712  10.373  1.3332  0.9429  0.6319
  417MOL0     H56249   0.398  -0.777  10.100 -1.7944 -0.7325 -1.2531
  417MOL0     H56250   0.337  -0.907  10.202  2.3259  0.3589 -1.1629
  417MOL0     H56251   0.207  -0.701  10.019  2.8564  0.9763  0.4907
  417MOL0     H56252   0.121  -0.715  10.169  0.1389  0.1471 -0.3020
  417MOL0     H56253   0.115  -0.978  10.122  0.2788  1.2335  1.8074
  417MOL0     H56254   0.182  -0.948   9.971  0.6553 -1.1620  1.5470
  417MOL0     H56255   0.201  -0.820   9.788  1.2341  0.6118 -1.0857
  417MOL0     H56256   0.158  -0.844   9.537 -1.4058  3.5448 -1.1183
  417MOL0     H56257  -0.115  -0.740   9.182  0.6563 -0.8341  1.4630
  417MOL0     H56258  -0.117  -0.733   8.943 -0.8566 -0.7969 -0.4176
  417MOL0     H56259   0.267  -0.906   8.711 -1.6364  1.8817  0.4655
  417MOL0     H56260   0.179  -1.047   8.743  0.4617 -0.1574 -0.7517
  417MOL0     H56261   0.082  -0.835   8.522  3.2951  1.0149 -1.7456
  417MOL0     H56262   0.217  -0.952   8.501 -0.4824 -3.8472  1.0089
  417MOL0     H56263   0.074  -1.134   8.527 -0.8092 -0.4673 -0.0978
  417MOL0     H56264  -0.079  -1.044   8.554  0.1208 -1.0719 -0.3462
  417MOL0     H56265   0.070  -0.983   8.295 -1.2353 -0.2824 -3.1704
  417MOL0     H56266  -0.098  -0.973   8.320 -0.0238 -0.6922 -0.4275
  417MOL0     H56267  -0.132  -1.206   8.322  1.5899 -3.2070  1.4196
  417MOL0     H56268   0.033  -1.241   8.322 -0.5310 -0.2033  1.0943
  417MOL0     H56269   0.055  -1.164   8.087  0.6169  1.9345  1.0442
  417MOL0     H56270  -0.091  -1.248   8.092  1.1087 -0.2547  0.9198
  417MOL0     H56271  -0.046  -0.951   8.064 -2.9047  1.1441  0.6720
  417MOL0     H56272  -0.188  -1.001   8.133  2.0844 -0.9300  2.6165
  417MOL0     H56273  -0.100  -1.075   7.853 -0.3082 -2.4282 -0.7579
  417MOL0     H56274  -0.232  -1.161   7.950  0.7109 -0.9716  1.8238
  417MOL0     H56275   0.229  -1.008   8.941  0.0987 -0.7141  1.1422
  417MOL0     H56276   0.208  -1.008   9.192 -1.0370 -2.3340  1.0204
  417MOL0     H56277  -0.249  -0.911   9.608  1.5592  0.9596 -3.0535
  417MOL0     H56278  -0.216  -0.920   9.849 -0.6848  2.5329 -0.5960
  417MOL0     H56279   1.252  -0.155  11.259 -1.3739  0.2583 -0.5635
  417MOL0     H56280   1.349  -0.054  11.473 -0.1214 -0.5821 -0.0107
  417MOL0     H56281   1.701   0.330  11.574  0.9436  1.8010 -0.8715
  417MOL0     H56282   1.783   0.495  11.744 -0.4041 -0.3656 -3.9945
  417MOL0     H56283   1.866   0.605  11.968  1.0242 -1.1736 -0.9904
  417MOL0     H56284   1.809   0.443  12.005  0.5646  0.7515 -2.2025
  417MOL0     H56285   1.797   0.704  12.175  3.0183 -0.3176  2.8762
  417MOL0     H56286   1.888   0.566  12.199 -0.2378  0.9119  1.1450
  417MOL0     H56287   1.691   0.430  12.222 -0.8687  0.1644 -2.2489
  417MOL0     H56288   1.576   0.557  12.188  0.2098 -2.4007 -2.7018
  417MOL0     H56289   1.777   0.540  12.427 -0.4153 -0.4164  1.8743
  417MOL0     H56290   1.679   0.685  12.384 -2.5426 -0.0619 -0.3766
  417MOL0     H56291   1.431   0.416  12.594  0.9963 -4.6502 -1.4620
  417MOL0     H56292   1.430   0.458  11.960 -0.1136  0.3176 -0.7529
  417MOL0     H56293   1.229   0.374  11.859  2.7514  1.5228  0.9128
  417MOL0     H56294   1.218   0.424  11.688 -0.2410  0.0092  1.0759
  417MOL0     H56295   1.236   0.251  11.739  2.0448 -0.1578  0.7062
  418MOL0     O56296   1.376   0.703   1.599  0.1935 -0.3594 -0.0645
  418MOL0     C56297   1.362   0.614   1.515 -0.3711  0.4610  0.3868
  418MOL0     O56298   1.290   0.628   1.393 -0.1724  0.0676 -0.2229
  418MOL0     C56299   1.202   0.729   1.374 -0.2901 -0.1006  0.3061
  418MOL0     C56300   1.140   0.801   1.475  0.3825 -0.7772  0.5268
  418MOL0     C56301   1.047   0.909   1.443  0.6391  0.4524  0.1259
  418MOL0     C56302   1.013   0.927   1.306 -0.1501  0.1222  0.5305
  418MOL0     O56303   0.943   1.040   1.271 -0.5799 -0.3760 -0.3841
  418MOL0     C56304   0.903   1.061   1.137  0.8008  0.4060 -0.4786
  418MOL0     C56305   0.849   1.205   1.134 -0.1170 -0.1479 -0.2359
  418MOL0     C56306   0.834   1.252   0.987 -0.1494 -0.1628 -0.2192
  418MOL0     C56307   0.811   1.401   0.979 -0.4581 -0.0524 -0.0708
  418MOL0     C56308   0.767   1.465   0.846 -1.0042 -0.8203  0.1883
  418MOL0     C56309   0.706   1.604   0.860 -0.0084 -0.4675  0.6661
  418MOL0     C56310   0.647   1.646   0.720  0.2364  0.3124  0.4308
  418MOL0     C56311   0.600   1.790   0.735  0.9669 -0.6794  0.3429
  418MOL0     N56312   0.561   1.825   0.595  0.2949  0.6184 -0.5470
  418MOL0     C56313   0.622   1.913   0.510 -0.4562  0.2800  0.3372
  418MOL0     C56314   0.541   1.918   0.400  0.3064 -0.2075  0.7000
  418MOL0     C56315   0.560   1.996   0.272  0.1969 -0.2513 -0.7402
  418MOL0     C56316   0.643   1.938   0.160  0.2445 -0.9773  0.0974
  418MOL0     C56317   0.569   1.832   0.082  0.1329 -0.0895  0.2910
  418MOL0     C56318   0.565   1.695   0.151 -0.3136  0.2598  0.0068
  418MOL0     O56319   0.691   1.630   0.152  0.3153 -0.0162 -0.5034
  418MOL0     C56320   0.715   1.544   0.263 -0.0366 -0.3420  0.0498
  418MOL0     C56321   0.817   1.579   0.353  0.7779 -0.4805  0.2201
  418MOL0     C56322   0.851   1.492   0.459  0.0009 -0.2486  0.2781
  418MOL0     C56323   0.792   1.362   0.463 -0.6254 -0.2432  0.2808
  418MOL0     C56324   0.829   1.263   0.569  0.3644 -0.0629  1.2331
  418MOL0     O56325   0.755   1.151   0.568 -0.7941 -0.3769 -0.4545
  418MOL0     C56326   0.778   1.056   0.664 -0.1261 -0.0853 -0.3120
  418MOL0     C56327   0.663   0.977   0.707 -0.6180 -0.1153  0.0445
  418MOL0     C56328   0.666   0.876   0.800  0.1584  0.1957  0.9714
  418MOL0     C56329   0.791   0.840   0.854  0.5314  0.6866  0.1174
  418MOL0     O56330   0.813   0.738   0.943  0.2808 -0.2794  0.6031
  418MOL0     C56331   0.700   0.652   0.985 -0.5734  0.2176 -0.7437
  418MOL0     C56332   0.729   0.598   1.125 -0.5319  1.1139 -0.3162
  418MOL0     C56333   0.862   0.525   1.135 -0.1859  0.2605 -0.8187
  418MOL0     C56334   0.872   0.410   1.251 -0.6523  0.2180  0.4981
  418MOL0     C56335   1.024   0.363   1.279  0.6540 -0.0656  0.6788
  418MOL0     C56336   1.023   0.220   1.358 -0.1437 -0.4407  0.1950
  418MOL0     C56337   1.017   0.112   1.259  0.1323 -0.4928 -0.4846
  418MOL0     C56338   1.165   0.104   1.211  0.5523  0.7017 -0.2875
  418MOL0    Cl56339   1.263   0.035   1.341 -0.0047 -0.1993 -0.0559
  418MOL0     C56340   0.904   0.915   0.807  0.5304 -0.3820  0.2314
  418MOL0     C56341   0.901   1.017   0.713 -0.3326  0.8091  0.3646
  418MOL0     O56342   0.929   1.287   0.634  0.0528  0.4557 -0.1742
  418MOL0     C56343   0.694   1.329   0.373 -0.2067 -0.3143 -0.2713
  418MOL0     C56344   0.655   1.421   0.279 -0.7529  0.0457  0.2278
  418MOL0     N56345   0.431   1.837   0.424  0.3490  0.7216 -0.3576
  418MOL0     N56346   0.449   1.776   0.534 -0.3155  0.7637  0.4273
  418MOL0     C56347   1.059   0.839   1.202  0.2823  0.4076  0.7758
  418MOL0     C56348   1.165   0.751   1.239  0.7990  0.0914 -0.5669
  418MOL0     C56349   1.442   0.486   1.515  0.0296 -0.5006  0.4072
  418MOL0     C56350   1.444   0.401   1.398  0.7874 -0.1479 -0.2463
  418MOL0     C56351   1.513   0.287   1.385 -1.1877  0.5278 -0.0141
  418MOL0     C56352   1.590   0.242   1.498 -0.0333 -0.8584 -0.5074
  418MOL0     O56353   1.665   0.132   1.501  0.8145 -0.7271 -0.2226
  418MOL0     C56354   1.669   0.052   1.388 -0.3389  0.0789 -0.3924
  418MOL0     C56355   1.762  -0.068   1.394 -0.6686 -0.8004 -0.2746
  418MOL0     C56356   1.745  -0.146   1.271 -0.5954  0.8158  0.0000
  418MOL0     C56357   1.863  -0.253   1.259  0.3139  0.0059 -1.1597
  418MOL0     C56358   1.891  -0.321   1.389  0.0306  0.3353  0.5928
  418MOL0     C56359   1.921  -0.380   1.490  0.1254  0.1827 -1.0589
  418MOL0     C56360   1.603   0.325   1.614  0.0870  0.6259  0.8941
  418MOL0     C56361   1.544   0.452   1.620  1.0342  0.1034 -0.0540
  418MOL0     C56362   1.548   0.526   1.752 -0.2418  0.0302  0.5825
  418MOL0     H56363   1.174   0.793   1.578  0.6029 -0.6365  0.4649
  418MOL0     H56364   1.000   0.955   1.529  0.8288 -0.1822  0.5736
  418MOL0     H56365   0.986   1.055   1.066 -0.5004 -1.0592 -1.9543
  418MOL0     H56366   0.815   1.004   1.106 -1.2993  1.1271  3.4567
  418MOL0     H56367   0.925   1.270   1.180 -0.4222  0.2740 -0.3219
  418MOL0     H56368   0.761   1.217   1.198 -0.1394 -3.4214  0.5384
  418MOL0     H56369   0.740   1.213   0.948  0.9018 -1.6672 -1.3416
  418MOL0     H56370   0.913   1.224   0.916  1.0949 -0.8581  1.3625
  418MOL0     H56371   0.736   1.430   1.054 -1.5759 -1.9308 -0.4007
  418MOL0     H56372   0.906   1.444   1.011 -0.1673  0.9874 -2.1532
  418MOL0     H56373   0.856   1.466   0.783 -2.2296 -3.2286 -1.7827
  418MOL0     H56374   0.684   1.410   0.800 -3.7723  2.2201  1.1256
  418MOL0     H56375   0.631   1.618   0.939  2.2637  2.4647  2.5086
  418MOL0     H56376   0.792   1.668   0.883  0.2819  0.3828 -2.3488
  418MOL0     H56377   0.565   1.580   0.689 -3.1867  1.2808  6.1184
  418MOL0     H56378   0.729   1.635   0.648  2.0279 -1.2600  2.5613
  418MOL0     H56379   0.512   1.790   0.800  0.0795  0.8915 -0.7801
  418MOL0     H56380   0.676   1.861   0.769  0.7083 -0.2669  0.0818
  418MOL0     H56381   0.709   1.977   0.522 -0.5727  0.9675 -2.0361
  418MOL0     H56382   0.457   2.010   0.240 -0.1911  0.5224  0.7517
  418MOL0     H56383   0.594   2.095   0.303  0.8715 -0.2631 -1.4060
  418MOL0     H56384   0.655   2.023   0.092  1.3797 -1.9478 -0.9622
  418MOL0     H56385   0.742   1.912   0.199 -0.0030 -0.7185  0.9297
  418MOL0     H56386   0.612   1.828  -0.019  1.7667  2.8967  0.7272
  418MOL0     H56387   0.467   1.868   0.065  0.3892  0.2145 -0.6861
  418MOL0     H56388   0.493   1.630   0.099 -2.1331  2.1636  0.0345
  418MOL0     H56389   0.523   1.709   0.251 -3.1764 -1.8483 -0.7526
  418MOL0     H56390   0.859   1.679   0.349 -1.1698  0.3738 -0.0518
  418MOL0     H56391   0.931   1.526   0.524 -0.2847  1.1662 -0.0895
  418MOL0     H56392   0.564   1.008   0.676  0.0333  1.3376 -0.7011
  418MOL0     H56393   0.577   0.819   0.825  1.1636 -1.3454  1.1536
  418MOL0     H56394   0.605   0.705   0.999  0.3288  2.0287 -1.2154
  418MOL0     H56395   0.709   0.572   0.911  3.1230 -0.5435  0.3533
  418MOL0     H56396   0.736   0.686   1.189 -1.4575  1.9648 -1.3356
  418MOL0     H56397   0.645   0.535   1.157  0.0591 -0.1069 -1.0599
  418MOL0     H56398   0.894   0.481   1.040 -2.9322  1.7996 -2.6111
  418MOL0     H56399   0.940   0.600   1.148  1.6390 -1.5697 -0.8055
  418MOL0     H56400   0.820   0.321   1.215  1.5931 -0.7927 -0.4042
  418MOL0     H56401   0.830   0.436   1.349  1.6973  1.5753  1.2302
  418MOL0     H56402   1.073   0.433   1.347 -0.2262  0.7583  0.4756
  418MOL0     H56403   1.079   0.371   1.185 -1.8891  1.2642 -0.7836
  418MOL0     H56404   1.110   0.216   1.423 -2.1118 -1.1495  2.9443
  418MOL0     H56405   0.937   0.213   1.425 -2.2525 -2.9172 -2.5357
  418MOL0     H56406   0.949   0.120   1.174 -1.0288  0.3997  0.4968
  418MOL0     H56407   0.979   0.026   1.315 -2.2274  1.7915  1.7247
  418MOL0     H56408   1.156   0.031   1.130 -1.4108  1.1557 -0.5313
  418MOL0     H56409   1.197   0.198   1.165 -0.8200  1.7141  0.7351
  418MOL0     H56410   0.996   0.872   0.847  1.3831  2.6136  1.8667
  418MOL0     H56411   0.990   1.061   0.670 -1.6857  3.4762  0.0633
  418MOL0     H56412   0.644   1.233   0.369  0.1178 -0.4737 -0.6108
  418MOL0     H56413   0.578   1.394   0.208 -1.0975 -0.1528  0.6694
  418MOL0     H56414   1.034   0.834   1.096 -0.2477  3.8335  0.6306
  418MOL0     H56415   1.201   0.679   1.165  1.8738 -0.6819  0.6562
  418MOL0     H56416   1.376   0.434   1.321  0.3526  4.2788  1.7489
  418MOL0     H56417   1.519   0.229   1.294 -0.0034  0.6461 -0.0197
  418MOL0     H56418   1.705   0.118   1.307  1.6939 -3.1735 -2.3743
  418MOL0     H56419   1.568   0.016   1.368  0.9655 -2.9334 -2.1254
  418MOL0     H56420   1.722  -0.125   1.478 -1.4309  0.6816  0.3891
  418MOL0     H56421   1.866  -0.041   1.414  0.5940 -0.4514 -5.6446
  418MOL0     H56422   1.734  -0.086   1.180 -0.1588  0.9586  0.0386
  418MOL0     H56423   1.661  -0.215   1.287 -0.5541  1.2922  2.6840
  418MOL0     H56424   1.842  -0.318   1.173 -1.5139 -1.7748  0.5291
  418MOL0     H56425   1.956  -0.197   1.242 -0.7924  3.0214  1.6048
  418MOL0     H56426   1.935  -0.420   1.588  1.0965  1.0758 -0.8149
  418MOL0     H56427   1.677   0.297   1.688  0.7225  3.3694  1.3947
  418MOL0     H56428   1.620   0.480   1.820 -1.9847 -1.6834  1.3523
  418MOL0     H56429   1.579   0.628   1.730  1.7546 -0.2060  2.0087
  418MOL0     H56430   1.458   0.530   1.813 -0.3215  3.6071  0.4315
  419MOL0     O56431  10.216   0.190   5.574 -0.3881  0.3502 -0.0745
  419MOL0     C56432  10.102   0.164   5.534  1.1326 -0.2976  1.1426
  419MOL0     O56433  10.069   0.096   5.424 -0.0405  0.2995  0.1675
  419MOL0     C56434  10.162   0.037   5.347 -0.2861  0.1122 -0.1306
  419MOL0     C56435  10.254  -0.063   5.402  0.5094 -0.1294  0.6141
  419MOL0     C56436  10.339  -0.130   5.319  0.9128 -0.7562  0.6434
  419MOL0     C56437  10.340  -0.102   5.184  0.0685 -0.6187 -0.0557
  419MOL0     O56438  10.437  -0.168   5.112 -0.3918 -1.5808 -0.1883
  419MOL0     C56439  10.573  -0.132   5.139 -0.8975  0.8125 -0.1657
  419MOL0     C56440  10.591   0.019   5.132  0.2936 -0.6489 -0.0109
  419MOL0     C56441  10.736   0.066   5.110  0.0883 -0.3633  0.3653
  419MOL0     C56442  10.753   0.217   5.087 -1.0064  0.3920  0.0549
  419MOL0     C56443  10.894   0.243   5.047 -1.4332 -0.5512 -0.1121
  419MOL0     C56444  10.910   0.387   4.984 -0.5012  0.1722 -0.2510
  419MOL0     C56445  11.004   0.396   4.870 -0.9010  0.1940 -0.4993
  419MOL0     C56446  10.983   0.521   4.798  0.9009 -0.1496  0.0216
  419MOL0     N56447  11.051   0.526   4.669 -0.8050 -0.8568  0.4125
  419MOL0     C56448  10.982   0.547   4.553 -0.6344 -0.1320 -0.3897
  419MOL0     C56449  11.070   0.605   4.463 -0.2324  0.0538 -0.0703
  419MOL0     C56450  11.049   0.642   4.318 -0.6539  0.3645 -0.4822
  419MOL0     C56451  11.049   0.795   4.292 -0.5060  0.1118 -0.1306
  419MOL0     C56452  10.955   0.875   4.382 -0.6951 -0.3745  0.8470
  419MOL0     C56453  10.918   1.023   4.325  0.0553 -0.0833 -0.6946
  419MOL0     O56454  10.866   1.106   4.432 -0.5484  0.3655 -0.5895
  419MOL0     C56455  10.867   1.244   4.419  0.1066  0.8583  0.2265
  419MOL0     C56456  10.872   1.305   4.292  0.7093  0.0663 -0.2995
  419MOL0     C56457  10.872   1.446   4.287  0.0643  0.0639 -0.3277
  419MOL0     C56458  10.852   1.521   4.406  0.9662 -0.3906  0.6017
  419MOL0     C56459  10.838   1.672   4.396 -0.1803 -0.2741  0.4026
  419MOL0     O56460  10.793   1.740   4.509  0.5915 -0.4522 -0.1531
  419MOL0     C56461  10.759   1.875   4.494 -0.6687  0.5017  0.6808
  419MOL0     C56462  10.826   1.952   4.585 -0.8539  0.1251 -0.3062
  419MOL0     C56463  10.822   2.089   4.566 -0.0018 -0.8882 -0.7190
  419MOL0     C56464  10.751   2.150   4.468  0.3853 -0.6528  1.0791
  419MOL0     O56465  10.748   2.284   4.445  0.8746 -0.5167 -0.1788
  419MOL0     C56466  10.873   2.341   4.452 -1.0681 -0.5559  0.2423
  419MOL0     C56467  10.850   2.481   4.399 -0.4341 -0.7001 -0.2066
  419MOL0     C56468  10.963   2.576   4.420 -0.6061  0.4896  0.5345
  419MOL0     C56469  10.929   2.723   4.398 -0.6190  0.3158 -0.2591
  419MOL0     C56470  11.050   2.815   4.450  0.9535 -0.2707 -1.3513
  419MOL0     C56471  11.021   2.970   4.413  0.4381  0.2128 -0.5645
  419MOL0     C56472  11.140   3.057   4.463 -0.2864  0.2243  0.1165
  419MOL0     C56473  11.101   3.206   4.441 -0.5498  0.3417 -0.0482
  419MOL0    Cl56474  11.067   3.235   4.270 -0.1701 -0.2480 -0.0819
  419MOL0     C56475  10.663   2.071   4.387  0.4190 -0.1571 -0.7801
  419MOL0     C56476  10.666   1.931   4.407 -0.2723  0.0266  0.3407
  419MOL0     O56477  10.844   1.719   4.285 -0.7209 -0.4584 -0.9969
  419MOL0     C56478  10.834   1.453   4.526  0.1065  0.0726  0.2045
  419MOL0     C56479  10.845   1.317   4.531 -1.0478  0.4859  0.0228
  419MOL0     N56480  11.187   0.628   4.541  0.0827 -0.0014 -0.4206
  419MOL0     N56481  11.180   0.568   4.655  0.6827 -0.2873 -0.5349
  419MOL0     C56482  10.253  -0.003   5.128 -0.3784 -0.0423 -0.1509
  419MOL0     C56483  10.155   0.052   5.215 -0.1794 -1.2857  0.2853
  419MOL0     C56484   9.987   0.204   5.615 -0.9121  0.8328 -0.2239
  419MOL0     C56485   9.885   0.276   5.555 -1.0154  1.1109  0.1095
  419MOL0     C56486   9.770   0.297   5.622 -0.4124  0.8608  0.2891
  419MOL0     C56487   9.751   0.260   5.757  0.4298 -0.8045 -0.4183
  419MOL0     O56488   9.632   0.291   5.814  0.6325 -0.3321 -0.3744
  419MOL0     C56489   9.628   0.285   5.956 -0.2509 -0.0915  0.6729
  419MOL0     C56490   9.712   0.397   6.025  0.0549  0.3695 -1.0258
  419MOL0     C56491   9.697   0.386   6.183  0.4999 -0.1100  0.3877
  419MOL0     C56492   9.550   0.393   6.235 -0.1191 -0.5581  0.3903
  419MOL0     C56493   9.470   0.506   6.184  0.1265  0.1696  0.3618
  419MOL0     C56494   9.409   0.608   6.134 -0.2815 -0.4616 -0.1253
  419MOL0     C56495   9.847   0.186   5.816 -0.9491  0.7802  0.3613
  419MOL0     C56496   9.972   0.156   5.747  0.5240 -0.1004 -1.1385
  419MOL0     C56497  10.081   0.089   5.828  0.6869  0.0067  0.3385
  419MOL0     H56498  10.250  -0.093   5.506  1.7231  2.3939  1.4556
  419MOL0     H56499  10.406  -0.207   5.358 -0.0463 -0.5683  2.8304
  419MOL0     H56500  10.608  -0.178   5.232  1.1273 -1.3787 -1.8873
  419MOL0     H56501  10.630  -0.181   5.059  1.1229  0.1329  1.5894
  419MOL0     H56502  10.550   0.061   5.224  0.3787 -1.1382  0.2515
  419MOL0     H56503  10.528   0.064   5.055 -1.4004  1.6535  2.5241
  419MOL0     H56504  10.765   0.002   5.026  1.9272 -1.3405  1.6651
  419MOL0     H56505  10.784   0.039   5.205  0.0153  3.2536  1.6011
  419MOL0     H56506  10.686   0.253   5.008 -1.0166 -1.1236 -0.6574
  419MOL0     H56507  10.720   0.263   5.181 -0.9943 -0.5856  0.5549
  419MOL0     H56508  10.947   0.233   5.142 -2.1532  0.2944  0.3929
  419MOL0     H56509  10.922   0.176   4.965  0.0060  2.3349 -2.1611
  419MOL0     H56510  10.808   0.420   4.963 -2.1614 -0.7358  4.8691
  419MOL0     H56511  10.941   0.452   5.066  0.0748  1.4747 -1.4683
  419MOL0     H56512  10.995   0.305   4.809 -3.0223 -1.0785  1.5553
  419MOL0     H56513  11.104   0.404   4.915 -1.4803  1.8947  0.5823
  419MOL0     H56514  10.877   0.543   4.781  1.8822  2.6723 -3.7099
  419MOL0     H56515  11.022   0.601   4.861 -0.7626 -1.2910  2.6961
  419MOL0     H56516  10.879   0.519   4.532 -1.3480  0.7887  1.6938
  419MOL0     H56517  11.134   0.592   4.271  0.5272 -1.1224  2.9714
  419MOL0     H56518  10.962   0.592   4.273  0.5171 -0.8229 -1.5126
  419MOL0     H56519  11.148   0.829   4.323 -0.6843 -2.0331  3.3022
  419MOL0     H56520  11.026   0.816   4.187  0.4569  2.4434  0.0586
  419MOL0     H56521  10.995   0.883   4.484 -0.7190 -2.7460  1.1095
  419MOL0     H56522  10.864   0.814   4.382 -2.6793  2.3845  0.8554
  419MOL0     H56523  10.843   1.020   4.246  0.2854 -0.5099 -0.8989
  419MOL0     H56524  11.006   1.073   4.282 -0.6001  1.8578  0.0856
  419MOL0     H56525  10.906   1.249   4.205  2.7878  0.8372 -0.0453
  419MOL0     H56526  10.874   1.484   4.185 -2.5745 -1.4301 -1.0271
  419MOL0     H56527  10.879   1.902   4.666  0.3916 -1.6923 -2.1504
  419MOL0     H56528  10.872   2.158   4.634  3.1826 -0.2726 -3.4579
  419MOL0     H56529  10.918   2.352   4.551  1.7310 -1.0780 -0.8767
  419MOL0     H56530  10.939   2.287   4.384 -0.8558  3.0273 -2.6886
  419MOL0     H56531  10.825   2.475   4.292  1.1250 -2.1183 -0.5162
  419MOL0     H56532  10.758   2.522   4.443  0.4210  1.2286 -0.1253
  419MOL0     H56533  11.006   2.572   4.521  0.3759  1.5145  0.1750
  419MOL0     H56534  11.044   2.547   4.353  0.6082  1.3078  1.5746
  419MOL0     H56535  10.842   2.751   4.458  1.0243  0.1692  2.3516
  419MOL0     H56536  10.911   2.740   4.291 -0.7265  0.0263 -0.2882
  419MOL0     H56537  11.142   2.788   4.397 -0.1626 -1.4273 -2.8235
  419MOL0     H56538  11.060   2.800   4.558  0.7580  1.2317 -1.1148
  419MOL0     H56539  11.002   2.980   4.306 -0.7023  2.5890 -0.2028
  419MOL0     H56540  10.929   3.000   4.463 -0.6251 -2.5499 -0.7102
  419MOL0     H56541  11.227   3.035   4.401 -1.2908 -3.1108 -0.3091
  419MOL0     H56542  11.164   3.039   4.568 -0.7021  0.7968  0.3105
  419MOL0     H56543  11.009   3.236   4.491 -0.5493  1.2355 -0.5622
  419MOL0     H56544  11.185   3.268   4.471  0.9844 -0.0518 -3.1056
  419MOL0     H56545  10.600   2.110   4.308  2.2430 -0.4178 -2.4255
  419MOL0     H56546  10.614   1.860   4.344  0.3698  0.9088 -1.2350
  419MOL0     H56547  10.820   1.518   4.612 -0.0555  2.4430 -1.5458
  419MOL0     H56548  10.860   1.262   4.623  1.1084 -0.9666 -1.0957
  419MOL0     H56549  10.260   0.003   5.020  1.3271 -0.1809 -0.0824
  419MOL0     H56550  10.070   0.110   5.181 -0.0696 -0.3815  1.4899
  419MOL0     H56551   9.908   0.321   5.460 -0.5708 -2.2827 -1.5452
  419MOL0     H56552   9.688   0.355   5.579 -0.1931  0.2205 -1.0174
  419MOL0     H56553   9.662   0.187   5.987  1.8663  0.0625 -0.9003
  419MOL0     H56554   9.520   0.294   5.972  0.0669  0.4967  2.6792
  419MOL0     H56555   9.678   0.492   5.982 -0.0816  1.4391  1.2427
  419MOL0     H56556   9.818   0.384   6.004  0.2637  1.3756 -0.6653
  419MOL0     H56557   9.762   0.455   6.237  3.5608 -2.6641  0.2606
  419MOL0     H56558   9.738   0.291   6.215  2.5235  1.6165  3.3566
  419MOL0     H56559   9.505   0.306   6.187  1.5738 -0.5218 -1.4287
  419MOL0     H56560   9.556   0.381   6.343  1.4801 -0.9512  0.2922
  419MOL0     H56561   9.362   0.691   6.085  2.8400  0.7650 -1.3154
  419MOL0     H56562   9.847   0.150   5.918  2.8095  1.1828  0.6551
  419MOL0     H56563  10.118   0.010   5.762  0.6388 -0.1603  0.5113
  419MOL0     H56564  10.162   0.161   5.842  0.8060  0.0332 -0.4420
  419MOL0     H56565  10.051   0.042   5.922 -2.6192  0.1624 -0.5325
  420MOL0     O56566   4.730   7.026   4.431  0.1836  0.5780  0.1276
  420MOL0     C56567   4.810   7.104   4.489  0.4850 -0.4514 -0.2481
  420MOL0     O56568   4.941   7.074   4.500 -0.0127  0.0162  0.0694
  420MOL0     C56569   4.983   6.984   4.404 -1.1016 -0.4615  0.6746
  420MOL0     C56570   5.047   6.871   4.451  0.3057  0.6096  0.7551
  420MOL0     C56571   5.106   6.778   4.371  0.2631 -0.5299  0.0659
  420MOL0     C56572   5.098   6.790   4.229  0.5469  0.5919  0.1589
  420MOL0     O56573   5.139   6.699   4.141  0.0410 -1.2919  0.0977
  420MOL0     C56574   5.194   6.575   4.178 -0.3249 -0.2589 -0.1430
  420MOL0     C56575   5.217   6.499   4.054  0.3532 -0.4429 -0.0804
  420MOL0     C56576   5.368   6.489   4.016 -0.0892 -0.3691 -0.4467
  420MOL0     C56577   5.408   6.411   3.886 -0.4000  0.4204 -0.3000
  420MOL0     C56578   5.554   6.399   3.887 -0.3399  0.1698 -0.1051
  420MOL0     C56579   5.656   6.520   3.871 -0.3479 -0.4994  0.3144
  420MOL0     C56580   5.670   6.597   3.730  0.3342  0.1752  0.1434
  420MOL0     C56581   5.726   6.509   3.608  0.8831  0.3665 -0.7530
  420MOL0     N56582   5.724   6.575   3.477 -0.5519 -0.3048 -0.0117
  420MOL0     C56583   5.817   6.653   3.416 -0.4872  0.8891  0.8021
  420MOL0     C56584   5.772   6.664   3.282 -0.1059  0.4975  0.1660
  420MOL0     C56585   5.835   6.747   3.168  0.1885  0.0610 -0.1965
  420MOL0     C56586   5.731   6.852   3.135 -0.3290  0.5563 -0.1511
  420MOL0     C56587   5.780   6.938   3.024 -0.0281  0.2084 -0.7605
  420MOL0     C56588   5.683   7.047   2.997  0.1932  0.9166 -0.2027
  420MOL0     O56589   5.732   7.110   2.878 -0.1865  0.5282  0.3932
  420MOL0     C56590   5.650   7.211   2.840  0.2947 -0.8959 -0.4054
  420MOL0     C56591   5.539   7.275   2.906 -0.6532  1.0713 -0.3447
  420MOL0     C56592   5.454   7.370   2.844 -1.7314 -0.2128 -0.8315
  420MOL0     C56593   5.495   7.418   2.722  0.0397  0.3326 -0.5085
  420MOL0     C56594   5.435   7.536   2.657 -0.0521  0.4059 -0.6670
  420MOL0     O56595   5.324   7.585   2.711  0.3495  0.9108 -0.0706
  420MOL0     C56596   5.257   7.686   2.647  1.6427  0.2338  0.3168
  420MOL0     C56597   5.266   7.726   2.507  0.5930 -0.2279 -0.3165
  420MOL0     C56598   5.215   7.844   2.462 -0.4140 -0.0023  0.1506
  420MOL0     C56599   5.150   7.934   2.548 -0.0765 -0.0149 -0.3026
  420MOL0     O56600   5.101   8.058   2.515  0.5241 -0.0905  0.0184
  420MOL0     C56601   5.115   8.178   2.591  0.2181  0.4009 -0.0954
  420MOL0     C56602   5.094   8.297   2.497 -0.1715 -0.3271 -1.0648
  420MOL0     C56603   5.205   8.329   2.402 -0.3911  0.8064 -0.7794
  420MOL0     C56604   5.177   8.449   2.308  0.0068  0.6025  0.4726
  420MOL0     C56605   5.311   8.475   2.230  0.3230 -0.3484 -0.2406
  420MOL0     C56606   5.288   8.564   2.106  0.4029 -0.4449 -0.1398
  420MOL0     C56607   5.387   8.515   1.998  0.2600 -0.2231 -0.8414
  420MOL0     C56608   5.536   8.495   2.045  0.7900  0.0064 -0.6072
  420MOL0    Cl56609   5.637   8.437   1.902 -0.4216 -0.3349 -0.3464
  420MOL0     C56610   5.128   7.892   2.674  0.1504 -0.2013  0.9490
  420MOL0     C56611   5.178   7.769   2.726 -0.4356  0.2109 -0.2975
  420MOL0     O56612   5.489   7.578   2.555  0.0174  0.1194  0.2038
  420MOL0     C56613   5.608   7.366   2.658 -0.3727  1.0918  0.0230
  420MOL0     C56614   5.683   7.267   2.719  0.1913  0.7488 -0.1184
  420MOL0     N56615   5.647   6.605   3.270  0.3388 -0.1323  1.3006
  420MOL0     N56616   5.629   6.548   3.384 -0.2625  0.0839  0.5147
  420MOL0     C56617   5.033   6.903   4.180 -0.0485 -0.3994 -0.1880
  420MOL0     C56618   4.985   6.998   4.264 -0.1000  0.1018  0.2687
  420MOL0     C56619   4.753   7.233   4.554  0.1075  1.3960 -0.0089
  420MOL0     C56620   4.854   7.319   4.595  0.0850  0.5064  0.3745
  420MOL0     C56621   4.820   7.440   4.662  0.8408 -0.8273 -0.1859
  420MOL0     C56622   4.682   7.469   4.684  0.3561  0.1812 -0.7997
  420MOL0     O56623   4.638   7.575   4.752  0.5093  0.3568  0.9315
  420MOL0     C56624   4.723   7.683   4.783  0.1486 -0.6728  0.5144
  420MOL0     C56625   4.653   7.760   4.898 -0.2198  0.1184 -0.3317
  420MOL0     C56626   4.566   7.863   4.836  0.5644  0.0804 -0.8195
  420MOL0     C56627   4.641   7.975   4.760  0.2293 -0.4662  0.4481
  420MOL0     C56628   4.550   8.092   4.753 -0.2563 -0.0373 -0.0479
  420MOL0     C56629   4.482   8.191   4.761 -0.2149  0.4767  0.6387
  420MOL0     C56630   4.583   7.378   4.653 -0.4871  1.3461 -0.4209
  420MOL0     C56631   4.620   7.255   4.590 -0.0357 -0.2191  0.0266
  420MOL0     C56632   4.499   7.153   4.559  0.0028 -0.2312  0.0357
  420MOL0     H56633   5.059   6.864   4.559  2.0560  0.0751  0.5534
  420MOL0     H56634   5.158   6.693   4.414 -0.6001  0.0465  2.4020
  420MOL0     H56635   5.289   6.600   4.227  0.4352 -2.0598 -0.6292
  420MOL0     H56636   5.132   6.520   4.249  0.4278 -1.4085 -0.3496
  420MOL0     H56637   5.162   6.547   3.973  0.4517 -2.2715 -1.2617
  420MOL0     H56638   5.173   6.400   4.054  1.7712 -1.1077  0.7641
  420MOL0     H56639   5.425   6.457   4.104  1.3959  2.7744 -0.1084
  420MOL0     H56640   5.396   6.590   3.984 -0.8723  0.1323  0.4262
  420MOL0     H56641   5.374   6.308   3.896  3.3112 -1.0048 -0.8073
  420MOL0     H56642   5.375   6.447   3.788  1.9876 -0.9400 -1.7245
  420MOL0     H56643   5.571   6.355   3.986 -0.3807  1.5058  0.5129
  420MOL0     H56644   5.578   6.335   3.802  1.3281  0.2514  0.2578
  420MOL0     H56645   5.647   6.579   3.963  0.4873 -3.3404  2.3549
  420MOL0     H56646   5.751   6.472   3.894 -1.0787 -3.0342 -1.5994
  420MOL0     H56647   5.739   6.679   3.749 -0.4684  1.3241 -1.6336
  420MOL0     H56648   5.572   6.631   3.694  1.6275  2.3276 -1.6109
  420MOL0     H56649   5.826   6.479   3.641 -0.0861 -0.2634  1.7882
  420MOL0     H56650   5.669   6.417   3.595  2.2477 -0.2605 -2.8272
  420MOL0     H56651   5.911   6.694   3.451  1.5882 -1.3688 -1.6655
  420MOL0     H56652   5.922   6.811   3.187 -0.1428  1.1260 -1.9990
  420MOL0     H56653   5.854   6.686   3.078  1.4354 -1.0842  0.7952
  420MOL0     H56654   5.640   6.805   3.097  0.1714  0.7305 -1.6401
  420MOL0     H56655   5.702   6.902   3.228  0.1470 -0.6228  0.6432
  420MOL0     H56656   5.802   6.866   2.945  1.5918 -2.3813  1.8377
  420MOL0     H56657   5.871   6.996   3.038  0.1141 -0.1825 -0.0246
  420MOL0     H56658   5.687   7.120   3.078  1.7166  0.8723 -0.2115
  420MOL0     H56659   5.587   6.996   2.990 -0.5078  2.2262 -0.4640
  420MOL0     H56660   5.517   7.243   3.007  3.3996 -0.5900  0.2181
  420MOL0     H56661   5.379   7.416   2.908  0.5744  0.9481  1.2226
  420MOL0     H56662   5.310   7.663   2.431 -0.8422 -0.8640 -0.6678
  420MOL0     H56663   5.239   7.875   2.361 -2.3348 -0.9883 -0.6632
  420MOL0     H56664   5.037   8.186   2.668  0.1774 -2.1399  0.2074
  420MOL0     H56665   5.210   8.183   2.646  1.2116  2.8542 -1.8663
  420MOL0     H56666   4.999   8.285   2.442  0.5398 -1.9044 -2.0181
  420MOL0     H56667   5.086   8.387   2.559  0.2981  2.9215 -5.2407
  420MOL0     H56668   5.282   8.365   2.471 -0.5086 -0.2976 -0.0522
  420MOL0     H56669   5.236   8.240   2.345 -1.6797 -1.7143  2.1886
  420MOL0     H56670   5.153   8.545   2.354 -4.8194  0.7969 -1.8064
  420MOL0     H56671   5.103   8.432   2.228  3.0946 -2.5852 -2.0319
  420MOL0     H56672   5.353   8.378   2.200  0.2009 -0.4590 -0.0613
  420MOL0     H56673   5.391   8.517   2.292  2.0147 -2.2121 -1.0391
  420MOL0     H56674   5.187   8.556   2.066  0.3289  1.1808 -0.3329
  420MOL0     H56675   5.315   8.667   2.128 -0.5945  0.0831 -1.3017
  420MOL0     H56676   5.382   8.591   1.920 -0.4006  1.7274  0.9909
  420MOL0     H56677   5.350   8.421   1.957  1.5062 -1.4146  0.6413
  420MOL0     H56678   5.569   8.595   2.076  1.0386 -1.1047  3.3043
  420MOL0     H56679   5.546   8.421   2.126  0.8768 -1.0360 -1.5402
  420MOL0     H56680   5.065   7.955   2.737 -2.0107  1.8196 -2.8800
  420MOL0     H56681   5.167   7.756   2.833  3.3776  1.0369  0.3620
  420MOL0     H56682   5.649   7.410   2.568  0.9120  2.7357  1.3326
  420MOL0     H56683   5.778   7.234   2.677 -1.4266  0.6788 -4.2393
  420MOL0     H56684   5.023   6.920   4.073  1.9015 -2.2214 -0.7233
  420MOL0     H56685   4.962   7.100   4.235 -1.3810 -0.5717 -1.2592
  420MOL0     H56686   4.955   7.308   4.558 -0.5922 -0.2940 -1.3286
  420MOL0     H56687   4.905   7.503   4.684 -0.0331  0.8714 -1.4297
  420MOL0     H56688   4.751   7.748   4.700 -1.6420 -0.8696 -0.2946
  420MOL0     H56689   4.816   7.638   4.821  0.9300 -0.9873 -1.6009
  420MOL0     H56690   4.728   7.813   4.958  1.3252  0.5530 -2.5197
  420MOL0     H56691   4.590   7.696   4.960  0.4547 -1.1503 -0.8990
  420MOL0     H56692   4.506   7.901   4.919  2.9108 -1.1468  1.5775
  420MOL0     H56693   4.487   7.819   4.774 -0.6394  0.6491  0.2704
  420MOL0     H56694   4.733   8.009   4.808 -1.0743 -0.2333  2.9171
  420MOL0     H56695   4.672   7.954   4.657  1.6691 -0.6916  0.9149
  420MOL0     H56696   4.409   8.270   4.764 -1.0018 -0.0302 -2.0593
  420MOL0     H56697   4.477   7.395   4.660 -0.8979  0.0000 -2.5662
  420MOL0     H56698   4.402   7.190   4.594  0.7697  0.2557  1.7810
  420MOL0     H56699   4.485   7.125   4.455 -1.5791  0.1374  0.1283
  420MOL0     H56700   4.529   7.071   4.625  1.1615 -0.3934 -0.6635
  421MOL0     O56701   8.097   3.677  10.344 -0.3783  0.7721 -0.0332
  421MOL0     C56702   8.097   3.692  10.467  0.0961 -0.3881 -0.2632
  421MOL0     O56703   8.184   3.633  10.562  0.0587 -0.0739 -0.1093
  421MOL0     C56704   8.256   3.528  10.503 -0.5835 -0.0201  1.3093
  421MOL0     C56705   8.386   3.547  10.450  0.5110  0.8048 -0.0469
  421MOL0     C56706   8.467   3.431  10.410  0.0630  0.6475 -0.6334
  421MOL0     C56707   8.403   3.306  10.406 -0.2254  0.9686  0.2015
  421MOL0     O56708   8.466   3.188  10.372  0.1438  0.3490 -0.3911
  421MOL0     C56709   8.601   3.194  10.335  0.0816 -0.6697 -0.4274
  421MOL0     C56710   8.645   3.045  10.304 -0.1981  0.3390  0.6354
  421MOL0     C56711   8.607   2.961  10.423  0.1421 -0.0831 -0.3576
  421MOL0     C56712   8.710   2.846  10.430  0.1889 -0.3314 -0.2705
  421MOL0     C56713   8.666   2.754  10.541 -0.3962  0.0560 -0.9136
  421MOL0     C56714   8.768   2.644  10.574  0.5112  0.8139  0.9884
  421MOL0     C56715   8.749   2.538  10.462  0.2195 -0.5388  0.2162
  421MOL0     C56716   8.869   2.434  10.456 -0.4209 -0.7190 -0.1050
  421MOL0     N56717   8.874   2.356  10.340 -0.1731  0.7804  0.5391
  421MOL0     C56718   8.984   2.308  10.280  0.7245  0.0657  0.2078
  421MOL0     C56719   8.939   2.240  10.173 -0.6101  0.0495 -0.0396
  421MOL0     C56720   9.029   2.155  10.089 -0.0343  0.5185  1.3152
  421MOL0     C56721   8.959   2.092   9.965 -0.8763 -0.2452  0.2102
  421MOL0     C56722   8.926   2.197   9.853 -0.3003  0.1944  0.0103
  421MOL0     C56723   8.821   2.136   9.760  0.2447 -0.4663 -0.4864
  421MOL0     O56724   8.883   2.041   9.676 -0.6005  0.4140  0.4468
  421MOL0     C56725   8.847   2.028   9.545 -1.0936 -0.3812  1.2436
  421MOL0     C56726   8.894   2.117   9.449 -0.5746  0.5211 -0.4222
  421MOL0     C56727   8.852   2.107   9.315  0.0479 -0.5155 -0.9123
  421MOL0     C56728   8.776   2.004   9.272  0.4124  0.1650 -0.4214
  421MOL0     C56729   8.751   1.983   9.129 -0.2992 -0.8517  0.4106
  421MOL0     O56730   8.780   2.086   9.045  0.4736 -0.1123 -0.0456
  421MOL0     C56731   8.803   2.091   8.910 -0.2826  0.5186 -0.6061
  421MOL0     C56732   8.813   1.978   8.826  0.4715 -0.4067 -0.9785
  421MOL0     C56733   8.855   1.992   8.697 -0.8461 -0.0795  0.6877
  421MOL0     C56734   8.873   2.109   8.637 -0.3646  0.5420  0.0320
  421MOL0     O56735   8.911   2.128   8.505 -0.5940  0.5035 -0.3681
  421MOL0     C56736   8.928   2.014   8.415  0.1471  0.5759 -0.3003
  421MOL0     C56737   8.935   2.050   8.268 -0.0142  0.2501 -0.3597
  421MOL0     C56738   8.956   1.934   8.177  0.6962 -0.8347 -0.0834
  421MOL0     C56739   8.972   1.968   8.028 -1.0641  0.2283 -0.1551
  421MOL0     C56740   8.983   1.845   7.938 -0.1153  0.0030  1.1987
  421MOL0     C56741   9.092   1.748   7.988 -0.4533  0.4783 -0.5553
  421MOL0     C56742   9.123   1.637   7.887  0.0194  0.5243  0.2555
  421MOL0     C56743   9.156   1.506   7.963  0.0829  0.7083  0.2207
  421MOL0    Cl56744   9.243   1.382   7.865  0.2791  0.2292 -0.1494
  421MOL0     C56745   8.870   2.228   8.716  0.3500  0.3504  0.2519
  421MOL0     C56746   8.835   2.209   8.852  0.2141  0.2911 -0.6637
  421MOL0     O56747   8.707   1.877   9.098  0.1017 -0.1383  0.3292
  421MOL0     C56748   8.727   1.914   9.368 -0.5288 -0.1394 -0.2361
  421MOL0     C56749   8.762   1.931   9.503  0.4186  0.7621  0.8086
  421MOL0     N56750   8.802   2.266  10.156  0.1730  0.3506 -0.0132
  421MOL0     N56751   8.763   2.337  10.255  0.0727  0.6435  0.1079
  421MOL0     C56752   8.271   3.294  10.450 -0.2199  0.3371  0.2844
  421MOL0     C56753   8.192   3.399  10.491  0.2318 -1.1672  0.2120
  421MOL0     C56754   7.994   3.784  10.527  0.2087  0.0357 -0.2372
  421MOL0     C56755   7.871   3.795  10.457  0.9592  0.1036  0.6022
  421MOL0     C56756   7.765   3.860  10.509  0.1474  0.4709  0.0632
  421MOL0     C56757   7.771   3.925  10.631 -0.0443 -0.1926 -0.0042
  421MOL0     O56758   7.662   3.980  10.684  0.0835  0.6984 -0.4228
  421MOL0     C56759   7.679   4.039  10.817  1.3871  0.2480 -0.2407
  421MOL0     C56760   7.549   4.072  10.874  0.4413  0.2132 -0.0663
  421MOL0     C56761   7.553   4.173  10.995  0.3223 -0.1751 -0.7674
  421MOL0     C56762   7.420   4.181  11.070  0.6472 -0.4218 -1.3375
  421MOL0     C56763   7.324   4.247  10.982 -0.0259 -0.2500 -0.2760
  421MOL0     C56764   7.243   4.306  10.920 -0.5389  0.4949  0.5699
  421MOL0     C56765   7.903   3.926  10.692  0.1190 -0.1125 -0.1060
  421MOL0     C56766   8.013   3.856  10.645 -0.4349 -1.4226  0.6195
  421MOL0     C56767   8.149   3.883  10.704  0.2596  0.0726 -0.8616
  421MOL0     H56768   8.417   3.650  10.460  1.3817  0.3997  2.1905
  421MOL0     H56769   8.570   3.453  10.383  0.7511  3.0415  3.1484
  421MOL0     H56770   8.627   3.257  10.250  1.3778  1.9035  1.7326
  421MOL0     H56771   8.667   3.231  10.414 -0.5820  0.2663 -0.3006
  421MOL0     H56772   8.752   3.053  10.283 -0.3492  2.3398  0.3381
  421MOL0     H56773   8.590   3.000  10.221 -3.0644 -1.0717  3.1180
  421MOL0     H56774   8.507   2.920  10.409 -1.5402  3.3073  0.5905
  421MOL0     H56775   8.604   3.009  10.522 -1.1890  0.3051 -0.5740
  421MOL0     H56776   8.710   2.792  10.335 -1.1234 -2.4451  0.8546
  421MOL0     H56777   8.803   2.901  10.444 -0.2182 -0.2598  2.9462
  421MOL0     H56778   8.652   2.820  10.627  0.6606 -0.4828 -0.3089
  421MOL0     H56779   8.579   2.695  10.510  0.3634 -0.4916 -2.0721
  421MOL0     H56780   8.872   2.677  10.584  0.2634  1.7639  0.5728
  421MOL0     H56781   8.746   2.591  10.667 -2.0289 -0.8649 -0.4429
  421MOL0     H56782   8.737   2.597  10.371 -0.1249  0.1860  0.7203
  421MOL0     H56783   8.657   2.487  10.489  0.3146  0.5047  2.8732
  421MOL0     H56784   8.965   2.484  10.467  2.4995 -5.3741 -1.7062
  421MOL0     H56785   8.846   2.379  10.547 -2.5958  1.3336  0.7016
  421MOL0     H56786   9.081   2.316  10.328 -1.4161  3.4431  4.7975
  421MOL0     H56787   9.112   2.214  10.048 -0.8531  2.4690  2.3528
  421MOL0     H56788   9.071   2.076  10.151  1.2562  1.5504  1.8117
  421MOL0     H56789   9.022   2.011   9.926  1.8829  1.1709  1.4309
  421MOL0     H56790   8.868   2.041   9.996 -1.4052  0.3459 -0.3478
  421MOL0     H56791   9.021   2.228   9.809 -0.0633  2.9751  2.2388
  421MOL0     H56792   8.894   2.287   9.905  2.3035  1.1121  0.1613
  421MOL0     H56793   8.773   2.214   9.701 -1.6369  0.1869  1.7696
  421MOL0     H56794   8.740   2.099   9.823  1.0680  1.4373  1.8517
  421MOL0     H56795   8.960   2.199   9.472 -1.0378  0.7769  0.0121
  421MOL0     H56796   8.882   2.187   9.248  1.6893 -0.6124 -0.3457
  421MOL0     H56797   8.796   1.875   8.857  1.7769 -0.7417 -1.3209
  421MOL0     H56798   8.882   1.903   8.642  0.4824  1.2815 -0.9843
  421MOL0     H56799   9.029   1.976   8.435  1.5391  1.5388 -4.4458
  421MOL0     H56800   8.853   1.935   8.427  1.0547 -0.7435 -2.6368
  421MOL0     H56801   8.839   2.096   8.245 -0.4366 -0.5228 -0.1918
  421MOL0     H56802   9.008   2.130   8.251  0.2517 -0.4617 -2.9553
  421MOL0     H56803   9.048   1.892   8.219  0.0453 -0.9631  1.3062
  421MOL0     H56804   8.881   1.854   8.179 -0.6188  0.3551 -0.5868
  421MOL0     H56805   9.064   2.025   8.011 -0.3627 -0.1757  1.9864
  421MOL0     H56806   8.891   2.034   7.996 -1.0016  0.4483  0.1309
  421MOL0     H56807   9.006   1.875   7.836 -4.4495  0.2165  0.0646
  421MOL0     H56808   8.880   1.807   7.938 -0.8920  1.8946 -0.5822
  421MOL0     H56809   9.184   1.798   8.021 -0.5487 -0.8190  1.9146
  421MOL0     H56810   9.044   1.694   8.070 -1.4141  0.8419 -0.8674
  421MOL0     H56811   9.219   1.674   7.848  0.9846 -1.1775  0.9067
  421MOL0     H56812   9.051   1.622   7.806  0.0910  0.4286  0.2101
  421MOL0     H56813   9.217   1.521   8.051 -2.4256 -1.9321  2.6523
  421MOL0     H56814   9.057   1.465   7.989 -0.0349 -0.4962 -1.8744
  421MOL0     H56815   8.891   2.332   8.691  0.9918 -0.0586 -1.0300
  421MOL0     H56816   8.839   2.296   8.917  0.8672  0.7739 -1.3319
  421MOL0     H56817   8.673   1.821   9.348 -0.8767  0.4687 -2.4219
  421MOL0     H56818   8.718   1.868   9.579  1.9893 -1.6253 -0.1536
  421MOL0     H56819   8.242   3.190  10.462  3.3779 -1.1775 -2.3739
  421MOL0     H56820   8.089   3.396  10.525 -0.2796  1.5077 -0.8134
  421MOL0     H56821   7.862   3.752  10.358  1.9325  2.7949 -0.7561
  421MOL0     H56822   7.679   3.842  10.445 -0.5338 -0.1628  1.1367
  421MOL0     H56823   7.738   4.131  10.811 -0.9326  1.7819 -0.8090
  421MOL0     H56824   7.715   3.967  10.892  2.3882  2.6483  1.7081
  421MOL0     H56825   7.482   3.986  10.885  1.4974 -0.6310 -0.0919
  421MOL0     H56826   7.513   4.123  10.784 -0.7190 -0.5290 -0.0453
  421MOL0     H56827   7.570   4.277  10.964 -2.3609  0.0211 -1.8446
  421MOL0     H56828   7.622   4.141  11.073 -2.1586 -3.3987  0.3222
  421MOL0     H56829   7.379   4.081  11.086  0.5867 -0.6457 -2.7527
  421MOL0     H56830   7.430   4.238  11.163 -1.5088  0.7017 -1.7469
  421MOL0     H56831   7.167   4.372  10.885 -2.6175 -2.2838 -0.5718
  421MOL0     H56832   7.934   3.999  10.767 -1.4325  1.4711 -0.9494
  421MOL0     H56833   8.165   3.803  10.776  0.6746 -0.5993 -1.6800
  421MOL0     H56834   8.229   3.883  10.629 -0.8367  2.8923 -2.2070
  421MOL0     H56835   8.157   3.986  10.741 -1.3650 -0.7425  2.0151
  422MOL0     O56836  10.770   2.446  11.045 -0.1065 -0.0187  0.6476
  422MOL0     C56837  10.744   2.528  10.956  0.7367  0.3544  1.4570
  422MOL0     O56838  10.628   2.529  10.883  0.2240  0.7236 -0.4820
  422MOL0     C56839  10.536   2.428  10.922  0.2684 -0.4574  0.6408
  422MOL0     C56840  10.561   2.306  10.855 -0.8881 -0.1685  0.5938
  422MOL0     C56841  10.482   2.188  10.876  0.0634 -0.2436 -0.6541
  422MOL0     C56842  10.379   2.194  10.976 -0.3129  0.6284 -0.0766
  422MOL0     O56843  10.317   2.072  11.016  0.1087 -0.3412  0.3415
  422MOL0     C56844  10.178   2.079  11.065  0.2565  0.1157  0.1798
  422MOL0     C56845  10.094   1.966  11.008 -0.2940 -0.3916  0.2605
  422MOL0     C56846   9.999   2.011  10.901  0.0202  0.0511  0.9765
  422MOL0     C56847   9.914   1.897  10.834  0.5877 -0.5795  0.3587
  422MOL0     C56848   9.787   1.948  10.758  0.4495 -0.3275  0.4452
  422MOL0     C56849   9.660   1.858  10.770  0.0947 -0.4106  0.3651
  422MOL0     C56850   9.667   1.728  10.681 -0.7671 -0.0337 -0.3466
  422MOL0     C56851   9.545   1.639  10.666 -0.0055  0.2874 -0.9935
  422MOL0     N56852   9.435   1.718  10.602 -0.2864  0.0389 -0.7102
  422MOL0     C56853   9.413   1.722  10.466 -0.2319 -0.5272 -0.6118
  422MOL0     C56854   9.301   1.798  10.450  0.1559  0.7276  0.5087
  422MOL0     C56855   9.212   1.817  10.326  0.3262 -0.6769  0.2197
  422MOL0     C56856   9.235   1.696  10.230  0.1124  0.2329 -0.1580
  422MOL0     C56857   9.157   1.726  10.102  0.3865 -0.1530 -0.1487
  422MOL0     C56858   9.178   1.612  10.000  0.6833  0.6854 -0.2587
  422MOL0     O56859   9.309   1.630   9.938  0.0769 -0.7381 -0.3452
  422MOL0     C56860   9.313   1.704   9.822  0.2000  1.9178 -0.3364
  422MOL0     C56861   9.215   1.781   9.767  0.4897 -0.5117 -0.5412
  422MOL0     C56862   9.244   1.848   9.645 -0.6689  0.4003 -1.0719
  422MOL0     C56863   9.379   1.847   9.592  0.5306  0.3889  1.0592
  422MOL0     C56864   9.410   1.915   9.463 -0.5008  0.0163  0.0946
  422MOL0     O56865   9.325   2.025   9.421  0.1697  0.4333 -0.1605
  422MOL0     C56866   9.334   2.065   9.290  0.3645  0.2839  0.0117
  422MOL0     C56867   9.222   2.032   9.211  0.6903 -0.2297  0.1154
  422MOL0     C56868   9.213   2.067   9.078  0.0003  0.0483 -0.1107
  422MOL0     C56869   9.311   2.143   9.022  0.7754  0.1285  0.1529
  422MOL0     O56870   9.312   2.189   8.900 -0.1472 -0.0156 -0.2988
  422MOL0     C56871   9.218   2.121   8.814 -0.4850 -0.0746  0.7742
  422MOL0     C56872   9.218   2.174   8.674 -0.1935 -0.7473  0.3142
  422MOL0     C56873   9.339   2.146   8.581  0.4973  0.3716 -0.0066
  422MOL0     C56874   9.292   2.165   8.424 -0.5004  0.8503 -0.5357
  422MOL0     C56875   9.424   2.188   8.348 -0.5030 -0.2665  0.5172
  422MOL0     C56876   9.383   2.221   8.200  0.0760  1.0484 -0.0876
  422MOL0     C56877   9.506   2.271   8.120  0.7164  0.0758  0.3712
  422MOL0     C56878   9.460   2.343   7.995  0.2458 -0.0360  0.0926
  422MOL0    Cl56879   9.381   2.503   8.026  0.3757 -0.4789 -0.0613
  422MOL0     C56880   9.423   2.181   9.097  0.7508 -0.4060 -0.5213
  422MOL0     C56881   9.432   2.143   9.232 -0.7856 -0.4338  0.2591
  422MOL0     O56882   9.488   1.864   9.388 -0.5723 -0.2034  0.9760
  422MOL0     C56883   9.476   1.776   9.652  1.0369  1.1607 -0.5472
  422MOL0     C56884   9.445   1.708   9.769 -0.3058  0.1770  0.0561
  422MOL0     N56885   9.265   1.840  10.575 -0.0475 -0.2038 -0.2845
  422MOL0     N56886   9.346   1.802  10.666  0.3795  0.8016 -0.0892
  422MOL0     C56887  10.350   2.325  11.029 -0.1717  0.1946 -0.5731
  422MOL0     C56888  10.426   2.441  11.011 -0.1607  0.1159 -0.2194
  422MOL0     C56889  10.834   2.636  10.943  0.6196 -0.3858  0.8653
  422MOL0     C56890  10.970   2.623  10.938  0.1796  0.1100 -0.3879
  422MOL0     C56891  11.055   2.733  10.929 -0.1464 -0.4040  0.2279
  422MOL0     C56892  11.005   2.865  10.907 -0.1918 -0.2683  0.0900
  422MOL0     O56893  11.094   2.972  10.907  0.1945  0.2876  0.8850
  422MOL0     C56894  11.108   3.051  11.021  0.7345  0.0853 -0.5396
  422MOL0     C56895  11.190   3.183  11.002  0.1859 -0.6188 -0.9829
  422MOL0     C56896  11.164   3.288  11.111  0.1153  0.6674 -0.0597
  422MOL0     C56897  11.270   3.262  11.218 -0.1053 -0.3621  0.3238
  422MOL0     C56898  11.258   3.362  11.333 -0.9461 -0.4347  0.9265
  422MOL0     C56899  11.238   3.433  11.427 -0.1791 -0.1162 -0.4042
  422MOL0     C56900  10.871   2.882  10.914 -0.0658  1.0031 -1.1756
  422MOL0     C56901  10.780   2.772  10.929  0.5272 -0.1433  0.1661
  422MOL0     C56902  10.623   2.812  10.940 -0.7075 -0.4789 -0.5090
  422MOL0     H56903  10.638   2.301  10.778 -1.0246  1.8692  0.2569
  422MOL0     H56904  10.523   2.099  10.828  0.4367  0.2603 -1.2853
  422MOL0     H56905  10.187   2.066  11.174  1.4374  0.0042  0.0780
  422MOL0     H56906  10.117   2.169  11.053  0.2734 -0.0674 -1.5067
  422MOL0     H56907  10.030   1.915  11.081 -1.6293  0.6833 -0.1267
  422MOL0     H56908  10.163   1.887  10.976  1.6774 -0.4337  4.0555
  422MOL0     H56909  10.060   2.054  10.821  1.2958 -3.9122 -0.4621
  422MOL0     H56910   9.929   2.082  10.946 -1.3796 -1.3405  1.1082
  422MOL0     H56911   9.980   1.836  10.772  0.8298 -1.0112  1.0289
  422MOL0     H56912   9.886   1.831  10.917  1.1079 -2.6135 -0.9983
  422MOL0     H56913   9.762   2.044  10.804 -0.3685 -0.4633  0.3085
  422MOL0     H56914   9.801   1.958  10.650 -0.5313 -3.1354 -0.0401
  422MOL0     H56915   9.634   1.830  10.873  3.2367  0.1514  1.4220
  422MOL0     H56916   9.572   1.915  10.739  0.0453 -1.0019 -0.6338
  422MOL0     H56917   9.748   1.662  10.713  0.4285  1.2071 -0.7317
  422MOL0     H56918   9.696   1.757  10.579 -1.9557  0.1729 -0.6426
  422MOL0     H56919   9.569   1.545  10.615 -0.7029 -0.6077  0.2762
  422MOL0     H56920   9.513   1.599  10.763  0.9453  0.4397 -0.6069
  422MOL0     H56921   9.465   1.667  10.388  1.7801  1.5606 -0.8383
  422MOL0     H56922   9.104   1.821  10.341  0.1657 -1.4847 -0.6259
  422MOL0     H56923   9.238   1.914  10.283 -2.8265  0.4420  0.5859
  422MOL0     H56924   9.343   1.701  10.216  0.3711  1.3080  1.8017
  422MOL0     H56925   9.200   1.603  10.275  0.0752  0.0058 -0.6505
  422MOL0     H56926   9.194   1.823  10.070 -1.5216  0.8691  0.5841
  422MOL0     H56927   9.050   1.744  10.120  0.0729  0.8723 -2.6904
  422MOL0     H56928   9.103   1.597   9.922  2.2850 -0.3256 -1.6430
  422MOL0     H56929   9.175   1.515  10.052  0.0474 -1.1927 -3.5438
  422MOL0     H56930   9.115   1.779   9.810 -0.4892 -1.3910 -2.6985
  422MOL0     H56931   9.181   1.920   9.594  2.1539  2.0183 -2.5220
  422MOL0     H56932   9.146   1.967   9.252 -0.2263 -0.3909 -1.7450
  422MOL0     H56933   9.114   2.049   9.038  0.2676 -0.2124 -0.6622
  422MOL0     H56934   9.250   2.017   8.811 -2.3020 -0.6684  0.6117
  422MOL0     H56935   9.115   2.136   8.847 -0.9902 -2.1089  0.2236
  422MOL0     H56936   9.139   2.116   8.625  1.5065 -0.8668 -2.4880
  422MOL0     H56937   9.209   2.283   8.679  3.0136 -0.2285 -1.9928
  422MOL0     H56938   9.423   2.211   8.606  1.0806 -0.8044  1.2040
  422MOL0     H56939   9.378   2.045   8.595 -0.3772  0.1023  0.5923
  422MOL0     H56940   9.224   2.248   8.401 -0.4918  1.0677  0.1898
  422MOL0     H56941   9.247   2.074   8.384  0.4607  1.0517 -2.1670
  422MOL0     H56942   9.490   2.101   8.352 -2.4705 -1.8389  0.0345
  422MOL0     H56943   9.477   2.273   8.393  0.3417 -0.6238  0.2131
  422MOL0     H56944   9.345   2.126   8.162 -2.9593  2.9404 -2.2529
  422MOL0     H56945   9.309   2.302   8.194  2.1821  2.9675 -3.9080
  422MOL0     H56946   9.574   2.194   8.082 -0.2377  0.9026 -3.5115
  422MOL0     H56947   9.553   2.351   8.177 -2.3471  1.0928  1.7042
  422MOL0     H56948   9.541   2.353   7.921 -1.8378 -1.1236 -2.5083
  422MOL0     H56949   9.387   2.284   7.940  0.5003 -0.6848  0.4453
  422MOL0     H56950   9.503   2.238   9.051  0.6424 -1.1820 -1.7417
  422MOL0     H56951   9.508   2.188   9.295 -0.9590  3.0215 -1.7166
  422MOL0     H56952   9.577   1.785   9.616  1.6115  1.5472  1.0585
  422MOL0     H56953   9.520   1.660   9.830 -1.4875 -1.7829  0.0590
  422MOL0     H56954  10.260   2.332  11.090  1.1798 -0.3621  1.6072
  422MOL0     H56955  10.421   2.537  11.061  0.6800  0.2565 -0.3981
  422MOL0     H56956  11.020   2.530  10.962  1.9182  1.8743  3.7712
  422MOL0     H56957  11.158   2.711  10.956 -1.2701 -2.3348  3.5447
  422MOL0     H56958  11.155   2.985  11.095 -1.0059 -1.9940 -1.1843
  422MOL0     H56959  11.010   3.076  11.062  0.4033 -1.4780 -0.2982
  422MOL0     H56960  11.153   3.223  10.907 -1.8806 -2.9880 -1.2852
  422MOL0     H56961  11.297   3.162  10.998  0.5628  0.4996  1.4778
  422MOL0     H56962  11.067   3.279  11.161 -0.1869 -2.4982 -0.9604
  422MOL0     H56963  11.179   3.382  11.058 -2.8038 -0.3393 -3.0451
  422MOL0     H56964  11.268   3.161  11.261  0.2722 -1.6025 -2.3665
  422MOL0     H56965  11.371   3.269  11.176 -1.3513 -1.8983 -3.3601
  422MOL0     H56966  11.208   3.496  11.508 -2.3518 -1.4242 -0.1058
  422MOL0     H56967  10.830   2.983  10.905  0.0845  1.2261  0.3384
  422MOL0     H56968  10.606   2.906  10.993 -2.7285  1.4515 -4.1974
  422MOL0     H56969  10.577   2.817  10.841 -0.1298 -1.9831 -0.8831
  422MOL0     H56970  10.571   2.740  11.004  0.1070  0.1660  0.9222
  423MOL0     O56971   9.925   8.391   6.034  0.2263  0.0766  0.0617
  423MOL0     C56972   9.847   8.380   6.128 -0.7063 -0.4611 -0.9606
  423MOL0     O56973   9.872   8.320   6.246  0.1435 -0.0012  0.2231
  423MOL0     C56974   9.989   8.247   6.257  0.1618  0.0215 -0.0954
  423MOL0     C56975  10.119   8.308   6.250  0.3645 -0.3100 -0.3397
  423MOL0     C56976  10.235   8.223   6.276  0.9094 -0.2447  0.0012
  423MOL0     C56977  10.211   8.091   6.296 -0.1935  0.3636 -0.5416
  423MOL0     O56978  10.320   8.009   6.323  0.8815  0.2067  0.0628
  423MOL0     C56979  10.359   8.054   6.455 -0.0675 -0.7892 -0.2263
  423MOL0     C56980  10.445   7.939   6.511 -0.2400  0.5473  0.4889
  423MOL0     C56981  10.572   7.890   6.432 -1.0792 -0.3876  0.2735
  423MOL0     C56982  10.687   7.879   6.534 -0.0780  0.4415 -0.4520
  423MOL0     C56983  10.811   7.831   6.482 -0.3150 -0.5453  0.5297
  423MOL0     C56984  10.927   7.870   6.575 -0.4950 -0.4323  0.7057
  423MOL0     C56985  11.050   7.807   6.511 -0.5618 -0.0387 -0.7120
  423MOL0     C56986  11.138   7.758   6.621 -0.3374  0.4924 -0.8878
  423MOL0     N56987  11.279   7.759   6.577 -0.0340  0.3931  0.8172
  423MOL0     C56988  11.371   7.863   6.567  1.0698 -0.8256  0.5622
  423MOL0     C56989  11.477   7.818   6.500  0.2837  0.4050 -0.3613
  423MOL0     C56990  11.596   7.902   6.457 -0.4988  0.2887 -0.3069
  423MOL0     C56991  11.698   7.921   6.570 -0.1452  0.3998  0.6678
  423MOL0     C56992  11.843   7.968   6.520 -0.4742  0.3040  0.0161
  423MOL0     C56993  11.943   7.856   6.491  0.4292 -0.5854  0.4400
  423MOL0     O56994  12.078   7.905   6.450 -0.2144  0.3626 -0.5905
  423MOL0     C56995  12.096   7.988   6.340 -0.7026  0.9884  0.0008
  423MOL0     C56996  12.197   8.082   6.344 -1.3544 -0.3264 -0.5101
  423MOL0     C56997  12.229   8.158   6.228  0.0463  0.2789 -0.7582
  423MOL0     C56998  12.162   8.134   6.110 -0.2823  1.2071  0.3711
  423MOL0     C56999  12.209   8.198   5.993 -0.5952 -0.3306  0.2965
  423MOL0     O57000  12.335   8.259   6.005 -0.2979  0.8857  0.0683
  423MOL0     C57001  12.376   8.303   5.882 -0.3470 -0.3810  0.1412
  423MOL0     C57002  12.486   8.241   5.824 -0.2510  0.1044  0.0538
  423MOL0     C57003  12.546   8.297   5.709 -0.3582  0.1487 -0.0583
  423MOL0     C57004  12.491   8.410   5.648  0.0420  0.4694  0.2299
  423MOL0     O57005  12.563   8.458   5.540  0.2557 -0.2211  0.0501
  423MOL0     C57006  12.500   8.565   5.467 -0.2673 -0.5038  0.5319
  423MOL0     C57007  12.601   8.619   5.368  0.4819 -0.0653  0.8418
  423MOL0     C57008  12.621   8.513   5.255 -0.5537  0.1638 -0.0886
  423MOL0     C57009  12.727   8.580   5.167 -0.3882  0.7428 -0.5853
  423MOL0     C57010  12.779   8.492   5.054 -0.3652  0.3237  0.4535
  423MOL0     C57011  12.869   8.549   4.948 -0.0376  0.5057  0.4403
  423MOL0     C57012  13.008   8.579   5.004 -0.4599  0.0921  0.4570
  423MOL0     C57013  13.091   8.458   5.037 -0.3873 -0.2590 -0.1313
  423MOL0    Cl57014  13.267   8.513   5.052 -0.0717  0.4146  0.1507
  423MOL0     C57015  12.373   8.472   5.703 -0.3486  0.8693 -0.0356
  423MOL0     C57016  12.321   8.423   5.822  0.2397  0.3388 -0.1368
  423MOL0     O57017  12.135   8.208   5.893  0.5462  0.4767 -0.3492
  423MOL0     C57018  12.052   8.042   6.109  0.7735 -0.1245 -0.3433
  423MOL0     C57019  12.018   7.968   6.223 -0.9828  0.1481 -0.9253
  423MOL0     N57020  11.455   7.687   6.482 -0.5670 -0.6230  0.1788
  423MOL0     N57021  11.340   7.647   6.520  0.9150 -0.3031 -0.1270
  423MOL0     C57022  10.088   8.035   6.305  0.8255 -0.8414 -0.0782
  423MOL0     C57023   9.976   8.112   6.290  0.2993  0.0310  0.1701
  423MOL0     C57024   9.728   8.469   6.113 -0.5451  0.4097 -0.8254
  423MOL0     C57025   9.728   8.591   6.190  0.9595  0.2125 -0.0982
  423MOL0     C57026   9.639   8.687   6.147  0.9123  0.1010 -1.3937
  423MOL0     C57027   9.536   8.661   6.062  0.3446 -1.7191 -0.0510
  423MOL0     O57028   9.437   8.760   6.048  0.0872  0.6833  0.4564
  423MOL0     C57029   9.304   8.709   6.047 -0.6499  1.0514  0.1694
  423MOL0     C57030   9.206   8.815   6.099 -0.0345 -0.0137 -0.9707
  423MOL0     C57031   9.182   8.933   6.005 -0.6226 -0.4104 -0.2428
  423MOL0     C57032   9.083   9.031   6.055  0.5532  0.0913  0.3764
  423MOL0     C57033   9.157   9.121   6.143  0.1584 -0.1620  0.8721
  423MOL0     C57034   9.225   9.180   6.225 -0.0770 -0.5082 -0.0400
  423MOL0     C57035   9.523   8.536   6.007 -1.0474 -0.1268 -0.2804
  423MOL0     C57036   9.633   8.444   6.023  0.1308  0.3251  0.4157
  423MOL0     C57037   9.625   8.311   5.953 -0.5795 -0.4806 -0.6511
  423MOL0     H57038  10.143   8.414   6.240  3.6767 -0.8254  1.0953
  423MOL0     H57039  10.329   8.275   6.267  0.9381  0.1982  2.1735
  423MOL0     H57040  10.424   8.141   6.446 -0.6580 -0.4278 -1.0533
  423MOL0     H57041  10.278   8.067   6.527  1.9529 -1.0029  2.2163
  423MOL0     H57042  10.380   7.856   6.539 -0.6566  0.7003 -0.0233
  423MOL0     H57043  10.482   7.983   6.605 -2.1128  2.3204  0.4775
  423MOL0     H57044  10.595   7.972   6.364 -0.6881 -0.5142  0.2479
  423MOL0     H57045  10.550   7.791   6.389 -0.1725 -0.2298 -0.5861
  423MOL0     H57046  10.697   7.984   6.561 -1.4227  0.2014  1.1297
  423MOL0     H57047  10.655   7.824   6.623  0.8267  0.5850 -0.0326
  423MOL0     H57048  10.810   7.721   6.478  1.3701 -0.5637 -0.3226
  423MOL0     H57049  10.826   7.872   6.382 -2.3204 -1.0021 -0.0073
  423MOL0     H57050  10.943   7.978   6.572 -1.2061 -0.3168  1.1018
  423MOL0     H57051  10.918   7.822   6.673  2.7357 -1.2790  0.7321
  423MOL0     H57052  11.090   7.893   6.456  3.7117 -0.8720  0.6992
  423MOL0     H57053  11.038   7.729   6.434  2.4523  1.4962 -2.9516
  423MOL0     H57054  11.135   7.826   6.706 -3.2756  0.8379 -1.1724
  423MOL0     H57055  11.115   7.656   6.653  2.6250 -0.1215 -0.4671
  423MOL0     H57056  11.351   7.963   6.604  0.5782 -1.4360  2.0302
  423MOL0     H57057  11.643   7.855   6.370  0.8180  0.7056  0.1587
  423MOL0     H57058  11.556   8.000   6.430  0.2319  0.9779  0.9846
  423MOL0     H57059  11.662   8.004   6.631 -1.3406  0.5280 -0.1734
  423MOL0     H57060  11.712   7.839   6.642  0.2980 -0.7111 -0.6422
  423MOL0     H57061  11.884   8.036   6.596 -0.0101  2.6013 -2.1359
  423MOL0     H57062  11.839   8.025   6.427 -0.7930  0.7718  0.3077
  423MOL0     H57063  11.901   7.795   6.411  3.2695  1.1903 -2.6215
  423MOL0     H57064  11.946   7.786   6.576  1.3005 -0.2539  0.6882
  423MOL0     H57065  12.244   8.093   6.441  1.2518 -1.2788 -1.5660
  423MOL0     H57066  12.308   8.231   6.239  0.9230 -0.9121  1.5672
  423MOL0     H57067  12.511   8.144   5.866 -2.2629  0.1796  1.5703
  423MOL0     H57068  12.629   8.248   5.659  0.2334  3.2056 -2.3266
  423MOL0     H57069  12.412   8.532   5.411  1.5986  1.7534 -4.2824
  423MOL0     H57070  12.467   8.638   5.541 -2.4030 -0.5318 -0.3130
  423MOL0     H57071  12.579   8.718   5.327  1.2281 -0.9577 -1.8743
  423MOL0     H57072  12.685   8.642   5.436  0.3606 -1.8284  1.6603
  423MOL0     H57073  12.657   8.419   5.298 -3.4979 -0.5982  0.9677
  423MOL0     H57074  12.536   8.489   5.190  0.4295  0.2541 -1.4573
  423MOL0     H57075  12.812   8.605   5.232 -0.6398  1.9260 -0.6850
  423MOL0     H57076  12.683   8.671   5.126 -3.4946 -0.0727  0.6273
  423MOL0     H57077  12.685   8.469   5.003 -0.6430  0.2043  1.0162
  423MOL0     H57078  12.815   8.395   5.091  1.9427  0.1785 -1.8719
  423MOL0     H57079  12.880   8.478   4.866 -0.4901 -0.8201  1.4927
  423MOL0     H57080  12.815   8.636   4.910  1.2942  0.6917 -1.1496
  423MOL0     H57081  13.001   8.630   5.101  0.0260 -0.0046  0.5489
  423MOL0     H57082  13.058   8.647   4.935  3.0190  0.6540  3.2160
  423MOL0     H57083  13.061   8.406   5.129 -2.0703 -0.6235 -0.8542
  423MOL0     H57084  13.075   8.385   4.958 -0.3223  1.1294 -1.4734
  423MOL0     H57085  12.329   8.563   5.665  1.5101  1.5307 -0.7027
  423MOL0     H57086  12.239   8.481   5.862 -2.2139 -1.0846 -2.7541
  423MOL0     H57087  12.004   8.012   6.016  1.9064 -0.1639 -0.9238
  423MOL0     H57088  11.954   7.881   6.215  2.0221 -2.5767  1.5114
  423MOL0     H57089  10.089   7.926   6.306  0.8983 -0.8394  1.2907
  423MOL0     H57090   9.888   8.061   6.328  1.4628 -0.4391  2.4041
  423MOL0     H57091   9.795   8.611   6.273  1.8249  1.1878 -0.9862
  423MOL0     H57092   9.634   8.785   6.194 -0.1792 -0.5321 -0.1281
  423MOL0     H57093   9.302   8.613   6.098 -0.0846  0.8718 -0.1355
  423MOL0     H57094   9.283   8.693   5.940  1.2161 -0.9659  0.0498
  423MOL0     H57095   9.235   8.841   6.202 -2.9441 -4.4534  1.3076
  423MOL0     H57096   9.111   8.767   6.126 -0.3421  2.0040  2.1246
  423MOL0     H57097   9.154   8.894   5.907 -0.2729 -1.7149  0.1549
  423MOL0     H57098   9.277   8.984   5.991 -1.4816  1.4981  0.5974
  423MOL0     H57099   9.038   9.082   5.970  1.3214  0.4293  0.1610
  423MOL0     H57100   9.004   8.977   6.109 -1.2842 -0.2482 -2.4796
  423MOL0     H57101   9.295   9.221   6.294 -0.1564 -0.0885 -0.2052
  423MOL0     H57102   9.432   8.509   5.954 -1.9950  1.5246  0.4300
  423MOL0     H57103   9.521   8.294   5.923 -0.7326 -0.3261 -0.2283
  423MOL0     H57104   9.693   8.318   5.868 -0.6731 -1.9123 -0.8626
  423MOL0     H57105   9.660   8.231   6.019  0.9914 -0.3005 -1.2209
  424MOL0     O57106   9.604   2.784   5.060  0.6474  0.5039 -0.4576
  424MOL0     C57107   9.563   2.894   5.018 -0.3482  0.7834  1.1807
  424MOL0     O57108   9.439   2.941   5.014 -0.3140 -0.8544  0.3422
  424MOL0     C57109   9.331   2.865   5.047  0.1988  0.0654 -0.8720
  424MOL0     C57110   9.319   2.748   5.125 -0.0159  0.3496 -0.2451
  424MOL0     C57111   9.190   2.692   5.158 -1.0635  0.6054 -0.3573
  424MOL0     C57112   9.067   2.755   5.116  0.3792 -0.0015 -0.4604
  424MOL0     O57113   8.940   2.701   5.132  0.1665 -0.5840 -0.3707
  424MOL0     C57114   8.923   2.607   5.242 -0.2241 -0.7134  0.4923
  424MOL0     C57115   8.785   2.557   5.247  0.2296  0.3152 -0.7533
  424MOL0     C57116   8.758   2.466   5.364  0.2111 -0.5607 -0.3563
  424MOL0     C57117   8.815   2.322   5.351  0.4090 -1.2852  0.6352
  424MOL0     C57118   8.790   2.226   5.477 -1.1461 -0.5820  0.7568
  424MOL0     C57119   8.857   2.274   5.610  0.0915  0.0057  0.3310
  424MOL0     C57120   9.006   2.312   5.601  0.1307  0.2604  0.2900
  424MOL0     C57121   9.102   2.202   5.564 -0.5497 -0.4168 -0.1338
  424MOL0     N57122   9.232   2.253   5.510  0.1048  0.3026 -0.1396
  424MOL0     C57123   9.261   2.259   5.372  0.0243  0.6306 -0.6420
  424MOL0     C57124   9.355   2.356   5.383 -0.1364 -0.3243  1.1490
  424MOL0     C57125   9.429   2.408   5.259 -0.4542  0.3975  0.5840
  424MOL0     C57126   9.567   2.347   5.237 -0.4142  0.1619 -0.8186
  424MOL0     C57127   9.672   2.390   5.326 -0.8566 -0.0642 -0.0844
  424MOL0     C57128   9.813   2.308   5.314  0.1400  0.7860 -0.1796
  424MOL0     O57129   9.870   2.299   5.188 -0.1433  0.1317  0.3516
  424MOL0     C57130   9.833   2.189   5.107  0.9589 -0.0980  0.1347
  424MOL0     C57131   9.761   2.077   5.160 -0.6122  0.5011  0.0099
  424MOL0     C57132   9.740   1.970   5.072  0.5710 -0.2197  0.4612
  424MOL0     C57133   9.776   1.973   4.935 -0.6000 -1.0345  0.3434
  424MOL0     C57134   9.750   1.862   4.836  0.8181  0.3033  0.2153
  424MOL0     O57135   9.661   1.763   4.888  0.1930 -0.0293  0.1700
  424MOL0     C57136   9.614   1.660   4.811  0.1468 -0.3776 -0.6682
  424MOL0     C57137   9.529   1.691   4.702 -0.2305  0.3445 -1.1457
  424MOL0     C57138   9.466   1.586   4.627 -0.3348  0.6930 -1.7092
  424MOL0     C57139   9.487   1.448   4.665 -0.4794  1.3186 -0.1953
  424MOL0     O57140   9.457   1.343   4.580  0.2668  0.3095  0.0148
  424MOL0     C57141   9.350   1.366   4.480 -0.2322 -0.4587  0.5341
  424MOL0     C57142   9.318   1.241   4.388 -0.9045 -0.1087  0.4843
  424MOL0     C57143   9.437   1.180   4.323  0.8479 -0.5346 -0.4301
  424MOL0     C57144   9.412   1.052   4.248  0.5535  0.8453  0.4552
  424MOL0     C57145   9.539   0.994   4.172  0.9142 -0.1021  0.2779
  424MOL0     C57146   9.671   1.005   4.257  0.1109 -0.6741 -0.2919
  424MOL0     C57147   9.666   0.901   4.381 -0.5915  0.3803 -0.0236
  424MOL0     C57148   9.661   0.746   4.342 -0.2806  0.0911  0.7061
  424MOL0    Cl57149   9.501   0.669   4.306  0.3807  0.5405 -0.3556
  424MOL0     C57150   9.570   1.415   4.778 -0.3021 -0.5708 -0.2957
  424MOL0     C57151   9.628   1.525   4.851 -0.0520  0.4170 -0.2505
  424MOL0     O57152   9.796   1.870   4.719  0.3253 -0.3183  0.6527
  424MOL0     C57153   9.845   2.086   4.885  0.5424 -0.3859  0.2766
  424MOL0     C57154   9.874   2.195   4.970  0.2524 -0.1408 -0.3735
  424MOL0     N57155   9.394   2.391   5.510  0.2540 -0.1725 -0.0721
  424MOL0     N57156   9.313   2.329   5.592 -0.1038 -0.1687  0.0710
  424MOL0     C57157   9.087   2.876   5.059  0.3938  0.5898  0.0717
  424MOL0     C57158   9.207   2.929   5.028 -0.1504  0.0213 -0.1877
  424MOL0     C57159   9.667   2.970   4.941  0.3675  0.1056  0.3959
  424MOL0     C57160   9.639   2.998   4.807  0.9758  0.4417 -0.1044
  424MOL0     C57161   9.731   3.047   4.709 -0.2630 -0.2495  0.8407
  424MOL0     C57162   9.863   3.068   4.752  0.1552 -0.1996 -0.3739
  424MOL0     O57163   9.956   3.087   4.658 -0.6378  0.3861  0.3092
  424MOL0     C57164  10.085   3.029   4.686 -0.3335  0.3689  0.1868
  424MOL0     C57165  10.137   2.957   4.562 -0.6647  0.2181 -0.4515
  424MOL0     C57166  10.093   2.816   4.535  0.8292 -0.0747 -0.7869
  424MOL0     C57167  10.149   2.752   4.416 -0.4331 -0.2390  0.8344
  424MOL0     C57168  10.244   2.641   4.434  0.4437  0.0765 -0.6342
  424MOL0     C57169  10.307   2.539   4.459  0.9860 -0.2754  0.1288
  424MOL0     C57170   9.884   3.061   4.894 -0.2703  0.3439  1.4492
  424MOL0     C57171   9.795   3.007   4.984 -0.3851  0.4213  0.0298
  424MOL0     C57172   9.837   2.961   5.123 -1.4655 -0.1097  0.0315
  424MOL0     H57173   9.407   2.700   5.166 -1.5322  0.0360  2.9396
  424MOL0     H57174   9.177   2.596   5.208 -1.2481  0.1560 -1.2578
  424MOL0     H57175   8.987   2.523   5.213  0.5277  1.3060 -4.8367
  424MOL0     H57176   8.960   2.635   5.341 -1.4512  0.7054  0.5941
  424MOL0     H57177   8.750   2.505   5.157 -0.7900  1.5969 -1.1383
  424MOL0     H57178   8.721   2.646   5.250  0.0700  0.3709 -3.2933
  424MOL0     H57179   8.651   2.459   5.383  0.3892 -4.0319  0.0147
  424MOL0     H57180   8.796   2.500   5.461  0.3619 -2.1957  0.1829
  424MOL0     H57181   8.762   2.283   5.264 -1.0758  0.0084  0.9037
  424MOL0     H57182   8.921   2.324   5.323  0.0339  1.3362 -0.9152
  424MOL0     H57183   8.682   2.207   5.478 -1.7131  0.9230 -4.0255
  424MOL0     H57184   8.831   2.129   5.447 -0.3395  0.3484 -1.3891
  424MOL0     H57185   8.799   2.358   5.651  3.5637  1.8483  1.8307
  424MOL0     H57186   8.845   2.190   5.680  0.5801 -1.1833 -0.9676
  424MOL0     H57187   9.047   2.352   5.695  1.6602  0.0410 -0.2467
  424MOL0     H57188   8.999   2.396   5.531 -0.9846  0.8004  1.0158
  424MOL0     H57189   9.119   2.165   5.666 -1.4835  2.1146  1.0281
  424MOL0     H57190   9.061   2.129   5.493 -3.0632  2.5827 -2.0286
  424MOL0     H57191   9.216   2.210   5.286  5.2883  0.3631 -3.6510
  424MOL0     H57192   9.367   2.393   5.170  3.4578 -5.3071 -1.8257
  424MOL0     H57193   9.446   2.514   5.277 -3.3251  1.2467 -1.1225
  424MOL0     H57194   9.551   2.239   5.232 -1.5036  0.3248 -1.2539
  424MOL0     H57195   9.604   2.376   5.138  2.4438 -2.1265 -0.5590
  424MOL0     H57196   9.636   2.382   5.429  1.7759  2.2635  1.1630
  424MOL0     H57197   9.713   2.488   5.301  1.4231 -0.8122  0.4111
  424MOL0     H57198   9.813   2.215   5.371 -1.5742 -0.4778 -2.0947
  424MOL0     H57199   9.873   2.376   5.376 -1.8297 -0.5135  3.5154
  424MOL0     H57200   9.723   2.056   5.260  0.5535 -0.3819  0.2950
  424MOL0     H57201   9.685   1.885   5.110  1.3140 -0.7761  0.3087
  424MOL0     H57202   9.529   1.794   4.669  0.0314 -0.3934 -3.6076
  424MOL0     H57203   9.412   1.621   4.539 -2.0091 -1.7241 -1.7447
  424MOL0     H57204   9.255   1.396   4.523  0.0872  2.4787 -0.5478
  424MOL0     H57205   9.389   1.450   4.421 -1.8401  1.4603  2.1115
  424MOL0     H57206   9.257   1.163   4.434  1.2579 -3.5603 -1.9923
  424MOL0     H57207   9.266   1.287   4.304  0.6919 -1.0237 -1.0664
  424MOL0     H57208   9.470   1.249   4.245 -0.5723 -1.4175 -1.8769
  424MOL0     H57209   9.506   1.174   4.408 -0.0067 -3.3501  0.1742
  424MOL0     H57210   9.320   1.061   4.188 -1.8932 -0.0758  3.7784
  424MOL0     H57211   9.391   0.979   4.326  0.6005  0.5920  0.2347
  424MOL0     H57212   9.544   1.055   4.081 -1.0254  0.4722  0.5270
  424MOL0     H57213   9.523   0.889   4.145  0.5296 -0.2718  1.1517
  424MOL0     H57214   9.752   0.992   4.184  1.3608  2.7666  0.2784
  424MOL0     H57215   9.696   1.105   4.292 -0.2017 -1.3635  2.0341
  424MOL0     H57216   9.591   0.931   4.455 -0.2329  4.2955 -1.0202
  424MOL0     H57217   9.761   0.918   4.431 -1.2900 -0.2017  1.5648
  424MOL0     H57218   9.729   0.742   4.256 -0.7029 -0.2037  0.3852
  424MOL0     H57219   9.703   0.689   4.425 -1.5933  1.2455  2.2230
  424MOL0     H57220   9.583   1.312   4.807 -0.6688 -0.9219 -1.3434
  424MOL0     H57221   9.711   1.493   4.914 -0.6544  1.0901  0.9271
  424MOL0     H57222   9.859   2.096   4.778  2.5057 -0.9871  0.4472
  424MOL0     H57223   9.923   2.288   4.942 -1.1934  0.4285 -1.1314
  424MOL0     H57224   8.998   2.928   5.025  1.2790  0.4482 -2.6643
  424MOL0     H57225   9.200   3.023   4.975  2.9858  0.1990 -0.5079
  424MOL0     H57226   9.545   2.959   4.769  0.4343  1.1243  0.5218
  424MOL0     H57227   9.710   3.069   4.605  0.8002 -1.2794  0.3827
  424MOL0     H57228  10.085   2.959   4.770  0.8237 -1.0978 -0.9746
  424MOL0     H57229  10.149   3.113   4.716  1.7436 -0.3438 -1.9944
  424MOL0     H57230  10.246   2.962   4.559 -0.6374  0.4012  0.5302
  424MOL0     H57231  10.105   3.024   4.482  2.9540  1.2346 -1.2419
  424MOL0     H57232   9.985   2.815   4.525  0.3437 -5.3712  1.7159
  424MOL0     H57233  10.114   2.751   4.621  3.1846  1.5679 -0.0107
  424MOL0     H57234  10.078   2.716   4.341  0.8015 -2.1257  0.4925
  424MOL0     H57235  10.209   2.832   4.372 -3.3472  1.5421 -0.1931
  424MOL0     H57236  10.365   2.451   4.479  2.4428  0.7039  0.3225
  424MOL0     H57237   9.988   3.064   4.927  0.1574 -3.0763  0.7625
  424MOL0     H57238   9.851   2.853   5.121  0.3002 -0.0842  3.7111
  424MOL0     H57239   9.933   3.008   5.147 -0.6652 -0.1536 -2.7303
  424MOL0     H57240   9.758   2.980   5.196 -2.7571  0.6641 -1.4902
  425MOL0     O57241  10.889  10.272  10.258  0.2810 -0.0685  0.6167
  425MOL0     C57242  10.848  10.353  10.341 -0.2928  0.9730 -0.6069
  425MOL0     O57243  10.731  10.342  10.415  0.1715  0.2094  0.2109
  425MOL0     C57244  10.680  10.213  10.457 -0.3729 -1.3299 -0.1734
  425MOL0     C57245  10.757  10.095  10.468  0.5030 -1.1081 -0.5590
  425MOL0     C57246  10.713   9.979  10.528  0.0463 -0.5032  0.5156
  425MOL0     C57247  10.587   9.975  10.581 -0.5810 -0.1028 -0.4722
  425MOL0     O57248  10.519   9.866  10.633  0.3800 -0.8580  0.1866
  425MOL0     C57249  10.587   9.754  10.691  0.2385  0.0005 -1.0988
  425MOL0     C57250  10.534   9.723  10.827  0.5109  0.5321 -0.7391
  425MOL0     C57251  10.547   9.832  10.926 -0.4182  0.6101 -0.6935
  425MOL0     C57252  10.536   9.784  11.065 -0.1096 -0.3885 -0.3502
  425MOL0     C57253  10.538   9.905  11.163  0.0452  0.3826  0.3106
  425MOL0     C57254  10.673   9.982  11.182 -1.3379  1.1526  0.1053
  425MOL0     C57255  10.662  10.114  11.266  0.2422  1.0233  0.2963
  425MOL0     C57256  10.608  10.084  11.402  0.1101  0.4211 -0.4942
  425MOL0     N57257  10.707  10.004  11.483  0.2617  0.6842  0.4367
  425MOL0     C57258  10.809  10.070  11.565 -0.9474  0.7053  0.3216
  425MOL0     C57259  10.889   9.960  11.593  0.2424 -0.1642 -0.0455
  425MOL0     C57260  11.019   9.964  11.681 -0.4573 -0.9620 -0.1874
  425MOL0     C57261  10.989  10.011  11.816  0.8579  0.5583  0.6148
  425MOL0     C57262  11.121   9.987  11.891  0.0632  0.8490 -0.4385
  425MOL0     C57263  11.111  10.040  12.038 -0.5656 -0.9773 -0.0391
  425MOL0     O57264  10.982  10.015  12.088 -0.1526  0.3556 -0.6082
  425MOL0     C57265  10.967   9.984  12.221  0.1859 -0.3631 -0.1116
  425MOL0     C57266  11.036  10.062  12.314 -0.9829 -0.5313 -0.6574
  425MOL0     C57267  11.017  10.050  12.450  0.3611 -0.4996  0.3549
  425MOL0     C57268  10.914   9.962  12.497 -0.4477 -1.3361 -0.3780
  425MOL0     C57269  10.897   9.946  12.651 -0.2610  0.0454  0.6398
  425MOL0     O57270  10.993  10.005  12.728  0.4968  0.4177  0.3952
  425MOL0     C57271  10.990   9.994  12.860 -0.1243  0.2762  0.1508
  425MOL0     C57272  10.937  10.091  12.940 -0.0953  1.1170  0.4378
  425MOL0     C57273  10.953  10.085  13.077 -0.0348 -0.0403  0.6350
  425MOL0     C57274  11.022   9.976  13.139 -0.1466  0.2909 -0.2472
  425MOL0     O57275  11.059   9.970  13.272 -0.0361 -0.6264 -0.0664
  425MOL0     C57276  10.965   9.992  13.377  0.0951 -0.7035  0.3656
  425MOL0     C57277  11.003  10.129  13.438 -0.6004  0.1695 -0.0581
  425MOL0     C57278  10.967  10.140  13.590 -0.2047  1.4411 -0.2225
  425MOL0     C57279  11.012  10.267  13.662  0.0494  0.6875 -0.0813
  425MOL0     C57280  10.976  10.251  13.812  0.4875 -0.0048  0.2049
  425MOL0     C57281  10.960  10.387  13.883  0.1637  1.4197 -0.5444
  425MOL0     C57282  11.093  10.448  13.915 -0.7224 -0.2274  0.8607
  425MOL0     C57283  11.071  10.596  13.945  0.0101  0.2074 -0.4532
  425MOL0    Cl57284  11.026  10.697  13.794  0.1546  0.0529 -0.3559
  425MOL0     C57285  11.068   9.875  13.061 -0.8967  0.2626 -1.0575
  425MOL0     C57286  11.048   9.882  12.926  0.1359 -0.5163  0.7575
  425MOL0     O57287  10.790   9.901  12.691 -0.4020 -0.2766 -0.2425
  425MOL0     C57288  10.842   9.893  12.406 -0.0427 -0.2117 -0.2392
  425MOL0     C57289  10.855   9.917  12.270 -0.6019 -0.0763  0.8498
  425MOL0     N57290  10.828   9.845  11.551  0.9569  0.6156 -0.7784
  425MOL0     N57291  10.715   9.868  11.486  0.7971 -0.3943 -0.1340
  425MOL0     C57292  10.503  10.093  10.563 -0.8735 -0.6407  0.5663
  425MOL0     C57293  10.549  10.205  10.499  0.5657 -0.4474 -0.6794
  425MOL0     C57294  10.919  10.479  10.349 -0.5199  0.7703 -0.3756
  425MOL0     C57295  10.999  10.534  10.252  0.5064  0.6214 -0.2606
  425MOL0     C57296  11.081  10.650  10.263  0.4069  0.2267 -0.6565
  425MOL0     C57297  11.063  10.719  10.378  0.7047 -0.0110  0.1055
  425MOL0     O57298  11.134  10.834  10.397  0.0298 -0.0926 -0.0093
  425MOL0     C57299  11.205  10.853  10.516  0.1312 -0.5456 -0.3868
  425MOL0     C57300  11.337  10.918  10.500 -0.2831  0.6269 -0.0710
  425MOL0     C57301  11.321  11.053  10.423  1.0179 -0.3213 -1.0097
  425MOL0     C57302  11.444  11.139  10.415  0.1284  0.2571  0.5561
  425MOL0     C57303  11.519  11.143  10.543  0.5367  0.3848  0.9247
  425MOL0     C57304  11.577  11.153  10.644 -0.9545  0.9204 -0.0796
  425MOL0     C57305  10.991  10.664  10.481  0.6497  0.3925  0.2716
  425MOL0     C57306  10.916  10.545  10.474 -0.1208 -0.5973  0.5114
  425MOL0     C57307  10.834  10.516  10.604 -0.2960  0.2222 -0.1688
  425MOL0     H57308  10.863  10.110  10.449  0.4561 -0.9569 -0.7100
  425MOL0     H57309  10.777   9.893  10.536 -0.6507 -0.8631  2.7890
  425MOL0     H57310  10.578   9.666  10.627 -0.1742  1.0038 -2.4530
  425MOL0     H57311  10.693   9.779  10.705 -0.0329  0.6158  0.0070
  425MOL0     H57312  10.571   9.627  10.863 -0.7354  1.2480  2.8804
  425MOL0     H57313  10.429   9.694  10.812  0.0645  1.9923 -0.6109
  425MOL0     H57314  10.462   9.900  10.916 -0.3428  1.6231  3.6766
  425MOL0     H57315  10.644   9.883  10.920  0.6360 -1.4211 -1.8507
  425MOL0     H57316  10.443   9.733  11.088  0.0753 -0.0322  1.3250
  425MOL0     H57317  10.608   9.706  11.093  0.1931  0.8677  2.9338
  425MOL0     H57318  10.469   9.980  11.122  3.3305  2.6850 -1.4475
  425MOL0     H57319  10.497   9.876  11.260  0.5562  2.3814  1.1717
  425MOL0     H57320  10.739   9.908  11.229 -3.5683 -0.8839  0.2439
  425MOL0     H57321  10.711  10.017  11.086  0.7052 -1.5724 -0.2185
  425MOL0     H57322  10.590  10.186  11.226  1.2535  2.5587  1.1332
  425MOL0     H57323  10.758  10.167  11.275  0.8123  0.3517 -1.4902
  425MOL0     H57324  10.583  10.173  11.460 -0.4202 -1.4908  2.4309
  425MOL0     H57325  10.510  10.036  11.403 -0.5484  1.7354  0.1875
  425MOL0     H57326  10.817  10.176  11.590  0.3396  0.5523  0.5810
  425MOL0     H57327  11.067   9.867  11.668  0.8114 -0.1015 -2.6226
  425MOL0     H57328  11.100  10.027  11.643  0.9676 -0.9844  2.5654
  425MOL0     H57329  10.965  10.117  11.822  1.2926  0.7386 -0.6442
  425MOL0     H57330  10.906   9.958  11.864 -0.3256  0.7181 -1.1554
  425MOL0     H57331  11.198  10.044  11.838 -0.1801  3.1204  1.4888
  425MOL0     H57332  11.148   9.882  11.909 -0.3283  0.7038 -0.6835
  425MOL0     H57333  11.136  10.146  12.046 -0.9737 -1.0290  3.1636
  425MOL0     H57334  11.191   9.999  12.099  2.1594  0.5398 -2.3537
  425MOL0     H57335  11.118  10.128  12.287  1.3941 -1.3985  3.6212
  425MOL0     H57336  11.086  10.107  12.512  0.2893  1.8095 -1.5290
  425MOL0     H57337  10.875  10.171  12.900  0.4485  0.6030 -1.5543
  425MOL0     H57338  10.911  10.159  13.143 -1.0277  0.4300 -0.4876
  425MOL0     H57339  10.859   9.974  13.357 -0.2263 -0.2501  1.5511
  425MOL0     H57340  11.000   9.909  13.439 -0.8412 -0.5060  1.1717
  425MOL0     H57341  11.111  10.142  13.431 -0.3762 -1.1401  0.7243
  425MOL0     H57342  10.960  10.212  13.382  0.5052 -0.2843 -1.6228
  425MOL0     H57343  10.858  10.144  13.585 -0.1369  1.6108 -2.2817
  425MOL0     H57344  11.005  10.049  13.637 -1.5885  0.5657 -0.7387
  425MOL0     H57345  10.962  10.348  13.607  0.6643  0.3712 -1.1337
  425MOL0     H57346  11.119  10.286  13.651  0.5032 -0.8727  1.1365
  425MOL0     H57347  11.053  10.194  13.864 -1.1175 -0.7172  1.9285
  425MOL0     H57348  10.883  10.195  13.826  1.1730 -1.4745 -0.8757
  425MOL0     H57349  10.896  10.450  13.821 -3.1882 -0.8590  0.2846
  425MOL0     H57350  10.914  10.362  13.980 -0.5149 -0.4458 -1.3001
  425MOL0     H57351  11.164  10.447  13.832  2.5174  0.0061  3.4358
  425MOL0     H57352  11.144  10.396  13.996  0.6798  0.8474  0.6979
  425MOL0     H57353  11.016  10.614  14.038  0.0449 -4.1963  0.6649
  425MOL0     H57354  11.170  10.634  13.974 -0.8473  1.7362  0.6006
  425MOL0     H57355  11.121   9.783  13.087 -2.1002  0.4884  2.9640
  425MOL0     H57356  11.090   9.808  12.857  2.0683  0.8263  0.4194
  425MOL0     H57357  10.765   9.818  12.416  1.4759 -2.0152 -1.3463
  425MOL0     H57358  10.789   9.898  12.186  2.1579  1.0081 -1.7820
  425MOL0     H57359  10.398  10.087  10.591 -1.5996 -0.5352 -1.9010
  425MOL0     H57360  10.473  10.282  10.493  0.2629 -0.6723  0.1661
  425MOL0     H57361  10.999  10.483  10.156  0.0738  1.3028 -0.6351
  425MOL0     H57362  11.137  10.684  10.176  1.2042  1.4813  0.3142
  425MOL0     H57363  11.229  10.753  10.551  0.3664  0.5092  2.7596
  425MOL0     H57364  11.134  10.907  10.579 -1.3906 -0.0828 -2.3709
  425MOL0     H57365  11.408  10.847  10.454 -1.7544 -1.4946  0.7947
  425MOL0     H57366  11.386  10.933  10.596  3.1531  1.6610 -1.8140
  425MOL0     H57367  11.252  11.112  10.485  0.1352  1.0380 -3.1438
  425MOL0     H57368  11.287  11.030  10.321 -0.3892  0.5941 -0.7844
  425MOL0     H57369  11.514  11.105  10.338  0.5759 -4.5899  2.7137
  425MOL0     H57370  11.408  11.239  10.391 -2.4535 -0.1804  2.2346
  425MOL0     H57371  11.643  11.157  10.728 -1.7370 -1.1956  0.7245
  425MOL0     H57372  10.978  10.727  10.568 -3.2888  1.6150 -0.9489
  425MOL0     H57373  10.827  10.410  10.627  2.4759  0.6774  3.7561
  425MOL0     H57374  10.893  10.545  10.691 -1.4344  1.8347  0.1137
  425MOL0     H57375  10.732  10.556  10.604 -1.4175 -2.4117  0.3694
  426MOL0     O57376   9.882   5.766   8.079 -0.2514 -0.2017 -0.0936
  426MOL0     C57377   9.776   5.774   8.017  0.8519  0.2511  0.1736
  426MOL0     O57378   9.651   5.783   8.080 -0.5411  0.3089 -0.1843
  426MOL0     C57379   9.653   5.788   8.220 -0.1281  0.9947  0.2245
  426MOL0     C57380   9.596   5.890   8.289  0.7573 -0.7657 -0.3145
  426MOL0     C57381   9.592   5.905   8.422  0.1890  1.0790  0.0809
  426MOL0     C57382   9.627   5.799   8.502  0.0393  0.0495 -0.0421
  426MOL0     O57383   9.611   5.805   8.638 -0.1436  0.1740 -0.0986
  426MOL0     C57384   9.504   5.886   8.700  0.0546 -0.5346 -0.3442
  426MOL0     C57385   9.452   5.829   8.829 -0.6013 -0.2251 -0.2611
  426MOL0     C57386   9.350   5.923   8.888 -1.0668 -0.9061  1.3397
  426MOL0     C57387   9.351   5.903   9.044 -0.8156  0.6005 -0.5894
  426MOL0     C57388   9.216   5.942   9.102  0.7678 -0.9479 -0.3469
  426MOL0     C57389   9.197   5.951   9.261 -1.0397 -0.7941  0.3997
  426MOL0     C57390   9.242   5.824   9.324 -0.0830  0.5759  0.1818
  426MOL0     C57391   9.224   5.843   9.480  0.5018 -0.2019  0.0949
  426MOL0     N57392   9.324   5.936   9.541  0.9511 -0.5984 -0.0844
  426MOL0     C57393   9.289   6.040   9.622  0.4107 -0.5380 -0.1694
  426MOL0     C57394   9.407   6.097   9.652  1.1170 -0.1687 -0.4713
  426MOL0     C57395   9.407   6.231   9.731 -0.6882 -0.1012 -0.3428
  426MOL0     C57396   9.457   6.192   9.877 -1.3177  0.7646  0.0212
  426MOL0     C57397   9.544   6.313   9.928  0.2480  0.2770 -0.6445
  426MOL0     C57398   9.448   6.400  10.006  0.1689 -0.1549 -0.8514
  426MOL0     O57399   9.521   6.508  10.068  0.3393  0.0158  0.2076
  426MOL0     C57400   9.591   6.499  10.182 -0.4622  0.6091  0.3583
  426MOL0     C57401   9.690   6.593  10.222 -0.0211  0.0625  0.0004
  426MOL0     C57402   9.763   6.594  10.339 -0.7032 -0.0558 -0.9894
  426MOL0     C57403   9.709   6.509  10.443 -0.7577 -1.2396  0.1150
  426MOL0     C57404   9.754   6.516  10.582  0.1044  0.1542 -0.5532
  426MOL0     O57405   9.766   6.405  10.662  0.2203 -0.2411 -0.3401
  426MOL0     C57406   9.765   6.441  10.798 -0.8400 -0.9046  0.3785
  426MOL0     C57407   9.639   6.468  10.860 -0.7610 -0.6208 -0.0590
  426MOL0     C57408   9.639   6.521  10.986 -0.9822 -0.8419 -0.4821
  426MOL0     C57409   9.757   6.532  11.066  0.9931 -0.1121  0.2126
  426MOL0     O57410   9.760   6.549  11.202  1.0381  0.7243  0.8495
  426MOL0     C57411   9.640   6.588  11.270  0.7636  0.7045  0.6291
  426MOL0     C57412   9.671   6.601  11.418 -0.3547  0.0381 -0.4214
  426MOL0     C57413   9.722   6.745  11.427  0.2448 -0.2203  0.5786
  426MOL0     C57414   9.776   6.769  11.568 -0.0601 -0.2233  0.4882
  426MOL0     C57415   9.850   6.901  11.566 -0.0590 -1.4314  0.2032
  426MOL0     C57416   9.754   7.024  11.588  0.5688  0.2485  0.1270
  426MOL0     C57417   9.821   7.154  11.585  0.7402 -0.5269 -0.3017
  426MOL0     C57418   9.908   7.180  11.719  0.8966 -0.6110  0.8335
  426MOL0    Cl57419  10.005   7.318  11.676 -0.1621 -0.0488 -0.3221
  426MOL0     C57420   9.875   6.504  10.995 -0.0194  0.1784  0.5223
  426MOL0     C57421   9.885   6.453  10.866 -0.4581  0.6068  1.0382
  426MOL0     O57422   9.791   6.634  10.613  0.5193 -0.0171 -0.0165
  426MOL0     C57423   9.610   6.418  10.415  0.3877  0.5127  0.7372
  426MOL0     C57424   9.565   6.403  10.275 -0.5385 -0.9235 -0.7051
  426MOL0     N57425   9.506   6.029   9.582 -0.6401 -0.3332 -0.4429
  426MOL0     N57426   9.455   5.931   9.521  0.3355 -0.1113 -0.1516
  426MOL0     C57427   9.684   5.686   8.440  0.5666  0.9368 -0.0214
  426MOL0     C57428   9.693   5.667   8.293  0.8750 -0.1599  0.7924
  426MOL0     C57429   9.790   5.790   7.872 -0.7578  0.0889 -0.5904
  426MOL0     C57430   9.678   5.850   7.806  0.5873 -0.6426 -0.6166
  426MOL0     C57431   9.673   5.861   7.669 -0.8571 -0.1539 -0.2989
  426MOL0     C57432   9.775   5.813   7.591 -0.0732  0.3412 -0.7229
  426MOL0     O57433   9.782   5.834   7.457  0.9182  0.4790 -0.3768
  426MOL0     C57434   9.685   5.900   7.381 -0.5019 -0.2146 -0.3929
  426MOL0     C57435   9.743   6.039   7.353  0.7221 -0.5073 -0.8590
  426MOL0     C57436   9.857   6.040   7.250 -0.1427  1.1008 -1.2927
  426MOL0     C57437   9.923   6.182   7.227  0.2268 -0.2932 -0.8080
  426MOL0     C57438   9.840   6.266   7.147 -0.0132 -0.3792  0.0854
  426MOL0     C57439   9.770   6.338   7.076 -0.0905 -0.3369  0.9003
  426MOL0     C57440   9.881   5.743   7.654 -0.2296 -0.0668  0.7800
  426MOL0     C57441   9.889   5.728   7.794 -0.4805  0.7866 -0.2806
  426MOL0     C57442   9.986   5.637   7.848  0.5070 -0.3285 -0.3671
  426MOL0     H57443   9.555   5.981   8.246 -2.9077 -0.4245  3.3013
  426MOL0     H57444   9.565   5.998   8.470  0.9329  3.1359 -3.1587
  426MOL0     H57445   9.540   5.989   8.706 -0.3317 -0.3483 -1.1735
  426MOL0     H57446   9.413   5.892   8.640 -1.0570  1.8888  1.4188
  426MOL0     H57447   9.539   5.810   8.893  0.5971  1.1395 -1.4107
  426MOL0     H57448   9.419   5.728   8.804  1.8458 -1.8020  2.2663
  426MOL0     H57449   9.255   5.899   8.839 -1.7483  2.5712  0.6474
  426MOL0     H57450   9.374   6.025   8.857 -1.7517 -1.6416 -2.0070
  426MOL0     H57451   9.364   5.797   9.067  0.2268  0.7308 -0.5331
  426MOL0     H57452   9.429   5.972   9.075 -0.5449  0.3580 -0.7275
  426MOL0     H57453   9.204   6.036   9.047  1.4109 -1.3051 -1.1150
  426MOL0     H57454   9.145   5.867   9.067  0.6486 -0.5792 -0.9109
  426MOL0     H57455   9.239   6.041   9.306 -5.6356  3.1834 -2.2971
  426MOL0     H57456   9.092   5.962   9.289 -0.3729 -0.2127  2.9303
  426MOL0     H57457   9.346   5.803   9.295  0.0349 -0.1106  1.0586
  426MOL0     H57458   9.177   5.743   9.288 -1.1713  0.8460  1.4679
  426MOL0     H57459   9.129   5.893   9.504  0.8684  1.3603 -1.4593
  426MOL0     H57460   9.230   5.743   9.524 -0.2499  0.9829  3.1878
  426MOL0     H57461   9.191   6.069   9.658  0.2149 -0.6954 -0.5654
  426MOL0     H57462   9.477   6.294   9.674  0.1109 -2.8927 -2.6692
  426MOL0     H57463   9.310   6.280   9.745  0.8175  3.2396 -0.4488
  426MOL0     H57464   9.384   6.169   9.955  1.1328  1.0938  2.5568
  426MOL0     H57465   9.520   6.104   9.861  2.0066  2.8905  0.5012
  426MOL0     H57466   9.581   6.369   9.842  1.0206 -3.2332 -2.7696
  426MOL0     H57467   9.625   6.274   9.990  2.4890  1.6584 -2.5514
  426MOL0     H57468   9.392   6.345  10.082 -0.8875  1.8515 -0.1058
  426MOL0     H57469   9.368   6.436   9.939 -1.6119 -0.3152  1.0731
  426MOL0     H57470   9.726   6.664  10.149  0.0563 -2.0215 -2.1225
  426MOL0     H57471   9.849   6.656  10.362 -2.1931  1.3229  1.1365
  426MOL0     H57472   9.547   6.476  10.804 -0.8810 -0.9120  0.0991
  426MOL0     H57473   9.543   6.542  11.032 -0.0849  0.6756  0.8074
  426MOL0     H57474   9.602   6.682  11.229 -1.8164 -0.6604 -0.3218
  426MOL0     H57475   9.560   6.519  11.245 -1.4962  2.8569  1.5546
  426MOL0     H57476   9.583   6.583  11.480  0.2448 -0.4366  0.3179
  426MOL0     H57477   9.748   6.534  11.461 -0.6983 -0.3722 -0.4397
  426MOL0     H57478   9.795   6.774  11.352  1.4561  0.7395  2.0758
  426MOL0     H57479   9.633   6.808  11.416  1.2457  0.8948 -1.7524
  426MOL0     H57480   9.858   6.701  11.595  2.0259 -0.1888 -4.6479
  426MOL0     H57481   9.696   6.776  11.642 -0.4064  0.5406  0.0461
  426MOL0     H57482   9.911   6.913  11.475 -3.0972 -0.4548 -1.8721
  426MOL0     H57483   9.922   6.910  11.648  2.9559 -0.9087 -2.2972
  426MOL0     H57484   9.668   7.026  11.521 -2.9839  0.2969  4.2021
  426MOL0     H57485   9.715   6.998  11.687 -0.4575  0.2657 -0.2593
  426MOL0     H57486   9.749   7.236  11.574  2.2903  0.8960 -0.2360
  426MOL0     H57487   9.883   7.159  11.495 -1.2871 -0.9570 -1.7901
  426MOL0     H57488   9.845   7.213  11.802  3.0362 -1.1927  2.7916
  426MOL0     H57489   9.964   7.094  11.756 -1.4935 -3.4222 -1.5893
  426MOL0     H57490   9.967   6.527  11.048  0.3395  0.4382 -0.2057
  426MOL0     H57491   9.976   6.424  10.815 -1.6771 -1.3297 -0.1783
  426MOL0     H57492   9.570   6.354  10.493 -0.3880  2.1442  1.7459
  426MOL0     H57493   9.490   6.326  10.261 -3.6400  1.2011  2.2753
  426MOL0     H57494   9.719   5.614   8.514 -0.9615 -2.5541 -2.4431
  426MOL0     H57495   9.731   5.577   8.247 -0.8178  0.2116 -1.4875
  426MOL0     H57496   9.599   5.894   7.867  2.4760 -1.4322  2.6503
  426MOL0     H57497   9.588   5.919   7.633 -1.6719 -1.7678 -1.1229
  426MOL0     H57498   9.589   5.878   7.428 -0.3015 -2.3734 -0.9039
  426MOL0     H57499   9.683   5.861   7.278  3.0926  2.8118 -1.8569
  426MOL0     H57500   9.780   6.078   7.449 -1.4800  0.8486 -0.4700
  426MOL0     H57501   9.654   6.093   7.319 -0.5109 -1.1759  1.1202
  426MOL0     H57502   9.843   5.987   7.156  3.0079 -2.2477 -0.1192
  426MOL0     H57503   9.929   5.976   7.302 -2.7256  0.4538  1.7960
  426MOL0     H57504   9.944   6.231   7.322  0.7765  1.6000 -1.8537
  426MOL0     H57505  10.023   6.177   7.182  0.6559  1.0072 -0.0641
  426MOL0     H57506   9.713   6.391   7.004  2.7247  1.8962  0.1232
  426MOL0     H57507   9.952   5.711   7.578  1.1642  4.3067 -0.0677
  426MOL0     H57508  10.047   5.687   7.924 -0.3225  0.1607  0.0010
  426MOL0     H57509   9.926   5.564   7.903  0.0762  1.8811  2.3453
  426MOL0     H57510  10.056   5.596   7.776 -1.0655 -2.6965 -0.6821
  427MOL0     O57511   2.315   5.808  10.101  0.0394 -0.4794  0.1822
  427MOL0     C57512   2.241   5.864  10.183  0.7377  0.0329 -0.2575
  427MOL0     O57513   2.106   5.851  10.185  0.9778  0.0288 -0.0260
  427MOL0     C57514   2.018   5.791  10.098 -0.3438  0.2848  0.2215
  427MOL0     C57515   2.053   5.778   9.960 -0.0473  0.2862 -0.6102
  427MOL0     C57516   1.959   5.728   9.871  0.2928  0.5485 -0.1841
  427MOL0     C57517   1.831   5.698   9.910  0.4115  0.9888 -0.6194
  427MOL0     O57518   1.750   5.619   9.842 -0.3982 -0.0099  0.0680
  427MOL0     C57519   1.732   5.650   9.700  0.5771 -0.1653 -0.0088
  427MOL0     C57520   1.606   5.590   9.642 -0.1501 -0.7196 -0.5455
  427MOL0     C57521   1.587   5.625   9.496  0.5602  0.2947 -1.0709
  427MOL0     C57522   1.445   5.684   9.478  0.0823  0.1843 -0.0732
  427MOL0     C57523   1.418   5.739   9.341 -0.3534  0.1118  0.8970
  427MOL0     C57524   1.267   5.718   9.303  1.0205  0.4332 -0.0726
  427MOL0     C57525   1.226   5.788   9.171  0.0090  0.2423  1.3235
  427MOL0     C57526   1.300   5.727   9.058  0.5895  0.4516  0.6890
  427MOL0     N57527   1.242   5.746   8.925  0.1545  0.6945 -0.1316
  427MOL0     C57528   1.234   5.870   8.866 -0.2403 -1.4210  0.6863
  427MOL0     C57529   1.151   5.850   8.760 -0.1551 -0.0133 -1.0150
  427MOL0     C57530   1.114   5.947   8.655 -0.1095  0.1247 -0.8642
  427MOL0     C57531   1.238   5.970   8.569  0.7734  1.0099  0.6181
  427MOL0     C57532   1.209   6.050   8.446 -0.7607 -1.1197 -0.7203
  427MOL0     C57533   1.342   6.113   8.380 -0.5643 -1.2429 -0.2578
  427MOL0     O57534   1.410   6.197   8.481 -0.4283  1.0508  0.3270
  427MOL0     C57535   1.371   6.330   8.483  0.0903 -0.0628 -0.0482
  427MOL0     C57536   1.258   6.401   8.430 -0.5124 -0.5836 -0.7842
  427MOL0     C57537   1.224   6.534   8.475 -0.3362  1.1547  0.1338
  427MOL0     C57538   1.309   6.593   8.571 -0.0225 -0.1408 -0.1969
  427MOL0     C57539   1.257   6.715   8.634 -0.1002  0.9917 -0.3662
  427MOL0     O57540   1.155   6.774   8.564 -0.4101 -0.1055  0.1955
  427MOL0     C57541   1.100   6.886   8.627 -0.4197 -0.4051  1.2084
  427MOL0     C57542   1.035   6.876   8.750  0.2360 -0.1111  0.5056
  427MOL0     C57543   0.962   6.986   8.793 -0.1322 -0.8372  0.5348
  427MOL0     C57544   0.953   7.104   8.719 -0.5482 -1.3777  0.6495
  427MOL0     O57545   0.878   7.208   8.768 -1.1830  0.5300 -0.2476
  427MOL0     C57546   0.836   7.318   8.691  0.2970  0.3594  0.2445
  427MOL0     C57547   0.746   7.264   8.581  0.2928  0.4595  0.8354
  427MOL0     C57548   0.664   7.141   8.624  1.0986  0.5477  0.0411
  427MOL0     C57549   0.563   7.102   8.518 -0.0807 -0.2993 -0.3262
  427MOL0     C57550   0.623   7.036   8.387  0.2389  0.6543  0.5591
  427MOL0     C57551   0.710   6.911   8.417  0.0575  0.2387 -0.6050
  427MOL0     C57552   0.746   6.839   8.281  0.0344 -0.6631 -0.2148
  427MOL0     C57553   0.907   6.820   8.281 -0.5521 -0.8560  0.0782
  427MOL0    Cl57554   0.971   6.709   8.151 -0.0480 -0.0797 -0.7431
  427MOL0     C57555   1.027   7.119   8.597 -0.1718 -0.4170  0.2009
  427MOL0     C57556   1.095   7.008   8.552 -0.6086  0.2710 -0.0401
  427MOL0     O57557   1.309   6.765   8.727  0.4845  0.1656  0.4614
  427MOL0     C57558   1.427   6.537   8.610 -0.1600  0.1119 -0.0016
  427MOL0     C57559   1.456   6.408   8.564 -0.3558 -0.4554 -0.0994
  427MOL0     N57560   1.107   5.718   8.757 -0.3410 -0.8386  0.1521
  427MOL0     N57561   1.156   5.659   8.858  0.6894  0.1666 -0.3927
  427MOL0     C57562   1.798   5.710  10.051 -0.2040 -0.0963  0.6655
  427MOL0     C57563   1.894   5.765  10.140 -0.3512 -0.3922 -0.4713
  427MOL0     C57564   2.310   5.934  10.298 -0.4245  0.7361 -0.1082
  427MOL0     C57565   2.454   5.962  10.276  1.2358 -0.1562  0.8912
  427MOL0     C57566   2.534   6.002  10.380 -0.8986  0.2583 -0.4062
  427MOL0     C57567   2.476   6.032  10.502  0.3253  0.2884 -0.3155
  427MOL0     O57568   2.559   6.071  10.605  0.1875 -0.6431 -0.2868
  427MOL0     C57569   2.536   6.036  10.736 -0.5718 -0.2876 -0.6369
  427MOL0     C57570   2.577   5.883  10.747 -0.2085 -0.2985  0.5785
  427MOL0     C57571   2.727   5.862  10.732 -0.4007  0.8923  0.0550
  427MOL0     C57572   2.778   5.721  10.762  0.4488  0.3462 -0.0094
  427MOL0     C57573   2.930   5.720  10.766 -0.0302 -0.2549  0.1734
  427MOL0     C57574   3.046   5.725  10.764 -1.1338 -0.5394 -0.3688
  427MOL0     C57575   2.339   6.001  10.524 -0.3182 -0.6330  0.2242
  427MOL0     C57576   2.253   5.954  10.425  0.7072 -0.8035 -0.4557
  427MOL0     C57577   2.109   5.932  10.460  0.2878 -0.0647  0.5888
  427MOL0     H57578   2.144   5.811   9.912  0.0444 -1.1585 -1.4564
  427MOL0     H57579   1.995   5.700   9.773 -1.1949 -0.0514 -0.5859
  427MOL0     H57580   1.728   5.759   9.690  5.6619  0.5310  2.4666
  427MOL0     H57581   1.817   5.611   9.645  1.4487 -0.5754  1.5549
  427MOL0     H57582   1.525   5.639   9.698  0.3282 -0.6250  0.0730
  427MOL0     H57583   1.599   5.484   9.667  2.4728 -1.0718 -1.0304
  427MOL0     H57584   1.600   5.531   9.442  1.9943 -2.5427  3.5807
  427MOL0     H57585   1.659   5.692   9.449  0.1998 -0.5966 -2.9617
  427MOL0     H57586   1.384   5.597   9.503  1.1803  0.1673  3.0645
  427MOL0     H57587   1.413   5.749   9.560  2.4626 -0.8782  1.8051
  427MOL0     H57588   1.454   5.842   9.331  0.0749 -0.2383 -2.0507
  427MOL0     H57589   1.487   5.685   9.275  0.1079  3.7713 -2.0010
  427MOL0     H57590   1.248   5.611   9.303 -0.5516  0.6923  0.4411
  427MOL0     H57591   1.200   5.760   9.378 -1.5627 -1.0843 -1.3870
  427MOL0     H57592   1.218   5.897   9.172  2.6784  0.7133 -2.7847
  427MOL0     H57593   1.122   5.759   9.158  0.0226  0.3147  1.0438
  427MOL0     H57594   1.398   5.775   9.056  0.5275  0.6059 -1.5796
  427MOL0     H57595   1.316   5.619   9.063  0.0920  0.1890 -1.7030
  427MOL0     H57596   1.280   5.965   8.891 -4.1095  0.7782  0.2317
  427MOL0     H57597   1.034   5.907   8.593 -3.6767  3.0326  1.4961
  427MOL0     H57598   1.087   6.044   8.697 -2.6085 -1.0099  0.3352
  427MOL0     H57599   1.314   6.021   8.629  1.6577  1.5871 -0.9350
  427MOL0     H57600   1.287   5.875   8.545 -5.3836 -2.8176  1.1254
  427MOL0     H57601   1.152   6.134   8.488  0.5221 -0.8207  0.4897
  427MOL0     H57602   1.145   5.998   8.374 -1.4360 -1.5384  0.1711
  427MOL0     H57603   1.310   6.163   8.288 -1.4607 -0.4975  0.4411
  427MOL0     H57604   1.413   6.035   8.349  0.0870  0.2908 -2.9710
  427MOL0     H57605   1.179   6.350   8.375 -3.0031 -0.6364  2.5550
  427MOL0     H57606   1.124   6.574   8.458 -0.6532  0.9623  1.4093
  427MOL0     H57607   1.029   6.776   8.790 -4.6958 -0.6993 -1.1113
  427MOL0     H57608   0.913   6.984   8.890 -1.1961  2.6000  0.1879
  427MOL0     H57609   0.775   7.387   8.750 -1.3412  0.3269 -1.3371
  427MOL0     H57610   0.921   7.374   8.652  0.3449  1.6217  2.0091
  427MOL0     H57611   0.679   7.346   8.553  1.6657  1.8644  1.5020
  427MOL0     H57612   0.814   7.245   8.497 -0.4163  0.8671  0.1597
  427MOL0     H57613   0.725   7.054   8.649 -2.5379 -2.7749 -1.6213
  427MOL0     H57614   0.603   7.156   8.714 -1.4258 -0.2058 -1.4260
  427MOL0     H57615   0.509   7.192   8.487  2.2343  0.2777 -3.1065
  427MOL0     H57616   0.489   7.032   8.557 -0.6525  0.7326  0.4874
  427MOL0     H57617   0.687   7.096   8.323  2.0988 -2.3109 -0.5598
  427MOL0     H57618   0.535   6.996   8.335  0.1902  1.8010 -0.2662
  427MOL0     H57619   0.802   6.941   8.468 -1.7908  0.5517  2.7908
  427MOL0     H57620   0.652   6.836   8.472  1.6097 -2.2292 -2.1052
  427MOL0     H57621   0.715   6.890   8.190  2.7279 -2.4944 -2.3537
  427MOL0     H57622   0.693   6.743   8.273 -1.4084 -0.1248  2.0326
  427MOL0     H57623   0.963   6.913   8.267 -2.8158  0.2964 -2.4255
  427MOL0     H57624   0.936   6.779   8.377  0.1079 -1.5828 -0.4247
  427MOL0     H57625   1.044   7.210   8.540  1.4044 -2.3150 -2.6417
  427MOL0     H57626   1.151   7.022   8.460 -4.6883  1.1128 -2.6595
  427MOL0     H57627   1.499   6.588   8.674  0.9010  0.1233 -1.1781
  427MOL0     H57628   1.548   6.369   8.604  1.6772  2.9525 -1.0764
  427MOL0     H57629   1.695   5.691  10.081 -0.0678 -0.4693  0.9105
  427MOL0     H57630   1.870   5.763  10.246  0.8273 -2.0931 -0.2043
  427MOL0     H57631   2.489   5.943  10.175 -1.2245  1.5145 -0.3782
  427MOL0     H57632   2.640   6.019  10.363 -0.5695  1.4182  2.3360
  427MOL0     H57633   2.430   6.057  10.749 -1.0223 -2.0296 -1.2353
  427MOL0     H57634   2.591   6.092  10.813 -3.3805  2.0850 -0.2036
  427MOL0     H57635   2.525   5.826  10.669  1.1787  1.0728 -1.4672
  427MOL0     H57636   2.543   5.844  10.843 -1.1390  0.1755  0.4529
  427MOL0     H57637   2.775   5.935  10.797 -0.5805 -0.7067  2.0684
  427MOL0     H57638   2.751   5.890  10.629  1.9783  0.3428  0.3989
  427MOL0     H57639   2.733   5.701  10.860  0.6709  0.5937  0.1423
  427MOL0     H57640   2.740   5.646  10.692  2.1362 -2.9546  2.3307
  427MOL0     H57641   3.151   5.742  10.756 -1.4987  2.9097  0.4869
  427MOL0     H57642   2.302   6.032  10.621 -0.5842 -0.1715 -0.0183
  427MOL0     H57643   2.045   5.972  10.381 -3.3348 -2.5310  1.9859
  427MOL0     H57644   2.082   5.825  10.465  3.7644 -1.1536 -1.2274
  427MOL0     H57645   2.086   5.992  10.549 -0.2398  2.7822 -1.3600
  428MOL0     O57646   9.933   9.227   1.072 -0.3308  0.1166 -0.0738
  428MOL0     C57647   9.908   9.345   1.039  0.5641  0.1541 -0.3004
  428MOL0     O57648   9.956   9.415   0.930 -0.4744  0.3562  0.2866
  428MOL0     C57649  10.029   9.354   0.829 -0.1425 -1.3487 -0.1183
  428MOL0     C57650  10.063   9.437   0.726 -0.4566  0.5732 -0.2659
  428MOL0     C57651  10.148   9.395   0.619 -0.8420 -0.3624 -0.7796
  428MOL0     C57652  10.206   9.267   0.616 -0.3016  0.5538 -0.7767
  428MOL0     O57653  10.273   9.213   0.512 -0.4015 -0.4714 -0.1827
  428MOL0     C57654  10.331   9.276   0.403 -0.0311  0.1855  1.0134
  428MOL0     C57655  10.271   9.232   0.272  0.1379 -0.2248 -0.0052
  428MOL0     C57656  10.124   9.274   0.240 -0.7327  0.1283 -0.2993
  428MOL0     C57657  10.079   9.419   0.255 -0.4817  0.6014  0.1523
  428MOL0     C57658   9.951   9.455   0.174 -0.3746  0.4001 -0.2249
  428MOL0     C57659   9.906   9.596   0.200 -0.3357  0.2024  1.1603
  428MOL0     C57660   9.754   9.598   0.171  0.8881 -1.1774 -0.0741
  428MOL0     C57661   9.709   9.745   0.142  0.3304 -0.3553 -0.2443
  428MOL0     N57662   9.766   9.821   0.029  0.4071  0.1060 -0.1942
  428MOL0     C57663   9.717   9.822  -0.098 -0.6505  0.0691 -0.2982
  428MOL0     C57664   9.776   9.922  -0.167 -0.4197 -0.3117  0.2700
  428MOL0     C57665   9.741   9.959  -0.310  0.6780  0.3978 -0.0512
  428MOL0     C57666   9.832   9.909  -0.418 -0.1557  0.0280 -0.4543
  428MOL0     C57667   9.969   9.960  -0.421 -0.6392 -0.1965  0.7225
  428MOL0     C57668  10.038   9.933  -0.560 -0.5476 -0.1994 -0.3461
  428MOL0     O57669  10.090   9.804  -0.557  0.4444  0.0651 -0.2773
  428MOL0     C57670  10.108   9.749  -0.681  0.0312 -0.2905  0.0844
  428MOL0     C57671  10.072   9.616  -0.694  0.8020 -0.3546  0.4067
  428MOL0     C57672  10.093   9.552  -0.807  0.6773 -0.2037  0.7008
  428MOL0     C57673  10.158   9.611  -0.913  0.5812  0.3535  0.3716
  428MOL0     C57674  10.181   9.542  -1.035  0.4205  0.4601  0.3031
  428MOL0     O57675  10.107   9.425  -1.050 -0.1737  0.4162 -0.1640
  428MOL0     C57676  10.157   9.341  -1.146 -0.0894 -0.2562  0.0765
  428MOL0     C57677  10.219   9.221  -1.102 -0.3304  0.4083  1.0598
  428MOL0     C57678  10.258   9.133  -1.202  0.3458  0.1698 -0.2044
  428MOL0     C57679  10.220   9.146  -1.333  0.3016 -1.1114 -0.0479
  428MOL0     O57680  10.241   9.051  -1.428 -0.0171 -0.8601 -0.4203
  428MOL0     C57681  10.310   8.933  -1.411 -0.1714 -0.1577 -0.0496
  428MOL0     C57682  10.300   8.877  -1.549  0.1922 -0.3869  0.7826
  428MOL0     C57683  10.382   8.742  -1.542 -0.3645 -0.6004  0.1575
  428MOL0     C57684  10.405   8.676  -1.674  0.3814  0.1179 -0.3191
  428MOL0     C57685  10.547   8.627  -1.694  0.7910 -0.0848  0.0716
  428MOL0     C57686  10.653   8.724  -1.742  0.7528 -0.9671  0.4504
  428MOL0     C57687  10.780   8.654  -1.767 -0.0723 -0.5080  0.4343
  428MOL0     C57688  10.884   8.746  -1.834 -0.1924  0.6408 -0.0993
  428MOL0    Cl57689  10.940   8.857  -1.707 -0.2329  0.4322  0.3138
  428MOL0     C57690  10.144   9.258  -1.374  0.2177  0.0286 -0.7197
  428MOL0     C57691  10.111   9.356  -1.277  0.3920 -0.5225 -0.2330
  428MOL0     O57692  10.283   9.569  -1.107  0.5392 -0.4794  0.1672
  428MOL0     C57693  10.197   9.744  -0.901  0.3459 -0.5735  0.7386
  428MOL0     C57694  10.179   9.812  -0.785  0.1397  0.6254  0.0590
  428MOL0     N57695   9.862   9.981  -0.074  0.1429  0.0778  0.8518
  428MOL0     N57696   9.862   9.917   0.037  0.5056  0.1785 -0.1498
  428MOL0     C57697  10.172   9.177   0.721 -0.4135 -0.8925  0.0105
  428MOL0     C57698  10.094   9.229   0.825  0.0127  0.7503 -1.0523
  428MOL0     C57699   9.805   9.425   1.121 -0.0336 -1.3376  0.6032
  428MOL0     C57700   9.717   9.343   1.195 -0.0773 -0.8679  0.0271
  428MOL0     C57701   9.607   9.395   1.256  0.1215  0.1623  0.8837
  428MOL0     C57702   9.588   9.533   1.273  0.2788 -1.3746 -0.7381
  428MOL0     O57703   9.487   9.584   1.351 -0.2240  0.0175  0.6243
  428MOL0     C57704   9.544   9.656   1.467  0.0665  0.0527 -0.1686
  428MOL0     C57705   9.578   9.542   1.562 -0.5869  0.9688 -0.8870
  428MOL0     C57706   9.621   9.575   1.698  0.8699  0.8356  0.3727
  428MOL0     C57707   9.637   9.448   1.793 -0.6128  0.2133  0.8866
  428MOL0     C57708   9.655   9.500   1.926  0.4100  0.7032  0.9689
  428MOL0     C57709   9.673   9.560   2.029  0.0009  0.7363 -0.2249
  428MOL0     C57710   9.672   9.613   1.196  0.0805  0.5735  0.2208
  428MOL0     C57711   9.776   9.562   1.120  0.0624 -0.1548 -0.8595
  428MOL0     C57712   9.864   9.673   1.061  0.2511 -0.1205 -0.8043
  428MOL0     H57713  10.037   9.542   0.717  1.4282  0.9722 -1.6148
  428MOL0     H57714  10.166   9.469   0.542 -0.4382  1.8609  1.3017
  428MOL0     H57715  10.318   9.383   0.420  1.9814  0.5984  0.3171
  428MOL0     H57716  10.441   9.270   0.406 -0.1129 -1.6861  3.3622
  428MOL0     H57717  10.270   9.125   0.249 -0.2337  0.0768 -1.5276
  428MOL0     H57718  10.332   9.286   0.199  0.6295  0.1851  0.6977
  428MOL0     H57719  10.065   9.198   0.293  1.2887 -0.9964  0.4401
  428MOL0     H57720  10.102   9.244   0.137  2.9914 -0.5968 -1.0259
  428MOL0     H57721  10.070   9.438   0.363 -0.5161 -1.6617  0.5935
  428MOL0     H57722  10.156   9.489   0.220  0.6272 -1.5735 -2.0525
  428MOL0     H57723   9.965   9.452   0.065  0.3876  2.3372 -0.2199
  428MOL0     H57724   9.875   9.379   0.195  1.4378 -1.2535  0.6080
  428MOL0     H57725   9.935   9.624   0.302  0.7148  2.5879  0.2676
  428MOL0     H57726   9.967   9.665   0.141  1.5725 -1.0413  1.5650
  428MOL0     H57727   9.709   9.554   0.261  1.1222  1.5191  1.4571
  428MOL0     H57728   9.733   9.529   0.088 -1.4194 -2.7683  1.6856
  428MOL0     H57729   9.601   9.741   0.124  0.3298 -2.3533 -0.0476
  428MOL0     H57730   9.718   9.795   0.239 -0.3022 -0.9233  0.1168
  428MOL0     H57731   9.650   9.745  -0.134  0.3064 -0.0300 -2.0095
  428MOL0     H57732   9.642   9.916  -0.328  0.3898  1.6052 -1.6241
  428MOL0     H57733   9.722  10.067  -0.314 -1.9294 -0.0376 -1.0860
  428MOL0     H57734   9.837   9.800  -0.415  1.0309  0.0391 -1.1533
  428MOL0     H57735   9.778   9.936  -0.509 -0.2224 -0.5926 -0.5987
  428MOL0     H57736  10.028   9.924  -0.336  0.8615 -0.0593 -0.2181
  428MOL0     H57737   9.961  10.068  -0.413 -6.7149 -0.0246 -2.0235
  428MOL0     H57738  10.119  10.007  -0.569  0.8363 -1.4857  0.9910
  428MOL0     H57739   9.972   9.949  -0.646 -0.0607  0.7648 -0.5618
  428MOL0     H57740  10.016   9.563  -0.618 -0.8497  1.7102  0.7194
  428MOL0     H57741  10.088   9.443  -0.810  0.8613 -0.1924 -0.7209
  428MOL0     H57742  10.239   9.200  -0.998 -1.7745 -2.0816  0.9278
  428MOL0     H57743  10.321   9.050  -1.171  1.8633  1.0225 -0.9204
  428MOL0     H57744  10.417   8.945  -1.391 -0.6577  1.3238  1.9444
  428MOL0     H57745  10.252   8.875  -1.339 -2.2271 -0.1411 -1.5834
  428MOL0     H57746  10.196   8.859  -1.578  0.2000  1.5505 -0.6492
  428MOL0     H57747  10.347   8.944  -1.621 -2.8555  1.3645  0.2660
  428MOL0     H57748  10.484   8.763  -1.507  0.0956 -0.3000 -1.2875
  428MOL0     H57749  10.340   8.668  -1.474  0.3036 -0.0776  1.1646
  428MOL0     H57750  10.364   8.737  -1.755 -1.2298 -1.8797 -1.0866
  428MOL0     H57751  10.339   8.590  -1.683 -0.7042  1.1696 -3.7261
  428MOL0     H57752  10.544   8.543  -1.764 -0.7979  1.7932 -2.3067
  428MOL0     H57753  10.577   8.579  -1.600 -0.3273  2.2036  1.7043
  428MOL0     H57754  10.624   8.771  -1.836  3.4167 -2.9063 -1.4840
  428MOL0     H57755  10.661   8.805  -1.669 -1.9988  0.6170 -0.8474
  428MOL0     H57756  10.771   8.562  -1.825  1.3696  0.1157 -0.8372
  428MOL0     H57757  10.818   8.631  -1.667 -0.3433  0.0291  0.6672
  428MOL0     H57758  10.969   8.696  -1.883  0.2885  1.9842 -0.6801
  428MOL0     H57759  10.843   8.816  -1.907  0.5931 -0.3256 -1.5363
  428MOL0     H57760  10.118   9.261  -1.479 -0.6455  3.1254 -0.5217
  428MOL0     H57761  10.053   9.443  -1.306  1.3244  0.8744  1.7839
  428MOL0     H57762  10.257   9.790  -0.979 -0.3282 -1.2012 -0.1790
  428MOL0     H57763  10.208   9.915  -0.770 -1.2501  0.7680  2.0549
  428MOL0     H57764  10.217   9.079   0.733 -1.4231 -1.2284  1.3964
  428MOL0     H57765  10.090   9.160   0.909  0.3220  1.3056 -0.5740
  428MOL0     H57766   9.721   9.235   1.197 -3.5985 -1.1798 -1.8041
  428MOL0     H57767   9.536   9.323   1.294  1.6642 -0.8221  2.0189
  428MOL0     H57768   9.472   9.725   1.511  1.8636  1.7245  0.2956
  428MOL0     H57769   9.638   9.711   1.453 -0.6442  1.7515  1.3871
  428MOL0     H57770   9.657   9.486   1.511 -0.2156  0.0175  0.6777
  428MOL0     H57771   9.487   9.481   1.569 -1.1994  2.0529  2.2366
  428MOL0     H57772   9.542   9.642   1.734  0.4121  0.7056 -0.3453
  428MOL0     H57773   9.719   9.621   1.694  2.1334 -1.7254 -0.3607
  428MOL0     H57774   9.555   9.377   1.777  1.7960 -2.3775 -1.2576
  428MOL0     H57775   9.726   9.388   1.769 -0.1069  2.0352 -2.3503
  428MOL0     H57776   9.688   9.611   2.122 -1.9956  1.9415 -0.5091
  428MOL0     H57777   9.646   9.718   1.204 -1.0098  0.4915 -1.5731
  428MOL0     H57778   9.864   9.685   0.952  0.8120 -4.3851 -1.4595
  428MOL0     H57779   9.830   9.769   1.100  0.6520 -0.9164  1.6831
  428MOL0     H57780   9.964   9.653   1.099  0.5825  1.3181 -0.8896
  429MOL0     O57781  11.282   5.964   6.971  0.1912  0.1393  0.4955
  429MOL0     C57782  11.375   6.042   6.962  0.0976 -0.1294  0.0478
  429MOL0     O57783  11.501   6.018   7.019  0.1175  0.4396  0.6189
  429MOL0     C57784  11.505   5.891   7.075  1.2469  0.4589 -0.2575
  429MOL0     C57785  11.471   5.871   7.216 -0.1305 -0.5204 -0.3134
  429MOL0     C57786  11.492   5.747   7.276  0.0672 -0.4951  0.1132
  429MOL0     C57787  11.536   5.641   7.197  0.3670 -0.0144  0.2495
  429MOL0     O57788  11.565   5.515   7.247 -0.0446 -0.1154 -0.1477
  429MOL0     C57789  11.597   5.486   7.383 -0.7264  0.2916  0.4214
  429MOL0     C57790  11.586   5.340   7.409  0.0657  0.3480 -0.7172
  429MOL0     C57791  11.613   5.314   7.554  0.4950  0.0954 -0.2537
  429MOL0     C57792  11.580   5.164   7.587  0.4688 -0.3183  1.0393
  429MOL0     C57793  11.578   5.155   7.743 -0.8692  0.1353 -0.0127
  429MOL0     C57794  11.544   5.011   7.785 -0.1178  0.6047  0.2251
  429MOL0     C57795  11.497   5.005   7.925  0.7329 -0.8340 -0.3550
  429MOL0     C57796  11.503   4.864   7.977  0.1170  0.3507  0.1458
  429MOL0     N57797  11.411   4.781   7.901 -0.1252  1.0203  0.7806
  429MOL0     C57798  11.438   4.727   7.778 -0.6155  0.3718 -0.8611
  429MOL0     C57799  11.313   4.702   7.719  0.0034  0.0492 -0.3140
  429MOL0     C57800  11.298   4.653   7.579 -0.0114 -0.0497  0.8533
  429MOL0     C57801  11.283   4.760   7.468  0.5651 -0.6739  0.4943
  429MOL0     C57802  11.217   4.706   7.339 -0.1502 -0.3928 -0.9009
  429MOL0     C57803  11.275   4.568   7.281  0.4291 -0.2459  0.6367
  429MOL0     O57804  11.204   4.520   7.166  0.3070 -0.6433  0.0389
  429MOL0     C57805  11.212   4.604   7.050  0.2745  0.5288 -0.7464
  429MOL0     C57806  11.091   4.663   7.007  0.4881  0.6017  0.4127
  429MOL0     C57807  11.090   4.751   6.893 -1.3026 -0.1646 -0.5978
  429MOL0     C57808  11.211   4.786   6.831 -0.3574 -0.2949 -0.4803
  429MOL0     C57809  11.222   4.881   6.720  0.5859  1.6944  0.4168
  429MOL0     O57810  11.096   4.924   6.662  0.0980  0.6940 -0.1185
  429MOL0     C57811  11.107   5.002   6.557  0.4611 -0.2249  0.4564
  429MOL0     C57812  11.148   5.133   6.580 -0.8272  0.3248  0.1301
  429MOL0     C57813  11.160   5.222   6.468  0.6329 -0.0466  0.7466
  429MOL0     C57814  11.128   5.179   6.340 -0.8267 -0.4037  0.9413
  429MOL0     O57815  11.142   5.273   6.237 -0.2408  0.4984 -0.3545
  429MOL0     C57816  11.122   5.235   6.105 -0.1123  0.3865  0.8275
  429MOL0     C57817  11.222   5.132   6.047 -0.4537  0.1808 -0.2317
  429MOL0     C57818  11.201   5.085   5.897 -0.2427  0.2117 -0.4685
  429MOL0     C57819  11.341   5.051   5.845  0.2509  0.5264 -0.4890
  429MOL0     C57820  11.331   4.990   5.707  0.0382 -0.4072  0.6654
  429MOL0     C57821  11.469   4.975   5.643  0.6103 -0.0550 -0.7708
  429MOL0     C57822  11.454   4.934   5.492  0.0931 -1.0662 -0.3118
  429MOL0     C57823  11.410   5.048   5.401  0.9968  0.6542  0.2434
  429MOL0    Cl57824  11.424   4.988   5.237  0.1362 -0.4571  0.2970
  429MOL0     C57825  11.076   5.051   6.327  0.1129  0.6933  0.1257
  429MOL0     C57826  11.061   4.961   6.433 -0.0218 -0.7560 -0.5631
  429MOL0     O57827  11.334   4.911   6.683 -0.1440  0.0607  0.2201
  429MOL0     C57828  11.331   4.720   6.874  0.6274 -0.1858  0.4884
  429MOL0     C57829  11.330   4.625   6.978  0.1554 -0.3648  1.0593
  429MOL0     N57830  11.213   4.731   7.813 -0.3022 -0.2191  0.2020
  429MOL0     N57831  11.279   4.771   7.922 -0.3538 -0.6887 -0.9411
  429MOL0     C57832  11.564   5.662   7.068 -0.7916 -0.3994 -0.0957
  429MOL0     C57833  11.551   5.783   7.007  0.0604  0.2824 -1.2510
  429MOL0     C57834  11.340   6.171   6.883  0.0828 -0.0567 -0.4207
  429MOL0     C57835  11.213   6.180   6.818 -0.2625 -0.1115  0.4584
  429MOL0     C57836  11.176   6.292   6.739 -0.4164  0.0274  0.2424
  429MOL0     C57837  11.273   6.391   6.724 -0.3554 -0.3452 -0.3392
  429MOL0     O57838  11.259   6.512   6.669 -0.0756  0.3268 -0.6496
  429MOL0     C57839  11.135   6.572   6.654  0.9937  0.0677 -0.3905
  429MOL0     C57840  11.139   6.719   6.684 -0.7377 -1.0917 -0.0957
  429MOL0     C57841  11.236   6.801   6.598  0.1544 -0.6336  1.2386
  429MOL0     C57842  11.250   6.942   6.664 -1.0678 -1.0536  0.7669
  429MOL0     C57843  11.126   6.997   6.714  0.2780 -0.5178  0.2061
  429MOL0     C57844  11.017   7.035   6.749 -0.3019 -0.8611 -0.7406
  429MOL0     C57845  11.397   6.381   6.779 -0.9987  0.6837 -0.8884
  429MOL0     C57846  11.431   6.274   6.861 -0.4695 -0.1225 -0.0465
  429MOL0     C57847  11.571   6.268   6.911 -0.1259  0.5628  0.2038
  429MOL0     H57848  11.443   5.945   7.290 -0.8691 -2.9999  2.0469
  429MOL0     H57849  11.463   5.756   7.380  2.2445  4.4088  0.5755
  429MOL0     H57850  11.698   5.519   7.411  0.2704 -0.5095 -1.9826
  429MOL0     H57851  11.520   5.536   7.442 -2.5073 -0.0820 -1.4924
  429MOL0     H57852  11.655   5.272   7.358 -0.6182 -0.0346 -1.1548
  429MOL0     H57853  11.489   5.298   7.381 -0.1590 -0.0159  0.5377
  429MOL0     H57854  11.549   5.379   7.614 -0.6052  2.1096 -3.3856
  429MOL0     H57855  11.720   5.326   7.578  0.6456 -0.0020 -0.8782
  429MOL0     H57856  11.490   5.128   7.536  1.9973 -1.7959 -0.7431
  429MOL0     H57857  11.665   5.108   7.547 -0.0921 -1.6554  1.6594
  429MOL0     H57858  11.678   5.181   7.779 -1.6614  1.1829  1.5342
  429MOL0     H57859  11.506   5.219   7.796  0.7955  1.2229  1.0162
  429MOL0     H57860  11.467   4.977   7.714  2.0192 -3.7374 -0.3154
  429MOL0     H57861  11.624   4.937   7.776 -1.5410 -0.8772 -1.0752
  429MOL0     H57862  11.398   5.052   7.936  0.0578 -2.7399  2.7435
  429MOL0     H57863  11.561   5.070   7.985  0.2104 -1.9151  1.4232
  429MOL0     H57864  11.604   4.822   7.980 -0.6703 -1.7453 -0.5239
  429MOL0     H57865  11.481   4.852   8.083 -0.6511  1.7784  0.1715
  429MOL0     H57866  11.529   4.726   7.719 -0.3021  2.1628 -0.4474
  429MOL0     H57867  11.388   4.594   7.557 -1.7893 -2.3705 -0.7207
  429MOL0     H57868  11.216   4.580   7.580  3.3807 -4.3162  2.3096
  429MOL0     H57869  11.236   4.850   7.509  1.5238  1.0230 -1.8653
  429MOL0     H57870  11.385   4.789   7.439  0.2971  0.4181  0.6037
  429MOL0     H57871  11.222   4.785   7.264 -0.3820  1.5969  1.0912
  429MOL0     H57872  11.112   4.683   7.359  0.4746 -1.6764  1.1412
  429MOL0     H57873  11.284   4.490   7.357  1.3537 -1.3202 -0.5368
  429MOL0     H57874  11.375   4.591   7.244 -0.3757 -3.0594 -4.2314
  429MOL0     H57875  11.003   4.628   7.060 -0.7092 -0.6967 -2.2333
  429MOL0     H57876  11.001   4.796   6.851 -0.0638  3.6383  0.3865
  429MOL0     H57877  11.185   5.146   6.682 -0.5200 -3.2885  0.5872
  429MOL0     H57878  11.210   5.318   6.468 -0.3444  0.4851  2.2890
  429MOL0     H57879  11.019   5.200   6.096 -0.4600  1.2071  1.4690
  429MOL0     H57880  11.121   5.325   6.043 -1.7530  1.7196  2.6953
  429MOL0     H57881  11.321   5.178   6.057  0.6341 -1.8538 -1.0466
  429MOL0     H57882  11.241   5.046   6.111 -0.3095  0.1061 -0.3733
  429MOL0     H57883  11.132   5.002   5.878 -0.1623  0.2167 -0.7948
  429MOL0     H57884  11.145   5.158   5.839 -0.9303 -0.2616 -0.4189
  429MOL0     H57885  11.394   4.979   5.908  1.7899  1.8248 -0.2504
  429MOL0     H57886  11.407   5.138   5.841  0.6352  0.6093  3.4019
  429MOL0     H57887  11.264   5.046   5.641  0.2285 -2.3008 -1.2653
  429MOL0     H57888  11.292   4.888   5.718  0.6202 -0.5769  1.2200
  429MOL0     H57889  11.528   5.067   5.651 -0.4231  0.5333  0.5180
  429MOL0     H57890  11.518   4.889   5.691  0.2956 -0.0675 -0.4749
  429MOL0     H57891  11.388   4.848   5.497  0.4165 -1.2449  1.9102
  429MOL0     H57892  11.549   4.894   5.456 -0.8410 -4.9328  1.0353
  429MOL0     H57893  11.302   5.062   5.411  0.2081 -0.8223 -3.8966
  429MOL0     H57894  11.472   5.134   5.426  3.2565 -0.7296 -0.3138
  429MOL0     H57895  11.042   5.016   6.231  2.6992 -1.5050 -0.0974
  429MOL0     H57896  11.026   4.861   6.410  0.4940 -1.4435  1.4417
  429MOL0     H57897  11.429   4.734   6.831  0.3690  3.0130  0.7035
  429MOL0     H57898  11.420   4.583   7.021  0.8811 -0.4383 -0.4610
  429MOL0     H57899  11.603   5.583   7.004 -0.6390 -2.2706  2.1610
  429MOL0     H57900  11.578   5.785   6.902 -1.2897  0.9029 -1.6044
  429MOL0     H57901  11.144   6.098   6.837 -0.8127  0.8026  2.8354
  429MOL0     H57902  11.092   6.296   6.670 -0.3003  5.0579  0.0529
  429MOL0     H57903  11.070   6.521   6.726  2.9962 -3.0236 -0.5919
  429MOL0     H57904  11.084   6.555   6.559  0.6248  1.0674 -0.3832
  429MOL0     H57905  11.166   6.739   6.788 -1.7433  1.4472 -0.2468
  429MOL0     H57906  11.040   6.757   6.656 -0.2392  0.0870 -0.3356
  429MOL0     H57907  11.195   6.819   6.498  0.1766 -0.3166  1.2848
  429MOL0     H57908  11.335   6.757   6.585  0.2341  0.0514 -0.8349
  429MOL0     H57909  11.321   6.938   6.747 -0.2638 -0.2402  0.1268
  429MOL0     H57910  11.299   7.016   6.600  0.2992 -2.2374  0.3909
  429MOL0     H57911  10.922   7.073   6.781  1.3192  2.7444  0.3029
  429MOL0     H57912  11.478   6.454   6.773 -2.3298  2.1806 -1.3896
  429MOL0     H57913  11.634   6.349   6.873  4.1541 -3.3531 -2.1728
  429MOL0     H57914  11.579   6.263   7.020  3.7309  0.9324  0.0840
  429MOL0     H57915  11.618   6.185   6.857 -3.7426 -1.3085 -0.3523
  430MOL0     O57916  10.289   5.000   0.757 -0.1084 -0.4506  0.5980
  430MOL0     C57917  10.198   5.084   0.781  0.3889  1.0627 -0.1597
  430MOL0     O57918  10.089   5.053   0.854 -0.9652 -0.8025  0.1828
  430MOL0     C57919  10.048   4.926   0.861 -0.5269  0.7162  0.6463
  430MOL0     C57920  10.111   4.848   0.966  0.2821 -0.1174  0.0482
  430MOL0     C57921  10.071   4.712   0.975  0.1793 -0.1039 -0.1506
  430MOL0     C57922   9.998   4.647   0.872 -0.0854  0.3426 -0.3393
  430MOL0     O57923   9.972   4.506   0.880 -0.0430  0.4539  0.4555
  430MOL0     C57924   9.935   4.439   0.760  0.6131 -0.0878 -0.0484
  430MOL0     C57925   9.780   4.415   0.776 -0.3969  0.2483  0.0696
  430MOL0     C57926   9.718   4.461   0.639  0.6893  0.1391 -0.2513
  430MOL0     C57927   9.568   4.428   0.632 -0.7219  0.3488  0.5147
  430MOL0     C57928   9.528   4.499   0.494  0.2561  0.3579 -0.6969
  430MOL0     C57929   9.378   4.523   0.485  0.3259 -0.4056  0.6052
  430MOL0     C57930   9.329   4.557   0.340 -0.4172  0.1677 -0.2688
  430MOL0     C57931   9.195   4.627   0.348  1.0689 -0.3389 -0.1790
  430MOL0     N57932   9.167   4.700   0.216  0.0939  0.8900 -0.6748
  430MOL0     C57933   9.060   4.786   0.214  0.0882  0.0596  0.0799
  430MOL0     C57934   9.039   4.798   0.082  0.1662  0.9843  0.3749
  430MOL0     C57935   8.934   4.884   0.011  0.0705 -0.4032  0.2078
  430MOL0     C57936   8.794   4.881   0.079  0.0079 -0.4105  0.5372
  430MOL0     C57937   8.720   4.744   0.057 -0.4246 -0.2466 -0.5661
  430MOL0     C57938   8.637   4.752  -0.074  0.5041  0.1189 -0.2950
  430MOL0     O57939   8.599   4.622  -0.126 -0.5247  0.4542  0.4408
  430MOL0     C57940   8.693   4.549  -0.198  0.1363 -0.3574  0.1118
  430MOL0     C57941   8.833   4.570  -0.210  0.0430 -0.8063  0.4460
  430MOL0     C57942   8.913   4.486  -0.298  0.0217 -1.4427  0.7468
  430MOL0     C57943   8.853   4.385  -0.370 -0.0163 -0.2485 -0.2483
  430MOL0     C57944   8.929   4.289  -0.453 -0.4026 -0.3006  1.1950
  430MOL0     O57945   8.862   4.176  -0.500  0.3674 -0.3536 -0.9043
  430MOL0     C57946   8.946   4.078  -0.560  0.3704 -0.1442  0.7287
  430MOL0     C57947   9.049   4.016  -0.490  0.3761 -0.2950 -0.5255
  430MOL0     C57948   9.132   3.917  -0.547 -0.0937  0.6380 -0.3069
  430MOL0     C57949   9.102   3.865  -0.672  0.4657 -0.3903  1.2313
  430MOL0     O57950   9.172   3.752  -0.724 -0.0880 -0.6618  0.2943
  430MOL0     C57951   9.293   3.691  -0.670  0.1378 -0.0946 -0.8771
  430MOL0     C57952   9.352   3.575  -0.740  0.4448 -0.9693 -0.4530
  430MOL0     C57953   9.411   3.613  -0.870 -0.0754 -0.4719 -0.1525
  430MOL0     C57954   9.507   3.510  -0.919 -0.3295  0.1465 -0.1580
  430MOL0     C57955   9.585   3.566  -1.053  0.6510 -0.3695  0.1077
  430MOL0     C57956   9.685   3.471  -1.123 -0.3374 -0.1044  0.3579
  430MOL0     C57957   9.620   3.333  -1.137 -0.7138  0.1875  0.6082
  430MOL0     C57958   9.703   3.269  -1.251 -0.6593  0.5852 -0.2309
  430MOL0    Cl57959   9.880   3.285  -1.222  0.1821  0.4461  0.7425
  430MOL0     C57960   8.992   3.928  -0.748  0.8464 -0.2686 -1.1506
  430MOL0     C57961   8.921   4.032  -0.690 -0.2312  0.6844  0.0922
  430MOL0     O57962   9.049   4.314  -0.474  0.2424 -0.7616  0.3761
  430MOL0     C57963   8.723   4.360  -0.339  0.3232  0.3844  0.6322
  430MOL0     C57964   8.637   4.441  -0.261  0.2917 -0.2145 -0.3837
  430MOL0     N57965   9.122   4.714   0.013  0.2713 -0.4446 -1.4216
  430MOL0     N57966   9.198   4.650   0.098 -0.3206 -0.0469  0.1658
  430MOL0     C57967   9.948   4.725   0.772  0.9879  0.4563 -0.2278
  430MOL0     C57968   9.974   4.861   0.768  0.5175 -1.0195 -0.4000
  430MOL0     C57969  10.219   5.231   0.760  0.5924  0.2328 -0.0995
  430MOL0     C57970  10.175   5.320   0.860  0.3765 -0.0567 -0.6184
  430MOL0     C57971  10.206   5.458   0.867  0.1940 -0.1095 -0.0219
  430MOL0     C57972  10.278   5.518   0.772  0.2592  0.5131  0.8102
  430MOL0     O57973  10.313   5.653   0.784  0.2403 -1.0057  0.8319
  430MOL0     C57974  10.343   5.718   0.659  0.1388 -0.7308 -0.2202
  430MOL0     C57975  10.315   5.864   0.673  0.0891 -0.4982 -1.1065
  430MOL0     C57976  10.270   5.938   0.551  0.7097  0.0046  0.1514
  430MOL0     C57977  10.369   5.921   0.422  0.3783  0.3854 -0.4395
  430MOL0     C57978  10.505   5.970   0.447  1.3112  0.6650 -1.1218
  430MOL0     C57979  10.615   6.001   0.443 -0.9374 -1.2296 -0.2112
  430MOL0     C57980  10.326   5.433   0.668  0.1455  0.3084  0.7288
  430MOL0     C57981  10.301   5.297   0.664  0.3076  0.7086  0.1516
  430MOL0     C57982  10.348   5.225   0.542  0.4720  0.2392 -0.6021
  430MOL0     H57983  10.167   4.903   1.040 -1.5158  3.3499 -0.9363
  430MOL0     H57984  10.084   4.642   1.057 -0.8428  0.7016  0.7395
  430MOL0     H57985   9.964   4.502   0.675 -1.2531 -0.2244 -0.8316
  430MOL0     H57986   9.988   4.344   0.744 -1.9122 -1.3247 -1.5653
  430MOL0     H57987   9.745   4.467   0.865 -1.1542 -2.1745  1.2965
  430MOL0     H57988   9.766   4.307   0.786 -2.2691  0.4218 -0.2456
  430MOL0     H57989   9.768   4.415   0.553  1.3480  2.7654 -1.3876
  430MOL0     H57990   9.730   4.570   0.632  1.1265  0.1060 -0.0737
  430MOL0     H57991   9.560   4.319   0.630 -1.8915  0.3831  1.5438
  430MOL0     H57992   9.520   4.467   0.722  0.4615  1.5477  0.6560
  430MOL0     H57993   9.570   4.600   0.484  0.8354 -0.0592 -2.7157
  430MOL0     H57994   9.564   4.435   0.413  2.9932 -0.7736  1.2653
  430MOL0     H57995   9.320   4.442   0.530  2.1496 -0.4253  3.1363
  430MOL0     H57996   9.364   4.619   0.535  0.3513  0.0860 -0.3173
  430MOL0     H57997   9.321   4.462   0.285 -0.7870 -0.1425  0.3034
  430MOL0     H57998   9.410   4.623   0.307  3.4653 -1.9797  3.9422
  430MOL0     H57999   9.122   4.548   0.369 -1.0951  1.7600  0.5819
  430MOL0     H58000   9.180   4.703   0.424  0.2025  2.1143 -2.6247
  430MOL0     H58001   9.008   4.818   0.304 -2.6179 -2.2524 -0.5173
  430MOL0     H58002   8.968   4.988   0.003 -2.6556  0.7100  1.6687
  430MOL0     H58003   8.918   4.858  -0.094  2.1229  3.2848 -1.2121
  430MOL0     H58004   8.808   4.872   0.187 -0.7718  3.9665  1.1900
  430MOL0     H58005   8.733   4.969   0.056  1.1424  0.3982  0.5326
  430MOL0     H58006   8.653   4.704   0.133 -1.3662 -2.0256 -2.2190
  430MOL0     H58007   8.803   4.674   0.042  0.6023  0.6772  0.5597
  430MOL0     H58008   8.689   4.805  -0.154 -3.5059  2.0824 -1.8928
  430MOL0     H58009   8.550   4.817  -0.062  0.6199  0.1733  0.2690
  430MOL0     H58010   8.874   4.650  -0.149 -2.7282  1.0332  0.0519
  430MOL0     H58011   9.018   4.513  -0.303  0.7616 -4.1495 -0.0004
  430MOL0     H58012   9.084   4.055  -0.395 -1.2499  2.1164 -0.8235
  430MOL0     H58013   9.209   3.873  -0.484  0.0631  0.9069 -0.3075
  430MOL0     H58014   9.361   3.777  -0.672 -2.6412  2.5413  3.1484
  430MOL0     H58015   9.285   3.681  -0.562 -0.4412  4.1190 -0.3536
  430MOL0     H58016   9.431   3.538  -0.673  0.8195  2.9794  1.5508
  430MOL0     H58017   9.271   3.501  -0.741 -1.7805  1.1833  2.4101
  430MOL0     H58018   9.330   3.626  -0.942 -3.5566 -3.6498  2.7715
  430MOL0     H58019   9.456   3.712  -0.859 -2.6902  0.8954 -0.8247
  430MOL0     H58020   9.459   3.414  -0.942 -0.3654 -0.3547  1.7960
  430MOL0     H58021   9.589   3.482  -0.853 -2.1962 -0.6144  1.9610
  430MOL0     H58022   9.640   3.658  -1.031 -1.5789  2.0269 -3.3603
  430MOL0     H58023   9.511   3.594  -1.129  1.6041 -1.6990 -1.3915
  430MOL0     H58024   9.706   3.514  -1.221 -3.3319  0.2594 -0.2061
  430MOL0     H58025   9.777   3.471  -1.063 -0.4733  2.2149  0.6662
  430MOL0     H58026   9.515   3.344  -1.165 -0.1660  0.0238 -1.7951
  430MOL0     H58027   9.632   3.276  -1.044  1.2242  1.5019  1.2146
  430MOL0     H58028   9.676   3.163  -1.252  0.5713  0.2084  1.5279
  430MOL0     H58029   9.691   3.316  -1.349  2.0339  0.5987 -0.6291
  430MOL0     H58030   8.969   3.890  -0.847 -0.7130 -0.9064 -0.5669
  430MOL0     H58031   8.843   4.078  -0.749 -1.3932 -2.5034 -1.0899
  430MOL0     H58032   8.670   4.278  -0.385  0.2170  1.9971 -2.4069
  430MOL0     H58033   8.529   4.430  -0.256  0.1772 -0.5726 -2.6808
  430MOL0     H58034   9.881   4.683   0.698 -1.8687  4.3090 -0.1527
  430MOL0     H58035   9.947   4.914   0.678  0.0674 -3.0731 -1.5319
  430MOL0     H58036  10.126   5.290   0.952  1.1806  0.6568  0.0690
  430MOL0     H58037  10.157   5.526   0.937 -0.0750  2.3165 -2.4037
  430MOL0     H58038  10.277   5.682   0.580 -3.1005 -0.9220  2.3738
  430MOL0     H58039  10.450   5.710   0.635 -0.2619 -0.8728 -2.0959
  430MOL0     H58040  10.404   5.916   0.710 -0.3293 -0.9893  0.6695
  430MOL0     H58041  10.233   5.877   0.744 -0.9555  1.8877 -2.6238
  430MOL0     H58042  10.226   6.036   0.574  1.4458  0.5873 -0.8171
  430MOL0     H58043  10.180   5.885   0.520  1.5876 -0.6189 -1.4548
  430MOL0     H58044  10.369   5.817   0.389 -0.6024  0.1416  0.2904
  430MOL0     H58045  10.322   5.982   0.344 -3.4653 -2.4704 -0.6131
  430MOL0     H58046  10.717   6.033   0.448 -2.1544  3.1286  0.5586
  430MOL0     H58047  10.380   5.474   0.583 -1.5634 -2.7323 -2.0573
  430MOL0     H58048  10.446   5.183   0.568  0.6017  0.2447 -1.0625
  430MOL0     H58049  10.278   5.145   0.517  2.2302 -0.8899 -2.2007
  430MOL0     H58050  10.369   5.295   0.460 -0.1048  0.6210 -0.4314
  431MOL0     O58051   9.191  11.012   2.576 -0.0066 -0.0058 -0.5005
  431MOL0     C58052   9.160  10.956   2.683 -0.5364 -0.6717  0.2741
  431MOL0     O58053   9.221  10.853   2.737 -0.0511 -0.3885  0.3382
  431MOL0     C58054   9.336  10.795   2.687 -1.3708 -0.3593 -0.3600
  431MOL0     C58055   9.434  10.857   2.608  0.8337  0.3858  0.0807
  431MOL0     C58056   9.549  10.793   2.575  0.7597  0.3299  0.6331
  431MOL0     C58057   9.569  10.660   2.613  0.5754  0.2888  0.3844
  431MOL0     O58058   9.688  10.595   2.588  0.2172  0.3583 -0.2414
  431MOL0     C58059   9.797  10.643   2.503  0.1039 -1.0708  1.3044
  431MOL0     C58060   9.766  10.605   2.359  0.2497 -0.3926  0.6209
  431MOL0     C58061   9.726  10.458   2.337  0.7279 -0.5263  0.4209
  431MOL0     C58062   9.686  10.420   2.196  0.4304  0.2572  0.1642
  431MOL0     C58063   9.629  10.284   2.161 -0.8303 -0.2598  0.2240
  431MOL0     C58064   9.611  10.274   2.010  0.2009 -0.1947 -0.4884
  431MOL0     C58065   9.505  10.170   1.971 -0.0993  0.5581 -0.2117
  431MOL0     C58066   9.552  10.023   2.014  0.7227  0.8556  0.0392
  431MOL0     N58067   9.465   9.928   1.961  0.7923  1.0851  0.8790
  431MOL0     C58068   9.357   9.885   2.033 -0.9042 -0.0622  0.4792
  431MOL0     C58069   9.301   9.784   1.956  0.1452 -0.2846 -0.5830
  431MOL0     C58070   9.214   9.670   2.003 -0.5940 -0.1979  0.3028
  431MOL0     C58071   9.234   9.540   1.938 -0.1145 -0.9944 -0.2233
  431MOL0     C58072   9.165   9.526   1.794 -0.2523  0.2750  0.1180
  431MOL0     C58073   9.210   9.404   1.724  0.5854 -0.7445 -0.7627
  431MOL0     O58074   9.120   9.301   1.757 -0.8189 -0.1725 -0.0354
  431MOL0     C58075   9.140   9.177   1.693 -0.0948  0.0149 -0.3491
  431MOL0     C58076   9.042   9.079   1.718  0.1554  0.5943  0.7419
  431MOL0     C58077   9.072   8.948   1.669  1.2791 -0.1711  0.1133
  431MOL0     C58078   9.196   8.909   1.615  0.5622  0.4698 -0.8764
  431MOL0     C58079   9.235   8.775   1.564 -0.0925 -0.2267  0.2498
  431MOL0     O58080   9.364   8.756   1.535  0.4771  0.8010  0.0716
  431MOL0     C58081   9.414   8.668   1.438 -0.1760 -0.3890 -0.3516
  431MOL0     C58082   9.550   8.633   1.459 -0.0988  0.4730 -0.0587
  431MOL0     C58083   9.619   8.547   1.368  0.0347  0.2311  0.5471
  431MOL0     C58084   9.550   8.495   1.256 -0.6697 -0.7729 -0.8179
  431MOL0     O58085   9.616   8.421   1.163  0.0355 -0.1130 -1.1137
  431MOL0     C58086   9.738   8.462   1.108 -0.7798 -0.1183 -0.0382
  431MOL0     C58087   9.832   8.347   1.055  0.0733  0.0136  0.0750
  431MOL0     C58088   9.825   8.217   1.147 -0.8618 -1.2556  0.4427
  431MOL0     C58089   9.916   8.102   1.096  0.2645  0.0812 -0.0230
  431MOL0     C58090   9.929   8.003   1.206  0.2953 -0.5069  0.0291
  431MOL0     C58091  10.010   7.888   1.152  0.1579  0.4048  0.9023
  431MOL0     C58092  10.151   7.914   1.121  0.0756 -0.0065 -0.3158
  431MOL0     C58093  10.234   7.887   1.234 -0.0176  0.0170 -0.9273
  431MOL0    Cl58094  10.279   7.715   1.259  0.0014 -0.3945 -0.9427
  431MOL0     C58095   9.411   8.514   1.249 -0.4838  0.3284 -0.4484
  431MOL0     C58096   9.347   8.598   1.338 -0.2259  0.3194 -0.7943
  431MOL0     O58097   9.144   8.705   1.535  0.7927  0.2118 -1.1053
  431MOL0     C58098   9.291   9.007   1.598 -0.1414  0.5670  0.1066
  431MOL0     C58099   9.268   9.140   1.639 -0.2408  0.1451 -0.3986
  431MOL0     N58100   9.363   9.790   1.833 -0.5162  0.0096 -0.2848
  431MOL0     N58101   9.459   9.879   1.838  0.1128  0.1592 -0.0419
  431MOL0     C58102   9.471  10.594   2.680 -0.2495 -0.3502  0.0440
  431MOL0     C58103   9.351  10.661   2.716 -0.9018  0.3997  0.0269
  431MOL0     C58104   9.045  11.004   2.760  0.5312  0.4421 -0.3948
  431MOL0     C58105   8.980  10.904   2.850  0.3198 -0.1634 -0.2775
  431MOL0     C58106   8.868  10.937   2.922 -0.3670  0.8927 -0.1242
  431MOL0     C58107   8.810  11.062   2.912 -0.2008  0.6853  0.7289
  431MOL0     O58108   8.707  11.081   3.003  0.8399  0.0227  0.4701
  431MOL0     C58109   8.700  11.195   3.082  0.1965 -0.0219  0.0349
  431MOL0     C58110   8.591  11.297   3.033  0.8207  0.1152 -0.2866
  431MOL0     C58111   8.577  11.423   3.127 -0.4493  0.3062  1.0240
  431MOL0     C58112   8.504  11.528   3.040 -0.2303 -0.1422 -0.0826
  431MOL0     C58113   8.492  11.654   3.117  0.6523  0.0183  0.3900
  431MOL0     C58114   8.476  11.760   3.173  0.3733 -0.6702 -0.8147
  431MOL0     C58115   8.865  11.160   2.836 -0.3261  0.0712  0.4040
  431MOL0     C58116   8.964  11.130   2.749 -0.5714  0.1380  0.3321
  431MOL0     C58117   9.004  11.247   2.647 -0.6307  1.0110 -0.8880
  431MOL0     H58118   9.424  10.961   2.578 -2.0464 -0.9371 -4.5775
  431MOL0     H58119   9.629  10.847   2.524  1.8701 -0.4464  1.5059
  431MOL0     H58120   9.822  10.748   2.521 -2.5448 -0.5787  2.6678
  431MOL0     H58121   9.893  10.594   2.523  1.3986  1.2624  1.1905
  431MOL0     H58122   9.847  10.641   2.294  0.7785  0.2914  1.6453
  431MOL0     H58123   9.683  10.673   2.336  1.7247  1.3934  0.3170
  431MOL0     H58124   9.634  10.448   2.394 -0.8682  0.6583 -1.7818
  431MOL0     H58125   9.800  10.389   2.379 -2.0142 -1.4651  4.1435
  431MOL0     H58126   9.605  10.489   2.172 -3.5499 -3.5141  1.5117
  431MOL0     H58127   9.771  10.441   2.131  0.2683  0.3352 -0.0215
  431MOL0     H58128   9.695  10.202   2.192  0.7493  0.7247 -0.4444
  431MOL0     H58129   9.540  10.254   2.217 -0.4089 -0.0149  1.0415
  431MOL0     H58130   9.590  10.376   1.978  2.2557  0.3625 -0.1579
  431MOL0     H58131   9.706  10.243   1.966 -0.3626  1.1900 -2.8641
  431MOL0     H58132   9.485  10.161   1.864 -0.0359  0.8909 -0.2524
  431MOL0     H58133   9.412  10.205   2.018  0.0957 -0.8524  1.2867
  431MOL0     H58134   9.651  10.010   1.970  1.6255  0.4193  2.1215
  431MOL0     H58135   9.561  10.027   2.123 -0.3346  1.9560  0.1174
  431MOL0     H58136   9.342   9.918   2.135  0.9649  1.5181  0.2811
  431MOL0     H58137   9.228   9.660   2.111  2.9192  0.8493  0.0897
  431MOL0     H58138   9.109   9.699   1.991 -0.6338  0.5041  2.0557
  431MOL0     H58139   9.342   9.524   1.930  0.0111 -1.6572  2.0648
  431MOL0     H58140   9.181   9.465   1.997 -2.5850  2.1735  1.8926
  431MOL0     H58141   9.197   9.607   1.728  1.2421 -0.5138 -0.1663
  431MOL0     H58142   9.058   9.534   1.813  0.3794  1.5643  4.0197
  431MOL0     H58143   9.309   9.382   1.765 -0.4899 -2.1001  1.3561
  431MOL0     H58144   9.209   9.424   1.617  0.5432 -0.1480 -0.6557
  431MOL0     H58145   8.945   9.107   1.758 -1.0142 -1.2624 -0.6898
  431MOL0     H58146   8.997   8.872   1.689 -0.1286  1.3290  0.7742
  431MOL0     H58147   9.604   8.672   1.544  0.2529  0.3869 -0.2443
  431MOL0     H58148   9.724   8.528   1.384  0.0550  1.1809  1.5836
  431MOL0     H58149   9.708   8.520   1.020 -4.2162  1.1835  1.8057
  431MOL0     H58150   9.790   8.520   1.185  0.3511 -0.1051 -0.7867
  431MOL0     H58151   9.791   8.331   0.954 -1.7475 -0.1298  0.8081
  431MOL0     H58152   9.934   8.382   1.038 -0.3031  2.7545  2.6907
  431MOL0     H58153   9.858   8.253   1.245 -0.7143  0.7158 -0.2857
  431MOL0     H58154   9.720   8.187   1.146 -0.7428 -1.8532  2.0848
  431MOL0     H58155  10.014   8.150   1.088  1.6705 -2.5260  0.1468
  431MOL0     H58156   9.893   8.055   1.000  4.4701  2.2226 -2.3307
  431MOL0     H58157   9.830   7.966   1.234 -0.5098  0.9087 -0.8260
  431MOL0     H58158   9.980   8.062   1.282  0.5666  1.2777 -1.4528
  431MOL0     H58159  10.013   7.799   1.215  3.2798  0.5886  1.2008
  431MOL0     H58160   9.961   7.849   1.062 -1.3403 -1.7068  2.5407
  431MOL0     H58161  10.170   8.017   1.088  0.8356 -0.3954 -1.1311
  431MOL0     H58162  10.184   7.844   1.045  0.5539  0.4146 -0.5069
  431MOL0     H58163  10.329   7.940   1.225  0.4758 -1.0112 -2.1059
  431MOL0     H58164  10.179   7.927   1.319  3.1170 -0.6825  1.6055
  431MOL0     H58165   9.365   8.465   1.163 -1.2324  0.5944 -0.2081
  431MOL0     H58166   9.242   8.624   1.322 -0.0066  1.1706 -0.9143
  431MOL0     H58167   9.388   8.989   1.554 -1.0989  1.9244 -2.8281
  431MOL0     H58168   9.345   9.215   1.630 -0.4023  0.7688  2.5859
  431MOL0     H58169   9.502  10.493   2.704  0.9528 -1.1341 -3.9904
  431MOL0     H58170   9.276  10.595   2.759  0.4572 -1.0880  0.2559
  431MOL0     H58171   9.020  10.804   2.861 -2.3289 -1.1058  1.9513
  431MOL0     H58172   8.832  10.870   3.000  2.8077  1.8720  2.4301
  431MOL0     H58173   8.801  11.235   3.095 -0.6702  1.5374  2.9796
  431MOL0     H58174   8.641  11.167   3.170 -1.4382 -2.3549 -1.6653
  431MOL0     H58175   8.494  11.246   3.036  0.9211 -0.0958 -0.5620
  431MOL0     H58176   8.603  11.313   2.925 -3.7588 -2.8796 -1.5353
  431MOL0     H58177   8.676  11.465   3.146 -0.2252 -0.3668  1.3549
  431MOL0     H58178   8.513  11.408   3.214 -3.3211  0.0988 -0.9823
  431MOL0     H58179   8.561  11.541   2.948 -1.6187 -0.4633 -1.0196
  431MOL0     H58180   8.405  11.493   3.010 -1.8653 -0.3090  4.5827
  431MOL0     H58181   8.485  11.837   3.246  0.4436 -3.0916  1.9134
  431MOL0     H58182   8.828  11.261   2.851 -3.4468 -1.1678  2.1400
  431MOL0     H58183   9.108  11.278   2.665 -0.1269 -1.5000  1.0164
  431MOL0     H58184   8.995  11.228   2.540 -1.7508  0.0713 -0.6489
  431MOL0     H58185   8.943  11.338   2.659  0.5201  1.9488 -1.8896
  432MOL0     O58186   1.862   2.633  11.437 -0.0836  1.1123  0.1475
  432MOL0     C58187   1.769   2.639  11.516  0.1989  0.2203 -0.1571
  432MOL0     O58188   1.760   2.574  11.631 -0.5240 -0.4327  0.5448
  432MOL0     C58189   1.870   2.502  11.667 -0.5582  0.5516 -1.1138
  432MOL0     C58190   2.009   2.550  11.658 -0.0552 -0.0225 -0.0703
  432MOL0     C58191   2.112   2.472  11.715 -0.1658  0.3386  0.1090
  432MOL0     C58192   2.073   2.357  11.787 -0.3267 -0.3436  0.3051
  432MOL0     O58193   2.162   2.269  11.851 -0.0977 -0.1597  0.3651
  432MOL0     C58194   2.302   2.304  11.851 -0.0611  0.2718 -0.9748
  432MOL0     C58195   2.384   2.177  11.904  0.0773  0.3768 -0.4638
  432MOL0     C58196   2.529   2.217  11.925 -0.3196 -0.0834 -0.7239
  432MOL0     C58197   2.619   2.095  11.908 -0.0478  0.7488 -0.3940
  432MOL0     C58198   2.767   2.111  11.954  0.1154 -0.5462  0.4238
  432MOL0     C58199   2.858   2.144  11.835  0.2565  1.0010  0.4308
  432MOL0     C58200   2.987   2.192  11.904  0.8305 -0.2002 -0.7942
  432MOL0     C58201   3.108   2.219  11.818 -0.1405  0.2492  0.3165
  432MOL0     N58202   3.161   2.098  11.759  0.5802 -0.2641  0.7762
  432MOL0     C58203   3.111   2.051  11.642 -0.3178 -0.1801 -0.4118
  432MOL0     C58204   3.197   1.949  11.611  1.2606  0.6197  0.8625
  432MOL0     C58205   3.209   1.877  11.479  0.7277  1.2103 -0.6362
  432MOL0     C58206   3.290   1.966  11.380  0.8476  0.6427 -0.0791
  432MOL0     C58207   3.331   1.907  11.241  0.4908 -0.1438  0.4994
  432MOL0     C58208   3.240   1.937  11.125  0.6260  0.4560 -0.0854
  432MOL0     O58209   3.221   2.074  11.116 -0.0925 -0.0751  0.1347
  432MOL0     C58210   3.120   2.147  11.190 -1.2207 -0.9112  0.0238
  432MOL0     C58211   3.015   2.082  11.243  1.1240 -0.1200 -0.5118
  432MOL0     C58212   2.918   2.154  11.307 -0.3509  0.0662 -0.7856
  432MOL0     C58213   2.925   2.290  11.327  0.4750 -0.2763 -0.3559
  432MOL0     C58214   2.812   2.347  11.404 -0.0743 -0.5388 -0.0198
  432MOL0     O58215   2.761   2.468  11.341  0.0818 -0.1631 -0.4412
  432MOL0     C58216   2.657   2.540  11.399 -0.8813 -0.1205 -0.4991
  432MOL0     C58217   2.573   2.499  11.514  1.1447 -0.1262 -0.2106
  432MOL0     C58218   2.493   2.591  11.580 -0.7760 -0.4978 -0.4098
  432MOL0     C58219   2.477   2.712  11.531  0.8033 -0.5988 -0.2510
  432MOL0     O58220   2.394   2.797  11.602  0.0013  0.0301  1.4088
  432MOL0     C58221   2.394   2.935  11.564  0.6740 -1.5332  0.0403
  432MOL0     C58222   2.290   3.012  11.653 -1.0567  1.1913  0.6138
  432MOL0     C58223   2.147   2.956  11.641 -0.8732 -0.5790 -0.5420
  432MOL0     C58224   2.054   3.029  11.740  0.4660  0.2660  0.9775
  432MOL0     C58225   1.897   2.988  11.722  1.2805 -0.0602  0.4757
  432MOL0     C58226   1.841   3.017  11.586  0.5496 -0.2505 -1.1585
  432MOL0     C58227   1.824   3.165  11.569 -0.8340 -0.1139  0.0684
  432MOL0     C58228   1.728   3.204  11.456 -0.2943 -0.7374  0.2136
  432MOL0    Cl58229   1.773   3.373  11.427  0.0555  0.0250  0.4281
  432MOL0     C58230   2.549   2.749  11.411 -1.0365 -0.0865 -1.2206
  432MOL0     C58231   2.632   2.661  11.344  0.1833  0.6121  0.0431
  432MOL0     O58232   2.769   2.287  11.499  0.6207  0.6539  0.6639
  432MOL0     C58233   3.032   2.355  11.282  0.4166  0.5437  0.5855
  432MOL0     C58234   3.130   2.288  11.211 -0.2264  0.0839 -0.0135
  432MOL0     N58235   3.292   1.939  11.714  0.5589 -0.1436  0.4920
  432MOL0     N58236   3.257   2.022  11.803 -0.2876  0.4137 -0.0763
  432MOL0     C58237   1.944   2.317  11.799 -0.0108  0.8892 -1.3980
  432MOL0     C58238   1.843   2.380  11.739 -0.2089 -0.3356 -0.3886
  432MOL0     C58239   1.657   2.727  11.483 -0.5321 -0.2317  1.0007
  432MOL0     C58240   1.647   2.775  11.346 -0.4716  0.1472  0.4627
  432MOL0     C58241   1.535   2.859  11.316  0.1675  0.0155  0.2778
  432MOL0     C58242   1.437   2.892  11.402  0.2362 -0.6402 -0.1887
  432MOL0     O58243   1.335   2.979  11.357  0.4611  0.3526 -0.2319
  432MOL0     C58244   1.227   2.980  11.450 -0.1679 -0.1860  0.2593
  432MOL0     C58245   1.097   3.021  11.385  0.4994 -0.6611 -0.3013
  432MOL0     C58246   0.976   2.974  11.476  0.3333  0.6275  0.2467
  432MOL0     C58247   0.966   3.042  11.615 -0.3271  0.5138 -0.0426
  432MOL0     C58248   0.829   3.037  11.671  0.1606  0.8210 -0.7668
  432MOL0     C58249   0.726   3.034  11.734 -0.2252  0.2316 -0.2738
  432MOL0     C58250   1.453   2.853  11.532 -0.4538  0.1216 -0.2646
  432MOL0     C58251   1.550   2.767  11.575 -0.6065  0.0430 -0.0625
  432MOL0     C58252   1.556   2.742  11.728  0.0061  0.8590 -0.3793
  432MOL0     H58253   2.048   2.639  11.611 -1.5472  1.2200  0.9292
  432MOL0     H58254   2.216   2.504  11.724 -0.1751  0.5344 -0.4270
  432MOL0     H58255   2.338   2.327  11.750  3.5221 -1.5974 -0.2783
  432MOL0     H58256   2.324   2.387  11.919  0.1344 -1.1717  0.8009
  432MOL0     H58257   2.373   2.105  11.823  1.0675 -1.8175  1.2193
  432MOL0     H58258   2.328   2.145  11.992 -1.3206 -1.6412 -1.9909
  432MOL0     H58259   2.556   2.265  12.020  1.1093 -1.1199 -0.5689
  432MOL0     H58260   2.547   2.295  11.851 -4.0259  3.2378  1.4487
  432MOL0     H58261   2.574   2.014  11.965  0.3841  1.6048  1.2174
  432MOL0     H58262   2.621   2.049  11.809  0.3714 -0.0388 -0.0238
  432MOL0     H58263   2.786   2.189  12.028 -0.4761 -0.2723  0.2865
  432MOL0     H58264   2.807   2.022  12.005  0.2998 -0.9715 -0.4383
  432MOL0     H58265   2.870   2.048  11.784  0.9879 -0.1914  2.7318
  432MOL0     H58266   2.806   2.220  11.775 -1.6676 -2.2506 -2.4022
  432MOL0     H58267   3.014   2.121  11.982  5.0810  1.1618 -0.7831
  432MOL0     H58268   2.970   2.287  11.956  1.9287  0.0469 -0.8508
  432MOL0     H58269   3.074   2.288  11.740 -1.7072  0.8344  1.4781
  432MOL0     H58270   3.185   2.263  11.881  0.6562 -2.3086  1.2480
  432MOL0     H58271   3.038   2.092  11.574 -1.7073 -6.1336 -3.2232
  432MOL0     H58272   3.265   1.785  11.497  0.6364  1.7021  2.8901
  432MOL0     H58273   3.112   1.846  11.438  1.6563 -0.2930 -1.7798
  432MOL0     H58274   3.244   2.065  11.377  1.5618  1.1588  2.7736
  432MOL0     H58275   3.382   1.985  11.437  0.0477 -0.9902  1.8892
  432MOL0     H58276   3.348   1.800  11.252  4.6171  0.3698  0.9170
  432MOL0     H58277   3.430   1.943  11.212 -0.1171 -0.4706 -2.1756
  432MOL0     H58278   3.148   1.879  11.135  0.6765  0.6821  2.2204
  432MOL0     H58279   3.286   1.899  11.033 -1.9507 -2.6453 -0.2723
  432MOL0     H58280   3.003   1.974  11.244  4.2653 -0.6093  1.5699
  432MOL0     H58281   2.819   2.114  11.327 -1.0914  1.7096 -1.0079
  432MOL0     H58282   2.574   2.406  11.571 -1.3224 -0.1041 -0.0545
  432MOL0     H58283   2.446   2.597  11.678 -1.0993  2.6543 -0.6731
  432MOL0     H58284   2.494   2.980  11.571 -1.0920  2.7298  0.7413
  432MOL0     H58285   2.381   2.946  11.456  1.9423  2.8484  0.1466
  432MOL0     H58286   2.314   3.024  11.760  1.9306 -1.5459  0.4033
  432MOL0     H58287   2.281   3.112  11.611 -1.1226  0.3625 -1.4217
  432MOL0     H58288   2.118   2.981  11.538 -0.0177 -0.6812 -0.8187
  432MOL0     H58289   2.135   2.849  11.657  0.3132 -0.5738  0.4841
  432MOL0     H58290   2.068   3.137  11.732 -1.6333  0.5371  0.3600
  432MOL0     H58291   2.081   2.984  11.836  1.2852  0.9446  1.0698
  432MOL0     H58292   1.832   3.037  11.796  1.2613 -0.8234  0.9661
  432MOL0     H58293   1.900   2.880  11.739  0.7471 -0.2289 -0.4317
  432MOL0     H58294   1.898   2.970  11.506  0.3657 -0.7737 -0.9891
  432MOL0     H58295   1.747   2.963  11.573  1.4689 -1.8301 -1.4841
  432MOL0     H58296   1.925   3.207  11.555 -1.8848  3.2721  1.5290
  432MOL0     H58297   1.790   3.216  11.660 -0.4324 -2.1674  1.4396
  432MOL0     H58298   1.750   3.141  11.370  1.3236  2.3787 -1.8590
  432MOL0     H58299   1.624   3.186  11.486 -0.0865 -2.4694  0.0223
  432MOL0     H58300   2.521   2.840  11.361 -1.9738 -0.3376 -1.1643
  432MOL0     H58301   2.678   2.702  11.255  0.9743 -0.8767 -0.2551
  432MOL0     H58302   3.046   2.463  11.281  0.2818  0.6918 -3.7749
  432MOL0     H58303   3.213   2.343  11.167 -1.0361  0.0337 -1.6919
  432MOL0     H58304   1.929   2.228  11.859 -0.0949 -0.2354 -2.9958
  432MOL0     H58305   1.740   2.346  11.744 -0.6944  0.9307 -1.1539
  432MOL0     H58306   1.715   2.731  11.274 -2.1137 -2.7867  0.5659
  432MOL0     H58307   1.526   2.892  11.213 -1.7264 -2.3575 -0.4072
  432MOL0     H58308   1.250   3.047  11.533  0.3814  2.2420 -1.7224
  432MOL0     H58309   1.208   2.875  11.474  0.6832 -1.2860 -3.2186
  432MOL0     H58310   1.076   2.978  11.287 -2.0281 -0.6729  0.1908
  432MOL0     H58311   1.098   3.130  11.377 -1.0161 -0.6705 -0.8597
  432MOL0     H58312   0.990   2.867  11.492  0.8100  0.7443  0.6648
  432MOL0     H58313   0.880   2.992  11.428  1.4843 -0.4298 -2.6883
  432MOL0     H58314   1.044   3.004  11.681 -0.0953 -0.1325 -0.6729
  432MOL0     H58315   0.977   3.149  11.597 -1.2593  0.5331 -0.5653
  432MOL0     H58316   0.635   3.033  11.790 -0.1858  1.4435 -0.1574
  432MOL0     H58317   1.385   2.894  11.607 -2.7537 -0.6527 -1.8140
  432MOL0     H58318   1.656   2.754  11.769 -0.1440  1.7813 -0.2476
  432MOL0     H58319   1.480   2.799  11.783 -0.1435  0.1886  0.1097
  432MOL0     H58320   1.517   2.642  11.746 -1.3214  1.2229 -1.0375
  433MOL0     O58321   3.116   4.221  10.146  0.0594  0.0669 -0.4169
  433MOL0     C58322   3.230   4.271  10.167 -0.3508  1.2478  0.4359
  433MOL0     O58323   3.337   4.254  10.080  0.4488 -0.0262 -0.3798
  433MOL0     C58324   3.342   4.161   9.981  0.3722  0.0069 -0.6571
  433MOL0     C58325   3.443   4.176   9.892 -0.2632 -0.1356  0.5350
  433MOL0     C58326   3.462   4.094   9.783  0.0743  0.0393  0.3717
  433MOL0     C58327   3.378   3.978   9.766 -0.5505  0.4056  0.4467
  433MOL0     O58328   3.403   3.889   9.669  0.4528 -0.0897  0.3556
  433MOL0     C58329   3.368   3.930   9.530  0.4663  0.0718  0.1823
  433MOL0     C58330   3.311   3.813   9.451  0.1455 -0.2507 -0.2606
  433MOL0     C58331   3.219   3.715   9.518  0.3403  0.4998  0.4207
  433MOL0     C58332   3.164   3.595   9.437 -0.4703  0.7902 -0.9965
  433MOL0     C58333   3.051   3.520   9.509 -0.5001  0.1002  0.1240
  433MOL0     C58334   3.096   3.464   9.645 -0.7779 -0.1505  0.2426
  433MOL0     C58335   3.228   3.369   9.631  0.4900 -0.4548  0.3773
  433MOL0     C58336   3.283   3.336   9.772 -0.1069  0.4627 -0.3795
  433MOL0     N58337   3.182   3.301   9.872 -0.0180  0.2452 -0.2706
  433MOL0     C58338   3.148   3.177   9.908 -0.3901  0.4934 -0.2440
  433MOL0     C58339   3.066   3.187  10.021  0.5279  0.4226 -0.3474
  433MOL0     C58340   2.983   3.086  10.109  0.0820  0.0278  0.0700
  433MOL0     C58341   2.974   3.126  10.258  1.1748  0.2995 -0.4281
  433MOL0     C58342   2.856   3.052  10.319 -0.6170  0.4495  0.3749
  433MOL0     C58343   2.887   2.904  10.344  0.8062 -0.2037  0.0471
  433MOL0     O58344   2.862   2.822  10.232  0.3796 -0.5452  0.4983
  433MOL0     C58345   2.741   2.829  10.170  0.2305  0.0996 -0.0411
  433MOL0     C58346   2.628   2.828  10.244  0.7303  0.2199 -0.2802
  433MOL0     C58347   2.503   2.808  10.187 -1.5872  0.2302 -0.0068
  433MOL0     C58348   2.486   2.786  10.054 -0.1658 -0.6762  0.8362
  433MOL0     C58349   2.351   2.770  10.005  0.4571  0.0307  0.4169
  433MOL0     O58350   2.261   2.828  10.084 -0.3078  0.3110  0.0530
  433MOL0     C58351   2.127   2.803  10.056 -0.3077 -1.2030  0.3886
  433MOL0     C58352   2.054   2.893   9.978 -0.2736  0.0962 -0.3212
  433MOL0     C58353   1.921   2.863   9.949 -0.2689 -1.2183  0.0274
  433MOL0     C58354   1.868   2.738   9.975 -0.6173 -0.4700  0.1099
  433MOL0     O58355   1.758   2.694   9.916  0.4382  0.0700  0.2100
  433MOL0     C58356   1.644   2.780   9.901 -0.5072  0.0570  0.1637
  433MOL0     C58357   1.552   2.723   9.795 -0.2366  0.4639  0.6617
  433MOL0     C58358   1.415   2.793   9.780 -0.1425 -0.1697 -0.2677
  433MOL0     C58359   1.424   2.897   9.686  0.9814 -1.3776  0.3018
  433MOL0     C58360   1.285   2.962   9.659  0.3589  0.4782  0.1606
  433MOL0     C58361   1.303   3.084   9.557 -0.2939 -0.2653 -0.1693
  433MOL0     C58362   1.196   3.200   9.579  0.8358 -0.2169  0.1933
  433MOL0     C58363   1.212   3.314   9.479  0.0118  0.0013  0.2323
  433MOL0    Cl58364   1.385   3.363   9.465  0.1459  0.0685  0.6388
  433MOL0     C58365   1.941   2.655  10.053  0.1079  0.1098 -0.6362
  433MOL0     C58366   2.072   2.683  10.093  0.6751 -1.0080 -0.3966
  433MOL0     O58367   2.336   2.700   9.900  1.1853  0.3503  0.1005
  433MOL0     C58368   2.602   2.770   9.975  0.5292  0.4557  0.3541
  433MOL0     C58369   2.729   2.796  10.031 -0.0797  0.6290 -0.2948
  433MOL0     N58370   3.049   3.323  10.036 -0.5221 -0.3517 -0.3590
  433MOL0     N58371   3.126   3.388   9.960 -0.7711 -0.4763  0.7728
  433MOL0     C58372   3.285   3.949   9.872  0.9351  0.6569  0.0396
  433MOL0     C58373   3.260   4.046   9.968  0.7961 -0.3729  0.2052
  433MOL0     C58374   3.252   4.370  10.277  0.8599  0.6153  0.6202
  433MOL0     C58375   3.358   4.463  10.267 -0.6741 -0.5890 -0.0853
  433MOL0     C58376   3.381   4.552  10.368 -0.3496 -0.2327  0.1914
  433MOL0     C58377   3.297   4.559  10.477 -0.4443  0.0695  0.6112
  433MOL0     O58378   3.340   4.640  10.583  0.3767  0.6176 -0.9418
  433MOL0     C58379   3.337   4.778  10.568 -0.4696  0.2003 -0.3834
  433MOL0     C58380   3.208   4.818  10.664  0.6020 -0.6171  0.7113
  433MOL0     C58381   3.220   4.807  10.818  0.6339 -0.0042 -0.6293
  433MOL0     C58382   3.092   4.834  10.900 -0.4078 -1.3567 -0.2289
  433MOL0     C58383   3.105   4.817  11.041 -0.5658 -0.1089  0.0241
  433MOL0     C58384   3.120   4.806  11.158 -0.3948 -0.0135 -0.3422
  433MOL0     C58385   3.187   4.473  10.485  0.2892 -0.5086  0.8430
  433MOL0     C58386   3.171   4.379  10.391 -0.2003  0.0821  0.6299
  433MOL0     C58387   3.072   4.276  10.423  0.0367  0.2796 -0.1975
  433MOL0     H58388   3.508   4.262   9.883 -0.2256 -0.3530 -2.1167
  433MOL0     H58389   3.544   4.113   9.715  1.0134  0.5961  1.6207
  433MOL0     H58390   3.297   4.013   9.542  2.8830  2.4684 -0.8607
  433MOL0     H58391   3.457   3.963   9.476  0.0430  0.5777 -0.2158
  433MOL0     H58392   3.398   3.754   9.420  1.1886 -0.5687  2.9265
  433MOL0     H58393   3.246   3.851   9.371 -1.8862 -1.1658  0.8890
  433MOL0     H58394   3.131   3.762   9.563  0.7847  0.0238  1.8403
  433MOL0     H58395   3.272   3.669   9.603  0.2410  1.1537  0.8401
  433MOL0     H58396   3.120   3.623   9.341  2.4555  4.7062 -1.4656
  433MOL0     H58397   3.250   3.532   9.416 -0.8067 -0.0626  0.0847
  433MOL0     H58398   2.972   3.590   9.538  1.4596  2.2334  0.6228
  433MOL0     H58399   3.007   3.441   9.447  1.7036 -3.1559  2.3766
  433MOL0     H58400   3.113   3.548   9.712 -2.6286  0.2854  0.2383
  433MOL0     H58401   3.008   3.407   9.677 -1.4288  0.5876 -0.1769
  433MOL0     H58402   3.303   3.419   9.569 -1.4832 -0.0879 -1.8363
  433MOL0     H58403   3.211   3.275   9.578 -0.0359  0.9667 -2.1145
  433MOL0     H58404   3.358   3.259   9.754  1.0503  1.6628 -0.8946
  433MOL0     H58405   3.328   3.428   9.812 -0.9606  0.3972  0.8096
  433MOL0     H58406   3.178   3.084   9.861 -0.6022 -0.0337  0.6347
  433MOL0     H58407   2.892   3.052  10.059  1.4209 -2.8134 -0.6161
  433MOL0     H58408   3.042   2.994  10.110 -4.7796 -3.5397 -2.2944
  433MOL0     H58409   3.068   3.090  10.300  1.2774 -0.7562 -1.4933
  433MOL0     H58410   2.957   3.234  10.261 -0.0317  0.0979  2.9213
  433MOL0     H58411   2.768   3.060  10.255  0.1980  0.6231 -0.7587
  433MOL0     H58412   2.851   3.091  10.421  0.1228  0.6043  0.3536
  433MOL0     H58413   2.827   2.875  10.431 -0.7671 -3.1954 -1.8485
  433MOL0     H58414   2.990   2.891  10.381  0.5825 -1.2590  0.3337
  433MOL0     H58415   2.635   2.835  10.352  1.1804  0.6718 -0.3359
  433MOL0     H58416   2.424   2.806  10.261 -1.3334  1.2662  0.3169
  433MOL0     H58417   2.081   2.991   9.941 -2.4418 -0.2439 -3.1727
  433MOL0     H58418   1.867   2.943   9.898 -0.2059  0.7355  2.8024
  433MOL0     H58419   1.597   2.783  10.000  1.9218 -0.4305  1.3899
  433MOL0     H58420   1.666   2.885   9.880  1.0068 -0.1514  0.6325
  433MOL0     H58421   1.602   2.717   9.698  0.8922  0.4581  1.2283
  433MOL0     H58422   1.532   2.618   9.816  4.3639 -0.8924 -0.5394
  433MOL0     H58423   1.353   2.715   9.736  0.7671 -0.3537 -1.2474
  433MOL0     H58424   1.383   2.829   9.879  1.5634 -1.6046  0.8616
  433MOL0     H58425   1.473   2.856   9.597  0.6175 -0.9099 -0.1202
  433MOL0     H58426   1.494   2.975   9.719  1.6568 -1.7682 -0.1931
  433MOL0     H58427   1.243   3.000   9.753 -1.1136 -0.0715 -0.2594
  433MOL0     H58428   1.218   2.881   9.630 -1.9860  0.1950  5.3191
  433MOL0     H58429   1.404   3.122   9.575 -0.3146  0.4906 -1.4916
  433MOL0     H58430   1.292   3.057   9.451 -2.3147  3.4592 -1.0922
  433MOL0     H58431   1.219   3.252   9.673 -1.7478  2.1161 -0.3423
  433MOL0     H58432   1.091   3.169   9.576  0.7604  0.0835 -1.5788
  433MOL0     H58433   1.178   3.279   9.381  1.3537  0.2077 -0.3281
  433MOL0     H58434   1.146   3.396   9.510 -0.8965 -0.0882 -1.3755
  433MOL0     H58435   1.899   2.559  10.081 -1.4795  0.6276 -1.1070
  433MOL0     H58436   2.131   2.616  10.154  2.6870  1.5534  0.6748
  433MOL0     H58437   2.582   2.732   9.875  1.4575  1.6218 -0.2910
  433MOL0     H58438   2.816   2.795   9.967 -1.9967 -0.0140 -3.0352
  433MOL0     H58439   3.224   3.859   9.872  1.4902  0.2403 -2.0288
  433MOL0     H58440   3.171   4.030  10.028  0.7281 -0.4624  0.0832
  433MOL0     H58441   3.433   4.455  10.188 -0.5032  5.4467 -1.0284
  433MOL0     H58442   3.469   4.613  10.381  1.1810 -2.8100  3.5682
  433MOL0     H58443   3.319   4.806  10.464 -2.1885  0.5571 -0.0241
  433MOL0     H58444   3.428   4.832  10.594 -1.3414  1.5578 -0.0282
  433MOL0     H58445   3.121   4.758  10.639 -2.3929  3.3140  0.7979
  433MOL0     H58446   3.183   4.920  10.634 -1.3065 -1.1409  0.4101
  433MOL0     H58447   3.299   4.879  10.843  0.3375 -0.1103  0.6910
  433MOL0     H58448   3.270   4.713  10.846  0.2561 -1.4106 -4.1679
  433MOL0     H58449   3.059   4.935  10.875  1.7642 -0.1697  1.3081
  433MOL0     H58450   3.004   4.778  10.869 -3.2128  2.9558 -0.8609
  433MOL0     H58451   3.140   4.784  11.261  0.1163 -1.1665 -0.6715
  433MOL0     H58452   3.120   4.479  10.570  0.7806  1.2123  1.1634
  433MOL0     H58453   3.085   4.240  10.526 -0.0009  1.8445  0.3735
  433MOL0     H58454   2.974   4.325  10.425  0.7883  1.9028 -1.6868
  433MOL0     H58455   3.064   4.187  10.359 -0.1370 -2.7775  3.6426
  434MOL0     O58456   6.608   2.342   5.618  0.2204  0.6498 -0.2492
  434MOL0     C58457   6.516   2.299   5.551 -0.8085  0.2456 -0.4910
  434MOL0     O58458   6.415   2.372   5.506  0.1379 -0.1932  0.5659
  434MOL0     C58459   6.408   2.503   5.542  0.5084  0.1265 -0.1990
  434MOL0     C58460   6.425   2.540   5.676  0.2686  0.0139 -0.9115
  434MOL0     C58461   6.424   2.683   5.706 -0.6839 -0.3662 -0.0441
  434MOL0     C58462   6.390   2.789   5.614 -0.2404  0.4583  0.4051
  434MOL0     O58463   6.376   2.921   5.647  0.3474  0.1186 -0.0215
  434MOL0     C58464   6.478   2.982   5.724 -0.6740  0.1325  0.1510
  434MOL0     C58465   6.593   3.026   5.631  0.1230 -0.7197  0.5136
  434MOL0     C58466   6.547   3.157   5.562  0.3616  0.1984 -0.1299
  434MOL0     C58467   6.652   3.207   5.462  0.0310  0.6306  1.6607
  434MOL0     C58468   6.589   3.325   5.383 -0.2615  0.3966 -0.1646
  434MOL0     C58469   6.692   3.390   5.280 -1.3275 -0.1354 -0.0480
  434MOL0     C58470   6.643   3.528   5.244 -0.7900  0.3436  0.6597
  434MOL0     C58471   6.735   3.598   5.131  0.6095  0.2018  0.9607
  434MOL0     N58472   6.696   3.739   5.109  0.3863  0.0345  0.8993
  434MOL0     C58473   6.582   3.770   5.041  0.0302 -0.0055 -0.4241
  434MOL0     C58474   6.584   3.899   5.052  0.0363 -0.3510 -0.0840
  434MOL0     C58475   6.476   3.987   4.985 -0.6444  0.1761  1.3003
  434MOL0     C58476   6.520   4.023   4.842 -0.5247 -1.0614 -0.6217
  434MOL0     C58477   6.482   4.174   4.814 -0.2681 -0.5576 -0.0100
  434MOL0     C58478   6.336   4.206   4.829  0.9977  0.4553  0.7723
  434MOL0     O58479   6.316   4.346   4.781  0.3739  0.1478 -0.6190
  434MOL0     C58480   6.297   4.342   4.648  0.9738 -0.2659 -0.3880
  434MOL0     C58481   6.177   4.283   4.602  0.0520 -0.5943  0.2594
  434MOL0     C58482   6.151   4.281   4.465  0.0450 -0.1032  0.0004
  434MOL0     C58483   6.247   4.320   4.370 -0.5838  0.4856  0.2738
  434MOL0     C58484   6.213   4.311   4.225 -0.2813  0.8992 -0.7062
  434MOL0     O58485   6.087   4.260   4.189 -0.2991  0.4939 -0.4862
  434MOL0     C58486   6.064   4.243   4.052 -0.4722  0.1876  0.1569
  434MOL0     C58487   6.161   4.170   3.973  0.0862 -0.1820  0.2231
  434MOL0     C58488   6.129   4.138   3.841 -0.3779 -0.1628 -0.1635
  434MOL0     C58489   6.010   4.180   3.782  0.2921 -0.0214 -0.9900
  434MOL0     O58490   5.981   4.139   3.654  0.1533 -0.0067  0.4841
  434MOL0     C58491   5.846   4.128   3.609 -0.3971 -0.1758  0.7691
  434MOL0     C58492   5.842   4.035   3.486 -0.4944 -1.2018 -0.0748
  434MOL0     C58493   5.718   3.950   3.462  0.9266 -0.9408 -1.1569
  434MOL0     C58494   5.694   3.848   3.572 -0.0124  0.9615  0.0093
  434MOL0     C58495   5.546   3.800   3.570  0.0234  1.3816  0.7642
  434MOL0     C58496   5.538   3.696   3.687  0.5404  0.5635  0.2388
  434MOL0     C58497   5.398   3.625   3.703  1.3361  0.1111 -0.0725
  434MOL0     C58498   5.407   3.499   3.789 -0.2965  0.7083  0.0196
  434MOL0    Cl58499   5.468   3.540   3.953  0.0304  0.2056 -0.2612
  434MOL0     C58500   5.922   4.250   3.862  0.8901 -0.2831 -0.1325
  434MOL0     C58501   5.948   4.280   3.998  0.6167 -0.0302  0.5221
  434MOL0     O58502   6.303   4.349   4.152  0.3102 -0.3015  0.0030
  434MOL0     C58503   6.374   4.366   4.418 -0.5534  0.3979  0.9454
  434MOL0     C58504   6.399   4.372   4.558  0.5256 -0.6932 -0.0161
  434MOL0     N58505   6.692   3.943   5.127 -0.7500 -0.5140  0.5093
  434MOL0     N58506   6.760   3.841   5.162 -0.3430 -0.1778 -0.2129
  434MOL0     C58507   6.367   2.748   5.484  0.3500 -0.0530 -0.2443
  434MOL0     C58508   6.384   2.611   5.444 -0.2158  0.1226 -0.3123
  434MOL0     C58509   6.527   2.162   5.493  0.5537 -0.4245 -0.7018
  434MOL0     C58510   6.450   2.139   5.372  0.4068  0.6452  0.4175
  434MOL0     C58511   6.470   2.024   5.302  0.7030 -0.1544 -0.2704
  434MOL0     C58512   6.543   1.922   5.353 -0.0084  0.7124  0.5074
  434MOL0     O58513   6.549   1.793   5.297  0.0321  0.0072 -0.0585
  434MOL0     C58514   6.494   1.753   5.178 -0.5986  0.2416 -0.7952
  434MOL0     C58515   6.571   1.802   5.057  0.4976  0.4436 -1.4672
  434MOL0     C58516   6.704   1.732   5.043 -0.8046  0.0384 -0.9026
  434MOL0     C58517   6.698   1.578   5.017  0.9377 -0.4481 -0.4870
  434MOL0     C58518   6.824   1.539   4.962 -0.3261  0.2651 -0.6094
  434MOL0     C58519   6.921   1.493   4.908  0.0768 -0.4812  0.3351
  434MOL0     C58520   6.601   1.935   5.482  0.1007  0.4830 -0.4571
  434MOL0     C58521   6.596   2.055   5.557  1.1245 -0.1431 -0.3745
  434MOL0     C58522   6.647   2.075   5.697 -0.3924 -0.4122 -0.8924
  434MOL0     H58523   6.436   2.469   5.757 -1.7477  1.0202  0.2921
  434MOL0     H58524   6.455   2.706   5.807 -0.0120 -0.7007 -0.1662
  434MOL0     H58525   6.433   3.067   5.776 -0.8281  0.7844 -1.0196
  434MOL0     H58526   6.520   2.916   5.801 -2.7225 -1.6733 -0.1623
  434MOL0     H58527   6.612   2.963   5.544 -1.5204  1.4497 -1.5709
  434MOL0     H58528   6.681   3.049   5.692 -0.2554  1.8951  0.2061
  434MOL0     H58529   6.541   3.228   5.645 -3.3959  0.0091 -0.0816
  434MOL0     H58530   6.447   3.132   5.526  0.7810 -0.9950 -0.5240
  434MOL0     H58531   6.744   3.233   5.515  1.5352  0.7867 -0.8753
  434MOL0     H58532   6.672   3.122   5.396  1.9355  0.4410  2.4284
  434MOL0     H58533   6.511   3.288   5.316  1.8893  0.1938 -2.7312
  434MOL0     H58534   6.548   3.402   5.449 -0.1509 -1.2507  1.9349
  434MOL0     H58535   6.793   3.391   5.322 -1.1722 -0.7957 -0.3823
  434MOL0     H58536   6.705   3.334   5.187  0.1443  4.8569 -3.2588
  434MOL0     H58537   6.645   3.594   5.331  1.1588  1.8837 -0.4785
  434MOL0     H58538   6.539   3.519   5.210 -0.5176 -2.6204  0.3225
  434MOL0     H58539   6.840   3.612   5.160  0.9105  0.0379 -0.0245
  434MOL0     H58540   6.733   3.536   5.041 -0.0201  2.1831 -0.4372
  434MOL0     H58541   6.521   3.698   4.988  0.8448 -1.5188  0.5974
  434MOL0     H58542   6.382   3.933   4.968 -0.1460  0.1843 -2.1330
  434MOL0     H58543   6.471   4.073   5.053  1.9085  2.3804 -1.1069
  434MOL0     H58544   6.629   4.015   4.848 -0.4318  0.6874  2.0288
  434MOL0     H58545   6.480   3.946   4.775 -0.3640 -0.6049 -1.2558
  434MOL0     H58546   6.513   4.180   4.709 -1.6186 -0.2744 -0.4111
  434MOL0     H58547   6.538   4.246   4.873 -0.0293  1.0899 -2.1291
  434MOL0     H58548   6.303   4.211   4.932  2.0401  1.4860  1.0889
  434MOL0     H58549   6.281   4.131   4.772  0.4293  1.3046  0.1868
  434MOL0     H58550   6.107   4.259   4.681  0.3533  3.9972  2.2297
  434MOL0     H58551   6.048   4.248   4.456 -0.9779  1.6352  3.4363
  434MOL0     H58552   6.260   4.153   4.013  0.7580  4.4501  1.0241
  434MOL0     H58553   6.195   4.082   3.775 -0.1337 -3.6819  2.7480
  434MOL0     H58554   5.779   4.096   3.690 -2.0343  2.2406  0.4740
  434MOL0     H58555   5.820   4.229   3.577  0.0759 -0.8915 -2.1298
  434MOL0     H58556   5.846   4.101   3.399  1.1154  0.7835  1.4005
  434MOL0     H58557   5.917   3.955   3.491 -1.9396 -2.5512  3.2152
  434MOL0     H58558   5.632   4.017   3.460 -0.6156 -2.6041  2.2087
  434MOL0     H58559   5.729   3.896   3.368 -0.3913  0.6022 -2.2662
  434MOL0     H58560   5.708   3.893   3.670  3.6350  0.2151 -0.0294
  434MOL0     H58561   5.760   3.762   3.557  0.8383  1.1116  2.5377
  434MOL0     H58562   5.545   3.741   3.477 -0.9520  0.4354  1.3499
  434MOL0     H58563   5.459   3.867   3.566 -1.3948 -0.4132 -0.2221
  434MOL0     H58564   5.612   3.617   3.676  0.4749  0.6579 -1.0459
  434MOL0     H58565   5.557   3.743   3.784  0.9709 -0.2897  0.5789
  434MOL0     H58566   5.369   3.582   3.607  0.4320  3.5845 -1.4844
  434MOL0     H58567   5.324   3.700   3.730  0.2080 -1.3204  0.9346
  434MOL0     H58568   5.308   3.454   3.798  0.0906 -0.1005  0.3066
  434MOL0     H58569   5.466   3.423   3.738 -2.1295 -1.2229  0.6645
  434MOL0     H58570   5.841   4.310   3.823  3.4573  4.2507  0.7629
  434MOL0     H58571   5.882   4.335   4.064  1.0672  1.9175 -0.5777
  434MOL0     H58572   6.448   4.398   4.346  0.0689 -2.8189  0.0151
  434MOL0     H58573   6.495   4.411   4.592 -0.6299  1.7510  0.6905
  434MOL0     H58574   6.344   2.824   5.411 -0.3597  0.1185  0.1496
  434MOL0     H58575   6.375   2.591   5.338  0.6289 -0.3957 -0.3003
  434MOL0     H58576   6.397   2.217   5.319  0.8138  0.4937 -0.2178
  434MOL0     H58577   6.430   2.012   5.202 -0.5634 -1.3630  0.3485
  434MOL0     H58578   6.392   1.791   5.170 -0.4026  0.6651 -1.3235
  434MOL0     H58579   6.497   1.644   5.167  0.9361  0.2678 -0.8373
  434MOL0     H58580   6.583   1.910   5.060 -1.3933  0.6590  1.2555
  434MOL0     H58581   6.514   1.786   4.965  0.3698  0.9523 -1.4816
  434MOL0     H58582   6.750   1.752   5.140 -1.5437  1.7260 -0.8704
  434MOL0     H58583   6.775   1.780   4.976  0.1321 -0.3576 -0.2219
  434MOL0     H58584   6.665   1.543   5.116  1.1936 -3.6083 -1.3855
  434MOL0     H58585   6.617   1.563   4.945  0.3786 -0.1973  0.0841
  434MOL0     H58586   7.006   1.443   4.866 -0.4916  0.8653 -2.6798
  434MOL0     H58587   6.664   1.852   5.513  0.7704  0.4264 -1.8613
  434MOL0     H58588   6.567   2.113   5.762  1.1384 -2.1155  2.1986
  434MOL0     H58589   6.668   1.978   5.743  0.4192  0.3443  0.3995
  434MOL0     H58590   6.735   2.140   5.701  2.8918 -4.5312 -0.0443
  435MOL0     O58591   8.947   9.597   9.910 -0.4290 -0.4569  1.3402
  435MOL0     C58592   9.021   9.621   9.805  0.2393  0.1879  0.6861
  435MOL0     O58593   8.973   9.683   9.692 -0.6460 -0.7614  0.1427
  435MOL0     C58594   8.857   9.755   9.707  0.2417  0.3524 -0.1639
  435MOL0     C58595   8.857   9.896   9.684  0.7441 -0.0542  0.3129
  435MOL0     C58596   8.741   9.978   9.686  0.2003  0.2643  0.6813
  435MOL0     C58597   8.613   9.925   9.704 -0.3789  0.0756  0.4646
  435MOL0     O58598   8.494   9.988   9.689  0.1517 -0.4510  0.3774
  435MOL0     C58599   8.496  10.113   9.621 -0.6864  1.1656  0.0208
  435MOL0     C58600   8.517  10.100   9.463 -0.0704 -0.0580  0.0575
  435MOL0     C58601   8.460   9.969   9.403  0.2524  0.8920 -0.0589
  435MOL0     C58602   8.439   9.979   9.258  0.3255 -0.1926  0.1731
  435MOL0     C58603   8.543   9.905   9.164  0.3443 -0.1851 -0.4728
  435MOL0     C58604   8.529   9.753   9.161 -0.6504  0.0426  0.5060
  435MOL0     C58605   8.453   9.709   9.035 -0.4672 -0.3904 -0.3152
  435MOL0     C58606   8.535   9.742   8.906 -0.6977 -0.9372  0.6022
  435MOL0     N58607   8.487   9.671   8.783  0.1105  0.7096 -0.1577
  435MOL0     C58608   8.510   9.538   8.749 -0.2895  0.0864  0.2652
  435MOL0     C58609   8.469   9.521   8.626 -0.1658 -0.1634  0.4589
  435MOL0     C58610   8.468   9.391   8.547 -0.2320  1.0799 -0.2636
  435MOL0     C58611   8.426   9.261   8.631 -0.4695  0.1794 -0.5780
  435MOL0     C58612   8.416   9.140   8.535  0.6024 -0.0057 -0.3060
  435MOL0     C58613   8.547   9.098   8.468 -0.1195 -0.3983  0.0034
  435MOL0     O58614   8.544   8.993   8.376 -0.2239  0.3370  0.9201
  435MOL0     C58615   8.477   9.006   8.253 -0.0553  0.1704 -0.2159
  435MOL0     C58616   8.477   8.893   8.176  0.5409  0.1318 -0.3583
  435MOL0     C58617   8.424   8.881   8.051  0.5973  0.1963 -0.4786
  435MOL0     C58618   8.382   9.003   7.985  0.0989 -0.6526  0.3522
  435MOL0     C58619   8.315   8.998   7.857  0.2256  0.0094  0.3533
  435MOL0     O58620   8.312   8.872   7.809  0.3952 -0.8754 -0.3471
  435MOL0     C58621   8.264   8.852   7.682 -0.0054  1.1831 -0.0559
  435MOL0     C58622   8.308   8.927   7.568  0.4833  0.0413 -0.6269
  435MOL0     C58623   8.264   8.890   7.440  0.7202 -0.1551  0.3014
  435MOL0     C58624   8.173   8.777   7.427 -0.8229  0.4588  0.6669
  435MOL0     O58625   8.123   8.730   7.308 -0.5964  0.5355  0.4125
  435MOL0     C58626   8.177   8.786   7.187  0.0944  0.0782 -0.1039
  435MOL0     C58627   8.134   8.719   7.064 -0.5110 -0.4745 -0.1697
  435MOL0     C58628   8.210   8.792   6.952 -1.6038  0.2989  0.3754
  435MOL0     C58629   8.188   8.694   6.825 -0.5269  0.0726 -0.1219
  435MOL0     C58630   8.202   8.782   6.706  0.3465 -0.0922  0.3327
  435MOL0     C58631   8.233   8.711   6.571  0.4280 -0.4871 -0.0865
  435MOL0     C58632   8.246   8.826   6.470  0.2056 -0.1564  0.7484
  435MOL0     C58633   8.329   8.790   6.347  0.9628  0.5956 -0.1850
  435MOL0    Cl58634   8.491   8.746   6.382 -0.0763 -0.2032 -0.0177
  435MOL0     C58635   8.134   8.705   7.538 -0.5852  0.3510  0.4274
  435MOL0     C58636   8.174   8.744   7.666  0.4012 -1.1369  0.3451
  435MOL0     O58637   8.265   9.101   7.800 -0.0482  0.3659 -0.2526
  435MOL0     C58638   8.395   9.120   8.060 -0.0567  0.5277 -0.1434
  435MOL0     C58639   8.438   9.121   8.202  0.9983 -0.4789 -0.2135
  435MOL0     N58640   8.425   9.642   8.574  0.2675 -0.0926 -0.2478
  435MOL0     N58641   8.437   9.728   8.666 -0.4231  0.3602 -0.0991
  435MOL0     C58642   8.613   9.790   9.733  0.6250 -0.1315  0.2156
  435MOL0     C58643   8.730   9.706   9.728 -0.4583  0.0465  0.1698
  435MOL0     C58644   9.152   9.558   9.776  0.0901 -0.7019 -0.0348
  435MOL0     C58645   9.201   9.529   9.645 -0.8150  0.3736 -0.5895
  435MOL0     C58646   9.325   9.468   9.627  0.3659  0.1274  0.0048
  435MOL0     C58647   9.397   9.431   9.732 -0.5397 -0.4131 -0.1011
  435MOL0     O58648   9.526   9.370   9.728  0.2851 -0.2759 -0.8738
  435MOL0     C58649   9.566   9.315   9.607  0.0017  0.3572 -0.6199
  435MOL0     C58650   9.701   9.234   9.610  0.0745 -0.2459 -0.5152
  435MOL0     C58651   9.711   9.145   9.746 -0.2106 -0.4513  0.4504
  435MOL0     C58652   9.852   9.083   9.754  0.3708 -0.2701  0.6040
  435MOL0     C58653   9.871   9.021   9.884  0.4447  0.2776  0.0590
  435MOL0     C58654   9.898   9.003   9.998  0.3249  0.9702 -1.0367
  435MOL0     C58655   9.357   9.465   9.857 -0.5022 -0.0703 -0.2646
  435MOL0     C58656   9.241   9.528   9.882  0.5163  0.7608  1.1457
  435MOL0     C58657   9.207   9.531  10.031  0.1071  0.3230  0.6677
  435MOL0     H58658   8.956   9.938   9.670  0.0551  1.6495  0.3013
  435MOL0     H58659   8.757  10.083   9.664  0.0079 -0.0179 -0.9863
  435MOL0     H58660   8.395  10.153   9.634 -0.5152  1.7025 -0.2702
  435MOL0     H58661   8.568  10.183   9.665  0.9728 -0.4485  0.0053
  435MOL0     H58662   8.626  10.103   9.452  0.1730 -2.6982  0.9776
  435MOL0     H58663   8.472  10.187   9.414  2.2358  1.3429  0.2669
  435MOL0     H58664   8.365   9.959   9.456  0.1918 -1.2375 -0.4586
  435MOL0     H58665   8.520   9.882   9.433 -1.2566  0.1990  1.0598
  435MOL0     H58666   8.341   9.934   9.239 -1.0778  1.8580  2.0026
  435MOL0     H58667   8.432  10.080   9.217  0.0950 -1.1372 -2.2477
  435MOL0     H58668   8.548   9.954   9.066 -2.7472 -0.1403 -0.7092
  435MOL0     H58669   8.635   9.933   9.215 -0.1654 -0.4951  0.6703
  435MOL0     H58670   8.629   9.712   9.145 -1.5736 -2.4774  0.6997
  435MOL0     H58671   8.494   9.727   9.262 -0.5442  1.7054  0.9939
  435MOL0     H58672   8.360   9.763   9.018 -0.4177 -0.6136 -1.3457
  435MOL0     H58673   8.448   9.600   9.046  0.6575 -0.5411 -1.1148
  435MOL0     H58674   8.514   9.848   8.890  0.1367 -0.6683  1.2346
  435MOL0     H58675   8.642   9.726   8.920 -0.3216  0.6462 -0.2830
  435MOL0     H58676   8.548   9.461   8.815 -0.8437  2.6946  3.9297
  435MOL0     H58677   8.395   9.409   8.467  1.0077 -1.9890 -2.2676
  435MOL0     H58678   8.568   9.384   8.502  0.1514 -0.0478  0.6962
  435MOL0     H58679   8.494   9.245   8.716 -0.2395 -1.7812 -1.0741
  435MOL0     H58680   8.326   9.260   8.676  0.6178 -2.0188  2.1182
  435MOL0     H58681   8.336   9.168   8.466 -1.5253 -1.3782  1.4818
  435MOL0     H58682   8.380   9.057   8.597 -0.7010 -1.0477 -2.3474
  435MOL0     H58683   8.613   9.050   8.541  1.6966 -1.4142 -2.1986
  435MOL0     H58684   8.609   9.184   8.440 -0.7521 -0.2087 -0.8550
  435MOL0     H58685   8.509   8.804   8.231  3.2183  0.4315 -1.3116
  435MOL0     H58686   8.425   8.785   8.000 -0.5114  0.1376 -0.4007
  435MOL0     H58687   8.389   8.999   7.570 -0.5213  1.1858  0.3340
  435MOL0     H58688   8.312   8.933   7.353 -0.3953 -1.1593 -0.8530
  435MOL0     H58689   8.153   8.892   7.191  1.8245  0.4850  2.8318
  435MOL0     H58690   8.283   8.762   7.199 -0.4670 -2.0176  1.3011
  435MOL0     H58691   8.162   8.614   7.077 -1.5759 -0.7173  0.2447
  435MOL0     H58692   8.030   8.720   7.033 -1.2279  1.9534  1.9474
  435MOL0     H58693   8.178   8.894   6.925 -2.9308 -0.5744 -1.5749
  435MOL0     H58694   8.318   8.798   6.963 -1.4856  0.5870 -0.7821
  435MOL0     H58695   8.092   8.643   6.835 -0.1835 -0.9763 -1.8178
  435MOL0     H58696   8.259   8.612   6.826 -2.3263 -1.5951 -1.4892
  435MOL0     H58697   8.287   8.850   6.723  1.1270 -0.2816 -2.3922
  435MOL0     H58698   8.115   8.844   6.683 -1.9254 -2.6633  1.5003
  435MOL0     H58699   8.331   8.663   6.578  0.9691  0.5519 -0.3140
  435MOL0     H58700   8.150   8.642   6.558 -1.7004  1.6085  1.4139
  435MOL0     H58701   8.308   8.906   6.513  1.4050  0.7523 -2.3998
  435MOL0     H58702   8.144   8.848   6.440  0.8883  1.0145 -0.8909
  435MOL0     H58703   8.283   8.701   6.303 -0.6519  0.5037  1.5660
  435MOL0     H58704   8.343   8.874   6.278 -0.8019  1.7022  0.7401
  435MOL0     H58705   8.071   8.617   7.534  0.7093 -0.5870  0.1663
  435MOL0     H58706   8.145   8.688   7.754  0.5419 -0.6572  0.6952
  435MOL0     H58707   8.359   9.210   8.011 -4.2778 -0.1578  1.2864
  435MOL0     H58708   8.441   9.211   8.262  0.7470 -1.8817  2.0231
  435MOL0     H58709   8.522   9.740   9.764  2.4092 -3.0413  1.1945
  435MOL0     H58710   8.734   9.601   9.754  0.6272  0.1736  0.5573
  435MOL0     H58711   9.129   9.534   9.564 -1.3492  1.5207 -0.0716
  435MOL0     H58712   9.368   9.452   9.529 -0.1335  0.4370 -0.2712
  435MOL0     H58713   9.569   9.393   9.530  1.3159  0.6989 -0.2509
  435MOL0     H58714   9.498   9.235   9.573  1.9722 -2.1348  0.9121
  435MOL0     H58715   9.787   9.302   9.607  0.9215 -1.2811 -0.6377
  435MOL0     H58716   9.702   9.169   9.522  0.7589 -0.5474 -0.2918
  435MOL0     H58717   9.638   9.065   9.757 -1.5262  0.5337 -0.7243
  435MOL0     H58718   9.702   9.221   9.825  0.8379  1.2347 -0.9759
  435MOL0     H58719   9.860   9.008   9.675  1.1181  1.3451 -0.9021
  435MOL0     H58720   9.936   9.150   9.739  0.3374 -0.5619 -1.0780
  435MOL0     H58721   9.940   9.007  10.096  0.5020  1.6310 -1.1374
  435MOL0     H58722   9.411   9.424   9.941 -2.5200 -2.6703 -0.0903
  435MOL0     H58723   9.183   9.626  10.078 -3.0921 -1.0450  2.0803
  435MOL0     H58724   9.122   9.465  10.049  1.5958 -2.2912 -1.1458
  435MOL0     H58725   9.288   9.488  10.091  0.1054  2.1376  2.0386
  436MOL0     O58726   5.008   7.995   5.664  0.3402  0.5029  0.0018
  436MOL0     C58727   4.994   8.067   5.757  0.0256  0.2924 -0.6806
  436MOL0     O58728   4.871   8.080   5.825 -0.3022 -0.5455  0.7001
  436MOL0     C58729   4.753   8.008   5.814  0.3947  0.2460  0.1499
  436MOL0     C58730   4.649   8.063   5.889 -0.3867  0.5128 -0.0547
  436MOL0     C58731   4.524   8.011   5.908 -0.2746  0.5061  0.6688
  436MOL0     C58732   4.497   7.877   5.866 -1.0025  0.9937  0.6074
  436MOL0     O58733   4.389   7.794   5.891  0.5267 -0.1067  0.2354
  436MOL0     C58734   4.307   7.828   6.000 -0.3563  0.4561 -0.5780
  436MOL0     C58735   4.370   7.771   6.132  0.6401  0.3428  0.4659
  436MOL0     C58736   4.299   7.825   6.253  0.2587 -0.5693  0.4537
  436MOL0     C58737   4.387   7.813   6.386 -0.3575 -0.0873  0.9121
  436MOL0     C58738   4.353   7.684   6.461  0.0533  1.2769 -0.4081
  436MOL0     C58739   4.440   7.660   6.591  0.4366 -0.2799  0.2131
  436MOL0     C58740   4.452   7.510   6.639  0.4320  0.4172 -0.7928
  436MOL0     C58741   4.426   7.499   6.791  0.3422 -0.3308  0.0323
  436MOL0     N58742   4.536   7.549   6.876 -0.8568 -1.4650  0.7061
  436MOL0     C58743   4.660   7.599   6.835  0.5144  0.4606 -0.4740
  436MOL0     C58744   4.705   7.676   6.934  0.2163 -0.9647  0.4029
  436MOL0     C58745   4.849   7.739   6.940  1.0688  0.1155  1.0524
  436MOL0     C58746   4.850   7.865   6.854  0.3574  0.6677  0.6403
  436MOL0     C58747   4.997   7.908   6.830  1.2394 -0.0894 -0.5668
  436MOL0     C58748   5.002   8.021   6.725 -0.1320  0.0706 -0.2550
  436MOL0     O58749   5.110   8.112   6.760 -0.2001 -0.3388 -0.0077
  436MOL0     C58750   5.245   8.076   6.742  0.1860  0.5028  0.1271
  436MOL0     C58751   5.340   8.164   6.785  0.3910 -0.1099 -1.1029
  436MOL0     C58752   5.474   8.142   6.762  1.0474 -0.0349 -0.4886
  436MOL0     C58753   5.519   8.049   6.669  0.3032  1.2143 -0.5396
  436MOL0     C58754   5.665   8.041   6.625  0.5451 -0.5633 -0.5650
  436MOL0     O58755   5.750   8.121   6.684  0.3524 -0.2209 -1.0378
  436MOL0     C58756   5.883   8.133   6.652 -0.2535  0.6601  0.8653
  436MOL0     C58757   5.977   8.024   6.654  0.7559 -0.6141 -0.1823
  436MOL0     C58758   6.109   8.055   6.643 -0.2018 -0.4950 -1.0561
  436MOL0     C58759   6.169   8.179   6.628 -0.5638  0.0258 -0.1037
  436MOL0     O58760   6.307   8.213   6.604 -0.6691  0.1845 -0.9363
  436MOL0     C58761   6.402   8.108   6.601  0.0748  0.1577  0.1805
  436MOL0     C58762   6.548   8.164   6.600 -0.4187  0.3130  0.6416
  436MOL0     C58763   6.605   8.125   6.467  0.0931  0.0880  0.3946
  436MOL0     C58764   6.739   8.178   6.445 -1.3085 -0.1718  0.8760
  436MOL0     C58765   6.800   8.129   6.306 -0.0120  0.3063 -0.3131
  436MOL0     C58766   6.950   8.146   6.316 -0.4468 -0.3122 -0.1187
  436MOL0     C58767   7.035   8.049   6.417 -0.4833 -0.8111  0.3154
  436MOL0     C58768   7.175   8.058   6.362 -1.3135  0.1428 -0.7680
  436MOL0    Cl58769   7.282   8.006   6.503 -0.5228 -0.0483  0.3604
  436MOL0     C58770   6.073   8.289   6.632  0.1832  0.3189 -0.0488
  436MOL0     C58771   5.934   8.262   6.638 -0.3096  0.5075  0.1525
  436MOL0     O58772   5.685   7.957   6.537 -0.4546  0.2716 -0.2652
  436MOL0     C58773   5.419   7.969   6.614  0.4516 -0.2549  0.4020
  436MOL0     C58774   5.284   7.984   6.653 -0.5793  0.3954  0.1894
  436MOL0     N58775   4.614   7.666   7.037 -0.3154  0.1348 -0.8714
  436MOL0     N58776   4.516   7.588   7.008 -0.3430 -0.1300 -0.0133
  436MOL0     C58777   4.599   7.821   5.781  0.5715  0.1374  0.4271
  436MOL0     C58778   4.723   7.886   5.755 -0.3859  0.1256  0.2686
  436MOL0     C58779   5.103   8.145   5.811  0.1647  0.2474  0.4580
  436MOL0     C58780   5.067   8.263   5.877  0.6298  0.4550 -0.1388
  436MOL0     C58781   5.157   8.342   5.942 -0.3552 -1.1127  0.2986
  436MOL0     C58782   5.295   8.307   5.942  0.1017  0.9774  0.2685
  436MOL0     O58783   5.400   8.388   5.982  0.5737  0.3375 -0.0255
  436MOL0     C58784   5.367   8.506   6.059  0.3141  0.0605  0.9980
  436MOL0     C58785   5.488   8.543   6.140  0.5426 -0.4834  0.6139
  436MOL0     C58786   5.605   8.604   6.060 -0.9978 -0.7312  0.1644
  436MOL0     C58787   5.586   8.754   6.028  0.7889 -0.7464 -0.7006
  436MOL0     C58788   5.548   8.843   6.150 -0.0672 -0.8184 -1.2350
  436MOL0     C58789   5.515   8.907   6.253  0.2761 -0.6101 -0.2458
  436MOL0     C58790   5.333   8.187   5.880 -0.9010 -0.7754 -0.1508
  436MOL0     C58791   5.245   8.105   5.807  0.3692  0.1297  0.1385
  436MOL0     C58792   5.302   7.972   5.739  0.1176 -0.3019  0.1741
  436MOL0     H58793   4.664   8.163   5.929  3.8969  1.5023 -3.3894
  436MOL0     H58794   4.447   8.059   5.968 -0.1109 -0.4166  1.6529
  436MOL0     H58795   4.303   7.937   6.009  0.3293  0.7281 -2.7986
  436MOL0     H58796   4.209   7.780   5.991 -0.0641 -0.0137 -1.3383
  436MOL0     H58797   4.471   7.810   6.146  0.7054 -0.0520  1.1614
  436MOL0     H58798   4.366   7.662   6.123  0.0432  0.2963  1.1630
  436MOL0     H58799   4.207   7.770   6.273 -0.7805  1.5624  1.9248
  436MOL0     H58800   4.273   7.931   6.245 -1.9004 -1.0049  1.0044
  436MOL0     H58801   4.493   7.805   6.362 -0.3708 -1.6544  1.2550
  436MOL0     H58802   4.374   7.895   6.458 -2.1084 -1.9674  2.9165
  436MOL0     H58803   4.245   7.687   6.481  0.1943  2.7135  0.3067
  436MOL0     H58804   4.376   7.605   6.390 -0.0985 -0.2382  1.1739
  436MOL0     H58805   4.543   7.695   6.585  0.0365  1.0916  0.7977
  436MOL0     H58806   4.396   7.715   6.675  1.2947 -0.6045  0.8855
  436MOL0     H58807   4.549   7.469   6.609  0.2161  0.7331 -1.9706
  436MOL0     H58808   4.377   7.443   6.595 -0.5381 -0.3752  1.8457
  436MOL0     H58809   4.335   7.556   6.810  1.4637  1.5465  0.0999
  436MOL0     H58810   4.407   7.396   6.823  1.7417 -0.6272  0.0018
  436MOL0     H58811   4.710   7.576   6.742 -0.4082  0.2108 -0.9251
  436MOL0     H58812   4.868   7.762   7.045 -1.7760 -0.8794  1.8783
  436MOL0     H58813   4.924   7.669   6.901 -1.2383 -2.4499  0.9329
  436MOL0     H58814   4.790   7.851   6.764 -0.1880 -0.0272  1.1027
  436MOL0     H58815   4.796   7.944   6.906  0.9683  1.8105 -0.3914
  436MOL0     H58816   5.050   7.820   6.791  0.8972 -1.2845  1.5516
  436MOL0     H58817   5.035   7.944   6.926 -0.6772 -0.3522  0.3250
  436MOL0     H58818   4.913   8.084   6.731 -2.4231 -2.7580 -2.0743
  436MOL0     H58819   4.992   7.994   6.620 -0.6908  0.3712 -0.2848
  436MOL0     H58820   5.327   8.258   6.837  1.8265  1.9544 -4.1477
  436MOL0     H58821   5.548   8.211   6.802  2.1237 -2.4592  2.0439
  436MOL0     H58822   5.944   7.921   6.668 -3.2799  0.5629  0.2998
  436MOL0     H58823   6.174   7.968   6.639  0.3307 -0.3733  2.0411
  436MOL0     H58824   6.391   8.026   6.673 -1.3317  0.1931  0.0410
  436MOL0     H58825   6.381   8.062   6.504  2.6465  3.8808 -2.4057
  436MOL0     H58826   6.552   8.273   6.607  0.1225  0.2121  2.3683
  436MOL0     H58827   6.611   8.129   6.682 -3.6062 -1.4169  2.5510
  436MOL0     H58828   6.615   8.017   6.452  1.9266  0.4448 -1.3248
  436MOL0     H58829   6.542   8.158   6.384 -0.8026 -2.2234  0.0753
  436MOL0     H58830   6.795   8.128   6.524 -0.9274  1.3713  1.6152
  436MOL0     H58831   6.749   8.286   6.459  1.3880 -0.6223  3.1029
  436MOL0     H58832   6.763   8.185   6.219 -0.5563  3.1006  1.6053
  436MOL0     H58833   6.768   8.025   6.299 -1.6657  0.6881  0.9581
  436MOL0     H58834   6.999   8.124   6.221 -0.3051 -0.1119 -0.0931
  436MOL0     H58835   6.965   8.250   6.347  0.7454  0.0728 -1.8747
  436MOL0     H58836   7.003   7.944   6.421 -1.0002 -0.7182 -0.9521
  436MOL0     H58837   7.054   8.087   6.517  1.4677 -1.6107  0.3016
  436MOL0     H58838   7.192   7.998   6.273  1.0031  0.3285 -0.5247
  436MOL0     H58839   7.205   8.157   6.325 -1.0257  0.6712  0.7876
  436MOL0     H58840   6.122   8.385   6.619  0.0694  0.3828 -0.0114
  436MOL0     H58841   5.867   8.344   6.661 -0.3040  0.7819 -0.8003
  436MOL0     H58842   5.448   7.889   6.546 -3.6839 -0.4787 -1.3431
  436MOL0     H58843   5.219   7.910   6.607  0.0738 -0.1905  0.1842
  436MOL0     H58844   4.577   7.717   5.759 -3.1528  0.6615  1.0197
  436MOL0     H58845   4.797   7.844   5.688 -0.6520  1.1968 -0.7393
  436MOL0     H58846   4.970   8.309   5.857  1.3297  1.1197 -2.2394
  436MOL0     H58847   5.132   8.439   5.984  1.9702 -0.1602 -0.3591
  436MOL0     H58848   5.288   8.469   6.125  2.1727 -2.5220  1.9371
  436MOL0     H58849   5.340   8.588   5.992  0.8927 -0.9167 -0.4946
  436MOL0     H58850   5.504   8.458   6.207 -1.3962  0.7785  2.8270
  436MOL0     H58851   5.461   8.615   6.218 -1.0825  1.9969 -2.0083
  436MOL0     H58852   5.634   8.530   5.985 -1.1014 -1.0081  0.3918
  436MOL0     H58853   5.697   8.584   6.116  0.2015 -0.8121 -1.7441
  436MOL0     H58854   5.686   8.790   6.002 -0.1878  0.1568 -3.5605
  436MOL0     H58855   5.517   8.763   5.944 -2.4878 -2.5602  1.5614
  436MOL0     H58856   5.469   8.968   6.328  0.4111  1.1613 -1.5495
  436MOL0     H58857   5.441   8.183   5.886 -0.8643 -0.1244 -0.3627
  436MOL0     H58858   5.362   7.917   5.813 -1.0966 -1.5690  0.2566
  436MOL0     H58859   5.221   7.911   5.697 -1.8287  2.2299 -0.0232
  436MOL0     H58860   5.359   7.998   5.650  2.5328  1.4940  2.1300
  437MOL0     O58861   6.077   7.492   2.488  0.4326 -0.8235  0.1583
  437MOL0     C58862   5.966   7.490   2.443 -0.0248 -0.3757 -1.2446
  437MOL0     O58863   5.875   7.594   2.452  0.0193 -0.3047  0.1880
  437MOL0     C58864   5.885   7.697   2.544  0.3874  0.1310 -0.2243
  437MOL0     C58865   5.797   7.799   2.513  0.5608  0.1846 -1.0023
  437MOL0     C58866   5.802   7.919   2.584  0.3164  0.9278 -0.4561
  437MOL0     C58867   5.882   7.930   2.691  0.3331 -0.5168  0.4515
  437MOL0     O58868   5.877   8.053   2.755  0.9827 -0.0058  0.1819
  437MOL0     C58869   5.790   8.048   2.871  0.0725  0.2845  0.9745
  437MOL0     C58870   5.866   8.135   2.979  0.2029 -0.1820  0.9688
  437MOL0     C58871   5.972   8.062   3.043  0.0968  0.1593 -0.3281
  437MOL0     C58872   5.905   7.970   3.144 -0.7869  0.8816 -0.8480
  437MOL0     C58873   6.021   7.912   3.223  1.0733 -0.0086  0.5660
  437MOL0     C58874   5.983   7.787   3.304 -0.3353 -0.0688  0.1745
  437MOL0     C58875   5.858   7.801   3.412 -0.0867  0.5014  0.1329
  437MOL0     C58876   5.860   7.653   3.470 -0.3894  0.2775 -0.1636
  437MOL0     N58877   5.781   7.622   3.594 -0.7436  0.0832  0.9365
  437MOL0     C58878   5.649   7.623   3.596 -0.3215 -0.0958 -0.1283
  437MOL0     C58879   5.614   7.603   3.725 -0.3756 -0.4506 -0.4066
  437MOL0     C58880   5.477   7.604   3.790 -0.0921  0.1579 -0.0405
  437MOL0     C58881   5.473   7.557   3.940  0.0158  0.7326 -0.0636
  437MOL0     C58882   5.416   7.416   3.957 -0.2542 -0.1547  0.5405
  437MOL0     C58883   5.409   7.359   4.096  0.1218  0.2810  0.0073
  437MOL0     O58884   5.351   7.455   4.187 -0.0531  0.4638  0.6413
  437MOL0     C58885   5.300   7.432   4.316 -0.5470 -0.1751 -0.9709
  437MOL0     C58886   5.260   7.301   4.354 -0.1485 -0.0312 -0.6627
  437MOL0     C58887   5.215   7.277   4.485 -0.1673  0.0448  0.1373
  437MOL0     C58888   5.214   7.383   4.574  0.8430  0.4025 -0.6369
  437MOL0     C58889   5.171   7.369   4.714 -0.0675 -0.4916 -0.4982
  437MOL0     O58890   5.177   7.481   4.792 -0.5450  0.2615  0.7886
  437MOL0     C58891   5.120   7.491   4.914  0.1477 -0.0334  0.0025
  437MOL0     C58892   5.073   7.622   4.945 -0.7590  0.0325 -0.9535
  437MOL0     C58893   5.015   7.657   5.071  0.7117  0.4217  0.6336
  437MOL0     C58894   5.014   7.556   5.167  0.3185 -1.0036 -0.0789
  437MOL0     O58895   4.954   7.577   5.288  0.1658 -0.1593  0.2599
  437MOL0     C58896   4.938   7.709   5.339 -0.5747  0.0267 -0.0126
  437MOL0     C58897   4.905   7.708   5.484  0.4886  0.3964  0.1779
  437MOL0     C58898   4.992   7.603   5.558 -0.8063  0.3484  0.7580
  437MOL0     C58899   5.008   7.625   5.705 -0.2160  0.6846  0.0386
  437MOL0     C58900   5.131   7.551   5.751 -0.3463  0.1451 -0.1696
  437MOL0     C58901   5.152   7.562   5.899 -0.2821 -0.3079 -0.1398
  437MOL0     C58902   5.287   7.519   5.958  0.6188  0.3367 -0.3532
  437MOL0     C58903   5.318   7.371   5.937  0.2800 -1.0556 -0.1104
  437MOL0    Cl58904   5.481   7.327   6.014  0.5749 -0.1678 -0.4972
  437MOL0     C58905   5.068   7.429   5.138  0.7680  0.5442  0.5206
  437MOL0     C58906   5.113   7.391   5.015 -0.0143  0.1169  0.5989
  437MOL0     O58907   5.123   7.259   4.749 -0.2893 -0.2260  0.1153
  437MOL0     C58908   5.243   7.508   4.535  0.4139 -0.2189 -0.0676
  437MOL0     C58909   5.295   7.539   4.409 -0.4807 -0.0566  0.4594
  437MOL0     N58910   5.735   7.573   3.800  0.8466 -0.0619 -0.0691
  437MOL0     N58911   5.829   7.575   3.719  0.0841  0.5873 -0.5438
  437MOL0     C58912   5.977   7.832   2.725 -1.2993  0.0690 -0.0122
  437MOL0     C58913   5.978   7.713   2.651  0.3581  0.8104 -0.2966
  437MOL0     C58914   5.908   7.357   2.393 -0.4655 -0.8331 -0.3004
  437MOL0     C58915   5.778   7.372   2.333  0.5287  0.5895 -0.1317
  437MOL0     C58916   5.726   7.251   2.266 -0.3881 -0.5013  0.2092
  437MOL0     C58917   5.780   7.129   2.281 -0.6413  0.0601  0.5463
  437MOL0     O58918   5.722   7.012   2.224  0.2567 -0.1466 -0.0264
  437MOL0     C58919   5.638   7.036   2.105  0.6289 -0.2442 -0.0467
  437MOL0     C58920   5.674   6.924   2.003  0.2287  0.7990  0.4243
  437MOL0     C58921   5.812   6.927   1.942 -0.6225  0.5476 -0.4199
  437MOL0     C58922   5.910   6.861   2.031  0.5483  0.1912 -0.8268
  437MOL0     C58923   5.882   6.710   2.040 -1.1767 -0.3056  0.3455
  437MOL0     C58924   5.851   6.594   2.035  0.1396  0.7039 -1.0841
  437MOL0     C58925   5.906   7.118   2.344 -0.4436 -0.9879  0.2414
  437MOL0     C58926   5.966   7.229   2.397  0.1548 -0.4962  0.0925
  437MOL0     C58927   6.104   7.215   2.458 -0.5548  0.0449 -0.0043
  437MOL0     H58928   5.730   7.788   2.428  0.3994  1.4891 -1.0672
  437MOL0     H58929   5.743   7.993   2.531  2.8671  2.0223 -1.9444
  437MOL0     H58930   5.694   8.094   2.846 -0.4074 -1.3720 -0.4042
  437MOL0     H58931   5.770   7.948   2.909 -1.8126  0.5663  0.8207
  437MOL0     H58932   5.796   8.166   3.058  0.8448  0.9822  1.0977
  437MOL0     H58933   5.901   8.228   2.933 -2.5597 -0.7018 -2.6575
  437MOL0     H58934   6.036   8.142   3.082 -2.3376  1.7470  0.5880
  437MOL0     H58935   6.029   8.004   2.970  0.4203  0.7698 -0.5638
  437MOL0     H58936   5.832   8.010   3.215 -1.4812 -1.1133 -0.3499
  437MOL0     H58937   5.853   7.887   3.094 -0.0251 -0.5415  0.6040
  437MOL0     H58938   6.105   7.885   3.158  0.9905 -0.0144  0.4612
  437MOL0     H58939   6.047   7.985   3.300 -0.7296  3.1391 -1.6074
  437MOL0     H58940   5.958   7.712   3.229 -0.6108  1.4058 -1.2524
  437MOL0     H58941   6.069   7.759   3.366 -1.9535 -0.9872  2.1346
  437MOL0     H58942   5.760   7.824   3.368 -2.8672 -3.4221  3.4855
  437MOL0     H58943   5.877   7.878   3.487 -0.2961  0.4002  0.2926
  437MOL0     H58944   5.821   7.589   3.391 -1.8131 -1.8711  2.1455
  437MOL0     H58945   5.965   7.629   3.489 -0.8259  0.2211  2.6764
  437MOL0     H58946   5.565   7.628   3.529  0.0741  0.4832 -0.5917
  437MOL0     H58947   5.436   7.705   3.801 -2.6212 -0.9350  1.7217
  437MOL0     H58948   5.409   7.545   3.729  0.0141  1.7255 -1.7725
  437MOL0     H58949   5.570   7.581   3.986 -0.7367  2.1078  0.8908
  437MOL0     H58950   5.410   7.625   3.997  2.7015  0.5422  3.5093
  437MOL0     H58951   5.476   7.347   3.896  1.8192  0.4570  1.7957
  437MOL0     H58952   5.314   7.411   3.917  0.4012  0.2102 -1.3033
  437MOL0     H58953   5.501   7.317   4.138 -0.9116 -0.8585  1.2098
  437MOL0     H58954   5.330   7.285   4.083 -1.0205  1.2627  1.0614
  437MOL0     H58955   5.257   7.218   4.284 -1.5694 -1.0020  0.4797
  437MOL0     H58956   5.188   7.183   4.532  0.9493 -0.5045 -0.2707
  437MOL0     H58957   5.079   7.702   4.872 -2.5296 -1.0868 -2.4024
  437MOL0     H58958   4.977   7.758   5.081 -1.1914  0.2690 -3.2140
  437MOL0     H58959   5.034   7.759   5.318  0.6343 -1.8687  0.7849
  437MOL0     H58960   4.863   7.771   5.290 -0.0592 -0.4764 -1.5032
  437MOL0     H58961   4.919   7.811   5.519  2.1134 -0.1748  1.3013
  437MOL0     H58962   4.802   7.673   5.494  0.8348 -1.8499 -2.8185
  437MOL0     H58963   4.931   7.514   5.539  0.2639  0.1326 -2.0491
  437MOL0     H58964   5.091   7.590   5.513 -1.3938  0.8332 -0.7363
  437MOL0     H58965   4.918   7.587   5.755 -1.8807  2.4568 -1.4427
  437MOL0     H58966   5.016   7.732   5.725  1.2705  0.3292  1.5319
  437MOL0     H58967   5.216   7.600   5.703 -1.8365  0.4376 -2.6934
  437MOL0     H58968   5.127   7.446   5.721  2.3535  0.1410 -0.7417
  437MOL0     H58969   5.145   7.667   5.929  4.9787  0.4861 -0.6886
  437MOL0     H58970   5.074   7.510   5.955  0.3297  1.1750  2.2025
  437MOL0     H58971   5.298   7.554   6.061  1.6431  2.7641 -1.2137
  437MOL0     H58972   5.357   7.577   5.897 -3.4328  3.3729 -2.6124
  437MOL0     H58973   5.235   7.311   5.974  0.9247 -1.7401  0.2554
  437MOL0     H58974   5.319   7.357   5.828 -0.4400 -0.9248 -0.1416
  437MOL0     H58975   5.058   7.363   5.223 -1.4348  1.8343  1.3460
  437MOL0     H58976   5.146   7.291   4.989 -0.3710  0.0705  0.3252
  437MOL0     H58977   5.233   7.595   4.599  1.9386  0.3344 -0.5430
  437MOL0     H58978   5.319   7.641   4.384 -0.2314 -0.7017 -2.2928
  437MOL0     H58979   6.048   7.850   2.805 -2.6523  2.3069  0.7835
  437MOL0     H58980   6.051   7.641   2.686  1.0528  2.3777  1.7304
  437MOL0     H58981   5.721   7.463   2.345  2.1870  1.4523  1.9511
  437MOL0     H58982   5.630   7.277   2.223 -0.1190 -0.9819 -0.7128
  437MOL0     H58983   5.661   7.136   2.067  1.1339  0.2366  1.4386
  437MOL0     H58984   5.531   7.028   2.129  0.3101  1.1911 -0.8849
  437MOL0     H58985   5.599   6.928   1.923 -1.0514  3.4293  1.6434
  437MOL0     H58986   5.663   6.826   2.051  0.1142 -0.9966 -2.9196
  437MOL0     H58987   5.837   7.030   1.916  1.2417  0.2668  0.1263
  437MOL0     H58988   5.806   6.872   1.848 -0.8123  0.5778 -0.4266
  437MOL0     H58989   6.007   6.860   1.980  0.1342 -0.8275 -1.6468
  437MOL0     H58990   5.929   6.920   2.121 -0.8350 -0.6672  0.0687
  437MOL0     H58991   5.822   6.492   2.024  0.5548  0.7714 -3.5077
  437MOL0     H58992   5.957   7.023   2.343  0.4093 -0.5492 -1.1212
  437MOL0     H58993   6.128   7.238   2.562  1.9917 -1.3200 -0.2101
  437MOL0     H58994   6.134   7.110   2.448 -2.4977 -0.5213 -0.3728
  437MOL0     H58995   6.179   7.280   2.412 -2.1002  3.6905  2.2639
  438MOL0     O58996   3.865   0.943   8.628 -0.0251  0.4013 -0.5295
  438MOL0     C58997   3.936   0.905   8.722  0.1292 -0.1872 -0.2196
  438MOL0     O58998   3.962   0.774   8.758  0.2921 -0.4142 -0.1500
  438MOL0     C58999   3.909   0.673   8.689  0.0880  0.0026  0.1372
  438MOL0     C59000   3.769   0.666   8.666  0.0952  0.1630  1.2916
  438MOL0     C59001   3.720   0.546   8.613 -0.3919 -0.1145 -0.2379
  438MOL0     C59002   3.805   0.434   8.584  0.0462 -0.8600 -0.6950
  438MOL0     O59003   3.756   0.339   8.499 -0.3461 -0.2817 -0.8876
  438MOL0     C59004   3.838   0.306   8.392 -0.3511 -0.0122  0.7169
  438MOL0     C59005   3.767   0.226   8.271  0.1100 -0.3694 -0.2128
  438MOL0     C59006   3.870   0.189   8.169 -0.2673 -0.2116 -0.3027
  438MOL0     C59007   3.896   0.289   8.058  0.9956  0.0847 -0.3003
  438MOL0     C59008   4.010   0.238   7.954  0.8507  0.9448  0.6644
  438MOL0     C59009   4.043   0.348   7.859 -0.6528 -0.0913  0.7080
  438MOL0     C59010   4.151   0.324   7.758  0.4734  1.4579  0.3673
  438MOL0     C59011   4.295   0.307   7.813 -0.6186 -0.2826  0.8629
  438MOL0     N59012   4.351   0.421   7.893  0.1304  0.5397 -0.2234
  438MOL0     C59013   4.314   0.548   7.909 -0.0638 -0.4151  0.5874
  438MOL0     C59014   4.408   0.607   7.989  1.7360  0.1162  0.2369
  438MOL0     C59015   4.421   0.738   8.055  0.9186 -1.9248 -0.3033
  438MOL0     C59016   4.343   0.847   7.977 -0.8161  0.8237  0.0827
  438MOL0     C59017   4.334   0.969   8.059  1.5859 -0.4525  0.2675
  438MOL0     C59018   4.464   1.026   8.123  0.0566  0.6909  0.5036
  438MOL0     O59019   4.550   1.089   8.028 -0.1221  0.3476  0.4210
  438MOL0     C59020   4.639   1.187   8.066  0.0626  0.3814  0.1101
  438MOL0     C59021   4.666   1.218   8.195 -0.4340 -0.4185  0.0590
  438MOL0     C59022   4.775   1.298   8.234 -0.2118 -0.2105 -0.7226
  438MOL0     C59023   4.855   1.355   8.141 -0.5363 -0.8286 -0.4754
  438MOL0     C59024   4.970   1.440   8.173 -1.0145 -0.2737  0.1424
  438MOL0     O59025   4.964   1.490   8.313  0.0741 -0.0564 -0.5501
  438MOL0     C59026   5.065   1.570   8.368 -0.1968 -0.3877 -0.3422
  438MOL0     C59027   5.213   1.558   8.352  0.2151  0.0027  0.6828
  438MOL0     C59028   5.294   1.674   8.371 -0.2411  0.3791  0.3278
  438MOL0     C59029   5.242   1.791   8.423  0.3514 -0.1270 -0.4609
  438MOL0     O59030   5.309   1.905   8.441  0.2668  0.7323 -0.2419
  438MOL0     C59031   5.438   1.888   8.512  0.0966 -0.0907  0.8325
  438MOL0     C59032   5.455   2.010   8.599 -0.4255  0.6053  0.1739
  438MOL0     C59033   5.352   2.031   8.698  0.3104 -0.5330 -0.0671
  438MOL0     C59034   5.403   2.139   8.798 -0.5266  0.3552  0.1272
  438MOL0     C59035   5.283   2.171   8.883 -0.8274 -1.1671  0.5612
  438MOL0     C59036   5.331   2.231   9.023  0.5742 -0.0248 -0.1220
  438MOL0     C59037   5.207   2.270   9.099  0.6301 -0.0509 -0.5591
  438MOL0     C59038   5.224   2.329   9.231 -0.6118 -0.7782  0.0011
  438MOL0    Cl59039   5.281   2.494   9.243 -0.1461 -0.5243 -0.4514
  438MOL0     C59040   5.101   1.791   8.456 -0.1130 -1.3662  0.8273
  438MOL0     C59041   5.020   1.681   8.441  0.4330  0.3318  0.3761
  438MOL0     O59042   5.059   1.459   8.083 -0.2785  0.3022 -0.4458
  438MOL0     C59043   4.815   1.332   8.006  0.1853  0.0545  0.7986
  438MOL0     C59044   4.713   1.240   7.970  0.4512  1.5206 -0.6253
  438MOL0     N59045   4.494   0.510   8.013 -0.0936 -0.2604 -0.6268
  438MOL0     N59046   4.449   0.398   7.981 -0.9446 -0.1867  0.2011
  438MOL0     C59047   3.943   0.448   8.614  1.2035  0.4188  0.5594
  438MOL0     C59048   3.989   0.567   8.664 -0.4336 -0.7604  0.4788
  438MOL0     C59049   4.012   1.007   8.800  0.7403  0.4666  0.0313
  438MOL0     C59050   4.140   0.983   8.830  0.0479 -0.1463 -1.0014
  438MOL0     C59051   4.215   1.088   8.885  0.0565 -0.1083  0.4900
  438MOL0     C59052   4.164   1.214   8.918 -0.3853 -0.1339 -0.3132
  438MOL0     O59053   4.233   1.323   8.961  0.0863 -0.5398  0.2001
  438MOL0     C59054   4.372   1.309   8.988 -0.3290  1.0561 -0.0546
  438MOL0     C59055   4.446   1.432   9.050  0.0121  0.8166 -1.3439
  438MOL0     C59056   4.445   1.554   8.952 -0.1782  0.6231 -0.0652
  438MOL0     C59057   4.480   1.684   9.019 -0.2472 -0.3194  0.0063
  438MOL0     C59058   4.615   1.682   9.076  0.2127  0.0015  0.3355
  438MOL0     C59059   4.726   1.673   9.121  0.0051 -0.2487  0.0295
  438MOL0     C59060   4.025   1.229   8.901  0.2329 -0.1703 -0.8071
  438MOL0     C59061   3.952   1.136   8.832 -0.3959  0.4675 -0.6937
  438MOL0     C59062   3.810   1.156   8.805  0.9100 -0.4167 -0.2271
  438MOL0     H59063   3.698   0.748   8.678  1.8579  2.3033 -1.6482
  438MOL0     H59064   3.617   0.518   8.596  0.2278 -2.3378 -0.7783
  438MOL0     H59065   3.874   0.392   8.334  1.5431 -1.8803 -1.0823
  438MOL0     H59066   3.929   0.254   8.422 -1.1132 -2.4134 -0.7930
  438MOL0     H59067   3.691   0.294   8.232 -1.0339 -1.7457 -0.4888
  438MOL0     H59068   3.734   0.126   8.304  2.8631 -1.9278 -1.8050
  438MOL0     H59069   3.848   0.089   8.130  0.2662 -0.9658  1.2630
  438MOL0     H59070   3.963   0.170   8.222  0.8140  2.2884 -1.1354
  438MOL0     H59071   3.802   0.315   8.009  0.8070 -1.2155 -0.6782
  438MOL0     H59072   3.930   0.382   8.105 -0.5227 -0.9721  3.2711
  438MOL0     H59073   4.094   0.204   8.017  0.1925 -1.2962  0.4152
  438MOL0     H59074   3.974   0.150   7.900  1.4635  1.0369  0.0911
  438MOL0     H59075   3.949   0.392   7.823  1.0896  3.9296  0.4739
  438MOL0     H59076   4.065   0.432   7.926 -2.2116 -0.2723  1.5015
  438MOL0     H59077   4.153   0.405   7.685 -3.1344  0.9535 -0.4913
  438MOL0     H59078   4.128   0.233   7.703  2.4123 -0.4922  2.5775
  438MOL0     H59079   4.295   0.219   7.879 -2.3923  2.1801  4.5027
  438MOL0     H59080   4.365   0.295   7.730  0.7892 -1.2604  2.1191
  438MOL0     H59081   4.231   0.600   7.862  0.8944  3.1001  2.4197
  438MOL0     H59082   4.389   0.729   8.160  1.2911 -1.8922 -0.1852
  438MOL0     H59083   4.527   0.767   8.060  0.9195 -2.0695  2.8823
  438MOL0     H59084   4.403   0.862   7.887  0.0780  0.0731  0.5285
  438MOL0     H59085   4.244   0.809   7.953  0.8977 -2.8257 -2.0176
  438MOL0     H59086   4.277   0.952   8.151  0.7909  2.0967  0.3075
  438MOL0     H59087   4.283   1.044   7.999  0.0825 -1.6327 -0.0071
  438MOL0     H59088   4.513   0.959   8.195  0.7277  1.2474  0.5700
  438MOL0     H59089   4.415   1.093   8.195 -0.3375  1.3646 -0.3852
  438MOL0     H59090   4.619   1.156   8.271 -0.3883 -0.3304  0.1589
  438MOL0     H59091   4.792   1.289   8.341 -1.4831 -0.8741 -0.5511
  438MOL0     H59092   5.247   1.467   8.303  1.0495  0.6810 -0.0406
  438MOL0     H59093   5.399   1.662   8.347 -0.4435 -0.1334 -0.3216
  438MOL0     H59094   5.445   1.799   8.576 -3.7786 -1.4078 -0.2793
  438MOL0     H59095   5.512   1.890   8.432 -0.6913 -1.9447  0.0009
  438MOL0     H59096   5.551   2.000   8.650  0.5007 -0.0374 -1.6044
  438MOL0     H59097   5.455   2.100   8.538 -1.7004  1.5687  1.5146
  438MOL0     H59098   5.262   2.070   8.648 -0.8076 -1.0749  1.4373
  438MOL0     H59099   5.315   1.940   8.747 -3.5250  0.0308 -1.5228
  438MOL0     H59100   5.452   2.227   8.758  2.0015 -0.6656  0.8108
  438MOL0     H59101   5.476   2.100   8.869  0.8016  2.9399  0.2844
  438MOL0     H59102   5.214   2.088   8.900  1.2991 -3.3543 -0.7869
  438MOL0     H59103   5.231   2.244   8.821  2.4104  0.1146 -0.8913
  438MOL0     H59104   5.379   2.153   9.082  1.7939 -0.0685 -1.1225
  438MOL0     H59105   5.399   2.316   9.010 -1.7161  2.1932  1.4474
  438MOL0     H59106   5.145   2.181   9.111  1.5527 -1.0304 -2.5431
  438MOL0     H59107   5.147   2.341   9.039  1.5605 -1.1789 -2.9513
  438MOL0     H59108   5.127   2.335   9.280  0.9787 -0.8521  3.4903
  438MOL0     H59109   5.299   2.266   9.281  2.1213  1.3281 -1.1476
  438MOL0     H59110   5.058   1.881   8.498  2.2516 -1.4912  3.8535
  438MOL0     H59111   4.915   1.671   8.466 -0.2914  0.8329 -2.1221
  438MOL0     H59112   4.884   1.371   7.933  1.0838  2.5506  2.8354
  438MOL0     H59113   4.700   1.220   7.864  3.1574 -0.2020 -0.7276
  438MOL0     H59114   4.008   0.362   8.602  0.3024 -0.7008  3.0523
  438MOL0     H59115   4.094   0.569   8.690  0.0231 -1.0914 -1.1749
  438MOL0     H59116   4.179   0.892   8.786 -2.2979  0.0161 -3.7161
  438MOL0     H59117   4.322   1.071   8.892  0.3233 -0.2287 -2.5345
  438MOL0     H59118   4.429   1.286   8.898  0.2828 -2.1622  1.0326
  438MOL0     H59119   4.384   1.232   9.065  0.2517  1.7666  0.5874
  438MOL0     H59120   4.548   1.399   9.070 -1.1728 -0.4336  4.5934
  438MOL0     H59121   4.408   1.469   9.146 -1.1862  0.3501 -1.6240
  438MOL0     H59122   4.352   1.558   8.894 -0.9841 -1.6931  0.9331
  438MOL0     H59123   4.525   1.533   8.880  0.7377  0.4940  0.9632
  438MOL0     H59124   4.473   1.777   8.961 -0.6539 -0.1841  0.2654
  438MOL0     H59125   4.411   1.687   9.104 -0.3645 -0.1398 -0.0947
  438MOL0     H59126   4.812   1.675   9.184  0.3389 -0.6838 -0.4101
  438MOL0     H59127   3.974   1.319   8.934 -1.8172 -1.5014 -0.1511
  438MOL0     H59128   3.747   1.104   8.878  0.1427  2.5978  1.3985
  438MOL0     H59129   3.791   1.263   8.810  0.0166 -0.5123 -1.3195
  438MOL0     H59130   3.785   1.135   8.701  2.0272 -0.8446 -0.4268
  439MOL0     O59131   0.496   6.302   6.044  0.6788  0.5795  0.3932
  439MOL0     C59132   0.511   6.257   5.930 -0.5540 -0.3433  0.5542
  439MOL0     O59133   0.571   6.324   5.829  0.6293  0.3081  1.0955
  439MOL0     C59134   0.612   6.451   5.842  0.5516  0.2502  0.4647
  439MOL0     C59135   0.552   6.553   5.777 -1.2801 -0.0768  0.6750
  439MOL0     C59136   0.604   6.683   5.782 -0.2210  0.0252 -0.4732
  439MOL0     C59137   0.704   6.705   5.878 -0.3630 -0.5386  0.7895
  439MOL0     O59138   0.745   6.829   5.919 -0.0682 -0.5684  0.5640
  439MOL0     C59139   0.645   6.911   5.985  0.3585  0.7068  1.2385
  439MOL0     C59140   0.705   7.041   6.007  0.0314 -0.4995 -0.7773
  439MOL0     C59141   0.602   7.145   6.064  0.6800  0.5143  0.2181
  439MOL0     C59142   0.633   7.186   6.207 -0.0079  0.6704 -0.0785
  439MOL0     C59143   0.519   7.265   6.260  0.5307 -0.2732 -0.2091
  439MOL0     C59144   0.511   7.247   6.416 -0.2414 -0.0141  0.6026
  439MOL0     C59145   0.382   7.289   6.470  0.4653 -0.4108 -0.0412
  439MOL0     C59146   0.375   7.260   6.622 -0.5643 -0.8282 -0.2056
  439MOL0     N59147   0.371   7.121   6.666  0.1115 -0.7189 -0.1213
  439MOL0     C59148   0.284   7.029   6.620  0.2015 -0.2384  0.7996
  439MOL0     C59149   0.347   6.914   6.653 -0.0726 -0.5846  0.5314
  439MOL0     C59150   0.303   6.772   6.640 -0.0168 -0.0991 -0.1596
  439MOL0     C59151   0.246   6.731   6.777  0.9386 -0.9040  0.0661
  439MOL0     C59152   0.115   6.811   6.824 -0.8969 -0.2767 -0.6948
  439MOL0     C59153   0.021   6.727   6.920 -0.4186 -0.7148  0.8895
  439MOL0     O59154  -0.095   6.796   6.942 -0.6570 -0.4357 -0.3064
  439MOL0     C59155  -0.178   6.762   7.047 -0.5815 -0.9134 -0.2309
  439MOL0     C59156  -0.150   6.661   7.142  0.6835  0.3690 -0.0297
  439MOL0     C59157  -0.241   6.629   7.246  0.0460 -0.2307 -0.2562
  439MOL0     C59158  -0.363   6.701   7.258  0.1042 -0.0291 -0.2453
  439MOL0     C59159  -0.454   6.670   7.371 -0.2887 -0.0695  0.5856
  439MOL0     O59160  -0.410   6.573   7.455 -0.6525 -0.0261 -0.1437
  439MOL0     C59161  -0.467   6.578   7.582  0.1341 -0.1120 -0.0742
  439MOL0     C59162  -0.503   6.696   7.652  1.0771  0.4229  0.5674
  439MOL0     C59163  -0.557   6.689   7.779 -0.2398 -1.1453 -0.4261
  439MOL0     C59164  -0.570   6.571   7.845  0.8078  0.2597 -0.9834
  439MOL0     O59165  -0.615   6.564   7.977  0.7926 -0.6313 -0.2356
  439MOL0     C59166  -0.753   6.571   7.999 -0.1615  0.3786  0.6318
  439MOL0     C59167  -0.782   6.597   8.145  1.4562  0.4130 -0.0324
  439MOL0     C59168  -0.939   6.611   8.156  0.9716  1.1831  0.0764
  439MOL0     C59169  -0.982   6.559   8.296 -0.2465 -0.2262 -0.3949
  439MOL0     C59170  -1.102   6.641   8.332  0.3411  0.3194  0.2645
  439MOL0     C59171  -1.155   6.618   8.477  0.1805 -0.0691  0.1583
  439MOL0     C59172  -1.195   6.477   8.518  0.4084  0.5655 -0.1433
  439MOL0     C59173  -1.261   6.478   8.659  0.4197 -0.0757 -0.9753
  439MOL0    Cl59174  -1.309   6.313   8.698 -0.0804 -0.4244 -0.2620
  439MOL0     C59175  -0.536   6.446   7.782  0.6729 -0.6063  0.0852
  439MOL0     C59176  -0.493   6.454   7.647  1.0509  0.3387  0.0885
  439MOL0     O59177  -0.560   6.723   7.374 -0.0966 -0.1961  0.4730
  439MOL0     C59178  -0.392   6.811   7.170  0.5365 -0.3050  0.5227
  439MOL0     C59179  -0.300   6.840   7.068 -0.3356  0.2833  0.2195
  439MOL0     N59180   0.463   6.935   6.729 -0.2925  0.6409 -0.2941
  439MOL0     N59181   0.468   7.064   6.742 -1.0085  1.0669  0.1540
  439MOL0     C59182   0.778   6.601   5.938  0.3997  0.0377  0.2894
  439MOL0     C59183   0.726   6.473   5.914  0.2123  0.1730 -0.0802
  439MOL0     C59184   0.452   6.121   5.907 -0.6959 -0.5554  0.5204
  439MOL0     C59185   0.529   6.039   5.824  0.3193 -0.7670 -0.2308
  439MOL0     C59186   0.492   5.907   5.797 -0.4595  0.0321 -0.1979
  439MOL0     C59187   0.388   5.847   5.854 -0.4378  0.3314  0.5857
  439MOL0     O59188   0.344   5.717   5.840 -0.2262  0.4302  0.2309
  439MOL0     C59189   0.437   5.613   5.829 -0.4868  0.2007  0.3115
  439MOL0     C59190   0.387   5.483   5.779  0.1393  0.9777  0.1590
  439MOL0     C59191   0.482   5.365   5.754  0.2609  0.3127 -0.2846
  439MOL0     C59192   0.406   5.238   5.738  0.2204  0.2301  0.9705
  439MOL0     C59193   0.348   5.194   5.870  0.0621  0.2443 -0.1851
  439MOL0     C59194   0.305   5.174   5.980 -0.0294  0.1570 -0.3831
  439MOL0     C59195   0.313   5.927   5.933 -0.4645 -0.6633 -0.3337
  439MOL0     C59196   0.352   6.048   5.976 -0.2359 -0.0941 -0.1542
  439MOL0     C59197   0.262   6.123   6.068 -0.1995  0.4728 -0.3640
  439MOL0     H59198   0.464   6.538   5.715 -0.7280  1.3269 -0.5194
  439MOL0     H59199   0.562   6.765   5.725 -1.6314  0.1160  0.6398
  439MOL0     H59200   0.558   6.907   5.919  0.1492  0.6299  1.5131
  439MOL0     H59201   0.612   6.872   6.082  1.6788  1.9429  2.2392
  439MOL0     H59202   0.746   7.080   5.914  0.7848 -0.7459 -0.5546
  439MOL0     H59203   0.785   7.026   6.080 -1.5002 -2.3512  0.6193
  439MOL0     H59204   0.498   7.109   6.062 -0.0735  2.5031  0.8828
  439MOL0     H59205   0.613   7.228   5.993  4.4637  0.8121  0.9452
  439MOL0     H59206   0.654   7.095   6.264  0.0174 -1.4972 -3.2911
  439MOL0     H59207   0.717   7.256   6.206 -3.1122  4.8319  1.6399
  439MOL0     H59208   0.521   7.371   6.233  0.8432 -0.4842 -1.0424
  439MOL0     H59209   0.429   7.220   6.217  0.1317  0.1393  0.1823
  439MOL0     H59210   0.519   7.140   6.441 -1.4324 -0.1761  0.3634
  439MOL0     H59211   0.589   7.309   6.460  0.4152  1.0802 -1.9509
  439MOL0     H59212   0.301   7.230   6.425 -2.8972  1.4564  2.9955
  439MOL0     H59213   0.365   7.393   6.442  1.0848 -0.3681 -0.2534
  439MOL0     H59214   0.464   7.298   6.673  1.6005 -3.2284 -1.9310
  439MOL0     H59215   0.282   7.306   6.656 -0.5890 -2.1317  1.6819
  439MOL0     H59216   0.195   7.044   6.561  3.6162  1.4193 -4.6523
  439MOL0     H59217   0.231   6.754   6.560 -1.2604  1.1446  0.6362
  439MOL0     H59218   0.383   6.699   6.622  0.1023  0.0656 -0.2988
  439MOL0     H59219   0.204   6.630   6.777  1.0983 -0.9720  1.1240
  439MOL0     H59220   0.326   6.737   6.851 -0.9341 -2.9555  2.4357
  439MOL0     H59221   0.047   6.840   6.743 -1.6080 -2.2119 -0.8489
  439MOL0     H59222   0.140   6.905   6.874  1.2846  0.8593 -3.6009
  439MOL0     H59223   0.084   6.710   7.008  2.0559 -1.1375 -0.8435
  439MOL0     H59224  -0.001   6.629   6.877  2.5751 -0.2807 -2.0998
  439MOL0     H59225  -0.055   6.609   7.131 -0.1447 -0.7935 -2.2658
  439MOL0     H59226  -0.215   6.546   7.311 -2.4554  0.3062  1.5931
  439MOL0     H59227  -0.490   6.793   7.607 -1.4463  0.7677  0.4366
  439MOL0     H59228  -0.583   6.774   7.841 -1.5089 -0.3314 -1.9932
  439MOL0     H59229  -0.798   6.650   7.938  2.8999 -0.2981 -2.8753
  439MOL0     H59230  -0.807   6.481   7.967  1.8677  0.0593 -2.2753
  439MOL0     H59231  -0.746   6.511   8.201  0.3704  0.0584  0.1403
  439MOL0     H59232  -0.745   6.695   8.178  0.8917  0.5546  0.2062
  439MOL0     H59233  -0.963   6.717   8.151 -1.7105  0.6111 -1.3116
  439MOL0     H59234  -0.996   6.556   8.080  1.6973 -0.6603  0.8049
  439MOL0     H59235  -0.911   6.583   8.375 -2.4617  4.5903  0.4728
  439MOL0     H59236  -1.020   6.457   8.281 -3.3975  0.7848 -0.0455
  439MOL0     H59237  -1.185   6.628   8.262  1.5026  1.4834 -1.4156
  439MOL0     H59238  -1.069   6.746   8.330 -1.3904  1.1085  4.2343
  439MOL0     H59239  -1.072   6.655   8.538 -2.6298  2.9135  2.5659
  439MOL0     H59240  -1.240   6.685   8.493  0.8477  1.5611 -2.5608
  439MOL0     H59241  -1.104   6.416   8.516 -0.4262 -0.7242 -2.1834
  439MOL0     H59242  -1.262   6.423   8.450  1.0090 -3.2860  2.0039
  439MOL0     H59243  -1.189   6.513   8.734  2.2762 -2.0104 -1.7530
  439MOL0     H59244  -1.341   6.551   8.673  2.3909  1.5513  5.0387
  439MOL0     H59245  -0.563   6.357   7.838 -0.5213 -1.6469 -2.0356
  439MOL0     H59246  -0.464   6.366   7.591  1.9809  1.5212 -1.3370
  439MOL0     H59247  -0.480   6.867   7.198  0.8237 -0.5152  1.9258
  439MOL0     H59248  -0.317   6.926   7.004  1.4003  0.7334  0.3119
  439MOL0     H59249   0.861   6.631   6.001  1.2514  0.4593 -0.9988
  439MOL0     H59250   0.784   6.396   5.964 -1.4003  0.4769  2.3859
  439MOL0     H59251   0.613   6.080   5.767  1.6874  2.4102  3.5515
  439MOL0     H59252   0.562   5.866   5.724  1.7365  3.0633  0.0150
  439MOL0     H59253   0.499   5.608   5.919 -1.4047 -3.6360  0.9027
  439MOL0     H59254   0.523   5.641   5.767  0.3248 -2.2350  0.2146
  439MOL0     H59255   0.346   5.496   5.678 -0.0944 -1.5923 -0.1558
  439MOL0     H59256   0.309   5.452   5.849 -0.7722  1.7440 -0.4929
  439MOL0     H59257   0.542   5.357   5.846  0.3539 -2.3657 -0.5138
  439MOL0     H59258   0.550   5.372   5.669 -1.5869  0.2420 -1.8225
  439MOL0     H59259   0.324   5.261   5.669 -0.0127 -2.2037  0.3416
  439MOL0     H59260   0.461   5.153   5.694 -2.1594 -1.9850  2.0513
  439MOL0     H59261   0.285   5.147   6.082  0.1164  1.9171  0.1492
  439MOL0     H59262   0.233   5.875   5.984  0.3573  1.6867  3.7336
  439MOL0     H59263   0.301   6.115   6.170  2.5060  2.8366 -1.0949
  439MOL0     H59264   0.250   6.226   6.035  0.5130 -0.0171 -2.2534
  439MOL0     H59265   0.160   6.082   6.070  0.7967 -2.2308 -0.6576
  440MOL0     O59266   6.149   5.300   2.555 -0.2863  0.0924 -0.4193
  440MOL0     C59267   6.148   5.252   2.670 -0.0904 -0.7132  0.2427
  440MOL0     O59268   6.155   5.117   2.698  0.5429 -0.0669 -1.0538
  440MOL0     C59269   6.148   5.029   2.597 -0.1733  0.9594 -0.1694
  440MOL0     C59270   6.234   4.922   2.581  0.2592  0.3299  0.3129
  440MOL0     C59271   6.220   4.835   2.469 -0.5438  0.7471  0.8346
  440MOL0     C59272   6.120   4.865   2.373  0.9514 -0.2815  0.3828
  440MOL0     O59273   6.107   4.800   2.256 -0.2038 -0.0078 -0.0581
  440MOL0     C59274   6.209   4.719   2.199  0.1315 -0.1357  0.2587
  440MOL0     C59275   6.311   4.798   2.116  0.1289 -0.3172 -0.5388
  440MOL0     C59276   6.401   4.709   2.031 -0.5855  0.4286 -0.3001
  440MOL0     C59277   6.497   4.788   1.944 -0.1901 -0.1210  0.5044
  440MOL0     C59278   6.599   4.696   1.859  0.1072  0.6324  0.1678
  440MOL0     C59279   6.731   4.763   1.858  0.4545  0.4500  0.3048
  440MOL0     C59280   6.829   4.677   1.782  0.4697  1.0779 -1.2205
  440MOL0     C59281   6.969   4.734   1.796 -0.8113 -0.5059 -0.2420
  440MOL0     N59282   7.070   4.654   1.716 -0.2936  0.4532  1.3995
  440MOL0     C59283   7.103   4.521   1.716 -0.8081  0.2097  0.2647
  440MOL0     C59284   7.212   4.509   1.638 -0.6840 -0.5156  0.5210
  440MOL0     C59285   7.279   4.377   1.603  0.3515 -0.5242 -0.1703
  440MOL0     C59286   7.404   4.352   1.688  0.3229 -0.4115 -0.7961
  440MOL0     C59287   7.489   4.224   1.650  0.8644  0.7651 -0.1453
  440MOL0     C59288   7.529   4.230   1.503 -0.3827 -0.1165  0.9595
  440MOL0     O59289   7.613   4.113   1.479  0.2902  0.8492  0.5383
  440MOL0     C59290   7.559   4.007   1.412 -0.5207 -0.0469  0.1010
  440MOL0     C59291   7.577   3.881   1.467 -0.7186  0.0441 -0.1247
  440MOL0     C59292   7.535   3.758   1.417  0.0253 -0.8264  0.0106
  440MOL0     C59293   7.458   3.763   1.297  0.0380 -0.5425 -0.4960
  440MOL0     C59294   7.398   3.637   1.243 -0.0883  0.1200  0.4867
  440MOL0     O59295   7.452   3.520   1.270 -0.4339  1.8663  1.2324
  440MOL0     C59296   7.434   3.421   1.179 -0.4486  0.7171  1.1316
  440MOL0     C59297   7.427   3.432   1.037  0.3344  0.6585 -0.1594
  440MOL0     C59298   7.440   3.314   0.962  0.4363  1.4489 -0.2130
  440MOL0     C59299   7.475   3.191   1.026  0.0183 -0.7624  0.7356
  440MOL0     O59300   7.496   3.091   0.936 -0.3552  0.0666 -0.1725
  440MOL0     C59301   7.570   2.966   0.955  0.5199  0.1828 -0.3347
  440MOL0     C59302   7.624   2.922   0.820 -0.4595  0.1906 -0.5499
  440MOL0     C59303   7.718   3.028   0.755  0.7761  0.4267 -0.1700
  440MOL0     C59304   7.798   2.962   0.640 -0.4499  0.4944  0.6126
  440MOL0     C59305   7.947   3.020   0.627 -0.4612  0.2053 -0.6900
  440MOL0     C59306   8.056   2.925   0.681 -0.0936  0.1869 -0.2593
  440MOL0     C59307   8.048   2.907   0.837 -0.8716  0.4110 -0.2664
  440MOL0     C59308   8.130   2.789   0.878  0.9678  0.7348  0.4506
  440MOL0    Cl59309   8.310   2.827   0.867  0.0111 -0.1997 -0.4367
  440MOL0     C59310   7.460   3.178   1.161  0.1402 -0.3172 -1.2010
  440MOL0     C59311   7.441   3.291   1.236  0.4623  0.6005  1.3562
  440MOL0     O59312   7.296   3.660   1.178 -0.7644 -0.8018  0.5635
  440MOL0     C59313   7.443   3.888   1.235  1.1504  0.1578 -0.7079
  440MOL0     C59314   7.501   4.007   1.288  1.0784  0.7517 -0.7642
  440MOL0     N59315   7.250   4.632   1.584  0.3975  0.9283  0.2638
  440MOL0     N59316   7.154   4.717   1.624  0.2680  0.1670  0.4919
  440MOL0     C59317   6.028   4.966   2.395 -0.0257  0.1636 -0.5825
  440MOL0     C59318   6.039   5.041   2.518 -0.5108 -0.1996  0.5248
  440MOL0     C59319   6.113   5.347   2.780 -0.0708  0.7371  0.5701
  440MOL0     C59320   6.154   5.477   2.767 -0.5303  0.4588  0.0249
  440MOL0     C59321   6.141   5.574   2.869 -0.5126  1.0548  0.2725
  440MOL0     C59322   6.072   5.537   2.983  0.2036 -0.5581  0.1776
  440MOL0     O59323   6.045   5.632   3.078 -0.0442 -0.0150  0.2011
  440MOL0     C59324   5.939   5.718   3.031 -0.4405 -0.5170 -0.7213
  440MOL0     C59325   5.969   5.871   3.053  0.2375  0.1178  0.5342
  440MOL0     C59326   6.102   5.926   2.984  0.9021 -0.4073 -0.4026
  440MOL0     C59327   6.231   5.876   3.063 -0.3007  0.1070 -0.8944
  440MOL0     C59328   6.357   5.889   2.993  0.2918 -0.1021 -0.0134
  440MOL0     C59329   6.478   5.910   2.975  0.1707 -1.0152 -0.4150
  440MOL0     C59330   6.038   5.398   2.992 -0.0134  0.3515  0.1441
  440MOL0     C59331   6.064   5.297   2.903  0.4394  0.6041 -0.5434
  440MOL0     C59332   6.021   5.153   2.944 -1.0694 -0.2973  0.4371
  440MOL0     H59333   6.317   4.905   2.649 -0.0398  0.3104  0.6775
  440MOL0     H59334   6.293   4.757   2.452 -2.8317 -2.0085  2.7768
  440MOL0     H59335   6.249   4.649   2.273  0.0456 -1.3773 -0.8315
  440MOL0     H59336   6.147   4.660   2.131 -1.9435  0.2805  1.7126
  440MOL0     H59337   6.375   4.861   2.179 -2.4968  1.4089  0.5454
  440MOL0     H59338   6.269   4.869   2.045 -0.9152 -2.1945 -1.8839
  440MOL0     H59339   6.339   4.642   1.971  2.8718 -3.8273  0.3833
  440MOL0     H59340   6.460   4.651   2.102 -2.0153  1.5785  1.9334
  440MOL0     H59341   6.430   4.857   1.892  0.8405 -0.7457 -1.7937
  440MOL0     H59342   6.551   4.857   2.010  0.7411  0.5246 -0.8614
  440MOL0     H59343   6.605   4.605   1.920 -0.2436  0.9965  0.7576
  440MOL0     H59344   6.562   4.675   1.758 -3.5386  0.6800  1.3581
  440MOL0     H59345   6.706   4.849   1.795 -1.1727  0.2096  0.5685
  440MOL0     H59346   6.766   4.795   1.956  2.0207 -1.0471  0.2741
  440MOL0     H59347   6.805   4.686   1.676 -2.7885 -1.4922 -0.8636
  440MOL0     H59348   6.823   4.573   1.814  0.8041  1.2678 -0.5073
  440MOL0     H59349   6.978   4.836   1.758  1.0101  0.5987  2.7715
  440MOL0     H59350   6.997   4.747   1.901 -2.4698  1.9866 -0.0330
  440MOL0     H59351   7.048   4.446   1.773 -0.1041  2.6913  4.6880
  440MOL0     H59352   7.207   4.298   1.625  1.5312 -1.7418 -0.5324
  440MOL0     H59353   7.306   4.383   1.497  0.8826  1.3446  0.0319
  440MOL0     H59354   7.468   4.440   1.685 -0.4124  0.1109 -3.0509
  440MOL0     H59355   7.357   4.332   1.785  2.7817 -0.9784  0.3689
  440MOL0     H59356   7.431   4.134   1.674  1.3299  0.9274  1.7859
  440MOL0     H59357   7.579   4.229   1.712  0.7836 -0.0458  0.0425
  440MOL0     H59358   7.584   4.324   1.491 -0.7564  0.0193  0.2648
  440MOL0     H59359   7.442   4.236   1.436 -2.3826  0.1770  3.4342
  440MOL0     H59360   7.640   3.882   1.555 -2.8748  0.7612  1.4819
  440MOL0     H59361   7.552   3.659   1.458 -2.4669 -0.8796  1.0949
  440MOL0     H59362   7.412   3.527   0.987 -1.1014  0.3942 -0.2557
  440MOL0     H59363   7.425   3.304   0.855 -0.7836  0.8066  0.0001
  440MOL0     H59364   7.652   2.978   1.026  4.2628 -1.4572 -3.9446
  440MOL0     H59365   7.507   2.886   0.995 -1.4614  0.9604 -1.7588
  440MOL0     H59366   7.673   2.827   0.842 -0.4130 -0.7666 -4.1318
  440MOL0     H59367   7.539   2.896   0.757 -1.5227 -0.2914  1.0220
  440MOL0     H59368   7.651   3.107   0.720 -0.7795 -1.6121 -2.0479
  440MOL0     H59369   7.787   3.064   0.832  2.2366 -2.5985  0.1003
  440MOL0     H59370   7.753   2.978   0.542  0.6237  2.5266  0.3965
  440MOL0     H59371   7.805   2.853   0.651 -1.5999 -0.0680 -3.0890
  440MOL0     H59372   7.947   3.125   0.657 -3.7313  0.0097  0.3993
  440MOL0     H59373   7.967   3.020   0.520  1.2691  0.9561 -0.4026
  440MOL0     H59374   8.040   2.829   0.632  4.2051 -0.4870 -0.7469
  440MOL0     H59375   8.155   2.966   0.657  3.0238 -4.7152  2.5844
  440MOL0     H59376   7.943   2.903   0.867 -0.6778  1.5185  0.6576
  440MOL0     H59377   8.088   2.993   0.892 -1.7496  0.8383 -0.2658
  440MOL0     H59378   8.110   2.765   0.983 -0.0014 -1.8840 -0.2488
  440MOL0     H59379   8.107   2.700   0.818  0.1196  2.0841 -1.3362
  440MOL0     H59380   7.474   3.082   1.211 -1.8756 -0.7212 -1.3185
  440MOL0     H59381   7.462   3.281   1.342 -0.5668  0.8083  1.5835
  440MOL0     H59382   7.381   3.907   1.148 -0.2901  3.5349  0.8614
  440MOL0     H59383   7.488   4.097   1.229 -1.0100 -0.5524 -2.4528
  440MOL0     H59384   5.946   4.984   2.326 -2.7011 -0.5406  2.1834
  440MOL0     H59385   5.957   5.109   2.535  1.9984  3.0470  0.5368
  440MOL0     H59386   6.199   5.504   2.672  0.3301 -0.6975  0.0892
  440MOL0     H59387   6.173   5.677   2.862  3.0478  0.0602 -0.5019
  440MOL0     H59388   5.852   5.692   3.092 -0.1409  1.5344  0.6668
  440MOL0     H59389   5.903   5.714   2.927 -0.9820  0.3810 -0.5781
  440MOL0     H59390   5.981   5.883   3.161 -0.0531 -0.1920  0.6027
  440MOL0     H59391   5.886   5.934   3.018 -1.7007 -1.0557  2.7319
  440MOL0     H59392   6.090   6.035   2.980  3.5371 -0.0659 -1.0859
  440MOL0     H59393   6.097   5.888   2.882  1.2894  0.1339 -0.6280
  440MOL0     H59394   6.234   5.935   3.155 -0.7674  3.4608 -2.8873
  440MOL0     H59395   6.224   5.771   3.095  3.6030  0.6486  2.6386
  440MOL0     H59396   6.583   5.928   2.986 -0.0831  0.6421 -0.3761
  440MOL0     H59397   5.975   5.364   3.073 -2.6858 -1.9159 -2.6701
  440MOL0     H59398   5.938   5.126   2.879 -1.3238  2.1447 -0.3531
  440MOL0     H59399   6.105   5.083   2.932  1.3570  1.9317  2.8730
  440MOL0     H59400   5.990   5.138   3.048 -1.2969 -3.5354  0.0175
  441MOL0     O59401   8.198   2.947   3.624 -0.4470 -1.1260  0.0645
  441MOL0     C59402   8.292   3.006   3.678 -0.5742  0.6259 -0.5065
  441MOL0     O59403   8.418   3.015   3.634  0.1451  0.6740  0.1371
  441MOL0     C59404   8.454   2.988   3.508  0.0640  0.3912  0.0529
  441MOL0     C59405   8.578   2.927   3.487  0.2332 -0.5645  0.2982
  441MOL0     C59406   8.614   2.886   3.358  0.1940  0.4891 -0.3792
  441MOL0     C59407   8.537   2.917   3.247  0.7931  0.7957 -0.7242
  441MOL0     O59408   8.584   2.880   3.124  0.6803  0.1428 -0.0258
  441MOL0     C59409   8.534   2.953   3.006 -0.2548 -1.0224 -0.8548
  441MOL0     C59410   8.585   2.875   2.892 -0.0698 -0.1023  0.2447
  441MOL0     C59411   8.733   2.896   2.874 -0.5613 -0.2618 -0.1474
  441MOL0     C59412   8.792   2.851   2.736  0.1716  0.4008  0.2430
  441MOL0     C59413   8.948   2.868   2.743 -0.1330  0.3815  0.2640
  441MOL0     C59414   9.003   2.743   2.814  0.0226  0.3096  0.5998
  441MOL0     C59415   9.142   2.734   2.791  0.2816  0.0194  0.0437
  441MOL0     C59416   9.199   2.624   2.877  0.2707  0.2205  0.3928
  441MOL0     N59417   9.236   2.666   3.014 -0.3711 -0.2462 -0.0467
  441MOL0     C59418   9.358   2.669   3.072 -0.1480 -0.6273 -0.1257
  441MOL0     C59419   9.339   2.682   3.202 -0.4884 -0.3019 -0.6379
  441MOL0     C59420   9.460   2.684   3.301  0.2468  0.4483  0.1207
  441MOL0     C59421   9.451   2.788   3.405  0.5066  0.2965  0.6897
  441MOL0     C59422   9.572   2.791   3.494  0.2984 -0.0411  0.1053
  441MOL0     C59423   9.568   2.918   3.578  0.0935 -0.0680 -0.7840
  441MOL0     O59424   9.585   3.024   3.488  0.5775 -0.1946 -0.1746
  441MOL0     C59425   9.541   3.139   3.545 -0.2698  0.1175  0.1953
  441MOL0     C59426   9.574   3.177   3.676  0.6324  0.6786  0.3356
  441MOL0     C59427   9.537   3.306   3.721 -0.6349  0.3843 -0.7375
  441MOL0     C59428   9.447   3.378   3.646 -0.5924  0.2530 -0.4660
  441MOL0     C59429   9.400   3.514   3.703 -0.2199 -0.2977 -0.2647
  441MOL0     O59430   9.439   3.547   3.835 -0.1712  0.2556  0.1534
  441MOL0     C59431   9.395   3.665   3.895 -0.5274  0.2677 -0.0397
  441MOL0     C59432   9.311   3.672   4.007  1.3901  0.4335 -0.2570
  441MOL0     C59433   9.297   3.788   4.084 -0.0101 -0.5264  0.1155
  441MOL0     C59434   9.369   3.900   4.044  0.3242  1.3228 -0.4829
  441MOL0     O59435   9.363   4.021   4.096 -0.5323  0.2551 -0.5354
  441MOL0     C59436   9.328   4.026   4.245  0.1406  0.0131  0.5818
  441MOL0     C59437   9.340   4.167   4.287  0.6963  0.4061 -0.9150
  441MOL0     C59438   9.313   4.196   4.430 -0.0424 -0.1698 -0.0023
  441MOL0     C59439   9.330   4.342   4.465  1.4652 -0.1739  0.2291
  441MOL0     C59440   9.238   4.382   4.578  0.1686  0.2488 -0.3916
  441MOL0     C59441   9.257   4.303   4.707 -0.6632 -0.5642  0.2307
  441MOL0     C59442   9.167   4.349   4.821 -1.0605  0.6093  0.9566
  441MOL0     C59443   9.178   4.508   4.842  0.0682 -1.1014 -0.5824
  441MOL0    Cl59444   9.130   4.560   5.003  0.0002 -0.3607  0.3604
  441MOL0     C59445   9.457   3.894   3.936  0.4452 -0.1221 -0.1251
  441MOL0     C59446   9.465   3.775   3.860 -0.2710 -0.8722 -0.9465
  441MOL0     O59447   9.332   3.580   3.631 -0.2879  0.5089 -0.0814
  441MOL0     C59448   9.403   3.326   3.525  0.0486 -0.3688 -0.2336
  441MOL0     C59449   9.460   3.216   3.468  0.0769 -0.8220  0.8962
  441MOL0     N59450   9.201   2.696   3.226  0.9052 -0.6560 -0.7722
  441MOL0     N59451   9.145   2.672   3.113  0.0754 -0.2990 -0.8848
  441MOL0     C59452   8.419   2.994   3.266 -0.0970 -0.7822  0.1256
  441MOL0     C59453   8.380   3.027   3.393 -0.4888  0.9521 -1.1493
  441MOL0     C59454   8.265   3.084   3.806  0.2487  0.7297 -0.1031
  441MOL0     C59455   8.151   3.062   3.878  0.7818  0.0594 -0.1108
  441MOL0     C59456   8.117   3.127   3.996 -0.0587 -0.2666 -0.9311
  441MOL0     C59457   8.201   3.234   4.034  0.0075  0.2169 -0.4946
  441MOL0     O59458   8.168   3.311   4.145  0.0903  0.0996 -0.1285
  441MOL0     C59459   8.252   3.282   4.259  0.6506  0.0181 -0.0601
  441MOL0     C59460   8.208   3.147   4.317 -0.5171 -0.1801 -0.5319
  441MOL0     C59461   8.261   3.127   4.454 -0.1103 -0.7530  0.3456
  441MOL0     C59462   8.277   2.971   4.488  0.5157 -0.5809  0.0329
  441MOL0     C59463   8.337   2.985   4.621  0.3730  1.6560  0.3424
  441MOL0     C59464   8.393   3.006   4.730  0.2663 -0.8197 -0.5337
  441MOL0     C59465   8.312   3.269   3.955  0.0503 -0.2718  0.1602
  441MOL0     C59466   8.347   3.190   3.841 -0.0398  0.2486  0.3193
  441MOL0     C59467   8.460   3.242   3.769  0.9437 -0.8761 -0.3570
  441MOL0     H59468   8.654   2.915   3.563  1.0128 -0.0298 -0.3834
  441MOL0     H59469   8.706   2.830   3.342 -0.0781  0.4364 -1.9360
  441MOL0     H59470   8.425   2.942   3.007 -0.4997  0.9753  0.3402
  441MOL0     H59471   8.560   3.059   3.004 -0.4428 -0.9101  0.8386
  441MOL0     H59472   8.528   2.908   2.804 -1.1750 -0.0928  0.9505
  441MOL0     H59473   8.577   2.766   2.891  0.6971 -0.1867 -1.8682
  441MOL0     H59474   8.793   2.845   2.950 -0.8861  3.5146  2.8911
  441MOL0     H59475   8.751   2.997   2.912  0.6164 -0.9109  1.1051
  441MOL0     H59476   8.768   2.745   2.725  1.1533 -0.1107  2.4245
  441MOL0     H59477   8.744   2.908   2.656 -0.1418  3.2819  2.3485
  441MOL0     H59478   8.988   2.866   2.641  0.4382  1.7565  0.4365
  441MOL0     H59479   8.982   2.960   2.792 -1.1592  0.5737  0.6303
  441MOL0     H59480   8.980   2.752   2.920 -1.9024  1.4065  0.1357
  441MOL0     H59481   8.959   2.656   2.766  0.6510 -0.0635  0.6943
  441MOL0     H59482   9.193   2.830   2.808  2.2118 -1.1186  0.9346
  441MOL0     H59483   9.165   2.702   2.689  1.5665  2.2674 -0.4363
  441MOL0     H59484   9.123   2.547   2.889 -0.1259  0.7577  1.3790
  441MOL0     H59485   9.285   2.582   2.824 -2.8588 -4.8998 -1.2402
  441MOL0     H59486   9.451   2.657   3.017  0.0800 -1.9545  0.4990
  441MOL0     H59487   9.447   2.590   3.356 -2.6638 -0.4306 -1.7894
  441MOL0     H59488   9.556   2.702   3.252  0.2652  2.4017  0.7881
  441MOL0     H59489   9.451   2.884   3.351 -2.2216  2.4126  3.9900
  441MOL0     H59490   9.354   2.782   3.455 -1.0322 -1.3034 -2.2517
  441MOL0     H59491   9.666   2.799   3.438 -0.5530  0.8273 -1.2453
  441MOL0     H59492   9.570   2.709   3.565 -4.0061  1.6122  2.2531
  441MOL0     H59493   9.648   2.909   3.653 -2.2803  1.1926  2.1138
  441MOL0     H59494   9.474   2.919   3.634  1.4035 -0.3736  1.5546
  441MOL0     H59495   9.646   3.120   3.734  3.3748  1.6801 -1.8677
  441MOL0     H59496   9.563   3.345   3.819  0.5510  2.1891 -1.7041
  441MOL0     H59497   9.251   3.587   4.037 -0.0004  0.8482 -1.7123
  441MOL0     H59498   9.221   3.781   4.160 -1.9282 -1.9838 -1.7950
  441MOL0     H59499   9.231   3.981   4.272 -0.1501  0.5247  0.3958
  441MOL0     H59500   9.399   3.959   4.294 -0.2640  0.9379  2.5310
  441MOL0     H59501   9.440   4.200   4.258 -0.2803  4.6616 -0.0760
  441MOL0     H59502   9.272   4.231   4.230 -1.8890  0.2210  1.7012
  441MOL0     H59503   9.215   4.158   4.459 -0.8084  2.8014  1.7708
  441MOL0     H59504   9.396   4.153   4.487  2.6520  2.3530 -1.6759
  441MOL0     H59505   9.311   4.415   4.386 -0.2695  2.9494  3.2330
  441MOL0     H59506   9.433   4.367   4.492  0.4187  2.2956  2.3881
  441MOL0     H59507   9.135   4.362   4.546 -0.0460 -1.9018  1.3471
  441MOL0     H59508   9.265   4.487   4.569  0.5217  0.1436 -0.5501
  441MOL0     H59509   9.247   4.197   4.681  0.2703 -0.2217 -1.7042
  441MOL0     H59510   9.361   4.324   4.735  0.0422 -2.3685 -0.8617
  441MOL0     H59511   9.209   4.300   4.909  1.4752  1.8196  0.5096
  441MOL0     H59512   9.066   4.316   4.795  0.1312 -1.3403 -1.5373
  441MOL0     H59513   9.282   4.529   4.815 -0.4523  1.3528 -0.9422
  441MOL0     H59514   9.115   4.554   4.765 -0.6776 -2.5070 -0.8513
  441MOL0     H59515   9.512   3.981   3.900  0.5553 -0.7345 -1.5106
  441MOL0     H59516   9.527   3.770   3.771 -0.2757 -0.6988 -0.9607
  441MOL0     H59517   9.336   3.396   3.475 -0.6232  1.0100  2.4028
  441MOL0     H59518   9.438   3.186   3.366  2.6958  1.1557 -0.3454
  441MOL0     H59519   8.372   3.045   3.183  1.0083  3.4180  1.8245
  441MOL0     H59520   8.289   3.086   3.398 -2.2109 -1.3361 -3.5154
  441MOL0     H59521   8.088   2.978   3.848 -2.5385  1.9497  1.0954
  441MOL0     H59522   8.032   3.112   4.062  0.8417  0.2477  0.3876
  441MOL0     H59523   8.253   3.358   4.338  0.7657  0.1702 -0.2057
  441MOL0     H59524   8.352   3.272   4.216  1.0934 -0.8247  1.1081
  441MOL0     H59525   8.247   3.064   4.258  1.2214  0.2319 -0.0149
  441MOL0     H59526   8.100   3.131   4.324 -0.4115 -0.2599  1.8743
  441MOL0     H59527   8.199   3.177   4.529 -0.8755 -0.6806 -0.3277
  441MOL0     H59528   8.362   3.167   4.447 -0.8526  0.8439 -2.3346
  441MOL0     H59529   8.180   2.922   4.499  1.2709 -2.2761 -0.6489
  441MOL0     H59530   8.339   2.924   4.411  0.0028  1.2144 -1.5677
  441MOL0     H59531   8.428   3.027   4.830  1.8199 -1.8559 -0.8228
  441MOL0     H59532   8.374   3.357   3.973 -2.0177  0.8620  2.4535
  441MOL0     H59533   8.436   3.256   3.663 -1.4019 -1.1318  0.0827
  441MOL0     H59534   8.489   3.341   3.807 -0.3003 -0.8194  0.5153
  441MOL0     H59535   8.553   3.186   3.780  0.1126 -2.0944  0.6891
  442MOL0     O59536   4.920   7.520   1.981  1.0248 -0.5175 -0.0249
  442MOL0     C59537   4.941   7.609   2.062  1.0272 -0.5239  0.3202
  442MOL0     O59538   4.983   7.597   2.180 -0.0718 -0.7652  0.1157
  442MOL0     C59539   5.085   7.512   2.214 -1.4549  0.7689  0.6283
  442MOL0     C59540   5.174   7.442   2.137 -0.4352  0.8783 -0.5680
  442MOL0     C59541   5.272   7.356   2.190 -1.0039 -1.1211  0.0399
  442MOL0     C59542   5.287   7.347   2.337 -0.4523 -0.2944  0.1227
  442MOL0     O59543   5.376   7.261   2.404 -0.3867 -0.0153  0.1990
  442MOL0     C59544   5.371   7.126   2.361 -0.3795  0.7082 -0.1466
  442MOL0     C59545   5.256   7.052   2.430  0.0714 -0.2779 -0.4139
  442MOL0     C59546   5.264   6.902   2.402 -0.5112  1.0375 -0.4789
  442MOL0     C59547   5.267   6.817   2.528 -0.2968 -0.2235 -0.8751
  442MOL0     C59548   5.390   6.834   2.618 -0.0580  0.6408  0.2668
  442MOL0     C59549   5.516   6.782   2.542 -0.0747 -0.8875 -0.0630
  442MOL0     C59550   5.644   6.827   2.622 -0.0143 -1.0382  0.1437
  442MOL0     C59551   5.774   6.773   2.556  0.4173 -0.2480 -0.1596
  442MOL0     N59552   5.900   6.784   2.641 -0.0143  0.3742  0.5197
  442MOL0     C59553   5.987   6.893   2.638 -0.5499  0.8390 -0.1076
  442MOL0     C59554   6.080   6.858   2.729  0.3344 -0.6010 -1.1770
  442MOL0     C59555   6.192   6.948   2.768 -0.3280  0.0714 -0.1078
  442MOL0     C59556   6.203   6.949   2.917  1.3005  0.8838  0.2756
  442MOL0     C59557   6.303   7.059   2.980  1.1786 -0.4027  0.5606
  442MOL0     C59558   6.230   7.175   3.046  0.8134 -0.6218 -0.1053
  442MOL0     O59559   6.134   7.223   2.944  0.4325  0.5685  0.2069
  442MOL0     C59560   6.034   7.299   2.983  0.7361 -0.6601 -0.4693
  442MOL0     C59561   5.966   7.371   2.876  0.1809 -0.0532 -0.3927
  442MOL0     C59562   5.870   7.462   2.902  0.4217  0.0929  0.2124
  442MOL0     C59563   5.838   7.493   3.035 -0.4743  0.2419  0.6518
  442MOL0     C59564   5.732   7.598   3.062 -0.9433  0.2140  0.8862
  442MOL0     O59565   5.680   7.665   2.948  0.2682 -0.5644  0.0097
  442MOL0     C59566   5.601   7.774   2.946  0.0942 -0.5407  0.2270
  442MOL0     C59567   5.573   7.859   3.058  0.7627 -0.0033  0.7266
  442MOL0     C59568   5.485   7.965   3.049  0.0867  0.1550 -0.0126
  442MOL0     C59569   5.425   8.004   2.930  0.0158  0.0993 -0.8975
  442MOL0     O59570   5.349   8.107   2.903  0.3346 -0.6480  0.7548
  442MOL0     C59571   5.354   8.213   2.997 -0.1360  0.3731  0.5661
  442MOL0     C59572   5.291   8.338   2.938 -0.1549  0.6730 -0.1188
  442MOL0     C59573   5.358   8.398   2.805  0.4744  0.2428 -0.6703
  442MOL0     C59574   5.448   8.513   2.846 -0.5088  0.6699  0.0110
  442MOL0     C59575   5.552   8.554   2.736 -0.0467  0.6635  0.8407
  442MOL0     C59576   5.523   8.601   2.594 -0.1572 -0.4411 -0.6021
  442MOL0     C59577   5.458   8.745   2.598  0.2327 -0.9053  0.7426
  442MOL0     C59578   5.401   8.779   2.456  0.8666 -0.3324  0.1619
  442MOL0    Cl59579   5.545   8.754   2.343 -0.2964  0.1378  0.0800
  442MOL0     C59580   5.457   7.924   2.817  0.4394 -0.1357  0.0470
  442MOL0     C59581   5.539   7.808   2.824 -0.2408  0.7100  1.1290
  442MOL0     O59582   5.695   7.611   3.175 -0.9034 -0.1672 -0.7084
  442MOL0     C59583   5.913   7.427   3.134 -0.0831 -0.0635 -0.6843
  442MOL0     C59584   6.008   7.331   3.116 -0.6230 -1.3288 -0.6896
  442MOL0     N59585   6.042   6.737   2.793  0.0895  0.8630  0.2217
  442MOL0     N59586   5.930   6.691   2.741 -0.3239 -0.5897  0.4638
  442MOL0     C59587   5.196   7.423   2.409  0.0943 -0.2933  0.3547
  442MOL0     C59588   5.089   7.497   2.354 -1.4059 -0.3217 -0.6483
  442MOL0     C59589   4.910   7.744   2.009  0.5842 -0.5221  0.1434
  442MOL0     C59590   4.825   7.758   1.893 -0.2091 -0.3133 -0.1177
  442MOL0     C59591   4.791   7.889   1.843  0.6880 -0.1901  0.6489
  442MOL0     C59592   4.829   8.009   1.912 -2.0396 -0.1452 -0.9227
  442MOL0     O59593   4.791   8.132   1.859 -0.0182 -0.1497 -0.5542
  442MOL0     C59594   4.859   8.245   1.921  0.0118  1.3682  0.3261
  442MOL0     C59595   4.810   8.372   1.851  0.4065  0.3081 -1.0266
  442MOL0     C59596   4.925   8.473   1.852  0.3683 -1.0156  0.0950
  442MOL0     C59597   4.998   8.476   1.720 -0.6037 -0.1981 -0.5384
  442MOL0     C59598   5.103   8.578   1.707 -0.0994  0.2176 -0.0116
  442MOL0     C59599   5.185   8.672   1.697  0.4890 -0.0097  0.0473
  442MOL0     C59600   4.926   7.992   2.017  0.4019 -0.5302  0.0544
  442MOL0     C59601   4.954   7.867   2.065  0.0784 -0.4534  0.2458
  442MOL0     C59602   5.047   7.861   2.184 -0.0011  0.8840  0.2854
  442MOL0     H59603   5.173   7.455   2.030 -0.4739 -0.2117 -0.7076
  442MOL0     H59604   5.338   7.298   2.126  1.4862 -3.7692  4.4930
  442MOL0     H59605   5.351   7.104   2.256 -3.2139 -1.7532  0.7761
  442MOL0     H59606   5.462   7.083   2.402 -1.1520 -0.2229  0.6307
  442MOL0     H59607   5.159   7.088   2.395 -2.2258 -3.2779  2.2230
  442MOL0     H59608   5.253   7.077   2.537 -1.1373  1.3186 -0.7910
  442MOL0     H59609   5.346   6.871   2.337  0.4748  1.6188  0.4481
  442MOL0     H59610   5.169   6.885   2.350  1.5066  1.0188 -4.5019
  442MOL0     H59611   5.176   6.833   2.586 -0.2762  1.4165 -1.2543
  442MOL0     H59612   5.261   6.711   2.500  2.3004 -0.8911  0.8405
  442MOL0     H59613   5.413   6.940   2.633  2.0354  1.3583 -5.3723
  442MOL0     H59614   5.366   6.785   2.712  0.0227  2.0250  1.0417
  442MOL0     H59615   5.508   6.673   2.536 -0.9266 -0.8156 -0.3895
  442MOL0     H59616   5.532   6.819   2.440 -0.4266 -3.0159 -0.9463
  442MOL0     H59617   5.644   6.781   2.721 -0.4872  1.6850  1.5194
  442MOL0     H59618   5.642   6.936   2.637 -1.6740 -0.8424 -1.1284
  442MOL0     H59619   5.770   6.667   2.529 -0.7486  0.0358 -1.2411
  442MOL0     H59620   5.784   6.828   2.462 -0.5556  1.1343  0.5111
  442MOL0     H59621   5.973   6.985   2.582  1.6491  1.0423 -0.4121
  442MOL0     H59622   6.283   6.917   2.716  1.3294  3.2779  0.6006
  442MOL0     H59623   6.187   7.052   2.732  2.0245  0.2581 -0.0797
  442MOL0     H59624   6.107   6.945   2.968  0.3474 -2.7200 -1.4036
  442MOL0     H59625   6.227   6.846   2.946 -0.6497  0.1981 -0.3496
  442MOL0     H59626   6.377   7.089   2.905 -0.4198 -0.8209 -1.2796
  442MOL0     H59627   6.346   6.998   3.059 -1.4249  2.2361  4.3816
  442MOL0     H59628   6.297   7.256   3.076 -1.0490  0.6553  0.8071
  442MOL0     H59629   6.173   7.142   3.134 -1.8234 -0.4256 -1.6421
  442MOL0     H59630   5.986   7.361   2.770  1.1092  4.6588 -0.8890
  442MOL0     H59631   5.820   7.504   2.816 -0.4492 -1.6178 -0.1626
  442MOL0     H59632   5.617   7.831   3.153  0.1044  0.5556  1.1977
  442MOL0     H59633   5.464   8.030   3.133 -0.9698  0.5590 -0.5684
  442MOL0     H59634   5.293   8.180   3.081 -0.8037 -2.6954 -0.9557
  442MOL0     H59635   5.459   8.229   3.022  1.5710 -0.6238 -4.6412
  442MOL0     H59636   5.187   8.312   2.914 -0.1816  0.8100 -0.1569
  442MOL0     H59637   5.265   8.410   3.016  2.7325 -0.6559  2.2360
  442MOL0     H59638   5.415   8.323   2.750 -1.7000 -2.3050  0.3479
  442MOL0     H59639   5.279   8.426   2.736 -0.0630 -0.0534 -0.1818
  442MOL0     H59640   5.510   8.492   2.934  2.0878  4.6024 -0.6391
  442MOL0     H59641   5.392   8.601   2.877 -4.2234 -0.7271 -2.0938
  442MOL0     H59642   5.612   8.463   2.738 -2.2186 -0.8870  4.0103
  442MOL0     H59643   5.623   8.624   2.780  2.1753 -1.3682  0.6996
  442MOL0     H59644   5.608   8.620   2.528 -0.7049  3.3474 -0.4609
  442MOL0     H59645   5.452   8.536   2.543 -2.2301  1.2170  0.0039
  442MOL0     H59646   5.538   8.812   2.629 -0.2048  0.9080 -1.7404
  442MOL0     H59647   5.378   8.763   2.670 -0.5641  0.4413 -0.4264
  442MOL0     H59648   5.313   8.718   2.431  0.6714  0.4496 -1.1703
  442MOL0     H59649   5.367   8.883   2.453 -0.8605 -0.8688 -0.2986
  442MOL0     H59650   5.412   7.946   2.721  0.4983  0.2140  0.0982
  442MOL0     H59651   5.592   7.765   2.740  0.7055  1.7447  1.1724
  442MOL0     H59652   5.891   7.441   3.240 -0.2254 -2.1967 -0.3974
  442MOL0     H59653   6.046   7.286   3.207 -2.7348 -3.2448 -0.6778
  442MOL0     H59654   5.193   7.418   2.518  2.1149  0.6271  0.5022
  442MOL0     H59655   5.025   7.563   2.411  1.9806  0.8064  2.1741
  442MOL0     H59656   4.782   7.673   1.841 -2.1193 -0.3421  1.4101
  442MOL0     H59657   4.729   7.894   1.754  1.2670  2.7425  0.3167
  442MOL0     H59658   4.965   8.233   1.897 -0.3658  2.5692 -2.2149
  442MOL0     H59659   4.849   8.246   2.030  0.0501  0.0333  0.3619
  442MOL0     H59660   4.731   8.422   1.908  1.9821  1.7292  0.0296
  442MOL0     H59661   4.779   8.349   1.749 -2.3819 -2.0000  0.1929
  442MOL0     H59662   5.001   8.474   1.931  0.4931 -0.2710 -0.0299
  442MOL0     H59663   4.881   8.573   1.856  2.4710 -0.0633  1.7628
  442MOL0     H59664   5.047   8.378   1.718 -2.7083 -1.3204 -1.5048
  442MOL0     H59665   4.930   8.484   1.634 -0.0600 -4.0352 -1.5300
  442MOL0     H59666   5.250   8.756   1.705  2.1138 -1.1681 -0.3835
  442MOL0     H59667   4.965   8.073   2.078 -0.1781 -0.5880  0.5105
  442MOL0     H59668   4.981   7.831   2.267  1.7213 -0.8194  1.1131
  442MOL0     H59669   5.125   7.786   2.174 -0.4417  0.2175  1.6080
  442MOL0     H59670   5.104   7.952   2.204 -0.5968  1.2917  0.1719
  443MOL0     O59671   1.883   5.088   3.689  0.0958 -0.3404 -0.0113
  443MOL0     C59672   1.830   5.103   3.578  0.3917 -0.2299 -0.5363
  443MOL0     O59673   1.858   5.033   3.464  0.1961  1.0111 -0.2900
  443MOL0     C59674   1.920   4.915   3.478  0.0163 -0.0823 -0.2706
  443MOL0     C59675   2.062   4.911   3.490 -0.3218  0.6920 -0.9422
  443MOL0     C59676   2.125   4.794   3.526  0.5891 -0.3807  0.3550
  443MOL0     C59677   2.049   4.676   3.534  0.9908  0.1372 -0.4959
  443MOL0     O59678   2.106   4.554   3.537  0.1302 -0.4765  0.2473
  443MOL0     C59679   2.172   4.519   3.659  1.0925  0.1567  0.2070
  443MOL0     C59680   2.193   4.369   3.674 -0.2202  0.3301 -0.3060
  443MOL0     C59681   2.066   4.280   3.640 -0.6097 -0.5803  0.1564
  443MOL0     C59682   2.088   4.128   3.647  0.0880 -0.0647 -1.0812
  443MOL0     C59683   2.153   4.063   3.523  0.0285  0.3586  0.3089
  443MOL0     C59684   2.266   3.967   3.552  1.0726  0.3009  0.8545
  443MOL0     C59685   2.351   3.961   3.423  0.6356 -0.2441 -0.1320
  443MOL0     C59686   2.441   3.839   3.432 -0.9559 -0.5187 -0.2854
  443MOL0     N59687   2.530   3.842   3.317 -0.2269 -0.5993  0.8248
  443MOL0     C59688   2.631   3.932   3.287  0.5705  0.7161  0.1347
  443MOL0     C59689   2.694   3.883   3.179 -0.5810 -0.6216  0.5647
  443MOL0     C59690   2.817   3.939   3.121 -0.0010 -0.4725 -0.7271
  443MOL0     C59691   2.793   3.991   2.985 -0.0818  0.4382 -0.5089
  443MOL0     C59692   2.912   4.033   2.911 -0.7720 -0.1537 -0.4070
  443MOL0     C59693   2.967   3.920   2.818  0.2449  0.6632 -0.3388
  443MOL0     O59694   3.101   3.955   2.790 -0.2307 -0.6752  0.5632
  443MOL0     C59695   3.147   3.876   2.686  0.0608 -0.8626 -0.4483
  443MOL0     C59696   3.115   3.914   2.552 -1.1962 -0.9887  0.0305
  443MOL0     C59697   3.166   3.841   2.449 -0.3962  0.7442  0.3857
  443MOL0     C59698   3.248   3.729   2.471  0.1775 -0.2696 -0.1092
  443MOL0     C59699   3.300   3.639   2.371 -0.1102 -0.0378 -0.2559
  443MOL0     O59700   3.371   3.526   2.399  0.2669 -0.6189 -0.4122
  443MOL0     C59701   3.414   3.425   2.318 -0.3233  0.1761  1.2978
  443MOL0     C59702   3.463   3.304   2.380 -0.6468 -0.4065  0.5683
  443MOL0     C59703   3.510   3.204   2.298 -0.7408 -0.0515  0.6259
  443MOL0     C59704   3.502   3.202   2.162  0.3619  0.2180  0.7279
  443MOL0     O59705   3.545   3.086   2.100  0.4765  0.1555  0.7249
  443MOL0     C59706   3.581   3.100   1.957  0.6714  1.0717  1.1066
  443MOL0     C59707   3.552   2.955   1.901  0.1847 -0.5747 -0.2351
  443MOL0     C59708   3.536   2.933   1.751  0.7531  0.1032  0.3307
  443MOL0     C59709   3.672   2.957   1.678  0.2032 -0.5854 -1.0090
  443MOL0     C59710   3.652   2.977   1.533  1.2354 -0.2046  0.0866
  443MOL0     C59711   3.751   3.062   1.457  0.2906  0.4086 -0.3721
  443MOL0     C59712   3.707   3.073   1.315 -0.3352  0.3815 -0.0699
  443MOL0     C59713   3.745   3.207   1.257  0.5067 -0.3773  0.1155
  443MOL0    Cl59714   3.683   3.230   1.087  0.1274  0.1222  0.4165
  443MOL0     C59715   3.460   3.318   2.098 -0.3614  0.0961 -0.1780
  443MOL0     C59716   3.422   3.433   2.169  0.2376 -0.7725 -0.5047
  443MOL0     O59717   3.282   3.677   2.256 -0.0416  0.2722 -0.6836
  443MOL0     C59718   3.280   3.705   2.603  0.2711 -0.9033  0.2332
  443MOL0     C59719   3.231   3.776   2.710 -0.3960 -0.3766  0.5202
  443MOL0     N59720   2.643   3.759   3.155 -0.0983  1.0452  0.3926
  443MOL0     N59721   2.542   3.737   3.236  0.5098 -0.6039  1.1076
  443MOL0     C59722   1.910   4.672   3.506  0.0752 -0.2962 -0.6509
  443MOL0     C59723   1.849   4.792   3.479  0.5874 -0.5865 -0.8877
  443MOL0     C59724   1.719   5.202   3.578  0.3215 -0.1109  1.8426
  443MOL0     C59725   1.623   5.190   3.479 -0.6353 -0.7670  0.5719
  443MOL0     C59726   1.521   5.281   3.453 -0.1932  0.5002 -0.0440
  443MOL0     C59727   1.522   5.400   3.523 -0.3732  0.1426 -0.0363
  443MOL0     O59728   1.428   5.490   3.474 -0.6998  0.6993 -0.1206
  443MOL0     C59729   1.386   5.593   3.561 -0.4463 -0.1313 -0.4135
  443MOL0     C59730   1.475   5.711   3.516  0.6515 -0.4350  0.1566
  443MOL0     C59731   1.452   5.835   3.595  0.2526 -0.4448  0.5205
  443MOL0     C59732   1.561   5.932   3.547  0.5306 -0.9421 -0.4773
  443MOL0     C59733   1.546   6.063   3.620 -0.9720 -0.6289  0.8173
  443MOL0     C59734   1.528   6.167   3.678  0.1234 -0.0253 -0.3294
  443MOL0     C59735   1.621   5.423   3.624 -0.0981  0.7141  0.5810
  443MOL0     C59736   1.716   5.330   3.648  0.0739 -0.4419 -0.3554
  443MOL0     C59737   1.806   5.359   3.762 -1.0935  0.5500 -0.3511
  443MOL0     H59738   2.129   4.996   3.477  1.4812 -0.9005 -2.7160
  443MOL0     H59739   2.231   4.783   3.546  0.1570 -1.5877  2.1961
  443MOL0     H59740   2.266   4.575   3.661  0.4814  1.2888 -1.2024
  443MOL0     H59741   2.098   4.542   3.736 -0.8291  0.0384 -1.5165
  443MOL0     H59742   2.219   4.348   3.778 -1.2723  2.2461  0.4000
  443MOL0     H59743   2.280   4.332   3.619 -0.9402 -2.4832  0.3049
  443MOL0     H59744   2.042   4.315   3.539  2.8143  0.4705 -0.4311
  443MOL0     H59745   1.977   4.300   3.699 -1.5199  2.2110 -1.9680
  443MOL0     H59746   2.146   4.105   3.737 -2.9180  0.1346  1.0606
  443MOL0     H59747   1.987   4.087   3.659  0.9350 -1.6735  1.4611
  443MOL0     H59748   2.069   4.008   3.479 -0.8649  0.6247  1.6273
  443MOL0     H59749   2.176   4.137   3.445 -0.1988 -2.1072 -2.2486
  443MOL0     H59750   2.327   4.007   3.633  1.9712  0.2661  0.2113
  443MOL0     H59751   2.225   3.870   3.580  1.2438 -0.5777 -1.6628
  443MOL0     H59752   2.408   4.052   3.405  0.7302  0.2287  2.1578
  443MOL0     H59753   2.285   3.942   3.338 -1.0256  1.0967  0.7833
  443MOL0     H59754   2.487   3.822   3.529 -1.7226 -1.6024 -0.0884
  443MOL0     H59755   2.380   3.749   3.423 -1.5175 -0.1052 -0.7094
  443MOL0     H59756   2.660   4.026   3.333 -0.7662  0.4240  1.6589
  443MOL0     H59757   2.840   4.027   3.182  2.6558 -1.8947  0.5232
  443MOL0     H59758   2.905   3.874   3.130 -3.0740 -5.1752 -1.2451
  443MOL0     H59759   2.736   3.913   2.933 -1.9567  0.4818  1.3318
  443MOL0     H59760   2.722   4.074   2.977 -2.2216 -1.4589 -4.1628
  443MOL0     H59761   2.988   4.074   2.978  0.2355  0.2469 -1.7397
  443MOL0     H59762   2.883   4.122   2.854 -0.5231  0.9080  1.0582
  443MOL0     H59763   2.903   3.906   2.730 -1.1910 -2.4439  1.0268
  443MOL0     H59764   2.971   3.822   2.866  0.6043  0.3568 -0.9834
  443MOL0     H59765   3.051   3.998   2.528  0.2771  0.5343  1.1619
  443MOL0     H59766   3.138   3.872   2.349  1.4632 -0.2723 -0.5072
  443MOL0     H59767   3.477   3.287   2.486 -2.7122 -0.0384  0.9438
  443MOL0     H59768   3.554   3.116   2.344  0.2659  0.2213  0.2145
  443MOL0     H59769   3.523   3.166   1.891 -1.2431  0.0434  1.6711
  443MOL0     H59770   3.685   3.133   1.958  1.0794 -0.0447 -0.5513
  443MOL0     H59771   3.631   2.893   1.944 -0.5461 -0.4155  1.4337
  443MOL0     H59772   3.459   2.917   1.946 -0.6220 -0.1562 -1.4825
  443MOL0     H59773   3.508   2.829   1.732 -2.3109  1.0054 -0.8491
  443MOL0     H59774   3.451   2.993   1.715  1.1337  0.7031  0.4103
  443MOL0     H59775   3.753   2.891   1.712  0.0342 -0.3849 -0.2031
  443MOL0     H59776   3.696   3.058   1.709 -1.4399  0.7090 -3.5725
  443MOL0     H59777   3.557   3.028   1.511  1.4116 -1.1184 -3.2607
  443MOL0     H59778   3.637   2.878   1.490 -3.2666 -0.1898  1.0498
  443MOL0     H59779   3.752   3.165   1.492 -0.9257  0.6262 -0.9264
  443MOL0     H59780   3.851   3.020   1.468 -0.5320 -1.3144  1.1384
  443MOL0     H59781   3.600   3.054   1.302  0.0722 -2.4014  0.0370
  443MOL0     H59782   3.764   2.994   1.265 -0.7748  1.4080 -2.3451
  443MOL0     H59783   3.693   3.290   1.307 -0.4022 -0.5076 -0.5873
  443MOL0     H59784   3.852   3.230   1.265  0.2441  0.4670  1.8594
  443MOL0     H59785   3.463   3.325   1.989  2.2401 -0.4207 -0.2037
  443MOL0     H59786   3.390   3.515   2.106  1.2579  1.2046  1.4118
  443MOL0     H59787   3.348   3.627   2.634  0.9943 -0.6561 -0.6821
  443MOL0     H59788   3.277   3.761   2.808  3.4000  1.2775 -0.7968
  443MOL0     H59789   1.841   4.588   3.503 -0.6990  0.0886  2.7649
  443MOL0     H59790   1.741   4.802   3.466  0.6282  1.6570 -0.0449
  443MOL0     H59791   1.621   5.099   3.419 -0.8592 -0.0638 -0.5337
  443MOL0     H59792   1.435   5.261   3.391  0.8861  2.8531 -2.4467
  443MOL0     H59793   1.401   5.576   3.668  1.4920  1.6297 -0.3538
  443MOL0     H59794   1.281   5.601   3.532 -0.7485 -2.6112 -0.1816
  443MOL0     H59795   1.460   5.728   3.409  0.7319 -0.1428  0.1888
  443MOL0     H59796   1.577   5.673   3.527 -0.9236 -4.4327  3.0298
  443MOL0     H59797   1.469   5.825   3.702 -3.0312  2.1243  1.4670
  443MOL0     H59798   1.350   5.869   3.575  1.3691  2.8369 -0.2998
  443MOL0     H59799   1.659   5.890   3.573  1.9062  1.8347 -0.8329
  443MOL0     H59800   1.539   5.951   3.442  2.4058 -0.5489 -0.8290
  443MOL0     H59801   1.522   6.268   3.714 -1.6532  1.7318 -4.7473
  443MOL0     H59802   1.627   5.517   3.679  0.5322  0.1030  1.5831
  443MOL0     H59803   1.910   5.332   3.739 -0.1572 -0.4358  4.0916
  443MOL0     H59804   1.802   5.465   3.791 -0.8409  0.5143 -0.1723
  443MOL0     H59805   1.784   5.297   3.849  1.0413  0.9361  0.5381
  444MOL0     O59806   3.677   8.925   5.936 -0.2000  0.3071 -0.3372
  444MOL0     C59807   3.581   9.001   5.943 -0.3164  0.4307 -0.2945
  444MOL0     O59808   3.453   8.946   5.925  0.1051  0.1760  0.5694
  444MOL0     C59809   3.444   8.827   5.860 -0.0533  0.2004 -0.2391
  444MOL0     C59810   3.447   8.818   5.723  0.9762  0.0503 -1.0089
  444MOL0     C59811   3.431   8.694   5.653  0.0600 -0.1557  0.3376
  444MOL0     C59812   3.402   8.570   5.716  0.9946  0.4686 -0.3031
  444MOL0     O59813   3.355   8.460   5.650 -0.3714  0.5054  0.1294
  444MOL0     C59814   3.211   8.440   5.666  0.1825 -0.8830 -0.6954
  444MOL0     C59815   3.124   8.539   5.603 -0.1319 -0.1608 -0.3853
  444MOL0     C59816   2.987   8.547   5.675 -0.8400 -0.4869 -0.7823
  444MOL0     C59817   2.878   8.625   5.610  0.6348  0.0697 -0.4816
  444MOL0     C59818   2.748   8.615   5.693 -1.0151 -1.1129 -0.7316
  444MOL0     C59819   2.670   8.741   5.668 -0.4009 -0.0354 -0.5519
  444MOL0     C59820   2.521   8.724   5.709 -0.5571 -0.2154 -0.4549
  444MOL0     C59821   2.438   8.842   5.665  0.0638 -1.1814 -0.7366
  444MOL0     N59822   2.429   8.946   5.769  0.1087 -0.1797  0.3811
  444MOL0     C59823   2.502   9.064   5.778  0.1027  0.4947 -0.2857
  444MOL0     C59824   2.461   9.136   5.887 -0.7194 -0.3429 -0.2682
  444MOL0     C59825   2.512   9.273   5.929 -0.7026 -1.0641  0.7440
  444MOL0     C59826   2.409   9.378   5.989 -0.2409 -0.1152  0.1382
  444MOL0     C59827   2.478   9.518   6.000  0.2490 -0.0224  0.5334
  444MOL0     C59828   2.369   9.621   6.044  0.1496  0.4751  1.3314
  444MOL0     O59829   2.410   9.758   6.032  0.3749 -0.0608  0.4287
  444MOL0     C59830   2.399   9.812   5.911 -0.0153 -0.2205  0.7637
  444MOL0     C59831   2.281   9.876   5.874  0.2797 -0.1699 -0.7582
  444MOL0     C59832   2.261   9.939   5.748  0.4834  0.7112 -0.6192
  444MOL0     C59833   2.370   9.951   5.662 -0.0493 -0.2481 -0.7010
  444MOL0     C59834   2.348  10.036   5.534 -0.5669 -0.4719 -0.2319
  444MOL0     O59835   2.224  10.021   5.481  0.2229 -0.9319  0.7120
  444MOL0     C59836   2.197  10.083   5.359 -0.1390 -0.1104 -0.0986
  444MOL0     C59837   2.256  10.041   5.243  0.4065 -0.6872  0.7990
  444MOL0     C59838   2.220  10.113   5.119 -0.4518  0.1546 -0.1538
  444MOL0     C59839   2.143  10.226   5.119 -0.0022  0.3148  0.5025
  444MOL0     O59840   2.131  10.293   5.001 -1.0121 -0.6579 -0.3072
  444MOL0     C59841   2.026  10.391   4.999 -0.0439 -0.5632 -0.2476
  444MOL0     C59842   1.988  10.451   4.867 -0.2246  0.2346 -0.6919
  444MOL0     C59843   1.863  10.383   4.806 -0.0683  0.0699 -0.8855
  444MOL0     C59844   1.872  10.231   4.810 -0.6774 -0.4961 -0.4992
  444MOL0     C59845   1.764  10.159   4.736 -0.1524 -0.0203  0.4407
  444MOL0     C59846   1.768  10.173   4.586 -0.4964  0.7943  0.3858
  444MOL0     C59847   1.644  10.103   4.522  0.7530 -0.2935  0.2272
  444MOL0     C59848   1.637  10.128   4.370 -0.0082  0.1655 -0.0789
  444MOL0    Cl59849   1.598  10.304   4.334  0.3937 -0.4824 -0.3598
  444MOL0     C59850   2.096  10.268   5.237  0.7724 -0.9258 -0.0304
  444MOL0     C59851   2.106  10.193   5.360 -0.5023  0.3670  1.5241
  444MOL0     O59852   2.443  10.094   5.479 -0.6607 -0.7005 -0.1457
  444MOL0     C59853   2.491   9.884   5.692 -0.4897  0.5620  0.6584
  444MOL0     C59854   2.504   9.819   5.818  0.1240 -0.5511 -0.5139
  444MOL0     N59855   2.373   9.051   5.947 -0.6490 -0.4007 -0.6092
  444MOL0     N59856   2.346   8.946   5.875  0.4779  0.1329 -0.0017
  444MOL0     C59857   3.392   8.577   5.859  0.4251  0.0822 -1.0291
  444MOL0     C59858   3.418   8.702   5.932 -0.6542  0.7337  0.1934
  444MOL0     C59859   3.584   9.143   5.993  0.0071 -0.4494  0.5467
  444MOL0     C59860   3.457   9.210   5.998 -0.2698 -0.1496 -0.5547
  444MOL0     C59861   3.453   9.349   6.048 -0.1287  0.3212  0.3874
  444MOL0     C59862   3.563   9.430   6.047 -0.0082 -0.5810  0.6928
  444MOL0     O59863   3.549   9.557   6.094 -0.0084  0.1139 -0.0313
  444MOL0     C59864   3.436   9.634   6.088  0.7456 -0.3126 -0.7537
  444MOL0     C59865   3.335   9.610   6.202 -0.4601 -0.3274 -0.6610
  444MOL0     C59866   3.393   9.557   6.326  0.2056  0.1260 -0.7422
  444MOL0     C59867   3.472   9.655   6.410  0.7251  0.2438  0.5588
  444MOL0     C59868   3.513   9.591   6.528 -0.2099 -0.0296  0.5575
  444MOL0     C59869   3.562   9.551   6.632  0.4789  0.0154 -0.6933
  444MOL0     C59870   3.687   9.370   6.029 -0.3368  0.6992 -0.3210
  444MOL0     C59871   3.704   9.224   6.012 -0.1154 -0.4641  0.0792
  444MOL0     C59872   3.838   9.163   6.012 -0.5517 -0.8218 -0.1289
  444MOL0     H59873   3.466   8.911   5.671 -0.6325  1.4640  0.7890
  444MOL0     H59874   3.446   8.697   5.546  1.0334 -2.0161  0.3942
  444MOL0     H59875   3.196   8.340   5.624  1.4974 -1.8779  1.0913
  444MOL0     H59876   3.187   8.433   5.772 -0.4840  0.2344 -0.7546
  444MOL0     H59877   3.105   8.511   5.499  2.1366 -0.0412 -0.8798
  444MOL0     H59878   3.174   8.636   5.604 -1.7683  0.7489  1.8498
  444MOL0     H59879   3.000   8.593   5.774 -2.2974  1.8351 -1.5982
  444MOL0     H59880   2.948   8.448   5.699  3.2068 -1.9164  0.7352
  444MOL0     H59881   2.909   8.730   5.607  0.7615  0.0577  0.1342
  444MOL0     H59882   2.856   8.588   5.510  0.5452 -0.6780 -0.1866
  444MOL0     H59883   2.691   8.529   5.657 -2.4139 -0.7227  0.4005
  444MOL0     H59884   2.762   8.612   5.802 -2.8627 -4.6864 -0.4408
  444MOL0     H59885   2.727   8.825   5.709  1.2940 -2.3690  2.3142
  444MOL0     H59886   2.666   8.769   5.563  2.6139 -2.4630 -1.4642
  444MOL0     H59887   2.514   8.708   5.817 -1.2771 -0.2628 -0.5034
  444MOL0     H59888   2.481   8.636   5.657 -1.4558  0.9621 -1.8059
  444MOL0     H59889   2.481   8.889   5.575  2.2434  1.9680  1.6964
  444MOL0     H59890   2.335   8.809   5.653 -1.7376  3.6217 -0.4111
  444MOL0     H59891   2.571   9.100   5.702 -3.3251  2.8960 -2.5762
  444MOL0     H59892   2.576   9.256   6.016 -0.5548 -0.2364  0.8121
  444MOL0     H59893   2.564   9.329   5.850 -2.2391 -1.8688 -0.9072
  444MOL0     H59894   2.330   9.377   5.913 -0.2126 -3.1016  0.0214
  444MOL0     H59895   2.369   9.342   6.084  3.5409 -0.0645  1.9020
  444MOL0     H59896   2.529   9.550   5.908  4.1959  1.5571  3.0096
  444MOL0     H59897   2.555   9.516   6.078  2.0104 -0.4562 -1.1241
  444MOL0     H59898   2.337   9.619   6.149  1.1935  2.6186  1.7299
  444MOL0     H59899   2.284   9.614   5.976  2.5344  1.3925 -2.0122
  444MOL0     H59900   2.209   9.882   5.955  1.8993 -1.7986  0.8885
  444MOL0     H59901   2.156   9.962   5.738  0.4019  2.3993  2.6552
  444MOL0     H59902   2.322   9.955   5.250  2.3879  0.8116  1.5752
  444MOL0     H59903   2.255  10.063   5.029  1.9564  0.1969  0.7061
  444MOL0     H59904   1.934  10.368   5.053 -0.6332  0.8560 -0.5931
  444MOL0     H59905   2.064  10.474   5.059 -1.7284 -2.3384  3.6185
  444MOL0     H59906   1.950  10.553   4.881 -0.0323  0.3386 -0.9197
  444MOL0     H59907   2.076  10.459   4.802  0.2804 -3.1298 -0.6005
  444MOL0     H59908   1.773  10.405   4.865  1.2781 -1.9671  2.1955
  444MOL0     H59909   1.856  10.424   4.705  1.9169 -1.1843 -1.5886
  444MOL0     H59910   1.845  10.195   4.910 -5.2382  0.2296 -1.2435
  444MOL0     H59911   1.967  10.186   4.780 -0.1553 -1.8734  2.7482
  444MOL0     H59912   1.663  10.184   4.768 -0.0683 -0.0323  0.7246
  444MOL0     H59913   1.768  10.051   4.753 -3.7099  0.0261  2.4950
  444MOL0     H59914   1.774  10.281   4.567 -0.3294  0.4266 -2.0866
  444MOL0     H59915   1.852  10.120   4.540 -0.2670 -0.6095  2.3322
  444MOL0     H59916   1.551  10.142   4.565 -0.5273 -1.1936 -1.5743
  444MOL0     H59917   1.663   9.997   4.538  1.9498 -0.6513 -2.8382
  444MOL0     H59918   1.733  10.107   4.322  0.1526 -0.6064  0.5520
  444MOL0     H59919   1.570  10.054   4.325  2.6861 -1.7318 -1.2534
  444MOL0     H59920   2.042  10.361   5.248  1.3711 -0.7126  1.3286
  444MOL0     H59921   2.055  10.222   5.451 -3.8270 -0.9318  0.2153
  444MOL0     H59922   2.574   9.900   5.625  0.5095 -1.8326  1.2511
  444MOL0     H59923   2.602   9.773   5.831  0.3602 -0.4590 -1.7631
  444MOL0     H59924   3.361   8.496   5.923 -1.7627 -0.0734 -2.1946
  444MOL0     H59925   3.423   8.705   6.040  3.4631 -0.0354  0.1931
  444MOL0     H59926   3.365   9.153   6.004  2.3559 -4.7645  1.5086
  444MOL0     H59927   3.352   9.378   6.073  0.7839  1.9166  2.5292
  444MOL0     H59928   3.387   9.621   5.991  0.9402  0.1070 -0.9088
  444MOL0     H59929   3.467   9.737   6.102 -0.7009 -0.1351  1.9228
  444MOL0     H59930   3.257   9.548   6.157 -0.6137  0.9290 -2.2548
  444MOL0     H59931   3.282   9.704   6.220 -2.5451 -1.6174  0.3608
  444MOL0     H59932   3.459   9.473   6.302 -1.1611 -1.2694  0.2027
  444MOL0     H59933   3.314   9.514   6.388  2.0119 -0.7897  1.0332
  444MOL0     H59934   3.553   9.696   6.348 -1.6536  0.0863 -2.9374
  444MOL0     H59935   3.407   9.738   6.440 -2.8233 -1.2315 -2.3654
  444MOL0     H59936   3.634   9.519   6.704  1.6431  2.5018 -0.6301
  444MOL0     H59937   3.781   9.424   6.033  1.3520 -1.6920 -3.1366
  444MOL0     H59938   3.919   9.229   6.046  1.8697 -1.7117 -3.6465
  444MOL0     H59939   3.839   9.075   6.077 -1.1069 -0.7660 -0.0414
  444MOL0     H59940   3.867   9.147   5.908  2.5174 -0.6754  0.5930
  445MOL0     O59941   3.480   5.468   4.705  0.0431  0.4152  0.1375
  445MOL0     C59942   3.363   5.449   4.714  1.0776 -0.4424  0.1911
  445MOL0     O59943   3.288   5.387   4.617  0.0615  0.5844  0.0667
  445MOL0     C59944   3.349   5.368   4.500  0.2486 -0.7925  0.3137
  445MOL0     C59945   3.401   5.240   4.476 -0.0595 -0.7141  0.7361
  445MOL0     C59946   3.472   5.204   4.365 -0.8905  0.1903 -1.0461
  445MOL0     C59947   3.481   5.298   4.262 -0.1945  0.3982  1.3611
  445MOL0     O59948   3.559   5.280   4.148  0.6958  0.7918 -0.4342
  445MOL0     C59949   3.586   5.152   4.087  0.9218  0.0048 -1.0156
  445MOL0     C59950   3.735   5.148   4.099  0.1650 -0.0872 -0.0380
  445MOL0     C59951   3.784   5.132   4.236 -0.2358  0.3969 -0.4451
  445MOL0     C59952   3.941   5.136   4.235 -0.1147 -0.5038  0.1833
  445MOL0     C59953   3.999   5.095   4.368  0.1875  0.3201  0.2659
  445MOL0     C59954   4.148   5.066   4.370 -0.8591  0.6317  0.1724
  445MOL0     C59955   4.199   5.022   4.518  0.1939  0.3882 -0.1963
  445MOL0     C59956   4.345   4.974   4.515 -0.6543  0.2186 -0.1176
  445MOL0     N59957   4.391   4.887   4.629  0.5517 -0.7290  0.1120
  445MOL0     C59958   4.484   4.916   4.732 -0.3019  0.0269  0.7500
  445MOL0     C59959   4.468   4.815   4.817  0.0804  0.1647  0.2799
  445MOL0     C59960   4.557   4.791   4.934  0.2982 -0.0998 -0.8515
  445MOL0     C59961   4.553   4.649   4.986  0.8647  0.2680  0.2415
  445MOL0     C59962   4.643   4.644   5.105 -0.0047  0.4849 -0.5433
  445MOL0     C59963   4.628   4.507   5.178  0.1952 -0.8530  0.5044
  445MOL0     O59964   4.502   4.491   5.240  0.7523 -0.0035  0.1675
  445MOL0     C59965   4.462   4.360   5.268 -0.0995  0.2776 -0.2702
  445MOL0     C59966   4.326   4.344   5.289  0.4507  0.6568 -0.8165
  445MOL0     C59967   4.267   4.225   5.304 -0.5322  0.5013  0.4376
  445MOL0     C59968   4.340   4.108   5.319 -0.2325  0.5691  0.2415
  445MOL0     C59969   4.272   3.979   5.337  0.2212 -0.0142  0.2602
  445MOL0     O59970   4.139   3.981   5.357  0.0975 -0.9643 -0.1914
  445MOL0     C59971   4.069   3.858   5.358 -0.3016 -0.0324 -0.6308
  445MOL0     C59972   4.037   3.788   5.245 -0.1364  0.6388 -0.1371
  445MOL0     C59973   3.994   3.652   5.249 -0.8248  0.2809 -0.0009
  445MOL0     C59974   3.950   3.598   5.373  0.0657  0.8947  0.4708
  445MOL0     O59975   3.900   3.469   5.400 -0.1690  0.3257  0.2689
  445MOL0     C59976   3.876   3.380   5.298 -0.4413 -0.1837 -0.3536
  445MOL0     C59977   3.809   3.244   5.350 -0.5675  0.2659 -0.9516
  445MOL0     C59978   3.685   3.266   5.432  0.1304 -0.5174 -1.2632
  445MOL0     C59979   3.558   3.294   5.347  0.3660 -0.1902  0.0257
  445MOL0     C59980   3.430   3.312   5.429 -0.6421 -0.6707  0.5326
  445MOL0     C59981   3.374   3.194   5.510 -0.3546  0.1762  0.5111
  445MOL0     C59982   3.231   3.234   5.564 -0.0193 -0.4438  0.5943
  445MOL0     C59983   3.151   3.118   5.613 -0.6728 -0.6212 -0.5471
  445MOL0    Cl59984   3.075   3.040   5.476 -0.0849 -0.0099  0.8201
  445MOL0     C59985   3.975   3.679   5.482  0.4381 -1.0592 -0.6888
  445MOL0     C59986   4.040   3.804   5.484 -0.6627  0.7889  0.4039
  445MOL0     O59987   4.340   3.875   5.333  0.4990  0.6669  0.7246
  445MOL0     C59988   4.481   4.114   5.295  0.4375 -0.1640 -0.3593
  445MOL0     C59989   4.535   4.242   5.259  0.8207 -0.2744 -0.0368
  445MOL0     N59990   4.369   4.730   4.781  0.3116 -0.4866 -0.3689
  445MOL0     N59991   4.325   4.770   4.665 -1.0174  0.6237 -0.5238
  445MOL0     C59992   3.436   5.429   4.279  0.4289  0.3003  0.6275
  445MOL0     C59993   3.374   5.464   4.391  0.1122  0.6519 -0.1991
  445MOL0     C59994   3.298   5.507   4.826  0.8907  0.9545 -0.0084
  445MOL0     C59995   3.177   5.573   4.795 -0.4280 -0.2956  0.6766
  445MOL0     C59996   3.107   5.647   4.884 -0.0895 -0.1339  0.3565
  445MOL0     C59997   3.156   5.641   5.023  0.3629 -1.0753 -0.1574
  445MOL0     O59998   3.103   5.712   5.130  0.5294  0.0870  0.1632
  445MOL0     C59999   2.967   5.759   5.115 -0.4203  0.6938  0.6209
  445MOL0     C60000   2.933   5.845   5.231 -0.1805  0.6073  0.1131
  445MOL0     C60001   2.866   5.763   5.347  0.1110  0.1572  0.4621
  445MOL0     C60002   2.844   5.851   5.472 -1.2199 -0.3084  0.4334
  445MOL0     C60003   2.771   5.803   5.588  0.0160 -0.4646 -0.4031
  445MOL0     C60004   2.704   5.751   5.674  0.1497  0.3855 -0.5105
  445MOL0     C60005   3.276   5.573   5.058  0.0593  0.4339  0.1407
  445MOL0     C60006   3.346   5.506   4.963  1.2497 -1.0391  0.3780
  445MOL0     C60007   3.459   5.426   5.004  0.2505  0.7993  0.2110
  445MOL0     H60008   3.384   5.159   4.546 -1.2554 -0.4997  0.6995
  445MOL0     H60009   3.511   5.103   4.357  1.7715  1.0225  0.4290
  445MOL0     H60010   3.537   5.067   4.134 -2.5969  1.2260 -2.1492
  445MOL0     H60011   3.560   5.155   3.981  3.8908  0.8123 -1.8045
  445MOL0     H60012   3.787   5.227   4.044  0.1734 -0.6240 -0.8076
  445MOL0     H60013   3.744   5.050   4.051 -0.8762 -0.6551  0.8837
  445MOL0     H60014   3.746   5.035   4.269 -4.3567  2.1255  0.4803
  445MOL0     H60015   3.746   5.208   4.305 -1.7645 -1.8992  1.4046
  445MOL0     H60016   3.969   5.074   4.149 -1.8179 -3.5836  1.7064
  445MOL0     H60017   3.963   5.242   4.220 -1.0738 -0.3885 -0.5031
  445MOL0     H60018   3.972   5.170   4.443  2.6776  2.2976 -0.6735
  445MOL0     H60019   3.952   4.998   4.386  0.1613  0.7340  2.9422
  445MOL0     H60020   4.162   4.974   4.312  0.4609  0.9019  0.0310
  445MOL0     H60021   4.217   5.132   4.317 -0.1726  1.5136  2.0678
  445MOL0     H60022   4.144   4.935   4.555  0.0207  0.6173  0.0860
  445MOL0     H60023   4.181   5.103   4.590 -3.1768  0.7393 -1.2554
  445MOL0     H60024   4.356   4.907   4.429  0.4458 -4.7712  3.4508
  445MOL0     H60025   4.417   5.056   4.513  1.4488 -1.5230 -0.2851
  445MOL0     H60026   4.558   4.995   4.743  0.0872 -0.1353 -0.5265
  445MOL0     H60027   4.663   4.811   4.914  0.0194  1.0856 -1.2582
  445MOL0     H60028   4.524   4.854   5.017  0.6441  0.3689 -1.0578
  445MOL0     H60029   4.450   4.635   5.019  0.7559  1.0210  0.2441
  445MOL0     H60030   4.586   4.573   4.914  4.8551  1.2645  0.7822
  445MOL0     H60031   4.633   4.716   5.187 -0.2287 -2.4520  2.1958
  445MOL0     H60032   4.746   4.648   5.069 -0.0044  3.2094 -0.4503
  445MOL0     H60033   4.706   4.515   5.254  2.0186 -1.4550 -1.2071
  445MOL0     H60034   4.656   4.425   5.111 -1.0759 -1.5122  0.7584
  445MOL0     H60035   4.274   4.440   5.289 -1.6865 -0.4390  0.5467
  445MOL0     H60036   4.158   4.222   5.308 -0.5930  1.5910 -0.0889
  445MOL0     H60037   4.067   3.834   5.151  0.8038  0.6637  0.1615
  445MOL0     H60038   3.971   3.606   5.154  1.8424  1.2282 -1.1800
  445MOL0     H60039   3.808   3.421   5.224 -2.5384 -0.7493  1.1803
  445MOL0     H60040   3.972   3.363   5.246  1.1230  0.1663  2.2472
  445MOL0     H60041   3.785   3.180   5.265 -2.3321  0.0969 -0.3751
  445MOL0     H60042   3.879   3.188   5.414 -0.2040  0.3879 -1.2428
  445MOL0     H60043   3.666   3.178   5.495 -1.5714 -0.2782 -1.3931
  445MOL0     H60044   3.695   3.344   5.507 -1.9967 -2.2483  0.9635
  445MOL0     H60045   3.551   3.214   5.273 -1.7387  1.4964 -1.7545
  445MOL0     H60046   3.575   3.384   5.288  1.9993  0.0942  0.8715
  445MOL0     H60047   3.351   3.355   5.365 -2.8546 -0.6298  3.0838
  445MOL0     H60048   3.452   3.388   5.505 -0.5867  1.3733 -1.4336
  445MOL0     H60049   3.379   3.106   5.445 -1.2200 -1.0542  2.0368
  445MOL0     H60050   3.427   3.183   5.605 -3.2711 -0.8859  2.1250
  445MOL0     H60051   3.173   3.292   5.492  1.8177  1.3723  0.5099
  445MOL0     H60052   3.244   3.292   5.656  2.4531 -1.4330  0.9448
  445MOL0     H60053   3.213   3.049   5.671  1.2710  0.9261 -0.6764
  445MOL0     H60054   3.068   3.153   5.675  0.0818  1.6212 -0.7146
  445MOL0     H60055   3.932   3.639   5.573 -1.6353 -1.5149 -1.7992
  445MOL0     H60056   4.071   3.871   5.563  3.0348 -0.0014 -0.1801
  445MOL0     H60057   4.549   4.029   5.303  1.9123  1.0632  0.8183
  445MOL0     H60058   4.641   4.243   5.232  0.6949 -1.5642 -0.6623
  445MOL0     H60059   3.428   5.504   4.201 -0.4316  0.7395  1.1190
  445MOL0     H60060   3.346   5.567   4.413  1.4336  0.4732  2.8175
  445MOL0     H60061   3.149   5.574   4.690  0.4619 -2.6372  0.3437
  445MOL0     H60062   3.024   5.710   4.851 -0.6666 -1.4468 -0.8403
  445MOL0     H60063   2.907   5.668   5.106 -0.1213  0.6165 -0.7826
  445MOL0     H60064   2.958   5.831   5.033 -0.4483 -1.1085 -1.0357
  445MOL0     H60065   2.859   5.921   5.202 -0.4222 -0.3973 -2.0859
  445MOL0     H60066   3.031   5.885   5.257  1.4933 -0.8851 -3.2758
  445MOL0     H60067   2.935   5.685   5.378  0.9734  0.4708 -0.6067
  445MOL0     H60068   2.778   5.716   5.301 -0.1335  1.1934 -0.1762
  445MOL0     H60069   2.941   5.893   5.500 -2.2496  2.3370  0.3601
  445MOL0     H60070   2.787   5.936   5.435 -0.8091 -0.2953 -0.1865
  445MOL0     H60071   2.654   5.693   5.749 -0.3713  0.9046 -0.4504
  445MOL0     H60072   3.294   5.572   5.165 -1.9430 -0.9462  0.5051
  445MOL0     H60073   3.550   5.474   4.966  1.2356 -1.8440 -0.9818
  445MOL0     H60074   3.459   5.419   5.114 -2.2512 -1.3543  0.1480
  445MOL0     H60075   3.451   5.323   4.970  1.2318 -0.0546  2.3234
  446MOL0     O60076  10.245   9.368   8.460  0.5576 -0.9089 -0.7340
  446MOL0     C60077  10.354   9.405   8.511 -0.0858  0.1527 -0.2173
  446MOL0     O60078  10.461   9.444   8.443 -0.1688  0.4250 -0.4688
  446MOL0     C60079  10.459   9.446   8.310 -0.3245 -1.0969 -0.7713
  446MOL0     C60080  10.463   9.571   8.236 -0.1166  0.8007 -0.2870
  446MOL0     C60081  10.465   9.580   8.091 -0.3920  0.0002 -0.9373
  446MOL0     C60082  10.467   9.462   8.031 -0.9801  0.9176  0.4386
  446MOL0     O60083  10.473   9.456   7.894 -0.6006  0.6327  0.0996
  446MOL0     C60084  10.419   9.570   7.826  0.1483  1.0735  0.2761
  446MOL0     C60085  10.379   9.516   7.680 -0.5249 -0.0510  0.0083
  446MOL0     C60086  10.330   9.624   7.586 -0.0221 -0.8657 -0.3202
  446MOL0     C60087  10.348   9.583   7.437 -0.6004 -0.7363 -0.2298
  446MOL0     C60088  10.485   9.580   7.382 -0.6355  0.6934 -0.2671
  446MOL0     C60089  10.479   9.556   7.226  0.4511  0.6288  0.7229
  446MOL0     C60090  10.590   9.623   7.149  0.8917 -0.0748  0.4579
  446MOL0     C60091  10.727   9.562   7.174 -0.3518 -0.8919 -0.3966
  446MOL0     N60092  10.728   9.423   7.135  0.2816 -0.4733 -0.5766
  446MOL0     C60093  10.752   9.315   7.219 -0.0888 -0.2134 -0.6705
  446MOL0     C60094  10.773   9.208   7.139  0.0783 -0.8522 -0.3313
  446MOL0     C60095  10.809   9.067   7.178 -0.0075 -0.1172 -0.3607
  446MOL0     C60096  10.696   8.964   7.133 -0.2082  0.0930 -0.4451
  446MOL0     C60097  10.719   8.840   7.229 -0.5871 -0.3385  1.0611
  446MOL0     C60098  10.608   8.734   7.234 -0.6295 -0.5931  0.3497
  446MOL0     O60099  10.489   8.788   7.293 -0.0490 -0.3538 -0.2427
  446MOL0     C60100  10.384   8.694   7.294  0.1632  0.0263 -0.0634
  446MOL0     C60101  10.261   8.742   7.312 -0.2702 -0.5709  0.2247
  446MOL0     C60102  10.152   8.650   7.319  1.0558  0.4029 -0.6630
  446MOL0     C60103  10.166   8.516   7.300  0.5640  0.5541 -0.0618
  446MOL0     C60104  10.040   8.426   7.289  0.4999 -0.8968  0.1445
  446MOL0     O60105  10.055   8.315   7.220  0.5524  0.6059 -0.0786
  446MOL0     C60106   9.969   8.205   7.228  0.9437  0.8013  0.3547
  446MOL0     C60107   9.956   8.132   7.112 -0.5941  0.1224  0.0409
  446MOL0     C60108   9.889   8.012   7.104 -0.9541 -1.1013  0.5803
  446MOL0     C60109   9.815   7.966   7.202  0.0298  0.5821 -0.0474
  446MOL0     O60110   9.743   7.850   7.192  0.1635  0.0875 -0.1569
  446MOL0     C60111   9.637   7.858   7.101 -0.7869 -0.5110 -0.4810
  446MOL0     C60112   9.504   7.823   7.168  0.6204 -1.0289 -0.0646
  446MOL0     C60113   9.470   7.919   7.282 -1.1894 -0.5959  0.4318
  446MOL0     C60114   9.323   7.934   7.331 -0.2176  1.2179 -0.1226
  446MOL0     C60115   9.292   7.825   7.425  0.0952  0.3564 -0.6375
  446MOL0     C60116   9.155   7.845   7.475  0.0115  0.6300  0.7655
  446MOL0     C60117   9.128   7.964   7.567 -0.2481 -0.5501 -0.9377
  446MOL0     C60118   9.211   7.973   7.695  0.3870  0.6732  0.6410
  446MOL0    Cl60119   9.150   8.091   7.813 -0.1439 -0.7587 -0.1980
  446MOL0     C60120   9.796   8.052   7.314  0.1712 -1.0924 -0.1621
  446MOL0     C60121   9.874   8.170   7.327  0.3345  0.5890  0.4184
  446MOL0     O60122   9.939   8.459   7.348 -0.5018 -0.4292 -0.2049
  446MOL0     C60123  10.290   8.464   7.289 -0.1701 -0.4475  0.8750
  446MOL0     C60124  10.400   8.554   7.288  0.6067  0.5033  0.2335
  446MOL0     N60125  10.745   9.254   7.009 -0.0038 -0.8935 -0.2117
  446MOL0     N60126  10.726   9.379   7.012  0.0101 -0.0218  0.2050
  446MOL0     C60127  10.478   9.341   8.101 -0.3933  0.2894 -0.4428
  446MOL0     C60128  10.474   9.329   8.238  0.0616 -0.8323 -0.1357
  446MOL0     C60129  10.374   9.411   8.656 -0.0476 -0.2207  0.0880
  446MOL0     C60130  10.485   9.476   8.711 -0.1234  0.2703 -0.1856
  446MOL0     C60131  10.524   9.466   8.842 -0.2598  0.2094 -0.2629
  446MOL0     C60132  10.442   9.395   8.936 -0.4125 -0.5932  0.0647
  446MOL0     O60133  10.452   9.393   9.074 -0.7649  0.0050  0.8273
  446MOL0     C60134  10.522   9.497   9.147 -0.2150 -0.8022  0.3718
  446MOL0     C60135  10.669   9.477   9.173  0.5075  0.0772 -0.7714
  446MOL0     C60136  10.719   9.589   9.271 -0.5491 -0.7449  0.1387
  446MOL0     C60137  10.741   9.725   9.203 -0.6199  0.9751 -0.5338
  446MOL0     C60138  10.879   9.762   9.155 -0.2839  1.3602 -0.0274
  446MOL0     C60139  10.985   9.809   9.119  0.9735 -0.0348  0.0467
  446MOL0     C60140  10.335   9.327   8.886 -0.5931  0.5445  0.8872
  446MOL0     C60141  10.304   9.330   8.749  0.0895 -0.0138  0.7790
  446MOL0     C60142  10.174   9.250   8.718  0.2449 -0.1702  0.0359
  446MOL0     H60143  10.466   9.669   8.282 -1.6620 -0.1704  2.0406
  446MOL0     H60144  10.470   9.676   8.041 -0.5285  0.7124  0.3658
  446MOL0     H60145  10.328   9.609   7.871 -1.5300  2.9749 -4.2356
  446MOL0     H60146  10.495   9.648   7.829  0.0650  1.1807  4.0275
  446MOL0     H60147  10.308   9.435   7.699  1.1500 -1.5919 -0.0126
  446MOL0     H60148  10.452   9.459   7.622 -3.0995 -3.1025 -0.4997
  446MOL0     H60149  10.384   9.716   7.609  0.2365 -1.7581  3.3100
  446MOL0     H60150  10.223   9.632   7.606 -0.0418 -1.9814  0.1133
  446MOL0     H60151  10.313   9.479   7.437 -0.9966 -0.6388 -1.8514
  446MOL0     H60152  10.287   9.653   7.378  0.4935  0.2330 -0.2434
  446MOL0     H60153  10.537   9.673   7.404 -1.7668  1.2696  0.0272
  446MOL0     H60154  10.541   9.494   7.422 -2.2540 -0.8057 -1.0625
  446MOL0     H60155  10.477   9.448   7.211 -0.5377  0.8713 -1.3486
  446MOL0     H60156  10.391   9.601   7.179  1.2697  2.4308  0.8407
  446MOL0     H60157  10.594   9.725   7.188 -0.0695  0.1606 -0.0482
  446MOL0     H60158  10.573   9.630   7.042 -1.0436 -0.6180  0.7061
  446MOL0     H60159  10.798   9.623   7.116  0.4608  1.9598  3.2347
  446MOL0     H60160  10.752   9.582   7.278 -1.0545  1.6182 -0.6395
  446MOL0     H60161  10.772   9.329   7.325  0.3183  1.4652 -0.9474
  446MOL0     H60162  10.899   9.024   7.134  0.5643 -0.6914  1.3102
  446MOL0     H60163  10.818   9.056   7.286 -0.8766 -0.7677 -0.3391
  446MOL0     H60164  10.595   9.002   7.149 -0.6415  0.1808 -2.9690
  446MOL0     H60165  10.700   8.934   7.028 -0.6869 -1.0228 -0.1613
  446MOL0     H60166  10.720   8.880   7.331 -2.1675  0.0967  0.9317
  446MOL0     H60167  10.817   8.801   7.200 -3.0110 -4.7515 -2.7403
  446MOL0     H60168  10.646   8.646   7.287  2.4228 -0.2604 -1.0584
  446MOL0     H60169  10.586   8.703   7.132 -0.2086  0.7367 -0.1631
  446MOL0     H60170  10.254   8.850   7.319 -2.0870 -0.7515  3.0669
  446MOL0     H60171  10.057   8.699   7.338  1.8201  0.8427  2.6186
  446MOL0     H60172  10.031   8.158   7.038 -0.4619 -0.9527 -0.2107
  446MOL0     H60173   9.917   7.955   7.016 -1.4993 -1.5345  0.6868
  446MOL0     H60174   9.621   7.959   7.062 -2.8513  1.4360  4.5615
  446MOL0     H60175   9.651   7.796   7.012 -1.1701  0.2379 -1.0688
  446MOL0     H60176   9.432   7.826   7.086  1.3630  0.1513 -0.6943
  446MOL0     H60177   9.501   7.723   7.211 -2.8044 -2.4401 -3.0869
  446MOL0     H60178   9.539   7.913   7.366 -0.9555  0.9491  0.3682
  446MOL0     H60179   9.489   8.016   7.235  2.6558 -1.0143  0.8634
  446MOL0     H60180   9.247   7.942   7.253  1.1496  1.4252 -1.4840
  446MOL0     H60181   9.313   8.035   7.373  0.6331  2.2031 -2.1657
  446MOL0     H60182   9.369   7.813   7.502 -1.2780 -2.1129  0.4494
  446MOL0     H60183   9.309   7.730   7.375  4.5671  0.3899  0.3712
  446MOL0     H60184   9.081   7.863   7.397  0.3622  2.4680  0.8262
  446MOL0     H60185   9.131   7.748   7.521  3.2146 -0.4519  0.4416
  446MOL0     H60186   9.022   7.959   7.591  0.2242  1.5946  2.2325
  446MOL0     H60187   9.137   8.061   7.517  0.0647  0.3047  0.7238
  446MOL0     H60188   9.219   7.874   7.741  0.2618  0.8786  1.1145
  446MOL0     H60189   9.309   8.003   7.655 -0.7136  4.2446  0.2272
  446MOL0     H60190   9.738   8.022   7.401 -0.8586  3.3320  0.9138
  446MOL0     H60191   9.859   8.216   7.425  0.9535 -0.7841  1.1941
  446MOL0     H60192  10.313   8.358   7.277  1.5328 -0.3534  2.7532
  446MOL0     H60193  10.495   8.502   7.276  1.9143  2.3223  2.0934
  446MOL0     H60194  10.475   9.245   8.050 -1.9646 -0.5082  1.0522
  446MOL0     H60195  10.472   9.233   8.288 -0.2663  0.4926  2.6116
  446MOL0     H60196  10.548   9.537   8.646 -2.5935  4.7040  1.1368
  446MOL0     H60197  10.620   9.511   8.868 -0.5176  0.2230  0.6822
  446MOL0     H60198  10.470   9.519   9.240  0.7536  0.7554  0.5894
  446MOL0     H60199  10.520   9.587   9.084 -0.9012 -2.3263 -1.8903
  446MOL0     H60200  10.733   9.473   9.084  1.0152  0.0867 -0.4117
  446MOL0     H60201  10.670   9.379   9.221 -3.3289  0.6890  0.9119
  446MOL0     H60202  10.818   9.556   9.304  0.6766 -1.3043 -3.5582
  446MOL0     H60203  10.653   9.604   9.357  1.3659  1.6512  1.3151
  446MOL0     H60204  10.676   9.743   9.116 -0.9546 -0.1421 -0.5324
  446MOL0     H60205  10.709   9.801   9.275 -0.2665  2.4551 -1.8758
  446MOL0     H60206  11.081   9.845   9.088  0.8550  0.4412  0.2136
  446MOL0     H60207  10.272   9.268   8.951  0.9514 -0.4938  1.5111
  446MOL0     H60208  10.141   9.198   8.809  0.4635 -0.3972 -0.0136
  446MOL0     H60209  10.090   9.313   8.686  1.1853  0.7136 -0.7650
  446MOL0     H60210  10.188   9.182   8.633  0.5962  0.6677 -0.5909
  447MOL0     O60211   8.768   0.448   0.399 -0.3360 -0.5102  0.0786
  447MOL0     C60212   8.888   0.470   0.420  0.2271  0.3309 -0.2408
  447MOL0     O60213   8.934   0.596   0.454  0.4064  0.6070 -0.1806
  447MOL0     C60214   8.848   0.701   0.505 -0.2285  1.0276 -0.0163
  447MOL0     C60215   8.877   0.756   0.628  0.6847  0.3762 -0.3605
  447MOL0     C60216   8.802   0.861   0.680 -0.6895  0.2100  0.5623
  447MOL0     C60217   8.689   0.912   0.612  0.4526 -0.0509 -0.6291
  447MOL0     O60218   8.616   1.011   0.666  0.0888  0.0402 -0.2529
  447MOL0     C60219   8.673   1.147   0.649 -0.1158  0.8010 -0.3869
  447MOL0     C60220   8.600   1.235   0.541 -0.7383 -0.5408  0.2226
  447MOL0     C60221   8.687   1.220   0.421 -0.1999  0.4640  0.1599
  447MOL0     C60222   8.660   1.346   0.335  1.2521  0.6669 -1.0744
  447MOL0     C60223   8.710   1.332   0.194  0.0434  0.3043  0.5103
  447MOL0     C60224   8.855   1.315   0.195 -0.5587 -0.8202  0.1169
  447MOL0     C60225   8.901   1.292   0.050 -0.4227 -0.5724 -0.9218
  447MOL0     C60226   9.053   1.252   0.054  0.1829 -0.6192  0.1320
  447MOL0     N60227   9.103   1.260  -0.084 -0.3972 -0.6951  0.5321
  447MOL0     C60228   9.045   1.190  -0.188 -0.4404  0.3311 -0.5574
  447MOL0     C60229   9.137   1.183  -0.283  0.0706  0.4699  0.4074
  447MOL0     C60230   9.119   1.114  -0.412  0.0574  0.0527 -0.6035
  447MOL0     C60231   9.139   0.973  -0.397  0.2147  0.4793 -0.2457
  447MOL0     C60232   9.146   0.916  -0.538  0.2018  0.9664  0.5684
  447MOL0     C60233   9.208   0.779  -0.552  0.8074  0.4312 -0.3260
  447MOL0     O60234   9.312   0.749  -0.452 -0.1127 -0.2963 -0.5591
  447MOL0     C60235   9.436   0.770  -0.502 -0.0316 -0.0165 -0.0573
  447MOL0     C60236   9.474   0.867  -0.606  0.0518  0.5555  0.2660
  447MOL0     C60237   9.609   0.877  -0.636 -0.1519 -0.6020  0.0568
  447MOL0     C60238   9.705   0.831  -0.559 -0.2232  0.5978 -0.5269
  447MOL0     C60239   9.843   0.856  -0.595 -0.1693  0.0346 -0.0291
  447MOL0     O60240   9.937   0.829  -0.489 -0.7898  0.0760 -0.9516
  447MOL0     C60241  10.060   0.896  -0.492  0.8298 -0.4281  0.2860
  447MOL0     C60242  10.087   1.004  -0.409  0.3662 -0.6548  0.8837
  447MOL0     C60243  10.216   1.063  -0.422  0.2036  0.6362  1.0386
  447MOL0     C60244  10.310   1.022  -0.523 -0.4762  0.4686 -0.1299
  447MOL0     O60245  10.437   1.079  -0.513 -0.2100 -0.1896  0.3298
  447MOL0     C60246  10.560   1.042  -0.581  0.9470 -0.6520  0.1814
  447MOL0     C60247  10.666   1.135  -0.539 -0.6736 -0.5445 -0.2692
  447MOL0     C60248  10.803   1.066  -0.548  0.8669  0.4119  0.6448
  447MOL0     C60249  10.826   0.982  -0.674  0.1680 -0.7232  0.2267
  447MOL0     C60250  10.829   1.057  -0.811 -0.5990  0.3703  0.8181
  447MOL0     C60251  10.891   0.959  -0.917  0.8931 -0.1418  0.0949
  447MOL0     C60252  10.946   1.047  -1.028 -0.5179  0.2412  0.0761
  447MOL0     C60253  11.023   0.964  -1.131  0.1794 -0.7793 -0.3575
  447MOL0    Cl60254  11.078   1.067  -1.258  0.6606 -0.1835  0.1761
  447MOL0     C60255  10.271   0.910  -0.604 -0.3005 -0.0664  1.2059
  447MOL0     C60256  10.146   0.851  -0.597 -0.0090  1.0855 -0.0590
  447MOL0     O60257   9.873   0.891  -0.711 -0.4078 -0.0777 -0.1823
  447MOL0     C60258   9.675   0.732  -0.460 -0.2705  0.4126  0.0657
  447MOL0     C60259   9.537   0.709  -0.430 -0.8312  0.8027 -0.4685
  447MOL0     N60260   9.255   1.238  -0.234  0.3062  0.4466 -0.5511
  447MOL0     N60261   9.236   1.284  -0.112 -0.2200 -0.0989 -0.6243
  447MOL0     C60262   8.662   0.866   0.487 -0.0408 -0.9085  0.2856
  447MOL0     C60263   8.745   0.762   0.428  0.5740  0.2780 -0.7849
  447MOL0     C60264   8.985   0.363   0.378  0.2240 -0.7446  0.1938
  447MOL0     C60265   9.113   0.379   0.409 -0.5938  0.1654 -0.0633
  447MOL0     C60266   9.215   0.282   0.394  0.0446  0.3610  0.3168
  447MOL0     C60267   9.194   0.170   0.316 -0.6905  0.0752 -0.9353
  447MOL0     O60268   9.288   0.078   0.295 -0.6975  0.2556  0.5468
  447MOL0     C60269   9.410   0.141   0.253 -0.2269 -0.1763 -0.9285
  447MOL0     C60270   9.418   0.229   0.138 -0.1742 -0.3424  1.6162
  447MOL0     C60271   9.551   0.274   0.074 -0.3149 -0.4066 -0.2127
  447MOL0     C60272   9.602   0.156  -0.010  0.3404  0.8055 -0.8521
  447MOL0     C60273   9.516   0.146  -0.127 -0.5471 -1.0355 -0.0284
  447MOL0     C60274   9.449   0.123  -0.222  0.2582  1.1175 -0.5748
  447MOL0     C60275   9.062   0.141   0.295 -0.0193 -0.4077  0.0335
  447MOL0     C60276   8.959   0.238   0.322  0.5753  0.6457 -0.8840
  447MOL0     C60277   8.827   0.195   0.275 -0.2014 -0.5078 -0.2371
  447MOL0     H60278   8.957   0.717   0.691 -1.6589  2.4925  4.4906
  447MOL0     H60279   8.827   0.902   0.777 -1.3521 -1.7052  1.5949
  447MOL0     H60280   8.654   1.204   0.740 -1.0846  0.0312 -0.0914
  447MOL0     H60281   8.783   1.149   0.652 -0.0105  0.5802 -2.5543
  447MOL0     H60282   8.600   1.340   0.572 -0.0973 -0.6410  0.5921
  447MOL0     H60283   8.497   1.202   0.535 -1.1546  0.5337  1.0669
  447MOL0     H60284   8.664   1.135   0.356  2.5878 -0.5122  0.3002
  447MOL0     H60285   8.794   1.213   0.443 -0.2242  2.0117  0.9122
  447MOL0     H60286   8.551   1.348   0.325  0.7706 -4.9465 -0.1426
  447MOL0     H60287   8.693   1.436   0.388  1.3019 -0.3366  0.6675
  447MOL0     H60288   8.663   1.248   0.144  0.5166  1.2255 -1.5951
  447MOL0     H60289   8.676   1.421   0.139  0.9629  0.2987 -0.0945
  447MOL0     H60290   8.912   1.401   0.230 -0.5094 -0.9858  0.4403
  447MOL0     H60291   8.887   1.230   0.256 -2.3948 -0.7962  1.1950
  447MOL0     H60292   8.890   1.387  -0.004  0.7886  0.7598  1.0430
  447MOL0     H60293   8.844   1.223  -0.012 -0.1890  0.7891 -2.7686
  447MOL0     H60294   9.107   1.321   0.119  2.2149 -1.8923 -0.1125
  447MOL0     H60295   9.065   1.155   0.103  1.7927 -0.3739  0.2981
  447MOL0     H60296   8.941   1.160  -0.191 -0.6661  1.0910 -0.4950
  447MOL0     H60297   9.019   1.127  -0.454 -0.5578  1.8781  1.2625
  447MOL0     H60298   9.190   1.160  -0.481  1.0764 -2.6443 -1.4812
  447MOL0     H60299   9.223   0.952  -0.329 -0.0809  0.4653  0.1204
  447MOL0     H60300   9.052   0.943  -0.337  1.5512 -1.1894  0.9846
  447MOL0     H60301   9.186   0.985  -0.613  1.0103  0.1146  0.1875
  447MOL0     H60302   9.043   0.900  -0.572  0.6345 -3.5352  0.7712
  447MOL0     H60303   9.247   0.754  -0.652 -2.4058 -3.1574 -0.9209
  447MOL0     H60304   9.129   0.704  -0.542  2.1874 -1.4948 -2.4956
  447MOL0     H60305   9.405   0.923  -0.669  0.0637  0.2903  0.0175
  447MOL0     H60306   9.635   0.930  -0.727  1.1964 -2.1133 -0.4643
  447MOL0     H60307  10.016   1.027  -0.331 -0.3596  0.7184 -0.1504
  447MOL0     H60308  10.249   1.134  -0.347  3.6357 -0.8634  1.1372
  447MOL0     H60309  10.578   0.943  -0.538  0.6773 -1.4299 -1.4118
  447MOL0     H60310  10.541   1.035  -0.689 -1.0709  0.1402  0.4375
  447MOL0     H60311  10.672   1.227  -0.597  0.5397  0.2860  1.1161
  447MOL0     H60312  10.647   1.161  -0.435 -1.5921  1.2743 -0.8513
  447MOL0     H60313  10.868   1.153  -0.547 -1.7455  2.5708 -0.9748
  447MOL0     H60314  10.825   1.013  -0.455  0.6719 -0.0992  0.4060
  447MOL0     H60315  10.748   0.906  -0.685  0.2764 -1.0069  1.2747
  447MOL0     H60316  10.920   0.927  -0.678  0.4635 -0.1751 -0.7414
  447MOL0     H60317  10.890   1.146  -0.794  1.3029  0.7773 -5.5358
  447MOL0     H60318  10.727   1.077  -0.847  0.5629  0.0586 -3.1261
  447MOL0     H60319  10.965   0.886  -0.883 -1.2081 -3.0965 -1.1813
  447MOL0     H60320  10.805   0.905  -0.958 -0.5392  4.3607 -3.6506
  447MOL0     H60321  11.012   1.118  -0.977 -1.2454  0.4379  0.7584
  447MOL0     H60322  10.866   1.107  -1.072  0.6584  3.3502  1.8781
  447MOL0     H60323  11.112   0.919  -1.087  1.3962  0.1127 -1.8178
  447MOL0     H60324  10.960   0.885  -1.172  1.9159 -0.8363 -3.1184
  447MOL0     H60325  10.342   0.860  -0.668 -0.4330  0.4404  0.6488
  447MOL0     H60326  10.114   0.770  -0.661 -1.4454 -0.0906  2.0345
  447MOL0     H60327   9.753   0.690  -0.397 -2.5257 -2.1487  1.3849
  447MOL0     H60328   9.505   0.640  -0.353 -3.0094 -1.0173 -2.8436
  447MOL0     H60329   8.587   0.914   0.425  0.0528  3.7410  3.2692
  447MOL0     H60330   8.717   0.734   0.327 -0.0641  2.2467 -1.1938
  447MOL0     H60331   9.147   0.474   0.450  1.3537  0.3927 -1.9751
  447MOL0     H60332   9.309   0.311   0.441  1.1384  2.9259 -3.0515
  447MOL0     H60333   9.466   0.053   0.220 -0.7732 -0.5008 -1.0035
  447MOL0     H60334   9.462   0.193   0.334  2.6945 -0.9402 -2.1865
  447MOL0     H60335   9.373   0.324   0.168  4.3993  1.9626  2.0146
  447MOL0     H60336   9.350   0.196   0.059 -1.5667  1.9808  1.7614
  447MOL0     H60337   9.619   0.297   0.157 -2.5527 -1.6795  2.0937
  447MOL0     H60338   9.537   0.364   0.013  1.6916  0.3347  0.3300
  447MOL0     H60339   9.709   0.158  -0.034  0.9104  1.1555  1.4526
  447MOL0     H60340   9.599   0.053   0.029 -1.3378  0.8435 -0.8405
  447MOL0     H60341   9.395   0.101  -0.312  2.3512  1.0532 -1.8809
  447MOL0     H60342   9.033   0.040   0.267 -2.4094 -0.0421  0.9189
  447MOL0     H60343   8.756   0.198   0.359  1.4672 -0.3015  1.2236
  447MOL0     H60344   8.782   0.255   0.195  1.1570 -0.8715 -1.3073
  447MOL0     H60345   8.820   0.092   0.239 -0.2958  0.6173 -3.8330
  448MOL0     O60346   3.857   3.685  11.253 -0.0517 -0.2855 -0.2500
  448MOL0     C60347   3.838   3.566  11.232  0.9359  0.0359  0.3323
  448MOL0     O60348   3.767   3.483  11.313 -0.3035 -0.5604  0.3403
  448MOL0     C60349   3.760   3.483  11.453  0.1347  0.1036  0.1960
  448MOL0     C60350   3.636   3.446  11.497 -0.7128  0.6476 -0.6706
  448MOL0     C60351   3.602   3.434  11.627 -0.1784  0.9437  0.1926
  448MOL0     C60352   3.701   3.467  11.728  0.0465  0.6581  0.3982
  448MOL0     O60353   3.673   3.458  11.861 -0.4274  0.3649  1.0296
  448MOL0     C60354   3.582   3.554  11.914  0.3793  0.5004  0.5724
  448MOL0     C60355   3.541   3.527  12.053  1.1859  0.0541  0.5424
  448MOL0     C60356   3.637   3.569  12.151 -0.3589  0.9665 -0.5428
  448MOL0     C60357   3.621   3.488  12.283 -0.3331  0.3985  0.6023
  448MOL0     C60358   3.702   3.554  12.396  0.5135 -0.8316  0.5240
  448MOL0     C60359   3.851   3.537  12.360  0.4445 -0.2822  0.5945
  448MOL0     C60360   3.940   3.566  12.475  0.2583  0.2658 -1.3632
  448MOL0     C60361   3.952   3.711  12.521 -0.1726  0.1846  1.0067
  448MOL0     N60362   3.972   3.808  12.409  0.6275  0.1854 -0.4117
  448MOL0     C60363   3.877   3.883  12.345 -0.2917  0.4889  0.0860
  448MOL0     C60364   3.943   3.999  12.321  0.7475  0.9466  0.4784
  448MOL0     C60365   3.884   4.127  12.274  0.1871 -0.0155 -0.7323
  448MOL0     C60366   3.934   4.160  12.128  0.2500 -0.1926 -0.2257
  448MOL0     C60367   3.854   4.274  12.067  1.0025  1.0070  0.9451
  448MOL0     C60368   3.897   4.300  11.928 -0.3803  0.6863  0.4114
  448MOL0     O60369   3.826   4.416  11.871 -0.8072 -0.2096 -0.4389
  448MOL0     C60370   3.863   4.547  11.903 -0.5196  0.0407 -0.0120
  448MOL0     C60371   3.969   4.586  11.987  0.7073  0.2160  0.0250
  448MOL0     C60372   4.003   4.720  12.024  0.5724  0.1219  0.2514
  448MOL0     C60373   3.923   4.830  11.975  0.0567  1.4152  0.5592
  448MOL0     C60374   3.951   4.979  12.006 -0.0716  1.8194  0.3200
  448MOL0     O60375   3.844   5.065  11.986 -0.2909  0.1652 -0.1913
  448MOL0     C60376   3.876   5.196  11.988  0.6232  0.2192 -0.2224
  448MOL0     C60377   3.976   5.258  11.914  0.1197 -0.0045 -0.2042
  448MOL0     C60378   3.991   5.401  11.919 -0.2887  0.6838 -0.1501
  448MOL0     C60379   3.907   5.478  11.998  0.0952  1.8219 -0.0054
  448MOL0     O60380   3.923   5.611  12.022  0.4724 -0.6705  0.9004
  448MOL0     C60381   3.920   5.695  11.909 -0.6394  0.1398 -0.2745
  448MOL0     C60382   3.934   5.845  11.947 -0.5643  0.4637  0.6807
  448MOL0     C60383   4.068   5.905  11.895  0.0678  0.7059  0.5478
  448MOL0     C60384   4.074   6.052  11.913  0.1694  0.1476 -0.5559
  448MOL0     C60385   4.091   6.086  12.061 -0.7959  0.0911 -0.5851
  448MOL0     C60386   4.234   6.066  12.114  0.0835  0.8330 -0.2041
  448MOL0     C60387   4.265   6.143  12.242  0.0827 -0.9453  0.7453
  448MOL0     C60388   4.417   6.152  12.268 -0.6252  0.2306 -0.2442
  448MOL0    Cl60389   4.494   5.998  12.329 -0.1655 -0.0596 -0.3696
  448MOL0     C60390   3.820   5.413  12.074  0.3600  0.1075  0.2071
  448MOL0     C60391   3.805   5.275  12.068  1.1615 -0.5999  1.3404
  448MOL0     O60392   4.062   5.004  12.054 -0.1878 -0.5126 -0.0033
  448MOL0     C60393   3.816   4.782  11.887 -0.0336  0.5877 -0.0950
  448MOL0     C60394   3.794   4.648  11.848  0.4725  0.8712 -0.2132
  448MOL0     N60395   4.074   3.980  12.355 -0.1499  0.3395  0.3228
  448MOL0     N60396   4.090   3.859  12.395 -0.4425  0.5493 -0.7055
  448MOL0     C60397   3.833   3.503  11.680  0.0737  0.9265  0.4508
  448MOL0     C60398   3.858   3.530  11.541  1.0690  0.5290 -0.5847
  448MOL0     C60399   3.860   3.518  11.091  0.8373 -0.3087 -0.0303
  448MOL0     C60400   3.958   3.583  11.017  0.2769 -0.6092 -0.1667
  448MOL0     C60401   3.995   3.538  10.891  1.0086  0.5540  0.7315
  448MOL0     C60402   3.929   3.431  10.831  0.3071 -0.2817 -0.3859
  448MOL0     O60403   3.969   3.371  10.716  0.3066  0.8612 -0.6761
  448MOL0     C60404   4.042   3.442  10.618  0.0402  0.6055 -0.0889
  448MOL0     C60405   3.980   3.563  10.565 -0.2034 -0.3263  0.8236
  448MOL0     C60406   3.885   3.545  10.444  0.4469  0.8889  0.0763
  448MOL0     C60407   3.831   3.672  10.380 -0.5484 -0.3778  1.0178
  448MOL0     C60408   3.932   3.723  10.290 -1.0964  0.2061  0.3480
  448MOL0     C60409   4.022   3.749  10.212 -0.0919 -0.0378 -0.8345
  448MOL0     C60410   3.819   3.374  10.896 -0.7782  0.7969  0.6578
  448MOL0     C60411   3.780   3.418  11.025  0.4967  0.2698  0.0247
  448MOL0     C60412   3.656   3.357  11.083  0.4708  0.4809  0.8482
  448MOL0     H60413   3.570   3.406  11.421  0.4501  0.0098 -1.3824
  448MOL0     H60414   3.506   3.396  11.658  1.4654 -3.3981  0.6418
  448MOL0     H60415   3.618   3.658  11.914  0.3924  0.4965  0.8314
  448MOL0     H60416   3.491   3.549  11.853  0.1615  3.2527  0.5370
  448MOL0     H60417   3.508   3.424  12.069 -3.0715  1.0468 -0.6199
  448MOL0     H60418   3.450   3.584  12.071  0.0842 -2.0345  1.9997
  448MOL0     H60419   3.637   3.676  12.172  3.8814  1.2290 -0.9887
  448MOL0     H60420   3.738   3.535  12.125 -0.9127 -1.5669  0.3238
  448MOL0     H60421   3.516   3.483  12.314  0.1660 -0.6655  2.2931
  448MOL0     H60422   3.654   3.385  12.269  3.1322  0.3980  5.9003
  448MOL0     H60423   3.685   3.661  12.413 -0.4474 -0.1879 -3.5732
  448MOL0     H60424   3.681   3.506  12.492 -3.1180 -1.7321 -0.5671
  448MOL0     H60425   3.858   3.439  12.311 -0.0280  0.3195 -0.7417
  448MOL0     H60426   3.896   3.603  12.284  3.0452 -1.8352  0.6473
  448MOL0     H60427   4.029   3.517  12.437  0.0453 -1.1711 -0.0862
  448MOL0     H60428   3.898   3.521  12.565 -0.7274  4.3828  0.4997
  448MOL0     H60429   3.860   3.739  12.573 -0.9807 -0.7590  0.1001
  448MOL0     H60430   4.029   3.720  12.598 -2.3648 -0.0587  3.3752
  448MOL0     H60431   3.774   3.859  12.323 -0.5566 -0.7338  2.4098
  448MOL0     H60432   3.776   4.125  12.291 -0.4006  0.8055 -3.7060
  448MOL0     H60433   3.927   4.213  12.326  1.6976 -2.4331  2.3200
  448MOL0     H60434   4.038   4.195  12.132 -0.6010  2.4360  1.2401
  448MOL0     H60435   3.918   4.071  12.066 -2.6253 -2.5573  3.4774
  448MOL0     H60436   3.845   4.358  12.136 -1.1109  1.7899 -0.1870
  448MOL0     H60437   3.752   4.236  12.057  0.3208  2.8917  0.4001
  448MOL0     H60438   3.896   4.221  11.852  2.1278 -0.2776  1.2742
  448MOL0     H60439   4.003   4.327  11.935 -0.2929  1.1922 -1.9148
  448MOL0     H60440   4.024   4.502  12.030 -1.4204 -1.1484  0.2256
  448MOL0     H60441   4.088   4.744  12.086 -0.7160  0.4432  1.9490
  448MOL0     H60442   4.039   5.198  11.848  2.0020  2.6358 -0.9676
  448MOL0     H60443   4.070   5.437  11.854 -0.5055  0.5540 -0.4903
  448MOL0     H60444   4.005   5.670  11.845  0.3747 -3.1113  2.0918
  448MOL0     H60445   3.824   5.686  11.857  0.6362  1.0924 -2.9581
  448MOL0     H60446   3.843   5.899  11.920 -1.2334  0.6113  2.9965
  448MOL0     H60447   3.928   5.849  12.056 -0.1576  0.5530  0.7003
  448MOL0     H60448   4.157   5.865  11.946  0.0380  0.0017  0.0641
  448MOL0     H60449   4.073   5.892  11.787 -0.3590  1.7605  0.3869
  448MOL0     H60450   3.982   6.104  11.882 -0.9365 -1.6617 -0.4542
  448MOL0     H60451   4.157   6.078  11.847 -0.7334  0.7690 -1.4797
  448MOL0     H60452   4.019   6.048  12.135 -2.2274  2.8497 -0.4242
  448MOL0     H60453   4.077   6.195  12.056 -0.1497  0.3957  2.3975
  448MOL0     H60454   4.259   5.960  12.127 -1.1670  0.2691 -1.9694
  448MOL0     H60455   4.305   6.101  12.039  1.1245  3.5768  1.9119
  448MOL0     H60456   4.216   6.096  12.327  0.0758 -1.6261  0.3716
  448MOL0     H60457   4.209   6.237  12.230 -4.2486 -3.4848 -1.4888
  448MOL0     H60458   4.465   6.173  12.172 -2.5396  0.1175 -1.2745
  448MOL0     H60459   4.457   6.229  12.335  0.4348 -0.8528  0.3973
  448MOL0     H60460   3.756   5.472  12.138 -0.5925  1.3162 -1.7304
  448MOL0     H60461   3.739   5.227  12.139 -2.2968  2.1424  0.2461
  448MOL0     H60462   3.746   4.858  11.857 -0.9501 -0.4182 -0.5647
  448MOL0     H60463   3.711   4.620  11.784  1.0813  1.0849 -1.1195
  448MOL0     H60464   3.905   3.525  11.758  1.1034 -0.7200  0.0255
  448MOL0     H60465   3.954   3.567  11.508  2.0062  0.3325  1.7361
  448MOL0     H60466   4.013   3.668  11.056 -0.1940  0.1104 -1.0236
  448MOL0     H60467   4.073   3.593  10.838  0.3410  2.0813  1.2909
  448MOL0     H60468   4.060   3.369  10.539 -1.0578 -0.7368  0.8701
  448MOL0     H60469   4.141   3.464  10.661 -0.4069 -2.0596  2.6373
  448MOL0     H60470   4.066   3.624  10.536 -0.6293 -0.5099 -0.9574
  448MOL0     H60471   3.927   3.623  10.640 -5.8354 -1.5294 -1.6155
  448MOL0     H60472   3.794   3.489  10.470 -1.0043  1.7069 -2.7906
  448MOL0     H60473   3.918   3.482  10.360 -0.6221  2.2055 -1.3948
  448MOL0     H60474   3.745   3.653  10.314 -0.5147  4.9717 -1.1099
  448MOL0     H60475   3.795   3.751  10.447 -1.5479  3.1819 -3.2429
  448MOL0     H60476   4.112   3.771  10.158  0.4559  3.8489  1.3184
  448MOL0     H60477   3.761   3.296  10.848 -1.5417  1.7099  0.0784
  448MOL0     H60478   3.685   3.283  11.158 -4.8682 -2.3130  0.6508
  448MOL0     H60479   3.591   3.433  11.128 -0.9992  1.1962 -2.2015
  448MOL0     H60480   3.593   3.307  11.008 -2.1742  1.5245  2.2327
  449MOL0     O60481   0.517   5.806   4.103  0.1797 -0.1767 -0.8951
  449MOL0     C60482   0.394   5.824   4.118  0.4149 -0.6840  0.4105
  449MOL0     O60483   0.290   5.763   4.057 -0.5028  0.7388  0.2511
  449MOL0     C60484   0.315   5.650   3.982  0.5626  0.2220  0.8502
  449MOL0     C60485   0.300   5.528   4.032  0.6370  0.7979 -0.5449
  449MOL0     C60486   0.302   5.417   3.946 -0.1403 -1.2868  0.4478
  449MOL0     C60487   0.331   5.431   3.811  0.2643  0.1256  0.4702
  449MOL0     O60488   0.336   5.313   3.736 -0.6817 -0.1053 -0.0443
  449MOL0     C60489   0.342   5.320   3.593 -0.2881  0.5268 -1.5892
  449MOL0     C60490   0.301   5.183   3.543  0.3394  0.2567  0.3796
  449MOL0     C60491   0.292   5.181   3.384 -0.5371  0.4110 -0.0235
  449MOL0     C60492   0.208   5.059   3.330 -0.1233 -0.2180  0.4978
  449MOL0     C60493   0.224   5.067   3.180 -0.6353 -0.4712 -0.2922
  449MOL0     C60494   0.117   4.990   3.104  0.6916 -0.3395 -1.2163
  449MOL0     C60495   0.118   5.011   2.960 -0.3139 -0.2518 -0.0531
  449MOL0     C60496   0.241   5.081   2.907 -0.1652  0.6474  0.0396
  449MOL0     N60497   0.252   5.083   2.754 -0.0811  0.0517  0.2624
  449MOL0     C60498   0.169   5.144   2.665 -0.7234  0.4288  0.9504
  449MOL0     C60499   0.235   5.120   2.544 -0.5686 -0.1775  0.1714
  449MOL0     C60500   0.196   5.171   2.412 -0.2733 -0.3803 -0.2569
  449MOL0     C60501   0.256   5.300   2.374 -0.8921 -1.7548 -0.1242
  449MOL0     C60502   0.225   5.326   2.229  0.1659  0.8079 -0.2484
  449MOL0     C60503   0.276   5.450   2.178  0.3424  0.3950  1.1520
  449MOL0     O60504   0.206   5.476   2.050 -0.1461  0.0383  0.7439
  449MOL0     C60505   0.250   5.574   1.973 -0.2851 -0.4863  0.0008
  449MOL0     C60506   0.351   5.667   2.011  0.1846 -0.0346 -0.1798
  449MOL0     C60507   0.415   5.753   1.921  0.0385 -0.0661  0.1525
  449MOL0     C60508   0.372   5.743   1.783  0.1073 -0.0058  0.4165
  449MOL0     C60509   0.431   5.839   1.683  1.0335  0.2691  0.4192
  449MOL0     O60510   0.527   5.924   1.724 -0.4885  0.5554 -0.1345
  449MOL0     C60511   0.588   6.022   1.645  0.1217  0.1171  1.0054
  449MOL0     C60512   0.723   6.055   1.668 -0.3534  0.8742  0.0690
  449MOL0     C60513   0.782   6.153   1.594 -0.0383  0.0663  0.1396
  449MOL0     C60514   0.713   6.231   1.506 -0.2302 -1.0005  0.3088
  449MOL0     O60515   0.765   6.334   1.426  0.6605  0.6034  0.3043
  449MOL0     C60516   0.896   6.377   1.433  0.3898  0.1220 -0.6444
  449MOL0     C60517   0.902   6.501   1.345  0.5112  0.6334 -0.4787
  449MOL0     C60518   0.893   6.480   1.195  0.2537 -0.1041 -1.2308
  449MOL0     C60519   0.799   6.591   1.129  0.2564 -0.3015 -0.4188
  449MOL0     C60520   0.831   6.625   0.982 -0.3200 -0.8643 -0.8163
  449MOL0     C60521   0.762   6.751   0.937 -0.5617 -0.5073  0.0064
  449MOL0     C60522   0.821   6.797   0.801 -0.6031 -0.1362  0.0814
  449MOL0     C60523   0.740   6.908   0.740  0.2385 -0.5879 -0.1521
  449MOL0    Cl60524   0.823   6.949   0.580  0.1396 -0.4992  0.3279
  449MOL0     C60525   0.578   6.209   1.484 -0.1892 -0.1582  0.6346
  449MOL0     C60526   0.515   6.102   1.551 -0.8703  0.3025 -0.2666
  449MOL0     O60527   0.386   5.815   1.563  0.1088  0.3280 -0.0852
  449MOL0     C60528   0.272   5.653   1.748  0.1078 -0.0241 -0.6945
  449MOL0     C60529   0.208   5.576   1.843  0.2587  0.1258  0.5682
  449MOL0     N60530   0.352   5.048   2.563  0.4942 -0.1134  0.6394
  449MOL0     N60531   0.356   5.028   2.686  0.9812  0.1111  0.5858
  449MOL0     C60532   0.337   5.565   3.760  0.1107 -0.2826  0.9334
  449MOL0     C60533   0.337   5.672   3.842 -0.2674 -0.0422 -0.2935
  449MOL0     C60534   0.357   5.907   4.232 -0.6867  0.6273  0.4766
  449MOL0     C60535   0.253   5.856   4.305 -0.6861  0.0450 -0.4900
  449MOL0     C60536   0.208   5.896   4.430 -0.4810 -0.4844  0.1625
  449MOL0     C60537   0.277   6.005   4.474  0.1326 -0.2146 -0.9806
  449MOL0     O60538   0.247   6.058   4.607  0.3228  0.3469  0.6188
  449MOL0     C60539   0.184   5.994   4.711  0.6126  0.7690 -0.4957
  449MOL0     C60540   0.259   5.867   4.756  1.2987 -0.0870  0.7448
  449MOL0     C60541   0.172   5.801   4.861  0.4621 -0.6812 -0.0307
  449MOL0     C60542   0.238   5.670   4.905  0.2524 -0.8181 -0.1915
  449MOL0     C60543   0.375   5.690   4.953 -0.7054  0.4318 -0.3469
  449MOL0     C60544   0.490   5.694   5.003 -0.1891  0.5529 -0.0301
  449MOL0     C60545   0.387   6.073   4.401  0.1707 -0.3442  0.0482
  449MOL0     C60546   0.426   6.021   4.281 -0.2572  0.1523 -0.7125
  449MOL0     C60547   0.540   6.081   4.214 -0.3115 -0.1213 -0.1891
  449MOL0     H60548   0.273   5.511   4.136 -3.2935  1.7871 -1.2178
  449MOL0     H60549   0.304   5.315   3.985  2.1489 -0.6060  2.3262
  449MOL0     H60550   0.276   5.398   3.555  0.7452  2.7593  0.8659
  449MOL0     H60551   0.442   5.354   3.566 -0.3534  0.6353 -1.6917
  449MOL0     H60552   0.206   5.172   3.595  0.9812 -1.1101  1.3250
  449MOL0     H60553   0.364   5.099   3.575  1.3311 -0.1078 -2.2438
  449MOL0     H60554   0.391   5.167   3.340 -0.9207 -0.0336 -0.7719
  449MOL0     H60555   0.248   5.279   3.361 -1.9528  0.5524  2.8513
  449MOL0     H60556   0.240   4.958   3.358 -0.5755 -0.8211 -1.0594
  449MOL0     H60557   0.104   5.073   3.361  0.6254  5.9273  1.4283
  449MOL0     H60558   0.226   5.173   3.154 -3.4302  0.1225  1.5634
  449MOL0     H60559   0.319   5.017   3.158 -0.0180  0.8029 -0.6560
  449MOL0     H60560   0.135   4.884   3.123  1.4386  0.1663  1.2226
  449MOL0     H60561   0.020   5.014   3.147  1.6415 -0.4019  1.1122
  449MOL0     H60562   0.031   5.073   2.936  0.3416  0.4497 -0.6882
  449MOL0     H60563   0.103   4.919   2.904 -2.4540  0.5171 -0.8552
  449MOL0     H60564   0.241   5.183   2.945 -0.7282  0.4447  0.5990
  449MOL0     H60565   0.334   5.028   2.929 -0.0743  0.1862 -1.3613
  449MOL0     H60566   0.075   5.194   2.685 -0.7529  1.2216 -0.9636
  449MOL0     H60567   0.223   5.099   2.334  0.6647 -2.1735  1.5927
  449MOL0     H60568   0.088   5.169   2.400 -0.0306 -2.5791 -3.2488
  449MOL0     H60569   0.229   5.379   2.445 -2.7571 -1.5573 -0.9990
  449MOL0     H60570   0.364   5.293   2.384 -0.4194  3.0386  0.5340
  449MOL0     H60571   0.117   5.330   2.212  0.4031 -0.3178 -2.2988
  449MOL0     H60572   0.276   5.246   2.175  2.2712  0.0264  2.6281
  449MOL0     H60573   0.385   5.438   2.175  0.3828  0.7955 -1.1328
  449MOL0     H60574   0.258   5.541   2.236 -1.8062  3.5557 -3.7717
  449MOL0     H60575   0.386   5.673   2.114 -1.1403 -1.2131  0.3652
  449MOL0     H60576   0.488   5.830   1.943 -0.5045  0.9550 -1.4092
  449MOL0     H60577   0.775   6.008   1.750  0.7822  1.5589 -0.2375
  449MOL0     H60578   0.887   6.167   1.619 -0.6898  1.9153  2.1602
  449MOL0     H60579   0.922   6.418   1.531  0.3370  0.4348 -0.7593
  449MOL0     H60580   0.961   6.292   1.412  0.1083 -0.8224  1.9545
  449MOL0     H60581   0.830   6.570   1.390  0.4420  1.7028 -2.1129
  449MOL0     H60582   0.999   6.548   1.364  1.4970  0.1032 -3.5539
  449MOL0     H60583   0.991   6.490   1.148 -0.6797  4.3926 -2.6979
  449MOL0     H60584   0.842   6.388   1.166 -1.3729  1.0063 -2.0610
  449MOL0     H60585   0.810   6.686   1.181 -0.3909 -0.1119 -0.6208
  449MOL0     H60586   0.693   6.567   1.121 -0.3303  2.2685 -1.1178
  449MOL0     H60587   0.802   6.536   0.926  0.1778 -3.3607  2.5805
  449MOL0     H60588   0.939   6.632   0.967 -0.2748  0.7147  0.0204
  449MOL0     H60589   0.654   6.733   0.943 -0.4364 -0.7628  2.6603
  449MOL0     H60590   0.782   6.823   1.017 -0.7531 -2.3749  1.7972
  449MOL0     H60591   0.828   6.706   0.740 -0.0256 -1.2110  1.6859
  449MOL0     H60592   0.926   6.825   0.806 -0.8893  1.3562 -1.4267
  449MOL0     H60593   0.637   6.872   0.732  1.0120 -2.8229 -0.8815
  449MOL0     H60594   0.749   6.998   0.802  2.1719 -0.7926 -0.0592
  449MOL0     H60595   0.516   6.268   1.417  2.1314  0.5992 -0.9599
  449MOL0     H60596   0.411   6.076   1.531 -0.1672 -1.0713 -2.4777
  449MOL0     H60597   0.237   5.645   1.646 -1.6862 -0.6540 -0.0604
  449MOL0     H60598   0.132   5.507   1.810  0.9834  0.4443 -1.9348
  449MOL0     H60599   0.323   5.590   3.655 -4.3587  1.0095  1.6084
  449MOL0     H60600   0.320   5.770   3.798  0.0308  0.1307 -0.0307
  449MOL0     H60601   0.200   5.768   4.269  1.4914 -1.3578 -0.4255
  449MOL0     H60602   0.129   5.834   4.470  1.9113 -3.4240  0.6441
  449MOL0     H60603   0.081   5.975   4.678  1.3420 -1.4492 -1.6863
  449MOL0     H60604   0.174   6.058   4.799 -1.9863 -1.5637  1.0653
  449MOL0     H60605   0.357   5.897   4.794  0.8946  1.8879  0.3594
  449MOL0     H60606   0.254   5.801   4.669 -4.4837  0.2460  0.4406
  449MOL0     H60607   0.074   5.777   4.818 -0.1934 -2.0210  2.0480
  449MOL0     H60608   0.163   5.876   4.940  0.8977 -0.2886 -0.3459
  449MOL0     H60609   0.182   5.622   4.985  0.1965  4.3325  3.3460
  449MOL0     H60610   0.233   5.614   4.811  0.4270 -2.5843  0.8249
  449MOL0     H60611   0.589   5.693   5.044 -0.2780  0.5120  0.1871
  449MOL0     H60612   0.440   6.144   4.464 -0.8398 -0.7500  1.4212
  449MOL0     H60613   0.510   6.111   4.113  2.4579  3.4726 -0.1504
  449MOL0     H60614   0.553   6.179   4.262 -3.0797  1.1774 -1.8557
  449MOL0     H60615   0.635   6.028   4.217  0.7403  1.6073 -1.4078
  450MOL0     O60616   6.299   5.406   9.395 -0.7830  0.7513  0.5082
  450MOL0     C60617   6.328   5.298   9.455 -1.0953 -0.0653  0.1138
  450MOL0     O60618   6.397   5.192   9.402 -0.8572 -0.3577  1.0243
  450MOL0     C60619   6.421   5.184   9.272  0.4333 -0.3874  0.3987
  450MOL0     C60620   6.367   5.261   9.167  0.1677 -0.4433 -0.0196
  450MOL0     C60621   6.419   5.248   9.041 -1.0594 -0.8203  1.2722
  450MOL0     C60622   6.517   5.155   9.007  0.8336 -0.8459 -1.1584
  450MOL0     O60623   6.567   5.162   8.873 -0.1814 -0.3288 -0.5463
  450MOL0     C60624   6.657   5.051   8.840 -0.5191 -0.7347 -0.3309
  450MOL0     C60625   6.670   5.033   8.694 -0.1581 -0.3814  0.6138
  450MOL0     C60626   6.707   5.157   8.608  0.5405  0.2306 -0.0524
  450MOL0     C60627   6.729   5.113   8.461  0.3345 -0.3432  0.6055
  450MOL0     C60628   6.789   5.221   8.379 -0.0302 -0.8905  0.9721
  450MOL0     C60629   6.929   5.267   8.432 -0.5214  0.0541 -0.3671
  450MOL0     C60630   7.009   5.350   8.339 -0.6380 -0.3072  0.2231
  450MOL0     C60631   7.129   5.421   8.407 -1.0252  0.6047  1.1155
  450MOL0     N60632   7.106   5.537   8.491 -0.1307 -0.7503  0.7595
  450MOL0     C60633   7.020   5.640   8.460  0.1051 -0.6063 -0.6420
  450MOL0     C60634   7.058   5.743   8.540  0.6272 -0.1152  0.7564
  450MOL0     C60635   6.973   5.874   8.542 -0.2086  0.1998  0.5560
  450MOL0     C60636   7.065   5.999   8.553  0.0844 -0.0432 -0.5837
  450MOL0     C60637   7.070   6.037   8.706  0.1275  0.4732  1.0770
  450MOL0     C60638   7.163   6.158   8.730 -1.2589  0.5979  0.8530
  450MOL0     O60639   7.123   6.256   8.641  1.1314  0.5401  0.1317
  450MOL0     C60640   7.044   6.354   8.703  0.0173 -0.3317 -0.2120
  450MOL0     C60641   7.102   6.468   8.755  0.1201 -0.4735 -0.4224
  450MOL0     C60642   7.017   6.564   8.815  0.5916 -0.5542  1.5266
  450MOL0     C60643   6.881   6.540   8.825 -0.5424 -0.4107  0.3112
  450MOL0     C60644   6.788   6.651   8.867 -0.3074  0.2655 -0.0410
  450MOL0     O60645   6.661   6.608   8.884 -0.1147 -0.4128  0.0369
  450MOL0     C60646   6.567   6.688   8.936  0.3920 -0.1142  0.4145
  450MOL0     C60647   6.532   6.670   9.066 -1.0593  0.5841  0.1516
  450MOL0     C60648   6.446   6.758   9.125  0.7196 -0.6232  0.2401
  450MOL0     C60649   6.382   6.870   9.050  0.6207 -0.3134 -0.5930
  450MOL0     O60650   6.316   6.975   9.103  0.4014 -0.4653  0.2192
  450MOL0     C60651   6.259   6.960   9.235  0.7748 -0.3660 -0.2008
  450MOL0     C60652   6.146   6.856   9.242 -0.2423  0.3838  0.2987
  450MOL0     C60653   6.004   6.914   9.210  0.5182 -0.3055  0.3960
  450MOL0     C60654   5.995   6.952   9.056 -0.2160  0.7085 -0.1204
  450MOL0     C60655   5.853   6.998   9.028 -0.3796 -0.2549  0.5678
  450MOL0     C60656   5.816   7.009   8.882 -1.0966  0.5533 -0.6349
  450MOL0     C60657   5.670   7.009   8.868  1.3444  0.5553 -0.2153
  450MOL0     C60658   5.621   6.990   8.727  0.3499  0.4678  0.3539
  450MOL0    Cl60659   5.653   7.147   8.625 -0.3508  0.3383 -0.4051
  450MOL0     C60660   6.416   6.879   8.913  0.5725  0.4875 -0.7642
  450MOL0     C60661   6.505   6.789   8.862 -0.0385  0.7072 -0.1282
  450MOL0     O60662   6.823   6.769   8.887  0.0756 -0.0384 -0.0027
  450MOL0     C60663   6.828   6.418   8.793 -0.3163 -0.6686 -0.3780
  450MOL0     C60664   6.915   6.325   8.729  0.9680 -0.3373 -0.2940
  450MOL0     N60665   7.163   5.697   8.621  0.3347 -0.4094  0.8523
  450MOL0     N60666   7.182   5.572   8.593  0.6218 -0.4502  0.2891
  450MOL0     C60667   6.564   5.061   9.113 -0.8461 -0.6683  0.1756
  450MOL0     C60668   6.520   5.087   9.241  0.3584  0.4789  0.3653
  450MOL0     C60669   6.311   5.295   9.598 -0.2485  0.1935 -0.0452
  450MOL0     C60670   6.319   5.174   9.652  0.2617 -0.1506  0.0256
  450MOL0     C60671   6.311   5.162   9.793  0.1969 -0.4802  0.6577
  450MOL0     C60672   6.293   5.268   9.872  0.2805 -0.3758 -0.6425
  450MOL0     O60673   6.294   5.237  10.008 -0.3721 -0.1608  0.1624
  450MOL0     C60674   6.262   5.343  10.095  0.1887 -0.4162  0.0918
  450MOL0     C60675   6.322   5.339  10.229  0.2509  0.0345 -0.8571
  450MOL0     C60676   6.473   5.363  10.242 -0.8007 -0.4193 -0.6647
  450MOL0     C60677   6.519   5.359  10.396  0.5967  0.4325 -0.1144
  450MOL0     C60678   6.474   5.480  10.465  0.5271 -0.4033  0.0926
  450MOL0     C60679   6.434   5.574  10.537  0.4641  0.0880  0.1991
  450MOL0     C60680   6.265   5.391   9.813 -0.1379  0.2739 -0.4070
  450MOL0     C60681   6.284   5.405   9.677 -0.6594  0.7071 -0.0279
  450MOL0     C60682   6.274   5.546   9.618 -0.3965 -1.0879  0.3042
  450MOL0     H60683   6.282   5.328   9.177  1.1313  0.9016 -0.5701
  450MOL0     H60684   6.365   5.307   8.968 -1.1679 -3.5419 -1.0157
  450MOL0     H60685   6.754   5.066   8.887 -0.8267 -0.1540  0.1249
  450MOL0     H60686   6.627   4.952   8.873 -1.5488 -0.2253  0.2983
  450MOL0     H60687   6.579   4.993   8.646 -0.9139  1.7265  0.2087
  450MOL0     H60688   6.746   4.957   8.673  0.5306  1.2316 -3.8036
  450MOL0     H60689   6.801   5.185   8.655  0.3826 -3.7536  3.2394
  450MOL0     H60690   6.633   5.237   8.619  0.9594  0.3670  2.2206
  450MOL0     H60691   6.797   5.027   8.454 -1.1655 -1.6685  1.7150
  450MOL0     H60692   6.633   5.077   8.425  1.0301 -1.7206  0.0288
  450MOL0     H60693   6.810   5.197   8.274  3.2114  2.7927  0.5479
  450MOL0     H60694   6.726   5.309   8.372  2.1299  0.7535  1.1652
  450MOL0     H60695   6.926   5.316   8.530  4.3371 -1.2678  0.7042
  450MOL0     H60696   6.985   5.175   8.453 -1.3300 -0.3695 -0.0003
  450MOL0     H60697   6.952   5.423   8.280  2.3572  0.1245 -2.4325
  450MOL0     H60698   7.039   5.274   8.267 -3.4383 -1.0558 -0.2735
  450MOL0     H60699   7.172   5.343   8.471 -0.6077 -1.0996 -1.1406
  450MOL0     H60700   7.201   5.440   8.327 -1.7804 -1.4132 -0.1106
  450MOL0     H60701   6.935   5.643   8.393 -0.1676 -1.1831 -0.3365
  450MOL0     H60702   6.912   5.893   8.453 -0.0409  2.7980  0.9062
  450MOL0     H60703   6.905   5.867   8.628  0.6788 -2.3522  1.1439
  450MOL0     H60704   7.161   5.970   8.509 -1.2427  0.0966 -3.9201
  450MOL0     H60705   7.026   6.087   8.500  0.9674  0.6091 -0.1704
  450MOL0     H60706   7.110   5.946   8.753 -1.8983 -1.1050 -0.0751
  450MOL0     H60707   6.967   6.058   8.735  0.6093  0.6139  2.8206
  450MOL0     H60708   7.266   6.134   8.701 -2.3427 -1.8475 -1.5238
  450MOL0     H60709   7.157   6.188   8.835  1.2482  1.0398  0.9257
  450MOL0     H60710   7.207   6.495   8.752 -0.2227  1.2641  1.1528
  450MOL0     H60711   7.054   6.662   8.843  0.5708  0.2738 -1.1093
  450MOL0     H60712   6.557   6.578   9.117  0.3069  1.0730  0.4056
  450MOL0     H60713   6.410   6.738   9.226  0.7103 -1.5863  0.0592
  450MOL0     H60714   6.341   6.953   9.307 -1.5606  1.8458  2.9831
  450MOL0     H60715   6.204   7.051   9.260 -1.6974 -0.8452 -3.2120
  450MOL0     H60716   6.180   6.770   9.183  1.6634  2.9961 -2.7284
  450MOL0     H60717   6.134   6.831   9.348  0.5286 -0.3733  0.2193
  450MOL0     H60718   5.925   6.841   9.230  0.4769 -0.3667  0.0163
  450MOL0     H60719   5.979   7.000   9.272 -2.1084 -0.3602 -0.4849
  450MOL0     H60720   6.028   6.868   8.994  0.8761  0.2353  1.0646
  450MOL0     H60721   6.063   7.036   9.035 -2.2584  2.1081 -1.5435
  450MOL0     H60722   5.847   7.093   9.081  0.8432 -0.3301  0.8598
  450MOL0     H60723   5.784   6.935   9.086 -0.8248 -1.2268 -0.9629
  450MOL0     H60724   5.856   7.102   8.841  0.7395 -0.3015 -0.8835
  450MOL0     H60725   5.866   6.943   8.811 -0.5802  2.7948 -2.4747
  450MOL0     H60726   5.636   7.109   8.897  2.9486  0.7782  1.0337
  450MOL0     H60727   5.622   6.934   8.932 -4.1974  3.4464 -0.3704
  450MOL0     H60728   5.678   6.912   8.676 -2.0055  0.0160 -1.7336
  450MOL0     H60729   5.520   6.956   8.704 -0.3758  2.6786  0.0374
  450MOL0     H60730   6.366   6.959   8.860 -0.4656  2.4444  2.8422
  450MOL0     H60731   6.528   6.801   8.757  1.0927  0.1865  0.0485
  450MOL0     H60732   6.726   6.392   8.818 -0.0520  1.6737  4.0384
  450MOL0     H60733   6.865   6.236   8.690  0.5230 -0.3816  0.3682
  450MOL0     H60734   6.638   4.986   9.086  0.8182  1.1313 -0.5094
  450MOL0     H60735   6.559   5.024   9.320  0.4327 -0.2506 -0.2480
  450MOL0     H60736   6.330   5.085   9.591 -0.2380 -0.9368  1.0675
  450MOL0     H60737   6.315   5.064   9.838 -0.9878 -2.5312 -3.2554
  450MOL0     H60738   6.153   5.342  10.102 -0.0379 -2.0017 -2.2365
  450MOL0     H60739   6.299   5.441  10.064  3.1781 -0.4538  2.9878
  450MOL0     H60740   6.300   5.236  10.261 -0.9468  0.3776 -0.5399
  450MOL0     H60741   6.277   5.413  10.295  1.3296 -0.7285  0.8078
  450MOL0     H60742   6.503   5.457  10.194 -2.3802  0.1676 -0.5558
  450MOL0     H60743   6.525   5.283  10.189 -1.8160 -1.7546  0.2911
  450MOL0     H60744   6.494   5.276  10.462 -3.4334  1.4468 -0.0429
  450MOL0     H60745   6.628   5.360  10.396  0.6342  2.2694  0.8851
  450MOL0     H60746   6.378   5.640  10.600 -2.0444 -0.2578 -1.4960
  450MOL0     H60747   6.234   5.473   9.878 -1.6729  0.0056 -0.7725
  450MOL0     H60748   6.358   5.577   9.555 -1.4900  1.4565 -0.0376
  450MOL0     H60749   6.179   5.543   9.564 -0.7672 -1.2555  0.9523
  450MOL0     H60750   6.276   5.628   9.691 -1.3614  1.1827 -2.0717
  451MOL0     O60751   8.634   6.552   8.825  0.3326  0.3882  0.1136
  451MOL0     C60752   8.696   6.450   8.789 -0.1012 -0.8390  0.7486
  451MOL0     O60753   8.813   6.406   8.834 -0.1594  0.7572 -0.3607
  451MOL0     C60754   8.893   6.501   8.895 -0.5315  0.7908 -1.0465
  451MOL0     C60755   8.869   6.537   9.028  0.3351 -0.7366 -0.1371
  451MOL0     C60756   8.958   6.625   9.091 -0.5243  0.6307 -0.0194
  451MOL0     C60757   9.059   6.683   9.017  0.0170 -0.4028 -0.6372
  451MOL0     O60758   9.138   6.771   9.088 -0.9001 -0.5110  0.0536
  451MOL0     C60759   9.244   6.838   9.027 -1.1297 -0.9684  0.0237
  451MOL0     C60760   9.306   6.923   9.132 -0.1970  0.5864  0.0371
  451MOL0     C60761   9.360   6.845   9.248 -0.4630  0.5240 -0.5747
  451MOL0     C60762   9.487   6.878   9.320 -0.0566 -0.2240 -0.2786
  451MOL0     C60763   9.609   6.853   9.223  0.0189  0.7174  0.0261
  451MOL0     C60764   9.734   6.909   9.282 -0.2083  0.1321  0.2141
  451MOL0     C60765   9.781   6.832   9.405 -0.3929 -0.0402  0.2681
  451MOL0     C60766   9.931   6.844   9.416  0.4878  1.0861 -0.2964
  451MOL0     N60767   9.978   6.782   9.540  0.7097 -0.1564 -0.4537
  451MOL0     C60768   9.954   6.837   9.668  0.2578  0.0670 -0.2808
  451MOL0     C60769  10.023   6.758   9.752  0.4365  0.1993  0.7881
  451MOL0     C60770  10.033   6.786   9.896 -0.1510 -0.0094 -0.3610
  451MOL0     C60771  10.178   6.808   9.943 -0.0633  0.2832  0.6248
  451MOL0     C60772  10.260   6.673   9.946 -0.2780  0.8200  0.2123
  451MOL0     C60773  10.183   6.551   9.994 -0.5711  0.1976 -0.4038
  451MOL0     O60774  10.122   6.582  10.120  0.1323 -0.0173  0.5559
  451MOL0     C60775  10.090   6.484  10.202  0.6642 -0.3174 -1.0881
  451MOL0     C60776  10.114   6.495  10.337  1.1377 -0.0522 -0.6849
  451MOL0     C60777  10.088   6.391  10.423  0.4570 -0.0216  0.0675
  451MOL0     C60778  10.014   6.277  10.383  0.4971  0.5696 -0.4909
  451MOL0     C60779   9.972   6.173  10.474 -0.7042  0.4273 -0.4422
  451MOL0     O60780  10.004   6.209  10.603 -0.1260  0.3764  0.4688
  451MOL0     C60781   9.969   6.122  10.699  0.6724  0.0238  0.1493
  451MOL0     C60782  10.056   6.115  10.814 -0.3099 -0.5800 -0.8735
  451MOL0     C60783  10.021   6.058  10.932 -0.3798  0.9589 -0.0123
  451MOL0     C60784   9.907   5.984  10.943 -0.1672 -0.1695 -1.2277
  451MOL0     O60785   9.880   5.915  11.054  0.2315  0.0724 -0.2844
  451MOL0     C60786   9.751   5.929  11.110 -0.2735 -0.6872 -1.0224
  451MOL0     C60787   9.739   6.057  11.198 -0.1062 -0.4381  1.5291
  451MOL0     C60788   9.642   6.043  11.308  0.7622  0.4071 -1.1798
  451MOL0     C60789   9.606   6.179  11.375 -0.0737  0.1800 -1.6464
  451MOL0     C60790   9.590   6.151  11.525  1.1247 -0.1369  0.2069
  451MOL0     C60791   9.613   6.283  11.599 -0.5689  0.2637 -0.3883
  451MOL0     C60792   9.610   6.246  11.749 -0.6844  0.2221 -0.3419
  451MOL0     C60793   9.474   6.229  11.818  0.1590  0.3050 -0.0011
  451MOL0    Cl60794   9.485   6.123  11.962  0.2334  0.4479  0.0743
  451MOL0     C60795   9.828   5.971  10.833 -0.1853 -0.1311 -0.5842
  451MOL0     C60796   9.856   6.043  10.722  1.2912  0.6350 -0.4749
  451MOL0     O60797   9.930   6.064  10.435  0.1615 -0.3392 -0.0012
  451MOL0     C60798   9.968   6.278  10.251  0.6428  0.1400 -0.5512
  451MOL0     C60799  10.010   6.388  10.164 -0.6205 -0.1674  0.1972
  451MOL0     N60800  10.082   6.655   9.670  0.3444  0.7323  0.2786
  451MOL0     N60801  10.044   6.661   9.549  0.1826 -1.3599  0.7044
  451MOL0     C60802   9.085   6.641   8.885  0.7303 -0.3167  0.4187
  451MOL0     C60803   9.004   6.547   8.831  0.0140  0.6718  0.2325
  451MOL0     C60804   8.636   6.367   8.680  0.4333  0.3535  0.0321
  451MOL0     C60805   8.724   6.303   8.594 -1.0011  0.2369 -0.9842
  451MOL0     C60806   8.681   6.203   8.512 -0.3625  0.1137  0.3629
  451MOL0     C60807   8.545   6.178   8.488 -0.0492 -0.5267 -0.0750
  451MOL0     O60808   8.505   6.072   8.415  0.2670  0.3652  0.4085
  451MOL0     C60809   8.379   6.070   8.341  0.5177  0.6166  0.2277
  451MOL0     C60810   8.306   5.943   8.386 -0.2559 -0.6763 -0.6352
  451MOL0     C60811   8.158   5.940   8.329  0.3278  0.1252 -0.0853
  451MOL0     C60812   8.077   6.010   8.439  0.3270  0.4068 -0.2397
  451MOL0     C60813   7.937   6.043   8.406 -0.5408  0.0435 -0.3063
  451MOL0     C60814   7.826   6.088   8.388  0.1623  0.3617 -0.4725
  451MOL0     C60815   8.457   6.250   8.559 -0.6997 -0.4877 -0.4781
  451MOL0     C60816   8.499   6.340   8.657  0.6216  0.9273 -0.6447
  451MOL0     C60817   8.389   6.406   8.755  0.5145  0.1768  0.7192
  451MOL0     H60818   8.770   6.515   9.068  0.1052  1.3513  0.5575
  451MOL0     H60819   8.937   6.662   9.191  1.6417  3.8480 -0.5978
  451MOL0     H60820   9.321   6.772   8.986  0.0617  0.8565 -0.8122
  451MOL0     H60821   9.199   6.905   8.953 -0.4349  0.2386  0.6705
  451MOL0     H60822   9.241   7.000   9.175  1.0521  1.2716  0.7590
  451MOL0     H60823   9.388   6.973   9.080  0.6074 -1.0271 -0.3129
  451MOL0     H60824   9.382   6.744   9.212  0.0376  0.9726 -1.5731
  451MOL0     H60825   9.277   6.840   9.319 -0.7246 -1.8372 -0.9738
  451MOL0     H60826   9.494   6.980   9.359  0.8485 -0.6408  0.7104
  451MOL0     H60827   9.500   6.815   9.409  0.1235  1.8029  1.2031
  451MOL0     H60828   9.625   6.747   9.198 -2.1930  0.4599 -0.5983
  451MOL0     H60829   9.594   6.907   9.129 -0.6919 -0.7343 -0.7524
  451MOL0     H60830   9.811   6.909   9.205  0.3890  0.0783  0.8024
  451MOL0     H60831   9.714   7.016   9.292 -4.7745 -0.1637 -2.9452
  451MOL0     H60832   9.751   6.727   9.414  0.6844 -0.2489  1.6671
  451MOL0     H60833   9.729   6.890   9.482  1.0776  2.0282 -0.2253
  451MOL0     H60834   9.977   6.798   9.328  1.8757  3.0408 -0.6420
  451MOL0     H60835   9.959   6.949   9.410 -2.8370  2.0381 -0.7260
  451MOL0     H60836   9.899   6.930   9.685 -0.6862 -0.0766 -2.2623
  451MOL0     H60837   9.992   6.886   9.917  4.3159  2.0677 -0.4229
  451MOL0     H60838   9.974   6.710   9.947  0.9184  0.2808  1.3963
  451MOL0     H60839  10.231   6.886   9.888 -0.0637  0.4237  0.8210
  451MOL0     H60840  10.165   6.841  10.046 -1.3050 -1.4284  1.0665
  451MOL0     H60841  10.344   6.694  10.013  1.0159  3.2423 -1.9408
  451MOL0     H60842  10.297   6.661   9.844  0.8339  3.4800  0.2107
  451MOL0     H60843  10.252   6.466  10.003 -1.0180 -0.0803  0.5337
  451MOL0     H60844  10.106   6.515   9.925  0.4140 -2.6996 -0.1684
  451MOL0     H60845  10.169   6.580  10.376 -0.6179  1.1500 -0.7017
  451MOL0     H60846  10.114   6.402  10.528 -0.4521 -0.6448  0.3785
  451MOL0     H60847  10.153   6.163  10.815 -0.9801  0.8567 -1.9366
  451MOL0     H60848  10.089   6.070  11.016 -0.7453  3.6353 -0.0164
  451MOL0     H60849   9.666   5.913  11.043 -1.5412  3.4164 -0.6903
  451MOL0     H60850   9.744   5.850  11.186 -0.7703  0.3956  0.0952
  451MOL0     H60851   9.838   6.081  11.237  1.1485  5.2142 -3.5567
  451MOL0     H60852   9.722   6.142  11.131 -0.3776 -1.4143  0.2973
  451MOL0     H60853   9.548   5.998  11.275 -1.1586  1.2180  2.5834
  451MOL0     H60854   9.695   5.971  11.370 -0.3954  1.0307  0.6241
  451MOL0     H60855   9.516   6.216  11.324 -0.8697 -3.1764 -2.9001
  451MOL0     H60856   9.681   6.256  11.352  0.5625  0.2658  0.5394
  451MOL0     H60857   9.670   6.085  11.562  1.2871  0.5660  1.1502
  451MOL0     H60858   9.496   6.102  11.552 -1.0478  1.9621 -2.8844
  451MOL0     H60859   9.697   6.351  11.583 -1.4826  2.4315  2.9622
  451MOL0     H60860   9.529   6.352  11.587  2.0731  3.3346 -3.5648
  451MOL0     H60861   9.669   6.317  11.808  2.6309 -0.8595 -2.1033
  451MOL0     H60862   9.662   6.152  11.768 -1.9598 -0.4426 -0.0148
  451MOL0     H60863   9.440   6.331  11.838 -0.8018 -0.0348  0.1596
  451MOL0     H60864   9.411   6.198  11.734  0.2441  2.7380 -1.0404
  451MOL0     H60865   9.740   5.908  10.827 -1.0527  1.1828 -2.2520
  451MOL0     H60866   9.778   6.022  10.650 -1.0756  0.6180  1.9367
  451MOL0     H60867   9.911   6.199  10.202 -1.0994  1.7196 -1.2202
  451MOL0     H60868   9.985   6.377  10.059 -0.4928  0.2164  0.1266
  451MOL0     H60869   9.169   6.690   8.836 -1.1703  0.4876 -2.2638
  451MOL0     H60870   9.019   6.519   8.728 -0.7396  2.4415 -0.4037
  451MOL0     H60871   8.829   6.327   8.602 -0.3683 -2.7336  2.5805
  451MOL0     H60872   8.749   6.142   8.453  1.0105  0.8446  1.1151
  451MOL0     H60873   8.405   6.076   8.235  2.0281  4.9554  0.6425
  451MOL0     H60874   8.321   6.161   8.359 -1.4774 -0.5197 -0.1420
  451MOL0     H60875   8.310   5.929   8.495  0.5394 -0.8587 -0.6822
  451MOL0     H60876   8.355   5.857   8.341 -3.1331 -3.3179  0.8548
  451MOL0     H60877   8.128   5.839   8.301  2.2841 -0.9654  1.5153
  451MOL0     H60878   8.147   6.000   8.238  1.6146  0.7491  0.1465
  451MOL0     H60879   8.077   5.941   8.524 -1.1720 -0.6939 -1.0628
  451MOL0     H60880   8.125   6.102   8.472  0.1654 -0.8965  4.4459
  451MOL0     H60881   7.726   6.124   8.376  0.1556 -0.1242 -2.0825
  451MOL0     H60882   8.352   6.226   8.546 -1.5368  2.3841  0.0949
  451MOL0     H60883   8.414   6.411   8.862 -0.5827  1.6128  0.9514
  451MOL0     H60884   8.380   6.511   8.724  2.0447  0.1580  0.1157
  451MOL0     H60885   8.287   6.366   8.755  0.4883  0.2439  0.6447
  452MOL0     O60886   0.177   5.954   9.107 -0.5034  1.1095 -0.1907
  452MOL0     C60887   0.077   6.027   9.129 -0.0836  0.2025 -0.1202
  452MOL0     O60888   0.060   6.148   9.074 -0.6736  0.7920  0.3948
  452MOL0     C60889   0.141   6.189   8.971  0.0441  0.8042 -0.5096
  452MOL0     C60890   0.210   6.307   8.978 -0.2644 -0.7926 -0.9088
  452MOL0     C60891   0.296   6.359   8.886 -0.3022 -0.2433  0.8122
  452MOL0     C60892   0.316   6.290   8.769 -0.4746  0.3787 -0.6391
  452MOL0     O60893   0.389   6.346   8.679 -0.2519 -0.0614 -0.1078
  452MOL0     C60894   0.387   6.289   8.546 -0.2141  0.6421 -0.9549
  452MOL0     C60895   0.466   6.384   8.443 -0.5799  0.5207  0.7434
  452MOL0     C60896   0.518   6.292   8.327 -0.2045 -0.1730 -0.3281
  452MOL0     C60897   0.552   6.360   8.193  0.0612  1.3442  0.1408
  452MOL0     C60898   0.587   6.255   8.082  1.5686 -0.6518  0.4910
  452MOL0     C60899   0.458   6.199   8.018  0.1561  0.0789 -0.3452
  452MOL0     C60900   0.418   6.293   7.907 -0.2283  0.1882  0.4104
  452MOL0     C60901   0.266   6.280   7.875 -0.1181  0.1180 -0.2962
  452MOL0     N60902   0.181   6.297   7.996  1.1463  0.5290  0.0666
  452MOL0     C60903   0.184   6.405   8.081 -0.6018  0.0220  1.0836
  452MOL0     C60904   0.065   6.401   8.160 -0.0683 -0.3510 -0.1234
  452MOL0     C60905   0.035   6.496   8.264  0.0530  1.2670 -0.7633
  452MOL0     C60906   0.021   6.434   8.404  0.0919 -0.7360 -0.9117
  452MOL0     C60907  -0.037   6.536   8.502  0.5821  0.6438  0.0897
  452MOL0     C60908  -0.004   6.496   8.643  0.1990  0.4733 -0.2685
  452MOL0     O60909  -0.066   6.364   8.673  0.6728  0.1023  0.7176
  452MOL0     C60910  -0.179   6.354   8.748  0.5972  0.5162  0.0026
  452MOL0     C60911  -0.284   6.450   8.775 -0.1928  0.0029 -0.4892
  452MOL0     C60912  -0.385   6.414   8.864 -0.5005  0.1859  0.0962
  452MOL0     C60913  -0.393   6.293   8.936  0.6654  0.2171  1.2313
  452MOL0     C60914  -0.500   6.249   9.024  0.8171 -0.7454  0.1022
  452MOL0     O60915  -0.487   6.129   9.078  0.3816  0.1910 -0.5576
  452MOL0     C60916  -0.577   6.086   9.184 -0.0759  0.0993  2.0325
  452MOL0     C60917  -0.613   5.952   9.178 -0.1041 -0.5601  0.1505
  452MOL0     C60918  -0.689   5.884   9.275  0.1717 -0.3568  0.4001
  452MOL0     C60919  -0.733   5.966   9.389 -0.3177 -0.0619 -0.3815
  452MOL0     O60920  -0.802   5.915   9.489 -0.1856  0.3902 -0.1273
  452MOL0     C60921  -0.822   5.770   9.498 -0.1464  0.6433  0.4193
  452MOL0     C60922  -0.916   5.752   9.614 -0.3180 -0.1546 -0.1263
  452MOL0     C60923  -0.843   5.782   9.753 -0.6642 -0.3074 -0.9010
  452MOL0     C60924  -0.941   5.747   9.874  0.0573  0.2780  0.8380
  452MOL0     C60925  -1.085   5.803   9.854  0.2357  0.2013  0.1913
  452MOL0     C60926  -1.183   5.777   9.962 -0.3065  0.8000 -0.1813
  452MOL0     C60927  -1.269   5.659   9.949  0.5288  0.0957 -0.8771
  452MOL0     C60928  -1.378   5.657   9.843  0.2806 -0.4169  0.6788
  452MOL0    Cl60929  -1.403   5.483   9.774  0.2419 -0.0367 -0.4098
  452MOL0     C60930  -0.685   6.095   9.401  0.9067  0.8629  0.2284
  452MOL0     C60931  -0.627   6.163   9.293  0.1157  0.8718 -1.1766
  452MOL0     O60932  -0.589   6.327   9.057  0.4781  0.3314 -1.2189
  452MOL0     C60933  -0.293   6.200   8.902  0.3732  0.2237  0.4804
  452MOL0     C60934  -0.189   6.232   8.813 -0.7360  0.0392  0.0695
  452MOL0     N60935  -0.003   6.287   8.130  0.4401  0.3478 -0.0736
  452MOL0     N60936   0.061   6.227   8.036 -0.6775 -0.3666 -0.5139
  452MOL0     C60937   0.242   6.166   8.749 -0.9868 -0.9517 -0.0381
  452MOL0     C60938   0.154   6.117   8.850  0.2478  0.1268  0.4594
  452MOL0     C60939  -0.020   5.973   9.221  0.4277 -0.4690  0.2556
  452MOL0     C60940  -0.007   5.837   9.268 -0.7521 -0.3600  0.6058
  452MOL0     C60941  -0.101   5.777   9.346 -0.0071  0.1599  0.1152
  452MOL0     C60942  -0.216   5.841   9.378 -0.0242 -0.1992 -0.0004
  452MOL0     O60943  -0.310   5.768   9.455  0.1677 -0.2415  0.2560
  452MOL0     C60944  -0.414   5.845   9.509 -0.4272 -1.1106 -0.3170
  452MOL0     C60945  -0.372   5.921   9.644 -0.1935  0.5455  1.1417
  452MOL0     C60946  -0.270   5.842   9.732  0.7520  0.6275  0.7367
  452MOL0     C60947  -0.243   5.913   9.864 -0.7715  0.3566 -0.7867
  452MOL0     C60948  -0.206   6.057   9.847  0.1417  0.6391  0.0217
  452MOL0     C60949  -0.165   6.171   9.834 -0.6643 -0.0157 -0.0251
  452MOL0     C60950  -0.229   5.981   9.346  0.8609 -0.3643 -0.1596
  452MOL0     C60951  -0.133   6.050   9.273  0.2185 -0.6902  0.0382
  452MOL0     C60952  -0.166   6.201   9.269  0.0303  0.2308 -0.1317
  452MOL0     H60953   0.206   6.372   9.065  0.2184 -3.5557  1.3570
  452MOL0     H60954   0.350   6.453   8.894  2.8567 -1.1234 -5.0857
  452MOL0     H60955   0.444   6.196   8.542 -1.5202 -0.2562  0.3855
  452MOL0     H60956   0.283   6.267   8.521 -1.0385  0.1303  2.4382
  452MOL0     H60957   0.557   6.417   8.495  1.5834 -4.0403  0.3138
  452MOL0     H60958   0.402   6.463   8.401 -1.2706 -0.5436 -0.2558
  452MOL0     H60959   0.440   6.217   8.312 -0.2640 -0.4015  0.9953
  452MOL0     H60960   0.615   6.248   8.352  0.5867  0.9614 -1.3115
  452MOL0     H60961   0.462   6.412   8.159 -0.5508  0.3320  0.1821
  452MOL0     H60962   0.639   6.422   8.217  2.9078 -3.4865  4.5271
  452MOL0     H60963   0.644   6.300   7.999 -0.4768  0.6525 -0.2989
  452MOL0     H60964   0.652   6.176   8.120 -0.2448 -2.7067 -0.4780
  452MOL0     H60965   0.488   6.110   7.962 -0.0384  0.7035 -1.4841
  452MOL0     H60966   0.383   6.186   8.097  0.6870  0.7116  0.2849
  452MOL0     H60967   0.467   6.272   7.812  1.1012 -1.7671  1.4582
  452MOL0     H60968   0.437   6.397   7.938 -2.0602  0.0294  2.3286
  452MOL0     H60969   0.242   6.354   7.798 -1.8427  1.4193  1.3920
  452MOL0     H60970   0.232   6.180   7.846 -0.2584 -0.7155  2.4631
  452MOL0     H60971   0.260   6.480   8.102  0.0096 -0.1374 -0.4329
  452MOL0     H60972   0.125   6.559   8.268  1.4016 -0.6132  1.8057
  452MOL0     H60973  -0.058   6.549   8.240 -2.2244 -1.9633  0.3366
  452MOL0     H60974  -0.034   6.340   8.415  0.2602 -0.5193  3.0766
  452MOL0     H60975   0.123   6.405   8.434  0.3181  2.3602  1.8993
  452MOL0     H60976  -0.144   6.552   8.491  0.3403 -0.9661 -0.0960
  452MOL0     H60977   0.014   6.632   8.487  1.5666  0.1579  0.2002
  452MOL0     H60978  -0.032   6.582   8.706  1.2610  0.9580 -0.4250
  452MOL0     H60979   0.105   6.488   8.655  0.1465 -1.8013 -0.8602
  452MOL0     H60980  -0.296   6.546   8.725 -0.9149  0.2622  0.1678
  452MOL0     H60981  -0.461   6.488   8.886  0.7684  1.0933  1.5620
  452MOL0     H60982  -0.580   5.893   9.093 -1.7261 -1.7054  0.2808
  452MOL0     H60983  -0.701   5.778   9.259  1.0881 -0.1023 -2.5311
  452MOL0     H60984  -0.867   5.731   9.406  0.1446 -2.3608  1.4403
  452MOL0     H60985  -0.729   5.715   9.517 -0.1331 -0.3625 -2.1591
  452MOL0     H60986  -0.989   5.833   9.600  0.8778  0.7203 -1.5694
  452MOL0     H60987  -0.966   5.656   9.598  0.8226 -0.8913  0.6602
  452MOL0     H60988  -0.756   5.718   9.771 -0.3944 -0.2743 -1.9951
  452MOL0     H60989  -0.820   5.888   9.765  0.4546 -0.4784 -1.3980
  452MOL0     H60990  -0.907   5.780   9.973 -0.7417 -0.3574  1.3410
  452MOL0     H60991  -0.954   5.639   9.887 -1.8055  0.4920  1.0783
  452MOL0     H60992  -1.130   5.764   9.762  0.4535  0.4970 -0.0397
  452MOL0     H60993  -1.075   5.910   9.838  4.6898 -0.3428 -2.2843
  452MOL0     H60994  -1.111   5.767  10.043  0.8943  0.8682 -1.2071
  452MOL0     H60995  -1.257   5.856   9.975 -1.7561 -0.4700 -0.3885
  452MOL0     H60996  -1.318   5.643  10.045  2.6698  1.1896  0.4826
  452MOL0     H60997  -1.194   5.582   9.933  1.5374  0.3352  2.0608
  452MOL0     H60998  -1.475   5.695   9.875  1.2577  0.1260  3.2890
  452MOL0     H60999  -1.340   5.720   9.762 -2.3359  1.5973  0.8984
  452MOL0     H61000  -0.718   6.138   9.495  0.8662  1.2871  0.0231
  452MOL0     H61001  -0.597   6.267   9.306  1.7659  0.3988 -1.0818
  452MOL0     H61002  -0.282   6.102   8.946  1.8935  0.1828  0.0776
  452MOL0     H61003  -0.105   6.164   8.805 -1.7292 -1.3888  1.2639
  452MOL0     H61004   0.268   6.105   8.664  0.4861 -1.6339  0.8659
  452MOL0     H61005   0.103   6.022   8.833  1.1020 -0.5528  1.5662
  452MOL0     H61006   0.072   5.775   9.227 -0.9546 -0.1190 -0.1643
  452MOL0     H61007  -0.080   5.673   9.371  1.7441  0.4707  0.1061
  452MOL0     H61008  -0.489   5.772   9.542  0.2959 -0.3099  3.5244
  452MOL0     H61009  -0.462   5.908   9.433 -1.0552 -0.7250  0.3932
  452MOL0     H61010  -0.467   5.930   9.697 -2.3346 -3.7490 -1.3426
  452MOL0     H61011  -0.330   6.018   9.615  2.2342 -0.3594  1.4204
  452MOL0     H61012  -0.169   5.837   9.690  1.5389  1.3737  2.4723
  452MOL0     H61013  -0.299   5.736   9.736 -0.5213  0.8039 -1.6925
  452MOL0     H61014  -0.326   5.915   9.935 -1.2611  3.6660 -1.3031
  452MOL0     H61015  -0.155   5.862   9.904  0.3853  3.5270  1.0270
  452MOL0     H61016  -0.129   6.270   9.813  2.5269 -0.9700  0.5629
  452MOL0     H61017  -0.312   6.035   9.389 -1.4241 -2.3952 -1.7657
  452MOL0     H61018  -0.212   6.236   9.362 -0.0400 -1.2523  0.4081
  452MOL0     H61019  -0.071   6.254   9.258  0.8941 -1.5182 -1.4592
  452MOL0     H61020  -0.235   6.227   9.188  1.4024 -0.2919 -1.5084
  453MOL0     O61021   8.846   2.706   8.486  0.2798 -0.7546  0.0302
  453MOL0     C61022   8.837   2.696   8.366  0.0464 -1.4245  1.2315
  453MOL0     O61023   8.779   2.587   8.300 -0.4107  0.1259 -0.6780
  453MOL0     C61024   8.699   2.501   8.364  0.1555  0.1009  0.4787
  453MOL0     C61025   8.598   2.543   8.460  0.0318  0.8149  0.6145
  453MOL0     C61026   8.511   2.461   8.521  0.4937  0.1317  1.5590
  453MOL0     C61027   8.516   2.325   8.493  0.7074  0.6759  0.4748
  453MOL0     O61028   8.429   2.240   8.554  0.2754  0.4350  0.0471
  453MOL0     C61029   8.479   2.140   8.654  0.1828 -0.7566 -0.3077
  453MOL0     C61030   8.479   2.216   8.797 -0.2382 -0.7925  0.9261
  453MOL0     C61031   8.350   2.205   8.877 -0.4531 -1.8626  0.0363
  453MOL0     C61032   8.354   2.097   8.989 -0.5723  0.3509 -0.9088
  453MOL0     C61033   8.417   2.161   9.110 -0.2009 -0.0355  0.2608
  453MOL0     C61034   8.414   2.068   9.221 -0.7677  0.1967  0.2930
  453MOL0     C61035   8.405   2.129   9.358 -0.6337  0.2591 -0.4127
  453MOL0     C61036   8.370   2.025   9.463  0.6799 -0.2163 -0.4115
  453MOL0     N61037   8.417   2.069   9.596 -0.7990  0.3622  0.4728
  453MOL0     C61038   8.406   2.193   9.641 -0.3331  0.3792  0.3569
  453MOL0     C61039   8.476   2.195   9.757 -0.7299 -0.0324 -1.0838
  453MOL0     C61040   8.510   2.312   9.845  0.1376 -0.4690  0.7951
  453MOL0     C61041   8.423   2.435   9.851  0.2648 -0.5581 -1.0813
  453MOL0     C61042   8.402   2.473  10.006 -0.0816 -0.0073 -0.2618
  453MOL0     C61043   8.540   2.526  10.060  0.2739  0.2440  0.1459
  453MOL0     O61044   8.565   2.655  10.009  0.4484 -1.3910 -0.2159
  453MOL0     C61045   8.685   2.715  10.037 -0.9225 -0.3768 -0.4765
  453MOL0     C61046   8.706   2.844   9.988  0.1123 -0.3363 -0.5413
  453MOL0     C61047   8.819   2.916  10.031  0.4530  0.0767 -1.0244
  453MOL0     C61048   8.913   2.858  10.117  0.7659  0.0045 -0.8405
  453MOL0     C61049   9.025   2.927  10.176  0.4317  0.0532  0.6303
  453MOL0     O61050   9.094   2.875  10.288  0.3033 -0.5467  0.5914
  453MOL0     C61051   9.181   2.954  10.352  0.0572 -0.3826 -0.3319
  453MOL0     C61052   9.309   2.987  10.307  0.3684 -1.6450  0.7636
  453MOL0     C61053   9.405   3.055  10.383 -1.2087 -0.3209 -0.1093
  453MOL0     C61054   9.372   3.102  10.514 -0.9955 -1.0709  0.1773
  453MOL0     O61055   9.475   3.159  10.589 -0.1344  0.6558 -0.0548
  453MOL0     C61056   9.501   3.105  10.719 -0.7185 -0.0242  0.0725
  453MOL0     C61057   9.613   3.189  10.790  0.2075 -0.5585  0.6602
  453MOL0     C61058   9.631   3.149  10.935 -0.0671 -1.0739 -0.0579
  453MOL0     C61059   9.691   3.262  11.017  0.9678  0.3276  0.0931
  453MOL0     C61060   9.727   3.218  11.160  0.3899 -0.0020  0.6996
  453MOL0     C61061   9.748   3.343  11.242 -0.0875 -0.3371  0.7186
  453MOL0     C61062   9.800   3.307  11.388  0.5007 -0.8193 -0.3819
  453MOL0     C61063   9.808   3.432  11.477 -1.1536  0.5210  0.2376
  453MOL0    Cl61064   9.649   3.506  11.500 -0.1953  0.0403 -0.0832
  453MOL0     C61065   9.242   3.060  10.559 -0.0400  0.2135 -0.2301
  453MOL0     C61066   9.147   2.991  10.479  0.9404  0.4783 -0.6337
  453MOL0     O61067   9.053   3.044  10.136  0.2714  0.2446 -1.0406
  453MOL0     C61068   8.910   2.719  10.147 -0.2310  0.1751 -0.6136
  453MOL0     C61069   8.790   2.652  10.102 -0.3662 -0.4192  0.7888
  453MOL0     N61070   8.511   2.068   9.781 -0.2559  0.4369  0.1536
  453MOL0     N61071   8.481   1.992   9.680  0.3355 -0.1960  0.1453
  453MOL0     C61072   8.615   2.277   8.405  0.4428  0.0787 -0.3710
  453MOL0     C61073   8.701   2.365   8.338 -0.8346  0.5294  0.2143
  453MOL0     C61074   8.862   2.822   8.276  0.5202  0.2283  0.4677
  453MOL0     C61075   8.843   2.947   8.332 -0.1325 -0.8716  0.0484
  453MOL0     C61076   8.870   3.071   8.272  0.2458  1.0624 -0.7072
  453MOL0     C61077   8.910   3.068   8.139  0.0487  0.2107  0.1982
  453MOL0     O61078   8.937   3.177   8.070  0.4879  0.3023 -0.2184
  453MOL0     C61079   8.835   3.281   8.043 -0.3396 -0.6522 -1.0847
  453MOL0     C61080   8.868   3.359   7.913 -0.4736 -0.1968  0.3542
  453MOL0     C61081   8.892   3.513   7.925 -0.1585 -0.4544  0.5630
  453MOL0     C61082   8.994   3.556   8.033 -0.3453 -0.3444  0.4813
  453MOL0     C61083   9.015   3.701   8.029  0.7728  0.3089 -0.0167
  453MOL0     C61084   9.024   3.820   8.032 -0.2718  0.3182  0.2360
  453MOL0     C61085   8.933   2.946   8.074  1.2367  0.2671  0.1128
  453MOL0     C61086   8.908   2.820   8.137  0.4756  0.2531  0.8012
  453MOL0     C61087   8.942   2.695   8.062  0.1533  0.1384  0.3145
  453MOL0     H61088   8.577   2.647   8.485 -0.1835  1.1176 -0.7169
  453MOL0     H61089   8.427   2.496   8.580 -2.9387 -3.0942 -0.9193
  453MOL0     H61090   8.399   2.066   8.650 -0.4016 -0.1716  0.4207
  453MOL0     H61091   8.579   2.103   8.630 -0.1152 -2.6277  1.0982
  453MOL0     H61092   8.513   2.318   8.773  2.5869 -1.5220  1.4750
  453MOL0     H61093   8.564   2.187   8.860 -1.9582 -2.5095  2.5699
  453MOL0     H61094   8.274   2.185   8.801  0.1072  0.6779 -1.2989
  453MOL0     H61095   8.330   2.303   8.921 -0.9603 -1.4554 -1.0591
  453MOL0     H61096   8.254   2.064   9.020 -1.2831  1.8742 -1.4872
  453MOL0     H61097   8.404   2.012   8.942  0.5599  1.3410 -1.5484
  453MOL0     H61098   8.522   2.191   9.103  0.5419 -2.0342  1.8662
  453MOL0     H61099   8.366   2.255   9.129 -2.7783 -0.4696 -3.5237
  453MOL0     H61100   8.329   2.002   9.204  1.0144 -2.0347 -0.5805
  453MOL0     H61101   8.501   2.001   9.222  0.7141  1.9639 -1.7454
  453MOL0     H61102   8.337   2.214   9.367 -1.8659 -0.6379 -1.0120
  453MOL0     H61103   8.506   2.163   9.386 -1.6217  1.7284  1.6256
  453MOL0     H61104   8.263   2.009   9.476  0.7255  0.7809  1.5057
  453MOL0     H61105   8.415   1.926   9.446 -2.5238 -2.2761  1.9006
  453MOL0     H61106   8.379   2.277   9.577  0.8554 -1.0125 -2.1122
  453MOL0     H61107   8.521   2.271   9.945 -1.8428  2.7556  2.5096
  453MOL0     H61108   8.610   2.348   9.820 -0.5752  0.3561 -1.0531
  453MOL0     H61109   8.458   2.529   9.807 -0.0403  2.3766  4.0485
  453MOL0     H61110   8.330   2.410   9.800  0.1022  3.0106 -2.8092
  453MOL0     H61111   8.359   2.391  10.064 -3.5408  2.1511  0.4728
  453MOL0     H61112   8.335   2.558  10.018  1.7916  1.3674  1.0078
  453MOL0     H61113   8.622   2.463  10.022  0.8951  1.2863 -0.2702
  453MOL0     H61114   8.537   2.517  10.169 -2.6216 -3.1245 -0.0231
  453MOL0     H61115   8.628   2.882   9.922  0.5700 -2.1629 -2.2225
  453MOL0     H61116   8.819   3.021  10.005 -5.2285  0.5039 -0.5747
  453MOL0     H61117   9.341   2.948  10.211 -1.0126 -1.1834  0.0914
  453MOL0     H61118   9.508   3.064  10.348 -1.3327  0.1926 -0.3513
  453MOL0     H61119   9.411   3.101  10.781 -0.2864 -0.7361  0.6676
  453MOL0     H61120   9.536   3.002  10.709  1.3158  0.6023  0.2226
  453MOL0     H61121   9.701   3.161  10.732 -1.9862 -2.4312 -2.0705
  453MOL0     H61122   9.588   3.296  10.789  1.7738 -0.0216  4.2414
  453MOL0     H61123   9.543   3.114  10.989 -0.6447 -0.3882 -0.5219
  453MOL0     H61124   9.701   3.065  10.936  0.5077 -0.5960  0.2947
  453MOL0     H61125   9.613   3.338  11.028 -2.5574 -2.7272 -1.2463
  453MOL0     H61126   9.768   3.314  10.960 -0.2617 -0.3305 -2.2722
  453MOL0     H61127   9.817   3.157  11.154  2.1568  2.5550 -1.1425
  453MOL0     H61128   9.641   3.165  11.201 -1.8157  3.5404  1.1342
  453MOL0     H61129   9.819   3.412  11.196 -0.9988  0.0445 -0.1638
  453MOL0     H61130   9.648   3.388  11.244  0.6633  1.6108 -1.1968
  453MOL0     H61131   9.901   3.267  11.378  0.5377 -0.8853  0.2274
  453MOL0     H61132   9.729   3.239  11.437 -1.9664  3.2469  2.3870
  453MOL0     H61133   9.854   3.421  11.575  1.6388  2.1220 -0.7668
  453MOL0     H61134   9.880   3.500  11.431 -0.1747 -0.6687 -0.0533
  453MOL0     H61135   9.217   3.085  10.661  2.1606 -2.9669  1.2353
  453MOL0     H61136   9.044   2.964  10.501  1.2327 -0.1428  0.0154
  453MOL0     H61137   8.985   2.672  10.210 -1.7156  0.4861  1.4859
  453MOL0     H61138   8.788   2.546  10.125  0.8979 -0.1735  2.1159
  453MOL0     H61139   8.632   2.171   8.390  0.7781  0.0920 -0.0987
  453MOL0     H61140   8.774   2.326   8.268 -2.4036 -1.0344 -0.6286
  453MOL0     H61141   8.807   2.961   8.433 -2.8887 -1.1214 -0.8213
  453MOL0     H61142   8.840   3.160   8.326 -3.7372  0.0564 -0.9894
  453MOL0     H61143   8.840   3.350   8.128  3.0822  0.2768 -1.8634
  453MOL0     H61144   8.732   3.246   8.039 -0.4346 -0.2568 -3.2621
  453MOL0     H61145   8.784   3.338   7.846  0.8288 -0.3113 -1.2960
  453MOL0     H61146   8.955   3.317   7.862 -1.2485 -0.7969 -0.5048
  453MOL0     H61147   8.796   3.565   7.936  1.6400  3.2355  0.3905
  453MOL0     H61148   8.936   3.544   7.830  0.2822 -1.4279  0.4327
  453MOL0     H61149   8.949   3.536   8.131  0.1492 -0.3509  0.7062
  453MOL0     H61150   9.091   3.510   8.014  1.4691  3.4936 -0.5091
  453MOL0     H61151   9.031   3.926   8.041 -1.3654  0.3794  0.6041
  453MOL0     H61152   8.971   2.961   7.974 -1.1917  3.9352 -0.4522
  453MOL0     H61153   9.000   2.626   8.123  2.4297  2.9999  1.6082
  453MOL0     H61154   8.848   2.641   8.049 -0.4523  0.9520  1.1847
  453MOL0     H61155   8.999   2.723   7.972  0.4798  0.7694  0.7107
  454MOL0     O61156   1.134  10.496   9.026  0.1347 -0.4182 -0.1554
  454MOL0     C61157   1.205  10.446   9.110 -1.0379  0.3053 -0.5185
  454MOL0     O61158   1.206  10.478   9.242 -0.4259 -1.2834 -0.5630
  454MOL0     C61159   1.115  10.575   9.285 -0.4788  0.7288  0.5616
  454MOL0     C61160   1.125  10.710   9.249 -0.1197  0.4965  0.4477
  454MOL0     C61161   1.035  10.806   9.314  0.0662 -0.3745 -0.9211
  454MOL0     C61162   0.949  10.763   9.424 -0.8158 -0.5739 -0.0775
  454MOL0     O61163   0.861  10.859   9.468  0.0870 -0.3094  0.6306
  454MOL0     C61164   0.777  10.828   9.584  0.0355 -0.0187 -1.1628
  454MOL0     C61165   0.834  10.911   9.709 -0.1896  0.0800 -0.7842
  454MOL0     C61166   0.840  11.066   9.699 -0.5418 -0.8099  0.2256
  454MOL0     C61167   0.702  11.134   9.668 -0.0881 -0.1598  0.7416
  454MOL0     C61168   0.724  11.283   9.622 -0.0217  1.4095  1.2653
  454MOL0     C61169   0.576  11.334   9.601 -0.1179 -0.4042  0.2861
  454MOL0     C61170   0.586  11.476   9.538 -0.1466  0.0254 -0.2681
  454MOL0     C61171   0.659  11.579   9.620 -0.1535  0.5768  0.4073
  454MOL0     N61172   0.652  11.706   9.558 -0.2302 -0.0297 -0.1081
  454MOL0     C61173   0.541  11.756   9.483 -1.2422  0.4355  0.2432
  454MOL0     C61174   0.590  11.878   9.427 -0.1169  0.4002  0.1896
  454MOL0     C61175   0.517  11.991   9.349 -0.8068 -0.3011  0.5877
  454MOL0     C61176   0.470  12.099   9.447 -0.2758  0.4853  0.9360
  454MOL0     C61177   0.398  12.209   9.369 -0.0243  1.0591 -0.2318
  454MOL0     C61178   0.497  12.320   9.338  0.1144  0.4837  0.2284
  454MOL0     O61179   0.527  12.336   9.194  0.5768 -0.4907  0.4780
  454MOL0     C61180   0.426  12.373   9.099 -0.6223 -0.1200  1.2300
  454MOL0     C61181   0.476  12.363   8.977  0.1144 -0.1128  0.7225
  454MOL0     C61182   0.408  12.394   8.861  0.2284 -0.3357 -0.2571
  454MOL0     C61183   0.272  12.434   8.879  0.2606  0.1034  0.3463
  454MOL0     C61184   0.198  12.483   8.756  0.0097 -1.1720  0.2199
  454MOL0     O61185   0.273  12.519   8.642  0.6794  0.2429 -0.0166
  454MOL0     C61186   0.212  12.586   8.544  0.4663 -0.6539 -0.5569
  454MOL0     C61187   0.122  12.529   8.454  0.2007  0.1048  0.5683
  454MOL0     C61188   0.058  12.614   8.360  0.0399 -0.3737 -0.2477
  454MOL0     C61189   0.093  12.753   8.351 -0.8005 -0.3793  0.2479
  454MOL0     O61190   0.027  12.824   8.253  0.1802 -0.9516 -0.3508
  454MOL0     C61191   0.036  12.964   8.274  1.1928  0.0420 -0.5503
  454MOL0     C61192  -0.060  13.012   8.384 -0.3970 -0.1842  0.0235
  454MOL0     C61193  -0.004  13.112   8.486 -0.4335 -0.5240  0.0763
  454MOL0     C61194   0.070  13.236   8.425 -0.7180  0.0026 -0.3667
  454MOL0     C61195  -0.036  13.328   8.347 -0.4008  0.1096  0.7704
  454MOL0     C61196  -0.167  13.352   8.414  0.5141 -0.0297  0.4872
  454MOL0     C61197  -0.263  13.439   8.323 -0.3622 -0.5168  0.2861
  454MOL0     C61198  -0.373  13.527   8.390 -0.5167 -0.7169 -0.8066
  454MOL0    Cl61199  -0.511  13.512   8.277  0.3657  0.5588  0.2122
  454MOL0     C61200   0.203  12.799   8.430 -0.3568  0.0687  0.6928
  454MOL0     C61201   0.257  12.714   8.522 -0.1642 -0.6118  0.5587
  454MOL0     O61202   0.077  12.503   8.775  0.2966 -0.0596  0.3059
  454MOL0     C61203   0.219  12.435   9.009 -0.2919  0.2342 -0.0257
  454MOL0     C61204   0.305  12.425   9.122 -0.7564 -0.2141 -0.5976
  454MOL0     N61205   0.725  11.885   9.457  0.3396 -0.8903 -0.5863
  454MOL0     N61206   0.762  11.784   9.529  0.1177 -0.4354  0.2463
  454MOL0     C61207   0.964  10.626   9.466  0.4155 -0.5029  0.2389
  454MOL0     C61208   1.041  10.536   9.399  0.1952 -0.4720  0.5287
  454MOL0     C61209   1.301  10.337   9.066 -0.2430  0.3516 -0.4146
  454MOL0     C61210   1.413  10.312   9.150 -1.4556  0.1143  0.0341
  454MOL0     C61211   1.508  10.207   9.141  0.7638 -0.5750  0.4835
  454MOL0     C61212   1.495  10.131   9.027 -0.4345  0.9990 -0.5147
  454MOL0     O61213   1.576  10.025   9.011 -0.2003 -0.2133  0.2974
  454MOL0     C61214   1.585   9.940   8.888  0.2378  0.1053  0.0034
  454MOL0     C61215   1.711   9.845   8.901  0.3358 -1.3200 -0.5127
  454MOL0     C61216   1.731   9.733   8.780  0.9059  0.2477 -0.3820
  454MOL0     C61217   1.595   9.658   8.757 -0.2806 -0.4287  0.1809
  454MOL0     C61218   1.554   9.573   8.876 -0.0705 -0.5704  0.0068
  454MOL0     C61219   1.506   9.528   8.973  0.6432 -0.5354 -0.1127
  454MOL0     C61220   1.394  10.162   8.936  0.7172 -0.6002 -0.6948
  454MOL0     C61221   1.292  10.258   8.951 -0.2977 -0.0799  0.4501
  454MOL0     C61222   1.179  10.274   8.855 -0.3990  1.1904 -0.4670
  454MOL0     H61223   1.191  10.736   9.167  1.4937 -3.3485  0.3165
  454MOL0     H61224   1.044  10.903   9.266  4.3297  0.1439  0.5316
  454MOL0     H61225   0.688  10.889   9.569  0.2287  0.4027 -0.6367
  454MOL0     H61226   0.751  10.726   9.615 -1.9098  1.2603  1.9311
  454MOL0     H61227   0.929  10.863   9.731 -2.8460 -5.7543  0.0099
  454MOL0     H61228   0.773  10.873   9.791 -0.4644 -2.7799 -2.1977
  454MOL0     H61229   0.910  11.092   9.620 -0.5478 -0.8855  0.1942
  454MOL0     H61230   0.871  11.115   9.792  0.9148  0.0352 -0.6829
  454MOL0     H61231   0.657  11.090   9.579 -2.2332  4.3060 -0.6515
  454MOL0     H61232   0.638  11.131   9.757  0.0865 -0.3655  0.8634
  454MOL0     H61233   0.777  11.335   9.702 -1.4107  0.5030  2.8470
  454MOL0     H61234   0.776  11.295   9.527 -3.3093 -1.0052 -1.1042
  454MOL0     H61235   0.509  11.266   9.547 -0.1701 -0.3984  0.3456
  454MOL0     H61236   0.524  11.339   9.697 -0.1018 -0.8191  0.3178
  454MOL0     H61237   0.482  11.497   9.509 -0.7870 -2.0696  0.3708
  454MOL0     H61238   0.632  11.488   9.439  3.2700  1.3497  1.3224
  454MOL0     H61239   0.608  11.583   9.716  2.2145 -3.0890  2.0445
  454MOL0     H61240   0.764  11.550   9.629 -0.5224 -0.6716  0.9762
  454MOL0     H61241   0.442  11.712   9.483 -0.6947 -0.8414  0.6713
  454MOL0     H61242   0.588  12.040   9.281 -1.4743  1.4754  1.1119
  454MOL0     H61243   0.438  11.942   9.292  0.3559 -1.1001 -0.3921
  454MOL0     H61244   0.400  12.068   9.525 -1.0341  1.9000  0.8665
  454MOL0     H61245   0.546  12.145   9.511 -1.3742  1.9543  1.2410
  454MOL0     H61246   0.315  12.246   9.431 -2.7511 -3.5571 -0.6903
  454MOL0     H61247   0.348  12.167   9.281 -2.2891 -2.0626  2.2770
  454MOL0     H61248   0.593  12.307   9.388  1.5271  1.7595 -2.0010
  454MOL0     H61249   0.451  12.414   9.368 -2.0630  0.5557 -2.8797
  454MOL0     H61250   0.575  12.324   8.957 -0.2975  0.3931 -2.9254
  454MOL0     H61251   0.451  12.385   8.762  2.1871 -2.0342  0.6707
  454MOL0     H61252   0.090  12.427   8.475  1.6132 -0.0386  2.2642
  454MOL0     H61253  -0.020  12.577   8.295 -0.7190  1.1668 -0.2534
  454MOL0     H61254   0.135  13.005   8.291  1.7046 -0.8370 -1.3196
  454MOL0     H61255  -0.009  13.007   8.183 -1.8195  1.2597  1.3684
  454MOL0     H61256  -0.150  13.058   8.343  1.3276  0.3198 -3.5925
  454MOL0     H61257  -0.099  12.925   8.438 -0.2344  1.0405  2.2277
  454MOL0     H61258  -0.074  13.145   8.563 -1.8529  1.7811 -2.0405
  454MOL0     H61259   0.070  13.060   8.547 -0.4469 -1.6912 -0.8731
  454MOL0     H61260   0.159  13.208   8.368 -0.2792 -0.7859  0.6784
  454MOL0     H61261   0.101  13.291   8.514 -4.1279 -0.1692  1.0856
  454MOL0     H61262  -0.037  13.272   8.253  1.0746 -0.3778  1.0253
  454MOL0     H61263   0.005  13.429   8.333 -0.2134 -0.0918 -0.1899
  454MOL0     H61264  -0.218  13.260   8.444  1.6738 -0.8638 -0.0162
  454MOL0     H61265  -0.147  13.411   8.504  1.0683  2.2164 -1.0314
  454MOL0     H61266  -0.300  13.364   8.253  0.4211 -0.7935  0.1586
  454MOL0     H61267  -0.209  13.513   8.264 -1.0066 -1.1693 -1.1503
  454MOL0     H61268  -0.399  13.471   8.480  0.5142  1.1340  0.7094
  454MOL0     H61269  -0.339  13.629   8.407 -0.4852 -0.7727 -0.5393
  454MOL0     H61270   0.238  12.902   8.435 -1.9721  0.6829 -0.1216
  454MOL0     H61271   0.346  12.756   8.567  0.3238 -1.7290  0.6840
  454MOL0     H61272   0.113  12.455   9.019 -0.4675 -0.4245 -0.4464
  454MOL0     H61273   0.256  12.428   9.219 -0.3566  1.6526 -0.4132
  454MOL0     H61274   0.914  10.588   9.555  0.1082 -1.1689 -0.2112
  454MOL0     H61275   1.059  10.436   9.436  0.2969 -1.1013 -1.1471
  454MOL0     H61276   1.436  10.383   9.230  1.3693 -0.9825  0.3096
  454MOL0     H61277   1.583  10.182   9.216  0.6554 -1.8490  0.1916
  454MOL0     H61278   1.588   9.998   8.796 -0.6824  2.0354  1.1066
  454MOL0     H61279   1.501   9.870   8.876  0.3697 -0.1352  0.4427
  454MOL0     H61280   1.707   9.798   9.000  2.1616 -2.9722 -1.1638
  454MOL0     H61281   1.809   9.894   8.900 -0.0663 -0.1629  2.9150
  454MOL0     H61282   1.819   9.670   8.793  1.5758  1.3170  0.3747
  454MOL0     H61283   1.746   9.805   8.699 -2.3739  3.3508  1.4461
  454MOL0     H61284   1.511   9.727   8.747 -0.0517 -0.1432  0.2095
  454MOL0     H61285   1.599   9.608   8.660 -2.9371 -0.1696 -0.1347
  454MOL0     H61286   1.461   9.483   9.059 -1.9881  0.5710 -0.7939
  454MOL0     H61287   1.399  10.100   8.847 -1.3368 -1.5686 -0.2012
  454MOL0     H61288   1.200  10.191   8.788 -0.0093  1.4241 -0.6375
  454MOL0     H61289   1.088  10.260   8.915 -0.5265 -1.0233 -1.1085
  454MOL0     H61290   1.176  10.373   8.809  2.9591  1.1092 -1.1042
  455MOL0     O61291   7.448   7.583   0.501 -0.4502 -0.1335  0.2333
  455MOL0     C61292   7.469   7.680   0.576  0.4916  0.6513 -0.7616
  455MOL0     O61293   7.588   7.703   0.641 -0.5078  0.1928  0.2884
  455MOL0     C61294   7.703   7.674   0.570  0.0649 -0.3939  0.7997
  455MOL0     C61295   7.710   7.676   0.428  1.2459 -0.0065 -0.4525
  455MOL0     C61296   7.820   7.625   0.371 -0.3453  0.2642 -0.1082
  455MOL0     C61297   7.935   7.584   0.439  0.0104 -0.1974  1.2820
  455MOL0     O61298   8.037   7.540   0.354  0.3316 -0.5346 -0.6327
  455MOL0     C61299   8.178   7.544   0.407 -0.0002  0.3332  0.1102
  455MOL0     C61300   8.261   7.594   0.284  0.0196  0.2382 -0.2231
  455MOL0     C61301   8.307   7.471   0.206  1.6267  0.2542 -0.2092
  455MOL0     C61302   8.410   7.499   0.093 -0.6039 -0.2306  0.0446
  455MOL0     C61303   8.486   7.374   0.033 -0.9155 -0.2559  0.6618
  455MOL0     C61304   8.543   7.272   0.131  0.0022 -0.0902  1.4202
  455MOL0     C61305   8.637   7.161   0.063  0.2300  0.1712  0.6511
  455MOL0     C61306   8.783   7.218   0.042  0.6507 -0.5688  0.0202
  455MOL0     N61307   8.855   7.203  -0.080 -0.3379 -0.6024  0.0868
  455MOL0     C61308   8.828   7.285  -0.187 -0.8056 -1.0665  0.0200
  455MOL0     C61309   8.928   7.270  -0.273  0.1690  0.9772  0.2006
  455MOL0     C61310   8.936   7.348  -0.393  0.2613 -1.4164  0.5923
  455MOL0     C61311   9.023   7.467  -0.376 -0.2531 -0.6293 -1.0990
  455MOL0     C61312   9.178   7.434  -0.361 -1.0317 -0.4532  0.1149
  455MOL0     C61313   9.240   7.334  -0.468  0.0020  0.1738 -0.7040
  455MOL0     O61314   9.216   7.387  -0.603 -0.0384 -0.0370 -0.1837
  455MOL0     C61315   9.239   7.311  -0.713 -0.1122 -0.2100  0.4695
  455MOL0     C61316   9.165   7.344  -0.822 -0.2855 -0.5821  0.1726
  455MOL0     C61317   9.180   7.275  -0.937  0.2868  0.1790  0.3531
  455MOL0     C61318   9.280   7.179  -0.956 -0.6916  0.9136  0.4648
  455MOL0     C61319   9.306   7.111  -1.082 -1.6229 -0.1623 -0.4838
  455MOL0     O61320   9.188   7.065  -1.133 -0.8301 -0.0087 -0.7035
  455MOL0     C61321   9.177   7.046  -1.276  0.8641 -0.2405 -0.1100
  455MOL0     C61322   9.048   7.014  -1.326  0.1905 -0.0958 -0.7874
  455MOL0     C61323   9.021   6.995  -1.462  0.1644  0.5051  0.4002
  455MOL0     C61324   9.122   6.994  -1.557  0.0656 -0.3408 -0.2690
  455MOL0     O61325   9.115   6.977  -1.689 -0.4415  0.0270 -0.1637
  455MOL0     C61326   9.003   6.925  -1.755 -0.4360  0.6604  0.4105
  455MOL0     C61327   9.028   6.919  -1.910  1.1789 -0.7648 -0.4176
  455MOL0     C61328   8.899   6.936  -1.981  0.1886  0.2631  0.1836
  455MOL0     C61329   8.907   6.834  -2.096  1.2525  0.0720 -0.8042
  455MOL0     C61330   8.761   6.832  -2.169  0.7138  0.7717  0.0141
  455MOL0     C61331   8.731   6.960  -2.242  1.0114 -0.3173 -0.4586
  455MOL0     C61332   8.813   6.951  -2.374 -0.1184  0.7266  0.7891
  455MOL0     C61333   8.794   7.078  -2.461 -0.4845  0.3123 -0.4105
  455MOL0    Cl61334   8.625   7.097  -2.529 -0.6863 -0.0331 -0.1093
  455MOL0     C61335   9.245   7.025  -1.512 -0.5039 -0.3918 -0.2073
  455MOL0     C61336   9.280   7.044  -1.372 -0.1874  1.8721 -0.5362
  455MOL0     O61337   9.422   7.078  -1.111 -0.3445 -0.4345 -0.2734
  455MOL0     C61338   9.369   7.161  -0.851 -0.0382  1.0060 -0.3208
  455MOL0     C61339   9.348   7.229  -0.728  0.8870  0.7247 -0.0349
  455MOL0     N61340   9.021   7.183  -0.222  0.2558 -0.1472  0.4567
  455MOL0     N61341   8.973   7.143  -0.105 -0.2903 -0.2606 -1.6137
  455MOL0     C61342   7.933   7.587   0.585  0.2341  0.5072  0.5817
  455MOL0     C61343   7.815   7.635   0.646 -0.8042 -0.0548 -0.0332
  455MOL0     C61344   7.354   7.775   0.617 -0.0488 -0.8952 -0.0676
  455MOL0     C61345   7.352   7.817   0.750  0.0959  0.8425 -0.6960
  455MOL0     C61346   7.262   7.905   0.798 -0.2513  0.1102 -0.8160
  455MOL0     C61347   7.155   7.948   0.709 -0.1980 -0.1194 -0.6034
  455MOL0     O61348   7.065   8.025   0.775 -0.2320 -0.2333  0.2491
  455MOL0     C61349   6.945   8.063   0.701 -0.9654  0.0294 -0.0628
  455MOL0     C61350   6.835   8.133   0.777 -0.3145 -0.7786  0.3204
  455MOL0     C61351   6.774   8.056   0.887  0.0500 -0.4961  0.2661
  455MOL0     C61352   6.625   8.090   0.893 -0.4787 -0.3792 -0.9502
  455MOL0     C61353   6.581   8.002   1.006 -0.4768  0.1903 -0.4244
  455MOL0     C61354   6.542   7.930   1.105  0.1776 -1.2192  0.5890
  455MOL0     C61355   7.147   7.892   0.576  0.1071 -0.2928  0.4871
  455MOL0     C61356   7.251   7.817   0.524 -0.2208 -0.2629  0.8668
  455MOL0     C61357   7.235   7.760   0.385  0.5033  0.6130  0.0404
  455MOL0     H61358   7.625   7.703   0.367 -1.3379 -1.3236  2.3294
  455MOL0     H61359   7.818   7.620   0.263 -1.9502  0.6153 -0.1250
  455MOL0     H61360   8.192   7.614   0.489 -2.9037  1.4832 -0.2744
  455MOL0     H61361   8.206   7.443   0.441  0.6545  0.8700  1.2247
  455MOL0     H61362   8.353   7.644   0.316 -0.1299 -1.0643  2.5614
  455MOL0     H61363   8.205   7.661   0.220 -1.5938  1.6720  2.5075
  455MOL0     H61364   8.221   7.429   0.153  0.0428 -1.1206  3.1227
  455MOL0     H61365   8.348   7.391   0.269  0.8775 -0.2412 -0.3426
  455MOL0     H61366   8.372   7.568   0.016 -2.3289  0.6284  1.5695
  455MOL0     H61367   8.494   7.552   0.139  1.7954 -0.0061 -4.0955
  455MOL0     H61368   8.416   7.319  -0.030  0.1344 -3.3183  1.9767
  455MOL0     H61369   8.563   7.401  -0.040 -0.8054 -0.3366  0.7476
  455MOL0     H61370   8.590   7.333   0.210  0.3004 -0.5430  1.5958
  455MOL0     H61371   8.455   7.221   0.170 -0.0820 -2.7493 -1.8741
  455MOL0     H61372   8.613   7.130  -0.039  0.5618 -1.8642  1.1266
  455MOL0     H61373   8.635   7.072   0.126  0.8029  0.1736  0.6816
  455MOL0     H61374   8.783   7.327   0.050  1.1526 -0.3919 -1.9249
  455MOL0     H61375   8.839   7.182   0.128 -0.5075 -2.6375 -0.0117
  455MOL0     H61376   8.746   7.356  -0.200  0.2629  0.2541  0.3189
  455MOL0     H61377   8.971   7.287  -0.477  0.6810 -0.9290  0.4083
  455MOL0     H61378   8.837   7.381  -0.426  1.4915  4.2633  1.4157
  455MOL0     H61379   9.000   7.539  -0.455 -2.6163  3.2399  2.6631
  455MOL0     H61380   8.982   7.520  -0.290 -0.1771 -1.4525 -0.5484
  455MOL0     H61381   9.182   7.376  -0.268 -1.6586 -1.8135 -0.6804
  455MOL0     H61382   9.240   7.524  -0.350 -0.4215 -0.6645 -1.3340
  455MOL0     H61383   9.177   7.244  -0.463  0.7720 -0.5596 -2.9943
  455MOL0     H61384   9.346   7.309  -0.454 -0.4892 -1.2771  0.6836
  455MOL0     H61385   9.096   7.428  -0.822  0.1722 -0.1510  2.5462
  455MOL0     H61386   9.097   7.297  -1.004 -0.5725 -0.3252  1.2277
  455MOL0     H61387   8.957   7.032  -1.269  1.4797 -0.8727  1.6670
  455MOL0     H61388   8.918   6.981  -1.493  0.0926  1.4500  0.1726
  455MOL0     H61389   8.977   6.828  -1.712 -1.7303  1.2220  0.9341
  455MOL0     H61390   8.923   6.995  -1.730  0.7697  2.1794  0.1884
  455MOL0     H61391   9.098   6.995  -1.946  0.5724 -0.4916 -1.0398
  455MOL0     H61392   9.070   6.822  -1.936 -0.7025 -1.6491 -0.3548
  455MOL0     H61393   8.818   6.899  -1.917 -0.5724  0.0560 -0.8822
  455MOL0     H61394   8.870   7.037  -2.014 -1.5165  0.3368  1.7266
  455MOL0     H61395   8.910   6.735  -2.051 -0.1351  0.4330  0.1806
  455MOL0     H61396   8.992   6.851  -2.162  1.3074 -2.8582 -1.6041
  455MOL0     H61397   8.690   6.817  -2.087 -0.3617  0.6776 -0.9105
  455MOL0     H61398   8.751   6.750  -2.241  0.2553 -1.4113  2.4210
  455MOL0     H61399   8.628   6.982  -2.274  1.3249  0.6232 -0.8609
  455MOL0     H61400   8.759   7.051  -2.188 -1.5431  3.1423 -4.3205
  455MOL0     H61401   8.792   6.855  -2.421 -1.1017  0.9030  0.8623
  455MOL0     H61402   8.920   6.940  -2.354 -0.4745 -0.6057  2.0967
  455MOL0     H61403   8.818   7.170  -2.407 -3.0773  2.4022 -2.5328
  455MOL0     H61404   8.866   7.071  -2.543  0.6835 -0.5992  0.6484
  455MOL0     H61405   9.329   7.019  -1.580 -2.3388  0.9864 -2.7853
  455MOL0     H61406   9.385   7.053  -1.348 -0.2256  1.5718 -0.2607
  455MOL0     H61407   9.452   7.091  -0.856 -0.9895 -0.3557  1.6353
  455MOL0     H61408   9.425   7.209  -0.653  1.5216 -0.0134 -0.8615
  455MOL0     H61409   8.019   7.561   0.645  0.4394  0.3901  0.2402
  455MOL0     H61410   7.811   7.626   0.754 -2.7429 -3.0767 -0.2434
  455MOL0     H61411   7.430   7.770   0.809 -1.5866  0.0396  0.9777
  455MOL0     H61412   7.250   7.948   0.896  0.3049 -1.5074 -0.0107
  455MOL0     H61413   6.897   7.970   0.670 -1.9140  0.3053  0.5144
  455MOL0     H61414   6.973   8.116   0.609  0.2391  0.3677  0.4822
  455MOL0     H61415   6.760   8.163   0.703  1.9018  5.3298 -0.0333
  455MOL0     H61416   6.877   8.224   0.820  0.2331 -0.0591 -1.6564
  455MOL0     H61417   6.828   8.067   0.982  2.9055 -0.4616 -1.2421
  455MOL0     H61418   6.778   7.951   0.857 -0.3107 -0.7689  1.1380
  455MOL0     H61419   6.606   8.193   0.925  1.6182 -0.3527  0.3811
  455MOL0     H61420   6.568   8.072   0.801 -3.7681  1.8449  0.4567
  455MOL0     H61421   6.511   7.853   1.173  1.9744 -2.2347  0.3176
  455MOL0     H61422   7.065   7.922   0.513 -0.5544 -1.8577  0.5644
  455MOL0     H61423   7.175   7.669   0.385  2.0090 -0.4138  0.2310
  455MOL0     H61424   7.180   7.839   0.332 -1.7663  0.6604  2.2944
  455MOL0     H61425   7.321   7.721   0.329  1.5938  2.7864  0.0774
  456MOL0     O61426   9.630   7.122   2.615 -0.6358 -0.7746 -0.1688
  456MOL0     C61427   9.598   7.097   2.500 -0.5207  0.4667  0.6228
  456MOL0     O61428   9.675   7.128   2.388  0.3877  0.3024  0.6886
  456MOL0     C61429   9.801   7.171   2.408 -0.4282  0.6337 -0.1652
  456MOL0     C61430   9.847   7.297   2.364 -0.4185 -0.1261 -0.1880
  456MOL0     C61431   9.983   7.336   2.390  0.2337 -0.1540 -0.1375
  456MOL0     C61432  10.077   7.248   2.438 -0.3247  1.0407  0.2280
  456MOL0     O61433  10.197   7.297   2.462 -0.2624  0.1424 -0.0134
  456MOL0     C61434  10.289   7.253   2.367 -0.6656  0.1830  0.1460
  456MOL0     C61435  10.423   7.301   2.440 -0.0773 -0.2103  0.7395
  456MOL0     C61436  10.541   7.290   2.350  0.0044 -0.8630  0.0067
  456MOL0     C61437  10.676   7.238   2.411 -0.2879  0.0595 -0.5642
  456MOL0     C61438  10.790   7.252   2.309 -0.1055 -0.2305  1.0060
  456MOL0     C61439  10.926   7.241   2.375 -0.0234  0.8082 -0.0298
  456MOL0     C61440  10.972   7.358   2.449 -0.1744 -0.6077 -0.4286
  456MOL0     C61441  11.121   7.342   2.479 -0.4691  1.1845  0.1929
  456MOL0     N61442  11.215   7.356   2.369 -0.3787  0.1215 -0.2995
  456MOL0     C61443  11.353   7.337   2.385  0.4932  0.3134 -0.2856
  456MOL0     C61444  11.395   7.299   2.264  0.0803 -0.6115 -0.6542
  456MOL0     C61445  11.532   7.295   2.212  0.4612  0.1682  0.0715
  456MOL0     C61446  11.607   7.166   2.218  0.6200 -0.4630  0.4106
  456MOL0     C61447  11.756   7.188   2.218  0.9233 -0.4381  0.3080
  456MOL0     C61448  11.815   7.277   2.101  0.3231 -0.4287  0.0633
  456MOL0     O61449  11.865   7.194   1.996  0.2417 -0.3605  0.0538
  456MOL0     C61450  11.849   7.241   1.870  0.0804  0.0598 -0.2265
  456MOL0     C61451  11.836   7.133   1.784 -1.1037 -0.0048 -0.8364
  456MOL0     C61452  11.810   7.157   1.647 -0.2914 -0.6154  0.5874
  456MOL0     C61453  11.805   7.287   1.594 -0.2380 -0.4005 -0.2862
  456MOL0     C61454  11.806   7.321   1.448  0.1057 -0.7475  0.0286
  456MOL0     O61455  11.824   7.213   1.367  0.3373  0.4928  0.4600
  456MOL0     C61456  11.838   7.226   1.230  0.5876 -0.5838  0.2724
  456MOL0     C61457  11.768   7.315   1.146  0.2783  0.3638 -0.0656
  456MOL0     C61458  11.800   7.317   1.016 -0.1478 -0.4233 -0.2430
  456MOL0     C61459  11.906   7.247   0.958  0.6193  0.2249 -0.7968
  456MOL0     O61460  11.929   7.273   0.828 -0.1981 -0.0171  0.3483
  456MOL0     C61461  12.020   7.182   0.752 -0.0079 -0.1222  0.0207
  456MOL0     C61462  12.038   7.223   0.596  0.9046 -0.3488  0.7205
  456MOL0     C61463  12.069   7.372   0.575 -0.8765 -0.9543  0.1620
  456MOL0     C61464  12.073   7.412   0.425 -0.1257  0.2871 -0.1909
  456MOL0     C61465  12.200   7.394   0.360  0.1259  0.5582 -0.2666
  456MOL0     C61466  12.310   7.480   0.425  0.0533 -1.0442  1.4230
  456MOL0     C61467  12.419   7.527   0.314  0.6392 -0.4557  0.2521
  456MOL0     C61468  12.380   7.644   0.232  0.2683  0.0564  0.2324
  456MOL0    Cl61469  12.539   7.680   0.154 -0.2971 -0.1523  0.4480
  456MOL0     C61470  11.973   7.161   1.042 -0.2561  0.0675  0.6802
  456MOL0     C61471  11.940   7.149   1.177 -0.9460 -1.0923  0.1255
  456MOL0     O61472  11.819   7.443   1.415 -0.5514 -0.0855 -0.3598
  456MOL0     C61473  11.833   7.398   1.686 -1.0561  0.5674  0.4886
  456MOL0     C61474  11.850   7.374   1.821  0.6277  1.4573  0.1876
  456MOL0     N61475  11.289   7.309   2.175 -0.5232  0.0460  0.4151
  456MOL0     N61476  11.183   7.349   2.235 -0.1400  0.0130 -0.2126
  456MOL0     C61477  10.046   7.112   2.453  0.5210  0.3050 -0.2160
  456MOL0     C61478   9.909   7.068   2.441 -0.4347 -0.4877  0.0663
  456MOL0     C61479   9.467   7.037   2.466 -0.0707 -0.9917 -0.4008
  456MOL0     C61480   9.452   6.988   2.329 -0.2667 -0.1059 -0.8760
  456MOL0     C61481   9.329   6.935   2.286 -0.2784 -0.0247 -0.5307
  456MOL0     C61482   9.224   6.935   2.367 -0.5434 -0.0717 -0.8602
  456MOL0     O61483   9.106   6.878   2.333 -0.1369  0.5270  0.2026
  456MOL0     C61484   9.000   6.971   2.314 -0.7056  0.9437  0.6955
  456MOL0     C61485   8.874   6.900   2.350  0.5857 -0.9202 -0.2226
  456MOL0     C61486   8.744   6.991   2.365  0.1188  0.3162 -0.3692
  456MOL0     C61487   8.659   6.922   2.461  0.3762 -0.2188 -0.1793
  456MOL0     C61488   8.531   6.993   2.449 -0.3726 -0.3893 -0.5202
  456MOL0     C61489   8.436   7.064   2.422 -0.0826 -0.0394 -1.0414
  456MOL0     C61490   9.230   6.985   2.496 -0.7921 -0.3475 -0.2088
  456MOL0     C61491   9.352   7.045   2.546 -0.4950  0.1001 -0.2471
  456MOL0     C61492   9.345   7.091   2.690 -0.2377 -0.2142 -0.1031
  456MOL0     H61493   9.771   7.361   2.322 -0.4308 -1.8389 -3.0015
  456MOL0     H61494  10.006   7.441   2.373 -2.0060  0.9745  2.8378
  456MOL0     H61495  10.294   7.144   2.372  1.0212  0.1801  6.0415
  456MOL0     H61496  10.275   7.301   2.270 -1.4179  0.3129  0.3097
  456MOL0     H61497  10.440   7.242   2.530 -2.5289 -0.1491  1.3354
  456MOL0     H61498  10.403   7.403   2.475 -0.5489  1.4054 -3.5316
  456MOL0     H61499  10.551   7.396   2.324  0.1603 -0.5148  1.4092
  456MOL0     H61500  10.511   7.222   2.269  1.6392 -1.6553  0.0219
  456MOL0     H61501  10.701   7.293   2.502 -1.0092 -1.1659  0.4156
  456MOL0     H61502  10.661   7.134   2.444 -1.8939  0.1653 -0.8746
  456MOL0     H61503  10.769   7.174   2.235 -4.5954 -0.6067  2.3663
  456MOL0     H61504  10.791   7.347   2.256  2.9125  0.6923  2.4749
  456MOL0     H61505  10.934   7.150   2.435  0.8552  1.0863  0.2874
  456MOL0     H61506  10.999   7.218   2.298 -1.3062  3.2022 -2.1071
  456MOL0     H61507  10.925   7.369   2.548 -0.6582 -1.5366 -0.5396
  456MOL0     H61508  10.961   7.455   2.400  3.5984 -0.1316 -0.6519
  456MOL0     H61509  11.140   7.417   2.557 -0.6775  1.9326 -0.4659
  456MOL0     H61510  11.142   7.243   2.519  0.8695  1.8097  1.1183
  456MOL0     H61511  11.410   7.363   2.473 -2.4603  3.2460  0.9644
  456MOL0     H61512  11.525   7.318   2.105 -3.0245 -2.1123 -0.3825
  456MOL0     H61513  11.592   7.374   2.257  1.5456 -2.8655  4.5722
  456MOL0     H61514  11.592   7.118   2.316 -2.3706  3.6283  2.2456
  456MOL0     H61515  11.583   7.099   2.135  0.4785  1.5224 -1.2283
  456MOL0     H61516  11.806   7.091   2.208  4.6019  1.4857 -2.6272
  456MOL0     H61517  11.781   7.243   2.310 -2.7575  0.1207  1.1162
  456MOL0     H61518  11.897   7.339   2.139 -2.2520  2.9754  0.6533
  456MOL0     H61519  11.736   7.339   2.056 -1.5528 -1.7726  1.3279
  456MOL0     H61520  11.867   7.040   1.831  2.8879  1.7186  0.4245
  456MOL0     H61521  11.792   7.076   1.577 -0.9448 -0.5533  0.6772
  456MOL0     H61522  11.700   7.395   1.173  0.6084  1.3866 -2.0485
  456MOL0     H61523  11.756   7.388   0.948  1.2913  3.9028  2.8985
  456MOL0     H61524  12.123   7.182   0.790 -0.2388 -0.4365  0.6494
  456MOL0     H61525  11.982   7.079   0.753 -2.4638  0.7233 -1.0180
  456MOL0     H61526  12.128   7.169   0.565  1.2956  0.3645  0.5824
  456MOL0     H61527  11.956   7.183   0.536  0.4982 -0.4868  1.3571
  456MOL0     H61528  11.983   7.422   0.618 -0.4081 -1.6431  1.9650
  456MOL0     H61529  12.154   7.410   0.632 -0.8854  0.5631 -0.7813
  456MOL0     H61530  12.055   7.520   0.413 -0.5760 -0.0584 -3.9541
  456MOL0     H61531  11.988   7.368   0.372 -0.0782  0.3164 -0.2921
  456MOL0     H61532  12.187   7.424   0.256  1.1228  0.4263 -0.4405
  456MOL0     H61533  12.235   7.290   0.358 -1.5326 -0.0079 -1.4120
  456MOL0     H61534  12.265   7.570   0.468  1.3650  0.1039  0.4697
  456MOL0     H61535  12.362   7.434   0.510  2.8406 -0.1047  0.3591
  456MOL0     H61536  12.445   7.443   0.250  2.2355  1.7314 -2.1803
  456MOL0     H61537  12.509   7.558   0.367  1.2268 -0.6134 -0.6335
  456MOL0     H61538  12.300   7.619   0.163 -2.1098 -1.3887  3.2918
  456MOL0     H61539  12.349   7.729   0.294 -1.7435 -0.0988 -0.5186
  456MOL0     H61540  12.047   7.102   0.989 -0.0527  2.6389 -2.1793
  456MOL0     H61541  12.002   7.079   1.233  0.9087 -0.8745 -1.5469
  456MOL0     H61542  11.837   7.503   1.661 -0.8501 -0.3395 -4.1437
  456MOL0     H61543  11.875   7.462   1.879  0.4167  2.6571 -1.4806
  456MOL0     H61544  10.117   7.039   2.490 -1.8142 -2.2014 -0.3422
  456MOL0     H61545   9.881   6.966   2.468 -1.2499 -0.0174  1.0695
  456MOL0     H61546   9.544   6.974   2.273  0.2660 -3.5621  0.6121
  456MOL0     H61547   9.309   6.892   2.189 -0.4836 -1.4466  0.1160
  456MOL0     H61548   8.988   7.007   2.211 -0.9026 -0.3105  0.2543
  456MOL0     H61549   8.995   7.059   2.379  2.7088  0.5290  1.6939
  456MOL0     H61550   8.891   6.857   2.449 -2.1638 -2.1894 -0.2009
  456MOL0     H61551   8.849   6.810   2.292 -3.2593 -0.9101  1.1051
  456MOL0     H61552   8.697   7.000   2.267 -0.2448 -4.0848 -0.7837
  456MOL0     H61553   8.771   7.087   2.411  2.5614  0.3291 -1.6347
  456MOL0     H61554   8.643   6.815   2.442 -1.7664 -0.5115  2.6561
  456MOL0     H61555   8.711   6.927   2.557 -1.4604 -0.8470  0.8979
  456MOL0     H61556   8.346   7.116   2.395 -0.6714 -1.2679 -1.4978
  456MOL0     H61557   9.144   6.972   2.561 -0.7875  2.5092  0.5095
  456MOL0     H61558   9.245   7.121   2.720  1.3084  0.7559  5.2889
  456MOL0     H61559   9.372   7.016   2.766  0.1397 -0.2609 -0.2787
  456MOL0     H61560   9.411   7.177   2.705 -0.1220  0.4513 -3.6423
  457MOL0     O61561   1.242   6.449  10.305  0.4208 -0.5899  0.5911
  457MOL0     C61562   1.158   6.370  10.344  0.1474 -0.2572 -0.2765
  457MOL0     O61563   1.166   6.300  10.459 -0.1772  0.0380 -0.0717
  457MOL0     C61564   1.243   6.330  10.573  0.7626 -0.4895 -0.4408
  457MOL0     C61565   1.265   6.459  10.626 -0.2208  0.0803  0.2854
  457MOL0     C61566   1.336   6.475  10.749  0.2191  0.2679 -0.3307
  457MOL0     C61567   1.382   6.354  10.813  0.8059 -1.7593  0.1159
  457MOL0     O61568   1.451   6.378  10.936 -0.4324  0.2627 -0.6725
  457MOL0     C61569   1.572   6.315  10.952  0.1882 -0.2440  0.2428
  457MOL0     C61570   1.638   6.388  11.059  0.5011  0.7231 -0.1480
  457MOL0     C61571   1.782   6.370  11.094 -0.8532 -0.2270  0.2048
  457MOL0     C61572   1.834   6.224  11.091 -0.7739 -0.0034 -0.4416
  457MOL0     C61573   1.799   6.154  11.221 -0.6008 -0.3242 -0.1632
  457MOL0     C61574   1.815   6.003  11.219 -0.2244 -0.7846  0.0124
  457MOL0     C61575   1.788   5.948  11.366 -0.5342  0.0196  0.4741
  457MOL0     C61576   1.825   5.802  11.391 -0.5343 -1.1777 -0.0990
  457MOL0     N61577   1.761   5.723  11.289  0.8221  0.1133  0.6022
  457MOL0     C61578   1.624   5.715  11.260  0.3063 -0.3424 -0.8863
  457MOL0     C61579   1.609   5.602  11.172 -0.4416  0.1366 -0.6840
  457MOL0     C61580   1.484   5.550  11.113  0.2378  0.3796  0.4707
  457MOL0     C61581   1.483   5.458  10.986 -0.8064  0.0649  0.0858
  457MOL0     C61582   1.346   5.415  10.979  0.3528  0.4455  0.2026
  457MOL0     C61583   1.333   5.313  10.858  0.6569 -1.7990 -0.0575
  457MOL0     O61584   1.437   5.212  10.868  0.1772 -0.8941 -0.0841
  457MOL0     C61585   1.486   5.154  10.752 -1.1537 -0.7680 -0.5245
  457MOL0     C61586   1.627   5.138  10.737 -0.3418 -0.8403  0.0946
  457MOL0     C61587   1.685   5.084  10.619 -0.5116 -0.3044 -0.5167
  457MOL0     C61588   1.603   5.049  10.517 -0.2895 -0.5951  0.4221
  457MOL0     C61589   1.657   4.971  10.401  0.6661  1.1572  0.6251
  457MOL0     O61590   1.780   4.926  10.419 -0.1586  0.0141 -0.2549
  457MOL0     C61591   1.841   4.869  10.308  0.2914 -0.0835 -0.3933
  457MOL0     C61592   1.892   4.944  10.196  0.8430 -0.0029  0.5054
  457MOL0     C61593   1.950   4.872  10.093  0.3998  0.2150  1.0227
  457MOL0     C61594   1.956   4.731  10.085  0.9985 -0.6757  0.2441
  457MOL0     O61595   1.999   4.666   9.972 -0.4634 -0.6515  0.5411
  457MOL0     C61596   1.990   4.524   9.957 -0.3268  0.5939 -0.4811
  457MOL0     C61597   2.020   4.476   9.818  0.6777 -0.7066 -0.1060
  457MOL0     C61598   1.905   4.484   9.725  0.2394 -0.2936  0.7335
  457MOL0     C61599   1.951   4.473   9.583 -1.2629  0.1467  0.9294
  457MOL0     C61600   1.837   4.446   9.490  0.6391  0.4328  0.4746
  457MOL0     C61601   1.867   4.363   9.356  0.1574  0.2039  0.1559
  457MOL0     C61602   2.005   4.408   9.290  0.2662 -0.4681  0.1577
  457MOL0     C61603   1.992   4.550   9.250  1.1341  0.8772  0.4588
  457MOL0    Cl61604   1.917   4.578   9.086 -0.3788  0.2606 -0.0789
  457MOL0     C61605   1.930   4.665  10.200  0.1891  0.5425 -0.2911
  457MOL0     C61606   1.861   4.724  10.298 -1.0540 -1.0547 -0.8355
  457MOL0     O61607   1.585   4.941  10.303  1.0003  0.0596 -0.5983
  457MOL0     C61608   1.461   5.082  10.532 -0.0125  1.2898  0.1612
  457MOL0     C61609   1.402   5.128  10.651  0.1488  0.0110  0.5909
  457MOL0     N61610   1.746   5.557  11.155 -0.2524  0.2503 -0.1161
  457MOL0     N61611   1.833   5.627  11.220  0.2046 -0.0010 -0.2282
  457MOL0     C61612   1.359   6.225  10.758 -0.2517 -0.3789 -0.1804
  457MOL0     C61613   1.288   6.212  10.641 -0.3727  0.5737  0.8394
  457MOL0     C61614   1.045   6.317  10.258  1.1652 -0.3972  0.3767
  457MOL0     C61615   0.984   6.193  10.295  1.1247  0.1831 -0.0388
  457MOL0     C61616   0.893   6.131  10.209 -0.4267  0.1619  0.5023
  457MOL0     C61617   0.875   6.185  10.079 -0.3407 -0.2509  0.0101
  457MOL0     O61618   0.796   6.125   9.988 -0.1662  0.1738 -0.1003
  457MOL0     C61619   0.787   5.982   9.982  0.6353 -0.0747 -0.7224
  457MOL0     C61620   0.733   5.939   9.852  0.2152  0.9456 -1.7295
  457MOL0     C61621   0.692   5.794   9.861 -0.1858 -0.5984 -0.5301
  457MOL0     C61622   0.816   5.705   9.878 -0.8115 -0.0017  0.0790
  457MOL0     C61623   0.810   5.600   9.779  0.4959 -1.1516 -0.0905
  457MOL0     C61624   0.833   5.513   9.696  0.5169  0.3114 -0.0761
  457MOL0     C61625   0.923   6.310  10.048 -0.0928 -0.7142  0.0517
  457MOL0     C61626   1.012   6.374  10.130 -0.0059  0.6359 -0.8772
  457MOL0     C61627   1.053   6.511  10.081 -0.2072  0.6105  0.1746
  457MOL0     H61628   1.242   6.543  10.562 -0.5487  0.0129  0.3135
  457MOL0     H61629   1.371   6.564  10.800 -1.9529 -1.0884  4.0334
  457MOL0     H61630   1.581   6.208  10.977  2.1990 -0.9329 -2.8142
  457MOL0     H61631   1.634   6.341  10.865 -1.6242  2.4827 -0.3514
  457MOL0     H61632   1.569   6.383  11.143 -0.1448  2.2152 -0.5568
  457MOL0     H61633   1.628   6.495  11.039 -2.5881  0.4366 -0.5680
  457MOL0     H61634   1.798   6.403  11.198 -0.3849 -2.4142  0.8773
  457MOL0     H61635   1.848   6.429  11.029 -0.0318  1.7086  2.6200
  457MOL0     H61636   1.785   6.180  11.004 -3.0438  1.6404 -0.0780
  457MOL0     H61637   1.942   6.227  11.075 -1.1840  1.9728 -3.9300
  457MOL0     H61638   1.865   6.191  11.300  1.0399 -4.8181  0.8698
  457MOL0     H61639   1.695   6.173  11.250 -0.8896 -1.5032 -0.3687
  457MOL0     H61640   1.741   5.967  11.147 -2.8284  3.3888  0.2362
  457MOL0     H61641   1.915   5.984  11.180 -0.3341 -4.0441  1.0099
  457MOL0     H61642   1.682   5.970  11.383 -1.6026  0.4889 -4.9424
  457MOL0     H61643   1.840   6.004  11.444 -0.7152 -1.4782  1.7191
  457MOL0     H61644   1.932   5.798  11.369 -0.7890  2.2648 -2.8505
  457MOL0     H61645   1.812   5.766  11.493  1.3959  1.2727  1.1281
  457MOL0     H61646   1.549   5.772  11.313 -1.1418 -3.2807  0.4872
  457MOL0     H61647   1.427   5.497  11.190 -0.8136  1.4537  0.4675
  457MOL0     H61648   1.417   5.633  11.091  1.0219  0.7427 -0.6443
  457MOL0     H61649   1.510   5.527  10.905 -1.9666  1.0398  0.4854
  457MOL0     H61650   1.559   5.382  11.002  0.9611  2.2867  3.3565
  457MOL0     H61651   1.282   5.500  10.952  2.1054  2.3931  1.8515
  457MOL0     H61652   1.304   5.370  11.070  0.1679  2.0525  0.9401
  457MOL0     H61653   1.346   5.376  10.770  3.1132 -2.1609 -0.0045
  457MOL0     H61654   1.235   5.264  10.859 -1.2183  1.5612 -1.4223
  457MOL0     H61655   1.691   5.183  10.813 -0.7653  4.2880 -2.2131
  457MOL0     H61656   1.790   5.055  10.615 -0.9037 -1.7081 -1.1959
  457MOL0     H61657   1.880   5.052  10.183 -1.5534 -0.4378 -1.9244
  457MOL0     H61658   1.976   4.933  10.007  1.1669  0.9789  1.7764
  457MOL0     H61659   2.073   4.479  10.012  0.1653  0.1245 -1.5997
  457MOL0     H61660   1.892   4.488   9.989  0.4067  0.2506  1.5845
  457MOL0     H61661   2.110   4.528   9.783 -0.1873  0.4893 -0.6243
  457MOL0     H61662   2.064   4.376   9.821  1.6033 -0.3227 -0.4199
  457MOL0     H61663   1.832   4.404   9.742 -0.8614 -0.3391 -3.3193
  457MOL0     H61664   1.852   4.580   9.731  1.1363  0.6028 -3.0903
  457MOL0     H61665   2.024   4.393   9.571 -1.8541 -0.0573 -2.2185
  457MOL0     H61666   2.000   4.563   9.544  0.1986  0.7804  3.8770
  457MOL0     H61667   1.774   4.534   9.475 -3.9694 -2.4233  1.0748
  457MOL0     H61668   1.770   4.371   9.533 -0.0752 -0.8682 -2.6220
  457MOL0     H61669   1.877   4.258   9.384  2.4405 -0.3236 -2.1825
  457MOL0     H61670   1.783   4.371   9.286  2.3841  2.2757 -2.5568
  457MOL0     H61671   2.027   4.338   9.209 -1.0934 -0.3972 -0.2939
  457MOL0     H61672   2.094   4.401   9.354  0.1426 -1.3895  0.2452
  457MOL0     H61673   1.932   4.603   9.325  0.9180  2.2529 -0.6351
  457MOL0     H61674   2.084   4.607   9.262 -0.4095  4.0449 -1.3160
  457MOL0     H61675   1.935   4.557  10.200 -0.3832  0.4791 -2.1839
  457MOL0     H61676   1.834   4.658  10.380 -0.4538 -0.6653 -0.3158
  457MOL0     H61677   1.400   5.069  10.443  0.9204 -0.3994 -0.2879
  457MOL0     H61678   1.295   5.147  10.655  0.5004  2.5433  0.0738
  457MOL0     H61679   1.401   6.138  10.807  2.1104 -0.2279 -1.7810
  457MOL0     H61680   1.270   6.117  10.593 -3.4702  0.9504  1.0662
  457MOL0     H61681   1.002   6.128  10.380  0.1768 -0.5754 -0.4037
  457MOL0     H61682   0.844   6.037  10.233 -0.6295 -0.0785 -0.7520
  457MOL0     H61683   0.721   5.952  10.064  0.1360  0.7440 -0.8137
  457MOL0     H61684   0.888   5.943   9.997  0.7274 -0.9922 -3.2360
  457MOL0     H61685   0.810   5.957   9.776  0.8882  1.9133 -0.8464
  457MOL0     H61686   0.647   6.003   9.827  0.0985  0.4156 -2.7590
  457MOL0     H61687   0.625   5.763   9.780 -2.0139 -0.7069  0.9471
  457MOL0     H61688   0.640   5.784   9.956  2.1647  1.0463  1.0306
  457MOL0     H61689   0.912   5.755   9.862 -0.3500 -0.6410  0.7603
  457MOL0     H61690   0.822   5.661   9.978 -1.5714 -0.2113  0.0394
  457MOL0     H61691   0.870   5.438   9.630  1.5980  2.1079 -1.6238
  457MOL0     H61692   0.900   6.353   9.951 -0.9321  2.1147  1.3910
  457MOL0     H61693   1.139   6.504  10.014  0.9816 -1.4224  1.7528
  457MOL0     H61694   0.972   6.553  10.022  0.0732 -0.7314 -1.2497
  457MOL0     H61695   1.074   6.580  10.163 -1.7537  0.2408  0.9108
  458MOL0     O61696   1.500   2.653  10.398 -0.1993  0.7206  0.2149
  458MOL0     C61697   1.458   2.706  10.294  0.2768 -0.1884 -0.7755
  458MOL0     O61698   1.493   2.827  10.247  0.2208 -0.4357  0.2547
  458MOL0     C61699   1.556   2.923  10.321 -0.1076  1.0847  0.0553
  458MOL0     C61700   1.669   2.894  10.397 -0.1373 -0.4706  0.0182
  458MOL0     C61701   1.724   2.987  10.480 -0.9873 -0.8359 -0.4185
  458MOL0     C61702   1.681   3.116  10.477 -0.0566 -0.2793  0.5687
  458MOL0     O61703   1.745   3.204  10.562 -0.3212 -0.0474 -0.0691
  458MOL0     C61704   1.677   3.335  10.591 -0.3776  0.4851  0.4122
  458MOL0     C61705   1.728   3.380  10.727  0.2169 -0.4449  0.2039
  458MOL0     C61706   1.686   3.529  10.762 -0.3821  0.0549  0.0172
  458MOL0     C61707   1.776   3.587  10.871 -0.2806 -0.2677 -0.2098
  458MOL0     C61708   1.728   3.714  10.943 -0.4000 -0.7265  0.0758
  458MOL0     C61709   1.715   3.829  10.843 -0.4151 -0.4258 -0.4754
  458MOL0     C61710   1.676   3.965  10.903 -0.1063  0.4003 -0.1524
  458MOL0     C61711   1.544   3.977  10.968 -0.0739 -0.5042  0.1319
  458MOL0     N61712   1.424   3.937  10.894  0.3538 -0.4418  0.2567
  458MOL0     C61713   1.323   4.026  10.846 -0.0198  0.1991 -0.8930
  458MOL0     C61714   1.242   3.942  10.774  0.4028  0.0569 -0.0861
  458MOL0     C61715   1.107   3.978  10.712  1.2592 -0.2359 -0.5809
  458MOL0     C61716   1.025   3.855  10.672  0.5353 -0.3822 -0.6191
  458MOL0     C61717   0.888   3.888  10.611  0.1753  0.0898  0.0651
  458MOL0     C61718   0.897   3.904  10.451 -0.0677 -0.2025  0.0385
  458MOL0     O61719   0.947   4.035  10.414  0.5908 -0.0737  0.1430
  458MOL0     C61720   0.957   4.058  10.279 -0.0567 -0.7792  0.1711
  458MOL0     C61721   0.970   4.191  10.251 -0.6162  1.2224 -0.6209
  458MOL0     C61722   1.021   4.241  10.125  0.2183  0.1441  1.0090
  458MOL0     C61723   1.031   4.149  10.014 -0.2653 -0.2347 -0.3005
  458MOL0     C61724   1.065   4.194   9.883  0.2208 -0.8312 -0.9599
  458MOL0     O61725   1.038   4.325   9.846  0.3098  0.1614 -0.3166
  458MOL0     C61726   1.074   4.375   9.721 -0.3705 -0.0783  0.1370
  458MOL0     C61727   1.046   4.311   9.602 -0.5512  1.5938  1.6214
  458MOL0     C61728   1.088   4.366   9.476  0.7313 -0.3138 -0.1398
  458MOL0     C61729   1.139   4.496   9.481 -0.4471 -0.7938  0.2065
  458MOL0     O61730   1.172   4.567   9.366 -1.1903  0.3618 -1.2295
  458MOL0     C61731   1.176   4.514   9.232 -0.1135 -0.1808  0.3226
  458MOL0     C61732   1.317   4.453   9.192 -0.0600 -0.1933  0.3233
  458MOL0     C61733   1.447   4.519   9.265  0.5430  0.5634 -0.1476
  458MOL0     C61734   1.490   4.649   9.194  0.2029  0.3657 -0.4004
  458MOL0     C61735   1.615   4.716   9.264 -1.3201 -0.2944  0.3930
  458MOL0     C61736   1.634   4.851   9.206  0.3244 -0.1709 -0.4494
  458MOL0     C61737   1.718   4.944   9.296 -0.7046 -0.3068  0.4925
  458MOL0     C61738   1.681   5.085   9.252 -0.1584  0.4094 -0.3953
  458MOL0    Cl61739   1.738   5.100   9.079  0.1764 -0.0865  0.8579
  458MOL0     C61740   1.171   4.566   9.604 -0.8299  0.7909 -0.3302
  458MOL0     C61741   1.142   4.500   9.725 -0.4874  0.0630 -0.0757
  458MOL0     O61742   1.082   4.101   9.803 -0.0938 -0.4471  0.4473
  458MOL0     C61743   0.996   4.014  10.042  0.4769  1.4151 -0.7793
  458MOL0     C61744   0.963   3.971  10.170  0.2900 -0.2905  0.3472
  458MOL0     N61745   1.303   3.816  10.764  0.4591  0.0130  0.6868
  458MOL0     N61746   1.393   3.811  10.845 -0.2961  0.6694 -0.2549
  458MOL0     C61747   1.577   3.154  10.384 -0.3215  0.2564 -0.3600
  458MOL0     C61748   1.515   3.057  10.310  0.0808  1.1988 -0.3754
  458MOL0     C61749   1.380   2.625  10.191 -0.3809 -0.3334  0.7900
  458MOL0     C61750   1.262   2.674  10.131 -0.5689  0.7296 -0.8117
  458MOL0     C61751   1.195   2.600  10.035  0.6762  0.1855  0.4848
  458MOL0     C61752   1.259   2.482   9.982  1.6233 -0.1727 -0.4099
  458MOL0     O61753   1.217   2.410   9.871  0.9345 -0.5006  0.0238
  458MOL0     C61754   1.135   2.478   9.760 -1.0079 -0.1359 -0.7721
  458MOL0     C61755   0.988   2.470   9.793 -0.3760 -0.1705  0.1326
  458MOL0     C61756   0.893   2.527   9.676 -0.7423 -0.0707  0.5574
  458MOL0     C61757   0.928   2.674   9.633 -0.2857  0.0353 -0.0647
  458MOL0     C61758   0.903   2.772   9.738  0.1650 -1.0405  0.1747
  458MOL0     C61759   0.893   2.866   9.821 -0.5424 -0.5757  0.0519
  458MOL0     C61760   1.372   2.443  10.042 -0.6765  0.7158  0.3764
  458MOL0     C61761   1.435   2.498  10.153  0.0084  0.5614 -0.3970
  458MOL0     C61762   1.565   2.453  10.201 -0.5247  0.3315 -0.2551
  458MOL0     H61763   1.713   2.796  10.382  0.8961 -0.0655  0.3061
  458MOL0     H61764   1.809   2.985  10.547 -1.7706  2.2462  0.8422
  458MOL0     H61765   1.702   3.405  10.512  2.4458 -0.2471  0.5586
  458MOL0     H61766   1.568   3.328  10.596 -0.3571  0.5556  1.0841
  458MOL0     H61767   1.835   3.361  10.724 -0.2896 -3.8008 -1.2249
  458MOL0     H61768   1.689   3.314  10.805 -2.7426  0.6871 -0.1783
  458MOL0     H61769   1.583   3.532  10.800 -0.0177  1.9312  0.9517
  458MOL0     H61770   1.682   3.586  10.670 -0.5674  0.6378  0.3811
  458MOL0     H61771   1.783   3.505  10.944 -0.9445 -0.0534  0.1024
  458MOL0     H61772   1.870   3.613  10.821 -2.0459  0.6723 -3.2633
  458MOL0     H61773   1.633   3.692  10.991 -2.3465  0.0547 -3.1292
  458MOL0     H61774   1.805   3.742  11.016  2.1953 -0.4558 -2.5642
  458MOL0     H61775   1.808   3.858  10.792 -0.5895  2.5816  0.6766
  458MOL0     H61776   1.646   3.807  10.762  0.3115  0.9635 -1.5255
  458MOL0     H61777   1.676   4.043  10.826 -1.5405  0.8380  0.2558
  458MOL0     H61778   1.755   3.995  10.971  0.2576 -1.3682  0.2342
  458MOL0     H61779   1.552   3.906  11.051  2.1613 -1.5967 -0.9218
  458MOL0     H61780   1.527   4.073  11.016 -1.3581 -0.6184 -0.0527
  458MOL0     H61781   1.307   4.131  10.872  0.5466  0.0736 -0.0050
  458MOL0     H61782   1.038   4.026  10.783 -1.2298 -0.5502 -2.6501
  458MOL0     H61783   1.124   4.040  10.624  1.2794 -0.5910 -0.8276
  458MOL0     H61784   1.082   3.782  10.614  1.4903  0.0623 -0.2521
  458MOL0     H61785   1.013   3.804  10.768  3.9432 -1.9999 -0.9197
  458MOL0     H61786   0.854   3.986  10.646  4.4937  0.9708  2.4314
  458MOL0     H61787   0.813   3.814  10.639 -1.5553  0.1172 -3.7770
  458MOL0     H61788   0.798   3.878  10.413 -0.3763  1.9312 -0.7495
  458MOL0     H61789   0.975   3.831  10.427  0.2260  0.0871  0.1015
  458MOL0     H61790   0.960   4.255  10.338 -0.3459 -1.0041  1.1451
  458MOL0     H61791   1.027   4.349  10.125  1.3583  0.1124  2.3525
  458MOL0     H61792   0.986   4.221   9.599  1.5323  0.0883  2.1914
  458MOL0     H61793   1.047   4.321   9.386  2.3699 -0.4085 -0.8772
  458MOL0     H61794   1.093   4.450   9.201 -1.7237  2.5825 -1.5746
  458MOL0     H61795   1.167   4.593   9.157  1.0545 -0.0326  0.3174
  458MOL0     H61796   1.300   4.350   9.224 -0.3387  0.2998  1.8625
  458MOL0     H61797   1.328   4.444   9.084  1.7971  1.1199  0.3505
  458MOL0     H61798   1.437   4.531   9.373  3.0881  2.1915 -0.0099
  458MOL0     H61799   1.521   4.440   9.250  1.3509  1.3038 -0.1444
  458MOL0     H61800   1.405   4.717   9.207 -0.9070 -1.2052  1.1451
  458MOL0     H61801   1.513   4.641   9.088  0.6076  2.4730 -0.5024
  458MOL0     H61802   1.704   4.660   9.232  1.0143  0.7257  4.4339
  458MOL0     H61803   1.601   4.734   9.371  0.6384  0.9520  0.4817
  458MOL0     H61804   1.679   4.832   9.108 -0.7767 -5.5279 -0.2333
  458MOL0     H61805   1.533   4.888   9.184  0.2720  2.3214  3.0904
  458MOL0     H61806   1.825   4.924   9.282 -0.3936  1.5783 -0.2200
  458MOL0     H61807   1.693   4.933   9.402  1.0737 -0.4123  0.9379
  458MOL0     H61808   1.575   5.108   9.266 -0.3398 -0.7732  0.3267
  458MOL0     H61809   1.738   5.152   9.316 -0.1507  1.2559 -1.2723
  458MOL0     H61810   1.217   4.665   9.605 -2.4500  1.6028 -1.6656
  458MOL0     H61811   1.166   4.549   9.819 -2.2179 -0.2340  0.5533
  458MOL0     H61812   1.010   3.930   9.974  3.0688 -0.1235  1.4387
  458MOL0     H61813   0.948   3.865  10.190 -1.5881  0.3684  3.0294
  458MOL0     H61814   1.541   3.255  10.366 -2.8101  0.0718  2.8013
  458MOL0     H61815   1.433   3.081  10.243 -0.9452 -0.6583  0.1538
  458MOL0     H61816   1.224   2.773  10.154  2.8029  2.0812 -0.4742
  458MOL0     H61817   1.095   2.634  10.009  1.7486  2.9008 -0.3880
  458MOL0     H61818   1.153   2.423   9.667  2.5476  1.3916 -1.1280
  458MOL0     H61819   1.164   2.581   9.740  2.2636 -1.1020 -1.4851
  458MOL0     H61820   0.979   2.530   9.883 -0.4290 -1.9255  1.3522
  458MOL0     H61821   0.952   2.368   9.815  0.2333 -1.2411 -3.2055
  458MOL0     H61822   0.788   2.542   9.700 -0.8371  4.1075 -1.5872
  458MOL0     H61823   0.892   2.454   9.594 -1.4819 -0.9684  1.3374
  458MOL0     H61824   1.033   2.683   9.603 -0.9115  1.2801 -2.0677
  458MOL0     H61825   0.867   2.691   9.544  0.7121 -0.3640 -0.8534
  458MOL0     H61826   0.881   2.950   9.886  2.4819  0.8378 -1.0015
  458MOL0     H61827   1.430   2.368   9.989 -0.1798  0.4490  1.2730
  458MOL0     H61828   1.596   2.364  10.145 -0.9943 -0.3861  0.6068
  458MOL0     H61829   1.647   2.525  10.192 -0.8083  0.7490  0.4230
  458MOL0     H61830   1.558   2.417  10.304  0.7126  0.4100 -0.1285
  459MOL0     O61831   8.524   2.017   1.182 -0.4645  0.6135  0.1059
  459MOL0     C61832   8.453   2.023   1.288 -0.0870  0.3246  0.2189
  459MOL0     O61833   8.346   2.109   1.316 -0.0469  0.4091  0.5537
  459MOL0     C61834   8.364   2.240   1.266 -0.2270 -0.5633 -0.0228
  459MOL0     C61835   8.253   2.307   1.225  0.3234  0.5728  0.7485
  459MOL0     C61836   8.256   2.434   1.190  0.7496 -0.2041 -0.3380
  459MOL0     C61837   8.370   2.512   1.194 -1.1068  0.5578 -0.4137
  459MOL0     O61838   8.368   2.644   1.165  0.3308 -0.2175 -0.3874
  459MOL0     C61839   8.428   2.740   1.253  0.5481 -0.0759 -0.0990
  459MOL0     C61840   8.393   2.873   1.177 -1.2405  0.5330  0.8787
  459MOL0     C61841   8.398   2.998   1.265  0.2761  0.5110  0.7900
  459MOL0     C61842   8.347   3.128   1.193 -0.1591 -0.2767 -0.1593
  459MOL0     C61843   8.358   3.241   1.286  0.3842 -1.1005 -0.3694
  459MOL0     C61844   8.331   3.382   1.223 -0.2939  0.5310 -0.3115
  459MOL0     C61845   8.360   3.484   1.333  0.2112 -0.2025  0.2879
  459MOL0     C61846   8.387   3.633   1.287  0.2364  1.1827 -0.4769
  459MOL0     N61847   8.267   3.718   1.293 -0.3920 -0.0889 -0.0604
  459MOL0     C61848   8.245   3.819   1.384  0.4093 -0.3967 -0.6722
  459MOL0     C61849   8.136   3.887   1.343  0.1519 -0.2694 -0.0885
  459MOL0     C61850   8.066   4.002   1.383 -0.0224  0.4812 -0.6625
  459MOL0     C61851   7.919   3.994   1.426  0.6140  0.0186  0.3487
  459MOL0     C61852   7.926   3.928   1.567  0.4668  0.4929 -0.2515
  459MOL0     C61853   7.932   3.771   1.580  0.1199  0.9862  0.5974
  459MOL0     O61854   7.925   3.727   1.713 -0.5775 -0.6022  0.3649
  459MOL0     C61855   7.919   3.593   1.735 -0.4154 -1.3706  0.4156
  459MOL0     C61856   7.969   3.494   1.660 -0.7826 -0.7256 -0.1961
  459MOL0     C61857   7.973   3.361   1.687  0.5412  0.0452 -0.3628
  459MOL0     C61858   7.916   3.323   1.811 -0.9736 -0.8299  0.4226
  459MOL0     C61859   7.906   3.185   1.838  0.3707  0.5438  0.3357
  459MOL0     O61860   7.868   3.103   1.741 -0.3955 -0.4389 -0.4189
  459MOL0     C61861   7.900   2.962   1.743 -0.3705 -0.8504  0.3892
  459MOL0     C61862   7.824   2.875   1.679 -0.8956 -0.6801  0.3695
  459MOL0     C61863   7.854   2.740   1.686 -0.0901  0.5039  0.4138
  459MOL0     C61864   7.981   2.691   1.729 -0.3717  0.3495  0.1254
  459MOL0     O61865   8.014   2.555   1.731 -0.3482 -0.1741 -0.6377
  459MOL0     C61866   7.990   2.489   1.607  0.4881  0.0790 -0.3341
  459MOL0     C61867   8.105   2.396   1.566  0.4095 -0.5700 -0.1912
  459MOL0     C61868   8.239   2.467   1.552 -0.3822  0.2927  0.8718
  459MOL0     C61869   8.348   2.385   1.619 -0.6138 -0.1017  0.6131
  459MOL0     C61870   8.475   2.483   1.615  0.1003  0.3147 -0.7027
  459MOL0     C61871   8.599   2.419   1.658 -0.0136  0.5020 -0.0958
  459MOL0     C61872   8.703   2.527   1.633 -0.2023 -0.0389 -0.2902
  459MOL0     C61873   8.841   2.478   1.668 -0.1355  0.5291  0.0202
  459MOL0    Cl61874   8.947   2.616   1.653 -0.3719 -0.4447 -0.1476
  459MOL0     C61875   8.067   2.788   1.783  0.1508 -0.0905  0.2304
  459MOL0     C61876   8.023   2.917   1.794 -0.6969 -0.2029 -0.5259
  459MOL0     O61877   7.915   3.162   1.952 -0.2850  0.1466  1.3196
  459MOL0     C61878   7.868   3.426   1.899 -0.0667  0.0238  0.4804
  459MOL0     C61879   7.862   3.559   1.857 -0.4122  0.8127  0.5720
  459MOL0     N61880   8.097   3.822   1.234  0.4828  0.6073 -1.1444
  459MOL0     N61881   8.178   3.733   1.193  0.1828  0.5836  0.7325
  459MOL0     C61882   8.487   2.446   1.231  0.1441 -0.4288  0.3894
  459MOL0     C61883   8.490   2.309   1.275  1.2070  0.0870 -0.6450
  459MOL0     C61884   8.489   1.932   1.400  0.0916 -0.3270 -0.4660
  459MOL0     C61885   8.585   1.982   1.489 -0.5266 -0.8385 -0.4253
  459MOL0     C61886   8.629   1.904   1.598  0.3127 -0.0949 -0.4584
  459MOL0     C61887   8.578   1.777   1.619 -0.0676  0.4283  0.0011
  459MOL0     O61888   8.599   1.705   1.733  0.0837 -0.1912 -0.6381
  459MOL0     C61889   8.710   1.732   1.818 -0.8177 -0.3346 -0.4931
  459MOL0     C61890   8.854   1.711   1.742  0.5201  0.3371 -1.3744
  459MOL0     C61891   8.962   1.679   1.840  0.3014 -0.1498 -0.2179
  459MOL0     C61892   8.992   1.799   1.921 -0.3766 -0.3828  0.1526
  459MOL0     C61893   9.089   1.746   2.016 -0.0613 -0.3803 -0.1007
  459MOL0     C61894   9.169   1.703   2.094  0.3517  0.1309  0.2052
  459MOL0     C61895   8.514   1.707   1.512  0.3188  1.1106  0.6302
  459MOL0     C61896   8.461   1.789   1.406 -0.3568 -0.7556 -0.3713
  459MOL0     C61897   8.380   1.716   1.293 -0.8481 -0.5510  0.2702
  459MOL0     H61898   8.157   2.257   1.214  1.5657 -1.5295 -1.8421
  459MOL0     H61899   8.171   2.490   1.151  1.5512  1.0291 -0.3811
  459MOL0     H61900   8.391   2.729   1.356 -0.9643  0.9029 -0.5176
  459MOL0     H61901   8.534   2.713   1.264  0.1366 -1.2843  1.4093
  459MOL0     H61902   8.299   2.875   1.121 -0.6496 -1.2529 -0.2502
  459MOL0     H61903   8.474   2.874   1.104  0.1834 -1.5451  2.3112
  459MOL0     H61904   8.499   3.014   1.304 -0.1086  1.1379  1.5785
  459MOL0     H61905   8.340   2.979   1.357 -0.6360  1.3009  0.3884
  459MOL0     H61906   8.411   3.146   1.106 -0.8599  2.2498 -0.2205
  459MOL0     H61907   8.250   3.109   1.146  1.2599  1.5219 -4.2743
  459MOL0     H61908   8.297   3.218   1.374  1.0791 -0.3809  0.3296
  459MOL0     H61909   8.459   3.237   1.329  0.1011 -0.9301  0.3295
  459MOL0     H61910   8.391   3.398   1.133  1.1286 -0.3564  0.4412
  459MOL0     H61911   8.223   3.390   1.205 -0.2813 -0.8130 -1.1177
  459MOL0     H61912   8.451   3.451   1.384 -0.4347 -2.9138 -0.1493
  459MOL0     H61913   8.279   3.493   1.406  1.3777 -1.7702  1.8533
  459MOL0     H61914   8.464   3.679   1.349  2.6860 -3.3012  0.2424
  459MOL0     H61915   8.434   3.625   1.189  1.7262  0.8798  0.2465
  459MOL0     H61916   8.302   3.842   1.473 -2.3870 -2.4844  1.8655
  459MOL0     H61917   8.120   4.052   1.465  0.2828  1.8298 -1.6406
  459MOL0     H61918   8.074   4.067   1.295  3.3211 -1.9062 -2.3408
  459MOL0     H61919   7.874   4.093   1.434  0.8126 -0.0321  3.3629
  459MOL0     H61920   7.864   3.929   1.358 -0.6101  2.2297 -0.8532
  459MOL0     H61921   7.837   3.965   1.618 -3.4164 -3.1582 -3.5542
  459MOL0     H61922   8.016   3.960   1.620  0.1700  0.8456  0.0450
  459MOL0     H61923   8.020   3.730   1.529 -0.3121  0.1437  0.5195
  459MOL0     H61924   7.853   3.729   1.517  1.4520 -0.9154  0.1131
  459MOL0     H61925   8.018   3.513   1.565 -3.6831 -1.1062 -1.8849
  459MOL0     H61926   8.017   3.286   1.622 -1.2396 -4.9430  3.5556
  459MOL0     H61927   7.734   2.908   1.630  0.6658  3.5046 -0.1049
  459MOL0     H61928   7.784   2.669   1.641 -1.8544  2.2292  0.3024
  459MOL0     H61929   7.900   2.427   1.614  0.2339  0.3676 -1.0539
  459MOL0     H61930   7.970   2.551   1.520 -0.9185  1.4328  0.8891
  459MOL0     H61931   8.108   2.320   1.645 -1.2844  0.4363  0.9004
  459MOL0     H61932   8.082   2.350   1.469  1.3180  0.0730 -0.7286
  459MOL0     H61933   8.278   2.473   1.450 -0.2023  3.1732  1.0132
  459MOL0     H61934   8.224   2.572   1.581  0.9539 -0.3596  4.5549
  459MOL0     H61935   8.363   2.295   1.558 -1.6883  0.5793 -0.7140
  459MOL0     H61936   8.341   2.347   1.721  0.3670  0.3497  0.8566
  459MOL0     H61937   8.457   2.564   1.686  0.8911  0.1635 -0.3173
  459MOL0     H61938   8.493   2.514   1.512  2.4520  0.1907 -0.3669
  459MOL0     H61939   8.591   2.390   1.763  1.0629 -1.0029 -0.4042
  459MOL0     H61940   8.620   2.327   1.603  2.5928  0.0491  1.4881
  459MOL0     H61941   8.692   2.620   1.690  0.1943 -1.0036  1.4364
  459MOL0     H61942   8.712   2.567   1.532  2.3329  1.9075  0.5682
  459MOL0     H61943   8.842   2.431   1.767 -2.7165  2.2438  0.9849
  459MOL0     H61944   8.878   2.398   1.603  3.2446 -0.2233  2.6093
  459MOL0     H61945   8.159   2.744   1.817 -0.8184 -2.3387  0.1159
  459MOL0     H61946   8.086   2.985   1.850  0.6738  1.7090 -4.0260
  459MOL0     H61947   7.827   3.409   1.998  2.8021  1.6807  2.1100
  459MOL0     H61948   7.824   3.642   1.916 -0.1787  0.1140  1.7452
  459MOL0     H61949   8.575   2.503   1.203 -0.2768 -1.0203 -2.4069
  459MOL0     H61950   8.579   2.249   1.289  1.0764 -0.1307 -0.7403
  459MOL0     H61951   8.615   2.085   1.479  0.4120 -1.2866 -3.4951
  459MOL0     H61952   8.691   1.951   1.674 -0.5164  0.8408 -0.3323
  459MOL0     H61953   8.699   1.676   1.912 -0.0826  2.4475  1.3897
  459MOL0     H61954   8.701   1.839   1.841  0.9267  0.1580 -1.9074
  459MOL0     H61955   8.891   1.799   1.689  2.0599  0.9327  0.5492
  459MOL0     H61956   8.847   1.629   1.670  0.9239  0.6195 -1.7435
  459MOL0     H61957   9.049   1.644   1.784  1.4011 -2.9145  2.9306
  459MOL0     H61958   8.928   1.592   1.897  1.4301 -2.4335 -2.7974
  459MOL0     H61959   9.032   1.879   1.857 -0.4577  3.4422  4.3273
  459MOL0     H61960   8.901   1.839   1.966 -1.8679 -0.3481 -2.7337
  459MOL0     H61961   9.248   1.645   2.138  1.4243  0.3032 -1.4192
  459MOL0     H61962   8.484   1.605   1.531  3.1018  0.6321  3.1349
  459MOL0     H61963   8.374   1.763   1.195 -1.0240 -1.2612 -0.0724
  459MOL0     H61964   8.419   1.616   1.269 -4.9640 -1.9103 -1.7977
  459MOL0     H61965   8.277   1.709   1.329 -0.6650 -0.4972  0.8138
  460MOL0     O61966   2.122   3.268  10.744 -0.4232 -0.5556  0.3666
  460MOL0     C61967   2.246   3.275  10.757  0.4991 -0.0693 -0.0263
  460MOL0     O61968   2.334   3.182  10.729 -0.2043  0.1162  0.4087
  460MOL0     C61969   2.290   3.067  10.666  0.2087  0.8365 -1.2192
  460MOL0     C61970   2.311   2.948  10.755 -0.5379 -0.1899 -0.1490
  460MOL0     C61971   2.283   2.823  10.703  0.6695  0.5622 -0.0769
  460MOL0     C61972   2.234   2.812  10.569  0.2418  0.2601  0.4344
  460MOL0     O61973   2.203   2.695  10.503 -0.1186 -0.4159  0.6415
  460MOL0     C61974   2.151   2.581  10.566 -0.6844  0.7916 -0.5196
  460MOL0     C61975   2.021   2.593  10.654  0.8507 -0.4393  0.7926
  460MOL0     C61976   1.893   2.617  10.559 -0.3442  0.6851 -0.3346
  460MOL0     C61977   1.757   2.598  10.638  0.2624  0.0904 -0.7883
  460MOL0     C61978   1.762   2.672  10.778 -0.3724  0.5041  0.0054
  460MOL0     C61979   1.625   2.682  10.848 -1.0071  0.4607  0.2903
  460MOL0     C61980   1.525   2.769  10.775  1.1139 -0.2509 -0.3779
  460MOL0     C61981   1.407   2.822  10.871 -0.0215 -0.5538 -0.8330
  460MOL0     N61982   1.311   2.717  10.905 -0.1254  0.3927  0.2165
  460MOL0     C61983   1.322   2.632  11.010  0.1868  0.9306  0.5504
  460MOL0     C61984   1.213   2.551  10.995 -0.4833  0.2789 -0.1308
  460MOL0     C61985   1.187   2.441  11.086 -0.1236  0.3969 -0.1260
  460MOL0     C61986   1.112   2.486  11.203 -0.7551 -0.0042  0.9680
  460MOL0     C61987   1.005   2.595  11.191 -0.5115  0.0675 -1.2304
  460MOL0     C61988   0.955   2.624  11.335 -0.2496  0.4205  0.2551
  460MOL0     O61989   0.928   2.504  11.409 -0.2697 -0.3556 -0.7140
  460MOL0     C61990   0.859   2.493  11.521  0.0833  0.2232 -0.4582
  460MOL0     C61991   0.815   2.598  11.601 -0.9312 -0.6759 -0.2078
  460MOL0     C61992   0.754   2.570  11.721  0.1707  0.3133 -0.1234
  460MOL0     C61993   0.764   2.435  11.776 -0.1982 -0.4495 -0.2638
  460MOL0     C61994   0.687   2.408  11.892 -0.2007  0.1745  0.1164
  460MOL0     O61995   0.718   2.294  11.960 -0.0273  0.6517 -0.3700
  460MOL0     C61996   0.623   2.253  12.051 -0.1584  0.6861  0.0420
  460MOL0     C61997   0.653   2.259  12.184  0.0521 -0.1679 -0.0256
  460MOL0     C61998   0.573   2.196  12.277  0.4330  0.9950 -0.6271
  460MOL0     C61999   0.448   2.142  12.237  0.5937 -0.0215  0.0932
  460MOL0     O62000   0.368   2.061  12.319  1.1341  0.1376  0.9894
  460MOL0     C62001   0.412   2.045  12.450 -1.3714 -0.2579 -0.3071
  460MOL0     C62002   0.316   1.966  12.527 -0.9976  0.0417  0.3454
  460MOL0     C62003   0.176   2.031  12.539  0.2503  0.8886 -0.0925
  460MOL0     C62004   0.062   1.932  12.546 -0.0726 -0.9547  0.2447
  460MOL0     C62005  -0.065   2.000  12.605  0.2724  0.5171 -0.3348
  460MOL0     C62006  -0.204   1.964  12.550  0.1109  0.7280 -0.2762
  460MOL0     C62007  -0.245   1.816  12.537 -0.0759  0.1942  0.3877
  460MOL0     C62008  -0.209   1.742  12.661 -0.6839  0.0791  0.4141
  460MOL0    Cl62009  -0.294   1.585  12.640 -0.2196  0.0046  0.1092
  460MOL0     C62010   0.408   2.166  12.103 -0.1229  0.0169 -0.1013
  460MOL0     C62011   0.499   2.210  12.014 -0.3012 -1.4106 -0.3786
  460MOL0     O62012   0.598   2.483  11.931  0.2923 -0.1934 -0.5027
  460MOL0     C62013   0.810   2.335  11.700 -0.2500 -0.7616 -1.1220
  460MOL0     C62014   0.854   2.362  11.576  1.2359  0.5679  0.6889
  460MOL0     N62015   1.142   2.595  10.878  0.4671 -0.1971 -0.0834
  460MOL0     N62016   1.199   2.695  10.828  0.3614 -0.1658 -0.2367
  460MOL0     C62017   2.235   2.931  10.485  0.3694 -0.3964 -0.5008
  460MOL0     C62018   2.251   3.053  10.539 -0.6095  0.5313 -0.7264
  460MOL0     C62019   2.298   3.406  10.816  0.9383  0.1658  0.5986
  460MOL0     C62020   2.424   3.445  10.780 -0.0643 -0.1100  0.4699
  460MOL0     C62021   2.489   3.554  10.834 -0.0277 -0.6646 -0.2196
  460MOL0     C62022   2.420   3.640  10.929 -0.1717 -0.7301 -0.1560
  460MOL0     O62023   2.457   3.751  11.000 -0.1969 -0.4294  1.0778
  460MOL0     C62024   2.595   3.790  10.991 -0.1267 -0.5240 -0.4568
  460MOL0     C62025   2.596   3.928  11.058 -0.0882  0.0459 -0.3035
  460MOL0     C62026   2.534   3.923  11.201 -1.1109  0.1944 -0.0143
  460MOL0     C62027   2.570   4.048  11.294 -0.0470 -0.2775  0.4266
  460MOL0     C62028   2.535   4.164  11.218 -0.2769 -0.2979 -0.2602
  460MOL0     C62029   2.502   4.268  11.170 -0.6033 -0.0252 -0.2639
  460MOL0     C62030   2.283   3.599  10.964  0.1759  0.3112 -0.4594
  460MOL0     C62031   2.228   3.484  10.910  0.5231 -0.1200  0.0699
  460MOL0     C62032   2.079   3.463  10.953 -0.1881 -0.4162 -0.0691
  460MOL0     H62033   2.344   2.968  10.857 -3.3173  1.2360  0.5791
  460MOL0     H62034   2.304   2.731  10.755 -1.8912  1.2917  2.5044
  460MOL0     H62035   2.133   2.497  10.498  0.6167  0.3880 -0.3934
  460MOL0     H62036   2.229   2.544  10.633  1.2985  0.7359 -2.7326
  460MOL0     H62037   2.022   2.684  10.715 -0.3520  0.9757 -1.1783
  460MOL0     H62038   2.007   2.511  10.724  0.4664 -1.1305 -0.0649
  460MOL0     H62039   1.885   2.547  10.475 -0.6881 -0.1492  0.3809
  460MOL0     H62040   1.889   2.718  10.515  0.3420  0.3157 -1.2819
  460MOL0     H62041   1.671   2.628  10.577 -3.2969 -2.9877  2.1798
  460MOL0     H62042   1.742   2.490  10.652 -1.3696 -0.0733 -3.2408
  460MOL0     H62043   1.840   2.618  10.833 -0.6142 -0.5980 -0.6829
  460MOL0     H62044   1.795   2.774  10.761 -3.7839  1.8495  0.6025
  460MOL0     H62045   1.601   2.581  10.882  0.2830  0.2739  0.6952
  460MOL0     H62046   1.647   2.733  10.942 -1.2774  0.0117  0.6024
  460MOL0     H62047   1.488   2.707  10.692 -0.7389 -0.8310  0.8233
  460MOL0     H62048   1.566   2.860  10.731 -0.7547  0.8580  0.0882
  460MOL0     H62049   1.447   2.868  10.962  1.2077 -1.9868 -0.6044
  460MOL0     H62050   1.357   2.903  10.817  1.3441  1.1817  0.3901
  460MOL0     H62051   1.400   2.621  11.085  0.0198  1.6760  0.8410
  460MOL0     H62052   1.129   2.363  11.036  1.3026 -0.0339 -1.1845
  460MOL0     H62053   1.279   2.390  11.115  0.6882  1.3638 -0.9146
  460MOL0     H62054   1.057   2.401  11.245 -0.7307 -0.3445  0.3224
  460MOL0     H62055   1.190   2.520  11.272  0.7894  1.3710 -1.3206
  460MOL0     H62056   0.919   2.556  11.136  0.3099 -2.8577 -0.6377
  460MOL0     H62057   1.040   2.682  11.136 -2.3488 -0.1496 -2.8522
  460MOL0     H62058   0.860   2.677  11.321 -0.0778  0.6701  0.0174
  460MOL0     H62059   1.036   2.678  11.386  3.0357 -1.7832 -2.2331
  460MOL0     H62060   0.851   2.694  11.566  4.5849 -2.3205  0.0727
  460MOL0     H62061   0.712   2.651  11.781  1.3937  0.4486  0.5992
  460MOL0     H62062   0.751   2.298  12.211 -0.0659 -0.6763  1.1768
  460MOL0     H62063   0.606   2.201  12.380 -0.5829  1.6026 -0.3144
  460MOL0     H62064   0.512   2.003  12.462 -1.0956  0.9599  2.2047
  460MOL0     H62065   0.413   2.145  12.495  1.6411  0.6478 -2.1395
  460MOL0     H62066   0.324   1.864  12.489  2.5417 -0.7706  2.7792
  460MOL0     H62067   0.365   1.954  12.624  0.0571  1.1158 -0.0330
  460MOL0     H62068   0.176   2.094  12.628  0.0545  1.6188 -0.5998
  460MOL0     H62069   0.156   2.101  12.457 -2.7614 -2.3315 -2.3946
  460MOL0     H62070   0.095   1.856  12.618  1.2562  0.2016  0.9033
  460MOL0     H62071   0.037   1.891  12.447 -2.9565  0.2872  0.3740
  460MOL0     H62072  -0.062   2.109  12.615 -1.5909  0.4372  2.1721
  460MOL0     H62073  -0.064   1.969  12.710 -3.5151  0.2667 -0.2375
  460MOL0     H62074  -0.288   2.004  12.607 -0.8816 -0.6053 -0.7721
  460MOL0     H62075  -0.225   2.005  12.451 -3.9085  1.4286  0.6833
  460MOL0     H62076  -0.206   1.768  12.447  1.2219  1.5571  0.1821
  460MOL0     H62077  -0.354   1.811  12.522 -0.3595  1.9628  1.5666
  460MOL0     H62078  -0.103   1.717  12.666 -0.5458  0.5131 -0.2180
  460MOL0     H62079  -0.255   1.790  12.747 -4.7208 -1.0159 -0.9292
  460MOL0     H62080   0.306   2.132  12.088 -0.5173  0.1434  1.9349
  460MOL0     H62081   0.454   2.239  11.919  2.9942  1.5038 -1.2328
  460MOL0     H62082   0.806   2.235  11.743 -1.8054 -0.9781 -1.7214
  460MOL0     H62083   0.867   2.276  11.510 -3.8805 -0.6526  0.8530
  460MOL0     H62084   2.219   2.925  10.378  1.4327 -0.2416 -0.6751
  460MOL0     H62085   2.256   3.137  10.470  0.1242  0.9515 -0.1747
  460MOL0     H62086   2.481   3.382  10.713 -2.3765 -0.6870 -1.0872
  460MOL0     H62087   2.589   3.580  10.802  0.2670  0.5151  1.4777
  460MOL0     H62088   2.624   3.798  10.885  1.6550 -3.0046 -0.2463
  460MOL0     H62089   2.657   3.722  11.050  0.2848  1.3574  1.3905
  460MOL0     H62090   2.534   3.996  10.999 -1.9236 -0.1037  1.3618
  460MOL0     H62091   2.698   3.965  11.071  0.1386 -1.0601  1.3623
  460MOL0     H62092   2.562   3.836  11.260  0.7677  1.3990  0.9612
  460MOL0     H62093   2.426   3.919  11.184 -1.0908  0.7557 -0.2933
  460MOL0     H62094   2.524   4.050  11.393 -0.0084 -0.6310  0.4548
  460MOL0     H62095   2.677   4.045  11.314  0.4390  3.5775 -0.8167
  460MOL0     H62096   2.472   4.361  11.126 -2.6521 -0.2631  0.5092
  460MOL0     H62097   2.217   3.666  11.018 -0.2184 -0.2229 -0.2743
  460MOL0     H62098   2.018   3.464  10.862  0.0940 -0.6697 -0.2611
  460MOL0     H62099   2.068   3.364  10.998 -1.3395  0.0140  0.6588
  460MOL0     H62100   2.039   3.537  11.024  0.7458  0.8775 -0.8454
  461MOL0     O62101   5.931   6.702   9.504 -0.7640 -0.1244  0.3005
  461MOL0     C62102   5.844   6.730   9.576  0.8277  0.3609 -0.3321
  461MOL0     O62103   5.853   6.742   9.717 -0.3239  0.4247 -0.2968
  461MOL0     C62104   5.983   6.726   9.764 -0.6773  0.4581 -0.2092
  461MOL0     C62105   6.051   6.597   9.776  0.2541  0.8494 -0.2507
  461MOL0     C62106   6.192   6.592   9.810  0.2052  1.4532 -0.1084
  461MOL0     C62107   6.264   6.713   9.824  0.0952 -0.3767  0.0885
  461MOL0     O62108   6.393   6.718   9.859 -0.4511  0.1969  1.0427
  461MOL0     C62109   6.489   6.616   9.816  0.4644  0.2786 -0.1999
  461MOL0     C62110   6.633   6.660   9.858  0.0821 -0.1355 -0.6424
  461MOL0     C62111   6.649   6.663  10.004 -0.5364 -0.7818 -0.2861
  461MOL0     C62112   6.781   6.735  10.041 -0.9085  0.0844  0.0635
  461MOL0     C62113   6.836   6.694  10.184 -0.4049  0.4658  0.2836
  461MOL0     C62114   6.728   6.734  10.294 -0.8144 -0.4019 -0.2047
  461MOL0     C62115   6.682   6.876  10.276 -0.3814  0.1353  1.3672
  461MOL0     C62116   6.586   6.920  10.384 -1.1634  0.1904  0.5503
  461MOL0     N62117   6.457   6.851  10.367  0.3856  0.3937 -0.1031
  461MOL0     C62118   6.398   6.803  10.253  0.7605  0.6872 -0.1944
  461MOL0     C62119   6.321   6.705  10.289  0.5408 -0.9048  0.0258
  461MOL0     C62120   6.230   6.634  10.190  0.4559  0.5212  0.2947
  461MOL0     C62121   6.087   6.686  10.196  0.5997 -1.0191  0.4137
  461MOL0     C62122   6.065   6.840  10.156  0.7223  0.0446  0.0538
  461MOL0     C62123   5.930   6.874  10.128  0.3598  0.2370 -1.1412
  461MOL0     O62124   5.927   7.004  10.064  0.4368  0.7031 -0.1870
  461MOL0     C62125   5.817   7.055  10.012  0.3196 -0.2585  0.3659
  461MOL0     C62126   5.695   6.993   9.995  0.5517  0.3809  0.0435
  461MOL0     C62127   5.579   7.050   9.933  0.3207  0.0954 -0.9873
  461MOL0     C62128   5.582   7.184   9.890 -0.0577 -0.0457 -0.9940
  461MOL0     C62129   5.458   7.247   9.839 -0.3316  0.3517 -0.6690
  461MOL0     O62130   5.377   7.157   9.773 -0.3776  0.0970 -0.1620
  461MOL0     C62131   5.256   7.211   9.739  0.0806  0.7801  0.4059
  461MOL0     C62132   5.140   7.144   9.789  0.4585 -0.8211  0.2001
  461MOL0     C62133   5.014   7.188   9.732  0.8072 -0.8977 -0.2790
  461MOL0     C62134   5.005   7.293   9.633  0.2780 -0.3933 -0.3829
  461MOL0     O62135   4.882   7.329   9.579  0.7158  0.7216  0.0043
  461MOL0     C62136   4.842   7.463   9.585  0.1712  0.3701 -0.7355
  461MOL0     C62137   4.757   7.500   9.464  0.5278  0.1330 -0.5003
  461MOL0     C62138   4.820   7.468   9.324  1.3616  0.7361 -0.3390
  461MOL0     C62139   4.765   7.564   9.209 -0.2057 -0.1969  0.2847
  461MOL0     C62140   4.832   7.548   9.074  0.6523  0.5210 -0.5064
  461MOL0     C62141   4.980   7.571   9.083 -0.5829 -0.0766  1.3202
  461MOL0     C62142   5.043   7.595   8.939 -0.1209  0.9709 -0.6769
  461MOL0     C62143   4.989   7.503   8.823 -0.6099  0.2268 -0.7865
  461MOL0    Cl62144   5.081   7.534   8.662  0.2164 -0.2615 -0.0428
  461MOL0     C62145   5.122   7.352   9.588 -0.6288  0.4714  0.0046
  461MOL0     C62146   5.246   7.309   9.639 -0.8269 -0.4492  0.1591
  461MOL0     O62147   5.439   7.365   9.853 -0.1055 -0.7125  0.0563
  461MOL0     C62148   5.706   7.256   9.914  0.1296  0.0536  0.5388
  461MOL0     C62149   5.815   7.191   9.979  0.1722 -0.0438  0.8208
  461MOL0     N62150   6.327   6.689  10.426  0.3869 -0.2115 -0.9696
  461MOL0     N62151   6.401   6.780  10.471 -0.1712  0.3323 -0.2565
  461MOL0     C62152   6.199   6.831   9.807  0.4535  0.3448 -0.6552
  461MOL0     C62153   6.063   6.839   9.785  1.3865  0.6104  0.0619
  461MOL0     C62154   5.722   6.778   9.505  1.2645  0.2705 -0.0050
  461MOL0     C62155   5.661   6.892   9.561  0.7750 -0.5913 -0.4575
  461MOL0     C62156   5.541   6.943   9.510 -0.3093 -0.0693  0.6607
  461MOL0     C62157   5.488   6.895   9.385  0.0501 -0.8824  0.4351
  461MOL0     O62158   5.377   6.950   9.324 -0.5142  0.1295 -0.3605
  461MOL0     C62159   5.352   7.087   9.362  0.2988  0.1979  0.0274
  461MOL0     C62160   5.232   7.133   9.276 -0.1534 -0.0372 -0.0747
  461MOL0     C62161   5.101   7.067   9.325 -1.2547 -0.0799 -0.2691
  461MOL0     C62162   4.994   7.103   9.219 -0.3288 -0.6357 -0.0497
  461MOL0     C62163   4.877   7.034   9.265  0.7322  0.2018  0.0933
  461MOL0     C62164   4.778   6.975   9.313  0.0075  0.0276  0.2680
  461MOL0     C62165   5.556   6.789   9.323  0.3043  0.2956  0.7686
  461MOL0     C62166   5.669   6.736   9.385  0.2418  0.2389  0.4674
  461MOL0     C62167   5.730   6.621   9.305 -0.3235 -0.4711  0.3595
  461MOL0     H62168   5.991   6.508   9.761  1.2970 -0.2058  1.4079
  461MOL0     H62169   6.237   6.494   9.827 -0.4085  1.2600  0.4246
  461MOL0     H62170   6.456   6.518   9.852 -1.9015  2.4517  4.5708
  461MOL0     H62171   6.495   6.625   9.707  0.4896 -4.7012 -0.8495
  461MOL0     H62172   6.658   6.758   9.816 -0.4129  0.0894 -0.4292
  461MOL0     H62173   6.702   6.588   9.812 -0.7481 -0.6926 -1.0509
  461MOL0     H62174   6.662   6.559  10.035  1.2245 -1.1545 -2.0968
  461MOL0     H62175   6.565   6.706  10.060 -0.4792 -1.9131  0.7196
  461MOL0     H62176   6.861   6.694   9.979 -1.1293 -2.8795  1.5476
  461MOL0     H62177   6.774   6.843  10.028 -2.7137 -0.1054 -1.0306
  461MOL0     H62178   6.872   6.591  10.192  2.5822  1.2780 -1.1659
  461MOL0     H62179   6.933   6.742  10.201  0.2481 -0.9727  0.7457
  461MOL0     H62180   6.657   6.651  10.302 -1.5517  0.2914  0.6640
  461MOL0     H62181   6.786   6.744  10.386  0.8748  0.1158 -1.2757
  461MOL0     H62182   6.627   6.890  10.182 -3.5087 -1.4314  2.8436
  461MOL0     H62183   6.778   6.928  10.274 -0.6059  0.5630  1.5004
  461MOL0     H62184   6.619   6.902  10.487  1.0889  3.5018  0.5825
  461MOL0     H62185   6.577   7.029  10.382 -4.2738  0.0533  1.9011
  461MOL0     H62186   6.391   6.840  10.152  0.7447 -0.4614 -0.6191
  461MOL0     H62187   6.265   6.639  10.086  0.2678  1.9217  0.2759
  461MOL0     H62188   6.216   6.529  10.218 -2.2096  1.1466  1.6535
  461MOL0     H62189   6.035   6.626  10.121  2.7441 -2.3617 -0.0575
  461MOL0     H62190   6.035   6.675  10.292  0.6878 -0.6516  0.5059
  461MOL0     H62191   6.143   6.863  10.084  2.2658 -0.5023  1.4689
  461MOL0     H62192   6.096   6.906  10.237  1.0476  0.5542 -0.4854
  461MOL0     H62193   5.872   6.872  10.221  0.8847 -1.7349 -0.8242
  461MOL0     H62194   5.883   6.800  10.063 -0.9042 -0.9841  1.0447
  461MOL0     H62195   5.682   6.890  10.027 -3.7616  1.2368  1.7812
  461MOL0     H62196   5.489   6.991   9.921  1.2436 -1.0114 -2.9105
  461MOL0     H62197   5.134   7.061   9.859  2.1042 -0.7946  0.4296
  461MOL0     H62198   4.927   7.128   9.759  0.6113  0.4863  2.4306
  461MOL0     H62199   4.792   7.490   9.678  1.5566  1.5607 -0.3062
  461MOL0     H62200   4.928   7.528   9.574  1.2456 -1.1157 -1.5197
  461MOL0     H62201   4.657   7.456   9.461  0.6658 -0.2423  0.1288
  461MOL0     H62202   4.741   7.608   9.468 -0.1409  0.1902 -2.9661
  461MOL0     H62203   4.928   7.478   9.337  1.2778  0.5596  0.5016
  461MOL0     H62204   4.805   7.362   9.303 -1.6262  1.0788 -0.4297
  461MOL0     H62205   4.794   7.663   9.245 -0.6079 -0.7345  2.1990
  461MOL0     H62206   4.656   7.560   9.198  0.1328 -1.9612 -4.6494
  461MOL0     H62207   4.787   7.619   9.003 -4.1694 -0.2201  1.4555
  461MOL0     H62208   4.802   7.451   9.035  0.4341  0.4133 -0.0760
  461MOL0     H62209   4.997   7.664   9.137  0.6284 -0.5205  1.7544
  461MOL0     H62210   5.025   7.486   9.136  1.3823 -0.4820 -0.8255
  461MOL0     H62211   5.150   7.578   8.951 -0.4827 -0.2436  1.1792
  461MOL0     H62212   5.033   7.703   8.925  1.8355  1.2748 -0.1047
  461MOL0     H62213   5.006   7.400   8.857 -0.2166  0.7070  0.5112
  461MOL0     H62214   4.882   7.522   8.811 -0.5568 -0.9949 -4.7706
  461MOL0     H62215   5.125   7.425   9.508 -2.0343 -2.0764 -2.5211
  461MOL0     H62216   5.340   7.361   9.623 -1.4925  1.0290  0.8626
  461MOL0     H62217   5.710   7.364   9.908  2.4527  0.2882  3.5514
  461MOL0     H62218   5.900   7.255   9.995  0.8308 -0.3083 -1.3194
  461MOL0     H62219   6.260   6.920   9.817  0.5129  0.5610 -2.6789
  461MOL0     H62220   6.012   6.934   9.776  1.8318  0.6429 -3.2564
  461MOL0     H62221   5.705   6.938   9.649  0.1591 -0.6874 -0.0915
  461MOL0     H62222   5.488   7.020   9.566  0.6387 -0.0630  1.5852
  461MOL0     H62223   5.443   7.145   9.341  0.1865  0.6446  0.7323
  461MOL0     H62224   5.329   7.077   9.469  2.1773 -3.4821  0.2453
  461MOL0     H62225   5.246   7.098   9.173  0.6370 -2.4497  0.7807
  461MOL0     H62226   5.235   7.242   9.277  3.0775  0.0093  2.7445
  461MOL0     H62227   5.081   7.093   9.429 -1.5397 -0.5437 -0.2018
  461MOL0     H62228   5.126   6.960   9.327 -0.9560 -0.0055  1.1754
  461MOL0     H62229   4.977   7.211   9.215 -0.7995 -0.7534 -1.8844
  461MOL0     H62230   5.019   7.077   9.116 -2.7585  0.4465 -0.9714
  461MOL0     H62231   4.707   6.933   9.382 -1.6520  1.7268 -0.3316
  461MOL0     H62232   5.509   6.757   9.230 -0.9714  2.7068  0.5073
  461MOL0     H62233   5.649   6.558   9.267  0.1190 -0.8938  0.1046
  461MOL0     H62234   5.788   6.657   9.219 -2.8797 -0.8741 -1.6690
  461MOL0     H62235   5.794   6.561   9.370  1.2863  1.7260  0.9420
  462MOL0     O62236   1.165   0.523   9.365  0.5308  0.5795  0.8565
  462MOL0     C62237   1.199   0.601   9.464 -0.4391  0.7129 -0.4150
  462MOL0     O62238   1.333   0.637   9.486 -0.2614  0.0963  0.0043
  462MOL0     C62239   1.403   0.620   9.368  0.6329  0.6563  0.2301
  462MOL0     C62240   1.498   0.519   9.362  0.2453  0.3781 -0.7425
  462MOL0     C62241   1.570   0.504   9.247  0.1840  0.0429  0.2843
  462MOL0     C62242   1.548   0.591   9.136 -0.6655 -0.5841 -0.2241
  462MOL0     O62243   1.602   0.583   9.020  0.3484  0.8630 -0.8594
  462MOL0     C62244   1.619   0.460   8.965 -0.3533  1.0165  0.2305
  462MOL0     C62245   1.497   0.403   8.904  0.1305 -0.2495 -0.4963
  462MOL0     C62246   1.504   0.252   8.870 -0.1266 -0.0065 -0.5924
  462MOL0     C62247   1.593   0.201   8.750  0.3754  0.7294 -0.6005
  462MOL0     C62248   1.557   0.056   8.723  0.4262  0.4478  0.2731
  462MOL0     C62249   1.624   0.007   8.600  0.1703  0.1771 -0.3485
  462MOL0     C62250   1.637  -0.150   8.604 -1.0298  0.7641  0.4431
  462MOL0     C62251   1.510  -0.214   8.540  0.0220 -0.3582  0.2882
  462MOL0     N62252   1.527  -0.348   8.499  0.1017  0.3397 -0.1458
  462MOL0     C62253   1.602  -0.394   8.393 -0.5403  0.0447  0.2110
  462MOL0     C62254   1.572  -0.528   8.376 -0.7256  0.6801 -0.9278
  462MOL0     C62255   1.621  -0.615   8.265  0.3406 -0.4877  0.9929
  462MOL0     C62256   1.720  -0.715   8.338  0.0476  0.5697  0.0771
  462MOL0     C62257   1.798  -0.793   8.241  0.1757 -1.3075  0.3639
  462MOL0     C62258   1.915  -0.863   8.298  0.3101 -0.1633  0.9220
  462MOL0     O62259   1.885  -0.936   8.413 -0.8158  0.2663  0.0443
  462MOL0     C62260   1.979  -1.026   8.461  0.8585 -0.2004 -0.2337
  462MOL0     C62261   2.116  -1.029   8.419 -0.4802 -0.0896 -0.5859
  462MOL0     C62262   2.207  -1.114   8.481  0.3483 -0.3546 -0.1134
  462MOL0     C62263   2.169  -1.214   8.567 -0.3285 -0.3490  0.2709
  462MOL0     C62264   2.250  -1.337   8.604  0.2189  1.6063  1.6903
  462MOL0     O62265   2.228  -1.404   8.709 -0.7843  0.0671  0.3216
  462MOL0     C62266   2.276  -1.530   8.707  1.3548  0.3152 -0.3826
  462MOL0     C62267   2.407  -1.565   8.714 -0.1668 -0.0342  0.3520
  462MOL0     C62268   2.433  -1.699   8.717 -0.3420  0.6141 -0.3984
  462MOL0     C62269   2.336  -1.800   8.713  0.0619 -0.5565  0.2558
  462MOL0     O62270   2.380  -1.934   8.709 -0.1427 -1.3084 -0.3375
  462MOL0     C62271   2.296  -2.040   8.669 -0.2973  0.1085 -0.7287
  462MOL0     C62272   2.369  -2.165   8.616  0.1749  0.3876  0.2644
  462MOL0     C62273   2.465  -2.138   8.508 -0.1532 -0.4182 -0.0608
  462MOL0     C62274   2.414  -2.061   8.390  0.6810 -0.0551 -0.0680
  462MOL0     C62275   2.491  -2.088   8.268 -0.0083  0.0754 -0.0575
  462MOL0     C62276   2.647  -2.061   8.268 -0.1323  0.5657 -0.4674
  462MOL0     C62277   2.692  -2.040   8.127 -0.4374  0.2526 -1.0339
  462MOL0     C62278   2.842  -2.019   8.150 -0.3991 -0.1310  0.5422
  462MOL0    Cl62279   2.922  -1.970   7.993 -0.2525  0.2116  0.0500
  462MOL0     C62280   2.202  -1.757   8.703 -0.5108 -1.4061 -0.2062
  462MOL0     C62281   2.173  -1.623   8.711  0.8583 -0.3194 -0.4461
  462MOL0     O62282   2.327  -1.373   8.515 -0.3290 -0.9201 -0.1903
  462MOL0     C62283   2.041  -1.207   8.610  0.6997  0.2824  0.4739
  462MOL0     C62284   1.950  -1.111   8.572 -0.6540  0.6344  0.1446
  462MOL0     N62285   1.479  -0.561   8.474 -0.9820 -0.5133  0.7382
  462MOL0     N62286   1.447  -0.450   8.543  0.5096  0.5605 -0.1935
  462MOL0     C62287   1.465   0.698   9.152 -0.5603  0.9125  0.0611
  462MOL0     C62288   1.401   0.719   9.276  0.9595 -0.3346  0.1306
  462MOL0     C62289   1.086   0.658   9.546 -0.8814 -0.8418 -0.6702
  462MOL0     C62290   0.965   0.597   9.552 -0.5884 -0.1691  0.7284
  462MOL0     C62291   0.858   0.650   9.624  0.5951  0.7544 -0.0677
  462MOL0     C62292   0.868   0.767   9.693  0.0796  0.0280 -0.1119
  462MOL0     O62293   0.750   0.816   9.750  0.5732  0.0068  0.9045
  462MOL0     C62294   0.759   0.942   9.813 -0.0316  0.4902 -0.1504
  462MOL0     C62295   0.623   0.999   9.856  0.5429 -0.4939 -0.5037
  462MOL0     C62296   0.538   1.066   9.741 -0.0096  1.1019 -0.1887
  462MOL0     C62297   0.454   0.958   9.685  0.7027 -0.1217 -0.1326
  462MOL0     C62298   0.329   1.015   9.638  0.4620  0.5643  0.6914
  462MOL0     C62299   0.229   1.070   9.605 -0.6683 -0.3626  0.4078
  462MOL0     C62300   0.988   0.843   9.677  0.1387 -0.0347 -0.2208
  462MOL0     C62301   1.103   0.784   9.616 -0.0941  0.0508 -0.2817
  462MOL0     C62302   1.216   0.883   9.592  0.1949  0.3028 -0.8701
  462MOL0     H62303   1.515   0.456   9.448 -0.4439  1.8173  0.5022
  462MOL0     H62304   1.644   0.424   9.247 -1.8698 -1.9804 -1.3779
  462MOL0     H62305   1.698   0.466   8.889  1.8107  0.4110  2.3079
  462MOL0     H62306   1.666   0.388   9.032  0.0689 -1.1211 -2.2010
  462MOL0     H62307   1.473   0.462   8.815 -2.7827  0.9691  0.9373
  462MOL0     H62308   1.421   0.430   8.978  1.9684  3.2714  0.3486
  462MOL0     H62309   1.402   0.225   8.841 -0.3194 -2.6063  1.9710
  462MOL0     H62310   1.545   0.196   8.954 -0.8929  0.9949  0.4731
  462MOL0     H62311   1.572   0.259   8.660  3.5690  1.6983 -0.8428
  462MOL0     H62312   1.697   0.214   8.782 -0.1685  1.1631  1.1093
  462MOL0     H62313   1.590  -0.009   8.805 -0.2099 -0.7810 -0.4015
  462MOL0     H62314   1.449   0.046   8.708  0.3342 -0.4359  1.4161
  462MOL0     H62315   1.560   0.033   8.515  1.6012  1.8189 -0.9851
  462MOL0     H62316   1.724   0.047   8.582 -0.7782  2.6764 -0.4524
  462MOL0     H62317   1.644  -0.183   8.708 -3.5599 -1.6520 -0.0308
  462MOL0     H62318   1.727  -0.178   8.548  0.1881  1.4996  1.9753
  462MOL0     H62319   1.425  -0.215   8.608  2.5021 -2.4688  3.6652
  462MOL0     H62320   1.479  -0.164   8.447 -2.8470 -0.7298  0.9775
  462MOL0     H62321   1.663  -0.337   8.323  0.4679 -0.3054  0.7702
  462MOL0     H62322   1.544  -0.671   8.211  0.5057 -1.3776  1.6664
  462MOL0     H62323   1.673  -0.564   8.183 -0.3989  0.2201  0.9439
  462MOL0     H62324   1.787  -0.652   8.397  0.1229  1.3441 -0.8156
  462MOL0     H62325   1.668  -0.789   8.399 -1.0750 -0.0455 -1.5664
  462MOL0     H62326   1.841  -0.723   8.168 -0.8750 -1.5947 -0.5545
  462MOL0     H62327   1.726  -0.859   8.193 -3.6837  2.4284  0.3690
  462MOL0     H62328   1.984  -0.784   8.330 -0.5590  1.2820 -0.5992
  462MOL0     H62329   1.953  -0.942   8.233  0.5828  0.2181  0.6111
  462MOL0     H62330   2.147  -0.952   8.350  0.6334 -0.9005 -1.0189
  462MOL0     H62331   2.312  -1.109   8.453  1.2217  1.6478  3.0889
  462MOL0     H62332   2.484  -1.488   8.708 -1.5632  1.7697  3.1628
  462MOL0     H62333   2.536  -1.733   8.711 -0.1390  1.5110 -4.2607
  462MOL0     H62334   2.247  -2.068   8.763  1.1376  0.6721  0.2186
  462MOL0     H62335   2.221  -2.009   8.595 -0.5547 -1.4322 -1.1555
  462MOL0     H62336   2.421  -2.226   8.691 -1.7282  0.4928  1.7309
  462MOL0     H62337   2.294  -2.235   8.579 -3.0386  3.3638  0.6772
  462MOL0     H62338   2.554  -2.082   8.537  1.2634 -0.9988 -2.8436
  462MOL0     H62339   2.495  -2.238   8.476  0.2127 -0.5730  0.7706
  462MOL0     H62340   2.385  -1.957   8.408 -2.0721 -0.7894  0.2126
  462MOL0     H62341   2.320  -2.108   8.360  0.1939  0.2249  0.9749
  462MOL0     H62342   2.451  -2.027   8.187  0.2901  2.2183  1.3162
  462MOL0     H62343   2.467  -2.192   8.245 -2.4860 -0.3153  3.4804
  462MOL0     H62344   2.656  -1.974   8.333  3.6391 -0.3204  0.4022
  462MOL0     H62345   2.706  -2.144   8.308  0.9104  1.6509  0.2979
  462MOL0     H62346   2.647  -1.952   8.079  0.0222  0.2741 -1.4376
  462MOL0     H62347   2.662  -2.130   8.072 -0.5300 -1.1158  1.1605
  462MOL0     H62348   2.850  -1.928   8.210 -0.6769  0.2654 -0.0119
  462MOL0     H62349   2.896  -2.103   8.193  1.5805  1.0844  0.5436
  462MOL0     H62350   2.125  -1.832   8.719  0.6294 -2.5130  0.2971
  462MOL0     H62351   2.070  -1.589   8.720  1.1338 -0.0366  2.4334
  462MOL0     H62352   1.994  -1.289   8.662 -2.5166  1.2323 -0.6274
  462MOL0     H62353   1.853  -1.107   8.619 -0.7657  0.8961 -0.1114
  462MOL0     H62354   1.449   0.772   9.074  1.0032  2.1592  0.8665
  462MOL0     H62355   1.353   0.816   9.276 -0.1607 -0.8131 -2.2583
  462MOL0     H62356   0.942   0.505   9.499 -2.0513 -0.4952  1.8412
  462MOL0     H62357   0.762   0.599   9.625 -0.4990  2.6452 -1.4518
  462MOL0     H62358   0.821   1.012   9.756  3.3643 -1.6339  0.6930
  462MOL0     H62359   0.824   0.927   9.900  2.2173 -0.8411 -1.9601
  462MOL0     H62360   0.656   1.069   9.933  1.0351 -2.1769  0.8579
  462MOL0     H62361   0.571   0.924   9.916 -0.8330  0.8771  0.0935
  462MOL0     H62362   0.596   1.109   9.660  1.4157 -0.0191  0.1907
  462MOL0     H62363   0.469   1.141   9.781 -0.8878  0.9113 -1.3162
  462MOL0     H62364   0.507   0.892   9.616  0.9967 -1.5969  1.4436
  462MOL0     H62365   0.423   0.886   9.761  1.6441 -0.8203 -0.3914
  462MOL0     H62366   0.131   1.110   9.588 -1.0025 -0.1233  2.6264
  462MOL0     H62367   1.003   0.945   9.710 -2.1765  0.4508 -0.4721
  462MOL0     H62368   1.311   0.837   9.620 -0.9285  0.2475  3.4693
  462MOL0     H62369   1.224   0.922   9.490 -0.0564  3.2361  0.1318
  462MOL0     H62370   1.202   0.967   9.660  0.7410 -0.5861  0.3806
  463MOL0     O62371   8.011   9.032  11.225  0.2122  0.3929  0.1780
  463MOL0     C62372   7.923   8.970  11.285  0.3664 -0.0513  0.0452
  463MOL0     O62373   7.789   8.979  11.259  0.2344  0.6106 -0.0615
  463MOL0     C62374   7.743   9.041  11.147  0.1811  0.5863  0.1139
  463MOL0     C62375   7.765   9.180  11.122  0.1979  0.4726  0.9170
  463MOL0     C62376   7.693   9.248  11.023 -0.6070 -0.4929 -0.4900
  463MOL0     C62377   7.618   9.167  10.941  0.4793  1.0147  1.5370
  463MOL0     O62378   7.526   9.215  10.847 -0.0609 -0.1236  0.3111
  463MOL0     C62379   7.539   9.347  10.794  0.8613  0.5391  0.4838
  463MOL0     C62380   7.445   9.364  10.686 -0.1232 -0.3484  0.2348
  463MOL0     C62381   7.454   9.511  10.630  0.2232 -0.0203 -1.1445
  463MOL0     C62382   7.576   9.527  10.533 -0.3450  0.4830 -0.8871
  463MOL0     C62383   7.572   9.667  10.484 -0.3402 -0.3980  0.2368
  463MOL0     C62384   7.719   9.699  10.435  0.1152  1.0737  0.1813
  463MOL0     C62385   7.725   9.850  10.395  0.4511  0.5559 -1.0419
  463MOL0     C62386   7.821   9.879  10.283 -0.5595 -0.0730  0.3481
  463MOL0     N62387   7.962   9.876  10.317 -0.0205 -0.1309  0.0516
  463MOL0     C62388   8.039   9.993  10.312  0.8098  0.5634  0.2264
  463MOL0     C62389   8.160   9.937  10.326  1.1907  0.0957  0.2422
  463MOL0     C62390   8.280  10.023  10.332 -0.0357 -0.1742  0.1740
  463MOL0     C62391   8.306  10.103  10.213 -0.2776  0.2031 -0.3999
  463MOL0     C62392   8.445  10.156  10.231 -0.4320 -0.1490 -0.2139
  463MOL0     C62393   8.501  10.216  10.100 -0.3804  0.2159  1.1483
  463MOL0     O62394   8.597  10.311  10.148 -0.3536 -0.1003  0.0480
  463MOL0     C62395   8.656  10.393  10.056  0.4096 -0.1572 -0.1483
  463MOL0     C62396   8.590  10.418   9.928 -0.1577 -0.6327  0.3310
  463MOL0     C62397   8.642  10.528   9.851 -0.1170  0.1402  0.6940
  463MOL0     C62398   8.752  10.603   9.899 -0.8111 -0.0503  0.4062
  463MOL0     C62399   8.786  10.728   9.836 -0.1841 -0.5446  0.7171
  463MOL0     O62400   8.727  10.747   9.718 -0.6859 -0.6085  0.0437
  463MOL0     C62401   8.774  10.855   9.645 -0.0866  1.0113  0.6643
  463MOL0     C62402   8.696  10.976   9.618  0.7407  0.2133  0.1814
  463MOL0     C62403   8.760  11.082   9.555 -0.2567  0.4509  1.2086
  463MOL0     C62404   8.886  11.059   9.489 -1.5521 -0.3561  0.1071
  463MOL0     O62405   8.934  11.140   9.392 -0.2332 -0.1896  0.3777
  463MOL0     C62406   9.080  11.148   9.394  0.0831  0.7851  0.1486
  463MOL0     C62407   9.130  11.276   9.332  0.3850 -0.6291 -0.5877
  463MOL0     C62408   9.279  11.286   9.313 -0.3392 -0.0290  0.2503
  463MOL0     C62409   9.303  11.390   9.202 -0.3111 -0.1097 -0.0078
  463MOL0     C62410   9.450  11.416   9.197 -0.6483 -0.0359  0.8031
  463MOL0     C62411   9.483  11.525   9.098 -0.2384 -0.9969 -0.0912
  463MOL0     C62412   9.630  11.555   9.091  0.3544  0.2788  0.6469
  463MOL0     C62413   9.663  11.707   9.074  0.5866 -0.0975 -0.6684
  463MOL0    Cl62414   9.832  11.715   9.024  0.0894 -0.2624  0.0360
  463MOL0     C62415   8.953  10.940   9.510  0.7882 -0.8854 -0.3257
  463MOL0     C62416   8.895  10.840   9.586  0.2953 -0.2416 -0.2203
  463MOL0     O62417   8.854  10.802   9.905  0.3871 -0.3797  0.4033
  463MOL0     C62418   8.809  10.566  10.014 -1.0522  0.1950  0.1925
  463MOL0     C62419   8.771  10.457  10.093  0.2783  0.4869  0.0272
  463MOL0     N62420   8.164   9.800  10.327 -0.0316 -0.3032  0.2679
  463MOL0     N62421   8.037   9.766  10.319 -0.1932  0.2504  0.4946
  463MOL0     C62422   7.613   9.028  10.957  0.0879 -0.6707 -1.2925
  463MOL0     C62423   7.665   8.965  11.066 -0.2783  0.4477  0.3192
  463MOL0     C62424   7.956   8.905  11.414 -0.3746 -0.0810 -0.4172
  463MOL0     C62425   7.875   8.916  11.528 -0.0891  0.0299 -0.3239
  463MOL0     C62426   7.912   8.868  11.655  0.6610  0.6700  0.9170
  463MOL0     C62427   8.027   8.794  11.675  0.7504 -0.2887 -0.0969
  463MOL0     O62428   8.053   8.755  11.803 -0.3673  0.0104 -0.2176
  463MOL0     C62429   8.178   8.690  11.830  0.4217  0.3351  0.5477
  463MOL0     C62430   8.165   8.549  11.783  1.6457  1.0194  0.1127
  463MOL0     C62431   8.061   8.468  11.870  0.2192  0.5464  0.2611
  463MOL0     C62432   8.085   8.456  12.020  0.3812 -0.1018  0.3369
  463MOL0     C62433   8.219   8.397  12.031 -0.6589 -0.1456 -0.5178
  463MOL0     C62434   8.316   8.333  12.055 -0.0207  0.1041  0.6901
  463MOL0     C62435   8.116   8.793  11.564 -0.3114 -0.0729  0.2138
  463MOL0     C62436   8.077   8.838  11.438  0.2822 -0.7006  1.1331
  463MOL0     C62437   8.178   8.813  11.333  0.4763 -0.6962  0.0778
  463MOL0     H62438   7.823   9.238  11.193 -0.3072 -0.7905  2.4205
  463MOL0     H62439   7.703   9.355  11.007 -0.2017 -0.8875 -3.3470
  463MOL0     H62440   7.530   9.427  10.868 -2.4321  3.1588 -2.4089
  463MOL0     H62441   7.639   9.357  10.750  0.4740  2.3632 -0.0577
  463MOL0     H62442   7.343   9.346  10.719 -1.3585  4.6109 -0.1135
  463MOL0     H62443   7.474   9.291  10.609 -2.6725 -2.5112  1.1795
  463MOL0     H62444   7.453   9.579  10.716 -3.3803 -0.7114 -0.4748
  463MOL0     H62445   7.359   9.527  10.578 -1.7334 -0.8161  1.9201
  463MOL0     H62446   7.671   9.493  10.575 -1.3006 -1.0723  0.1015
  463MOL0     H62447   7.576   9.458  10.448  1.9384  0.0527 -0.6108
  463MOL0     H62448   7.496   9.673  10.406 -1.2910 -1.8841  0.9996
  463MOL0     H62449   7.542   9.736  10.563  1.2353  1.3337 -0.5809
  463MOL0     H62450   7.789   9.689  10.519  0.7774 -1.4717 -0.5821
  463MOL0     H62451   7.746   9.626  10.358  1.6315  0.1134  1.5662
  463MOL0     H62452   7.760   9.918  10.474  1.5994  1.0344 -1.9464
  463MOL0     H62453   7.626   9.882  10.362  0.3231  0.5202 -0.6988
  463MOL0     H62454   7.801   9.808  10.202 -0.8455  0.4703 -0.0710
  463MOL0     H62455   7.789   9.979  10.252  1.5890  1.4435  2.6300
  463MOL0     H62456   8.015  10.099  10.309 -2.4388 -0.0221  1.5615
  463MOL0     H62457   8.282  10.087  10.421  0.2580  1.2421 -0.8153
  463MOL0     H62458   8.362   9.953  10.347 -0.2059 -0.4396 -0.1429
  463MOL0     H62459   8.296  10.039  10.125  1.9877 -2.2098  0.9732
  463MOL0     H62460   8.235  10.186  10.207 -1.7062 -0.7893  1.5663
  463MOL0     H62461   8.509  10.072  10.259 -1.8048 -1.1847 -0.0642
  463MOL0     H62462   8.447  10.231  10.310 -1.8344  0.8655 -1.0863
  463MOL0     H62463   8.414  10.264  10.054 -0.4727  1.8614  2.8927
  463MOL0     H62464   8.537  10.137  10.033 -0.4116  2.1605 -1.3134
  463MOL0     H62465   8.509  10.366   9.877  0.1500 -0.2766 -0.5485
  463MOL0     H62466   8.588  10.549   9.759 -1.8477  1.9658  2.0492
  463MOL0     H62467   8.593  10.999   9.644  0.9072  1.6780 -0.3471
  463MOL0     H62468   8.702  11.167   9.520 -0.4697  0.1524  0.8313
  463MOL0     H62469   9.120  11.132   9.495  0.6244 -1.9498 -0.4160
  463MOL0     H62470   9.114  11.066   9.330  1.2879  0.0498  1.6572
  463MOL0     H62471   9.071  11.293   9.241 -1.6068 -1.7393  0.4285
  463MOL0     H62472   9.090  11.343   9.409 -0.9294 -1.7008 -0.2972
  463MOL0     H62473   9.323  11.328   9.404  3.2288 -0.5687 -1.0638
  463MOL0     H62474   9.322  11.188   9.290 -0.7296  0.3505 -2.4419
  463MOL0     H62475   9.256  11.483   9.233 -0.2914 -0.3482  0.7565
  463MOL0     H62476   9.264  11.359   9.104  0.8543  0.1460 -0.5791
  463MOL0     H62477   9.500  11.331   9.149 -0.2243  0.8338 -0.3572
  463MOL0     H62478   9.492  11.439   9.296 -1.4390  2.2567  0.6591
  463MOL0     H62479   9.440  11.496   9.001  0.7184  1.2849 -1.2781
  463MOL0     H62480   9.440  11.614   9.144  1.4754 -0.9873  1.6200
  463MOL0     H62481   9.680  11.498   9.012 -1.2239 -1.3785  0.7659
  463MOL0     H62482   9.676  11.528   9.187  1.0915  0.6625  0.4127
  463MOL0     H62483   9.606  11.763   8.999 -1.9970  0.0271  1.2460
  463MOL0     H62484   9.667  11.749   9.175 -0.0686  1.0672 -1.1103
  463MOL0     H62485   9.045  10.896   9.472  1.4066 -2.0193  2.2731
  463MOL0     H62486   8.954  10.751   9.606  1.4147  0.6679  0.6610
  463MOL0     H62487   8.891  10.624  10.056 -0.2484 -1.2940  0.7634
  463MOL0     H62488   8.818  10.443  10.190 -2.4310  1.8947  1.7023
  463MOL0     H62489   7.548   8.982  10.882 -1.2026  1.1693 -1.3746
  463MOL0     H62490   7.634   8.862  11.082  1.7737  0.0191  1.8214
  463MOL0     H62491   7.775   8.957  11.527 -0.4732 -0.3089  4.4989
  463MOL0     H62492   7.845   8.893  11.736  0.1200  0.8148  0.4298
  463MOL0     H62493   8.197   8.684  11.937  2.6141 -2.2484  0.1190
  463MOL0     H62494   8.261   8.752  11.795  0.5468  1.0435  2.0052
  463MOL0     H62495   8.262   8.500  11.775 -0.0788 -2.9128  0.6740
  463MOL0     H62496   8.131   8.547  11.679  0.1596  0.8093  0.5777
  463MOL0     H62497   8.052   8.366  11.832 -0.6913  0.5462  0.4412
  463MOL0     H62498   7.965   8.513  11.841  0.0537  0.0598  0.0408
  463MOL0     H62499   8.080   8.552  12.072 -1.5964 -0.9003  1.7330
  463MOL0     H62500   8.012   8.394  12.073 -0.0311  3.0912  3.9103
  463MOL0     H62501   8.395   8.261  12.060 -0.1679 -0.4801 -2.9362
  463MOL0     H62502   8.193   8.717  11.576 -1.1497 -1.1832 -1.1169
  463MOL0     H62503   8.265   8.875  11.357  1.2864 -3.0719  4.2146
  463MOL0     H62504   8.211   8.709  11.341  0.5857 -0.9459 -2.5223
  463MOL0     H62505   8.135   8.811  11.232  0.8081 -0.0797 -0.0813
  464MOL0     O62506   4.243   9.522   9.662 -0.7724 -0.5481  0.1432
  464MOL0     C62507   4.270   9.534   9.543 -0.9403 -0.5065  0.1113
  464MOL0     O62508   4.257   9.450   9.446 -0.6684  0.2257 -0.3374
  464MOL0     C62509   4.182   9.343   9.487 -0.0475  0.0246  0.2171
  464MOL0     C62510   4.042   9.355   9.462  0.5583  0.0767  1.5810
  464MOL0     C62511   3.946   9.265   9.506 -0.3162  0.8800 -0.1392
  464MOL0     C62512   3.990   9.154   9.581 -0.2945 -0.0475  0.2701
  464MOL0     O62513   3.892   9.053   9.600 -0.0721 -0.6846  0.9485
  464MOL0     C62514   3.845   8.997   9.476 -0.2787 -0.5711  0.1066
  464MOL0     C62515   3.746   8.880   9.509 -0.5515 -1.0262  0.5987
  464MOL0     C62516   3.682   8.815   9.392  0.6731  0.6036 -0.5453
  464MOL0     C62517   3.741   8.664   9.376  1.2514  0.5266 -1.0219
  464MOL0     C62518   3.706   8.597   9.243 -0.7343  0.6516 -0.1285
  464MOL0     C62519   3.560   8.550   9.215  0.5937 -0.4560 -0.6284
  464MOL0     C62520   3.542   8.514   9.063 -0.5058 -0.8834 -0.2651
  464MOL0     C62521   3.394   8.462   9.048  0.1090 -0.3158  0.2365
  464MOL0     N62522   3.375   8.430   8.905  0.8231 -0.2175 -0.0603
  464MOL0     C62523   3.352   8.311   8.834  0.0722 -0.0964  0.4816
  464MOL0     C62524   3.341   8.348   8.709 -0.3523  0.7370  0.1141
  464MOL0     C62525   3.312   8.261   8.588  0.8794  0.1891 -0.5058
  464MOL0     C62526   3.421   8.156   8.561  0.1968 -0.6165 -0.4808
  464MOL0     C62527   3.396   8.069   8.441  0.2157 -0.7191  0.5268
  464MOL0     C62528   3.520   7.992   8.406  0.4324  0.2572  0.0118
  464MOL0     O62529   3.500   7.858   8.360 -0.3710 -0.2434 -0.6540
  464MOL0     C62530   3.447   7.822   8.239  0.7985 -0.0809  0.4718
  464MOL0     C62531   3.437   7.912   8.139 -0.2334 -0.5690 -0.3245
  464MOL0     C62532   3.374   7.881   8.013  0.4774  0.2278  0.1189
  464MOL0     C62533   3.317   7.758   7.986  0.3813  0.9382  0.1619
  464MOL0     C62534   3.240   7.733   7.866  1.0771  0.6418 -0.1089
  464MOL0     O62535   3.186   7.606   7.852  0.2857  0.5759 -0.3175
  464MOL0     C62536   3.098   7.576   7.761  1.0986 -0.7463  0.1077
  464MOL0     C62537   2.996   7.656   7.705 -0.9259 -0.1926  0.7184
  464MOL0     C62538   2.897   7.598   7.632  0.7937  0.1239 -0.2194
  464MOL0     C62539   2.904   7.470   7.587 -0.5567  0.5191 -0.2725
  464MOL0     O62540   2.836   7.413   7.488 -0.2169 -0.0990  0.6263
  464MOL0     C62541   2.687   7.409   7.505 -0.2410 -0.4675  1.5436
  464MOL0     C62542   2.627   7.292   7.429  0.2053 -1.0671 -0.6799
  464MOL0     C62543   2.666   7.155   7.490 -0.0565 -0.2366 -1.1077
  464MOL0     C62544   2.592   7.046   7.423 -0.4693 -0.2651 -0.1769
  464MOL0     C62545   2.680   6.935   7.350  0.2178 -0.2535 -0.2354
  464MOL0     C62546   2.584   6.840   7.268 -0.2185  0.1651 -0.9370
  464MOL0     C62547   2.674   6.746   7.189 -0.0098  0.1838  0.0542
  464MOL0     C62548   2.599   6.613   7.147  1.2995  0.1802 -0.0425
  464MOL0    Cl62549   2.537   6.527   7.287  0.0295  0.0626  0.9132
  464MOL0     C62550   2.995   7.383   7.644 -1.3398 -0.4914  0.5802
  464MOL0     C62551   3.097   7.441   7.728 -0.0175 -0.7994  0.5693
  464MOL0     O62552   3.247   7.811   7.769 -0.2518 -0.3347  0.7417
  464MOL0     C62553   3.346   7.657   8.088  0.2806  0.1662 -0.9002
  464MOL0     C62554   3.404   7.692   8.208 -0.2846 -0.1501 -0.4967
  464MOL0     N62555   3.337   8.484   8.698 -1.2609  0.5491 -0.1678
  464MOL0     N62556   3.375   8.533   8.813 -0.4090  0.2486  0.1336
  464MOL0     C62557   4.130   9.137   9.604  0.2136  0.1532 -0.9575
  464MOL0     C62558   4.226   9.232   9.562 -0.2054  0.0588  0.7351
  464MOL0     C62559   4.335   9.665   9.492 -0.1464  0.9204 -0.0543
  464MOL0     C62560   4.444   9.654   9.398  0.6925  0.2607  0.0489
  464MOL0     C62561   4.520   9.759   9.350  0.5682  0.5657 -0.4452
  464MOL0     C62562   4.476   9.888   9.392 -0.3923 -0.6680  0.0955
  464MOL0     O62563   4.547   9.998   9.365  0.0402 -0.1901 -0.0792
  464MOL0     C62564   4.677   9.984   9.432 -0.9170  0.9802 -0.3987
  464MOL0     C62565   4.737  10.115   9.470  0.4928 -0.6357  0.1770
  464MOL0     C62566   4.646  10.198   9.568  0.1188  0.4594 -0.2673
  464MOL0     C62567   4.585  10.140   9.699  0.2350 -0.6520 -0.1053
  464MOL0     C62568   4.689  10.147   9.809  0.2536  0.0941 -0.1688
  464MOL0     C62569   4.762  10.139   9.904 -0.2443 -0.9083  0.6440
  464MOL0     C62570   4.368   9.902   9.491 -0.3985  0.4987  0.2459
  464MOL0     C62571   4.301   9.790   9.540 -0.3124 -0.7711 -0.5827
  464MOL0     C62572   4.192   9.830   9.640 -0.4323 -0.2043 -0.1013
  464MOL0     H62573   3.998   9.433   9.401 -3.9087 -2.1797  1.5278
  464MOL0     H62574   3.838   9.268   9.493 -0.2528  2.3507 -0.4890
  464MOL0     H62575   3.783   9.067   9.418 -2.1564 -2.0746  0.1899
  464MOL0     H62576   3.930   8.962   9.417  0.7696  1.2076  0.4964
  464MOL0     H62577   3.681   8.916   9.589  1.3933  3.5199  0.4688
  464MOL0     H62578   3.800   8.804   9.566 -1.0522  1.1679  4.2719
  464MOL0     H62579   3.683   8.881   9.304 -1.2691  2.2396  0.5701
  464MOL0     H62580   3.579   8.797   9.423  1.4581 -1.9025  0.8269
  464MOL0     H62581   3.850   8.676   9.373  1.3610 -0.4485 -1.1223
  464MOL0     H62582   3.711   8.609   9.465  0.0678  1.7080 -0.6517
  464MOL0     H62583   3.726   8.673   9.167  1.7176  0.9647  0.7131
  464MOL0     H62584   3.772   8.514   9.217  1.4400  2.9371 -2.5553
  464MOL0     H62585   3.521   8.469   9.278 -0.7884  0.0463 -0.8052
  464MOL0     H62586   3.491   8.632   9.239 -3.3600 -2.3398 -4.2276
  464MOL0     H62587   3.611   8.435   9.033 -1.0674 -1.7325  0.6433
  464MOL0     H62588   3.569   8.604   9.007 -1.1039  0.7344  1.9124
  464MOL0     H62589   3.368   8.370   9.101 -0.8892 -0.8651 -1.1496
  464MOL0     H62590   3.330   8.548   9.073 -0.6825 -1.0120  0.6344
  464MOL0     H62591   3.352   8.210   8.875 -0.7313 -0.2418  0.1275
  464MOL0     H62592   3.217   8.211   8.611  2.4014 -1.1484  3.9227
  464MOL0     H62593   3.290   8.328   8.504 -1.7535  0.5002  0.3329
  464MOL0     H62594   3.508   8.220   8.548  0.5781 -1.0197  0.0547
  464MOL0     H62595   3.430   8.102   8.655 -0.0548  1.0254  0.5194
  464MOL0     H62596   3.360   8.127   8.355  2.5269 -0.2381 -0.1783
  464MOL0     H62597   3.326   7.992   8.475 -0.9516  0.6140  1.2755
  464MOL0     H62598   3.575   7.983   8.500 -0.7284  0.4482  0.7222
  464MOL0     H62599   3.586   8.044   8.336 -3.0739  2.9252 -1.6601
  464MOL0     H62600   3.477   8.012   8.148 -2.6399  0.3208  1.4261
  464MOL0     H62601   3.358   7.965   7.946 -1.5755 -0.0197  0.2303
  464MOL0     H62602   3.001   7.765   7.710  1.9075 -0.2547  0.6979
  464MOL0     H62603   2.815   7.655   7.590  1.8902  2.7351  0.9220
  464MOL0     H62604   2.660   7.405   7.610  1.3227 -4.1090  1.9377
  464MOL0     H62605   2.659   7.502   7.453 -0.6506  0.2511  2.9890
  464MOL0     H62606   2.518   7.306   7.425  0.3024 -0.1440 -0.3133
  464MOL0     H62607   2.659   7.297   7.324 -2.8085 -0.6979 -1.7090
  464MOL0     H62608   2.771   7.146   7.460 -0.1412  1.7050 -2.1880
  464MOL0     H62609   2.651   7.146   7.598 -0.0175 -0.1636 -1.0962
  464MOL0     H62610   2.518   7.092   7.357  1.2266 -1.1726 -2.8706
  464MOL0     H62611   2.530   6.980   7.485 -2.1703 -0.8997 -2.4170
  464MOL0     H62612   2.740   6.872   7.416  0.5157  1.1286  0.8566
  464MOL0     H62613   2.746   6.982   7.277  1.1913 -3.0386 -1.2830
  464MOL0     H62614   2.524   6.785   7.341 -0.1609  1.6979  0.3280
  464MOL0     H62615   2.527   6.898   7.195  3.1616  1.0453 -3.1325
  464MOL0     H62616   2.760   6.707   7.245 -0.4877 -2.8645 -1.1238
  464MOL0     H62617   2.711   6.801   7.102 -0.7854 -0.5438 -0.7468
  464MOL0     H62618   2.511   6.640   7.087  0.2087 -1.7317  0.6112
  464MOL0     H62619   2.671   6.560   7.083  0.6416  0.3401 -0.9375
  464MOL0     H62620   3.003   7.275   7.632  0.0627 -0.3186 -0.2003
  464MOL0     H62621   3.164   7.375   7.781 -0.6621 -0.8639  1.3060
  464MOL0     H62622   3.318   7.554   8.068  1.9562 -1.5059  3.9829
  464MOL0     H62623   3.407   7.621   8.291 -1.7808  0.4397  0.0997
  464MOL0     H62624   4.150   9.054   9.670  1.3053  2.7236  2.2286
  464MOL0     H62625   4.328   9.216   9.594  0.2021 -0.1136 -0.5739
  464MOL0     H62626   4.476   9.555   9.367 -1.3313 -0.5139  0.2727
  464MOL0     H62627   4.610   9.745   9.291  1.1689 -3.1863  1.1137
  464MOL0     H62628   4.749   9.938   9.364  2.8619  0.0253  3.6985
  464MOL0     H62629   4.670   9.918   9.519  1.6606  1.6911  0.4584
  464MOL0     H62630   4.761  10.176   9.382 -1.2204  2.0937  1.4395
  464MOL0     H62631   4.835  10.101   9.515  1.3156  1.5485 -0.7905
  464MOL0     H62632   4.562  10.221   9.502  0.5596  1.5503 -0.4847
  464MOL0     H62633   4.702  10.290   9.591  1.4367  0.2621 -2.4211
  464MOL0     H62634   4.486  10.181   9.719 -0.6783 -2.4435 -0.7489
  464MOL0     H62635   4.550  10.037   9.693 -2.3224  0.1278  0.1752
  464MOL0     H62636   4.837  10.130   9.981 -0.3569 -0.0357  0.8700
  464MOL0     H62637   4.340   9.999   9.530 -5.0625 -0.0305 -1.1898
  464MOL0     H62638   4.227   9.798   9.739  0.6502 -0.0247 -0.4082
  464MOL0     H62639   4.181   9.938   9.653 -2.0683 -0.5835  2.4028
  464MOL0     H62640   4.099   9.776   9.622  0.6183 -2.7486  1.4970
  465MOL0     O62641   3.408   2.657   3.363 -0.0170  0.3142 -0.8167
  465MOL0     C62642   3.510   2.721   3.341 -0.7519 -0.4482  0.4003
  465MOL0     O62643   3.628   2.657   3.297 -0.2604 -0.0179  0.1122
  465MOL0     C62644   3.623   2.523   3.288  0.2422  0.4858 -0.5183
  465MOL0     C62645   3.673   2.431   3.384  0.5462 -0.3990 -0.5350
  465MOL0     C62646   3.651   2.294   3.381  0.3381  0.4063  0.5943
  465MOL0     C62647   3.599   2.239   3.258 -1.0824 -0.1432 -1.0656
  465MOL0     O62648   3.591   2.098   3.251  0.0018  0.2367  0.4123
  465MOL0     C62649   3.676   2.043   3.149  0.1042 -0.0643 -0.7782
  465MOL0     C62650   3.622   1.913   3.094 -0.3691 -0.6630  0.1721
  465MOL0     C62651   3.483   1.930   3.033 -1.0372  0.5801 -0.3718
  465MOL0     C62652   3.411   1.795   3.012 -0.4364 -0.7782 -1.0439
  465MOL0     C62653   3.270   1.821   2.939  0.3818 -1.2028 -0.0581
  465MOL0     C62654   3.191   1.689   2.902 -0.0679 -0.1379  0.2012
  465MOL0     C62655   3.264   1.593   2.810  0.4905 -0.3882  0.1631
  465MOL0     C62656   3.268   1.653   2.673  0.3301  0.4436  0.4860
  465MOL0     N62657   3.280   1.556   2.571 -1.1593  0.3615 -0.5733
  465MOL0     C62658   3.377   1.453   2.560  0.3173  0.3461 -0.3442
  465MOL0     C62659   3.361   1.391   2.440 -0.6315  0.6789 -0.6494
  465MOL0     C62660   3.452   1.285   2.401 -0.2611 -0.0250  1.0058
  465MOL0     C62661   3.384   1.143   2.392 -0.5320  0.3894  0.0404
  465MOL0     C62662   3.316   1.101   2.522 -0.3030 -0.0736 -0.3650
  465MOL0     C62663   3.255   0.968   2.518  0.5176 -0.4050 -0.8995
  465MOL0     O62664   3.343   0.858   2.509  0.3515  0.5408  0.0338
  465MOL0     C62665   3.447   0.838   2.597 -0.0491 -0.2611  0.8901
  465MOL0     C62666   3.437   0.799   2.728  0.3819  0.0987  0.5588
  465MOL0     C62667   3.541   0.784   2.814  0.1060 -0.2061  0.8900
  465MOL0     C62668   3.669   0.818   2.774  0.0983 -0.0611  0.0788
  465MOL0     C62669   3.783   0.792   2.858  0.6041  0.8424  0.3927
  465MOL0     O62670   3.901   0.855   2.827 -0.5656 -0.0442  0.3249
  465MOL0     C62671   4.018   0.809   2.882  1.3418  1.2173 -0.4269
  465MOL0     C62672   4.117   0.745   2.806 -0.2614 -0.3215  0.2350
  465MOL0     C62673   4.230   0.703   2.867 -0.2315 -0.8929 -0.2257
  465MOL0     C62674   4.265   0.739   2.997  0.4567  0.5881 -0.2223
  465MOL0     O62675   4.374   0.712   3.058  0.0822  0.0123 -0.0404
  465MOL0     C62676   4.482   0.638   2.996 -0.1929  0.2805 -0.3808
  465MOL0     C62677   4.609   0.618   3.092 -0.0487 -0.4137  0.8926
  465MOL0     C62678   4.666   0.735   3.160 -0.1035 -0.1774 -0.7721
  465MOL0     C62679   4.710   0.856   3.066 -0.1814  0.6220 -0.1624
  465MOL0     C62680   4.813   0.820   2.957 -0.0960 -0.3437 -0.2448
  465MOL0     C62681   4.824   0.949   2.870 -0.6040  1.2680 -0.4696
  465MOL0     C62682   4.946   0.930   2.777  0.9551 -1.0023  0.3771
  465MOL0     C62683   4.970   1.072   2.713  0.6098 -0.8345 -0.3508
  465MOL0    Cl62684   4.806   1.093   2.628 -0.0837  0.2327 -0.3875
  465MOL0     C62685   4.164   0.817   3.067  0.0955 -0.5387  0.3538
  465MOL0     C62686   4.036   0.851   3.017 -0.6516  0.6906 -0.4507
  465MOL0     O62687   3.769   0.711   2.952 -0.8212 -0.5670  0.3053
  465MOL0     C62688   3.688   0.864   2.637  0.8368 -0.1350  0.1460
  465MOL0     C62689   3.577   0.876   2.558  0.2493  0.1329 -0.1459
  465MOL0     N62690   3.271   1.457   2.376 -0.0126  0.8965  0.4262
  465MOL0     N62691   3.224   1.550   2.448  1.0040 -0.2970  0.7136
  465MOL0     C62692   3.556   2.324   3.155  0.0656 -0.1534  0.5236
  465MOL0     C62693   3.566   2.466   3.171  0.7926  0.4643 -0.1016
  465MOL0     C62694   3.506   2.868   3.329  0.5097  0.4731 -0.0186
  465MOL0     C62695   3.582   2.926   3.227  0.4845  0.2210  1.4774
  465MOL0     C62696   3.577   3.065   3.207  0.5311  0.0909  0.2889
  465MOL0     C62697   3.486   3.143   3.280 -0.6620 -0.6804  0.3678
  465MOL0     O62698   3.469   3.284   3.262  0.0145 -0.1899 -0.3143
  465MOL0     C62699   3.484   3.346   3.141  0.5164 -0.0746  0.2676
  465MOL0     C62700   3.402   3.475   3.161  0.0869  0.2297  0.3837
  465MOL0     C62701   3.253   3.440   3.192  0.4329 -0.3598  0.4229
  465MOL0     C62702   3.179   3.554   3.126 -0.0204  0.0837 -1.7677
  465MOL0     C62703   3.035   3.546   3.133  1.3425 -0.3610 -1.7516
  465MOL0     C62704   2.908   3.554   3.137 -0.4772  0.1495 -0.8029
  465MOL0     C62705   3.418   3.082   3.387  0.7712 -1.0378 -0.4839
  465MOL0     C62706   3.426   2.942   3.419  0.2676 -0.2387  0.5591
  465MOL0     C62707   3.350   2.875   3.532  0.0910 -0.9278  0.0441
  465MOL0     H62708   3.719   2.477   3.471  2.7875 -0.5142 -1.5993
  465MOL0     H62709   3.672   2.224   3.461  0.0241  0.3467  0.6282
  465MOL0     H62710   3.705   2.114   3.071  1.5524  0.3436  0.0800
  465MOL0     H62711   3.764   2.007   3.204  0.6236  0.8072 -1.0247
  465MOL0     H62712   3.615   1.844   3.179  2.4599  0.3392  1.3360
  465MOL0     H62713   3.689   1.867   3.021 -1.5440 -1.3058 -0.5408
  465MOL0     H62714   3.489   1.976   2.934 -1.8979  2.2458  0.3054
  465MOL0     H62715   3.420   1.984   3.105 -1.2252 -2.1293  1.6828
  465MOL0     H62716   3.475   1.733   2.948 -1.0580 -0.4989 -1.9469
  465MOL0     H62717   3.392   1.752   3.110 -2.4085  1.3366 -0.4305
  465MOL0     H62718   3.212   1.887   3.003  1.2603 -0.0096 -0.4429
  465MOL0     H62719   3.290   1.883   2.851  2.5276  0.9674  1.8050
  465MOL0     H62720   3.163   1.637   2.994  0.2524 -3.7423 -1.5510
  465MOL0     H62721   3.100   1.716   2.847  1.5728 -1.3278 -3.3894
  465MOL0     H62722   3.233   1.488   2.807  1.2052 -0.5858 -1.2145
  465MOL0     H62723   3.366   1.577   2.845 -0.1758 -2.4889  1.3351
  465MOL0     H62724   3.189   1.723   2.644  3.4553  3.4192 -1.8107
  465MOL0     H62725   3.351   1.725   2.666 -0.6701  1.7991  1.7722
  465MOL0     H62726   3.453   1.441   2.637 -1.4088 -1.8279  1.1230
  465MOL0     H62727   3.491   1.302   2.301  0.3724  1.4833  1.4834
  465MOL0     H62728   3.544   1.294   2.460  0.8137  0.5348 -0.7066
  465MOL0     H62729   3.301   1.134   2.322 -2.5563 -0.1367  2.3563
  465MOL0     H62730   3.456   1.064   2.370  0.1829  0.4111  2.0829
  465MOL0     H62731   3.242   1.171   2.560 -1.3212 -1.2510 -0.1359
  465MOL0     H62732   3.400   1.094   2.592  0.6005  2.1116 -1.1483
  465MOL0     H62733   3.187   0.956   2.434  1.4192  1.0754 -1.8805
  465MOL0     H62734   3.203   0.951   2.613 -0.6387 -4.0933 -2.0233
  465MOL0     H62735   3.338   0.775   2.767 -0.1941  1.4325 -0.0237
  465MOL0     H62736   3.529   0.752   2.917 -0.3277  2.6206  1.7956
  465MOL0     H62737   4.106   0.718   2.702 -3.1302  3.1653 -0.5979
  465MOL0     H62738   4.296   0.651   2.798  0.3965 -0.4212  0.0148
  465MOL0     H62739   4.450   0.537   2.970 -2.6760 -0.1022  3.3194
  465MOL0     H62740   4.509   0.697   2.908 -0.9764  1.3963  0.1041
  465MOL0     H62741   4.593   0.541   3.168 -1.3812 -0.3728  0.6880
  465MOL0     H62742   4.681   0.570   3.025  0.8394  0.2624  1.3445
  465MOL0     H62743   4.580   0.757   3.224 -1.6242 -0.6178 -2.5730
  465MOL0     H62744   4.757   0.707   3.214 -0.1510  0.9105 -0.0917
  465MOL0     H62745   4.756   0.932   3.130  2.5994 -1.5572  0.6238
  465MOL0     H62746   4.622   0.910   3.029 -0.3634  0.4864  0.0700
  465MOL0     H62747   4.783   0.731   2.902  0.3067 -1.4420  1.2480
  465MOL0     H62748   4.903   0.788   3.009 -0.7532 -2.9092 -0.5759
  465MOL0     H62749   4.734   0.957   2.809  0.2788  2.0309 -1.7229
  465MOL0     H62750   4.839   1.035   2.936 -0.1852  1.7001 -1.1086
  465MOL0     H62751   4.919   0.847   2.712 -1.9147 -0.0755  0.2210
  465MOL0     H62752   5.030   0.896   2.838  1.1681 -3.7970 -1.2986
  465MOL0     H62753   4.983   1.151   2.787  0.8743  1.5651 -2.7979
  465MOL0     H62754   5.062   1.079   2.654  0.3841  0.7190 -0.5503
  465MOL0     H62755   4.176   0.843   3.171 -0.6289 -1.7702  0.7659
  465MOL0     H62756   3.970   0.913   3.077  0.7243  2.5693 -0.7773
  465MOL0     H62757   3.788   0.901   2.618  2.0321 -0.8673  4.0224
  465MOL0     H62758   3.596   0.914   2.458 -1.5728 -2.1184 -1.4754
  465MOL0     H62759   3.519   2.285   3.061 -1.1780  3.2518 -0.5573
  465MOL0     H62760   3.533   2.531   3.090  0.0841 -1.3852 -1.3583
  465MOL0     H62761   3.645   2.863   3.166  3.8535  1.9853  2.8759
  465MOL0     H62762   3.649   3.109   3.139 -0.7320 -0.4058 -1.4297
  465MOL0     H62763   3.447   3.292   3.053  0.0866 -1.4283  1.2473
  465MOL0     H62764   3.590   3.370   3.134  0.4327  0.0336 -0.7740
  465MOL0     H62765   3.417   3.538   3.073 -0.0128 -1.8868 -1.2302
  465MOL0     H62766   3.439   3.534   3.246 -1.4698  0.0810  1.2069
  465MOL0     H62767   3.210   3.421   3.291  2.0972  0.0682  1.2692
  465MOL0     H62768   3.236   3.345   3.141 -1.0463 -0.2546  0.6861
  465MOL0     H62769   3.202   3.653   3.168 -2.0561  2.4784 -5.6422
  465MOL0     H62770   3.189   3.545   3.017  0.4425 -3.9158 -1.5183
  465MOL0     H62771   2.802   3.539   3.135 -0.4325 -0.1517 -0.9813
  465MOL0     H62772   3.359   3.146   3.451  0.1680 -1.2204 -0.8451
  465MOL0     H62773   3.412   2.789   3.561  2.6011  0.5486 -0.6404
  465MOL0     H62774   3.349   2.943   3.618 -3.5408  0.7024 -1.0960
  465MOL0     H62775   3.247   2.842   3.515 -0.6110  0.9629  0.4222
  466MOL0     O62776   1.570   7.871  11.008 -0.0023 -0.2706  0.5077
  466MOL0     C62777   1.536   7.868  10.890  0.2562  0.9093 -0.4658
  466MOL0     O62778   1.606   7.913  10.788  0.5449 -0.5416 -0.3097
  466MOL0     C62779   1.735   7.968  10.814  0.8310  0.0669 -0.3393
  466MOL0     C62780   1.832   7.919  10.907  0.6131 -0.6550  0.2071
  466MOL0     C62781   1.936   8.007  10.942  0.3891  1.3342  0.3155
  466MOL0     C62782   1.961   8.128  10.876 -0.1264 -0.0184 -0.3513
  466MOL0     O62783   2.067   8.208  10.920  0.2680 -0.0862  0.1137
  466MOL0     C62784   2.192   8.144  10.891  0.2268 -0.5809  0.1843
  466MOL0     C62785   2.298   8.249  10.889 -0.2700 -0.1570 -0.4498
  466MOL0     C62786   2.439   8.172  10.882  0.8786 -0.5156  0.3621
  466MOL0     C62787   2.523   8.172  11.009  0.2612 -0.5224  0.1074
  466MOL0     C62788   2.627   8.064  11.003 -0.1332 -0.3136  0.7039
  466MOL0     C62789   2.745   8.089  10.895 -0.0457 -0.0357  0.1110
  466MOL0     C62790   2.857   7.990  10.934  0.5689  1.0575  0.5703
  466MOL0     C62791   2.975   7.988  10.847 -1.0029 -0.1916 -0.5112
  466MOL0     N62792   3.088   7.910  10.900 -0.0524  0.2108  0.6910
  466MOL0     C62793   3.096   7.772  10.914 -0.2498  0.7517  0.5782
  466MOL0     C62794   3.216   7.737  10.956  0.3222 -0.6305  0.0192
  466MOL0     C62795   3.263   7.598  11.008 -0.0240  0.5520 -0.0179
  466MOL0     C62796   3.220   7.574  11.155 -0.3635  0.0482 -0.0218
  466MOL0     C62797   3.105   7.474  11.181  0.8952  0.2729 -0.5328
  466MOL0     C62798   2.976   7.498  11.096  0.0375  0.8500 -0.8198
  466MOL0     O62799   2.918   7.632  11.135 -0.6123  0.4371  0.6708
  466MOL0     C62800   2.792   7.658  11.128  0.5166  0.2918  0.3583
  466MOL0     C62801   2.723   7.752  11.204 -0.2436  0.5372 -0.2911
  466MOL0     C62802   2.588   7.773  11.190  0.0854  0.1011  0.3214
  466MOL0     C62803   2.510   7.698  11.094  0.9006 -0.0911 -0.0760
  466MOL0     C62804   2.363   7.698  11.090 -0.3067 -0.1421  0.8129
  466MOL0     O62805   2.312   7.636  10.984 -0.2344  1.6996 -0.1335
  466MOL0     C62806   2.171   7.617  10.967  0.1825  0.2414 -0.3847
  466MOL0     C62807   2.095   7.548  11.063 -0.6166 -0.5568 -0.1342
  466MOL0     C62808   1.959   7.511  11.036  0.0003 -1.1766 -0.6230
  466MOL0     C62809   1.905   7.532  10.910  0.3550 -0.0303  0.1445
  466MOL0     O62810   1.778   7.493  10.877 -0.1373  0.1364  0.1151
  466MOL0     C62811   1.678   7.543  10.972  0.6713 -0.3774  0.5526
  466MOL0     C62812   1.605   7.427  11.032 -0.1681 -0.6598 -0.7106
  466MOL0     C62813   1.519   7.458  11.161 -0.8769 -0.1043 -0.0983
  466MOL0     C62814   1.404   7.552  11.134 -0.6610 -0.1784 -0.4616
  466MOL0     C62815   1.325   7.585  11.261 -0.3692  0.1614  0.5576
  466MOL0     C62816   1.401   7.672  11.371  1.2179 -0.2039 -0.2205
  466MOL0     C62817   1.452   7.590  11.482 -0.0822 -0.0351 -0.1808
  466MOL0     C62818   1.486   7.675  11.609  1.1915 -0.3746  0.0733
  466MOL0    Cl62819   1.545   7.552  11.720 -0.0728  0.3375  0.0852
  466MOL0     C62820   1.986   7.601  10.817  0.3000  0.3981 -0.1888
  466MOL0     C62821   2.119   7.640  10.846 -0.3133 -1.1170  1.0089
  466MOL0     O62822   2.304   7.774  11.168  0.3898  0.2323 -0.1369
  466MOL0     C62823   2.580   7.613  11.013  0.2424  0.5320 -0.3899
  466MOL0     C62824   2.715   7.589  11.034 -0.1258 -0.1722 -0.0901
  466MOL0     N62825   3.290   7.849  10.965 -0.3761  0.5664  0.1752
  466MOL0     N62826   3.211   7.954  10.943 -0.3103 -0.3302  0.9075
  466MOL0     C62827   1.863   8.172  10.783 -0.4201 -0.1383 -0.1135
  466MOL0     C62828   1.752   8.100  10.750  0.4716 -0.1417  0.3511
  466MOL0     C62829   1.401   7.809  10.867  0.6622  0.3976  0.5877
  466MOL0     C62830   1.394   7.706  10.774  0.0087 -0.8587 -0.4240
  466MOL0     C62831   1.257   7.652  10.740 -0.9006 -0.2371 -0.1560
  466MOL0     C62832   1.141   7.705  10.805 -0.9753 -0.1202 -0.0157
  466MOL0     O62833   1.022   7.651  10.764 -0.2027  1.0922 -0.4669
  466MOL0     C62834   0.905   7.735  10.784 -0.9566  0.1446 -0.3019
  466MOL0     C62835   0.804   7.705  10.692 -0.4308 -1.5093  0.6866
  466MOL0     C62836   0.834   7.755  10.547 -0.9267  0.1741  0.7742
  466MOL0     C62837   0.704   7.780  10.455  0.0315  0.7082 -0.1391
  466MOL0     C62838   0.646   7.646  10.430 -0.0923  0.1911  0.5490
  466MOL0     C62839   0.592   7.539  10.411  0.6860 -0.2047 -0.9425
  466MOL0     C62840   1.158   7.803  10.900 -0.4235  0.2031 -0.4848
  466MOL0     C62841   1.283   7.861  10.933  0.2452  0.1149  0.0413
  466MOL0     C62842   1.284   7.958  11.054  0.8638  0.0041  0.7499
  466MOL0     H62843   1.823   7.822  10.955  3.3413 -1.4770 -0.7467
  466MOL0     H62844   2.012   7.986  11.017 -0.3185  2.8411  1.5069
  466MOL0     H62845   2.214   8.081  10.978  1.6709 -2.5624 -1.5191
  466MOL0     H62846   2.178   8.089  10.798  0.2907  1.4894 -1.1165
  466MOL0     H62847   2.282   8.308  10.980 -3.7684 -0.7749 -0.4908
  466MOL0     H62848   2.276   8.307  10.799  3.5177 -2.3088 -3.0200
  466MOL0     H62849   2.489   8.216  10.795  0.8292 -1.1929 -0.0097
  466MOL0     H62850   2.419   8.069  10.851  0.0691 -0.1268 -0.4872
  466MOL0     H62851   2.559   8.273  11.031 -2.5426  1.1455 -2.1878
  466MOL0     H62852   2.448   8.149  11.085 -1.2873 -3.4051 -2.0971
  466MOL0     H62853   2.686   8.082  11.094  1.1451 -1.0125  0.0431
  466MOL0     H62854   2.589   7.964  10.978 -0.6922  0.0787 -0.0299
  466MOL0     H62855   2.719   8.076  10.789  2.1517 -0.8849 -0.3764
  466MOL0     H62856   2.781   8.192  10.902 -1.0880  0.2564  1.6762
  466MOL0     H62857   2.825   7.887  10.916  3.1129 -0.0051  1.6752
  466MOL0     H62858   2.893   8.009  11.035  2.5313  3.1575 -0.4303
  466MOL0     H62859   2.945   7.939  10.754  0.5051 -0.9055 -0.6474
  466MOL0     H62860   3.009   8.088  10.820 -0.3074 -0.6570 -1.4430
  466MOL0     H62861   3.010   7.712  10.885 -0.1458  1.8035 -2.3246
  466MOL0     H62862   3.219   7.518  10.947  0.0789  1.1074 -0.8368
  466MOL0     H62863   3.370   7.587  10.992 -0.1342 -2.9192  0.7802
  466MOL0     H62864   3.310   7.541  11.208 -0.2590 -0.8875 -0.7611
  466MOL0     H62865   3.186   7.658  11.215 -1.8450  0.0587 -0.8314
  466MOL0     H62866   3.075   7.481  11.286  0.7547 -1.7888 -0.4053
  466MOL0     H62867   3.148   7.374  11.174  0.0283 -0.3015  1.4632
  466MOL0     H62868   2.902   7.420  11.115  1.7631 -0.7641 -0.4575
  466MOL0     H62869   3.000   7.486  10.990 -0.3793 -0.1374 -0.8034
  466MOL0     H62870   2.777   7.810  11.278  2.6259 -0.0206 -1.8135
  466MOL0     H62871   2.540   7.841  11.259  0.1008 -2.3371  2.8916
  466MOL0     H62872   2.144   7.520  11.156  0.2699 -4.4737 -1.5828
  466MOL0     H62873   1.901   7.460  11.112  1.5144 -0.9804  0.6990
  466MOL0     H62874   1.719   7.616  11.043  1.4172  0.7176 -0.9327
  466MOL0     H62875   1.612   7.601  10.907 -0.0436 -0.1569  1.4657
  466MOL0     H62876   1.547   7.374  10.956  0.9232 -0.0035 -2.0594
  466MOL0     H62877   1.684   7.354  11.054  1.4814  2.2536  4.5864
  466MOL0     H62878   1.473   7.362  11.187  0.6527 -1.5183 -2.2316
  466MOL0     H62879   1.581   7.494  11.244 -0.6147 -0.0724 -0.3059
  466MOL0     H62880   1.337   7.514  11.057  0.8911 -3.8614 -0.1819
  466MOL0     H62881   1.447   7.647  11.101 -0.4371 -0.8552 -2.2025
  466MOL0     H62882   1.291   7.490  11.304  2.2332 -1.5842 -0.9094
  466MOL0     H62883   1.241   7.650  11.236 -0.6055  0.7492  2.6968
  466MOL0     H62884   1.482   7.730  11.326  0.8638 -0.2058 -0.8697
  466MOL0     H62885   1.333   7.747  11.412  1.1554  0.4518 -1.4639
  466MOL0     H62886   1.546   7.541  11.455  1.4742  2.7329 -0.1132
  466MOL0     H62887   1.380   7.514  11.515 -1.3594  1.4275  0.4806
  466MOL0     H62888   1.570   7.742  11.590  0.7876  0.0040 -0.4228
  466MOL0     H62889   1.406   7.742  11.643  2.8295  1.7508 -0.0205
  466MOL0     H62890   1.944   7.627  10.720  2.4375  1.9396 -0.7845
  466MOL0     H62891   2.178   7.703  10.781 -1.9461 -1.2154 -0.6429
  466MOL0     H62892   2.527   7.558  10.936  0.8085 -0.5773 -0.0053
  466MOL0     H62893   2.766   7.526  10.961  4.8344  1.3183  1.6304
  466MOL0     H62894   1.879   8.274  10.749 -0.9596  0.5525  1.6221
  466MOL0     H62895   1.686   8.148  10.678 -1.3224  2.1079  3.2779
  466MOL0     H62896   1.480   7.663  10.722 -0.9158 -0.1560 -2.6333
  466MOL0     H62897   1.253   7.567  10.673  0.9080 -0.9676  0.5774
  466MOL0     H62898   0.933   7.841  10.773  1.2988 -0.2282  1.2130
  466MOL0     H62899   0.871   7.740  10.888 -0.7404  2.0395 -0.2821
  466MOL0     H62900   0.709   7.752  10.721 -0.5989 -2.7769  2.3342
  466MOL0     H62901   0.781   7.598  10.691 -0.4014 -1.5344 -0.8302
  466MOL0     H62902   0.896   7.679  10.499  1.6881 -1.4776  5.9959
  466MOL0     H62903   0.888   7.849  10.561  0.3873 -0.5512  0.6790
  466MOL0     H62904   0.626   7.837  10.506  1.0625 -0.7135  3.3917
  466MOL0     H62905   0.732   7.832  10.363 -1.2736 -0.3344 -1.1654
  466MOL0     H62906   0.557   7.438  10.400  4.0262 -1.4506 -1.2692
  466MOL0     H62907   1.080   7.847  10.961  1.8369  3.4489  0.3301
  466MOL0     H62908   1.380   8.001  11.081  0.4941  1.9798 -0.8690
  466MOL0     H62909   1.210   8.034  11.029  0.3250 -0.7305  0.0193
  466MOL0     H62910   1.254   7.893  11.137  1.7934 -1.1347  0.2251
  467MOL0     O62911   8.718   0.619   5.395 -0.2381  0.5745  0.1536
  467MOL0     C62912   8.630   0.689   5.351  0.3162  0.6995  0.5366
  467MOL0     O62913   8.494   0.646   5.329 -0.3871 -0.4393 -1.2039
  467MOL0     C62914   8.465   0.521   5.381  1.1426  0.0606  0.4802
  467MOL0     C62915   8.356   0.503   5.477  0.1719  0.7607  1.5412
  467MOL0     C62916   8.312   0.379   5.523  0.0144 -0.8083 -0.1869
  467MOL0     C62917   8.388   0.264   5.487  0.3553 -0.7157 -0.1435
  467MOL0     O62918   8.362   0.139   5.547 -0.0123  0.0176  0.3883
  467MOL0     C62919   8.304   0.132   5.678 -0.0749  0.2343 -0.0598
  467MOL0     C62920   8.284  -0.017   5.710  0.1570  0.7283 -0.0547
  467MOL0     C62921   8.407  -0.092   5.731  0.5007  0.3758 -0.2150
  467MOL0     C62922   8.402  -0.239   5.728 -0.4856 -0.0698 -0.2083
  467MOL0     C62923   8.280  -0.315   5.779  0.6622  0.2643 -0.1836
  467MOL0     C62924   8.299  -0.473   5.742 -0.1162  0.4546 -0.0103
  467MOL0     C62925   8.295  -0.512   5.595 -0.0795  0.3491  0.3158
  467MOL0     C62926   8.165  -0.586   5.548 -0.5847  0.0998  0.3006
  467MOL0     N62927   8.154  -0.730   5.582 -0.3375  0.5800 -0.3706
  467MOL0     C62928   8.252  -0.825   5.574  0.1951 -0.2473  0.3867
  467MOL0     C62929   8.204  -0.936   5.638  0.5774 -0.0622  0.2287
  467MOL0     C62930   8.274  -1.071   5.636  0.5001  0.3757  0.2021
  467MOL0     C62931   8.176  -1.180   5.694  0.8358 -0.6953 -0.2104
  467MOL0     C62932   8.229  -1.321   5.679  0.7561  0.9108 -0.2235
  467MOL0     C62933   8.352  -1.366   5.755 -0.1730 -0.2733  0.0716
  467MOL0     O62934   8.320  -1.336   5.894  0.2538 -0.0108 -0.5234
  467MOL0     C62935   8.339  -1.440   5.974 -0.0267  0.0375 -0.0676
  467MOL0     C62936   8.457  -1.508   6.003  0.9615  0.0211 -0.3273
  467MOL0     C62937   8.459  -1.629   6.080 -0.2145 -1.1332 -0.2832
  467MOL0     C62938   8.342  -1.686   6.126 -0.1006 -0.1245 -0.0097
  467MOL0     C62939   8.339  -1.808   6.211 -0.1938 -0.3443 -0.0752
  467MOL0     O62940   8.259  -1.913   6.162 -0.7395  0.5891  0.3230
  467MOL0     C62941   8.321  -2.042   6.172  1.1222 -0.6095  0.3957
  467MOL0     C62942   8.354  -2.100   6.294 -0.4495  0.8550  0.2929
  467MOL0     C62943   8.429  -2.217   6.298  0.0115  0.4962 -0.4402
  467MOL0     C62944   8.463  -2.293   6.187 -0.9629 -0.7956  0.0366
  467MOL0     O62945   8.547  -2.402   6.182 -0.0466  0.2873 -0.2494
  467MOL0     C62946   8.609  -2.439   6.061  0.2163  0.4375  0.3872
  467MOL0     C62947   8.681  -2.586   6.091 -0.0251  0.0370 -0.2123
  467MOL0     C62948   8.757  -2.656   5.972 -0.0719  0.2818  0.5888
  467MOL0     C62949   8.831  -2.774   6.048 -0.7693 -0.0330 -0.1364
  467MOL0     C62950   8.900  -2.866   5.946 -0.1095  0.1049  0.0994
  467MOL0     C62951   8.964  -2.985   6.003 -1.0754  0.2971 -0.7846
  467MOL0     C62952   9.032  -3.063   5.889  0.0534 -0.6033 -0.8295
  467MOL0     C62953   9.126  -3.171   5.962  0.3280 -0.2076  0.8594
  467MOL0    Cl62954   9.192  -3.286   5.843  0.4688 -0.5753 -0.1534
  467MOL0     C62955   8.412  -2.235   6.064 -0.5066  0.0673  1.1529
  467MOL0     C62956   8.347  -2.115   6.060  0.0325 -0.1917 -0.3851
  467MOL0     O62957   8.430  -1.819   6.300 -0.2299 -0.1040 -0.0246
  467MOL0     C62958   8.221  -1.632   6.079 -0.6543 -0.2455  0.7723
  467MOL0     C62959   8.221  -1.507   6.006  0.8039  0.3297 -0.5754
  467MOL0     N62960   8.085  -0.908   5.700 -0.1081 -0.1446  0.7876
  467MOL0     N62961   8.063  -0.781   5.661 -0.1004 -0.6816 -1.2371
  467MOL0     C62962   8.495   0.274   5.396  0.7449 -0.2239 -0.8899
  467MOL0     C62963   8.531   0.404   5.339  0.0397  0.4337 -0.0515
  467MOL0     C62964   8.667   0.836   5.317 -1.4516  0.3155 -0.0724
  467MOL0     C62965   8.797   0.883   5.344 -0.1338  0.4877 -0.7570
  467MOL0     C62966   8.832   1.012   5.309  0.8998 -0.4414 -0.1366
  467MOL0     C62967   8.744   1.095   5.247 -0.2319  0.3508  0.6258
  467MOL0     O62968   8.806   1.215   5.207  0.2683  0.6467 -0.2730
  467MOL0     C62969   8.717   1.332   5.189  0.2714  0.5195 -0.3611
  467MOL0     C62970   8.794   1.463   5.189  0.2325  0.5647  0.1716
  467MOL0     C62971   8.894   1.478   5.068 -0.1764  1.0701 -0.6371
  467MOL0     C62972   9.004   1.371   5.051  0.0553 -0.2236 -0.5734
  467MOL0     C62973   9.106   1.427   4.961 -0.0076 -0.9018 -0.9192
  467MOL0     C62974   9.182   1.481   4.884 -0.5087 -0.3608 -0.8089
  467MOL0     C62975   8.611   1.056   5.222 -0.4319  0.4390  0.3827
  467MOL0     C62976   8.573   0.928   5.257 -0.4217  0.3214 -0.1189
  467MOL0     C62977   8.424   0.898   5.238 -0.0868  0.2665 -0.0238
  467MOL0     H62978   8.293   0.588   5.503 -3.5529 -1.6868  1.3012
  467MOL0     H62979   8.224   0.371   5.586 -0.7550 -0.0167 -1.1340
  467MOL0     H62980   8.362   0.191   5.750  0.8090  0.0263 -0.5863
  467MOL0     H62981   8.203   0.173   5.680 -0.5965 -0.4082 -4.4039
  467MOL0     H62982   8.226  -0.054   5.625  3.0756  0.7830 -2.2209
  467MOL0     H62983   8.222  -0.020   5.800  0.7367  3.8153  0.5697
  467MOL0     H62984   8.446  -0.065   5.830  0.7878  1.7627 -0.6867
  467MOL0     H62985   8.486  -0.072   5.657  0.3288 -1.6573 -1.0001
  467MOL0     H62986   8.412  -0.266   5.623 -0.3922 -0.0595 -0.2021
  467MOL0     H62987   8.489  -0.279   5.782  0.6228 -0.7827 -2.3848
  467MOL0     H62988   8.270  -0.301   5.887 -2.5366  0.2133 -0.3647
  467MOL0     H62989   8.191  -0.269   5.734  0.2463 -1.3863 -1.1115
  467MOL0     H62990   8.393  -0.504   5.788 -0.4754 -1.7359 -0.6260
  467MOL0     H62991   8.225  -0.535   5.793 -1.8016  2.4117  0.0405
  467MOL0     H62992   8.388  -0.566   5.574  0.2998 -0.0673  2.6936
  467MOL0     H62993   8.300  -0.420   5.536 -0.4845 -0.0353 -0.3310
  467MOL0     H62994   8.073  -0.537   5.580 -1.1574  1.0069 -2.4225
  467MOL0     H62995   8.164  -0.575   5.439 -1.5967 -3.0290 -0.1091
  467MOL0     H62996   8.346  -0.815   5.521  0.8443 -0.7240  1.4175
  467MOL0     H62997   8.301  -1.109   5.537 -1.9402  1.1974 -0.8724
  467MOL0     H62998   8.370  -1.079   5.687 -0.2650 -1.0007  1.5114
  467MOL0     H62999   8.167  -1.159   5.801 -1.8780 -1.0249 -0.2908
  467MOL0     H63000   8.075  -1.178   5.651  0.0140  1.0899  1.6289
  467MOL0     H63001   8.235  -1.344   5.572 -2.9066 -2.2233  0.0617
  467MOL0     H63002   8.144  -1.382   5.708 -0.5820  2.1924 -1.2943
  467MOL0     H63003   8.430  -1.298   5.719 -1.9316  2.3904  0.9909
  467MOL0     H63004   8.386  -1.468   5.735 -3.5904 -2.3179  3.3314
  467MOL0     H63005   8.551  -1.463   5.974  1.8083 -0.5148  1.4148
  467MOL0     H63006   8.553  -1.679   6.103 -1.3132 -2.5317  1.4533
  467MOL0     H63007   8.313  -2.040   6.375  0.9942  1.1328  0.8294
  467MOL0     H63008   8.471  -2.254   6.391  2.3080 -1.1810 -2.0411
  467MOL0     H63009   8.527  -2.467   5.993  1.7831 -1.1241 -0.9598
  467MOL0     H63010   8.677  -2.364   6.021 -1.8936  0.7522 -3.0287
  467MOL0     H63011   8.756  -2.546   6.160  0.8667  1.1059 -1.7443
  467MOL0     H63012   8.617  -2.658   6.143  2.9533 -1.3263  1.8233
  467MOL0     H63013   8.677  -2.704   5.914 -1.9485  0.5957  2.7594
  467MOL0     H63014   8.818  -2.586   5.915  0.9448 -1.9382 -1.2286
  467MOL0     H63015   8.755  -2.824   6.108 -1.0253 -2.3846 -2.2915
  467MOL0     H63016   8.909  -2.741   6.118 -0.3236 -1.1155 -0.1097
  467MOL0     H63017   8.977  -2.810   5.892  0.2052 -0.1803  0.2405
  467MOL0     H63018   8.834  -2.906   5.869  0.9677 -1.6205 -0.0127
  467MOL0     H63019   9.031  -2.961   6.086 -3.6460 -2.0511  2.2476
  467MOL0     H63020   8.891  -3.057   6.044 -0.2288  0.5107  1.2272
  467MOL0     H63021   9.083  -2.991   5.824 -4.6851  2.1030 -2.0904
  467MOL0     H63022   8.962  -3.109   5.818  0.1107  1.9167 -2.6621
  467MOL0     H63023   9.218  -3.121   5.994 -0.6363  1.8756  0.5667
  467MOL0     H63024   9.075  -3.231   6.039  0.2971 -1.3142 -0.0004
  467MOL0     H63025   8.412  -2.291   5.971  2.7210  0.2412  0.9241
  467MOL0     H63026   8.322  -2.074   5.962 -2.1613 -0.0370  0.1903
  467MOL0     H63027   8.125  -1.677   6.101 -0.2416 -1.3850  0.2893
  467MOL0     H63028   8.127  -1.466   5.972  0.4808 -0.9024 -1.2580
  467MOL0     H63029   8.553   0.186   5.371 -2.6212 -2.8426 -0.1595
  467MOL0     H63030   8.613   0.397   5.268  0.8618 -1.8512  0.9980
  467MOL0     H63031   8.876   0.818   5.381  0.0522  1.2871  0.3337
  467MOL0     H63032   8.938   1.037   5.300  0.2670  2.6117  0.0482
  467MOL0     H63033   8.648   1.333   5.274 -0.3406 -0.2482 -0.8422
  467MOL0     H63034   8.649   1.324   5.104  1.2956  1.1937 -1.2648
  467MOL0     H63035   8.861   1.453   5.275  1.2739 -0.1691 -0.6861
  467MOL0     H63036   8.734   1.553   5.204  0.4845  0.8867 -0.6730
  467MOL0     H63037   8.947   1.574   5.072  0.3975  0.9149 -3.1391
  467MOL0     H63038   8.817   1.477   4.990 -1.7105 -5.2140  0.3942
  467MOL0     H63039   9.039   1.349   5.152  1.5270 -0.7789 -1.1671
  467MOL0     H63040   8.970   1.280   4.999 -0.6790  0.4441 -1.2831
  467MOL0     H63041   9.238   1.518   4.801 -0.4066  0.5493 -0.3579
  467MOL0     H63042   8.540   1.132   5.190  0.5926  1.9817  1.6638
  467MOL0     H63043   8.416   0.812   5.171  0.2552  1.8380 -2.2147
  467MOL0     H63044   8.370   0.878   5.331 -1.0689 -1.5887 -0.9492
  467MOL0     H63045   8.383   0.982   5.182  1.5882  1.1625  0.0142
  468MOL0     O63046   7.277   9.304   3.273  0.0859 -1.0734  0.1929
  468MOL0     C63047   7.204   9.203   3.260 -0.3327  0.3001 -0.4956
  468MOL0     O63048   7.161   9.136   3.364 -0.1662 -0.1764  0.1880
  468MOL0     C63049   7.177   9.180   3.494  0.7177  0.2176  0.2502
  468MOL0     C63050   7.297   9.190   3.566 -0.4546  1.3553  0.1251
  468MOL0     C63051   7.295   9.222   3.700 -0.9659 -0.2192  0.1959
  468MOL0     C63052   7.174   9.267   3.760 -0.8786  0.2696 -0.4333
  468MOL0     O63053   7.169   9.339   3.881 -0.3331  0.5533 -0.1531
  468MOL0     C63054   7.292   9.395   3.934 -0.2079 -0.2788 -0.2947
  468MOL0     C63055   7.351   9.501   3.842 -0.2483 -0.4046 -0.8080
  468MOL0     C63056   7.492   9.552   3.884 -0.8325  0.2275 -1.3895
  468MOL0     C63057   7.604   9.449   3.881 -0.8790 -0.6071  0.5963
  468MOL0     C63058   7.728   9.463   3.980 -0.0671 -0.1087 -0.8269
  468MOL0     C63059   7.831   9.347   3.965  1.1564 -0.7419  0.7072
  468MOL0     C63060   7.927   9.326   4.078  0.1343 -0.4219 -0.6754
  468MOL0     C63061   7.971   9.450   4.156 -0.5271  0.3225 -0.4858
  468MOL0     N63062   8.056   9.536   4.068 -0.2255  0.8039 -0.2698
  468MOL0     C63063   8.045   9.670   4.063  0.7839  0.4829  0.1652
  468MOL0     C63064   8.119   9.704   3.960 -0.3510  1.0365  0.9983
  468MOL0     C63065   8.136   9.836   3.910  0.1273  0.6191 -0.8179
  468MOL0     C63066   8.194   9.941   4.017 -0.0889  0.4343 -1.3328
  468MOL0     C63067   8.218  10.072   3.949 -0.4912 -0.7470  0.2810
  468MOL0     C63068   8.250  10.185   4.046 -0.3291 -0.3576  0.2203
  468MOL0     O63069   8.152  10.203   4.143  1.4000 -0.2138 -0.3234
  468MOL0     C63070   8.172  10.293   4.246 -0.4208 -0.0916 -0.4404
  468MOL0     C63071   8.279  10.384   4.255 -0.5222 -0.1831 -0.0418
  468MOL0     C63072   8.289  10.477   4.367 -1.4266  0.0383 -0.1293
  468MOL0     C63073   8.186  10.482   4.461  0.4942  0.0368 -0.2839
  468MOL0     C63074   8.172  10.582   4.565  0.3925 -0.8101  0.9305
  468MOL0     O63075   8.049  10.569   4.639 -0.5407  0.5822 -0.0165
  468MOL0     C63076   7.997  10.674   4.702 -0.4544  0.1491 -0.3827
  468MOL0     C63077   8.002  10.807   4.651 -0.3369 -0.6584 -0.5382
  468MOL0     C63078   7.926  10.907   4.719  0.0734 -0.4951  0.4438
  468MOL0     C63079   7.837  10.880   4.824 -0.9886  0.9850  0.6214
  468MOL0     O63080   7.768  10.982   4.874 -0.4710 -0.9363  0.0995
  468MOL0     C63081   7.666  10.971   4.977 -0.2864 -0.1546  0.3149
  468MOL0     C63082   7.587  11.101   4.997 -0.3775  0.0415 -1.2815
  468MOL0     C63083   7.558  11.140   5.142 -0.5478 -0.0890 -0.2919
  468MOL0     C63084   7.553  11.291   5.146 -0.7738 -0.1668  0.6269
  468MOL0     C63085   7.521  11.341   5.291  0.5061  0.3193 -0.0740
  468MOL0     C63086   7.549  11.489   5.290 -0.7572 -0.3259 -0.3228
  468MOL0     C63087   7.461  11.556   5.384  1.0178  0.0138 -0.7889
  468MOL0     C63088   7.527  11.674   5.438 -0.6123  0.4582  0.2705
  468MOL0    Cl63089   7.452  11.745   5.577 -0.1451 -0.1821 -0.1287
  468MOL0     C63090   7.832  10.746   4.873 -0.0483  0.2311  0.3569
  468MOL0     C63091   7.908  10.652   4.804  0.8385  0.1736  0.1706
  468MOL0     O63092   8.249  10.683   4.572  0.2779 -0.0350  0.9381
  468MOL0     C63093   8.086  10.373   4.457 -0.4328  0.3075  0.5125
  468MOL0     C63094   8.075  10.286   4.347 -0.9666  0.1830 -0.2012
  468MOL0     N63095   8.186   9.595   3.904 -0.7835  0.8511  0.9652
  468MOL0     N63096   8.139   9.492   3.972 -0.5254  0.2438  0.6574
  468MOL0     C63097   7.061   9.248   3.696 -0.5514 -0.3194 -0.0485
  468MOL0     C63098   7.059   9.206   3.568  1.1711 -0.0866 -0.2455
  468MOL0     C63099   7.145   9.179   3.138  0.0641 -0.3019 -0.5116
  468MOL0     C63100   7.024   9.108   3.132 -0.5042  0.2872  0.0391
  468MOL0     C63101   6.953   9.085   3.011  0.6346 -0.7652 -0.2112
  468MOL0     C63102   7.007   9.131   2.899  0.7620 -0.3617  0.8606
  468MOL0     O63103   6.949   9.126   2.772  0.7165 -0.4523  0.1634
  468MOL0     C63104   6.814   9.077   2.772 -0.0525  0.1008 -0.2317
  468MOL0     C63105   6.800   8.927   2.737  0.0847 -0.9193 -0.4455
  468MOL0     C63106   6.847   8.882   2.595 -0.1399  0.5169 -0.3337
  468MOL0     C63107   6.827   8.972   2.482  0.7896  0.1482 -0.9192
  468MOL0     C63108   6.699   8.967   2.435  0.0897  1.3184  1.1036
  468MOL0     C63109   6.584   8.969   2.390 -0.2361 -0.4247 -0.6951
  468MOL0     C63110   7.134   9.192   2.896 -0.1016  0.4568 -0.2143
  468MOL0     C63111   7.211   9.219   3.014  0.4018 -0.2005  0.3291
  468MOL0     C63112   7.349   9.275   2.983 -0.9620 -0.2645  0.1736
  468MOL0     H63113   7.382   9.180   3.500 -2.6775 -0.3890 -2.7171
  468MOL0     H63114   7.385   9.234   3.760 -2.3138 -1.3660  2.6013
  468MOL0     H63115   7.272   9.441   4.031  1.0370  1.1722 -0.6845
  468MOL0     H63116   7.367   9.318   3.954  2.1085  2.0518  0.6183
  468MOL0     H63117   7.288   9.590   3.832 -2.4397 -1.7888  0.0718
  468MOL0     H63118   7.354   9.460   3.740  3.3541 -0.1740 -0.9391
  468MOL0     H63119   7.487   9.585   3.988 -0.1451  1.4550 -1.7211
  468MOL0     H63120   7.523   9.643   3.831  0.4155  0.8414  0.2924
  468MOL0     H63121   7.576   9.344   3.887  0.9224 -1.0388  4.0030
  468MOL0     H63122   7.646   9.453   3.780 -0.6126 -1.0431  0.6861
  468MOL0     H63123   7.772   9.563   3.980  1.6084 -0.6751  2.4265
  468MOL0     H63124   7.687   9.463   4.082  1.6763  3.1374 -0.0041
  468MOL0     H63125   7.774   9.257   3.940  2.9820 -1.6738 -0.3390
  468MOL0     H63126   7.887   9.378   3.876 -0.2329  1.2496  0.4427
  468MOL0     H63127   8.019   9.282   4.039  1.4412  0.1846  1.5493
  468MOL0     H63128   7.868   9.271   4.151  0.8945  1.3146  1.3610
  468MOL0     H63129   7.887   9.512   4.189 -0.0178  0.1126  1.3008
  468MOL0     H63130   8.031   9.410   4.238  0.9103  2.7429 -0.2769
  468MOL0     H63131   7.986   9.729   4.133 -0.5481  1.6233 -1.8199
  468MOL0     H63132   8.206   9.840   3.826  0.9428 -2.4082 -0.3796
  468MOL0     H63133   8.038   9.869   3.873  0.1730  0.6358 -0.9251
  468MOL0     H63134   8.118   9.944   4.097  0.9656 -1.6601 -0.1584
  468MOL0     H63135   8.287   9.918   4.070  0.8147  2.8910 -1.6965
  468MOL0     H63136   8.138  10.123   3.893  0.9101  1.5946  0.2741
  468MOL0     H63137   8.300  10.059   3.879  0.9810  2.8834  1.0854
  468MOL0     H63138   8.256  10.281   3.993 -0.7885 -1.3074 -1.6290
  468MOL0     H63139   8.346  10.171   4.097 -0.4799 -2.8354 -0.0444
  468MOL0     H63140   8.359  10.390   4.182 -2.1629 -1.4258 -2.0190
  468MOL0     H63141   8.366  10.554   4.365 -3.0064  1.7082 -1.4806
  468MOL0     H63142   8.055  10.835   4.561  0.9588  1.1384  0.7066
  468MOL0     H63143   7.937  11.010   4.685  0.1297 -0.5426  0.3211
  468MOL0     H63144   7.586  10.897   4.967 -0.1394 -0.1076 -1.3675
  468MOL0     H63145   7.724  10.956   5.068 -1.3665  0.7141  1.1870
  468MOL0     H63146   7.628  11.182   4.936 -1.1087  1.6213  0.2647
  468MOL0     H63147   7.493  11.064   4.955 -0.9253 -4.1178  2.7496
  468MOL0     H63148   7.465  11.098   5.180 -1.9793  1.4996 -1.8204
  468MOL0     H63149   7.634  11.098   5.208 -0.7181  0.9519  0.6066
  468MOL0     H63150   7.490  11.339   5.071  3.2415  1.8430 -1.7938
  468MOL0     H63151   7.657  11.311   5.119 -0.8460 -2.3352 -1.6188
  468MOL0     H63152   7.589  11.294   5.363  3.0672 -3.1474 -4.2904
  468MOL0     H63153   7.417  11.321   5.318  1.1900 -1.7095  1.3126
  468MOL0     H63154   7.655  11.507   5.313 -0.4508 -2.6845  0.4142
  468MOL0     H63155   7.528  11.525   5.189  2.9607 -2.4671 -2.1091
  468MOL0     H63156   7.446  11.497   5.474  0.8491  1.4226  0.1370
  468MOL0     H63157   7.360  11.575   5.346  0.3748 -0.9804  0.3629
  468MOL0     H63158   7.619  11.649   5.492 -0.7875  1.6063  1.1517
  468MOL0     H63159   7.563  11.739   5.358  1.2127 -3.6107 -2.5311
  468MOL0     H63160   7.756  10.713   4.944  1.1793 -1.5316  0.9229
  468MOL0     H63161   7.898  10.552   4.843  1.5538 -0.3814 -1.0438
  468MOL0     H63162   8.010  10.354   4.532  2.1027 -2.6855  2.6161
  468MOL0     H63163   7.993  10.218   4.325 -0.0115 -0.6673 -1.2620
  468MOL0     H63164   6.972   9.286   3.746  0.3009 -2.0218  3.0050
  468MOL0     H63165   6.972   9.189   3.505  0.9238  1.6468 -0.4307
  468MOL0     H63166   6.976   9.081   3.226  0.6138  0.2182  0.6002
  468MOL0     H63167   6.858   9.035   3.021 -0.5257  1.1130 -1.3143
  468MOL0     H63168   6.764   9.145   2.703 -0.1843  0.4188  0.1770
  468MOL0     H63169   6.759   9.091   2.865  0.4661 -1.0371  0.2658
  468MOL0     H63170   6.702   8.881   2.753  0.3873 -1.6576 -0.6896
  468MOL0     H63171   6.862   8.876   2.811  0.0143 -0.6409 -0.1891
  468MOL0     H63172   6.819   8.777   2.584  0.8654 -0.3591  3.6565
  468MOL0     H63173   6.955   8.866   2.597 -0.3946 -2.0784 -2.5235
  468MOL0     H63174   6.866   9.070   2.508  2.0723 -0.3365 -0.9472
  468MOL0     H63175   6.892   8.937   2.401  0.3837 -3.0298 -0.0290
  468MOL0     H63176   6.482   8.969   2.356  0.4878 -1.9776 -3.1703
  468MOL0     H63177   7.176   9.215   2.799 -1.0836 -2.8842 -1.5850
  468MOL0     H63178   7.358   9.291   2.875 -0.2753 -0.7281  0.1581
  468MOL0     H63179   7.364   9.374   3.028  1.3043 -0.1587 -0.7025
  468MOL0     H63180   7.431   9.214   3.021 -1.2062  0.2958  1.6670
  469MOL0     O63181  11.174   4.715   8.284  0.0883  0.5285 -0.0121
  469MOL0     C63182  11.200   4.722   8.407  0.5284 -0.2523  0.0056
  469MOL0     O63183  11.308   4.654   8.464  0.5551  0.4627  0.0351
  469MOL0     C63184  11.377   4.569   8.384 -0.1472  0.5333 -1.5527
  469MOL0     C63185  11.511   4.620   8.357  0.1614  0.6337 -1.0286
  469MOL0     C63186  11.601   4.568   8.267 -0.6671 -1.4338 -0.0618
  469MOL0     C63187  11.566   4.449   8.212 -0.1334 -0.2858 -0.7070
  469MOL0     O63188  11.636   4.394   8.108 -0.4138  0.1625 -0.4660
  469MOL0     C63189  11.661   4.479   7.998  0.9757  0.3621  0.4906
  469MOL0     C63190  11.685   4.395   7.873  0.2010  0.6263  0.2927
  469MOL0     C63191  11.830   4.338   7.852 -0.4088  0.6117 -0.2723
  469MOL0     C63192  11.875   4.256   7.969  0.4320 -0.4724 -0.2720
  469MOL0     C63193  11.981   4.156   7.925 -0.6953 -0.0728 -0.2923
  469MOL0     C63194  12.070   4.101   8.036 -0.3213 -0.2524 -0.1657
  469MOL0     C63195  12.180   3.998   7.985 -0.3949  0.3973 -0.9199
  469MOL0     C63196  12.201   3.887   8.085 -0.9253  0.5401 -0.5740
  469MOL0     N63197  12.312   3.811   8.025  0.4607 -1.4894  0.1547
  469MOL0     C63198  12.304   3.734   7.917 -0.7770  0.6781  0.4674
  469MOL0     C63199  12.429   3.680   7.903 -1.1893 -1.1974 -0.6421
  469MOL0     C63200  12.470   3.576   7.798  0.3610  0.3706 -0.4142
  469MOL0     C63201  12.421   3.606   7.655  0.8491 -0.2393  0.0536
  469MOL0     C63202  12.486   3.712   7.572  0.7102  0.5796 -0.0429
  469MOL0     C63203  12.554   3.825   7.645 -0.1709  0.9879 -0.3998
  469MOL0     O63204  12.448   3.919   7.665 -0.7775 -0.2498 -0.0581
  469MOL0     C63205  12.411   4.008   7.568  0.0223 -0.2720 -0.0840
  469MOL0     C63206  12.467   4.030   7.438  0.0641 -0.1018  0.6867
  469MOL0     C63207  12.405   4.116   7.347  0.1937 -0.5695  0.3960
  469MOL0     C63208  12.293   4.185   7.374 -0.2915 -0.0119  1.1088
  469MOL0     C63209  12.241   4.280   7.279 -0.0591 -0.1143 -0.2810
  469MOL0     O63210  12.309   4.305   7.164 -0.4814 -0.0563  0.3877
  469MOL0     C63211  12.269   4.379   7.055 -0.4737 -0.8144 -1.2134
  469MOL0     C63212  12.137   4.394   7.009  0.9902 -0.2781  0.4261
  469MOL0     C63213  12.116   4.479   6.901  0.5609 -0.3058 -0.6407
  469MOL0     C63214  12.215   4.546   6.835  0.3577 -0.8194  1.0771
  469MOL0     O63215  12.173   4.625   6.727 -0.5380 -0.8934  0.5684
  469MOL0     C63216  12.265   4.713   6.666  0.3661  0.6259 -0.5125
  469MOL0     C63217  12.194   4.782   6.542 -0.5231 -0.1069  0.2548
  469MOL0     C63218  12.283   4.893   6.490  0.1684  0.2256 -0.9277
  469MOL0     C63219  12.241   4.936   6.347  0.1687 -0.1619  0.0339
  469MOL0     C63220  12.317   5.062   6.309  0.1315  0.6244  0.3482
  469MOL0     C63221  12.273   5.107   6.170  1.2584 -0.1497  0.9551
  469MOL0     C63222  12.343   5.230   6.121  0.4363 -1.1057 -0.1770
  469MOL0     C63223  12.291   5.278   5.988 -0.1798  0.3150  0.0672
  469MOL0    Cl63224  12.344   5.163   5.857 -0.3839  0.0460 -0.2409
  469MOL0     C63225  12.340   4.544   6.884  0.4017 -0.5581 -0.3984
  469MOL0     C63226  12.365   4.457   6.993 -0.2491  0.1591 -0.0760
  469MOL0     O63227  12.124   4.324   7.301  0.3392  0.3704  0.2389
  469MOL0     C63228  12.234   4.166   7.496  0.7617 -0.6261  0.2026
  469MOL0     C63229  12.288   4.080   7.596  0.5461 -0.6975 -0.0302
  469MOL0     N63230  12.509   3.734   8.005 -0.0104  0.1579 -0.3577
  469MOL0     N63231  12.440   3.814   8.071  0.5049 -0.2824 -0.6070
  469MOL0     C63232  11.449   4.382   8.248  0.2897 -0.3612 -0.1541
  469MOL0     C63233  11.346   4.442   8.335  0.2983  0.3664 -0.3339
  469MOL0     C63234  11.136   4.809   8.511  1.3359 -0.3346  0.1990
  469MOL0     C63235  11.146   4.767   8.647  0.1989  0.7463 -0.4543
  469MOL0     C63236  11.066   4.836   8.744 -0.1523  0.0296  0.0597
  469MOL0     C63237  10.978   4.932   8.703  0.1689 -0.3941 -0.8491
  469MOL0     O63238  10.890   4.985   8.795 -0.2959 -0.1339  0.0391
  469MOL0     C63239  10.764   5.045   8.752  0.6634  0.5907 -0.8598
  469MOL0     C63240  10.684   5.045   8.881  0.1199  1.0953 -0.1557
  469MOL0     C63241  10.557   5.135   8.854  0.3023 -0.1158  0.6215
  469MOL0     C63242  10.458   5.113   8.955  1.3180  0.4233  1.1199
  469MOL0     C63243  10.499   5.111   9.091 -0.3557 -0.9300 -0.6262
  469MOL0     C63244  10.535   5.092   9.211  0.0352  0.3136 -0.6612
  469MOL0     C63245  10.971   4.972   8.569  0.0712 -0.8829 -0.0828
  469MOL0     C63246  11.052   4.916   8.468  0.3998  0.1513  0.0567
  469MOL0     C63247  11.035   4.970   8.330 -0.0126  0.9051  0.6613
  469MOL0     H63248  11.542   4.717   8.394 -1.1296  1.6955 -2.6266
  469MOL0     H63249  11.680   4.638   8.242 -1.6056 -0.9453 -1.7966
  469MOL0     H63250  11.572   4.541   7.988  0.1078 -1.1324 -1.7521
  469MOL0     H63251  11.751   4.541   8.006  2.4179 -1.6879  1.1089
  469MOL0     H63252  11.660   4.447   7.781 -0.5697  0.3067  0.3144
  469MOL0     H63253  11.608   4.318   7.874  1.1067 -0.4292 -2.2500
  469MOL0     H63254  11.900   4.419   7.830  0.8260 -1.1773 -3.7881
  469MOL0     H63255  11.839   4.278   7.760 -0.2155 -1.3346  0.9639
  469MOL0     H63256  11.912   4.327   8.043 -0.6217 -1.0731  0.8737
  469MOL0     H63257  11.784   4.205   8.003 -0.9972  3.7028  3.0405
  469MOL0     H63258  11.932   4.074   7.871  2.4176  0.3340 -4.1880
  469MOL0     H63259  12.050   4.199   7.852 -0.5777  1.4235  0.6606
  469MOL0     H63260  12.121   4.188   8.078 -2.9141  1.0772  0.4818
  469MOL0     H63261  12.003   4.066   8.116  1.4579 -0.4420  1.3059
  469MOL0     H63262  12.277   4.047   7.972  1.0030 -2.1796 -0.9334
  469MOL0     H63263  12.163   3.956   7.885 -0.6430 -2.9321  0.4161
  469MOL0     H63264  12.242   3.923   8.180  0.0794 -1.8697 -0.0226
  469MOL0     H63265  12.108   3.828   8.089  0.4651 -1.8172 -1.1517
  469MOL0     H63266  12.218   3.720   7.852  1.4082 -1.6281 -2.2804
  469MOL0     H63267  12.578   3.562   7.809  0.1017  0.5803  4.0738
  469MOL0     H63268  12.441   3.478   7.839 -2.2950  0.2479 -2.2812
  469MOL0     H63269  12.410   3.519   7.590  0.2882  2.0539 -3.1865
  469MOL0     H63270  12.315   3.630   7.663  0.4576 -1.1508 -1.7736
  469MOL0     H63271  12.415   3.744   7.495  0.2191 -0.1879  0.0811
  469MOL0     H63272  12.563   3.667   7.508  0.7832 -0.1001  0.5134
  469MOL0     H63273  12.633   3.878   7.590  1.3253 -0.2894  0.4427
  469MOL0     H63274  12.614   3.786   7.728  0.3321 -1.2641 -1.7380
  469MOL0     H63275  12.560   3.988   7.401  2.8885  3.6874  2.6954
  469MOL0     H63276  12.450   4.129   7.248 -2.7730  0.2126 -0.9647
  469MOL0     H63277  12.056   4.334   7.051  3.2801 -2.8454  1.5078
  469MOL0     H63278  12.011   4.478   6.875 -0.2225 -1.9924  2.0977
  469MOL0     H63279  12.296   4.800   6.726  1.6420  0.1084 -0.3788
  469MOL0     H63280  12.356   4.656   6.643  0.2319 -0.5835  1.6880
  469MOL0     H63281  12.165   4.709   6.466 -1.9776  1.2207 -0.5391
  469MOL0     H63282  12.106   4.820   6.594 -0.5737  2.3005 -1.4153
  469MOL0     H63283  12.259   4.976   6.558  0.7269  0.1509 -0.6294
  469MOL0     H63284  12.389   4.869   6.504  0.4013  2.7335  3.7842
  469MOL0     H63285  12.134   4.960   6.357  0.1246  0.7786 -2.0859
  469MOL0     H63286  12.252   4.852   6.279 -0.6710 -1.7302  1.7343
  469MOL0     H63287  12.424   5.041   6.305  0.3686  1.5581 -3.9291
  469MOL0     H63288  12.290   5.141   6.379  0.3620  0.4562  0.6276
  469MOL0     H63289  12.295   5.031   6.094  0.7765  0.5987  0.0451
  469MOL0     H63290  12.166   5.128   6.167  1.8523  3.2447 -0.4888
  469MOL0     H63291  12.448   5.215   6.095 -0.8925 -1.4425 -7.4896
  469MOL0     H63292  12.323   5.308   6.195  4.0758  0.1629 -0.3017
  469MOL0     H63293  12.182   5.276   5.994 -0.1097 -0.8339  2.6953
  469MOL0     H63294  12.336   5.374   5.964  1.7060 -0.1668  1.4565
  469MOL0     H63295  12.415   4.612   6.845 -0.3292 -1.1576 -3.0416
  469MOL0     H63296  12.463   4.442   7.037 -0.3225 -0.1979 -0.0296
  469MOL0     H63297  12.140   4.214   7.521  0.8461  0.1886 -0.9432
  469MOL0     H63298  12.220   4.060   7.678 -2.5447  2.1429 -1.6552
  469MOL0     H63299  11.403   4.297   8.198 -2.6972  0.9984  0.0915
  469MOL0     H63300  11.253   4.390   8.354 -0.2122  1.4013  0.0485
  469MOL0     H63301  11.200   4.678   8.676  0.1793  0.8912  0.0332
  469MOL0     H63302  11.044   4.802   8.844 -3.2805 -1.2453 -0.9397
  469MOL0     H63303  10.708   4.988   8.678  0.7712 -1.8073  0.7714
  469MOL0     H63304  10.786   5.147   8.719  0.6317  0.8243 -0.1902
  469MOL0     H63305  10.737   5.090   8.965 -2.6021 -0.2300  2.4370
  469MOL0     H63306  10.647   4.945   8.904  2.6749  0.5645  2.1376
  469MOL0     H63307  10.511   5.109   8.758  0.1493  2.1058  0.0517
  469MOL0     H63308  10.594   5.238   8.852 -1.8177  0.8462 -4.6977
  469MOL0     H63309  10.373   5.182   8.941  0.2696 -0.9818  0.2807
  469MOL0     H63310  10.421   5.010   8.955  1.1182  0.4691 -0.5334
  469MOL0     H63311  10.576   5.063   9.305 -2.0619  0.0191  0.2262
  469MOL0     H63312  10.910   5.059   8.544 -0.8096 -1.4584  0.0106
  469MOL0     H63313  11.126   5.020   8.296  0.8117 -2.5042 -2.9438
  469MOL0     H63314  11.003   4.888   8.265 -1.3063 -0.1092  2.4999
  469MOL0     H63315  10.947   5.036   8.331 -1.9248 -1.3433 -2.1985
  470MOL0     O63316   6.639  10.312   6.361 -0.5136 -0.2615  0.4386
  470MOL0     C63317   6.550  10.281   6.281 -0.0347 -0.1953 -0.0888
  470MOL0     O63318   6.443  10.200   6.307  0.1867 -0.0133  0.0029
  470MOL0     C63319   6.452  10.143   6.426  0.0918 -0.4701  0.1729
  470MOL0     C63320   6.534  10.033   6.448 -0.1943 -0.0084 -0.0907
  470MOL0     C63321   6.561   9.985   6.573 -0.3108 -0.0220  0.2280
  470MOL0     C63322   6.488  10.031   6.688 -0.3453 -0.9070 -0.1017
  470MOL0     O63323   6.517  10.010   6.819 -0.6725  0.3147  0.6535
  470MOL0     C63324   6.618   9.910   6.853 -0.5613 -0.5346  0.5865
  470MOL0     C63325   6.604   9.872   7.002  0.2111  0.5056 -0.3435
  470MOL0     C63326   6.564   9.988   7.087  0.0767 -0.3158  0.3954
  470MOL0     C63327   6.613   9.969   7.229  0.1253 -0.1972 -0.8719
  470MOL0     C63328   6.590  10.075   7.339 -0.5799 -0.4783  0.3051
  470MOL0     C63329   6.435  10.089   7.363  0.3807 -0.3419 -0.0020
  470MOL0     C63330   6.371   9.965   7.428 -0.4798  0.1878  0.3612
  470MOL0     C63331   6.226   9.984   7.482 -0.3720  0.1157 -0.5072
  470MOL0     N63332   6.188   9.853   7.540 -0.7664  0.5809  0.0247
  470MOL0     C63333   6.250   9.788   7.638 -0.1745 -0.2605 -0.3494
  470MOL0     C63334   6.171   9.685   7.671 -0.0454 -0.5632 -0.0475
  470MOL0     C63335   6.196   9.591   7.787  0.0525 -0.4105 -0.1425
  470MOL0     C63336   6.133   9.655   7.919 -0.2675 -0.1937 -0.2880
  470MOL0     C63337   6.175   9.561   8.035  0.0097 -0.4688 -0.3094
  470MOL0     C63338   6.116   9.618   8.170 -0.2735 -0.3109 -0.1154
  470MOL0     O63339   6.195   9.734   8.205  0.3134  0.4797  1.1281
  470MOL0     C63340   6.188   9.789   8.319  0.1642 -0.0319 -1.3142
  470MOL0     C63341   6.087   9.772   8.412 -0.0893  0.1042  0.4803
  470MOL0     C63342   6.065   9.850   8.528 -0.3202  0.4253 -0.7655
  470MOL0     C63343   6.160   9.955   8.555 -0.0985 -0.0787  0.2447
  470MOL0     C63344   6.143  10.031   8.680  0.9765 -0.2330 -0.2117
  470MOL0     O63345   6.100   9.954   8.785  0.1116 -0.5590  0.5365
  470MOL0     C63346   6.048  10.012   8.899  0.4929  0.0518  0.1208
  470MOL0     C63347   5.980  10.142   8.899 -0.0434 -0.3008  0.0802
  470MOL0     C63348   5.938  10.204   9.020 -0.4156  0.0094 -0.4548
  470MOL0     C63349   5.990  10.141   9.139  0.6603 -0.3820  0.8252
  470MOL0     O63350   5.953  10.192   9.259  0.5842 -0.2305  0.2667
  470MOL0     C63351   5.878  10.317   9.266  0.8256 -0.0321  0.3122
  470MOL0     C63352   5.846  10.350   9.405  0.7472 -0.8714 -0.4709
  470MOL0     C63353   5.965  10.381   9.491  0.7525 -0.2355 -0.6221
  470MOL0     C63354   6.048  10.492   9.435 -0.3307 -0.0062 -0.6657
  470MOL0     C63355   6.127  10.561   9.553  0.3465  0.3684 -0.5991
  470MOL0     C63356   6.241  10.471   9.606 -0.3793 -0.1376  0.2838
  470MOL0     C63357   6.315  10.549   9.714 -0.1950  1.1919 -0.0700
  470MOL0     C63358   6.437  10.463   9.754 -0.6044 -0.0378 -0.5406
  470MOL0    Cl63359   6.481  10.529   9.915 -0.4744 -0.1728  0.0836
  470MOL0     C63360   6.056  10.015   9.133  0.8661  1.3998 -0.4944
  470MOL0     C63361   6.082   9.945   9.017  0.4158  0.3841  0.1681
  470MOL0     O63362   6.198  10.137   8.687 -0.6850  0.3971  0.8190
  470MOL0     C63363   6.257   9.984   8.459 -0.3092 -0.1844  0.8394
  470MOL0     C63364   6.272   9.902   8.351 -0.9399  0.5095 -0.8423
  470MOL0     N63365   6.072   9.677   7.566 -0.0413 -0.7527 -0.6865
  470MOL0     N63366   6.082   9.788   7.497 -0.1388 -0.2447 -0.2567
  470MOL0     C63367   6.394  10.135   6.661 -0.1491  0.4052 -0.6631
  470MOL0     C63368   6.369  10.183   6.534 -0.5124 -0.4179  0.7875
  470MOL0     C63369   6.549  10.331   6.148  0.0558 -0.4751 -0.8935
  470MOL0     C63370   6.427  10.338   6.074 -0.0036  0.0497 -0.0299
  470MOL0     C63371   6.420  10.378   5.944  0.1246 -0.3511 -1.1591
  470MOL0     C63372   6.537  10.434   5.893 -0.1014 -0.1871 -0.0488
  470MOL0     O63373   6.520  10.491   5.779 -0.4869  0.4748 -0.1142
  470MOL0     C63374   6.452  10.624   5.769  0.0524 -0.5588  0.8548
  470MOL0     C63375   6.421  10.660   5.630  1.3800  0.1212  0.0735
  470MOL0     C63376   6.326  10.560   5.562 -0.0948  0.2695 -0.0945
  470MOL0     C63377   6.279  10.604   5.424  0.4590  0.4458  0.7926
  470MOL0     C63378   6.219  10.741   5.422  0.2447  1.3014  0.0587
  470MOL0     C63379   6.160  10.849   5.417  0.3751 -0.1012  0.1549
  470MOL0     C63380   6.658  10.427   5.961  0.1812  0.3268  0.2819
  470MOL0     C63381   6.666  10.378   6.087  0.2792  0.6100 -0.3761
  470MOL0     C63382   6.805  10.354   6.140  0.0305  0.0569 -0.4003
  470MOL0     H63383   6.589   9.977   6.373  1.2597 -1.5776  2.0562
  470MOL0     H63384   6.648   9.926   6.601  2.3148  4.0790  1.5516
  470MOL0     H63385   6.592   9.820   6.796 -0.7942 -0.1891  0.1372
  470MOL0     H63386   6.719   9.939   6.821 -1.8283 -1.2530 -5.4426
  470MOL0     H63387   6.701   9.828   7.029 -0.1838 -0.9934 -1.2387
  470MOL0     H63388   6.529   9.793   7.017 -0.9348  1.1275 -2.4508
  470MOL0     H63389   6.459  10.018   7.084  0.6005  2.0956  2.4245
  470MOL0     H63390   6.621  10.073   7.049  0.0959  0.0863  1.2941
  470MOL0     H63391   6.574   9.870   7.257 -0.9250  0.3186 -0.4638
  470MOL0     H63392   6.721   9.965   7.215  0.2086 -1.5901 -0.0330
  470MOL0     H63393   6.639  10.046   7.432  3.4486  1.4466 -1.0159
  470MOL0     H63394   6.645  10.163   7.308  1.8991 -1.4211  1.7664
  470MOL0     H63395   6.415  10.177   7.424 -0.1826  0.0656 -0.7422
  470MOL0     H63396   6.387  10.104   7.265 -1.0975 -2.3773  0.3407
  470MOL0     H63397   6.444   9.946   7.508 -0.2572 -2.3970 -0.3495
  470MOL0     H63398   6.370   9.885   7.353 -0.0063 -1.1565  1.7228
  470MOL0     H63399   6.228  10.058   7.563 -2.6517 -0.1408 -0.1520
  470MOL0     H63400   6.158  10.024   7.406  1.8909  1.0937 -2.1092
  470MOL0     H63401   6.331   9.817   7.704  0.3215  3.6469 -2.3548
  470MOL0     H63402   6.158   9.491   7.763  2.3680 -1.2813 -0.4203
  470MOL0     H63403   6.305   9.589   7.797  0.4416  0.5053 -3.0533
  470MOL0     H63404   6.175   9.755   7.929 -0.5311 -0.2197  1.3153
  470MOL0     H63405   6.027   9.663   7.893 -0.1043 -0.0239 -0.9397
  470MOL0     H63406   6.284   9.554   8.035  0.0870  0.0856  1.6627
  470MOL0     H63407   6.139   9.459   8.023  0.0371 -0.5134 -0.0251
  470MOL0     H63408   6.131   9.540   8.246 -1.8281 -0.4457  0.0754
  470MOL0     H63409   6.010   9.640   8.159 -0.4749 -1.4674 -0.6991
  470MOL0     H63410   5.999   9.708   8.402 -0.3797  0.8533 -3.0754
  470MOL0     H63411   5.981   9.833   8.594  1.0715 -0.0981  0.9299
  470MOL0     H63412   5.945  10.184   8.805 -4.2493  0.9960  1.9680
  470MOL0     H63413   5.884  10.297   9.005 -1.9510 -0.4260  1.9418
  470MOL0     H63414   5.932  10.397   9.214 -0.6782  0.0649 -1.1865
  470MOL0     H63415   5.787  10.297   9.208  1.9724 -1.9743 -0.9128
  470MOL0     H63416   5.783  10.439   9.403 -0.7258 -1.8764 -2.3763
  470MOL0     H63417   5.790  10.274   9.460 -1.5130  0.5448 -0.7020
  470MOL0     H63418   5.917  10.407   9.586 -1.8543 -1.7212 -1.4404
  470MOL0     H63419   6.018  10.286   9.499 -0.4502 -0.8050  1.3026
  470MOL0     H63420   5.988  10.572   9.391  0.8260  2.7950  2.4036
  470MOL0     H63421   6.104  10.439   9.357  1.4698  0.5309  0.2099
  470MOL0     H63422   6.054  10.587   9.631  0.2258  0.6883 -0.8157
  470MOL0     H63423   6.171  10.642   9.495 -0.3217  0.9758 -0.2750
  470MOL0     H63424   6.214  10.370   9.638  1.7692 -0.8721 -0.0566
  470MOL0     H63425   6.316  10.457   9.527 -3.0331 -0.1966 -2.4083
  470MOL0     H63426   6.252  10.573   9.800  1.1785 -0.6733  1.5384
  470MOL0     H63427   6.345  10.647   9.675  0.4391  1.4644  1.0665
  470MOL0     H63428   6.407  10.359   9.774 -1.6523  0.3329 -0.0777
  470MOL0     H63429   6.515  10.456   9.678 -0.6016  0.3917 -0.5759
  470MOL0     H63430   6.085   9.964   9.224 -0.9786  1.4506  0.1640
  470MOL0     H63431   6.130   9.847   9.017 -0.6120 -0.1358  0.0863
  470MOL0     H63432   6.319  10.073   8.470  0.9464 -0.6782 -1.6713
  470MOL0     H63433   6.358   9.922   8.288 -0.3300  0.2326 -0.1085
  470MOL0     H63434   6.345  10.179   6.747  2.2569  1.6527  0.1488
  470MOL0     H63435   6.304  10.269   6.522  0.5176  0.0961 -1.6031
  470MOL0     H63436   6.340  10.317   6.135  0.6044 -1.6899  0.3064
  470MOL0     H63437   6.327  10.389   5.890  0.1938  1.5769 -0.9864
  470MOL0     H63438   6.498  10.704   5.827  2.5268  0.8541 -2.6882
  470MOL0     H63439   6.352  10.618   5.812 -1.0008 -4.0309 -1.6132
  470MOL0     H63440   6.512  10.661   5.570 -0.1254  0.9517 -2.3581
  470MOL0     H63441   6.377  10.758   5.612 -0.7383 -0.8366 -0.2585
  470MOL0     H63442   6.241  10.559   5.631 -1.5480 -2.7388 -1.7510
  470MOL0     H63443   6.371  10.461   5.569 -0.7857  0.0655  4.4398
  470MOL0     H63444   6.376  10.611   5.374 -0.0206  0.6755 -0.1258
  470MOL0     H63445   6.224  10.530   5.365  1.5441  0.5480 -0.3771
  470MOL0     H63446   6.133  10.947   5.383 -1.2018 -1.5539 -3.2677
  470MOL0     H63447   6.755  10.462   5.928  0.2819  1.8400  2.0085
  470MOL0     H63448   6.831  10.257   6.183  1.1417 -0.5483 -2.3004
  470MOL0     H63449   6.881  10.363   6.061 -0.1968  0.8829 -0.5355
  470MOL0     H63450   6.833  10.429   6.214 -1.4069  1.1277 -0.8817
  471MOL0     O63451   3.465  10.724   6.224  0.2075  0.2440  0.2517
  471MOL0     C63452   3.522  10.761   6.324  0.6217 -0.7805 -0.8190
  471MOL0     O63453   3.610  10.694   6.394 -0.7573  0.7832  0.0677
  471MOL0     C63454   3.622  10.560   6.351 -0.0379  0.4010 -0.5529
  471MOL0     C63455   3.550  10.463   6.414 -0.3118  0.2433 -0.0637
  471MOL0     C63456   3.571  10.330   6.373 -0.7823  0.1005 -0.7420
  471MOL0     C63457   3.653  10.292   6.263  0.1726 -1.0505  0.9258
  471MOL0     O63458   3.651  10.167   6.218 -0.0797 -0.1938 -0.2703
  471MOL0     C63459   3.778  10.118   6.185 -0.2234  0.8705  0.4673
  471MOL0     C63460   3.785   9.964   6.211 -0.2705 -0.1504  0.9836
  471MOL0     C63461   3.746   9.925   6.354 -0.0123 -0.2797  0.1203
  471MOL0     C63462   3.801  10.008   6.474 -0.1396  0.0718  0.0173
  471MOL0     C63463   3.786   9.937   6.601  0.5423  1.0382  0.5501
  471MOL0     C63464   3.864  10.003   6.713 -0.5757 -0.0565  0.5073
  471MOL0     C63465   3.853   9.934   6.845  0.0037  0.5007 -0.4632
  471MOL0     C63466   3.904  10.027   6.952  0.8901  0.3237 -0.0852
  471MOL0     N63467   3.882   9.982   7.093  0.5686  0.0744 -0.4661
  471MOL0     C63468   3.779   9.897   7.132 -0.4130  0.3026 -0.7657
  471MOL0     C63469   3.788   9.894   7.273  0.3856 -0.4327  1.3769
  471MOL0     C63470   3.693   9.826   7.374 -0.5519  1.1296 -0.4687
  471MOL0     C63471   3.737   9.837   7.521 -0.3597  0.6374 -0.8714
  471MOL0     C63472   3.639   9.764   7.606  0.2019 -0.1652 -0.2367
  471MOL0     C63473   3.673   9.766   7.756 -0.8367 -0.5418  0.0724
  471MOL0     O63474   3.641   9.892   7.816  0.8301  0.4106 -0.9068
  471MOL0     C63475   3.623   9.870   7.950 -0.0328  0.4144 -0.5050
  471MOL0     C63476   3.500   9.906   8.009 -0.5934  0.0102  0.6565
  471MOL0     C63477   3.478   9.913   8.142  0.1700 -0.3590  0.3141
  471MOL0     C63478   3.592   9.893   8.227  0.7342  0.3053 -0.3998
  471MOL0     C63479   3.577   9.902   8.380 -0.3824 -0.5691  0.7557
  471MOL0     O63480   3.464   9.958   8.422  0.2768  0.3975  0.0251
  471MOL0     C63481   3.466  10.010   8.550 -0.2786 -0.5742  0.4023
  471MOL0     C63482   3.445  10.146   8.563  0.5424  0.5087  0.7385
  471MOL0     C63483   3.454  10.205   8.691  0.0617  0.1367 -0.3289
  471MOL0     C63484   3.490  10.132   8.809 -0.7423 -0.4304 -0.2153
  471MOL0     O63485   3.512  10.181   8.941  0.4222  0.1254  0.4342
  471MOL0     C63486   3.578  10.311   8.948  0.4487  0.9414 -0.6908
  471MOL0     C63487   3.598  10.354   9.093  0.1938 -0.8901 -0.6391
  471MOL0     C63488   3.693  10.266   9.178  0.0279  1.4968  1.0678
  471MOL0     C63489   3.714  10.317   9.313 -0.3275  0.8545  0.1140
  471MOL0     C63490   3.825  10.237   9.391 -0.2019 -0.6900  0.4441
  471MOL0     C63491   3.867  10.303   9.529  0.5460  0.4818  0.2482
  471MOL0     C63492   3.991  10.235   9.590  0.4561 -0.4198  0.3346
  471MOL0     C63493   4.119  10.309   9.549 -0.6100  0.2544  0.3132
  471MOL0    Cl63494   4.234  10.214   9.656 -0.3639  0.0209  0.4021
  471MOL0     C63495   3.511   9.999   8.789 -0.5472  0.0529  0.0414
  471MOL0     C63496   3.496   9.936   8.668  0.0894 -0.0644  0.2825
  471MOL0     O63497   3.673   9.864   8.451 -0.2308  0.5414  0.3935
  471MOL0     C63498   3.707   9.844   8.175  0.3697  0.2739  0.4642
  471MOL0     C63499   3.726   9.839   8.036 -0.2512  0.9105  0.1973
  471MOL0     N63500   3.910   9.952   7.302 -0.4025  0.0741 -0.0504
  471MOL0     N63501   3.966  10.007   7.194 -0.7694  0.2232 -0.0047
  471MOL0     C63502   3.717  10.404   6.197  0.2443 -0.0969 -0.0475
  471MOL0     C63503   3.716  10.537   6.251 -1.4270 -0.1153  1.2226
  471MOL0     C63504   3.471  10.875   6.402  0.7679 -0.3529 -0.2343
  471MOL0     C63505   3.545  10.994   6.391  0.1259  0.1664  0.5067
  471MOL0     C63506   3.488  11.118   6.431 -0.1829  0.7624 -0.8931
  471MOL0     C63507   3.365  11.120   6.499  0.6642  0.2604 -0.6597
  471MOL0     O63508   3.322  11.241   6.537  0.8152 -0.3317  0.5450
  471MOL0     C63509   3.176  11.258   6.573 -0.4215  0.2280  0.1631
  471MOL0     C63510   3.148  11.231   6.719  1.0602  0.1913  0.0223
  471MOL0     C63511   3.213  11.342   6.817 -0.1902 -0.0998  0.6213
  471MOL0     C63512   3.286  11.289   6.941 -0.1359  0.4753  0.0296
  471MOL0     C63513   3.381  11.176   6.917  1.2157 -0.0927 -0.6946
  471MOL0     C63514   3.457  11.082   6.899 -0.4896  0.4875 -0.1114
  471MOL0     C63515   3.292  11.005   6.510 -0.5120  0.3869 -0.3526
  471MOL0     C63516   3.346  10.876   6.466 -0.1283 -0.2190 -0.8894
  471MOL0     C63517   3.274  10.749   6.502  0.3226 -0.1110 -0.4603
  471MOL0     H63518   3.487  10.483   6.500  1.4071 -0.9481  1.5914
  471MOL0     H63519   3.513  10.253   6.423 -1.8063  0.1290 -1.8388
  471MOL0     H63520   3.796  10.126   6.078  0.6935  1.0170  0.6251
  471MOL0     H63521   3.856  10.171   6.242 -0.2903  0.8820  0.5481
  471MOL0     H63522   3.891   9.943   6.199 -0.6013 -2.3622  1.4935
  471MOL0     H63523   3.723   9.908   6.139  0.4900  0.0910  0.1186
  471MOL0     H63524   3.776   9.820   6.359 -0.8968 -0.5108  0.7919
  471MOL0     H63525   3.637   9.925   6.345  0.1375  0.3459 -2.3883
  471MOL0     H63526   3.910  10.014   6.468 -0.1671  0.5033 -0.0924
  471MOL0     H63527   3.748  10.104   6.466 -0.5405 -0.3143 -2.8712
  471MOL0     H63528   3.684   9.950   6.638 -0.0482 -0.3065 -0.5246
  471MOL0     H63529   3.814   9.832   6.587 -1.7596  0.0032  2.8739
  471MOL0     H63530   3.970  10.014   6.691 -0.3595 -0.2793  1.4198
  471MOL0     H63531   3.832  10.107   6.711 -0.9390  0.0073  4.0403
  471MOL0     H63532   3.919   9.846   6.849  1.6461  1.7138  1.1417
  471MOL0     H63533   3.751   9.907   6.874  1.3226 -1.5918  2.8370
  471MOL0     H63534   4.010  10.056   6.955  1.1606 -0.4979 -1.1247
  471MOL0     H63535   3.855  10.123   6.934  1.6337  0.7928  0.3471
  471MOL0     H63536   3.698   9.857   7.070 -3.2439  1.5832  1.8282
  471MOL0     H63537   3.598   9.880   7.365 -0.8394  0.6323 -0.4437
  471MOL0     H63538   3.676   9.721   7.347 -2.6778  1.0516  0.9276
  471MOL0     H63539   3.833   9.786   7.530 -0.1067  1.1487 -0.6267
  471MOL0     H63540   3.750   9.945   7.535  0.7107  0.9143 -3.5194
  471MOL0     H63541   3.647   9.657   7.584  0.5183 -0.5931  1.8124
  471MOL0     H63542   3.538   9.806   7.599  0.7814  2.3433  3.5405
  471MOL0     H63543   3.778   9.743   7.777  0.5300  5.0719  0.9082
  471MOL0     H63544   3.620   9.679   7.796 -1.6298  0.2386  0.7823
  471MOL0     H63545   3.419   9.934   7.942  1.5224  0.3574 -1.9211
  471MOL0     H63546   3.388   9.950   8.190  0.1347 -1.9818  1.5923
  471MOL0     H63547   3.434  10.215   8.481  2.4401  1.4081  1.1884
  471MOL0     H63548   3.439  10.312   8.695  2.8923  0.5740  1.2558
  471MOL0     H63549   3.671  10.310   8.890  1.6247 -1.9310  1.0104
  471MOL0     H63550   3.508  10.380   8.901 -1.9054 -0.7485  0.1760
  471MOL0     H63551   3.644  10.453   9.080 -1.7287  0.0756 -0.5099
  471MOL0     H63552   3.503  10.364   9.147  0.0943  0.7507 -1.0595
  471MOL0     H63553   3.669  10.159   9.179  1.0553  1.2512  0.4116
  471MOL0     H63554   3.791  10.265   9.130  0.1595 -0.2083  1.2976
  471MOL0     H63555   3.616  10.302   9.358  0.3825 -1.3380  1.0672
  471MOL0     H63556   3.741  10.422   9.306  0.1793  0.9872  3.0179
  471MOL0     H63557   3.921  10.244   9.339 -0.7315 -0.4785 -0.5171
  471MOL0     H63558   3.803  10.130   9.400 -0.9086 -0.4599  1.7350
  471MOL0     H63559   3.887  10.411   9.532 -1.5473  0.9165  0.1798
  471MOL0     H63560   3.787  10.284   9.601  0.7700  0.6989  0.5602
  471MOL0     H63561   3.985  10.131   9.556  0.6750 -0.8587  1.5797
  471MOL0     H63562   3.989  10.239   9.699  1.0908 -2.2714  0.4621
  471MOL0     H63563   4.160  10.298   9.448  1.4711  0.8553  1.0273
  471MOL0     H63564   4.111  10.416   9.572 -0.7807  0.2557  0.2511
  471MOL0     H63565   3.538   9.934   8.872 -0.1269 -1.5889 -1.3153
  471MOL0     H63566   3.528   9.834   8.653  2.5523  0.6379  0.2104
  471MOL0     H63567   3.801   9.833   8.228  0.7402 -0.3967 -0.3096
  471MOL0     H63568   3.822   9.813   7.994  0.2307  0.4493  1.5214
  471MOL0     H63569   3.780  10.379   6.112 -0.1465 -3.0755  0.4044
  471MOL0     H63570   3.771  10.608   6.190  1.3944 -1.4678  2.0013
  471MOL0     H63571   3.639  10.993   6.337 -0.9250 -2.7261 -1.4559
  471MOL0     H63572   3.534  11.212   6.403 -0.8942  1.4241  0.1251
  471MOL0     H63573   3.111  11.192   6.514  0.4688 -0.6707  0.1627
  471MOL0     H63574   3.147  11.362   6.559 -0.6756  0.5337  2.6306
  471MOL0     H63575   3.189  11.134   6.749 -1.8918 -0.6248  1.7082
  471MOL0     H63576   3.041  11.231   6.742  0.7880 -2.2096 -0.9624
  471MOL0     H63577   3.138  11.412   6.854 -0.1123 -0.0428  0.6718
  471MOL0     H63578   3.300  11.392   6.773  0.1672 -1.0971  0.1656
  471MOL0     H63579   3.336  11.373   6.992 -1.4361  0.3322  1.6241
  471MOL0     H63580   3.202  11.257   7.004  0.7130  2.4528  2.3459
  471MOL0     H63581   3.515  11.000   6.862 -0.7522 -0.7587  2.0761
  471MOL0     H63582   3.194  11.006   6.555  0.1676  2.0981  1.2595
  471MOL0     H63583   3.246  10.703   6.407  1.3344 -1.8725  0.0530
  471MOL0     H63584   3.349  10.689   6.554 -0.4317 -1.7377 -1.2155
  471MOL0     H63585   3.188  10.756   6.569 -0.2095 -3.1359 -0.6845
  472MOL0     O63586   1.860   6.509   9.594  0.4398 -0.5520  1.0460
  472MOL0     C63587   1.948   6.589   9.579  0.4873 -0.8722 -0.0500
  472MOL0     O63588   2.006   6.611   9.457 -0.9901  0.2411  0.0321
  472MOL0     C63589   1.982   6.562   9.332 -0.1520  0.9557 -0.5396
  472MOL0     C63590   2.081   6.601   9.236  0.3965  0.6848 -0.2479
  472MOL0     C63591   2.061   6.565   9.105  0.1703 -0.0831 -1.1305
  472MOL0     C63592   1.969   6.473   9.059  0.6995 -0.3568 -0.5623
  472MOL0     O63593   1.964   6.445   8.927 -0.6842 -0.1981 -0.0518
  472MOL0     C63594   1.932   6.307   8.883 -0.5413 -0.8445  0.4299
  472MOL0     C63595   2.025   6.194   8.938 -0.3651 -1.0237 -0.6308
  472MOL0     C63596   2.168   6.225   8.906  0.1848 -0.0692  0.2603
  472MOL0     C63597   2.256   6.157   9.007 -0.5400 -0.0486  0.7258
  472MOL0     C63598   2.349   6.248   9.074 -0.8542 -1.0436 -0.1263
  472MOL0     C63599   2.267   6.301   9.192 -0.3146 -0.2340  0.1827
  472MOL0     C63600   2.350   6.381   9.293 -0.3652 -0.6925 -0.2443
  472MOL0     C63601   2.273   6.368   9.429 -0.1678  0.1590 -0.1352
  472MOL0     N63602   2.318   6.459   9.533 -0.1935 -0.2104 -0.3827
  472MOL0     C63603   2.407   6.570   9.529  0.9208  0.8495  0.4376
  472MOL0     C63604   2.423   6.604   9.659 -0.0981  0.2706 -0.4924
  472MOL0     C63605   2.517   6.694   9.725 -0.0055  0.0794 -0.4855
  472MOL0     C63606   2.426   6.806   9.779  0.1184 -0.2668 -0.3085
  472MOL0     C63607   2.518   6.910   9.863  0.2875  0.5779 -0.0203
  472MOL0     C63608   2.446   6.999   9.966  0.0077 -0.6627  1.0433
  472MOL0     O63609   2.358   7.072   9.887  0.4152 -0.0727  0.8979
  472MOL0     C63610   2.321   7.198   9.922 -0.2507  0.3701  0.0923
  472MOL0     C63611   2.255   7.266   9.820  0.9275 -0.3182 -1.1167
  472MOL0     C63612   2.204   7.399   9.838  0.5540  0.1131  0.5477
  472MOL0     C63613   2.247   7.480   9.949 -0.2693  0.6893  0.6168
  472MOL0     C63614   2.223   7.623   9.965 -0.2977  0.9003  0.3717
  472MOL0     O63615   2.283   7.690  10.068 -0.1234  0.6498  0.2663
  472MOL0     C63616   2.285   7.825  10.064 -1.4551 -0.3081 -0.6468
  472MOL0     C63617   2.261   7.893  10.183  0.1037 -0.3428  0.1292
  472MOL0     C63618   2.284   8.029  10.179  0.3405  0.3219 -0.6375
  472MOL0     C63619   2.330   8.090  10.068  0.1887 -0.3104 -0.0530
  472MOL0     O63620   2.366   8.219  10.089 -0.3848  0.1358 -0.1997
  472MOL0     C63621   2.355   8.331   9.998 -1.1895  0.5858 -0.4340
  472MOL0     C63622   2.366   8.474  10.076  0.9344 -0.1138  0.4201
  472MOL0     C63623   2.317   8.577   9.972  0.2569  0.3578  0.4623
  472MOL0     C63624   2.291   8.717  10.021 -0.7845  0.1719  0.2433
  472MOL0     C63625   2.237   8.811   9.907  0.0522 -0.0967  0.0257
  472MOL0     C63626   2.093   8.767   9.869  0.6369 -0.0547  0.4239
  472MOL0     C63627   2.048   8.827   9.730 -0.2646 -0.0373 -0.5812
  472MOL0     C63628   1.917   8.768   9.692 -0.1239  0.0713 -0.4942
  472MOL0    Cl63629   1.949   8.629   9.595  0.0782 -0.3919 -0.0756
  472MOL0     C63630   2.346   8.025   9.943 -0.1412 -0.0441  0.5909
  472MOL0     C63631   2.333   7.885   9.944 -0.0203  0.6674  0.2025
  472MOL0     O63632   2.146   7.664   9.877 -0.6320 -0.0566  0.1981
  472MOL0     C63633   2.315   7.412  10.051 -0.8505 -0.0408  0.7870
  472MOL0     C63634   2.359   7.276  10.042  0.2870  0.4022 -0.2186
  472MOL0     N63635   2.348   6.512   9.738 -0.0438 -0.2531  0.3491
  472MOL0     N63636   2.299   6.425   9.662 -0.4314  0.1079  0.7415
  472MOL0     C63637   1.878   6.419   9.156  0.8053 -1.1420 -1.0679
  472MOL0     C63638   1.880   6.476   9.287 -0.4260 -0.1528 -0.6582
  472MOL0     C63639   1.988   6.670   9.700 -0.6946 -1.3739  0.6993
  472MOL0     C63640   1.953   6.632   9.828  0.2517  0.1596 -0.4348
  472MOL0     C63641   1.974   6.704   9.938  0.2681  0.3241 -0.3943
  472MOL0     C63642   2.038   6.820   9.928  0.0058 -0.3929 -1.1127
  472MOL0     O63643   2.037   6.893  10.044  0.0633 -0.0861  0.6124
  472MOL0     C63644   1.911   6.921  10.116  0.0222  0.5557 -0.2670
  472MOL0     C63645   1.923   7.056  10.193  1.0777  0.9021  1.0433
  472MOL0     C63646   2.013   7.045  10.317  0.3767 -0.1641 -0.9400
  472MOL0     C63647   2.025   6.913  10.395  0.1368 -0.2516 -0.2116
  472MOL0     C63648   2.115   6.946  10.503 -0.5194  0.6866 -0.4768
  472MOL0     C63649   2.202   6.971  10.585 -0.6574 -0.3957 -0.5242
  472MOL0     C63650   2.090   6.865   9.803 -0.0878 -0.0097 -0.6188
  472MOL0     C63651   2.070   6.786   9.688 -0.2834 -0.0900  0.3022
  472MOL0     C63652   2.120   6.837   9.551  0.0116  0.6281  0.7476
  472MOL0     H63653   2.149   6.679   9.267  0.6403  2.5503 -4.7357
  472MOL0     H63654   2.134   6.604   9.034 -1.3105 -2.6740 -4.3791
  472MOL0     H63655   1.827   6.295   8.912 -0.2264 -0.1127  1.9604
  472MOL0     H63656   1.933   6.307   8.773 -0.3757  0.1453  0.4237
  472MOL0     H63657   2.006   6.101   8.885  1.3033 -0.2354 -2.7955
  472MOL0     H63658   2.013   6.189   9.047  1.2519 -1.1120 -0.4403
  472MOL0     H63659   2.185   6.333   8.896 -4.3895  1.0018  1.8802
  472MOL0     H63660   2.182   6.191   8.803 -2.8931  0.6716 -0.5032
  472MOL0     H63661   2.197   6.097   9.078 -1.7624 -3.1318 -2.5684
  472MOL0     H63662   2.315   6.100   8.934 -1.0860 -0.1563  0.3593
  472MOL0     H63663   2.434   6.197   9.120 -2.1761  0.2027  4.1349
  472MOL0     H63664   2.391   6.328   9.011  0.1560 -0.0400  1.7366
  472MOL0     H63665   2.181   6.359   9.157  0.0828  0.1090 -0.2507
  472MOL0     H63666   2.234   6.210   9.242  2.3392 -0.8771  0.9304
  472MOL0     H63667   2.338   6.486   9.265 -2.1692 -1.1874 -1.5217
  472MOL0     H63668   2.454   6.353   9.312 -0.5407  0.3210  2.7040
  472MOL0     H63669   2.166   6.388   9.428  0.0428  1.8340  2.3147
  472MOL0     H63670   2.273   6.266   9.468  1.6431 -0.1665 -0.8530
  472MOL0     H63671   2.450   6.616   9.440 -0.2335  2.0623  0.4903
  472MOL0     H63672   2.562   6.636   9.807 -0.5823  2.4242  1.5975
  472MOL0     H63673   2.590   6.732   9.653 -0.1156 -0.0448 -0.6655
  472MOL0     H63674   2.378   6.858   9.696  0.7832  0.7793 -0.0528
  472MOL0     H63675   2.349   6.763   9.845  1.5714  0.4646  1.9729
  472MOL0     H63676   2.576   6.969   9.791  0.1367  0.7306 -0.0180
  472MOL0     H63677   2.597   6.848   9.907  1.0763  0.5698 -1.3893
  472MOL0     H63678   2.509   7.065  10.025 -2.3787  0.8730  2.0278
  472MOL0     H63679   2.391   6.934  10.035 -3.5923  0.4624 -0.4836
  472MOL0     H63680   2.214   7.224   9.728 -2.1913 -1.7621  0.7746
  472MOL0     H63681   2.135   7.449   9.771  1.4257 -0.0832 -0.5272
  472MOL0     H63682   2.228   7.850  10.277 -2.9431 -1.4335 -1.2694
  472MOL0     H63683   2.271   8.092  10.266  1.8341  3.3194 -2.4242
  472MOL0     H63684   2.430   8.318   9.919  0.0179 -3.1812  1.0986
  472MOL0     H63685   2.252   8.314   9.965 -2.2355  0.8605  2.4354
  472MOL0     H63686   2.291   8.472  10.155  1.0266  2.8680  0.7003
  472MOL0     H63687   2.469   8.481  10.113  0.5351  2.0428  1.2923
  472MOL0     H63688   2.389   8.580   9.890  0.0660 -2.5228  0.0913
  472MOL0     H63689   2.225   8.539   9.927 -0.0301  0.5332  0.8904
  472MOL0     H63690   2.377   8.773  10.061  1.7480 -0.8160 -3.3038
  472MOL0     H63691   2.223   8.703  10.105 -0.1829  0.1301  0.7333
  472MOL0     H63692   2.307   8.808   9.822  0.5726 -2.0125  0.4902
  472MOL0     H63693   2.236   8.914   9.943 -1.7098 -0.2930  0.6431
  472MOL0     H63694   2.081   8.659   9.856  0.3795  0.0863 -0.6966
  472MOL0     H63695   2.038   8.804   9.956  0.2269  1.7765 -0.5576
  472MOL0     H63696   2.116   8.828   9.644 -0.4861 -0.9112 -0.7766
  472MOL0     H63697   2.037   8.932   9.758  2.3270 -0.1944  1.5088
  472MOL0     H63698   1.854   8.734   9.775 -1.2349 -0.3301 -1.4833
  472MOL0     H63699   1.855   8.832   9.628  0.6660  2.0129  0.5954
  472MOL0     H63700   2.369   8.082   9.854  0.4182 -1.6678 -0.3518
  472MOL0     H63701   2.346   7.821   9.857  1.2493 -1.5780  1.9481
  472MOL0     H63702   2.355   7.472  10.132  3.4512 -0.9730 -0.3859
  472MOL0     H63703   2.427   7.233  10.115  2.4030 -1.1421 -2.8745
  472MOL0     H63704   1.794   6.359   9.121 -0.4241 -0.7211  0.9753
  472MOL0     H63705   1.809   6.434   9.358  1.1691  1.4284  2.0071
  472MOL0     H63706   1.909   6.533   9.838 -1.1764  1.0358  3.7826
  472MOL0     H63707   1.940   6.670  10.036  0.7427  0.2426 -0.2548
  472MOL0     H63708   1.899   6.836  10.185  0.0181 -0.5141 -1.5549
  472MOL0     H63709   1.824   6.923  10.050 -1.2139  1.1453  1.2937
  472MOL0     H63710   1.819   7.077  10.219  0.1939 -2.8913  1.1905
  472MOL0     H63711   1.946   7.137  10.124 -1.5803  0.5937 -0.3137
  472MOL0     H63712   1.960   7.120  10.377 -1.3246  1.9081 -4.6495
  472MOL0     H63713   2.114   7.085  10.301  0.5157 -0.7091 -1.4352
  472MOL0     H63714   1.931   6.872  10.433 -0.2942  0.3330 -0.6264
  472MOL0     H63715   2.074   6.842  10.327 -1.6282 -1.0732 -0.6822
  472MOL0     H63716   2.272   7.005  10.658  0.3496 -2.5762 -0.3787
  472MOL0     H63717   2.145   6.959   9.802  2.3610 -1.3399 -0.2637
  472MOL0     H63718   2.040   6.874   9.486  0.7037  1.9734  0.6231
  472MOL0     H63719   2.188   6.921   9.569 -0.5409  1.2634 -0.0356
  472MOL0     H63720   2.184   6.763   9.502  0.4432  1.2602  0.3410
  473MOL0     O63721  10.068   5.518  11.243  0.1501  0.4431 -0.9232
  473MOL0     C63722  10.000   5.555  11.150  0.7831 -0.3148 -0.7435
  473MOL0     O63723   9.865   5.567  11.148 -0.0931 -0.3021  0.7695
  473MOL0     C63724   9.791   5.607  11.254  0.0927  0.4815 -0.0322
  473MOL0     C63725   9.838   5.654  11.375  0.2740  0.1703 -0.3210
  473MOL0     C63726   9.756   5.682  11.477  0.1793  0.4650  0.1170
  473MOL0     C63727   9.615   5.659  11.472 -0.5629 -0.4708  0.6383
  473MOL0     O63728   9.525   5.678  11.581  0.1244  0.3032  0.6120
  473MOL0     C63729   9.526   5.805  11.645 -0.1414  0.1233  0.9342
  473MOL0     C63730   9.390   5.846  11.678 -0.5629  0.2608  0.1482
  473MOL0     C63731   9.349   5.788  11.812 -0.0673 -0.3706  0.7703
  473MOL0     C63732   9.211   5.851  11.829  0.8569 -0.3590 -0.3127
  473MOL0     C63733   9.162   5.848  11.975 -0.8147 -0.8343 -0.1027
  473MOL0     C63734   9.021   5.899  11.984 -0.6973 -0.5494  0.0287
  473MOL0     C63735   8.979   5.920  12.135 -0.0226 -0.4397  0.0419
  473MOL0     C63736   9.054   6.033  12.195 -0.1505 -0.0781 -0.6078
  473MOL0     N63737   9.005   6.071  12.333 -0.2846  0.2435  0.9550
  473MOL0     C63738   9.003   5.988  12.443 -0.0186  0.9744  0.3616
  473MOL0     C63739   8.964   6.074  12.546  0.0711 -0.1478 -0.0312
  473MOL0     C63740   8.962   6.042  12.688 -0.1116  0.2113 -0.1029
  473MOL0     C63741   9.035   6.154  12.762  0.4908 -0.4823 -0.2114
  473MOL0     C63742   9.055   6.122  12.904  0.5718 -1.2535 -0.6950
  473MOL0     C63743   9.156   6.212  12.970 -0.5604  0.2851 -0.2334
  473MOL0     O63744   9.285   6.197  12.910  0.4784  0.4510  0.1686
  473MOL0     C63745   9.376   6.293  12.942  0.0211  0.2897 -0.0289
  473MOL0     C63746   9.490   6.296  12.858  0.5988  0.2555 -1.0682
  473MOL0     C63747   9.596   6.378  12.881 -0.8123 -0.3992 -0.2932
  473MOL0     C63748   9.593   6.457  12.998  0.5529 -1.0253  0.4227
  473MOL0     C63749   9.713   6.525  13.034  1.0078  0.4898  0.1397
  473MOL0     O63750   9.819   6.517  12.953 -0.0701  0.6554 -0.2827
  473MOL0     C63751   9.915   6.609  12.945  0.5129 -0.3991 -0.5755
  473MOL0     C63752   9.891   6.749  12.963  0.2403 -0.1216 -0.5798
  473MOL0     C63753  10.000   6.837  12.927  0.7542 -0.6345 -0.5107
  473MOL0     C63754  10.117   6.797  12.870 -0.1707 -0.6390  1.2242
  473MOL0     O63755  10.212   6.890  12.834  0.2890  0.3507 -0.0931
  473MOL0     C63756  10.272   6.879  12.705  0.6879 -0.8363  0.9369
  473MOL0     C63757  10.328   7.011  12.653  0.1277  1.3057  0.2432
  473MOL0     C63758  10.243   7.131  12.657 -1.1024  0.1437 -0.5136
  473MOL0     C63759  10.301   7.246  12.564  0.6188 -0.4216  0.6828
  473MOL0     C63760  10.431   7.299  12.618 -0.1974  0.0181 -0.1847
  473MOL0     C63761  10.464   7.437  12.563 -0.2127  0.1871 -0.5603
  473MOL0     C63762  10.607   7.476  12.597 -0.1232 -0.1015  0.8319
  473MOL0     C63763  10.613   7.593  12.699 -0.0217 -0.2182 -0.4103
  473MOL0    Cl63764  10.579   7.511  12.858  0.4035 -0.2139  0.1500
  473MOL0     C63765  10.136   6.662  12.845  0.3060 -1.2254  0.0857
  473MOL0     C63766  10.040   6.566  12.893 -0.4628 -0.1177  0.0548
  473MOL0     O63767   9.711   6.594  13.132  0.4361  0.2451 -0.4500
  473MOL0     C63768   9.480   6.462  13.078 -0.3026 -0.3284  0.4432
  473MOL0     C63769   9.366   6.381  13.051 -0.2209 -0.7479 -0.3072
  473MOL0     N63770   8.939   6.196  12.484  0.4573 -0.0250  1.1722
  473MOL0     N63771   8.948   6.192  12.356  0.0882  0.1072 -0.3011
  473MOL0     C63772   9.569   5.613  11.349  0.5251 -0.8570 -0.0835
  473MOL0     C63773   9.654   5.580  11.238  0.2098  0.2931 -0.0806
  473MOL0     C63774  10.063   5.576  11.017 -0.8327  0.6198  0.1891
  473MOL0     C63775   9.999   5.652  10.926 -1.2991  0.4842  0.2699
  473MOL0     C63776  10.039   5.664  10.794  0.6234 -0.4834  0.5502
  473MOL0     C63777  10.160   5.609  10.755 -0.0462  0.4190 -0.9809
  473MOL0     O63778  10.218   5.596  10.632 -0.2477  0.3964  0.1653
  473MOL0     C63779  10.132   5.605  10.512  0.2800  0.9797  0.2697
  473MOL0     C63780  10.236   5.603  10.398  0.2225  0.2932  0.4141
  473MOL0     C63781  10.328   5.481  10.399  0.0069  0.7871 -0.0137
  473MOL0     C63782  10.259   5.349  10.389 -0.2873  0.5919  0.2243
  473MOL0     C63783  10.351   5.238  10.342  0.4875  0.2236 -0.1440
  473MOL0     C63784  10.427   5.145  10.310  0.7785  0.1286  0.9339
  473MOL0     C63785  10.236   5.545  10.852 -0.4196 -0.2954 -0.4748
  473MOL0     C63786  10.189   5.528  10.986  0.1456 -0.2581  0.2506
  473MOL0     C63787  10.278   5.451  11.075 -0.2582 -0.6912 -0.1466
  473MOL0     H63788   9.943   5.670  11.394  0.0022  1.5886  0.1477
  473MOL0     H63789   9.795   5.725  11.568 -0.6984  0.0286  0.7207
  473MOL0     H63790   9.591   5.782  11.730  1.5971 -4.0344 -1.2371
  473MOL0     H63791   9.576   5.879  11.582  0.0472 -0.2947  0.5897
  473MOL0     H63792   9.328   5.815  11.594  1.3875  0.7653 -1.5446
  473MOL0     H63793   9.385   5.954  11.689 -1.8890  0.5041 -2.2848
  473MOL0     H63794   9.424   5.811  11.888  1.8474 -2.4714 -0.3676
  473MOL0     H63795   9.347   5.679  11.803  1.2517 -0.2844 -1.3580
  473MOL0     H63796   9.227   5.955  11.799  1.6305 -0.8606 -1.7474
  473MOL0     H63797   9.135   5.808  11.763 -1.3994  1.0106  1.2410
  473MOL0     H63798   9.156   5.745  12.012 -1.4202 -0.6345  0.3767
  473MOL0     H63799   9.234   5.908  12.033 -1.8203 -1.1601  1.5386
  473MOL0     H63800   8.994   5.988  11.925 -1.8865 -0.5411  0.5710
  473MOL0     H63801   8.953   5.826  11.941 -0.4173  0.0781 -1.5700
  473MOL0     H63802   9.011   5.832  12.193  2.4270  0.5376  0.3120
  473MOL0     H63803   8.872   5.930  12.153  0.1850  1.3637  0.4012
  473MOL0     H63804   9.152   5.988  12.213 -0.2722  0.1513  0.7591
  473MOL0     H63805   9.062   6.116  12.124 -0.5118  0.6127  0.1414
  473MOL0     H63806   9.040   5.888  12.423 -1.4191  0.7115 -1.1327
  473MOL0     H63807   8.857   6.037  12.720 -0.0453  0.8687  0.2441
  473MOL0     H63808   9.008   5.944  12.700 -1.9457 -0.6974 -0.1634
  473MOL0     H63809   9.132   6.178  12.716  0.9568 -0.0175  0.9879
  473MOL0     H63810   8.966   6.239  12.754 -0.1212 -0.6492  2.3978
  473MOL0     H63811   9.084   6.017  12.919  0.5853 -0.9106  2.2070
  473MOL0     H63812   8.961   6.133  12.959  0.8741  1.0742 -0.5603
  473MOL0     H63813   9.161   6.191  13.077 -1.9638 -1.1441 -0.4051
  473MOL0     H63814   9.114   6.312  12.959 -2.5384 -0.0995  2.6300
  473MOL0     H63815   9.511   6.218  12.785  2.9277 -0.0369 -0.1442
  473MOL0     H63816   9.683   6.356  12.819 -0.5185 -2.1507  0.6796
  473MOL0     H63817   9.800   6.795  13.003 -0.5654 -1.2282 -1.0937
  473MOL0     H63818   9.983   6.943  12.939 -1.9224 -1.2250  2.3329
  473MOL0     H63819  10.341   6.796  12.720 -0.1864 -1.6541  0.4871
  473MOL0     H63820  10.191   6.860  12.634 -0.0592 -1.4417  1.9272
  473MOL0     H63821  10.422   7.028  12.706  0.0074 -1.2768  1.4253
  473MOL0     H63822  10.356   6.987  12.550 -2.6712 -1.2464 -0.0530
  473MOL0     H63823  10.149   7.096  12.613 -0.7113 -1.3421 -0.2427
  473MOL0     H63824  10.221   7.162  12.760 -2.4317  5.2503 -2.0661
  473MOL0     H63825  10.231   7.330  12.556  1.8532  0.3982 -3.7728
  473MOL0     H63826  10.310   7.202  12.464 -1.6681  0.0218  0.2258
  473MOL0     H63827  10.507   7.233  12.576 -1.4231 -1.6266  0.1133
  473MOL0     H63828  10.435   7.304  12.728 -0.5716 -1.0351 -0.1216
  473MOL0     H63829  10.456   7.430  12.454 -3.6908  1.4305 -0.5194
  473MOL0     H63830  10.389   7.510  12.594 -3.4789 -1.7575 -3.1635
  473MOL0     H63831  10.661   7.501  12.506 -0.0716 -0.8708  0.6461
  473MOL0     H63832  10.658   7.387  12.636  1.7252  0.0533 -1.0569
  473MOL0     H63833  10.708   7.645  12.715 -0.2478  0.4531 -1.1617
  473MOL0     H63834  10.544   7.673  12.671 -0.9596 -1.9604 -3.6042
  473MOL0     H63835  10.228   6.635  12.795  1.3125  3.5682 -1.1871
  473MOL0     H63836  10.055   6.461  12.871 -1.2618 -0.2400  0.0674
  473MOL0     H63837   9.480   6.529  13.164  2.9665  0.9524 -0.4331
  473MOL0     H63838   9.291   6.382  13.130 -1.7275  0.3458 -1.6793
  473MOL0     H63839   9.464   5.593  11.331  1.1144 -1.8236 -3.0143
  473MOL0     H63840   9.618   5.550  11.140  0.1535  1.0371 -0.2934
  473MOL0     H63841   9.899   5.691  10.944 -2.0927 -0.8565 -0.9635
  473MOL0     H63842   9.970   5.719  10.730 -1.4225  0.4668  3.3470
  473MOL0     H63843  10.084   5.704  10.506  0.2692  0.9787  0.3328
  473MOL0     H63844  10.060   5.523  10.506 -0.2748  1.3204  1.7003
  473MOL0     H63845  10.300   5.691  10.400  0.0324  0.4241  0.8476
  473MOL0     H63846  10.186   5.602  10.300  0.3363  1.0249  0.3483
  473MOL0     H63847  10.382   5.483  10.494 -1.3321  0.7629  0.7700
  473MOL0     H63848  10.400   5.487  10.317 -0.1487 -0.7149 -0.2892
  473MOL0     H63849  10.223   5.319  10.488  0.0524  0.7773  0.4066
  473MOL0     H63850  10.177   5.344  10.318  0.3756  0.2473 -0.5353
  473MOL0     H63851  10.488   5.058  10.295  0.2345  0.1077 -1.5554
  473MOL0     H63852  10.325   5.504  10.805 -0.5682 -1.6849  0.3937
  473MOL0     H63853  10.348   5.389  11.019  2.2960  1.6990  0.1850
  473MOL0     H63854  10.339   5.519  11.136  1.5343 -2.2043 -0.1701
  473MOL0     H63855  10.230   5.379  11.142  0.8633 -0.9471  0.4054
  474MOL0     O63856   8.932   8.026   7.203  0.2097 -0.1742 -0.0139
  474MOL0     C63857   8.877   8.080   7.104  0.0525 -0.2898 -0.2777
  474MOL0     O63858   8.961   8.145   7.007  0.6540  0.6666 -1.5615
  474MOL0     C63859   9.091   8.176   7.030  0.7474  0.3860 -0.8221
  474MOL0     C63860   9.140   8.215   7.151  0.4080  0.7053  0.0003
  474MOL0     C63861   9.280   8.253   7.167  0.3250  0.4596  0.5592
  474MOL0     C63862   9.370   8.234   7.058  0.4284  0.3083 -0.1496
  474MOL0     O63863   9.503   8.248   7.065 -0.3974  0.1059 -0.3378
  474MOL0     C63864   9.559   8.338   7.165  0.8565 -0.4936  0.2221
  474MOL0     C63865   9.516   8.488   7.137 -0.0317 -0.0937 -0.9492
  474MOL0     C63866   9.593   8.595   7.228  0.6590 -0.2547  0.3359
  474MOL0     C63867   9.542   8.742   7.228  0.3954 -0.8829  0.5489
  474MOL0     C63868   9.654   8.850   7.244  0.0093 -0.2812 -0.4169
  474MOL0     C63869   9.592   8.995   7.257 -0.4642  0.6347 -0.0601
  474MOL0     C63870   9.705   9.092   7.299 -0.9084  0.9054  0.3006
  474MOL0     C63871   9.638   9.211   7.355  0.2120 -0.5094 -0.2217
  474MOL0     N63872   9.557   9.280   7.251 -0.3554 -0.4893 -0.8329
  474MOL0     C63873   9.420   9.320   7.265  0.1296 -0.1786 -1.0756
  474MOL0     C63874   9.402   9.401   7.155  1.3442  0.1100  0.2924
  474MOL0     C63875   9.274   9.468   7.114 -0.3164 -0.6356  0.4130
  474MOL0     C63876   9.249   9.433   6.965  0.0040  0.1300  0.3673
  474MOL0     C63877   9.098   9.452   6.923  0.1396 -0.1159 -0.2401
  474MOL0     C63878   9.077   9.463   6.768 -0.7828 -0.7774 -0.3496
  474MOL0     O63879   9.134   9.370   6.679  0.7960 -0.2363  0.8443
  474MOL0     C63880   9.078   9.245   6.656  0.0147  0.6381 -0.8258
  474MOL0     C63881   8.973   9.178   6.730  0.7500  0.1371 -0.3807
  474MOL0     C63882   8.931   9.047   6.706 -0.3548  0.7164 -0.1003
  474MOL0     C63883   9.000   8.969   6.609  0.2884 -0.4796  0.4826
  474MOL0     C63884   8.943   8.833   6.575 -0.3027 -0.5645 -0.5616
  474MOL0     O63885   9.004   8.770   6.473 -0.1544 -0.4100 -0.5792
  474MOL0     C63886   8.957   8.648   6.429 -0.2209  0.2320  0.3631
  474MOL0     C63887   9.058   8.553   6.396  0.5631  0.0367 -0.1583
  474MOL0     C63888   9.025   8.421   6.355 -0.4398 -0.1127  0.2801
  474MOL0     C63889   8.892   8.388   6.324  0.0962 -0.1061 -0.0384
  474MOL0     O63890   8.875   8.262   6.286  0.3094 -0.6308  0.1176
  474MOL0     C63891   8.743   8.202   6.260  0.4381 -0.1570 -0.0953
  474MOL0     C63892   8.744   8.067   6.305 -1.2741  1.2634 -0.2184
  474MOL0     C63893   8.765   8.042   6.458 -0.6125 -0.2378  0.6960
  474MOL0     C63894   8.763   7.894   6.491  0.3122  0.0060  0.4877
  474MOL0     C63895   8.759   7.864   6.649  0.5872 -0.7107  0.5576
  474MOL0     C63896   8.754   7.718   6.688 -0.4121 -0.2947 -0.9316
  474MOL0     C63897   8.746   7.722   6.844 -0.0923  0.4024 -0.5002
  474MOL0     C63898   8.782   7.586   6.910  0.0281 -0.1974 -0.4560
  474MOL0    Cl63899   8.697   7.464   6.813 -0.3069 -0.4144  0.6069
  474MOL0     C63900   8.794   8.490   6.336 -0.3155 -0.8460 -0.7811
  474MOL0     C63901   8.821   8.616   6.401 -0.1800 -0.0730 -0.0904
  474MOL0     O63902   8.857   8.790   6.651  0.3640  0.7858 -0.1245
  474MOL0     C63903   9.098   9.034   6.533 -0.0894  0.4636  0.4922
  474MOL0     C63904   9.142   9.168   6.558 -0.6940  0.4553  0.1343
  474MOL0     N63905   9.519   9.408   7.087 -0.2296 -0.2859  0.4264
  474MOL0     N63906   9.605   9.333   7.141  0.4505 -0.8648 -0.1986
  474MOL0     C63907   9.316   8.175   6.943 -0.1437 -0.2394 -0.1984
  474MOL0     C63908   9.183   8.152   6.931 -0.1301 -0.1956  0.2179
  474MOL0     C63909   8.734   8.074   7.083  0.6405 -0.6612  0.2283
  474MOL0     C63910   8.677   8.143   6.968  0.3624 -0.0093 -0.3602
  474MOL0     C63911   8.537   8.149   6.952 -0.0012 -0.8641 -0.3435
  474MOL0     C63912   8.456   8.080   7.033 -0.2121  0.1083  0.4832
  474MOL0     O63913   8.322   8.099   7.006  0.0095 -0.2777  0.5592
  474MOL0     C63914   8.216   8.029   7.073  0.3737  0.2066  0.8610
  474MOL0     C63915   8.194   8.084   7.212  0.1521  0.9293 -0.1119
  474MOL0     C63916   8.157   8.239   7.215 -0.1742  0.1261 -0.0025
  474MOL0     C63917   8.011   8.271   7.175  0.3286 -0.4109 -0.7498
  474MOL0     C63918   7.918   8.184   7.251 -0.2076  0.1789  0.8616
  474MOL0     C63919   7.846   8.110   7.304  0.1678  0.3204 -0.0356
  474MOL0     C63920   8.501   8.013   7.145  0.2259  0.9761 -0.7889
  474MOL0     C63921   8.644   8.010   7.169  0.5353 -0.0588 -0.6185
  474MOL0     C63922   8.689   7.931   7.292  0.2280  0.0283  0.3427
  474MOL0     H63923   9.069   8.217   7.234 -2.4919 -1.5102 -2.2193
  474MOL0     H63924   9.307   8.310   7.255  3.7959 -0.4643  0.2530
  474MOL0     H63925   9.533   8.310   7.268  2.0131  0.5913  0.8324
  474MOL0     H63926   9.668   8.333   7.159  0.7596 -1.0864 -1.9428
  474MOL0     H63927   9.413   8.506   7.168  0.6640  2.9802 -0.0550
  474MOL0     H63928   9.539   8.503   7.031  4.3556  1.8766  0.0628
  474MOL0     H63929   9.700   8.589   7.209  1.0548  0.4704  2.1841
  474MOL0     H63930   9.593   8.559   7.332  0.0945  3.5480  1.8152
  474MOL0     H63931   9.498   8.764   7.130  0.2123  0.2653  0.8728
  474MOL0     H63932   9.462   8.751   7.302  2.0294  0.2406  2.2550
  474MOL0     H63933   9.725   8.825   7.324  0.2817 -4.1308 -1.6149
  474MOL0     H63934   9.705   8.851   7.147  3.9494  1.4782  1.4905
  474MOL0     H63935   9.542   9.026   7.165  2.1191  1.8398 -1.1642
  474MOL0     H63936   9.512   8.991   7.331 -0.8859 -0.2649 -0.5419
  474MOL0     H63937   9.769   9.121   7.216  1.9460  2.8074  2.9328
  474MOL0     H63938   9.765   9.047   7.379  1.6306  1.8526 -0.9578
  474MOL0     H63939   9.578   9.184   7.442  2.0910 -3.1029  0.3824
  474MOL0     H63940   9.718   9.280   7.385 -0.0742 -0.1653 -0.2330
  474MOL0     H63941   9.344   9.300   7.340 -0.9298 -2.7498 -2.7055
  474MOL0     H63942   9.184   9.451   7.174 -1.4888  0.0871 -1.0977
  474MOL0     H63943   9.299   9.575   7.116  1.8730 -1.1022  0.4214
  474MOL0     H63944   9.305   9.491   6.891 -1.1397 -3.1671 -3.4028
  474MOL0     H63945   9.265   9.326   6.954  0.1151  0.3141 -1.5436
  474MOL0     H63946   9.052   9.543   6.964 -0.2289 -0.4196  0.0327
  474MOL0     H63947   9.043   9.366   6.963 -2.1040  0.2730 -2.2778
  474MOL0     H63948   9.136   9.550   6.739  3.6313 -0.9920  5.9032
  474MOL0     H63949   8.970   9.469   6.747 -1.6012 -0.9018  3.0577
  474MOL0     H63950   8.922   9.239   6.804 -0.7387 -0.3770 -0.9507
  474MOL0     H63951   8.853   9.007   6.769  1.3627 -2.4163  0.2253
  474MOL0     H63952   9.159   8.589   6.412  1.3393 -2.9904  3.0823
  474MOL0     H63953   9.106   8.349   6.361 -0.1283  0.1026 -0.9842
  474MOL0     H63954   8.656   8.248   6.308 -0.0366  0.5763 -1.6185
  474MOL0     H63955   8.720   8.194   6.154 -2.7492  0.3727  0.4709
  474MOL0     H63956   8.652   8.018   6.273 -0.0262 -0.2220 -1.7466
  474MOL0     H63957   8.823   8.011   6.253 -0.5325  0.7091  1.4423
  474MOL0     H63958   8.861   8.091   6.475 -0.1405 -0.3386 -1.3274
  474MOL0     H63959   8.688   8.091   6.518  0.4838  2.0511  0.3457
  474MOL0     H63960   8.846   7.840   6.445  0.9709  0.5291  1.0521
  474MOL0     H63961   8.671   7.839   6.472  0.6621 -0.7168  0.8668
  474MOL0     H63962   8.691   7.929   6.705 -0.0589 -1.3988  0.5909
  474MOL0     H63963   8.856   7.907   6.676 -0.6119  3.4853 -1.1441
  474MOL0     H63964   8.660   7.681   6.646 -1.2718  1.3319 -0.5168
  474MOL0     H63965   8.846   7.670   6.655 -0.3000 -0.4587 -0.3829
  474MOL0     H63966   8.649   7.757   6.881 -0.7587 -1.0139 -0.8569
  474MOL0     H63967   8.818   7.795   6.883  1.2353 -0.7173 -0.7994
  474MOL0     H63968   8.891   7.574   6.914  0.2484  1.7341  1.0661
  474MOL0     H63969   8.735   7.585   7.009  0.6837  0.3555 -0.1361
  474MOL0     H63970   8.694   8.468   6.302 -0.7280 -1.6601  0.8369
  474MOL0     H63971   8.749   8.692   6.428  2.3748  2.0661  1.1795
  474MOL0     H63972   9.134   8.966   6.458  0.4449  1.0494  0.2108
  474MOL0     H63973   9.221   9.225   6.510 -0.4505  0.5563  0.6466
  474MOL0     H63974   9.399   8.145   6.881  0.6234  0.6561  0.3636
  474MOL0     H63975   9.134   8.105   6.846  4.0002  2.4076 -4.1399
  474MOL0     H63976   8.739   8.206   6.906 -0.3180  0.3504 -0.6910
  474MOL0     H63977   8.503   8.210   6.869 -0.9007 -0.9964 -0.0741
  474MOL0     H63978   8.240   7.923   7.082 -1.0659 -0.0541  1.9602
  474MOL0     H63979   8.125   8.041   7.012 -0.1333  2.5681  1.9656
  474MOL0     H63980   8.287   8.074   7.269  1.7354 -0.7479 -2.7583
  474MOL0     H63981   8.114   8.026   7.260 -3.4841  1.8068 -4.4953
  474MOL0     H63982   8.224   8.297   7.151 -1.7142  2.0782  0.0684
  474MOL0     H63983   8.173   8.280   7.314  0.2241 -0.0553  0.0093
  474MOL0     H63984   7.984   8.376   7.193 -0.2332 -0.8955  1.5408
  474MOL0     H63985   7.985   8.266   7.069 -0.6198 -1.5503 -0.4766
  474MOL0     H63986   7.789   8.040   7.361  0.6458  0.9423  1.2389
  474MOL0     H63987   8.439   7.951   7.209  0.1860  0.5209 -1.2648
  474MOL0     H63988   8.729   8.008   7.359 -0.3839  2.7166 -2.1881
  474MOL0     H63989   8.605   7.868   7.324  1.4580 -1.7275  0.2510
  474MOL0     H63990   8.759   7.849   7.272 -1.3249 -1.8146  1.9432
  475MOL0     O63991   0.495   3.385   1.645 -0.4282 -0.1531 -0.2174
  475MOL0     C63992   0.490   3.387   1.524 -0.2106  0.1054  0.3077
  475MOL0     O63993   0.574   3.445   1.439 -0.4815 -0.5350 -0.1262
  475MOL0     C63994   0.650   3.553   1.482  0.0066  0.7098  0.0368
  475MOL0     C63995   0.718   3.576   1.605  0.3002  0.3109  0.0652
  475MOL0     C63996   0.796   3.687   1.632  0.2665  0.3010 -0.0332
  475MOL0     C63997   0.815   3.790   1.535  0.8132 -0.6601  0.0689
  475MOL0     O63998   0.915   3.884   1.559 -0.0806  0.4093 -0.7230
  475MOL0     C63999   0.969   3.964   1.449  0.6631 -0.7557  1.5280
  475MOL0     C64000   1.092   4.042   1.513 -0.2300  0.9012 -0.5778
  475MOL0     C64001   1.137   4.152   1.419  0.0874 -0.3317 -1.4263
  475MOL0     C64002   1.178   4.115   1.279  0.1353  0.4135  0.7901
  475MOL0     C64003   1.214   4.226   1.192 -0.2976  1.0750 -0.4945
  475MOL0     C64004   1.254   4.184   1.045 -0.1550  0.2275  0.3991
  475MOL0     C64005   1.251   4.309   0.947  0.2870  0.1191 -0.0936
  475MOL0     C64006   1.253   4.277   0.798 -0.6195  1.5831  0.2981
  475MOL0     N64007   1.119   4.246   0.743 -0.0809 -0.4507 -0.8044
  475MOL0     C64008   1.039   4.346   0.693  0.2391 -0.1385  0.2843
  475MOL0     C64009   0.922   4.284   0.661  0.4700 -0.3553  0.5378
  475MOL0     C64010   0.819   4.375   0.598 -0.5342 -0.1361  0.6843
  475MOL0     C64011   0.701   4.379   0.692 -0.4041 -0.6294  0.6553
  475MOL0     C64012   0.598   4.475   0.641 -0.1007 -0.6022 -0.3460
  475MOL0     C64013   0.534   4.439   0.504 -0.1639  0.1849 -0.6116
  475MOL0     O64014   0.478   4.567   0.444  0.5071 -0.6889 -0.9275
  475MOL0     C64015   0.452   4.571   0.311 -0.7265  0.3153 -0.1196
  475MOL0     C64016   0.432   4.697   0.259  0.0667  0.1101  0.6947
  475MOL0     C64017   0.391   4.710   0.127 -0.0675  0.1511 -0.5287
  475MOL0     C64018   0.391   4.598   0.035  0.3389 -0.9561  0.1459
  475MOL0     C64019   0.347   4.614  -0.100  0.0620 -0.8183 -0.0135
  475MOL0     O64020   0.372   4.501  -0.170  0.3797 -0.3787  0.9626
  475MOL0     C64021   0.323   4.483  -0.301 -0.5145  0.8353 -0.3056
  475MOL0     C64022   0.391   4.380  -0.372  0.0016  0.6685 -0.5212
  475MOL0     C64023   0.357   4.334  -0.499  0.7479  0.2162 -0.1367
  475MOL0     C64024   0.256   4.394  -0.567  0.4290 -0.6057  0.4776
  475MOL0     O64025   0.220   4.375  -0.697  0.0901  0.1916 -0.0812
  475MOL0     C64026   0.285   4.280  -0.771  0.1376  0.1830 -0.0276
  475MOL0     C64027   0.218   4.249  -0.902 -0.4714  0.4815 -0.2527
  475MOL0     C64028   0.228   4.370  -1.001 -0.2134 -0.6841 -0.5495
  475MOL0     C64029   0.192   4.335  -1.145  0.9852 -0.7335 -1.0418
  475MOL0     C64030   0.221   4.451  -1.247  0.2658 -0.2998  0.1165
  475MOL0     C64031   0.225   4.399  -1.391 -0.3689 -0.0578 -0.0216
  475MOL0     C64032   0.202   4.506  -1.501  0.5763 -0.2610 -1.1347
  475MOL0     C64033   0.279   4.491  -1.623 -0.1063 -0.7207  1.6181
  475MOL0    Cl64034   0.223   4.638  -1.717  0.1400 -0.0429  0.5072
  475MOL0     C64035   0.187   4.503  -0.502  0.2854 -0.0325  0.3178
  475MOL0     C64036   0.220   4.539  -0.371  0.4234  0.2042 -1.0656
  475MOL0     O64037   0.273   4.712  -0.132 -0.1605 -0.3942  0.8979
  475MOL0     C64038   0.415   4.475   0.091 -0.7986  0.0878 -0.4960
  475MOL0     C64039   0.456   4.457   0.220  0.2039 -0.5367  0.8856
  475MOL0     N64040   0.930   4.155   0.700  0.1018  0.0432 -0.2583
  475MOL0     N64041   1.047   4.132   0.759 -0.3530  0.4054 -0.3653
  475MOL0     C64042   0.737   3.773   1.415 -0.2076  0.6345  0.8779
  475MOL0     C64043   0.665   3.655   1.386  0.0516 -1.1195 -0.2077
  475MOL0     C64044   0.372   3.334   1.450 -0.4886 -0.5230  0.2218
  475MOL0     C64045   0.323   3.408   1.338  0.8618  0.0487 -0.0975
  475MOL0     C64046   0.228   3.363   1.247  0.3533  0.0216  0.4236
  475MOL0     C64047   0.155   3.249   1.275 -0.0389  0.0763  0.2626
  475MOL0     O64048   0.036   3.204   1.207  0.1106  0.2913  0.0084
  475MOL0     C64049  -0.042   3.307   1.145 -0.0879  0.1367  0.9548
  475MOL0     C64050  -0.191   3.280   1.150 -0.3214  0.0878 -0.3421
  475MOL0     C64051  -0.233   3.327   1.296  0.1009  0.2830  0.4177
  475MOL0     C64052  -0.384   3.322   1.320  0.4515 -0.0201 -1.2394
  475MOL0     C64053  -0.456   3.196   1.290 -0.6879 -0.9527 -0.1763
  475MOL0     C64054  -0.508   3.093   1.270  0.3520  0.2470  0.4867
  475MOL0     C64055   0.196   3.173   1.392  0.3028 -0.6271  0.5023
  475MOL0     C64056   0.310   3.214   1.469  0.3416  0.6808  0.0241
  475MOL0     C64057   0.340   3.130   1.593  0.8470 -0.0297  0.2343
  475MOL0     H64058   0.699   3.507   1.687 -3.7449  2.0808  0.8829
  475MOL0     H64059   0.841   3.692   1.731 -2.7584  1.8659  1.4104
  475MOL0     H64060   0.990   3.897   1.365 -3.3037  1.4080 -1.5289
  475MOL0     H64061   0.899   4.036   1.406  2.3520 -1.1834 -2.3431
  475MOL0     H64062   1.186   3.986   1.512  0.0564  1.2874 -3.4708
  475MOL0     H64063   1.059   4.090   1.606  0.0772 -3.9995  2.3920
  475MOL0     H64064   1.213   4.212   1.470 -2.0445  2.4644 -1.2732
  475MOL0     H64065   1.056   4.224   1.405 -0.3480 -0.1790  1.3016
  475MOL0     H64066   1.264   4.048   1.287  0.5026  0.4696 -1.9064
  475MOL0     H64067   1.098   4.054   1.238  2.1910 -2.0712  0.1959
  475MOL0     H64068   1.131   4.297   1.182 -1.2670  0.3940  2.0144
  475MOL0     H64069   1.299   4.277   1.239  1.0316 -3.1381  2.1958
  475MOL0     H64070   1.354   4.140   1.043 -0.2655 -0.0750  1.1627
  475MOL0     H64071   1.185   4.110   1.002  0.7509 -1.7403  2.1780
  475MOL0     H64072   1.333   4.377   0.971  0.7980 -0.9581  1.3297
  475MOL0     H64073   1.153   4.351   0.970  0.0232 -0.6982  0.3339
  475MOL0     H64074   1.303   4.358   0.744  0.5890  0.2660 -0.6741
  475MOL0     H64075   1.314   4.187   0.784 -1.7061  0.7640  0.7084
  475MOL0     H64076   1.068   4.442   0.651 -0.1147 -0.1886 -0.0945
  475MOL0     H64077   0.876   4.468   0.596  1.1332 -0.9219  4.1666
  475MOL0     H64078   0.801   4.333   0.499 -1.1561  2.6448 -0.5023
  475MOL0     H64079   0.677   4.273   0.708  0.0678 -0.8428 -0.0111
  475MOL0     H64080   0.709   4.413   0.796 -1.5388  2.6288 -0.1781
  475MOL0     H64081   0.650   4.570   0.631  0.5477 -0.5181  2.8498
  475MOL0     H64082   0.523   4.479   0.720  2.1293 -0.3423  1.8635
  475MOL0     H64083   0.447   4.373   0.517 -0.0348 -0.2592 -1.8327
  475MOL0     H64084   0.617   4.404   0.442  0.8452  0.8729  0.3185
  475MOL0     H64085   0.442   4.787   0.318 -5.3328  1.7591 -0.4134
  475MOL0     H64086   0.365   4.811   0.095  0.0459 -0.0983 -1.4540
  475MOL0     H64087   0.473   4.327  -0.323  1.0718  1.5790 -1.2666
  475MOL0     H64088   0.389   4.241  -0.545 -3.7370 -1.7193  0.1296
  475MOL0     H64089   0.390   4.307  -0.785  0.6250 -0.3975  2.2314
  475MOL0     H64090   0.283   4.181  -0.724 -1.5748  0.1918 -0.0174
  475MOL0     H64091   0.269   4.163  -0.948  1.5136  1.3121  0.2966
  475MOL0     H64092   0.118   4.212  -0.878  0.3275 -2.9803 -1.6100
  475MOL0     H64093   0.156   4.449  -0.975 -0.1365 -1.1478  1.1506
  475MOL0     H64094   0.329   4.411  -0.994 -0.2299 -0.6394 -0.5678
  475MOL0     H64095   0.085   4.315  -1.139  0.9974 -0.5025  0.2862
  475MOL0     H64096   0.252   4.249  -1.176  0.7741 -1.2267 -0.1180
  475MOL0     H64097   0.311   4.508  -1.221 -1.7651  2.8534  0.8070
  475MOL0     H64098   0.142   4.526  -1.243 -1.5940 -1.9804 -2.0473
  475MOL0     H64099   0.316   4.343  -1.410  0.3064  1.0244 -0.0729
  475MOL0     H64100   0.149   4.321  -1.398  0.1892 -0.6142  0.0044
  475MOL0     H64101   0.232   4.604  -1.461  2.0105 -0.9481 -0.4487
  475MOL0     H64102   0.095   4.517  -1.524  0.3191  0.7514  0.3364
  475MOL0     H64103   0.385   4.502  -1.599  0.0565  0.2043  0.5858
  475MOL0     H64104   0.248   4.398  -1.670 -0.7041 -0.1954  0.9374
  475MOL0     H64105   0.104   4.550  -0.553 -2.2065 -0.0018  4.0066
  475MOL0     H64106   0.154   4.609  -0.320  0.2258 -0.0548 -0.9662
  475MOL0     H64107   0.420   4.376   0.047  4.6863 -1.7062  3.1980
  475MOL0     H64108   0.485   4.362   0.265  2.8990 -0.7202 -1.0086
  475MOL0     H64109   0.749   3.829   1.323  0.9037 -1.7000 -0.5004
  475MOL0     H64110   0.624   3.651   1.286 -0.1084 -1.1769 -0.1424
  475MOL0     H64111   0.362   3.507   1.313  0.5836 -0.5694 -3.4014
  475MOL0     H64112   0.206   3.425   1.161  2.9567  2.1038  1.1189
  475MOL0     H64113  -0.022   3.301   1.037 -4.1112 -2.7566  0.1629
  475MOL0     H64114  -0.032   3.411   1.178 -1.5034  0.4981  0.2941
  475MOL0     H64115  -0.214   3.175   1.129  1.7255 -0.2088 -1.3079
  475MOL0     H64116  -0.248   3.341   1.079 -1.2564 -2.8632 -2.3151
  475MOL0     H64117  -0.208   3.431   1.319  2.2494 -0.6632  2.8644
  475MOL0     H64118  -0.179   3.261   1.365  2.2163  0.9460 -0.5315
  475MOL0     H64119  -0.401   3.349   1.425 -0.7998 -1.4284 -1.0433
  475MOL0     H64120  -0.424   3.407   1.264 -0.6181 -0.6516 -1.4656
  475MOL0     H64121  -0.559   3.000   1.255  1.7551 -0.1601 -2.5342
  475MOL0     H64122   0.138   3.083   1.413  0.1072 -0.8922 -1.0499
  475MOL0     H64123   0.446   3.131   1.619  1.4479  2.1386 -1.9475
  475MOL0     H64124   0.275   3.164   1.675  1.8684  0.2662  0.9421
  475MOL0     H64125   0.315   3.025   1.577 -0.5270  0.0392  1.7244
  476MOL0     O64126   0.893   5.536   7.959 -0.7887  0.5500 -0.1360
  476MOL0     C64127   0.995   5.606   7.937  0.4160 -0.6741 -0.4893
  476MOL0     O64128   1.091   5.648   8.027  0.8631  0.0876  0.1333
  476MOL0     C64129   1.088   5.595   8.149 -0.3819  0.1191 -0.2737
  476MOL0     C64130   1.058   5.460   8.181 -0.8505 -0.0973  0.0367
  476MOL0     C64131   1.074   5.409   8.310  0.3735  0.0449  0.2556
  476MOL0     C64132   1.114   5.492   8.422 -0.2387 -0.2123 -0.6274
  476MOL0     O64133   1.104   5.435   8.550  0.0334 -1.1784 -0.2741
  476MOL0     C64134   1.226   5.434   8.620 -0.4923 -0.5910  0.6502
  476MOL0     C64135   1.337   5.367   8.528  0.1215 -0.5278  0.1758
  476MOL0     C64136   1.457   5.316   8.613  0.1010  0.1306  0.3927
  476MOL0     C64137   1.575   5.268   8.536  0.0664  0.0861  0.3072
  476MOL0     C64138   1.688   5.252   8.640 -0.4098  0.3623  0.4832
  476MOL0     C64139   1.822   5.209   8.562 -0.5796 -0.0793 -0.9344
  476MOL0     C64140   1.915   5.120   8.655 -0.3907 -0.2468  0.0447
  476MOL0     C64141   1.875   4.975   8.666 -0.1436  0.0306  0.0646
  476MOL0     N64142   1.982   4.886   8.715 -0.1153  0.6635  0.1025
  476MOL0     C64143   2.030   4.891   8.840 -0.0333  0.1372 -0.2062
  476MOL0     C64144   2.133   4.805   8.841  0.3237  0.1115  0.1872
  476MOL0     C64145   2.186   4.761   8.971 -0.1573  0.0560  0.0335
  476MOL0     C64146   2.297   4.665   8.956  0.0820 -0.8033 -0.2897
  476MOL0     C64147   2.366   4.650   9.096  0.3947 -0.6949 -0.1315
  476MOL0     C64148   2.436   4.771   9.164  0.7982  0.1076  0.2441
  476MOL0     O64149   2.520   4.715   9.255 -0.0574  0.5953 -0.6459
  476MOL0     C64150   2.634   4.780   9.300  0.3455 -0.0398 -0.5622
  476MOL0     C64151   2.690   4.711   9.406  0.3501  0.1592 -0.5831
  476MOL0     C64152   2.819   4.739   9.452 -0.5478 -0.9990  0.5999
  476MOL0     C64153   2.890   4.857   9.400  0.0916  1.3590  0.3027
  476MOL0     C64154   2.994   4.903   9.478 -0.9136 -0.6024  0.7979
  476MOL0     O64155   3.040   5.033   9.434  0.9425  0.3232  0.2945
  476MOL0     C64156   3.144   5.081   9.515 -0.4780 -0.0852  0.3281
  476MOL0     C64157   3.270   5.038   9.494 -1.1833 -1.4890 -0.1596
  476MOL0     C64158   3.376   5.077   9.586  0.5463  0.3540  0.2905
  476MOL0     C64159   3.343   5.150   9.703 -0.2263 -0.1091 -1.1136
  476MOL0     O64160   3.444   5.191   9.792  0.3332  0.1759 -0.1621
  476MOL0     C64161   3.568   5.120   9.812  0.1967 -0.2784 -1.0696
  476MOL0     C64162   3.681   5.208   9.756 -0.2522  0.0975  0.3090
  476MOL0     C64163   3.677   5.349   9.826  0.3928  0.1806 -0.5404
  476MOL0     C64164   3.808   5.428   9.807  0.5214 -0.4602 -0.0177
  476MOL0     C64165   3.808   5.552   9.904  0.8720 -0.0617  0.5100
  476MOL0     C64166   3.919   5.651   9.873 -0.4808  0.2569 -0.2408
  476MOL0     C64167   3.908   5.776   9.973 -0.1531 -0.2456  0.4647
  476MOL0     C64168   4.003   5.889   9.911 -0.2923  0.3584  1.2376
  476MOL0    Cl64169   4.168   5.873   9.960  0.0443 -0.5750  0.6100
  476MOL0     C64170   3.208   5.195   9.724 -0.5045 -0.5435 -0.2796
  476MOL0     C64171   3.115   5.142   9.636  0.9927 -0.6748  0.3633
  476MOL0     O64172   3.042   4.835   9.571 -0.8630 -0.1453  0.2971
  476MOL0     C64173   2.819   4.923   9.299 -0.2778  0.3693  0.9218
  476MOL0     C64174   2.694   4.889   9.247  0.0972 -0.2929 -0.4321
  476MOL0     N64175   2.151   4.760   8.710  0.4772 -0.3058 -0.7079
  476MOL0     N64176   2.059   4.802   8.638  0.0520 -0.5280 -0.4442
  476MOL0     C64177   1.143   5.625   8.383 -0.7890 -1.4075 -0.1497
  476MOL0     C64178   1.140   5.680   8.257  0.3435  1.3360  0.4040
  476MOL0     C64179   1.022   5.637   7.799  0.7191  0.0676  0.6167
  476MOL0     C64180   1.134   5.726   7.775 -0.0712 -0.1152  1.0254
  476MOL0     C64181   1.172   5.757   7.639  0.8774 -0.1564 -0.2820
  476MOL0     C64182   1.093   5.705   7.540  0.1178 -0.0874  0.1215
  476MOL0     O64183   1.121   5.727   7.410  0.3043  0.0084 -0.3103
  476MOL0     C64184   1.205   5.625   7.361  0.1231 -0.0410  0.0086
  476MOL0     C64185   1.229   5.647   7.208 -0.7003  0.5475 -0.5289
  476MOL0     C64186   1.310   5.776   7.181  0.2611  0.6407  0.3991
  476MOL0     C64187   1.452   5.796   7.241  0.0744 -0.1285  0.0039
  476MOL0     C64188   1.439   5.899   7.348  0.6637 -0.2293 -0.4128
  476MOL0     C64189   1.431   5.993   7.420 -0.1047 -0.8792 -0.6965
  476MOL0     C64190   0.987   5.623   7.556  0.2804  1.0203 -0.1858
  476MOL0     C64191   0.947   5.587   7.684 -0.0399 -0.0818  0.7602
  476MOL0     C64192   0.847   5.479   7.694  0.6394 -0.2201  0.7354
  476MOL0     H64193   1.028   5.406   8.092  3.3385 -0.8018 -1.1480
  476MOL0     H64194   1.052   5.303   8.322 -0.0291 -0.2560 -2.5378
  476MOL0     H64195   1.257   5.538   8.631  2.0335 -1.2051  0.0758
  476MOL0     H64196   1.213   5.375   8.711  0.1789 -0.7431  0.6520
  476MOL0     H64197   1.363   5.446   8.457 -3.2126  0.9245  0.3882
  476MOL0     H64198   1.292   5.287   8.468 -0.3884 -1.9329  2.3195
  476MOL0     H64199   1.425   5.237   8.681 -0.6270  0.5817  0.5863
  476MOL0     H64200   1.488   5.398   8.678 -1.7868  1.1373  0.1065
  476MOL0     H64201   1.556   5.180   8.474  0.9011 -0.5593  0.9443
  476MOL0     H64202   1.605   5.349   8.469 -3.6187  2.0716  0.7942
  476MOL0     H64203   1.714   5.348   8.685  1.9466 -0.1842  0.4042
  476MOL0     H64204   1.674   5.177   8.719 -0.6176 -3.5930 -2.9682
  476MOL0     H64205   1.793   5.146   8.478  0.4947 -0.8945 -0.7183
  476MOL0     H64206   1.879   5.297   8.530  0.7557  0.1944  1.9094
  476MOL0     H64207   1.911   5.160   8.757  1.6625  3.8113 -1.2321
  476MOL0     H64208   2.019   5.134   8.624 -0.1529 -0.2130  0.8286
  476MOL0     H64209   1.788   4.957   8.731  1.3468  0.1851  2.2016
  476MOL0     H64210   1.856   4.942   8.564 -0.3195  1.8070 -0.5102
  476MOL0     H64211   1.983   4.941   8.925 -3.7499  1.8921 -3.0008
  476MOL0     H64212   2.213   4.846   9.034 -1.7606  1.7387 -1.4094
  476MOL0     H64213   2.098   4.719   9.020  0.0033 -1.5797 -0.9731
  476MOL0     H64214   2.268   4.569   8.912  1.4491 -1.3748 -0.0086
  476MOL0     H64215   2.366   4.711   8.885  0.9032  0.9815  1.5711
  476MOL0     H64216   2.448   4.579   9.084  0.9520 -0.5245  2.1961
  476MOL0     H64217   2.295   4.612   9.170 -1.1509 -1.4826 -1.9280
  476MOL0     H64218   2.370   4.843   9.213 -1.9145 -0.0223 -2.8812
  476MOL0     H64219   2.484   4.812   9.075 -2.5101 -2.5428 -3.0828
  476MOL0     H64220   2.626   4.628   9.436 -2.9473  1.4900 -3.2553
  476MOL0     H64221   2.853   4.688   9.542  1.5844 -0.1580  0.3464
  476MOL0     H64222   3.292   4.988   9.400  0.3097  2.0858 -1.8842
  476MOL0     H64223   3.479   5.057   9.556 -0.5897 -1.5608 -2.7557
  476MOL0     H64224   3.582   5.119   9.920 -0.4622  0.0677 -0.9747
  476MOL0     H64225   3.559   5.018   9.772 -2.4803  0.7514 -3.4806
  476MOL0     H64226   3.778   5.165   9.783  0.2727 -0.4403 -2.1417
  476MOL0     H64227   3.696   5.213   9.647  4.5375 -1.7734  0.6276
  476MOL0     H64228   3.596   5.413   9.791 -2.1302 -3.1493 -1.2810
  476MOL0     H64229   3.650   5.346   9.932 -0.1519  1.7999 -0.6109
  476MOL0     H64230   3.807   5.474   9.707 -1.4204  0.9150  0.5618
  476MOL0     H64231   3.897   5.371   9.832  1.8653  2.4123  2.3535
  476MOL0     H64232   3.821   5.524  10.008  0.4480  0.6327  0.7573
  476MOL0     H64233   3.709   5.599   9.900  1.4886  1.5172  2.2112
  476MOL0     H64234   4.019   5.609   9.880 -0.8818 -0.8005 -0.7474
  476MOL0     H64235   3.921   5.687   9.770  2.7725  0.2041 -0.3005
  476MOL0     H64236   3.936   5.758  10.077 -1.3311  1.3952  1.1253
  476MOL0     H64237   3.809   5.822   9.981 -0.0962 -0.2966  1.6586
  476MOL0     H64238   4.000   5.878   9.802 -0.1408 -1.4072  1.3844
  476MOL0     H64239   3.971   5.990   9.937 -0.4202  0.4990  0.5574
  476MOL0     H64240   3.185   5.246   9.817  1.4441  0.3446 -0.2384
  476MOL0     H64241   3.015   5.172   9.666  1.1988  0.5067 -0.0651
  476MOL0     H64242   2.873   5.005   9.253 -2.7901  1.9378  0.5855
  476MOL0     H64243   2.638   4.951   9.178  2.2222  0.5873 -1.4468
  476MOL0     H64244   1.180   5.691   8.461  0.8048 -0.3704 -1.7082
  476MOL0     H64245   1.178   5.779   8.237  2.6141  0.1749 -1.5509
  476MOL0     H64246   1.195   5.765   7.856  2.8762  2.5144 -2.1526
  476MOL0     H64247   1.257   5.819   7.611 -1.3651  3.2366 -0.1349
  476MOL0     H64248   1.166   5.525   7.382  0.6775 -0.3598 -0.4585
  476MOL0     H64249   1.301   5.633   7.412  2.0485  2.0008 -3.5216
  476MOL0     H64250   1.134   5.662   7.157 -0.3735 -2.6872 -2.3716
  476MOL0     H64251   1.270   5.557   7.161 -3.2387  0.3959 -2.6343
  476MOL0     H64252   1.242   5.853   7.216  0.0673  0.2710  0.8432
  476MOL0     H64253   1.312   5.782   7.072 -1.7489  1.7854  0.3839
  476MOL0     H64254   1.491   5.700   7.275  1.5495  0.9948  1.6567
  476MOL0     H64255   1.523   5.836   7.168  0.0827  1.1529  0.6727
  476MOL0     H64256   1.394   6.082   7.467 -2.7406 -2.3718  0.2525
  476MOL0     H64257   0.927   5.588   7.473  0.7105  0.9284 -0.4594
  476MOL0     H64258   0.802   5.465   7.595  0.3057  0.0981  0.8367
  476MOL0     H64259   0.889   5.382   7.719 -1.4825 -0.8296  2.2014
  476MOL0     H64260   0.766   5.490   7.766 -1.1869 -0.0223 -1.2515
  477MOL0     O64261   6.680   7.167   6.588  0.2155 -0.2603 -0.6827
  477MOL0     C64262   6.582   7.237   6.593  1.2326 -0.6110  0.7858
  477MOL0     O64263   6.522   7.285   6.482 -0.2233  0.2767  0.4094
  477MOL0     C64264   6.581   7.244   6.363  0.7348  0.4045 -0.1633
  477MOL0     C64265   6.569   7.108   6.320 -0.6380 -0.6329 -0.3081
  477MOL0     C64266   6.602   7.075   6.187 -0.5894  0.2981 -1.4422
  477MOL0     C64267   6.663   7.160   6.096 -0.5488 -0.1988 -0.4673
  477MOL0     O64268   6.702   7.134   5.965 -0.9619 -0.5944  0.2436
  477MOL0     C64269   6.750   7.010   5.929  0.0436  0.0696  0.0982
  477MOL0     C64270   6.802   7.022   5.785 -0.6836  0.7977  0.0056
  477MOL0     C64271   6.857   6.889   5.722  0.0319  0.2266  0.2215
  477MOL0     C64272   6.840   6.883   5.569 -0.4243 -0.3854  0.7697
  477MOL0     C64273   6.904   6.771   5.483  0.5748  0.3864  0.1613
  477MOL0     C64274   7.032   6.807   5.418 -0.2158  0.2216 -0.7869
  477MOL0     C64275   7.087   6.690   5.345  0.6014  0.7895 -0.5039
  477MOL0     C64276   7.216   6.724   5.272 -0.4149 -1.0740 -1.2292
  477MOL0     N64277   7.285   6.600   5.233 -0.7007 -1.0200  0.1161
  477MOL0     C64278   7.268   6.535   5.112  0.8432  0.4950 -0.5571
  477MOL0     C64279   7.362   6.444   5.121  0.0061  0.4840  0.4691
  477MOL0     C64280   7.398   6.343   5.023 -0.0121  0.0505 -0.4195
  477MOL0     C64281   7.312   6.367   4.896  0.5221  0.4936 -0.7401
  477MOL0     C64282   7.364   6.277   4.786  0.4312  0.4094  0.1363
  477MOL0     C64283   7.279   6.306   4.661 -0.3772 -0.6363  0.2501
  477MOL0     O64284   7.291   6.443   4.603  0.5520  0.4352 -0.5502
  477MOL0     C64285   7.225   6.483   4.492  0.5747  1.0440 -0.8677
  477MOL0     C64286   7.125   6.402   4.434  0.7467  0.6248  0.5978
  477MOL0     C64287   7.068   6.446   4.308  0.1752 -0.1702 -0.6217
  477MOL0     C64288   7.128   6.560   4.244 -0.0270 -0.1119  0.0439
  477MOL0     C64289   7.085   6.610   4.115 -0.3835 -0.3646  0.0631
  477MOL0     O64290   6.954   6.584   4.076 -0.5890 -1.0436 -0.1789
  477MOL0     C64291   6.934   6.589   3.949 -0.5465  0.2990 -0.0236
  477MOL0     C64292   6.909   6.463   3.877  0.6673 -0.6972  0.1387
  477MOL0     C64293   6.860   6.475   3.743  0.2885  0.3465 -0.2233
  477MOL0     C64294   6.856   6.601   3.678  1.1074 -0.3263 -0.0880
  477MOL0     O64295   6.822   6.627   3.545  0.1302  0.1152 -0.6440
  477MOL0     C64296   6.732   6.537   3.478  0.5767 -0.0196  0.1811
  477MOL0     C64297   6.651   6.617   3.371 -0.5055 -0.4837 -0.9865
  477MOL0     C64298   6.513   6.563   3.357  0.1312 -0.9844  0.7336
  477MOL0     C64299   6.445   6.639   3.242  0.1516  0.1865 -0.6240
  477MOL0     C64300   6.340   6.560   3.166 -0.5751  0.4994  0.9867
  477MOL0     C64301   6.217   6.530   3.251 -0.3102 -0.6873 -0.2585
  477MOL0     C64302   6.131   6.413   3.198  0.6512 -0.1602  0.5225
  477MOL0     C64303   6.027   6.359   3.290 -0.2704 -0.2017 -0.0682
  477MOL0    Cl64304   5.932   6.239   3.211 -0.0697  0.3121  0.1684
  477MOL0     C64305   6.891   6.714   3.748 -0.6385 -0.5040  0.4135
  477MOL0     C64306   6.933   6.710   3.879 -1.4495 -0.4041 -1.2632
  477MOL0     O64307   7.156   6.687   4.048 -0.2725  0.0571 -1.4126
  477MOL0     C64308   7.229   6.638   4.308 -0.9412  0.4262 -0.7701
  477MOL0     C64309   7.273   6.601   4.434  0.4102  0.4566  0.6065
  477MOL0     N64310   7.430   6.443   5.239  1.1998  0.5475 -0.3560
  477MOL0     N64311   7.389   6.550   5.302  0.5652  0.9475  0.3623
  477MOL0     C64312   6.700   7.285   6.156 -0.0196 -0.9838  0.0057
  477MOL0     C64313   6.655   7.332   6.280  0.6983 -0.0147 -0.9866
  477MOL0     C64314   6.530   7.284   6.722  1.2688  0.3944 -1.0409
  477MOL0     C64315   6.611   7.344   6.820  0.6288  0.0718 -0.0441
  477MOL0     C64316   6.565   7.396   6.944 -0.4467 -0.5523  0.3497
  477MOL0     C64317   6.430   7.384   6.974 -0.4273  0.2239  0.6425
  477MOL0     O64318   6.381   7.440   7.090  0.4886 -0.4982 -0.8545
  477MOL0     C64319   6.300   7.364   7.170 -0.1997 -0.9761  0.9079
  477MOL0     C64320   6.156   7.421   7.171 -0.8266  0.1852  0.1023
  477MOL0     C64321   6.138   7.570   7.221  0.5854  0.2167 -0.1957
  477MOL0     C64322   6.215   7.600   7.354  0.5752 -0.2326 -0.0188
  477MOL0     C64323   6.160   7.693   7.457  0.3068 -0.4346 -0.1467
  477MOL0     C64324   6.104   7.752   7.544  0.1570  0.6701  0.6512
  477MOL0     C64325   6.348   7.311   6.881  0.1439  0.5793  0.7449
  477MOL0     C64326   6.398   7.262   6.757 -0.5391 -0.6765  0.1683
  477MOL0     C64327   6.307   7.185   6.671 -0.2758 -0.0844  0.1730
  477MOL0     H64328   6.524   7.029   6.381 -2.0353 -0.4916 -1.1069
  477MOL0     H64329   6.586   6.978   6.142  1.5464 -1.3921  1.1472
  477MOL0     H64330   6.837   6.987   5.991  0.0152  2.4824  1.1415
  477MOL0     H64331   6.673   6.933   5.941  0.2179  0.0298  1.0516
  477MOL0     H64332   6.882   7.097   5.786  0.0250  0.0642 -0.3179
  477MOL0     H64333   6.716   7.063   5.731 -1.4572  1.2239  1.5007
  477MOL0     H64334   6.802   6.809   5.773 -0.8793  0.4990 -0.2961
  477MOL0     H64335   6.961   6.879   5.755 -0.0435 -2.2168 -0.1136
  477MOL0     H64336   6.731   6.894   5.568 -0.4239  3.4241  5.3587
  477MOL0     H64337   6.884   6.978   5.537 -1.4128 -0.8734 -2.4182
  477MOL0     H64338   6.908   6.676   5.535 -4.4073  0.0785  0.4409
  477MOL0     H64339   6.842   6.762   5.393  2.5075 -1.6827 -1.0616
  477MOL0     H64340   7.037   6.893   5.350  2.7255 -0.5665 -1.7001
  477MOL0     H64341   7.102   6.832   5.498  0.0549  2.2077 -1.5828
  477MOL0     H64342   7.016   6.638   5.279 -0.1966 -0.6933  1.4182
  477MOL0     H64343   7.105   6.607   5.415 -3.4998 -0.6688 -0.8891
  477MOL0     H64344   7.182   6.788   5.191 -1.5431  1.5970  1.1991
  477MOL0     H64345   7.271   6.783   5.346 -3.0296 -0.0201 -0.0041
  477MOL0     H64346   7.196   6.557   5.033  0.8965  1.1016 -0.4406
  477MOL0     H64347   7.501   6.363   4.994  0.3130 -2.3300 -1.0616
  477MOL0     H64348   7.375   6.239   5.047 -2.4749  0.7217  0.5271
  477MOL0     H64349   7.207   6.350   4.918  0.2508  0.8134 -1.7283
  477MOL0     H64350   7.316   6.473   4.869  0.8151  0.9447  0.9757
  477MOL0     H64351   7.348   6.170   4.802 -0.8667  0.4328 -0.8298
  477MOL0     H64352   7.471   6.297   4.772  0.4309 -0.6658 -1.7098
  477MOL0     H64353   7.171   6.299   4.680 -0.0393 -2.1036  1.7560
  477MOL0     H64354   7.307   6.227   4.592  0.8969 -0.7597  0.8859
  477MOL0     H64355   7.096   6.306   4.476 -2.1770  2.0554  2.1211
  477MOL0     H64356   6.987   6.386   4.267  0.2964 -1.1444  0.5074
  477MOL0     H64357   6.908   6.371   3.934 -0.7882 -1.8911 -1.7201
  477MOL0     H64358   6.833   6.380   3.697 -1.0357  0.1122  0.9956
  477MOL0     H64359   6.790   6.466   3.418  3.2112  0.5145  1.9765
  477MOL0     H64360   6.661   6.485   3.544 -0.8141 -0.0190 -1.2373
  477MOL0     H64361   6.643   6.723   3.398  1.3920 -0.7938  1.1174
  477MOL0     H64362   6.698   6.620   3.272  1.8956 -0.0314  0.0927
  477MOL0     H64363   6.510   6.456   3.336 -0.8254 -1.5310  3.2668
  477MOL0     H64364   6.458   6.581   3.450 -1.7743 -0.6192 -0.4004
  477MOL0     H64365   6.519   6.664   3.166  0.9369 -2.8370 -1.0088
  477MOL0     H64366   6.409   6.735   3.278  2.0658  1.4181 -1.8273
  477MOL0     H64367   6.387   6.470   3.125 -3.4486 -0.1082 -1.3217
  477MOL0     H64368   6.319   6.618   3.076  1.4993  0.5658  0.4833
  477MOL0     H64369   6.257   6.512   3.351 -0.4237  1.9457  0.3511
  477MOL0     H64370   6.168   6.628   3.258 -0.2127 -0.4572 -2.2362
  477MOL0     H64371   6.186   6.318   3.186 -1.5950 -1.1360 -5.9733
  477MOL0     H64372   6.081   6.435   3.104 -0.7279  0.7015  1.4302
  477MOL0     H64373   6.070   6.328   3.385 -3.5214  0.3640  1.7283
  477MOL0     H64374   5.964   6.444   3.319 -0.3866 -0.1710 -0.3941
  477MOL0     H64375   6.880   6.808   3.695  2.1320 -1.1793 -1.5760
  477MOL0     H64376   6.964   6.800   3.930 -1.9653  0.2386 -2.0519
  477MOL0     H64377   7.275   6.725   4.261 -1.8712  0.3508 -1.8606
  477MOL0     H64378   7.355   6.650   4.485  0.5029  0.7059  0.2227
  477MOL0     H64379   6.756   7.350   6.090  0.1618  2.7216  3.4688
  477MOL0     H64380   6.684   7.430   6.317 -1.2431  0.0587  0.4248
  477MOL0     H64381   6.714   7.340   6.788  0.4649 -1.5870 -0.5061
  477MOL0     H64382   6.629   7.448   7.015  0.7416  0.0268 -1.0761
  477MOL0     H64383   6.347   7.364   7.269  4.1968  0.1727 -0.9577
  477MOL0     H64384   6.289   7.264   7.127  0.0293 -0.0896 -1.3478
  477MOL0     H64385   6.098   7.349   7.230  0.0289 -1.5391 -1.0676
  477MOL0     H64386   6.111   7.410   7.072 -1.2645  1.2040  0.1760
  477MOL0     H64387   6.031   7.588   7.235 -0.3877 -3.6232 -1.4156
  477MOL0     H64388   6.181   7.646   7.156  1.5871  3.1565  3.5165
  477MOL0     H64389   6.224   7.500   7.397 -1.8230 -0.7076 -0.4698
  477MOL0     H64390   6.313   7.641   7.326  0.7841 -2.7177 -3.4052
  477MOL0     H64391   6.069   7.820   7.620  0.7426  0.6661  0.9252
  477MOL0     H64392   6.242   7.311   6.907  0.1462  2.0539  0.8280
  477MOL0     H64393   6.366   7.103   6.630 -1.6484 -1.0054 -0.0141
  477MOL0     H64394   6.220   7.143   6.721  1.1104 -2.2349  0.9149
  477MOL0     H64395   6.262   7.236   6.585 -0.1196 -1.3177 -0.6689
  478MOL0     O64396   3.622   3.195   5.769  0.1168 -0.2218  0.7189
  478MOL0     C64397   3.733   3.155   5.773 -0.1338 -0.1627  0.1199
  478MOL0     O64398   3.761   3.028   5.777 -0.4542 -0.5528  0.2339
  478MOL0     C64399   3.659   2.946   5.749  0.3781 -0.3275 -0.7585
  478MOL0     C64400   3.602   2.943   5.627 -0.2848 -0.4206 -0.1710
  478MOL0     C64401   3.487   2.865   5.610  0.5519 -0.3685 -0.3756
  478MOL0     C64402   3.422   2.803   5.722 -0.8784  0.3901 -0.2205
  478MOL0     O64403   3.306   2.729   5.720 -0.2556  0.3196  0.1381
  478MOL0     C64404   3.225   2.738   5.600  0.7599 -0.7273  0.1732
  478MOL0     C64405   3.083   2.696   5.641  0.9267 -0.2440  0.9182
  478MOL0     C64406   3.010   2.769   5.759  0.2873  0.0029  0.3752
  478MOL0     C64407   2.896   2.699   5.820 -0.0699  0.3269  0.1090
  478MOL0     C64408   2.763   2.721   5.743  0.4045 -0.2197 -0.0039
  478MOL0     C64409   2.717   2.867   5.721 -0.8417  0.5804 -1.5569
  478MOL0     C64410   2.598   2.891   5.629 -0.2441  1.0345  0.5494
  478MOL0     C64411   2.484   2.891   5.727  0.5856 -0.3859 -1.1019
  478MOL0     N64412   2.360   2.905   5.642  0.6130  0.5668 -0.1788
  478MOL0     C64413   2.322   3.022   5.590  0.4730  0.2698  0.0961
  478MOL0     C64414   2.195   3.002   5.549  0.6093 -0.2517 -0.2518
  478MOL0     C64415   2.088   3.098   5.486 -1.2522  0.0393 -0.1004
  478MOL0     C64416   2.141   3.155   5.357  0.1648  0.7981 -0.1387
  478MOL0     C64417   2.184   3.036   5.261 -1.0299 -0.4517 -0.4024
  478MOL0     C64418   2.199   3.073   5.118  0.7819 -0.1498 -0.4170
  478MOL0     O64419   2.147   2.977   5.024 -0.1609  0.1161 -0.1844
  478MOL0     C64420   2.080   3.037   4.913 -0.3368 -0.2138 -0.4031
  478MOL0     C64421   1.979   2.959   4.863 -0.5762  0.2833  0.4435
  478MOL0     C64422   1.906   2.999   4.758 -1.2298  0.2088  0.3472
  478MOL0     C64423   1.928   3.117   4.684 -0.1410  0.8788 -0.9196
  478MOL0     C64424   1.848   3.170   4.569 -0.4969 -0.1744 -0.7916
  478MOL0     O64425   1.739   3.104   4.540 -0.2427  0.1896 -0.4504
  478MOL0     C64426   1.649   3.151   4.455 -0.7111 -0.4226  0.4720
  478MOL0     C64427   1.647   3.102   4.325 -0.9289 -0.7881 -0.2614
  478MOL0     C64428   1.535   3.137   4.238  0.2637  0.1233  0.1625
  478MOL0     C64429   1.455   3.243   4.276  0.2295 -1.0986 -0.4419
  478MOL0     O64430   1.347   3.276   4.199 -0.0391  0.0106  0.1478
  478MOL0     C64431   1.367   3.388   4.110 -0.1708  0.0201  0.4122
  478MOL0     C64432   1.263   3.385   3.995  0.1323  0.5868  1.2075
  478MOL0     C64433   1.234   3.528   3.953 -0.2472 -0.2927  0.7733
  478MOL0     C64434   1.164   3.534   3.821  0.2990 -0.7079  0.1810
  478MOL0     C64435   1.065   3.659   3.802 -0.0796 -0.4691  0.0388
  478MOL0     C64436   0.922   3.656   3.867 -0.9295  0.4720  0.4822
  478MOL0     C64437   0.812   3.557   3.816  0.9504  0.0410 -0.3765
  478MOL0     C64438   0.685   3.568   3.893 -0.4904 -0.5397  0.4282
  478MOL0    Cl64439   0.572   3.440   3.843 -0.5856 -0.0977  0.7441
  478MOL0     C64440   1.473   3.307   4.400 -0.0333 -0.5813  0.1480
  478MOL0     C64441   1.564   3.248   4.494  0.4614 -0.2220 -0.6769
  478MOL0     O64442   1.896   3.264   4.512  0.2440 -0.6794  0.0668
  478MOL0     C64443   2.030   3.197   4.739 -0.2025  1.0355  0.6914
  478MOL0     C64444   2.109   3.159   4.847 -0.1578 -0.4487 -0.5597
  478MOL0     N64445   2.167   2.864   5.555  0.2611  0.3846 -0.4962
  478MOL0     N64446   2.264   2.811   5.617 -0.5601 -0.4715 -0.3042
  478MOL0     C64447   3.479   2.813   5.850 -0.6259  0.1460 -0.3238
  478MOL0     C64448   3.606   2.876   5.859 -0.2391 -0.5580  0.3263
  478MOL0     C64449   3.853   3.252   5.787 -0.6127 -0.1133 -0.4557
  478MOL0     C64450   3.960   3.220   5.701  0.3581  0.8518  0.5152
  478MOL0     C64451   4.058   3.310   5.662  0.3783  0.3115 -0.0852
  478MOL0     C64452   4.069   3.434   5.729 -1.0329  0.1704  0.3379
  478MOL0     O64453   4.179   3.514   5.725 -1.4702 -0.3189  0.7092
  478MOL0     C64454   4.282   3.500   5.623 -0.6382  0.3967  0.4536
  478MOL0     C64455   4.359   3.633   5.618 -0.0123  0.7004  1.0158
  478MOL0     C64456   4.456   3.628   5.492  1.0428  0.0659 -0.3458
  478MOL0     C64457   4.573   3.520   5.488 -0.3884 -0.6316  0.1150
  478MOL0     C64458   4.654   3.536   5.610  0.1888 -0.7983 -0.2718
  478MOL0     C64459   4.742   3.540   5.702 -0.0468 -0.3119  0.3360
  478MOL0     C64460   3.977   3.467   5.824 -0.8712  0.4804  0.0922
  478MOL0     C64461   3.854   3.384   5.840  0.5087 -0.0352  0.4852
  478MOL0     C64462   3.734   3.435   5.913 -0.1634 -0.1539 -1.5291
  478MOL0     H64463   3.667   2.993   5.556  0.4891  1.7955  1.9690
  478MOL0     H64464   3.459   2.833   5.510 -2.6064  2.6499 -0.6220
  478MOL0     H64465   3.212   2.845   5.580  0.3832 -0.3230  2.3296
  478MOL0     H64466   3.267   2.680   5.517  3.5859 -0.9422  1.6080
  478MOL0     H64467   3.086   2.591   5.669 -0.7283 -0.4941  0.2922
  478MOL0     H64468   3.014   2.692   5.556  0.6020 -0.1655  1.1751
  478MOL0     H64469   2.986   2.871   5.729  2.4683 -0.0635 -2.0242
  478MOL0     H64470   3.077   2.775   5.845  1.2460  0.3829 -0.3733
  478MOL0     H64471   2.920   2.593   5.830 -2.0454 -0.1240  0.6643
  478MOL0     H64472   2.879   2.744   5.919 -0.4623 -0.1925  0.2794
  478MOL0     H64473   2.760   2.664   5.649 -0.0416  0.2791 -0.2973
  478MOL0     H64474   2.683   2.675   5.803  0.1378 -0.4522 -0.5286
  478MOL0     H64475   2.703   2.915   5.818 -0.7452 -1.3269 -0.5574
  478MOL0     H64476   2.795   2.927   5.672  0.5153 -0.4122 -0.6735
  478MOL0     H64477   2.598   2.805   5.562  3.2354  0.9494  0.4854
  478MOL0     H64478   2.606   2.982   5.569 -0.9900  1.3128  0.8567
  478MOL0     H64479   2.480   2.793   5.776  1.6010 -0.1791 -0.5740
  478MOL0     H64480   2.482   2.970   5.804 -1.3621  1.0061 -2.4892
  478MOL0     H64481   2.379   3.114   5.592  0.0940  0.5722 -1.5194
  478MOL0     H64482   1.994   3.042   5.479 -0.1620 -1.8743 -0.0005
  478MOL0     H64483   2.068   3.184   5.552  4.5660  1.2493  0.6067
  478MOL0     H64484   2.059   3.208   5.308 -0.7989 -2.1056 -1.8803
  478MOL0     H64485   2.224   3.221   5.386  1.5895 -0.5633 -0.9233
  478MOL0     H64486   2.131   2.942   5.282  1.9160 -1.8237  1.7007
  478MOL0     H64487   2.284   3.029   5.303 -1.6903  0.0139  1.3156
  478MOL0     H64488   2.300   3.105   5.092  0.7478  0.9785  0.7294
  478MOL0     H64489   2.140   3.164   5.102 -0.2892 -1.2434 -3.6405
  478MOL0     H64490   1.950   2.874   4.923  2.1235  0.6590  2.4638
  478MOL0     H64491   1.830   2.930   4.723 -1.5615  1.1017 -0.7603
  478MOL0     H64492   1.715   3.024   4.291 -1.8367 -0.7010 -2.4294
  478MOL0     H64493   1.520   3.084   4.144  1.3200 -0.2182  0.1690
  478MOL0     H64494   1.350   3.478   4.170 -3.6795 -1.3194  1.6831
  478MOL0     H64495   1.468   3.389   4.068  0.3955 -2.5418  1.5380
  478MOL0     H64496   1.297   3.324   3.911 -0.9740  0.9455  0.4725
  478MOL0     H64497   1.178   3.337   4.044  1.2238 -1.9902  0.7303
  478MOL0     H64498   1.178   3.579   4.032 -0.7645  2.5273 -1.2335
  478MOL0     H64499   1.322   3.592   3.942 -0.2590 -0.1441  1.5204
  478MOL0     H64500   1.104   3.444   3.809 -0.3954 -1.3782  6.0522
  478MOL0     H64501   1.240   3.550   3.744  0.3985 -0.6178  0.2973
  478MOL0     H64502   1.052   3.683   3.696 -0.5592  1.4059  0.4758
  478MOL0     H64503   1.120   3.745   3.844  0.6843  0.0985 -2.0286
  478MOL0     H64504   0.943   3.633   3.971 -0.3167  1.9465  0.7078
  478MOL0     H64505   0.883   3.758   3.861  1.2112  1.2477 -2.0629
  478MOL0     H64506   0.843   3.452   3.817  2.5190  0.4121  3.2966
  478MOL0     H64507   0.783   3.585   3.714 -2.9421  0.0131  0.5896
  478MOL0     H64508   0.715   3.552   3.996  5.2033  0.2525 -0.8036
  478MOL0     H64509   0.639   3.666   3.877  0.5847 -0.1268 -0.1911
  478MOL0     H64510   1.406   3.387   4.430 -0.0703 -1.2198  1.8906
  478MOL0     H64511   1.556   3.291   4.594  1.8797 -2.1556  0.3290
  478MOL0     H64512   2.035   3.300   4.706 -0.0268  0.9453  0.4290
  478MOL0     H64513   2.181   3.231   4.886  1.6239 -3.7248  2.9039
  478MOL0     H64514   3.427   2.763   5.931 -1.8502 -0.7686 -1.6165
  478MOL0     H64515   3.655   2.881   5.957 -2.1840  2.8191  1.2784
  478MOL0     H64516   3.948   3.120   5.659  1.6747  1.3193 -1.0885
  478MOL0     H64517   4.145   3.271   5.610  0.3642  0.5974 -0.3255
  478MOL0     H64518   4.241   3.478   5.524  0.6523  0.7651 -0.1778
  478MOL0     H64519   4.352   3.422   5.653 -0.8268  0.3371  0.7424
  478MOL0     H64520   4.411   3.656   5.712  0.7941  2.0412  0.2731
  478MOL0     H64521   4.291   3.712   5.586  0.6412 -0.8023 -5.4421
  478MOL0     H64522   4.513   3.721   5.489  2.2181 -0.5551  1.3911
  478MOL0     H64523   4.405   3.605   5.397 -1.1583 -0.8435  0.9821
  478MOL0     H64524   4.541   3.417   5.471  2.9786 -1.6041 -1.1745
  478MOL0     H64525   4.617   3.529   5.388  2.1049  0.1227  1.1862
  478MOL0     H64526   4.815   3.552   5.779 -0.8630 -0.8255  1.2142
  478MOL0     H64527   3.993   3.561   5.876  0.4829  0.6694 -0.6214
  478MOL0     H64528   3.691   3.364   5.985  1.0211  3.2095  2.9711
  478MOL0     H64529   3.769   3.511   5.983  0.9220 -1.9776  0.0029
  478MOL0     H64530   3.665   3.477   5.839 -1.8479 -2.1568 -1.2063
  479MOL0     O64531   2.435   9.754   0.933 -0.4261 -0.3358  0.3019
  479MOL0     C64532   2.382   9.732   1.041 -0.3473 -0.1566  0.1187
  479MOL0     O64533   2.411   9.800   1.158  0.1802  0.1774  0.0514
  479MOL0     C64534   2.483   9.913   1.142 -0.2826  0.7624 -0.4322
  479MOL0     C64535   2.434  10.020   1.053 -0.4114 -0.3251 -0.6267
  479MOL0     C64536   2.522  10.117   1.013  1.1048 -1.1692 -0.9335
  479MOL0     C64537   2.632  10.141   1.091 -0.8799 -0.2669 -1.1108
  479MOL0     O64538   2.712  10.257   1.081 -0.2910  0.6670  0.2446
  479MOL0     C64539   2.667  10.360   0.991  0.7869 -0.4694 -0.6092
  479MOL0     C64540   2.741  10.501   0.999 -0.4654  0.4792  0.7261
  479MOL0     C64541   2.683  10.593   0.883 -1.2233  0.4754  0.3432
  479MOL0     C64542   2.726  10.736   0.901 -0.2126 -0.3132 -0.6111
  479MOL0     C64543   2.852  10.771   0.818  0.4113  0.4933 -0.3745
  479MOL0     C64544   2.883  10.926   0.814  0.9298  0.1105 -0.0640
  479MOL0     C64545   2.998  10.947   0.721 -0.4657  0.0392 -0.0833
  479MOL0     C64546   3.024  11.092   0.690  0.4179 -0.3384  0.1596
  479MOL0     N64547   3.143  11.104   0.607 -0.5269 -0.5326 -0.2617
  479MOL0     C64548   3.181  11.041   0.487 -0.5573  0.3136 -0.7205
  479MOL0     C64549   3.288  11.098   0.439  0.4033 -1.0534  0.5087
  479MOL0     C64550   3.358  11.056   0.313 -0.3104 -0.4912  0.1295
  479MOL0     C64551   3.295  11.136   0.192 -0.0992  0.1816  0.3944
  479MOL0     C64552   3.359  11.154   0.049 -0.0654  0.2891 -0.3745
  479MOL0     C64553   3.289  11.259  -0.030 -0.0226  0.4332 -0.4127
  479MOL0     O64554   3.319  11.391   0.018  0.2592 -0.7893 -0.2105
  479MOL0     C64555   3.240  11.500  -0.026  0.1751 -0.7867 -0.7572
  479MOL0     C64556   3.128  11.535   0.054 -1.3484  0.9503  1.1470
  479MOL0     C64557   3.060  11.646   0.000 -0.5729 -0.5916 -0.8124
  479MOL0     C64558   3.110  11.742  -0.095 -0.9355 -0.2395 -0.6157
  479MOL0     C64559   3.042  11.874  -0.122  0.1069 -0.6961  0.5227
  479MOL0     O64560   3.116  11.987  -0.132  0.3223 -0.2701 -0.0934
  479MOL0     C64561   3.043  12.095  -0.176  0.5363  0.7843 -0.0694
  479MOL0     C64562   3.040  12.129  -0.309 -0.6898 -0.1744  0.1038
  479MOL0     C64563   2.942  12.218  -0.359  0.4118 -0.4817 -1.0373
  479MOL0     C64564   2.854  12.288  -0.267  0.0191  0.7992  0.8104
  479MOL0     O64565   2.765  12.380  -0.310  0.1536  0.1250  0.2521
  479MOL0     C64566   2.819  12.472  -0.395 -0.3879 -0.2191 -0.1911
  479MOL0     C64567   2.747  12.613  -0.392  0.8162  0.2568 -0.8683
  479MOL0     C64568   2.597  12.611  -0.380  0.2419 -0.5146 -0.7655
  479MOL0     C64569   2.515  12.530  -0.492  0.3541 -0.1156  0.2261
  479MOL0     C64570   2.363  12.546  -0.475  1.1787  0.3154 -0.7375
  479MOL0     C64571   2.289  12.614  -0.597  0.6642  1.0731 -0.1686
  479MOL0     C64572   2.340  12.752  -0.638  0.0526 -0.2075 -0.0626
  479MOL0     C64573   2.240  12.857  -0.675  0.7211  0.3339 -0.7738
  479MOL0    Cl64574   2.322  13.014  -0.686  1.1657  0.0349 -0.3857
  479MOL0     C64575   2.863  12.246  -0.135  1.1234  0.0459  0.0845
  479MOL0     C64576   2.950  12.150  -0.088  0.8353 -0.0659  0.3925
  479MOL0     O64577   2.916  11.868  -0.117 -0.3706  0.7629  0.7853
  479MOL0     C64578   3.225  11.712  -0.167 -0.0946  0.4378  0.0046
  479MOL0     C64579   3.288  11.586  -0.132  0.1803 -0.5464 -0.2462
  479MOL0     N64580   3.327  11.198   0.533 -0.5857  0.7089 -0.2558
  479MOL0     N64581   3.234  11.200   0.630 -0.3537  0.8234 -0.8166
  479MOL0     C64582   2.683  10.041   1.180 -0.1155  0.9244  0.6799
  479MOL0     C64583   2.600   9.923   1.208 -0.9006  1.1600 -0.0340
  479MOL0     C64584   2.287   9.612   1.050 -0.2486  0.0138 -0.4334
  479MOL0     C64585   2.216   9.574   0.935 -0.9065 -0.8091  0.5972
  479MOL0     C64586   2.129   9.472   0.928 -0.0925 -0.4705 -0.2715
  479MOL0     C64587   2.105   9.397   1.043 -0.1254  0.4676 -0.4308
  479MOL0     O64588   2.019   9.290   1.032 -0.4604  0.2391  0.2837
  479MOL0     C64589   1.982   9.224   1.157 -0.4900  0.2792 -0.3950
  479MOL0     C64590   1.883   9.111   1.128  0.5155  0.5396 -1.0301
  479MOL0     C64591   1.753   9.158   1.057  0.4167  0.4821 -0.3392
  479MOL0     C64592   1.645   9.045   1.032 -0.0391  0.0954  0.1101
  479MOL0     C64593   1.583   9.069   0.897  0.3877 -0.5477 -0.4395
  479MOL0     C64594   1.539   9.100   0.788  0.3011  0.9220  0.3767
  479MOL0     C64595   2.163   9.428   1.163 -1.0017 -0.1215 -0.3234
  479MOL0     C64596   2.266   9.533   1.166  0.2594 -0.0876 -1.6528
  479MOL0     C64597   2.335   9.563   1.297  0.4725 -0.3593 -0.5459
  479MOL0     H64598   2.335  10.014   1.010 -1.1336 -0.5897  1.0074
  479MOL0     H64599   2.493  10.179   0.928 -4.7557 -2.0846 -0.0121
  479MOL0     H64600   2.662  10.327   0.887 -1.8823  2.2321 -1.4925
  479MOL0     H64601   2.560  10.378   1.008  0.9005 -0.9025  0.6572
  479MOL0     H64602   2.846  10.472   0.989 -0.5961  0.6048 -1.5673
  479MOL0     H64603   2.725  10.537   1.101  0.2636  0.2321  0.9329
  479MOL0     H64604   2.575  10.602   0.897 -1.0282  1.0526  1.7450
  479MOL0     H64605   2.695  10.567   0.778 -0.2663  1.3389  0.2192
  479MOL0     H64606   2.647  10.799   0.859 -1.3917 -0.5157  1.2033
  479MOL0     H64607   2.723  10.764   1.007  1.3758 -0.5670 -0.4796
  479MOL0     H64608   2.943  10.726   0.860  1.4364  1.5980 -1.3537
  479MOL0     H64609   2.851  10.723   0.720  0.9059  1.6455 -0.9577
  479MOL0     H64610   2.794  10.978   0.778  2.1894  2.5025  0.1046
  479MOL0     H64611   2.909  10.972   0.910 -1.1871 -0.8988  1.0944
  479MOL0     H64612   2.976  10.894   0.628 -1.1847  0.2342 -0.0366
  479MOL0     H64613   3.085  10.908   0.774 -0.7319  0.6605  0.8544
  479MOL0     H64614   2.944  11.142   0.634 -1.9605 -1.3750  2.4349
  479MOL0     H64615   3.038  11.151   0.781  0.6301 -1.1658  0.6724
  479MOL0     H64616   3.148  10.946   0.447  0.7100  0.7926 -3.0362
  479MOL0     H64617   3.462  11.089   0.322 -0.6026  0.4019  0.3302
  479MOL0     H64618   3.341  10.948   0.308 -1.2358 -0.3968  0.8050
  479MOL0     H64619   3.192  11.102   0.175  0.0473 -0.3840  0.6516
  479MOL0     H64620   3.294  11.240   0.227 -1.0498  0.2665  0.1630
  479MOL0     H64621   3.356  11.058  -0.004  0.9194  0.3520 -0.5578
  479MOL0     H64622   3.464  11.181   0.049  0.1404 -0.3641  1.5819
  479MOL0     H64623   3.182  11.235  -0.028 -0.3509  1.6959 -1.4921
  479MOL0     H64624   3.327  11.253  -0.132  3.2703 -0.2838  0.7312
  479MOL0     H64625   3.083  11.482   0.137 -1.2074  0.7098  1.0685
  479MOL0     H64626   2.966  11.679   0.044  0.4477  2.2334 -0.4936
  479MOL0     H64627   3.103  12.066  -0.370 -0.0594 -0.2428  0.8098
  479MOL0     H64628   2.947  12.234  -0.466 -2.0692  2.6660 -0.8404
  479MOL0     H64629   2.926  12.489  -0.378 -0.7313 -0.2033  2.4086
  479MOL0     H64630   2.801  12.431  -0.495 -0.0200 -0.1120 -0.3056
  479MOL0     H64631   2.783  12.669  -0.305 -2.5870 -1.4635  1.8838
  479MOL0     H64632   2.780  12.661  -0.485  2.6979 -0.2009 -0.4814
  479MOL0     H64633   2.565  12.566  -0.285  0.0683  1.4468  0.1608
  479MOL0     H64634   2.546  12.708  -0.386 -1.7194 -1.5847 -3.6931
  479MOL0     H64635   2.533  12.423  -0.479 -1.9662 -0.4305  1.4105
  479MOL0     H64636   2.550  12.554  -0.593  0.5551 -0.1280  0.2937
  479MOL0     H64637   2.348  12.604  -0.384 -0.5289 -2.7389  1.0993
  479MOL0     H64638   2.315  12.448  -0.467 -2.0628  1.8614  0.6695
  479MOL0     H64639   2.293  12.551  -0.686 -0.1327 -0.3431  0.7610
  479MOL0     H64640   2.182  12.616  -0.574  0.3043 -1.8960 -1.0919
  479MOL0     H64641   2.424  12.747  -0.708  1.6712 -0.7086  1.8171
  479MOL0     H64642   2.386  12.792  -0.547  0.1812 -0.3354 -0.0700
  479MOL0     H64643   2.185  12.829  -0.765  1.1887 -1.5359 -0.5109
  479MOL0     H64644   2.171  12.858  -0.590  1.4431  0.3967 -0.1791
  479MOL0     H64645   2.788  12.290  -0.070  2.0588  1.1995  0.4181
  479MOL0     H64646   2.952  12.118   0.016  1.9726 -0.8370  0.1602
  479MOL0     H64647   3.249  11.779  -0.248  2.0684  0.9117  0.9697
  479MOL0     H64648   3.378  11.555  -0.184  0.8943  0.6272  0.2553
  479MOL0     H64649   2.780  10.059   1.225  0.0296  0.2823  0.6254
  479MOL0     H64650   2.637   9.838   1.263 -0.4869  1.9884  1.0095
  479MOL0     H64651   2.250   9.611   0.839  3.2915 -1.2854  1.6889
  479MOL0     H64652   2.065   9.450   0.843  2.8193  0.4274 -2.8668
  479MOL0     H64653   1.938   9.306   1.214 -1.7937  2.2671 -3.9835
  479MOL0     H64654   2.070   9.182   1.206 -0.7590  0.6526  0.4182
  479MOL0     H64655   1.852   9.059   1.219 -0.5246 -0.3950 -1.8863
  479MOL0     H64656   1.917   9.022   1.075  1.5441 -0.2371  0.8486
  479MOL0     H64657   1.784   9.189   0.957  1.7209  0.9851  0.1991
  479MOL0     H64658   1.708   9.244   1.108 -3.1840 -1.4240  0.0569
  479MOL0     H64659   1.698   8.950   1.025 -2.8636 -1.7405  1.5729
  479MOL0     H64660   1.573   9.052   1.114 -1.1880  1.1868 -0.9283
  479MOL0     H64661   1.479   9.120   0.701 -2.3173 -3.3641  0.9070
  479MOL0     H64662   2.156   9.375   1.257  0.9511 -1.8927 -1.1199
  479MOL0     H64663   2.340   9.471   1.356 -2.8726 -0.2629  0.1061
  479MOL0     H64664   2.442   9.582   1.290  0.5640 -1.1327 -1.6132
  479MOL0     H64665   2.276   9.645   1.340  1.1047 -0.2243  0.0776
  480MOL0     O64666   5.283   3.529   6.971  0.4777  0.1411  1.2267
  480MOL0     C64667   5.361   3.547   6.877  0.1934  0.2273 -0.2973
  480MOL0     O64668   5.427   3.442   6.810  0.3120  0.8329  0.1760
  480MOL0     C64669   5.389   3.313   6.849  0.2782 -0.0144 -0.0981
  480MOL0     C64670   5.490   3.240   6.920  0.5344  0.5074 -0.5363
  480MOL0     C64671   5.453   3.113   6.963 -0.7442 -0.5775  0.3651
  480MOL0     C64672   5.328   3.057   6.942  0.3737  0.2571 -0.1365
  480MOL0     O64673   5.275   2.934   6.985  0.1806 -1.4015 -0.9824
  480MOL0     C64674   5.341   2.844   7.070  0.3261  1.1910 -0.0005
  480MOL0     C64675   5.275   2.704   7.052  0.1434  0.1039  0.9341
  480MOL0     C64676   5.281   2.636   6.914  0.1809  0.3037 -0.8954
  480MOL0     C64677   5.163   2.542   6.888 -0.7199 -0.0036  0.6967
  480MOL0     C64678   5.171   2.470   6.745  0.6159  0.5061 -0.5438
  480MOL0     C64679   5.045   2.387   6.710  0.5723 -1.1448 -0.4867
  480MOL0     C64680   5.075   2.298   6.589 -0.0307 -0.2336  0.6749
  480MOL0     C64681   4.956   2.223   6.517  1.1198  0.6750 -0.0685
  480MOL0     N64682   4.929   2.096   6.584 -0.1048  0.5821 -0.1871
  480MOL0     C64683   4.898   2.088   6.714 -0.3184  0.1729  0.5858
  480MOL0     C64684   4.910   1.959   6.747  1.0287  0.3177 -0.4928
  480MOL0     C64685   4.893   1.904   6.880 -0.0983 -0.2916 -0.5846
  480MOL0     C64686   4.785   1.967   6.958  0.4851 -1.0070 -0.7382
  480MOL0     C64687   4.809   1.942   7.107  0.6080  0.7120  0.0504
  480MOL0     C64688   4.712   2.020   7.193  1.2233  0.1931 -0.6698
  480MOL0     O64689   4.648   1.937   7.291  0.0300  0.3233  0.0133
  480MOL0     C64690   4.537   1.858   7.252 -0.0886  0.1204  0.0507
  480MOL0     C64691   4.460   1.884   7.138  0.1019 -0.5031 -0.5804
  480MOL0     C64692   4.354   1.796   7.105 -0.2807 -0.2274 -1.0676
  480MOL0     C64693   4.336   1.675   7.182  0.1992 -0.0362 -0.0324
  480MOL0     C64694   4.225   1.580   7.152 -0.1818 -0.0922  0.5047
  480MOL0     O64695   4.194   1.482   7.242  0.3917 -0.7302 -0.4290
  480MOL0     C64696   4.100   1.396   7.214 -0.2547  1.1618 -0.2783
  480MOL0     C64697   4.131   1.294   7.127  0.3356  0.6777  0.3997
  480MOL0     C64698   4.025   1.199   7.089  0.2752  0.4735 -0.2079
  480MOL0     C64699   3.900   1.202   7.149 -0.2714  0.2282 -0.2612
  480MOL0     O64700   3.791   1.119   7.124 -0.2262  0.5698  0.2521
  480MOL0     C64701   3.810   1.004   7.043  0.4843 -0.6503 -0.6856
  480MOL0     C64702   3.680   0.919   7.025  1.0315 -0.2788  0.0480
  480MOL0     C64703   3.552   1.005   7.009  0.0105  0.9951 -0.4014
  480MOL0     C64704   3.427   0.931   6.949 -0.7115 -0.7963 -0.7207
  480MOL0     C64705   3.301   1.016   6.933  0.0204  0.1248 -1.2315
  480MOL0     C64706   3.189   0.930   6.886  0.1439  0.2214  0.4326
  480MOL0     C64707   3.070   1.014   6.847  0.4227 -1.2967 -0.3141
  480MOL0     C64708   2.999   0.945   6.734 -0.3370 -0.9480 -0.2079
  480MOL0    Cl64709   2.924   0.805   6.797  0.2947  0.5083 -0.2821
  480MOL0     C64710   3.877   1.302   7.243  0.2093 -0.0284  0.1298
  480MOL0     C64711   3.974   1.395   7.270 -0.4256 -0.1683  0.1421
  480MOL0     O64712   4.188   1.585   7.038  0.6757  0.7070  0.5675
  480MOL0     C64713   4.414   1.660   7.293  0.3837 -0.9797  0.2136
  480MOL0     C64714   4.513   1.748   7.332  0.2400 -0.2106 -0.0585
  480MOL0     N64715   4.943   1.890   6.633  0.7140 -0.0103  0.8600
  480MOL0     N64716   4.957   1.976   6.533 -0.1340  0.7341 -0.8221
  480MOL0     C64717   5.244   3.125   6.857  0.2681  0.2615  0.6123
  480MOL0     C64718   5.271   3.255   6.816 -0.0069 -0.1478 -0.2459
  480MOL0     C64719   5.350   3.688   6.821 -0.2396  0.1971 -0.0978
  480MOL0     C64720   5.341   3.799   6.917 -0.3300  0.4526  0.1099
  480MOL0     C64721   5.360   3.930   6.875  0.1603  0.3295  0.7258
  480MOL0     C64722   5.391   3.955   6.741  0.7066 -0.6898  1.0134
  480MOL0     O64723   5.418   4.082   6.708 -0.2785  0.2070  0.0961
  480MOL0     C64724   5.550   4.124   6.682 -0.2782 -0.0107  0.0879
  480MOL0     C64725   5.595   4.223   6.792 -0.4606  0.9129  0.4040
  480MOL0     C64726   5.586   4.376   6.752  0.6480 -1.0801  0.4767
  480MOL0     C64727   5.649   4.481   6.845 -0.1760 -0.5878 -0.3805
  480MOL0     C64728   5.613   4.458   6.985  0.1713 -0.1279  0.1709
  480MOL0     C64729   5.595   4.437   7.103 -0.8864 -0.3388  0.5366
  480MOL0     C64730   5.381   3.849   6.645  0.6833  0.3611  0.2867
  480MOL0     C64731   5.370   3.715   6.685 -0.1838  0.9819 -1.0690
  480MOL0     C64732   5.372   3.606   6.577 -0.2796 -0.7524 -0.6075
  480MOL0     H64733   5.581   3.290   6.953 -1.6545  2.3996  3.3656
  480MOL0     H64734   5.522   3.067   7.033 -0.9322 -1.1056  0.2023
  480MOL0     H64735   5.443   2.831   7.033  0.3600  2.2626 -0.3329
  480MOL0     H64736   5.361   2.880   7.171  3.0689 -1.7271  0.6665
  480MOL0     H64737   5.172   2.705   7.088 -0.2806  3.1952 -0.0121
  480MOL0     H64738   5.334   2.638   7.116 -0.1730  1.4494  2.6782
  480MOL0     H64739   5.364   2.565   6.907 -1.1854 -1.2570 -1.9657
  480MOL0     H64740   5.297   2.716   6.841 -0.1983  0.9257 -0.3142
  480MOL0     H64741   5.160   2.471   6.970 -1.6441 -0.8665 -0.0554
  480MOL0     H64742   5.074   2.605   6.890 -0.6881  0.1482 -1.0641
  480MOL0     H64743   5.178   2.551   6.672  1.8299 -1.1693 -2.3851
  480MOL0     H64744   5.257   2.402   6.736 -1.3412 -2.5021  1.5591
  480MOL0     H64745   5.026   2.333   6.803  1.2382 -1.1012 -0.3199
  480MOL0     H64746   4.962   2.453   6.684 -1.5448 -3.6792 -0.5863
  480MOL0     H64747   5.159   2.230   6.607  1.3119  0.8691 -1.0927
  480MOL0     H64748   5.120   2.358   6.509 -1.5164 -1.1923 -0.9769
  480MOL0     H64749   4.873   2.294   6.524  0.5365  0.1202 -1.0574
  480MOL0     H64750   4.981   2.207   6.411 -0.4898  1.0119 -0.5254
  480MOL0     H64751   4.854   2.161   6.781 -0.8695 -1.0762  1.6444
  480MOL0     H64752   4.864   1.802   6.853 -2.6327 -0.1079  1.1149
  480MOL0     H64753   4.990   1.896   6.932 -1.1263 -1.3495  1.2847
  480MOL0     H64754   4.783   2.075   6.942 -1.8159 -0.4130  2.4329
  480MOL0     H64755   4.687   1.922   6.939 -0.8050  1.1800  0.3255
  480MOL0     H64756   4.914   1.965   7.130  1.4553 -0.8600 -1.9027
  480MOL0     H64757   4.793   1.837   7.131 -0.5517  1.3516  2.3681
  480MOL0     H64758   4.640   2.078   7.135 -1.2004 -0.3752  1.5585
  480MOL0     H64759   4.765   2.097   7.249  3.0351 -0.7560 -1.0073
  480MOL0     H64760   4.463   1.983   7.095  4.5453  1.3153  3.1088
  480MOL0     H64761   4.291   1.814   7.019 -0.1809  1.0472 -0.8919
  480MOL0     H64762   4.221   1.301   7.066  0.3724  3.6034  0.6542
  480MOL0     H64763   4.041   1.132   7.004 -0.7767  0.6370 -0.5515
  480MOL0     H64764   3.836   1.037   6.942  2.1963 -1.9595 -0.7125
  480MOL0     H64765   3.889   0.935   7.073  2.0029  1.3317  0.1232
  480MOL0     H64766   3.701   0.861   6.935  1.6279 -0.0738  0.0463
  480MOL0     H64767   3.673   0.844   7.104  0.2259  0.1148  0.3656
  480MOL0     H64768   3.526   1.044   7.108  0.0097  1.7818 -0.6990
  480MOL0     H64769   3.574   1.094   6.948 -1.4799  0.2263 -2.1822
  480MOL0     H64770   3.413   0.854   7.025  1.9379  0.2919  1.0189
  480MOL0     H64771   3.471   0.898   6.854  0.8465  0.9060 -0.6350
  480MOL0     H64772   3.325   1.089   6.855  2.3319  1.3020  0.4563
  480MOL0     H64773   3.278   1.067   7.027  1.4114  1.2033 -1.4532
  480MOL0     H64774   3.230   0.875   6.801  2.7155  1.1490  1.0001
  480MOL0     H64775   3.164   0.848   6.954 -2.7858  2.0069  1.7090
  480MOL0     H64776   3.110   1.114   6.826 -0.8680 -0.4276  1.2010
  480MOL0     H64777   2.991   1.041   6.917  0.2391  2.2904 -1.6921
  480MOL0     H64778   2.928   1.012   6.684  0.3559  0.4377  0.6017
  480MOL0     H64779   3.073   0.922   6.657 -1.9823 -0.9962 -1.8450
  480MOL0     H64780   3.780   1.312   7.289 -1.6771  4.3336 -3.9579
  480MOL0     H64781   3.950   1.476   7.339  2.7542  0.0025  1.2385
  480MOL0     H64782   4.401   1.575   7.358  0.8118  1.1482  3.3214
  480MOL0     H64783   4.566   1.727   7.424 -1.6648  1.7731  1.5847
  480MOL0     H64784   5.158   3.064   6.833  0.6353 -0.3693  0.8796
  480MOL0     H64785   5.207   3.306   6.745 -0.4092 -1.8958 -1.1926
  480MOL0     H64786   5.330   3.773   7.022 -0.0047 -4.4155 -0.8285
  480MOL0     H64787   5.344   4.004   6.953 -3.3971  1.0078 -0.4518
  480MOL0     H64788   5.556   4.183   6.590  2.5761  2.3988  1.6555
  480MOL0     H64789   5.624   4.045   6.665 -0.6822  0.0303 -2.2576
  480MOL0     H64790   5.699   4.210   6.824 -0.6889 -0.4332  0.6644
  480MOL0     H64791   5.546   4.189   6.884  1.2055  1.4504  1.5245
  480MOL0     H64792   5.482   4.406   6.741  1.3258  0.6808 -1.7439
  480MOL0     H64793   5.634   4.393   6.655 -2.8602  0.2192 -1.2205
  480MOL0     H64794   5.757   4.465   6.831  0.3888  2.3029 -0.0977
  480MOL0     H64795   5.636   4.587   6.821 -0.8755 -0.9993 -1.9069
  480MOL0     H64796   5.572   4.411   7.204 -3.3368 -3.5645 -0.6813
  480MOL0     H64797   5.386   3.871   6.538 -0.1206 -3.0689 -0.5786
  480MOL0     H64798   5.345   3.659   6.484  3.8423  1.8233 -0.5750
  480MOL0     H64799   5.475   3.570   6.578 -0.3724 -1.0295 -0.8887
  480MOL0     H64800   5.314   3.514   6.588  0.8533 -1.8182 -2.9177
  481MOL0     O64801   9.802  11.256  10.372  0.1917  0.2354 -0.2658
  481MOL0     C64802   9.778  11.375  10.369  0.9983  0.8187 -0.3238
  481MOL0     O64803   9.669  11.431  10.418 -0.6031 -0.7400 -0.6525
  481MOL0     C64804   9.613  11.397  10.539  0.1946 -0.4456  0.3728
  481MOL0     C64805   9.513  11.486  10.580 -0.9342 -1.0022 -0.7202
  481MOL0     C64806   9.442  11.462  10.701  0.3701  0.4919  0.0373
  481MOL0     C64807   9.469  11.349  10.778 -0.2763 -0.3809 -0.5698
  481MOL0     O64808   9.406  11.334  10.901 -0.2204 -0.6427 -0.5564
  481MOL0     C64809   9.259  11.339  10.915  0.2218 -1.7298 -0.0431
  481MOL0     C64810   9.199  11.214  10.856 -0.6390 -0.4052  0.1466
  481MOL0     C64811   9.041  11.226  10.848 -1.1344 -0.5114 -0.2709
  481MOL0     C64812   8.979  11.101  10.798  1.0544 -0.7378  0.2887
  481MOL0     C64813   8.829  11.102  10.758 -0.8711  0.3107 -0.2764
  481MOL0     C64814   8.795  10.971  10.683 -0.4838  0.4308 -0.0578
  481MOL0     C64815   8.802  10.834  10.755 -0.4977  0.0914  1.6642
  481MOL0     C64816   8.714  10.808  10.873  0.1834  0.2699  0.6493
  481MOL0     N64817   8.571  10.813  10.837  0.6695  0.7199  0.8226
  481MOL0     C64818   8.507  10.785  10.716  0.0870 -0.6954 -0.3059
  481MOL0     C64819   8.378  10.813  10.739  0.7037  0.1213 -0.8126
  481MOL0     C64820   8.270  10.803  10.643 -0.2821  0.6101 -0.6599
  481MOL0     C64821   8.182  10.682  10.653  0.8434  0.4874  0.2809
  481MOL0     C64822   8.277  10.555  10.649  0.5288 -0.1741  0.3635
  481MOL0     C64823   8.188  10.431  10.628 -0.4864  0.1417 -0.1729
  481MOL0     O64824   8.244  10.330  10.723  0.0112  0.5882  0.2930
  481MOL0     C64825   8.171  10.219  10.745  0.4336  0.6980 -0.4695
  481MOL0     C64826   8.243  10.112  10.802  0.1842 -0.1841 -0.5320
  481MOL0     C64827   8.194   9.984  10.810  0.3196  0.5148 -0.6273
  481MOL0     C64828   8.064   9.954  10.756  0.6049  0.1217  1.4563
  481MOL0     C64829   8.009   9.815  10.742  0.2746  0.8587 -0.0740
  481MOL0     O64830   8.091   9.712  10.710 -0.5752  0.1888  0.7480
  481MOL0     C64831   8.032   9.592  10.691  0.1741 -0.2750 -0.4353
  481MOL0     C64832   8.054   9.536  10.563  0.2576  1.5580 -0.0337
  481MOL0     C64833   8.018   9.405  10.543 -0.6442  0.0935  0.6498
  481MOL0     C64834   7.957   9.322  10.639  0.3370  1.3532 -0.9593
  481MOL0     O64835   7.918   9.188  10.616  0.4903  0.0997  0.3216
  481MOL0     C64836   7.884   9.144  10.487  0.1050 -0.3406 -0.3700
  481MOL0     C64837   7.856   8.992  10.499  0.1913 -1.3412  0.1874
  481MOL0     C64838   7.750   8.949  10.614  0.6162  0.1511 -0.2969
  481MOL0     C64839   7.685   8.808  10.602  0.5949  0.2217 -1.2540
  481MOL0     C64840   7.538   8.810  10.619 -1.1646  0.3768  0.5002
  481MOL0     C64841   7.466   8.671  10.614  0.9598 -0.3933 -0.4714
  481MOL0     C64842   7.541   8.558  10.536  0.0731  0.2869 -0.0620
  481MOL0     C64843   7.466   8.428  10.533  0.1212 -0.3027 -0.1467
  481MOL0    Cl64844   7.297   8.437  10.476 -0.2471  0.0259  0.0401
  481MOL0     C64845   7.919   9.379  10.758  0.0581  0.0554  0.8832
  481MOL0     C64846   7.962   9.512  10.791 -0.5066  0.4682  0.4068
  481MOL0     O64847   7.891   9.806  10.758  0.4870  0.2240  0.1549
  481MOL0     C64848   7.982  10.068  10.712 -0.0490 -0.4930  0.6415
  481MOL0     C64849   8.035  10.199  10.707  0.3093  0.5239  1.1782
  481MOL0     N64850   8.358  10.842  10.875  0.2166 -0.2369  0.9458
  481MOL0     N64851   8.471  10.841  10.931 -0.1170 -0.7665  0.0342
  481MOL0     C64852   9.575  11.267  10.741  0.4976 -0.2092  0.0464
  481MOL0     C64853   9.650  11.297  10.623  0.1091 -1.0297 -0.8497
  481MOL0     C64854   9.861  11.466  10.281  0.5807 -0.1372 -0.2843
  481MOL0     C64855   9.827  11.605  10.284 -0.5926 -0.0258 -0.6457
  481MOL0     C64856   9.905  11.698  10.215  0.6456  0.4694  0.7415
  481MOL0     C64857   9.999  11.654  10.122  0.6601  0.6962 -0.3660
  481MOL0     O64858  10.082  11.719  10.040  0.5448 -1.1489  0.2439
  481MOL0     C64859  10.017  11.775   9.920  0.4597  0.6449 -0.5260
  481MOL0     C64860  10.117  11.834   9.831 -0.2973 -0.0958  0.0057
  481MOL0     C64861  10.046  11.913   9.718 -0.3938 -0.0841 -0.1493
  481MOL0     C64862  10.137  11.956   9.604 -1.3097 -0.2621  0.5456
  481MOL0     C64863  10.233  12.061   9.646  0.8975  0.0081  0.1229
  481MOL0     C64864  10.311  12.145   9.688 -0.3844  0.3672  0.0207
  481MOL0     C64865  10.041  11.519  10.120  0.0477  0.2852  0.1420
  481MOL0     C64866   9.962  11.426  10.188 -0.7381  0.3871  0.1395
  481MOL0     C64867   9.983  11.283  10.143 -0.5727 -0.4677 -0.6835
  481MOL0     H64868   9.476  11.572  10.525 -1.6617 -0.4241  0.6127
  481MOL0     H64869   9.357  11.523  10.730 -1.2361 -1.4230 -0.4357
  481MOL0     H64870   9.234  11.347  11.021 -2.1854  1.3814 -0.6828
  481MOL0     H64871   9.222  11.430  10.867  0.6166 -1.9603 -0.8132
  481MOL0     H64872   9.230  11.130  10.918 -0.0993 -0.1075  0.2891
  481MOL0     H64873   9.234  11.204  10.753  1.1559  3.1406  0.2299
  481MOL0     H64874   9.016  11.293  10.765  1.6911  0.5354 -0.3749
  481MOL0     H64875   8.991  11.259  10.939 -1.3333  0.6443 -0.7748
  481MOL0     H64876   9.034  11.079  10.706 -1.5361  0.6421 -1.7419
  481MOL0     H64877   9.006  11.020  10.866  2.1130  0.1803  0.9880
  481MOL0     H64878   8.775  11.123  10.851  1.6563  3.1568  0.7208
  481MOL0     H64879   8.807  11.190  10.697  0.8216  1.7705  1.1228
  481MOL0     H64880   8.690  10.975  10.652 -0.0338  0.0094 -1.7637
  481MOL0     H64881   8.848  10.965  10.587  1.1953 -1.0721  0.8997
  481MOL0     H64882   8.909  10.813  10.768  0.0327  0.8115 -0.9203
  481MOL0     H64883   8.764  10.759  10.685 -3.8776  1.5798  1.7209
  481MOL0     H64884   8.747  10.710  10.908 -0.6932 -0.1219  0.4116
  481MOL0     H64885   8.731  10.894  10.939 -0.7862  0.1914  1.0182
  481MOL0     H64886   8.552  10.751  10.623  2.5189  0.8772  0.1992
  481MOL0     H64887   8.200  10.886  10.657  0.6265  1.9889 -3.4600
  481MOL0     H64888   8.311  10.800  10.541  0.8243  2.5568 -0.3180
  481MOL0     H64889   8.132  10.678  10.750 -0.5764 -0.2267 -0.4587
  481MOL0     H64890   8.105  10.678  10.575  1.9862  1.5421 -0.9598
  481MOL0     H64891   8.339  10.551  10.739  0.5368  1.9088  0.5078
  481MOL0     H64892   8.343  10.564  10.561 -0.2898 -1.2441 -0.3891
  481MOL0     H64893   8.214  10.392  10.529  2.5206  0.3295  0.4425
  481MOL0     H64894   8.082  10.456  10.637 -0.2237  0.9401  0.9255
  481MOL0     H64895   8.349  10.113  10.828  0.0535 -3.3069  0.4943
  481MOL0     H64896   8.252   9.897  10.840 -0.9000  0.7517  2.9000
  481MOL0     H64897   8.095   9.584  10.475 -0.3492 -2.2103 -2.6036
  481MOL0     H64898   8.058   9.362  10.452  0.1390  4.5394 -1.3925
  481MOL0     H64899   7.793   9.199  10.460  1.3774  1.9420 -0.3283
  481MOL0     H64900   7.956   9.151  10.405 -3.3570 -3.7541 -4.1739
  481MOL0     H64901   7.818   8.947  10.407 -2.5484  1.1457 -0.0332
  481MOL0     H64902   7.950   8.937  10.512  0.1754 -1.6793 -1.0426
  481MOL0     H64903   7.782   8.972  10.716 -2.6108  0.7754  0.6975
  481MOL0     H64904   7.664   9.016  10.608 -0.9143 -1.5964  0.9403
  481MOL0     H64905   7.724   8.747  10.684  1.5660  3.3803  0.8062
  481MOL0     H64906   7.695   8.770  10.500  0.5179  1.8480 -1.9058
  481MOL0     H64907   7.502   8.877  10.540  2.1816 -2.8142 -4.3574
  481MOL0     H64908   7.530   8.851  10.720  1.5376  2.4619 -0.0214
  481MOL0     H64909   7.431   8.640  10.713 -3.9756 -1.3378 -2.1923
  481MOL0     H64910   7.377   8.698  10.556  0.6942  2.8473  1.1904
  481MOL0     H64911   7.643   8.533  10.566  0.2984 -1.0058 -1.7412
  481MOL0     H64912   7.556   8.583  10.430  1.5758 -0.8343 -0.1441
  481MOL0     H64913   7.520   8.356  10.471  1.4761 -0.6423  1.3702
  481MOL0     H64914   7.457   8.381  10.631 -0.5644  0.8972  0.3910
  481MOL0     H64915   7.862   9.325  10.832 -1.2802  2.4607  1.7126
  481MOL0     H64916   7.934   9.553  10.887 -1.4532  0.6114  0.0830
  481MOL0     H64917   7.888  10.045  10.662 -0.2127 -1.1442  1.2400
  481MOL0     H64918   7.983  10.276  10.651 -0.6887 -0.1418  1.1651
  481MOL0     H64919   9.595  11.179  10.801  1.4174 -1.9983 -2.6715
  481MOL0     H64920   9.739  11.241  10.596  0.9821  0.6861 -1.7202
  481MOL0     H64921   9.747  11.646  10.345 -0.8441 -0.9812 -0.3156
  481MOL0     H64922   9.887  11.803  10.235 -0.3004 -0.1056  3.3817
  481MOL0     H64923   9.939  11.847   9.946  0.9352  0.9483  0.0917
  481MOL0     H64924   9.964  11.686   9.885  2.6330 -2.1394  2.7342
  481MOL0     H64925  10.185  11.753   9.801 -1.0429 -0.9412  0.5522
  481MOL0     H64926  10.184  11.909   9.876 -1.8195  0.6274  1.1578
  481MOL0     H64927   9.998  12.005   9.753  1.2590  1.4937 -1.8441
  481MOL0     H64928   9.969  11.846   9.679  0.1686 -2.2442  2.1837
  481MOL0     H64929  10.198  11.869   9.578 -2.1558 -0.2632 -1.6495
  481MOL0     H64930  10.081  11.988   9.516  1.1505 -1.0344 -1.4037
  481MOL0     H64931  10.371  12.224   9.726  0.7807  0.5414 -2.0220
  481MOL0     H64932  10.126  11.483  10.063 -1.0511  0.3585 -1.6142
  481MOL0     H64933  10.060  11.280  10.065  1.2868  1.0796  0.9688
  481MOL0     H64934  10.036  11.219  10.214  3.8844  2.3664 -1.0243
  481MOL0     H64935   9.891  11.237  10.107 -0.4118  0.2712 -2.1151
  482MOL0     O64936   2.478   3.167   0.617  0.1279 -0.0524 -0.3546
  482MOL0     C64937   2.483   3.146   0.739  0.7012 -0.9682  0.1940
  482MOL0     O64938   2.404   3.199   0.831  0.7447 -0.2210 -0.4234
  482MOL0     C64939   2.282   3.249   0.802 -0.2695  0.5558 -0.0411
  482MOL0     C64940   2.242   3.369   0.855 -0.7637  0.0241  0.7697
  482MOL0     C64941   2.127   3.429   0.800 -0.0713  0.7177 -0.6214
  482MOL0     C64942   2.040   3.361   0.718  0.5194  0.5275  0.3849
  482MOL0     O64943   1.933   3.429   0.673  0.0308  0.0116 -1.0930
  482MOL0     C64944   1.811   3.359   0.638 -0.0515  0.2965  0.7166
  482MOL0     C64945   1.692   3.456   0.616  0.0387  0.1290 -0.1588
  482MOL0     C64946   1.719   3.574   0.524  0.6274  0.9434  0.6702
  482MOL0     C64947   1.770   3.529   0.389 -0.6311 -0.7628 -0.4974
  482MOL0     C64948   1.823   3.645   0.297  0.8028 -0.4240 -0.2193
  482MOL0     C64949   1.714   3.735   0.232  0.6946 -0.1959 -0.9349
  482MOL0     C64950   1.755   3.803   0.094  0.3733  0.2560  0.1123
  482MOL0     C64951   1.653   3.915   0.051 -0.3124  0.6103 -0.5732
  482MOL0     N64952   1.708   3.994  -0.055  0.3322 -0.4354 -0.4141
  482MOL0     C64953   1.788   4.100  -0.033 -0.6384  0.3042  0.8808
  482MOL0     C64954   1.806   4.147  -0.158 -0.2522 -0.1119 -0.4457
  482MOL0     C64955   1.896   4.262  -0.195  1.3781  0.1287  0.6437
  482MOL0     C64956   2.044   4.248  -0.182 -0.9992 -0.7396  0.3092
  482MOL0     C64957   2.116   4.359  -0.264  0.3149 -0.3429 -0.8919
  482MOL0     C64958   2.104   4.357  -0.420  0.3181 -0.1825 -0.5489
  482MOL0     O64959   2.169   4.236  -0.460 -0.2938  0.0483 -0.3155
  482MOL0     C64960   2.137   4.172  -0.579  0.9904 -0.5308 -1.1368
  482MOL0     C64961   2.073   4.224  -0.691  0.1636 -0.7022  0.3248
  482MOL0     C64962   2.048   4.148  -0.800  0.0571  0.7419 -0.5424
  482MOL0     C64963   2.100   4.013  -0.795  0.8583 -0.5054  0.2906
  482MOL0     C64964   2.057   3.927  -0.908 -0.7169  0.0933  0.7840
  482MOL0     O64965   2.106   3.799  -0.909 -0.0196  0.6961 -0.5265
  482MOL0     C64966   2.064   3.711  -0.998  0.4532 -0.5027  0.1877
  482MOL0     C64967   2.058   3.584  -0.944 -0.2064 -0.0664  0.0684
  482MOL0     C64968   2.038   3.464  -1.020  0.7689 -0.4677  0.3712
  482MOL0     C64969   2.027   3.482  -1.156  0.2582 -1.0599  0.2425
  482MOL0     O64970   2.035   3.380  -1.253  0.7701  0.3495 -0.4320
  482MOL0     C64971   1.949   3.264  -1.235  0.2757 -0.2197 -0.2162
  482MOL0     C64972   1.883   3.215  -1.365  0.5849 -0.4641 -0.2401
  482MOL0     C64973   1.756   3.298  -1.394 -1.2224 -0.6996 -0.0392
  482MOL0     C64974   1.707   3.268  -1.534  1.6076  0.4915  0.2877
  482MOL0     C64975   1.590   3.368  -1.561  0.8815  0.8915 -0.1226
  482MOL0     C64976   1.454   3.329  -1.481  0.0050  0.6575  0.1306
  482MOL0     C64977   1.392   3.190  -1.525 -0.1426  0.3169  0.0183
  482MOL0     C64978   1.245   3.182  -1.501  0.2292 -1.1689  0.2407
  482MOL0    Cl64979   1.210   3.004  -1.455  0.1180  0.4335 -0.2369
  482MOL0     C64980   2.037   3.612  -1.217 -0.1462 -0.2642 -0.2414
  482MOL0     C64981   2.059   3.728  -1.138 -0.1485 -0.3718 -0.7482
  482MOL0     O64982   1.988   3.976  -0.994 -0.5320  0.2489  0.6881
  482MOL0     C64983   2.195   3.972  -0.707  0.9453 -0.1833 -0.5140
  482MOL0     C64984   2.211   4.059  -0.597  0.3260  0.1078 -0.4247
  482MOL0     N64985   1.746   4.067  -0.255 -0.0896 -0.6419  0.5429
  482MOL0     N64986   1.692   3.967  -0.191 -0.3123  0.1152  0.3841
  482MOL0     C64987   2.075   3.236   0.670 -0.0645 -0.5428  0.4785
  482MOL0     C64988   2.196   3.185   0.702 -0.2423  0.2828 -0.1353
  482MOL0     C64989   2.597   3.069   0.777 -1.3630  0.3323 -0.6540
  482MOL0     C64990   2.646   3.096   0.911  0.2312  0.2533  0.6792
  482MOL0     C64991   2.752   3.031   0.966 -0.4193 -0.0560  0.2964
  482MOL0     C64992   2.819   2.928   0.902 -0.2885  0.0257  0.2371
  482MOL0     O64993   2.929   2.870   0.964  0.1331 -0.4188 -0.0108
  482MOL0     C64994   3.038   2.825   0.884  0.9119  0.2624  0.0181
  482MOL0     C64995   3.016   2.671   0.869  0.1221 -0.8974  0.1059
  482MOL0     C64996   3.134   2.611   0.792  1.2884  0.1400 -0.1856
  482MOL0     C64997   3.095   2.464   0.754 -0.4076 -0.9600 -0.5773
  482MOL0     C64998   3.206   2.404   0.683  0.5553  0.0707  0.4479
  482MOL0     C64999   3.301   2.371   0.615  0.7442  1.0375 -0.3696
  482MOL0     C65000   2.776   2.896   0.767  0.7721 -0.7996  0.1271
  482MOL0     C65001   2.672   2.970   0.706  0.1839 -0.0233 -0.5468
  482MOL0     C65002   2.635   2.931   0.557 -0.1408 -0.4105 -0.5550
  482MOL0     H65003   2.308   3.425   0.921 -2.1469  2.2493  0.3544
  482MOL0     H65004   2.087   3.522   0.841  0.8804  0.3370  1.3384
  482MOL0     H65005   1.831   3.301   0.548 -1.3828  2.0785 -0.8075
  482MOL0     H65006   1.784   3.285   0.714  0.9801 -0.4186  0.4018
  482MOL0     H65007   1.669   3.502   0.712  0.0056  3.0991 -1.4913
  482MOL0     H65008   1.614   3.392   0.573  0.0872 -0.2776  0.3592
  482MOL0     H65009   1.796   3.626   0.582 -0.4273  1.2420  1.8207
  482MOL0     H65010   1.622   3.622   0.510 -0.5853 -0.8930  2.3077
  482MOL0     H65011   1.860   3.469   0.403  2.0627  3.0653 -0.0296
  482MOL0     H65012   1.704   3.462   0.334  2.4462 -2.8493 -1.9376
  482MOL0     H65013   1.892   3.712   0.348  2.1331 -1.1349 -1.0251
  482MOL0     H65014   1.876   3.604   0.210 -0.2703 -2.1033 -0.1388
  482MOL0     H65015   1.619   3.683   0.224 -0.0621  0.4771  2.2117
  482MOL0     H65016   1.692   3.805   0.314  2.6725 -3.4373  2.6954
  482MOL0     H65017   1.773   3.730   0.015  0.7668 -1.7559  1.9379
  482MOL0     H65018   1.850   3.854   0.115 -0.3013  0.7722  2.1655
  482MOL0     H65019   1.562   3.864   0.020  0.4411 -1.7900  0.8693
  482MOL0     H65020   1.628   3.979   0.136 -1.3394  0.0552 -0.4383
  482MOL0     H65021   1.812   4.134   0.067 -2.1290 -0.6314  1.5904
  482MOL0     H65022   1.863   4.284  -0.297 -0.7694 -2.1081  0.7682
  482MOL0     H65023   1.867   4.351  -0.138  1.0059  0.6218 -0.2785
  482MOL0     H65024   2.067   4.254  -0.075 -1.5032  0.1990  0.3758
  482MOL0     H65025   2.077   4.158  -0.235 -3.8984 -0.2335 -2.6879
  482MOL0     H65026   2.222   4.374  -0.244  0.3678 -1.9299  0.2384
  482MOL0     H65027   2.062   4.451  -0.239  2.3403  0.6886 -0.0918
  482MOL0     H65028   2.159   4.441  -0.464 -1.6111  1.6347  0.3004
  482MOL0     H65029   2.000   4.360  -0.454  0.5128  1.1426 -1.1201
  482MOL0     H65030   2.051   4.330  -0.687  1.0529 -0.5486  2.3849
  482MOL0     H65031   1.996   4.200  -0.879  1.6889 -0.3149 -2.4138
  482MOL0     H65032   2.081   3.577  -0.838 -0.1376  3.1727  0.3627
  482MOL0     H65033   2.025   3.367  -0.973 -1.0632 -0.3162  0.2600
  482MOL0     H65034   2.008   3.179  -1.199 -0.6310 -1.6880 -2.0060
  482MOL0     H65035   1.876   3.287  -1.156  1.1950  2.3497 -0.0302
  482MOL0     H65036   1.950   3.213  -1.452 -2.0360  0.8721 -2.4466
  482MOL0     H65037   1.857   3.110  -1.354 -0.2107 -0.3405 -0.8670
  482MOL0     H65038   1.686   3.280  -1.312 -0.4050 -0.8913  0.6370
  482MOL0     H65039   1.777   3.405  -1.391 -0.5064 -0.8481  1.3438
  482MOL0     H65040   1.672   3.165  -1.523 -0.9243  1.4369  1.9399
  482MOL0     H65041   1.789   3.265  -1.606  0.8732 -2.8929 -0.5508
  482MOL0     H65042   1.582   3.369  -1.670  0.2214 -0.5794 -0.1135
  482MOL0     H65043   1.619   3.472  -1.546  0.3662  1.1675 -0.9701
  482MOL0     H65044   1.482   3.322  -1.375  2.2424  3.7724 -0.0954
  482MOL0     H65045   1.387   3.412  -1.505 -2.3762 -1.2216 -0.0128
  482MOL0     H65046   1.444   3.100  -1.489  1.1687  1.1489  0.2540
  482MOL0     H65047   1.417   3.191  -1.632  3.2907 -1.0079  0.6674
  482MOL0     H65048   1.225   3.244  -1.413 -1.3829 -0.3958 -0.6157
  482MOL0     H65049   1.191   3.224  -1.586  0.3136 -1.5574 -0.0064
  482MOL0     H65050   2.043   3.612  -1.326  2.9727  3.7229 -0.3260
  482MOL0     H65051   2.063   3.823  -1.189 -0.8857 -0.9484 -1.9416
  482MOL0     H65052   2.247   3.877  -0.707  2.1385  0.4478  0.3324
  482MOL0     H65053   2.275   4.015  -0.520  0.7840  1.5050  0.0327
  482MOL0     H65054   2.009   3.188   0.599  0.8636 -1.4806  0.2354
  482MOL0     H65055   2.233   3.099   0.646 -0.6416  0.2031 -0.2831
  482MOL0     H65056   2.597   3.179   0.961 -2.7466  1.9725 -4.3230
  482MOL0     H65057   2.777   3.055   1.069  0.9640  1.9851 -0.4614
  482MOL0     H65058   3.126   2.856   0.941 -0.6849  0.6544  2.4437
  482MOL0     H65059   3.039   2.879   0.790 -1.9326  1.7214  0.7162
  482MOL0     H65060   2.917   2.650   0.827  0.3752 -0.5181 -0.6906
  482MOL0     H65061   3.006   2.621   0.966 -1.2356  0.8954  0.9639
  482MOL0     H65062   3.222   2.616   0.857  1.7849  1.3378 -0.9308
  482MOL0     H65063   3.161   2.675   0.708  0.0179 -0.9036 -1.4389
  482MOL0     H65064   3.085   2.402   0.843  1.5073 -1.5132 -0.6979
  482MOL0     H65065   3.004   2.464   0.694 -0.8510  0.7000  0.0256
  482MOL0     H65066   3.374   2.323   0.554 -3.6469 -3.0449 -3.1695
  482MOL0     H65067   2.823   2.814   0.713  0.7023 -0.9058  0.2269
  482MOL0     H65068   2.527   2.940   0.544 -0.4628  1.0778  2.3674
  482MOL0     H65069   2.691   2.996   0.489 -0.6986  3.2216  2.1245
  482MOL0     H65070   2.663   2.830   0.528  2.9838  0.1294  0.1589
  483MOL0     O65071   5.076  10.255   2.763  0.0734  0.1031  0.3369
  483MOL0     C65072   5.194  10.244   2.803  0.8567  1.2735 -0.4206
  483MOL0     O65073   5.300  10.306   2.737 -0.3352  0.5308 -0.5625
  483MOL0     C65074   5.275  10.400   2.643  0.8213 -0.0172 -0.8033
  483MOL0     C65075   5.345  10.389   2.520 -0.5680  0.2643 -1.0367
  483MOL0     C65076   5.332  10.493   2.433 -0.4128  0.2227  1.2226
  483MOL0     C65077   5.245  10.605   2.462 -0.1055  0.4355  0.2242
  483MOL0     O65078   5.214  10.709   2.373 -0.6729 -0.1298 -0.4440
  483MOL0     C65079   5.293  10.734   2.258 -0.4694  0.0333  0.7408
  483MOL0     C65080   5.227  10.861   2.193 -0.3215 -0.2971 -0.2924
  483MOL0     C65081   5.306  10.949   2.106 -0.2639 -0.5948  0.9756
  483MOL0     C65082   5.308  10.896   1.958 -0.5670 -0.4736  0.7556
  483MOL0     C65083   5.400  10.776   1.932  0.4907  0.7247 -0.7892
  483MOL0     C65084   5.525  10.802   2.013 -0.9241  0.4154 -0.2360
  483MOL0     C65085   5.632  10.729   1.930 -0.2114 -0.2060 -0.8898
  483MOL0     C65086   5.637  10.580   1.932  0.3154  0.4839 -0.0347
  483MOL0     N65087   5.664  10.510   2.058 -0.0674  0.0302 -0.2227
  483MOL0     C65088   5.781  10.464   2.085  0.1597 -1.1569  0.1144
  483MOL0     C65089   5.765  10.428   2.215  0.1099  0.5116 -0.4059
  483MOL0     C65090   5.874  10.377   2.306 -0.6185  0.3641  0.1714
  483MOL0     C65091   5.949  10.252   2.250  0.2966 -0.7007  0.1331
  483MOL0     C65092   6.094  10.267   2.232  0.4912  1.2669  0.4084
  483MOL0     C65093   6.149  10.150   2.141 -0.4222  0.9244  0.3843
  483MOL0     O65094   6.106  10.010   2.175 -0.3884 -0.9466  0.3600
  483MOL0     C65095   6.132   9.957   2.295 -0.3990 -0.0047 -0.4345
  483MOL0     C65096   6.235   9.989   2.389 -0.7982  0.2276 -0.3567
  483MOL0     C65097   6.243   9.927   2.518 -0.7492  0.6108  0.1396
  483MOL0     C65098   6.150   9.827   2.555 -0.1365 -0.0962  0.9890
  483MOL0     C65099   6.158   9.763   2.683 -0.8945  0.2097 -0.7044
  483MOL0     O65100   6.218   9.834   2.790 -0.3514 -0.1101  0.1239
  483MOL0     C65101   6.257   9.768   2.912  0.8477 -0.3893  0.1584
  483MOL0     C65102   6.174   9.660   2.965 -0.1182 -0.2300 -0.6982
  483MOL0     C65103   6.204   9.603   3.091 -0.4511  0.2478 -0.3927
  483MOL0     C65104   6.306   9.645   3.174  0.1497  0.8267  0.6581
  483MOL0     O65105   6.330   9.601   3.307 -0.6713  0.1659  0.4311
  483MOL0     C65106   6.257   9.670   3.414  0.4034  0.7402  1.4374
  483MOL0     C65107   6.335   9.784   3.483 -0.4320  0.4534 -0.6031
  483MOL0     C65108   6.261   9.822   3.615  0.7830 -1.2210 -0.3182
  483MOL0     C65109   6.347   9.909   3.708  0.0078 -0.0706 -0.6006
  483MOL0     C65110   6.291   9.937   3.845  0.3128  0.0365 -0.1125
  483MOL0     C65111   6.157  10.011   3.842  0.5827  0.0352 -0.1964
  483MOL0     C65112   6.095  10.024   3.980 -0.2967  0.3676 -1.1354
  483MOL0     C65113   6.051   9.886   4.028  0.7673 -0.7215  0.0200
  483MOL0    Cl65114   5.972   9.902   4.182  0.0377 -0.3919 -0.6908
  483MOL0     C65115   6.387   9.748   3.115 -0.3532  0.6559 -0.0281
  483MOL0     C65116   6.362   9.813   2.990  1.2828  0.2654 -0.2420
  483MOL0     O65117   6.104   9.654   2.684  0.1204  0.8081  0.0866
  483MOL0     C65118   6.043   9.806   2.470  0.1468 -0.2103 -0.9647
  483MOL0     C65119   6.044   9.865   2.338  0.9101  0.9467  0.2735
  483MOL0     N65120   5.640  10.462   2.262  0.9636 -0.4208 -0.5923
  483MOL0     N65121   5.579  10.507   2.155 -0.6333 -0.3366  0.1665
  483MOL0     C65122   5.170  10.606   2.579 -0.7119 -0.0608 -0.2178
  483MOL0     C65123   5.184  10.508   2.667 -0.0404 -0.1542  0.5629
  483MOL0     C65124   5.220  10.183   2.935 -0.5686  0.2388 -0.4551
  483MOL0     C65125   5.361  10.132   2.956  0.4267 -0.3685 -0.1731
  483MOL0     C65126   5.407  10.096   3.077  0.2280  0.7717 -0.1042
  483MOL0     C65127   5.316  10.095   3.179 -0.2990 -0.4034 -0.5306
  483MOL0     O65128   5.357  10.066   3.305  0.1944  0.6233 -0.4351
  483MOL0     C65129   5.390   9.929   3.321  0.3153  0.3893 -0.8779
  483MOL0     C65130   5.399   9.904   3.475 -0.2057  1.0442 -0.8067
  483MOL0     C65131   5.278   9.948   3.553 -0.3556 -0.1816  0.5078
  483MOL0     C65132   5.309   9.906   3.691 -1.0679  0.1475 -0.5268
  483MOL0     C65133   5.221   9.949   3.792  0.2636  1.2563 -0.3094
  483MOL0     C65134   5.137   9.969   3.881  0.3429  0.0099  0.1323
  483MOL0     C65135   5.177  10.119   3.163 -0.0010  0.6431  0.2470
  483MOL0     C65136   5.124  10.163   3.040 -0.5566 -0.4770 -0.3539
  483MOL0     C65137   4.981  10.197   3.045  0.8654 -1.1546  0.7023
  483MOL0     H65138   5.410  10.308   2.488  0.1413  1.2455 -2.1744
  483MOL0     H65139   5.377  10.479   2.336 -0.6644 -0.7306  1.2346
  483MOL0     H65140   5.395  10.740   2.298 -0.9485 -0.9471  2.1681
  483MOL0     H65141   5.298  10.648   2.191  1.0247 -0.5883  1.5864
  483MOL0     H65142   5.183  10.925   2.270 -1.0194  2.3867 -2.7534
  483MOL0     H65143   5.138  10.828   2.137  0.0436 -2.8133  0.4685
  483MOL0     H65144   5.404  10.966   2.153  1.2317 -0.7556 -1.8580
  483MOL0     H65145   5.257  11.046   2.099 -0.1553 -0.6120 -0.3106
  483MOL0     H65146   5.212  10.864   1.918  0.2932 -0.1027 -1.7904
  483MOL0     H65147   5.346  10.978   1.897 -0.3048 -0.3374  1.0997
  483MOL0     H65148   5.350  10.683   1.964 -2.2518  2.5199  0.5621
  483MOL0     H65149   5.407  10.777   1.823 -1.0674  0.6454 -0.9187
  483MOL0     H65150   5.551  10.907   2.002  4.4719 -0.7136 -1.3287
  483MOL0     H65151   5.531  10.782   2.120 -0.3296  2.7605  0.2247
  483MOL0     H65152   5.722  10.762   1.983 -0.4291  1.2778 -1.4226
  483MOL0     H65153   5.634  10.766   1.827 -0.2045  2.7986  0.1162
  483MOL0     H65154   5.543  10.534   1.900  0.7441 -2.3733  2.3841
  483MOL0     H65155   5.708  10.561   1.850  0.1021  2.7318 -0.8254
  483MOL0     H65156   5.862  10.475   2.014 -0.8315  1.8129 -0.7201
  483MOL0     H65157   5.935  10.461   2.339  0.3470  0.2015 -1.1411
  483MOL0     H65158   5.824  10.351   2.400 -1.7140  3.0383  0.4130
  483MOL0     H65159   5.932  10.179   2.329 -0.1828 -1.8135 -0.9710
  483MOL0     H65160   5.896  10.217   2.161 -0.6900 -0.2776  0.5325
  483MOL0     H65161   6.139  10.268   2.332  0.1746 -2.0148  0.6800
  483MOL0     H65162   6.104  10.363   2.180 -2.5221  0.3624 -2.1037
  483MOL0     H65163   6.258  10.151   2.141 -0.3825 -0.5032  0.6903
  483MOL0     H65164   6.107  10.169   2.042 -0.3350 -1.3524 -0.1455
  483MOL0     H65165   6.305  10.068   2.366 -0.2672 -0.1049  0.0968
  483MOL0     H65166   6.335   9.941   2.574 -1.1559 -1.9442  1.6051
  483MOL0     H65167   6.092   9.627   2.902 -0.2863  1.5127 -1.4502
  483MOL0     H65168   6.132   9.527   3.117  0.4922 -0.7258 -0.5630
  483MOL0     H65169   6.162   9.708   3.377  0.7981 -0.8785 -1.5117
  483MOL0     H65170   6.246   9.602   3.500  1.7808  0.7691  1.6665
  483MOL0     H65171   6.438   9.753   3.506 -0.2250  3.3692  3.5458
  483MOL0     H65172   6.344   9.864   3.409 -1.1529 -1.5800 -3.0276
  483MOL0     H65173   6.173   9.876   3.578  0.9090 -1.2636 -0.6863
  483MOL0     H65174   6.223   9.734   3.668  0.6403 -1.1521 -0.3060
  483MOL0     H65175   6.382  10.001   3.661  0.9801  0.7542  1.5860
  483MOL0     H65176   6.435   9.853   3.739 -0.4356 -0.9256 -0.8534
  483MOL0     H65177   6.367  10.005   3.883  1.1513 -1.0713  0.2466
  483MOL0     H65178   6.281   9.843   3.900 -1.0078 -0.8128 -1.7039
  483MOL0     H65179   6.171  10.108   3.793  1.8848  0.6580  1.3140
  483MOL0     H65180   6.096   9.953   3.773  0.1855 -0.6275  0.6944
  483MOL0     H65181   6.017  10.098   3.960  1.6424  2.5480 -0.9598
  483MOL0     H65182   6.158  10.065   4.059  1.2174 -0.0523 -2.0828
  483MOL0     H65183   5.986   9.844   3.950 -0.5711  0.5430  0.4231
  483MOL0     H65184   6.139   9.827   4.055  0.5382 -0.7208  0.7849
  483MOL0     H65185   6.475   9.779   3.170 -0.6180  1.6284 -0.1397
  483MOL0     H65186   6.429   9.894   2.963  1.2820  0.9611  1.6717
  483MOL0     H65187   5.969   9.738   2.511  1.3836 -0.7349  0.4931
  483MOL0     H65188   5.969   9.848   2.262  0.6116  0.7184  0.6162
  483MOL0     H65189   5.095  10.684   2.587 -0.8332 -0.1614 -0.3542
  483MOL0     H65190   5.126  10.508   2.760  0.0986 -2.2778  0.7134
  483MOL0     H65191   5.427  10.131   2.869 -0.8579  3.2105 -1.3827
  483MOL0     H65192   5.506  10.059   3.100 -0.0723 -0.6534 -0.9849
  483MOL0     H65193   5.487   9.900   3.279  0.6605  1.1337 -0.5977
  483MOL0     H65194   5.315   9.861   3.280  2.0392 -1.8214 -0.6041
  483MOL0     H65195   5.481   9.968   3.508 -2.2249  4.1429 -1.3201
  483MOL0     H65196   5.418   9.797   3.487 -2.6088  0.7542  1.1601
  483MOL0     H65197   5.183   9.910   3.514 -1.3191  4.4293 -2.4923
  483MOL0     H65198   5.265  10.056   3.550  0.0421 -0.1342  0.3621
  483MOL0     H65199   5.327   9.800   3.714  1.6574  0.8974  1.4767
  483MOL0     H65200   5.408   9.941   3.723  0.0118 -4.8284  2.7554
  483MOL0     H65201   5.057   9.991   3.949  0.3546  2.0585 -0.4584
  483MOL0     H65202   5.124  10.088   3.252 -0.2446 -0.0880 -0.1481
  483MOL0     H65203   4.947  10.215   3.147 -0.2620  0.1614  0.1112
  483MOL0     H65204   4.957  10.279   2.977  2.4641 -1.7504 -0.6417
  483MOL0     H65205   4.919  10.111   3.018  0.2462 -0.4536 -0.1327
  484MOL0     O65206   3.148   7.538   2.978  0.2601  1.1069 -0.5184
  484MOL0     C65207   3.074   7.461   3.037  0.3014 -0.2003 -0.1106
  484MOL0     O65208   2.952   7.433   2.996  1.5082  0.4701  0.1421
  484MOL0     C65209   2.906   7.486   2.878  0.3766  0.2736 -0.0631
  484MOL0     C65210   2.893   7.404   2.766 -0.3378 -0.0510 -0.7681
  484MOL0     C65211   2.842   7.449   2.645 -0.2053 -0.1960 -0.2054
  484MOL0     C65212   2.804   7.578   2.636  0.4292  0.0707 -0.3155
  484MOL0     O65213   2.777   7.628   2.510  0.2956 -0.2883  0.2135
  484MOL0     C65214   2.685   7.559   2.427  0.1716  0.2876 -0.2108
  484MOL0     C65215   2.576   7.657   2.367  0.8300  0.7068  0.1475
  484MOL0     C65216   2.623   7.789   2.316 -0.0301 -0.4033 -0.1114
  484MOL0     C65217   2.604   7.892   2.430  1.0948 -0.4025 -0.2825
  484MOL0     C65218   2.635   8.040   2.378  0.1324  0.6534  0.3566
  484MOL0     C65219   2.525   8.084   2.270 -1.0427 -0.2246  0.9379
  484MOL0     C65220   2.538   8.225   2.241  0.1307 -0.6360 -0.3964
  484MOL0     C65221   2.417   8.285   2.166  0.4504 -0.6052 -0.6087
  484MOL0     N65222   2.442   8.405   2.094 -0.7207 -0.4407 -0.2084
  484MOL0     C65223   2.445   8.527   2.157 -0.7951  0.7490 -0.9896
  484MOL0     C65224   2.411   8.615   2.058  0.4581  0.0798 -0.6307
  484MOL0     C65225   2.406   8.765   2.082 -0.1077  0.4528 -0.9094
  484MOL0     C65226   2.332   8.852   1.979 -0.1250  0.1627  0.1893
  484MOL0     C65227   2.185   8.832   1.992  0.3443  0.2330 -0.1680
  484MOL0     C65228   2.106   8.923   1.906  0.5275 -0.8395  0.7397
  484MOL0     O65229   1.963   8.923   1.916  0.4512  0.1654 -1.1872
  484MOL0     C65230   1.894   8.818   1.860  0.2159 -1.4832  0.0074
  484MOL0     C65231   1.752   8.838   1.864  0.5106  0.1739 -0.1652
  484MOL0     C65232   1.664   8.736   1.808 -0.4323 -0.5239  1.2880
  484MOL0     C65233   1.717   8.621   1.759 -0.3762 -0.5692  0.3063
  484MOL0     C65234   1.630   8.510   1.710 -0.9236  0.3257 -1.0248
  484MOL0     O65235   1.500   8.523   1.715  1.0062  0.5065  0.2840
  484MOL0     C65236   1.417   8.412   1.686  1.0614  0.4824  0.0897
  484MOL0     C65237   1.304   8.384   1.769 -0.0910 -0.1729 -0.6239
  484MOL0     C65238   1.242   8.260   1.769  0.7419  0.5615 -0.4751
  484MOL0     C65239   1.260   8.173   1.655 -0.1425 -0.4730  0.0004
  484MOL0     O65240   1.179   8.066   1.637  0.1447 -1.1468  0.0596
  484MOL0     C65241   1.241   7.944   1.600  0.5104 -0.0867 -0.0319
  484MOL0     C65242   1.282   7.849   1.718  0.0487  0.1615 -0.2246
  484MOL0     C65243   1.352   7.727   1.669 -0.4720 -0.1949  0.0586
  484MOL0     C65244   1.425   7.642   1.779 -0.1467 -0.0154 -0.1974
  484MOL0     C65245   1.509   7.538   1.711  0.1021 -0.5288  0.7489
  484MOL0     C65246   1.578   7.451   1.818  0.5801  0.0453  0.0420
  484MOL0     C65247   1.511   7.309   1.828  0.3355 -0.0484  0.6490
  484MOL0     C65248   1.587   7.208   1.909  0.1110  0.1762 -0.0859
  484MOL0    Cl65249   1.525   7.045   1.880  0.4531 -0.5274  0.1256
  484MOL0     C65250   1.348   8.215   1.554  1.3387 -0.2198 -0.1240
  484MOL0     C65251   1.422   8.331   1.572 -0.1532  0.7048  0.4632
  484MOL0     O65252   1.696   8.408   1.681  0.8961 -0.2111 -0.1895
  484MOL0     C65253   1.861   8.610   1.747 -0.3308 -1.1998  0.1795
  484MOL0     C65254   1.950   8.716   1.785 -0.2127 -0.1189  0.0455
  484MOL0     N65255   2.394   8.552   1.934 -0.1837 -0.3782 -0.6326
  484MOL0     N65256   2.421   8.430   1.960 -0.3163 -0.1069  0.5692
  484MOL0     C65257   2.824   7.664   2.741 -0.0605  0.2660  0.2264
  484MOL0     C65258   2.872   7.623   2.868 -0.1742  0.5357  0.5346
  484MOL0     C65259   3.132   7.393   3.156 -0.7766 -0.7820  0.3006
  484MOL0     C65260   3.274   7.392   3.163 -0.4474 -0.5041  0.0844
  484MOL0     C65261   3.341   7.319   3.272  0.6914 -0.0505  0.5822
  484MOL0     C65262   3.254   7.253   3.356 -1.0564  0.3225  0.2400
  484MOL0     O65263   3.299   7.163   3.459 -0.1050 -0.0653 -0.1769
  484MOL0     C65264   3.439   7.132   3.473  0.0955  0.9111  1.0739
  484MOL0     C65265   3.460   7.011   3.573 -0.0862  0.4964  0.4497
  484MOL0     C65266   3.422   6.873   3.512  0.0464 -0.1528 -0.2615
  484MOL0     C65267   3.520   6.812   3.411 -0.1174 -0.7156  0.5055
  484MOL0     C65268   3.655   6.795   3.467 -1.4929  0.2197 -0.2244
  484MOL0     C65269   3.749   6.745   3.531 -0.2390 -0.1741 -0.4247
  484MOL0     C65270   3.121   7.263   3.353  0.2667 -0.6030  0.2230
  484MOL0     C65271   3.054   7.332   3.261 -0.1637  0.1858  0.2171
  484MOL0     C65272   2.906   7.344   3.273 -0.0978  0.8038  0.4108
  484MOL0     H65273   2.891   7.296   2.775 -2.2239  0.0728  0.8894
  484MOL0     H65274   2.830   7.372   2.570  3.2615 -3.7266  2.4923
  484MOL0     H65275   2.738   7.504   2.349  1.1165  1.3287 -0.3352
  484MOL0     H65276   2.633   7.483   2.486  3.7943 -1.0383  1.5333
  484MOL0     H65277   2.486   7.667   2.429 -0.1622 -3.4731 -0.3071
  484MOL0     H65278   2.530   7.592   2.291  0.6477 -1.3486  1.9426
  484MOL0     H65279   2.567   7.820   2.227  0.1073  0.4879  0.1058
  484MOL0     H65280   2.724   7.773   2.278 -0.2846 -1.9496 -0.2021
  484MOL0     H65281   2.501   7.883   2.466  1.4157 -1.3881  0.4538
  484MOL0     H65282   2.682   7.869   2.503  2.0806  1.4328 -0.7074
  484MOL0     H65283   2.633   8.104   2.467 -1.4530  1.3853 -0.1640
  484MOL0     H65284   2.734   8.050   2.332  0.2174  0.3251  0.4666
  484MOL0     H65285   2.535   8.028   2.176 -1.3222 -0.9126  1.3049
  484MOL0     H65286   2.427   8.047   2.302 -2.0878 -1.6762 -3.2984
  484MOL0     H65287   2.628   8.234   2.180  0.1047 -1.0962 -0.5087
  484MOL0     H65288   2.557   8.275   2.337  0.5937 -0.3581 -0.6300
  484MOL0     H65289   2.387   8.212   2.091  1.4895 -1.0207 -0.6299
  484MOL0     H65290   2.336   8.304   2.237 -1.6418 -2.5219 -2.3330
  484MOL0     H65291   2.484   8.556   2.255 -2.6469  2.1412 -0.6103
  484MOL0     H65292   2.358   8.790   2.177 -1.2861  3.0663 -2.0786
  484MOL0     H65293   2.510   8.801   2.079  0.2471 -0.0928  2.0085
  484MOL0     H65294   2.361   8.956   1.993  2.2697 -0.2557 -1.1347
  484MOL0     H65295   2.368   8.819   1.882  2.0077 -2.1973  1.6374
  484MOL0     H65296   2.154   8.833   2.097  0.8474  0.6173 -0.0202
  484MOL0     H65297   2.168   8.735   1.943  0.4539 -0.2711  0.7766
  484MOL0     H65298   2.132   8.917   1.800  0.9221  1.0315  0.6837
  484MOL0     H65299   2.131   9.022   1.945 -1.2795  0.9726 -2.2937
  484MOL0     H65300   1.710   8.930   1.904  1.5765  0.9148 -0.7058
  484MOL0     H65301   1.558   8.758   1.820 -0.6600 -0.1750 -0.9497
  484MOL0     H65302   1.272   8.448   1.851  2.4586 -1.2721  1.3829
  484MOL0     H65303   1.161   8.240   1.838  0.0159 -1.1996 -1.7727
  484MOL0     H65304   1.159   7.897   1.545 -0.7913 -0.5011  2.1283
  484MOL0     H65305   1.324   7.954   1.529 -1.4158  0.7286 -2.3322
  484MOL0     H65306   1.345   7.912   1.781  0.0682  1.6292 -1.6637
  484MOL0     H65307   1.195   7.807   1.769  0.3550 -0.6712 -0.3656
  484MOL0     H65308   1.292   7.649   1.621 -1.3945 -2.2521  4.1078
  484MOL0     H65309   1.436   7.758   1.606  0.6035  0.3650  1.7047
  484MOL0     H65310   1.360   7.600   1.857  1.3305  1.1279  1.7468
  484MOL0     H65311   1.495   7.711   1.827 -0.4425  1.7325 -2.1518
  484MOL0     H65312   1.591   7.580   1.653 -2.0208  0.6197 -1.6472
  484MOL0     H65313   1.445   7.493   1.635 -0.0856  1.7952 -0.5754
  484MOL0     H65314   1.678   7.422   1.784 -0.5175 -2.1851 -1.5700
  484MOL0     H65315   1.579   7.499   1.916 -0.4113 -1.8256  1.0299
  484MOL0     H65316   1.512   7.266   1.727 -1.7047  1.1325  0.0532
  484MOL0     H65317   1.404   7.316   1.853 -1.0778 -1.7560 -3.7852
  484MOL0     H65318   1.689   7.218   1.873  0.2992 -1.7158 -0.1979
  484MOL0     H65319   1.589   7.229   2.016 -0.5056 -3.9977  0.9265
  484MOL0     H65320   1.364   8.161   1.461 -1.4123 -0.3298 -0.6074
  484MOL0     H65321   1.502   8.338   1.500  1.7782 -1.7937  2.1620
  484MOL0     H65322   1.896   8.513   1.713  0.4954 -1.0471  0.5594
  484MOL0     H65323   2.057   8.702   1.778  0.0076  1.2991  0.2308
  484MOL0     H65324   2.792   7.767   2.732  0.2313  0.4561  1.3187
  484MOL0     H65325   2.892   7.697   2.946  4.1468  0.8599 -0.6493
  484MOL0     H65326   3.340   7.433   3.087  1.5894 -0.6894  1.6647
  484MOL0     H65327   3.449   7.319   3.280  0.7883  0.1259 -0.5505
  484MOL0     H65328   3.488   7.223   3.510  1.2271  0.0073  1.8858
  484MOL0     H65329   3.485   7.105   3.378  1.4183 -2.3214  2.4681
  484MOL0     H65330   3.389   7.035   3.652  0.2706 -0.0441  0.9477
  484MOL0     H65331   3.559   6.995   3.618  0.4405 -4.9026 -1.7594
  484MOL0     H65332   3.327   6.888   3.461 -0.6576  1.4263  1.3952
  484MOL0     H65333   3.408   6.800   3.593  0.5900 -1.2206 -1.1088
  484MOL0     H65334   3.480   6.712   3.389  0.4501 -1.5292  2.8949
  484MOL0     H65335   3.533   6.877   3.324  0.9285 -0.9866  0.4367
  484MOL0     H65336   3.832   6.712   3.589  2.1187  1.9217 -2.3309
  484MOL0     H65337   3.064   7.218   3.433 -0.1405 -0.0351  0.2572
  484MOL0     H65338   2.875   7.311   3.372  2.8776 -1.9782  0.5851
  484MOL0     H65339   2.858   7.437   3.242 -0.3308  0.4867 -0.1995
  484MOL0     H65340   2.857   7.279   3.200 -3.6124  1.5065  1.9586
  485MOL0     O65341   1.677   7.971   1.104  0.4500  0.6225  0.5509
  485MOL0     C65342   1.672   8.058   1.188 -1.2249  0.5930  0.6817
  485MOL0     O65343   1.560   8.072   1.267 -0.6346  0.1553 -0.9554
  485MOL0     C65344   1.488   7.958   1.268 -0.2720  0.8392  0.4522
  485MOL0     C65345   1.526   7.837   1.327  0.3727 -0.2265 -0.3505
  485MOL0     C65346   1.430   7.733   1.328 -0.0072  0.3965  0.2285
  485MOL0     C65347   1.299   7.745   1.281 -0.3419  0.1102 -0.8890
  485MOL0     O65348   1.207   7.643   1.303 -0.3578 -0.8140 -0.3174
  485MOL0     C65349   1.099   7.638   1.210 -0.2935 -0.1110 -0.2169
  485MOL0     C65350   1.058   7.502   1.164 -0.5194 -1.0170  0.7159
  485MOL0     C65351   1.170   7.430   1.103  0.2195  0.3873  1.1660
  485MOL0     C65352   1.120   7.321   0.999 -0.2699  0.1019 -0.4875
  485MOL0     C65353   1.224   7.217   0.958 -0.7661 -0.8614  0.2859
  485MOL0     C65354   1.287   7.254   0.821 -0.0382  0.6235  0.9958
  485MOL0     C65355   1.176   7.230   0.713  0.3931 -0.0191  0.7538
  485MOL0     C65356   1.245   7.223   0.576  0.8483  0.4274 -0.8215
  485MOL0     N65357   1.239   7.082   0.529 -0.0525  0.4380  0.5251
  485MOL0     C65358   1.328   6.976   0.572  0.6778 -0.5291  0.6201
  485MOL0     C65359   1.249   6.863   0.550 -0.0254  0.5063  0.8538
  485MOL0     C65360   1.291   6.730   0.588  0.4588  0.7611 -0.1863
  485MOL0     C65361   1.262   6.703   0.741 -0.1369 -0.9557  0.0322
  485MOL0     C65362   1.273   6.556   0.792 -0.2274 -0.3046  0.0986
  485MOL0     C65363   1.191   6.464   0.702  0.4287  1.2607  0.3281
  485MOL0     O65364   1.066   6.518   0.697  0.3522 -0.1508  0.3295
  485MOL0     C65365   0.992   6.469   0.595  0.4105 -0.0438 -0.1833
  485MOL0     C65366   0.997   6.328   0.564  1.1077 -0.7624  0.1962
  485MOL0     C65367   0.897   6.285   0.479  0.2991  0.0101 -0.3247
  485MOL0     C65368   0.803   6.374   0.426 -0.3135 -0.3822  0.7489
  485MOL0     C65369   0.688   6.321   0.345  0.4062 -0.1405  0.4792
  485MOL0     O65370   0.582   6.410   0.342  0.5211 -0.5443 -0.8659
  485MOL0     C65371   0.471   6.366   0.281  0.2077  0.3175 -0.1290
  485MOL0     C65372   0.362   6.320   0.354  0.3502 -0.0811  0.4866
  485MOL0     C65373   0.233   6.298   0.295 -0.6380  0.4116 -0.4447
  485MOL0     C65374   0.228   6.306   0.155 -0.0658  0.0617 -0.4263
  485MOL0     O65375   0.115   6.274   0.088  0.3554  0.4689 -0.8319
  485MOL0     C65376   0.129   6.160  -0.002 -0.2545 -0.3785 -0.6551
  485MOL0     C65377  -0.001   6.084  -0.009  0.3218 -1.3598  0.4576
  485MOL0     C65378   0.012   5.970  -0.109  0.2155 -0.3041 -1.1087
  485MOL0     C65379  -0.131   5.899  -0.115 -0.6058  0.3289 -0.0049
  485MOL0     C65380  -0.132   5.761  -0.171 -0.6383 -0.5061 -0.4559
  485MOL0     C65381  -0.066   5.654  -0.092  0.1387  0.6304 -0.6365
  485MOL0     C65382  -0.161   5.628   0.028 -0.4511  0.4310 -1.2554
  485MOL0     C65383  -0.109   5.507   0.113  1.1869 -0.0600 -0.5005
  485MOL0    Cl65384   0.018   5.560   0.222  0.2784 -0.4878 -0.1320
  485MOL0     C65385   0.344   6.342   0.076  0.2248  0.1006  0.5687
  485MOL0     C65386   0.455   6.377   0.144  0.2112  0.0836 -0.2060
  485MOL0     O65387   0.677   6.202   0.328  0.6450  0.5000  0.1137
  485MOL0     C65388   0.810   6.514   0.448 -0.5523  0.6313  0.7776
  485MOL0     C65389   0.912   6.558   0.527 -1.1427  0.2556 -0.4206
  485MOL0     N65390   1.122   6.893   0.505 -0.1635 -0.5611  0.8865
  485MOL0     N65391   1.113   7.025   0.493 -1.3254 -0.5935 -0.3702
  485MOL0     C65392   1.262   7.865   1.219  0.1407 -0.2449 -0.5661
  485MOL0     C65393   1.358   7.964   1.213  0.2292 -0.3327  0.4093
  485MOL0     C65394   1.792   8.140   1.207 -0.4696 -0.8267  0.1879
  485MOL0     C65395   1.779   8.225   1.321 -1.3160 -0.7362  1.0652
  485MOL0     C65396   1.887   8.297   1.368  0.8207 -0.0463  0.3534
  485MOL0     C65397   2.007   8.304   1.304 -0.0317  1.2454 -0.2673
  485MOL0     O65398   2.112   8.379   1.357  0.2343 -0.2840  0.3289
  485MOL0     C65399   2.247   8.337   1.325 -0.2002 -0.4977  0.1628
  485MOL0     C65400   2.333   8.324   1.451  0.6150  0.0213  1.2351
  485MOL0     C65401   2.342   8.445   1.542 -1.1600 -0.2150  0.3693
  485MOL0     C65402   2.480   8.527   1.521  0.2849  0.3411  0.4371
  485MOL0     C65403   2.533   8.536   1.387 -0.2291 -0.4796  0.4469
  485MOL0     C65404   2.582   8.553   1.277 -0.4934 -0.1124 -0.0156
  485MOL0     C65405   2.016   8.227   1.188  0.4432 -0.6341 -0.2000
  485MOL0     C65406   1.913   8.144   1.144 -0.3646 -0.3695  0.3064
  485MOL0     C65407   1.940   8.056   1.026 -0.1215  0.3293  0.3111
  485MOL0     H65408   1.620   7.835   1.380  0.2560 -0.0949 -0.1386
  485MOL0     H65409   1.463   7.645   1.382  2.3432  0.2039 -1.3874
  485MOL0     H65410   1.015   7.698   1.245 -1.5333 -1.5512 -0.6428
  485MOL0     H65411   1.136   7.691   1.122 -0.7696 -0.4680 -0.6341
  485MOL0     H65412   0.983   7.523   1.087  2.3954  2.5429 -1.5604
  485MOL0     H65413   1.000   7.444   1.235 -1.8033 -0.5690  0.0636
  485MOL0     H65414   1.231   7.373   1.174  1.5629 -5.9557 -4.0988
  485MOL0     H65415   1.241   7.492   1.047  1.6266 -1.8127  0.3878
  485MOL0     H65416   1.032   7.272   1.043  1.2094 -1.9149  0.4023
  485MOL0     H65417   1.086   7.379   0.913 -0.8682 -0.2909 -0.5205
  485MOL0     H65418   1.299   7.211   1.037  1.9749  1.1004 -1.9464
  485MOL0     H65419   1.167   7.124   0.958 -1.9825 -0.1505  0.8418
  485MOL0     H65420   1.321   7.357   0.813  2.7204 -0.3244 -1.2127
  485MOL0     H65421   1.361   7.176   0.803  0.1993  0.1531  3.5845
  485MOL0     H65422   1.107   7.315   0.711  0.1746 -0.2159 -0.3315
  485MOL0     H65423   1.115   7.142   0.734 -0.2922  0.5610  1.2775
  485MOL0     H65424   1.177   7.281   0.512  0.3394  0.6632 -0.0740
  485MOL0     H65425   1.345   7.267   0.571  1.4713 -0.5884  1.6160
  485MOL0     H65426   1.428   6.969   0.612  0.1981  0.4837  2.0597
  485MOL0     H65427   1.244   6.658   0.521  0.5983  2.8269 -2.6385
  485MOL0     H65428   1.396   6.718   0.562  0.1633  1.3495 -1.7356
  485MOL0     H65429   1.320   6.768   0.807 -3.3375  1.2910  0.8756
  485MOL0     H65430   1.158   6.729   0.760 -0.9079 -3.1582 -0.7897
  485MOL0     H65431   1.240   6.552   0.897 -0.2519  3.5756  0.3854
  485MOL0     H65432   1.379   6.531   0.784 -0.2314  0.2602 -2.6507
  485MOL0     H65433   1.177   6.376   0.764 -1.8909 -1.5453 -3.7035
  485MOL0     H65434   1.240   6.427   0.611 -0.2748 -3.4954  1.6491
  485MOL0     H65435   1.059   6.251   0.609  2.2150 -0.6133 -1.0169
  485MOL0     H65436   0.897   6.178   0.461 -0.9622 -0.0506 -0.0573
  485MOL0     H65437   0.366   6.312   0.463 -1.0421 -2.2511  0.4226
  485MOL0     H65438   0.146   6.280   0.358 -0.6905 -3.9420 -1.4455
  485MOL0     H65439   0.176   6.176  -0.099  0.7540  1.3634  0.0807
  485MOL0     H65440   0.193   6.088   0.049 -1.1464 -0.3911  0.4994
  485MOL0     H65441  -0.032   6.047   0.089  0.5486 -0.3175  0.9377
  485MOL0     H65442  -0.079   6.152  -0.043  1.0324 -0.7143  0.0679
  485MOL0     H65443   0.049   5.996  -0.209 -0.5191 -1.2935 -1.6605
  485MOL0     H65444   0.079   5.899  -0.060  0.1915  0.0781 -0.5222
  485MOL0     H65445  -0.206   5.962  -0.164 -1.6195 -0.5946  0.3254
  485MOL0     H65446  -0.169   5.882  -0.014 -4.4869 -1.5602 -1.6016
  485MOL0     H65447  -0.074   5.771  -0.263 -1.3034 -1.6503 -1.0164
  485MOL0     H65448  -0.231   5.731  -0.205 -0.5715 -0.3475 -0.7884
  485MOL0     H65449  -0.060   5.569  -0.161 -0.8892 -1.5682  1.7994
  485MOL0     H65450   0.031   5.691  -0.058  0.1127 -2.5011  3.6595
  485MOL0     H65451  -0.263   5.604  -0.004 -2.3509 -0.6772  4.4744
  485MOL0     H65452  -0.173   5.707   0.102 -0.7288 -2.0612  1.5215
  485MOL0     H65453  -0.194   5.466   0.169  1.0691 -1.0670 -1.4005
  485MOL0     H65454  -0.076   5.429   0.044 -1.3970  1.3157 -3.5146
  485MOL0     H65455   0.344   6.359  -0.031  2.6249 -1.4790  0.2345
  485MOL0     H65456   0.543   6.398   0.082  0.2564 -1.0053 -0.5240
  485MOL0     H65457   0.740   6.582   0.400  0.3817  1.0582 -0.0180
  485MOL0     H65458   0.935   6.664   0.537  0.0222  0.1557 -1.7818
  485MOL0     H65459   1.164   7.895   1.184 -0.4631 -1.1906  0.2719
  485MOL0     H65460   1.319   8.058   1.178 -0.0532 -0.6543 -0.1567
  485MOL0     H65461   1.687   8.235   1.378 -1.9007  0.8852 -0.0877
  485MOL0     H65462   1.866   8.362   1.453 -0.3584 -1.4070  1.1514
  485MOL0     H65463   2.296   8.413   1.263 -0.1961 -0.3721  0.3176
  485MOL0     H65464   2.251   8.241   1.274 -0.7902 -1.3446  1.6595
  485MOL0     H65465   2.433   8.297   1.416 -0.3164  2.9103 -4.9977
  485MOL0     H65466   2.288   8.249   1.516 -0.0445 -0.6309  0.0588
  485MOL0     H65467   2.351   8.415   1.646 -0.0351 -1.2479 -0.0103
  485MOL0     H65468   2.256   8.511   1.529 -2.3884 -2.0912 -1.8883
  485MOL0     H65469   2.449   8.623   1.562 -1.1631  0.3941 -0.7172
  485MOL0     H65470   2.558   8.478   1.580  1.7891  0.0517 -1.6702
  485MOL0     H65471   2.617   8.556   1.176  2.7867  0.6492  1.0049
  485MOL0     H65472   2.100   8.232   1.119 -1.8850  1.4389 -3.1396
  485MOL0     H65473   2.023   8.103   0.973 -0.8529  1.2026 -0.1007
  485MOL0     H65474   1.956   7.950   1.049  2.8944  0.2527 -1.5971
  485MOL0     H65475   1.862   8.065   0.949 -0.3601  0.2803  0.5458
  486MOL0     O65476   9.218  10.181   1.753  0.2435  0.1727 -0.0881
  486MOL0     C65477   9.101  10.219   1.744  0.4814 -1.0133  0.2444
  486MOL0     O65478   8.996  10.152   1.801 -0.1147  0.0109 -0.4786
  486MOL0     C65479   9.018  10.105   1.930 -0.8679  1.0098  0.3325
  486MOL0     C65480   8.975   9.970   1.964 -0.5735 -0.1018  0.1092
  486MOL0     C65481   8.995   9.919   2.091 -0.8635  0.0351 -0.4258
  486MOL0     C65482   9.054  10.002   2.189  0.0539  0.1767  0.0189
  486MOL0     O65483   9.072   9.972   2.322 -0.1174 -0.3415  0.7933
  486MOL0     C65484   9.011   9.858   2.380  0.5489 -0.0017  0.2288
  486MOL0     C65485   9.060   9.850   2.521 -0.1571  0.2721  0.1427
  486MOL0     C65486   9.205   9.808   2.533 -0.3649  0.5302  0.2761
  486MOL0     C65487   9.235   9.658   2.496  0.9128  0.0703 -0.1993
  486MOL0     C65488   9.386   9.623   2.483  0.5075 -0.7801 -0.5796
  486MOL0     C65489   9.443   9.681   2.357  0.2161  0.4794  0.2884
  486MOL0     C65490   9.599   9.693   2.355 -0.5124  0.0229  0.7792
  486MOL0     C65491   9.659   9.770   2.473 -0.4266  0.1706  0.7398
  486MOL0     N65492   9.605   9.910   2.484 -0.0273 -0.1663  0.2460
  486MOL0     C65493   9.543   9.953   2.595 -0.4041  0.0703  0.4066
  486MOL0     C65494   9.542  10.086   2.587 -0.0960 -0.3983 -1.0293
  486MOL0     C65495   9.459  10.170   2.673  0.5543 -0.1578  0.4891
  486MOL0     C65496   9.306  10.170   2.645 -0.0352  0.3890 -0.6288
  486MOL0     C65497   9.269  10.198   2.501 -0.2331  0.1081 -0.0403
  486MOL0     C65498   9.301  10.345   2.470 -0.3894  0.4794 -0.7863
  486MOL0     O65499   9.324  10.355   2.331  0.2259 -0.1972  0.3328
  486MOL0     C65500   9.329  10.476   2.266 -0.0759  0.3115  0.5825
  486MOL0     C65501   9.311  10.467   2.131  0.0721 -0.0565  1.0568
  486MOL0     C65502   9.305  10.584   2.045 -0.4172  0.3507  0.5332
  486MOL0     C65503   9.318  10.715   2.104  0.3247  0.0531 -0.3722
  486MOL0     C65504   9.296  10.833   2.016  0.5256 -0.0782  0.3360
  486MOL0     O65505   9.315  10.954   2.074  0.5740  0.2705  0.2026
  486MOL0     C65506   9.357  11.061   1.994 -0.1016  0.8080 -0.1104
  486MOL0     C65507   9.301  11.183   1.999  0.1941 -0.0554 -0.1329
  486MOL0     C65508   9.349  11.293   1.923 -0.1412 -0.0915  0.1871
  486MOL0     C65509   9.458  11.270   1.836 -0.4180  0.1545  1.0962
  486MOL0     O65510   9.506  11.370   1.752 -0.2110  0.0615  0.6847
  486MOL0     C65511   9.405  11.438   1.675  0.4403  0.1221 -0.0608
  486MOL0     C65512   9.472  11.548   1.589  0.5316  0.2242 -0.9450
  486MOL0     C65513   9.530  11.662   1.683  0.1588 -0.4106  0.8476
  486MOL0     C65514   9.662  11.636   1.743 -0.7640 -0.1291  0.1077
  486MOL0     C65515   9.679  11.702   1.885  1.3503 -0.4867 -0.5501
  486MOL0     C65516   9.605  11.642   2.007  0.5889 -1.2041  0.6847
  486MOL0     C65517   9.686  11.512   2.033  0.2673  0.2955  0.4478
  486MOL0     C65518   9.652  11.452   2.167 -0.0708  0.7434  0.3039
  486MOL0    Cl65519   9.668  11.574   2.290 -0.1359  0.4105  0.1661
  486MOL0     C65520   9.512  11.144   1.819  0.5868 -0.7441 -0.9477
  486MOL0     C65521   9.459  11.037   1.897 -0.6070 -1.0539 -0.1664
  486MOL0     O65522   9.284  10.814   1.898 -0.1569 -0.1972  0.2880
  486MOL0     C65523   9.339  10.715   2.242  0.1334 -0.5213  0.2988
  486MOL0     C65524   9.338  10.600   2.327  0.1249 -0.5030  0.5310
  486MOL0     N65525   9.616  10.125   2.470  0.0962  0.2717  0.4759
  486MOL0     N65526   9.653  10.015   2.414 -0.0454 -0.4301  0.0188
  486MOL0     C65527   9.077  10.136   2.158  0.5497  0.3440 -0.3243
  486MOL0     C65528   9.053  10.187   2.036  0.5251 -0.0800  0.4988
  486MOL0     C65529   9.071  10.345   1.673  0.2148  0.0475  0.4664
  486MOL0     C65530   8.938  10.357   1.629 -0.1650  0.8589  0.0829
  486MOL0     C65531   8.899  10.460   1.550  0.1656 -1.0922 -0.4863
  486MOL0     C65532   8.982  10.571   1.524 -0.1371 -0.8848 -0.8859
  486MOL0     O65533   8.919  10.676   1.448  0.6602 -0.1344 -0.1767
  486MOL0     C65534   8.978  10.804   1.451 -0.0790 -0.3906  0.6552
  486MOL0     C65535   8.960  10.858   1.593 -0.0795 -0.2223  0.2872
  486MOL0     C65536   9.009  11.003   1.591 -0.1454  0.9569 -0.2961
  486MOL0     C65537   9.026  11.063   1.737  0.2664 -0.4796 -0.7416
  486MOL0     C65538   9.063  11.202   1.726  0.8511  0.3282  0.4319
  486MOL0     C65539   9.099  11.313   1.718  0.4965 -0.4731  0.5703
  486MOL0     C65540   9.119  10.563   1.564  0.3370 -0.3294  0.3797
  486MOL0     C65541   9.165  10.453   1.641 -0.9047 -0.3302  0.0629
  486MOL0     C65542   9.314  10.453   1.680 -0.9882  0.4233 -0.8089
  486MOL0     H65543   8.938   9.895   1.895 -0.3862  1.1934 -1.4596
  486MOL0     H65544   8.960   9.823   2.125 -1.4828  1.0287  1.9333
  486MOL0     H65545   8.903   9.874   2.384  0.9174  3.4192  4.4486
  486MOL0     H65546   9.037   9.763   2.333  3.2301 -1.8565  4.7787
  486MOL0     H65547   8.989   9.791   2.580  0.5467 -0.1689  0.5642
  486MOL0     H65548   9.046   9.952   2.560 -4.0045 -0.3850  0.8138
  486MOL0     H65549   9.228   9.839   2.635 -1.2839  1.7999  0.1164
  486MOL0     H65550   9.267   9.870   2.467 -0.4008 -0.0086 -0.2773
  486MOL0     H65551   9.180   9.598   2.569 -0.3284  2.0290  0.5700
  486MOL0     H65552   9.187   9.633   2.401 -1.0509 -0.4064  0.8563
  486MOL0     H65553   9.445   9.659   2.568 -1.6670  0.3311  0.5455
  486MOL0     H65554   9.397   9.515   2.468 -1.2542 -0.8997 -1.3330
  486MOL0     H65555   9.412   9.609   2.280  0.3297 -0.7939  1.3990
  486MOL0     H65556   9.403   9.782   2.344  0.9106  0.9543  1.6769
  486MOL0     H65557   9.629   9.746   2.265  0.4036 -1.2909  0.2963
  486MOL0     H65558   9.649   9.596   2.343  0.4582  0.7516 -1.5296
  486MOL0     H65559   9.657   9.721   2.571 -1.6464  0.8207  1.0554
  486MOL0     H65560   9.767   9.777   2.458 -0.0402  0.0241  2.9978
  486MOL0     H65561   9.490   9.895   2.670  1.2323  0.2770  1.7849
  486MOL0     H65562   9.471  10.135   2.776  1.4755 -1.3061  0.0206
  486MOL0     H65563   9.501  10.271   2.669  0.5534 -0.0945  1.6546
  486MOL0     H65564   9.262  10.078   2.684 -0.9957  1.3903  0.7562
  486MOL0     H65565   9.259  10.251   2.701  0.5015  1.3636 -1.5442
  486MOL0     H65566   9.160  10.195   2.492 -0.8162  2.1226  4.2248
  486MOL0     H65567   9.317  10.136   2.424 -1.7006 -0.2234 -0.7362
  486MOL0     H65568   9.401  10.372   2.505  0.9048  0.9120 -4.4165
  486MOL0     H65569   9.216  10.400   2.513 -1.7863 -1.4912 -0.8974
  486MOL0     H65570   9.315  10.368   2.086 -1.8906 -0.5233  1.8376
  486MOL0     H65571   9.295  10.572   1.938  2.0159  1.4397  0.1367
  486MOL0     H65572   9.222  11.192   2.073  1.4581 -1.2759  1.4518
  486MOL0     H65573   9.318  11.386   1.971 -0.1849 -1.0792  2.2111
  486MOL0     H65574   9.352  11.381   1.598 -0.4584  1.8260 -0.7645
  486MOL0     H65575   9.334  11.490   1.740 -1.9242 -1.2226 -1.4354
  486MOL0     H65576   9.545  11.497   1.526  1.8570 -0.3768  0.9814
  486MOL0     H65577   9.386  11.591   1.536 -0.0958 -0.6399 -0.6519
  486MOL0     H65578   9.554  11.740   1.611 -0.5060 -0.8094  0.1712
  486MOL0     H65579   9.444  11.694   1.743 -1.2026  0.8320 -1.5758
  486MOL0     H65580   9.741  11.680   1.683  1.1282 -1.6608  1.3543
  486MOL0     H65581   9.693  11.531   1.737  2.1334  0.6686 -0.1839
  486MOL0     H65582   9.640  11.803   1.876 -0.3491 -1.3063 -3.7216
  486MOL0     H65583   9.786  11.710   1.908  0.8877  2.4133  1.0149
  486MOL0     H65584   9.605  11.713   2.090 -1.9276 -1.4633  1.0031
  486MOL0     H65585   9.499  11.619   1.990  0.6870 -0.3568 -1.3671
  486MOL0     H65586   9.792  11.537   2.031  0.0794  1.4438  2.2548
  486MOL0     H65587   9.676  11.431   1.960  0.7459  0.2241  0.4578
  486MOL0     H65588   9.550  11.413   2.167  0.2651 -0.2637  2.2110
  486MOL0     H65589   9.719  11.367   2.184  0.9871  0.4840 -3.9909
  486MOL0     H65590   9.593  11.132   1.748  1.2420  3.7755 -1.2932
  486MOL0     H65591   9.502  10.941   1.870  0.1147 -1.2933  1.7023
  486MOL0     H65592   9.330  10.806   2.302  1.0640 -0.4524  0.3485
  486MOL0     H65593   9.353  10.598   2.435  0.9025 -0.6774  0.4247
  486MOL0     H65594   9.124  10.204   2.229  1.0775  1.4153 -1.6344
  486MOL0     H65595   9.061  10.293   2.011 -0.8592 -0.2375 -0.7493
  486MOL0     H65596   8.855  10.287   1.637  0.6604 -0.4752 -2.1951
  486MOL0     H65597   8.797  10.461   1.512  0.4338  0.0142 -1.2187
  486MOL0     H65598   8.924  10.866   1.379  1.7102  0.3299 -0.1219
  486MOL0     H65599   9.083  10.798   1.422 -0.2109  2.4245 -0.7149
  486MOL0     H65600   9.018  10.794   1.661 -0.7854 -0.3561  0.7727
  486MOL0     H65601   8.852  10.852   1.609 -0.3398  1.4578 -0.6226
  486MOL0     H65602   8.938  11.063   1.534 -2.2472 -0.9540  0.1531
  486MOL0     H65603   9.109  11.001   1.547 -1.0272  1.2483 -2.4306
  486MOL0     H65604   8.932  11.045   1.790 -1.5993  1.4088 -3.1730
  486MOL0     H65605   9.105  11.025   1.803  2.7282  2.0174 -2.0311
  486MOL0     H65606   9.107  11.418   1.699  1.3075  0.2342  4.1272
  486MOL0     H65607   9.182  10.648   1.539  0.3050  0.2333  2.0743
  486MOL0     H65608   9.325  10.412   1.781 -1.7994  0.2458 -0.7781
  486MOL0     H65609   9.367  10.385   1.613 -0.3708  1.6583 -1.5913
  486MOL0     H65610   9.370  10.547   1.677 -2.4243  1.3905  0.7129
  487MOL0     O65611   0.021   2.627   6.509 -0.2633  0.1547 -0.4128
  487MOL0     C65612  -0.056   2.717   6.485 -0.3197  0.8869  0.3782
  487MOL0     O65613  -0.028   2.823   6.395  0.3816 -0.0931  0.7871
  487MOL0     C65614   0.094   2.815   6.337  0.4300 -0.7180  0.4665
  487MOL0     C65615   0.098   2.812   6.196  0.3757 -0.2522  0.0359
  487MOL0     C65616   0.219   2.818   6.133 -0.0308  0.3451 -0.1489
  487MOL0     C65617   0.341   2.822   6.209 -0.1405  0.4805 -0.3305
  487MOL0     O65618   0.458   2.845   6.139 -0.1027  0.6515  0.4134
  487MOL0     C65619   0.565   2.746   6.158  0.2121 -0.1588  0.4058
  487MOL0     C65620   0.518   2.606   6.134  0.1182  0.1663 -0.3639
  487MOL0     C65621   0.610   2.489   6.156  0.2324 -0.7145  1.0615
  487MOL0     C65622   0.555   2.383   6.252  0.1009 -0.0262 -0.3020
  487MOL0     C65623   0.666   2.289   6.299 -0.3706  0.2070 -0.3729
  487MOL0     C65624   0.636   2.203   6.426 -0.3955  0.6449  0.6601
  487MOL0     C65625   0.762   2.126   6.470  0.1283 -0.0552 -1.1885
  487MOL0     C65626   0.769   1.995   6.396  0.1087 -0.2992  0.6841
  487MOL0     N65627   0.896   1.926   6.418  0.3833  0.2787 -0.4507
  487MOL0     C65628   1.014   1.952   6.371 -0.5213  0.4305  0.7970
  487MOL0     C65629   1.103   1.868   6.436  0.1783 -0.4153  0.3947
  487MOL0     C65630   1.247   1.880   6.392  0.0422 -1.8206 -0.4147
  487MOL0     C65631   1.269   1.804   6.261  0.1437  0.0728 -1.3239
  487MOL0     C65632   1.256   1.654   6.270  0.5573 -0.6385 -0.9221
  487MOL0     C65633   1.230   1.569   6.139  1.0456  0.9666  0.4297
  487MOL0     O65634   1.148   1.455   6.158 -0.3367  0.2100 -0.1046
  487MOL0     C65635   1.021   1.463   6.214 -0.5238  0.3830 -0.1154
  487MOL0     C65636   0.977   1.347   6.287  0.4157  0.3412 -0.8396
  487MOL0     C65637   0.846   1.359   6.346  0.4630  0.8851 -0.5095
  487MOL0     C65638   0.771   1.481   6.345  0.2966 -0.3241  0.4696
  487MOL0     C65639   0.643   1.501   6.421  0.9207  1.2544  0.3979
  487MOL0     O65640   0.585   1.394   6.486 -0.4446  0.5573  0.4456
  487MOL0     C65641   0.484   1.417   6.581  0.6222  0.7212 -0.3214
  487MOL0     C65642   0.508   1.506   6.684  0.0303 -0.2422  1.1114
  487MOL0     C65643   0.414   1.526   6.782 -0.8191 -0.1461 -0.3257
  487MOL0     C65644   0.290   1.460   6.775 -0.7637 -0.0696 -0.2203
  487MOL0     O65645   0.194   1.485   6.870 -0.1696 -0.5226  0.1084
  487MOL0     C65646   0.243   1.521   6.998  0.0449  0.4429  0.3467
  487MOL0     C65647   0.144   1.504   7.106 -0.2562 -0.0654 -0.1314
  487MOL0     C65648   0.023   1.600   7.097  0.5761  0.0436  0.0572
  487MOL0     C65649  -0.056   1.591   7.222 -0.0909  0.1606  0.4783
  487MOL0     C65650  -0.167   1.711   7.218  0.4201 -0.4460  0.0195
  487MOL0     C65651  -0.245   1.730   7.346  0.9662 -0.1555 -0.5586
  487MOL0     C65652  -0.264   1.603   7.430 -0.0734 -0.0304  0.5755
  487MOL0     C65653  -0.160   1.561   7.531 -0.2315  0.0013 -1.1026
  487MOL0    Cl65654  -0.160   1.683   7.669  0.1924 -0.1507 -0.0657
  487MOL0     C65655   0.267   1.373   6.680 -0.3609  0.6442 -0.4414
  487MOL0     C65656   0.366   1.343   6.584  0.4846 -0.6170  0.4281
  487MOL0     O65657   0.607   1.618   6.430  0.2534  0.4309  0.0383
  487MOL0     C65658   0.823   1.585   6.275 -0.5095  0.3215  0.3100
  487MOL0     C65659   0.947   1.579   6.206 -0.2708  0.4057  0.3570
  487MOL0     N65660   1.030   1.796   6.525  0.7395  0.0172 -0.0145
  487MOL0     N65661   0.904   1.829   6.520  0.1289  0.6961  0.9542
  487MOL0     C65662   0.337   2.829   6.345 -0.3268 -0.3680 -0.8235
  487MOL0     C65663   0.219   2.829   6.404 -0.5247  0.3637  0.3625
  487MOL0     C65664  -0.183   2.712   6.556 -0.3705 -0.4932  0.5912
  487MOL0     C65665  -0.193   2.645   6.676  0.0605  0.6411  0.0434
  487MOL0     C65666  -0.316   2.632   6.747 -0.2459 -1.4925 -0.2193
  487MOL0     C65667  -0.427   2.707   6.694  0.2188 -0.0209  0.5005
  487MOL0     O65668  -0.555   2.694   6.742 -0.0571  0.2318  0.7927
  487MOL0     C65669  -0.647   2.800   6.723 -0.2190  1.3213 -0.0536
  487MOL0     C65670  -0.662   2.866   6.859 -0.7360  0.3352 -0.1831
  487MOL0     C65671  -0.749   2.773   6.949 -0.1541 -1.1173 -0.5679
  487MOL0     C65672  -0.759   2.818   7.095  0.6318 -0.1014 -0.2777
  487MOL0     C65673  -0.825   2.721   7.180 -1.1922 -0.0756 -0.2595
  487MOL0     C65674  -0.891   2.632   7.228  0.5187  0.0501 -0.2964
  487MOL0     C65675  -0.416   2.763   6.565  0.0450  0.3804  0.0235
  487MOL0     C65676  -0.293   2.763   6.496  0.1926 -0.4623  0.0167
  487MOL0     C65677  -0.310   2.822   6.359 -0.0202  0.3159  0.0958
  487MOL0     H65678   0.005   2.804   6.141 -0.4204  3.1218  0.6942
  487MOL0     H65679   0.239   2.804   6.027  1.8765  3.4042 -0.3301
  487MOL0     H65680   0.640   2.762   6.081  1.5602 -3.7772  0.7767
  487MOL0     H65681   0.618   2.763   6.253  1.2197  1.3192 -0.3823
  487MOL0     H65682   0.494   2.592   6.028 -1.4146  0.4963 -0.0869
  487MOL0     H65683   0.425   2.595   6.191  0.1053 -1.1624 -0.5905
  487MOL0     H65684   0.708   2.523   6.192  1.3075 -1.1107 -1.3018
  487MOL0     H65685   0.632   2.435   6.064 -0.3810  0.4441  0.2115
  487MOL0     H65686   0.508   2.431   6.338 -4.4310  0.0130 -2.5329
  487MOL0     H65687   0.467   2.326   6.221  0.6744 -2.3048  1.9074
  487MOL0     H65688   0.695   2.213   6.225  0.4520 -0.9967  1.1225
  487MOL0     H65689   0.754   2.352   6.316 -0.2516  0.2370 -1.0357
  487MOL0     H65690   0.619   2.281   6.501  2.8757  1.4978  0.6543
  487MOL0     H65691   0.548   2.141   6.404 -1.4862  2.6394 -0.9958
  487MOL0     H65692   0.747   2.102   6.576  0.8165 -2.3771 -1.5635
  487MOL0     H65693   0.853   2.184   6.454  2.6332 -3.6028 -0.9209
  487MOL0     H65694   0.701   1.921   6.439  0.4622 -0.7844  0.4187
  487MOL0     H65695   0.742   2.001   6.290  1.8543  2.8795  0.3176
  487MOL0     H65696   1.041   2.018   6.288  2.3621 -0.0631  1.2648
  487MOL0     H65697   1.272   1.986   6.382 -0.1190 -1.7311  0.1295
  487MOL0     H65698   1.305   1.835   6.473  0.0244 -3.7077 -1.4081
  487MOL0     H65699   1.204   1.847   6.184  0.1943  1.8786 -0.4126
  487MOL0     H65700   1.372   1.828   6.233  0.5161  0.0252 -0.0821
  487MOL0     H65701   1.164   1.632   6.323  0.4975 -0.2440 -0.8637
  487MOL0     H65702   1.341   1.609   6.323 -0.2280 -1.0877 -0.0227
  487MOL0     H65703   1.325   1.530   6.103 -0.0711  0.1903 -1.9508
  487MOL0     H65704   1.184   1.632   6.062 -0.4647 -0.9154 -0.3068
  487MOL0     H65705   1.038   1.257   6.292 -0.5338 -0.5526 -3.4988
  487MOL0     H65706   0.804   1.278   6.405 -0.2037  1.6108  0.0264
  487MOL0     H65707   0.601   1.559   6.703  1.3019 -2.6632  2.0960
  487MOL0     H65708   0.450   1.592   6.860  1.6493  0.0922 -1.5742
  487MOL0     H65709   0.336   1.470   7.024  1.0877  1.6418 -0.8608
  487MOL0     H65710   0.278   1.625   6.999  1.7323  0.0881 -3.6245
  487MOL0     H65711   0.107   1.402   7.089 -3.3353  1.0801 -1.0651
  487MOL0     H65712   0.192   1.513   7.204 -1.4557 -2.0309  0.7008
  487MOL0     H65713   0.051   1.705   7.081 -2.2191  0.7303 -0.9270
  487MOL0     H65714  -0.039   1.565   7.013 -0.1520 -2.0892  1.3970
  487MOL0     H65715   0.011   1.601   7.308 -3.4791 -0.6788  3.4730
  487MOL0     H65716  -0.098   1.491   7.239 -1.0188  0.3039 -0.7814
  487MOL0     H65717  -0.240   1.690   7.138 -0.4751  0.1835  0.6507
  487MOL0     H65718  -0.109   1.801   7.196 -1.8490  0.6482 -2.0441
  487MOL0     H65719  -0.178   1.798   7.400 -0.5765  0.7501  0.2909
  487MOL0     H65720  -0.344   1.775   7.328 -0.7205 -2.5386  2.0081
  487MOL0     H65721  -0.275   1.519   7.362  1.2330 -0.4716  0.8887
  487MOL0     H65722  -0.359   1.611   7.484  0.0202 -1.1609  0.9249
  487MOL0     H65723  -0.182   1.465   7.579 -0.4220  0.7772  0.4140
  487MOL0     H65724  -0.061   1.562   7.486  0.3039  2.7675 -0.0722
  487MOL0     H65725   0.165   1.335   6.682 -0.6803  1.5211  1.1532
  487MOL0     H65726   0.342   1.259   6.521  1.2152  0.3068 -1.1474
  487MOL0     H65727   0.776   1.683   6.273 -2.1875 -0.3718  2.1698
  487MOL0     H65728   0.981   1.674   6.167  1.5323  0.2487  1.4021
  487MOL0     H65729   0.426   2.834   6.406 -1.5133  0.1984  0.9552
  487MOL0     H65730   0.211   2.830   6.512  1.0877 -0.8583  0.5357
  487MOL0     H65731  -0.107   2.599   6.725 -2.8557 -2.7691  2.4595
  487MOL0     H65732  -0.322   2.580   6.842 -2.8986 -1.1756 -0.1438
  487MOL0     H65733  -0.748   2.762   6.702 -0.3351  1.1569  0.7553
  487MOL0     H65734  -0.624   2.869   6.641 -3.8182  1.8586 -0.7727
  487MOL0     H65735  -0.719   2.957   6.838  0.5856  1.6781  1.7029
  487MOL0     H65736  -0.569   2.895   6.908 -2.9252  1.1034  4.0029
  487MOL0     H65737  -0.693   2.679   6.949  3.0850  0.6548  0.5423
  487MOL0     H65738  -0.851   2.760   6.912 -0.2956 -2.2812  0.1854
  487MOL0     H65739  -0.658   2.818   7.135  0.3128 -0.3034  0.5407
  487MOL0     H65740  -0.807   2.917   7.094 -0.9259 -0.7617 -3.8497
  487MOL0     H65741  -0.954   2.559   7.273 -0.0212 -0.0792 -1.2301
  487MOL0     H65742  -0.504   2.801   6.515 -1.6421  1.1634  3.3209
  487MOL0     H65743  -0.248   2.911   6.349 -0.9197  1.0027  0.4631
  487MOL0     H65744  -0.282   2.747   6.285 -0.7607 -0.6783  0.7886
  487MOL0     H65745  -0.415   2.846   6.336  0.0433 -0.6216 -1.3065
  488MOL0     O65746   6.761   7.525   2.086 -0.6645 -0.8566 -0.5185
  488MOL0     C65747   6.733   7.527   1.962 -0.1372  0.4127 -0.7952
  488MOL0     O65748   6.661   7.625   1.892 -0.1372 -0.2702  0.2919
  488MOL0     C65749   6.665   7.743   1.954  0.7550 -0.4982 -0.8521
  488MOL0     C65750   6.553   7.797   2.019  0.5044 -0.1087 -0.4041
  488MOL0     C65751   6.537   7.919   2.085 -1.1693  0.0121  0.0302
  488MOL0     C65752   6.657   8.008   2.065  1.1598  0.4758 -0.1891
  488MOL0     O65753   6.676   8.133   2.113  0.2844  0.0203 -0.0596
  488MOL0     C65754   6.566   8.222   2.160  0.7453  0.4879  0.2229
  488MOL0     C65755   6.462   8.250   2.038  0.4969 -0.0717 -0.1472
  488MOL0     C65756   6.366   8.375   2.056  0.6356  0.3793  0.4932
  488MOL0     C65757   6.282   8.396   1.926  0.0665 -0.4611  0.3185
  488MOL0     C65758   6.190   8.527   1.941 -0.4780 -0.2684 -0.3275
  488MOL0     C65759   6.064   8.481   2.023  0.3245  0.5773  0.3263
  488MOL0     C65760   5.965   8.594   2.061 -0.1133 -0.2213 -1.0992
  488MOL0     C65761   5.928   8.685   1.944  0.3193  0.0461 -0.2886
  488MOL0     N65762   5.816   8.768   1.990 -0.6643  0.4342  0.0054
  488MOL0     C65763   5.690   8.783   1.929 -0.1141 -0.9696 -0.2761
  488MOL0     C65764   5.623   8.866   2.002  0.7700  0.6544  0.0944
  488MOL0     C65765   5.479   8.918   1.975  1.0472 -0.7224 -0.2192
  488MOL0     C65766   5.477   9.034   1.879  0.3812 -0.3251  0.2120
  488MOL0     C65767   5.342   9.062   1.822 -0.5776  0.8449 -0.3970
  488MOL0     C65768   5.359   9.170   1.722  0.1659 -0.0654  0.1967
  488MOL0     O65769   5.245   9.207   1.645  0.0516 -0.3889  0.1718
  488MOL0     C65770   5.187   9.115   1.561 -0.0490 -0.2231 -0.1730
  488MOL0     C65771   5.248   8.997   1.517 -0.1440  1.2044  1.6032
  488MOL0     C65772   5.176   8.910   1.440  0.2797  0.1559  0.6050
  488MOL0     C65773   5.042   8.931   1.406  0.0510 -0.8518 -0.0804
  488MOL0     C65774   4.971   8.833   1.309 -0.8927  0.2256 -0.5088
  488MOL0     O65775   5.031   8.705   1.302 -0.1580  0.3011 -0.0338
  488MOL0     C65776   4.980   8.596   1.240  0.0186  0.3812  0.2391
  488MOL0     C65777   5.050   8.476   1.250  0.2182  0.1759  0.0376
  488MOL0     C65778   5.001   8.357   1.186 -0.8217  0.4330 -0.3441
  488MOL0     C65779   4.876   8.357   1.127  0.2292  0.0733  0.7260
  488MOL0     O65780   4.830   8.237   1.074 -0.5943  0.0388 -0.2224
  488MOL0     C65781   4.709   8.176   1.125  0.8293  0.4072 -0.7580
  488MOL0     C65782   4.580   8.199   1.044 -0.3273 -0.3924 -0.0012
  488MOL0     C65783   4.456   8.125   1.097  0.0735 -0.5644  0.8538
  488MOL0     C65784   4.391   8.195   1.214 -0.0171 -0.2852 -0.2598
  488MOL0     C65785   4.245   8.164   1.236  0.9675  0.2106  0.6658
  488MOL0     C65786   4.181   8.221   1.368  0.5909 -0.3488 -0.0330
  488MOL0     C65787   4.179   8.381   1.375  0.6602 -0.8887 -0.5621
  488MOL0     C65788   4.124   8.427   1.504 -1.3283  0.2778 -0.7084
  488MOL0    Cl65789   3.957   8.380   1.542  0.3599  0.2268  0.2877
  488MOL0     C65790   4.798   8.475   1.127  0.7212  0.6996 -0.9674
  488MOL0     C65791   4.855   8.591   1.177  0.6751 -0.6213  0.1921
  488MOL0     O65792   4.872   8.878   1.254  0.4288 -0.1691 -0.2257
  488MOL0     C65793   4.976   9.050   1.451  0.1045 -0.1050 -0.1057
  488MOL0     C65794   5.050   9.142   1.527  0.2711 -0.1422 -0.5734
  488MOL0     N65795   5.710   8.921   2.087 -0.7650  1.1459 -0.6664
  488MOL0     N65796   5.829   8.868   2.083 -0.2651  1.0650 -0.4253
  488MOL0     C65797   6.771   7.958   1.999  0.7465  0.9799 -0.4247
  488MOL0     C65798   6.781   7.825   1.957 -0.1803  0.3061  1.1063
  488MOL0     C65799   6.799   7.416   1.888  0.3043 -0.5646  0.3775
  488MOL0     C65800   6.922   7.368   1.927 -0.7051 -0.2153  0.4509
  488MOL0     C65801   6.975   7.260   1.879 -0.1043  0.0095  0.1743
  488MOL0     C65802   6.913   7.176   1.782  0.2045  0.6445 -0.5582
  488MOL0     O65803   6.961   7.069   1.718 -0.8213 -0.7379  0.9313
  488MOL0     C65804   7.096   7.017   1.745  1.1156  0.1567 -0.1907
  488MOL0     C65805   7.194   7.086   1.651 -0.0046  0.3354 -0.3878
  488MOL0     C65806   7.170   7.037   1.505 -0.3989 -1.1287 -0.7418
  488MOL0     C65807   7.199   7.153   1.399 -0.1846  1.0009 -0.8038
  488MOL0     C65808   7.157   7.117   1.267  0.3598  0.4712 -0.2525
  488MOL0     C65809   7.119   7.075   1.160  0.1275  0.4892  0.0884
  488MOL0     C65810   6.787   7.228   1.738 -0.3563  0.8209  0.3428
  488MOL0     C65811   6.730   7.349   1.788 -0.7496  0.4257  0.3225
  488MOL0     C65812   6.607   7.400   1.729  0.7688  0.7638 -0.4130
  488MOL0     H65813   6.471   7.729   1.997 -1.6617  0.8548  3.6487
  488MOL0     H65814   6.450   7.956   2.138 -0.9633  0.4821  0.0468
  488MOL0     H65815   6.511   8.176   2.242 -0.8035  1.3339 -0.2976
  488MOL0     H65816   6.594   8.317   2.206  0.5941 -0.9095  3.4585
  488MOL0     H65817   6.393   8.166   2.030 -0.3298  0.5023  0.8312
  488MOL0     H65818   6.514   8.270   1.944  0.3853 -0.0118 -0.1957
  488MOL0     H65819   6.418   8.466   2.089  0.9419  0.1572  0.6204
  488MOL0     H65820   6.297   8.347   2.136  0.1058 -2.0067 -0.7241
  488MOL0     H65821   6.360   8.407   1.850  1.3938  0.9685  1.7977
  488MOL0     H65822   6.226   8.309   1.893 -3.1208  1.8314 -0.8709
  488MOL0     H65823   6.250   8.604   1.990 -1.9200 -0.9159  2.6940
  488MOL0     H65824   6.156   8.561   1.843 -1.7085  3.5523  1.2423
  488MOL0     H65825   6.010   8.414   1.956  1.1949 -1.5311  1.6208
  488MOL0     H65826   6.089   8.420   2.110  0.0690  2.2086  1.5913
  488MOL0     H65827   5.990   8.660   2.144 -1.7889  0.4780 -1.1120
  488MOL0     H65828   5.875   8.549   2.102 -1.3954  3.3685  0.5041
  488MOL0     H65829   6.008   8.749   1.904 -1.5553  2.4841 -0.4526
  488MOL0     H65830   5.883   8.628   1.863  0.5110  2.2734 -2.0914
  488MOL0     H65831   5.650   8.736   1.840 -3.3483 -3.3885  2.1936
  488MOL0     H65832   5.429   8.835   1.924 -0.0550  0.8055 -1.7198
  488MOL0     H65833   5.426   8.952   2.064 -1.6615 -0.0033 -1.9561
  488MOL0     H65834   5.523   9.121   1.925 -0.4479  0.9224 -1.1875
  488MOL0     H65835   5.534   9.000   1.792  1.2613 -1.9572  1.3815
  488MOL0     H65836   5.275   9.074   1.907  0.8192 -2.0648  1.2839
  488MOL0     H65837   5.299   8.975   1.772 -0.1849  0.6233 -0.3579
  488MOL0     H65838   5.447   9.160   1.658  0.9316  0.8382  1.0786
  488MOL0     H65839   5.382   9.257   1.785 -2.0482  0.6524  0.0910
  488MOL0     H65840   5.347   8.966   1.549  1.3322  0.5750 -2.9416
  488MOL0     H65841   5.222   8.817   1.406 -0.3563 -0.2440  0.8115
  488MOL0     H65842   5.146   8.481   1.300 -0.0597 -2.3416  0.9701
  488MOL0     H65843   5.059   8.266   1.181 -0.5266  0.4826  1.4245
  488MOL0     H65844   4.718   8.068   1.136  2.5703  0.5797 -0.2298
  488MOL0     H65845   4.694   8.214   1.226 -0.7905 -0.8233 -0.4844
  488MOL0     H65846   4.557   8.306   1.037 -3.4336 -0.9691 -0.1300
  488MOL0     H65847   4.604   8.156   0.947  0.7149 -1.0703  0.5369
  488MOL0     H65848   4.383   8.122   1.016  1.1158  2.1825 -0.3141
  488MOL0     H65849   4.488   8.024   1.121  0.4832 -1.1497 -1.8563
  488MOL0     H65850   4.385   8.304   1.203  0.2759 -0.3240 -0.8696
  488MOL0     H65851   4.454   8.182   1.302  1.4143  3.0127 -0.6461
  488MOL0     H65852   4.234   8.055   1.248 -0.4428  0.2630  0.0572
  488MOL0     H65853   4.177   8.190   1.155  1.6554  1.6564  0.5253
  488MOL0     H65854   4.079   8.181   1.377  0.3065  0.5218  0.8233
  488MOL0     H65855   4.248   8.179   1.444 -0.8231  1.5547  2.4352
  488MOL0     H65856   4.129   8.426   1.289  1.5347 -0.0397 -0.6315
  488MOL0     H65857   4.285   8.406   1.377  0.7796 -1.3850 -0.5599
  488MOL0     H65858   4.194   8.411   1.586 -0.3652  1.0564 -1.3693
  488MOL0     H65859   4.123   8.536   1.501 -3.5771  0.3242 -0.6585
  488MOL0     H65860   4.698   8.476   1.085  0.4122 -2.8736 -0.5498
  488MOL0     H65861   4.790   8.678   1.172  1.4290  0.1416  2.4390
  488MOL0     H65862   4.868   9.061   1.442 -0.6181 -3.8024  1.9438
  488MOL0     H65863   5.000   9.229   1.569 -1.2983 -1.7030  0.9718
  488MOL0     H65864   6.855   8.024   1.981  2.7803 -1.6737 -1.3866
  488MOL0     H65865   6.863   7.763   1.921 -1.0378 -1.0206  1.3596
  488MOL0     H65866   6.981   7.423   2.000 -0.3747  0.7117 -0.4877
  488MOL0     H65867   7.080   7.253   1.906 -0.7368 -0.8300  2.7875
  488MOL0     H65868   7.089   6.908   1.740  0.4059  0.1102  1.2990
  488MOL0     H65869   7.120   7.037   1.850 -1.2392 -2.5537  0.9940
  488MOL0     H65870   7.292   7.041   1.668  0.1100  0.9661  0.7950
  488MOL0     H65871   7.196   7.195   1.667  0.0752  0.4467 -1.1119
  488MOL0     H65872   7.064   7.010   1.498 -1.1698  1.3059  0.4210
  488MOL0     H65873   7.233   6.950   1.486  0.1116 -0.8957 -0.1445
  488MOL0     H65874   7.141   7.243   1.420 -0.6815  0.6214 -0.5098
  488MOL0     H65875   7.304   7.180   1.398  1.5654 -4.0705  2.8574
  488MOL0     H65876   7.094   7.035   1.064 -0.5523  1.0906  0.0099
  488MOL0     H65877   6.735   7.177   1.657  3.2344  1.8057 -2.8878
  488MOL0     H65878   6.582   7.345   1.638  0.2971 -0.2425  0.3101
  488MOL0     H65879   6.525   7.405   1.802 -1.1921  0.4244 -2.4764
  488MOL0     H65880   6.627   7.504   1.698 -1.0080  1.6739  1.2883
  489MOL0     O65881   6.578   6.839   5.301 -0.0197 -0.5690 -0.4673
  489MOL0     C65882   6.579   6.963   5.292  0.2362 -0.1124 -0.1768
  489MOL0     O65883   6.680   7.033   5.222  0.5833 -0.2029 -0.4241
  489MOL0     C65884   6.775   6.973   5.151 -0.1678  0.3414  0.5130
  489MOL0     C65885   6.793   6.841   5.112  0.1317 -0.2932 -0.0462
  489MOL0     C65886   6.905   6.807   5.036  0.4926 -0.3366  0.3901
  489MOL0     C65887   6.994   6.906   4.988  0.6540  1.1310  0.4010
  489MOL0     O65888   7.088   6.861   4.901 -0.1723  0.1556  0.0620
  489MOL0     C65889   7.174   6.958   4.836  0.6556 -0.6846  1.0509
  489MOL0     C65890   7.250   6.865   4.733  0.3732  0.0570  1.0500
  489MOL0     C65891   7.358   6.767   4.779 -0.6319  0.4220 -0.0847
  489MOL0     C65892   7.485   6.851   4.829  0.4320  0.0976 -0.0194
  489MOL0     C65893   7.595   6.760   4.887  0.2541 -0.7533 -1.1995
  489MOL0     C65894   7.663   6.650   4.804  0.2596 -1.0896  0.4318
  489MOL0     C65895   7.800   6.611   4.879  0.5500 -0.6423  0.9982
  489MOL0     C65896   7.834   6.462   4.845 -0.1075 -0.6455 -0.3104
  489MOL0     N65897   7.854   6.435   4.695  0.0957  0.0472 -0.2917
  489MOL0     C65898   7.913   6.506   4.596 -0.6466  0.0450  0.8095
  489MOL0     C65899   7.851   6.478   4.486  0.9117  0.5828  0.2616
  489MOL0     C65900   7.885   6.528   4.350 -0.2153 -0.5802 -0.6936
  489MOL0     C65901   7.790   6.494   4.234  0.0671 -0.2698  0.5767
  489MOL0     C65902   7.852   6.505   4.082 -0.2181  0.2908  0.1921
  489MOL0     C65903   7.766   6.477   3.960  0.2560  0.0925 -0.4219
  489MOL0     O65904   7.665   6.579   3.939 -0.6045 -0.6478 -0.1196
  489MOL0     C65905   7.609   6.582   3.816  0.2432  0.1490 -0.5692
  489MOL0     C65906   7.494   6.655   3.806 -0.1182 -0.2737 -0.2906
  489MOL0     C65907   7.431   6.663   3.684  0.0871  0.6901 -0.6372
  489MOL0     C65908   7.485   6.597   3.573  0.3129 -0.5625  0.0498
  489MOL0     C65909   7.421   6.626   3.436 -0.4535  0.7242  0.0175
  489MOL0     O65910   7.325   6.726   3.426  0.3360 -0.7710  0.7099
  489MOL0     C65911   7.259   6.747   3.307  0.4336 -0.5328 -0.6118
  489MOL0     C65912   7.126   6.795   3.329  0.4143 -0.5376  0.0389
  489MOL0     C65913   7.030   6.795   3.214  0.7210  0.0243  0.0680
  489MOL0     C65914   7.082   6.781   3.088  0.5313 -0.2168  0.4643
  489MOL0     O65915   7.001   6.809   2.983  0.6139 -0.3625 -0.0764
  489MOL0     C65916   7.040   6.817   2.845  0.0354  0.1144  0.4326
  489MOL0     C65917   6.923   6.863   2.757  1.0012 -0.5398  0.4330
  489MOL0     C65918   6.801   6.767   2.745  0.3711  0.4479  1.2066
  489MOL0     C65919   6.697   6.769   2.874  0.0031  0.8378  0.3605
  489MOL0     C65920   6.552   6.743   2.835  0.0841 -0.3698  0.0023
  489MOL0     C65921   6.524   6.596   2.794  0.3590 -0.0527 -0.4807
  489MOL0     C65922   6.381   6.586   2.740  0.4966  0.4389 -0.3288
  489MOL0     C65923   6.330   6.437   2.731  0.5558  0.0061 -0.3650
  489MOL0    Cl65924   6.162   6.417   2.756  0.3060 -0.2579 -0.3415
  489MOL0     C65925   7.215   6.745   3.072 -0.0505  0.0514  0.9170
  489MOL0     C65926   7.296   6.711   3.179  0.5808 -0.1420 -0.3536
  489MOL0     O65927   7.489   6.583   3.345 -0.3664 -0.6150 -0.0344
  489MOL0     C65928   7.594   6.516   3.587 -0.1902  0.4001  0.7392
  489MOL0     C65929   7.649   6.502   3.710  0.0566  0.0079  0.5524
  489MOL0     N65930   7.752   6.378   4.513 -0.6739  0.5614  0.6086
  489MOL0     N65931   7.757   6.359   4.640 -0.5035  0.5069  0.5322
  489MOL0     C65932   6.970   7.037   5.024 -0.6777 -0.0957 -0.3314
  489MOL0     C65933   6.859   7.075   5.104  0.1028  0.0708  0.5644
  489MOL0     C65934   6.483   7.032   5.379  0.6354  0.1776 -0.2759
  489MOL0     C65935   6.539   7.131   5.468 -0.2052 -0.2219 -0.2608
  489MOL0     C65936   6.460   7.203   5.560 -0.0332 -0.5423  0.2080
  489MOL0     C65937   6.326   7.175   5.582  0.0562  0.3811 -0.8173
  489MOL0     O65938   6.281   7.251   5.692  0.1931  0.5109  0.3718
  489MOL0     C65939   6.140   7.258   5.710  0.8583 -0.6854 -0.1036
  489MOL0     C65940   6.057   7.336   5.610 -0.0553  0.5010 -0.7921
  489MOL0     C65941   5.915   7.380   5.654 -0.0487 -0.7139 -0.2535
  489MOL0     C65942   5.796   7.282   5.618 -0.2061 -0.0623  0.6391
  489MOL0     C65943   5.826   7.139   5.650  1.0536 -0.4698  0.8626
  489MOL0     C65944   5.830   7.030   5.670  0.9184  0.9106  0.0861
  489MOL0     C65945   6.259   7.079   5.505 -0.9198 -0.8467  0.5456
  489MOL0     C65946   6.336   7.013   5.397 -0.1059  0.6507  0.4214
  489MOL0     C65947   6.260   6.936   5.294 -1.2218  0.2880  0.4552
  489MOL0     H65948   6.739   6.755   5.151 -0.2581  0.2128  0.5540
  489MOL0     H65949   6.910   6.708   4.993 -0.1134  0.4515 -1.5941
  489MOL0     H65950   7.113   7.035   4.789  0.4713 -1.2245  0.4031
  489MOL0     H65951   7.240   7.018   4.900  0.8277 -0.1418  0.3728
  489MOL0     H65952   7.286   6.930   4.653  3.2184 -2.1489  0.3773
  489MOL0     H65953   7.166   6.817   4.682  0.4298 -0.5838  1.5567
  489MOL0     H65954   7.389   6.700   4.699 -0.1546 -0.5903  0.9082
  489MOL0     H65955   7.316   6.707   4.861  0.2460  1.9657  1.5713
  489MOL0     H65956   7.521   6.914   4.748 -0.7326  1.3280  0.4051
  489MOL0     H65957   7.454   6.924   4.904  1.5859 -0.3652  0.9466
  489MOL0     H65958   7.668   6.837   4.914  0.1586  0.3209 -3.6983
  489MOL0     H65959   7.564   6.716   4.982  1.5486 -0.0965 -0.4518
  489MOL0     H65960   7.583   6.578   4.786 -1.1057  0.8147 -1.5488
  489MOL0     H65961   7.681   6.671   4.698 -0.2457 -1.7419  0.2079
  489MOL0     H65962   7.781   6.610   4.986 -0.9823 -0.5378  0.7483
  489MOL0     H65963   7.880   6.679   4.849  1.1238 -1.7388 -0.1072
  489MOL0     H65964   7.929   6.448   4.897  0.4394  2.1346 -0.3809
  489MOL0     H65965   7.747   6.407   4.881 -0.3915  0.1162  0.1796
  489MOL0     H65966   7.980   6.590   4.604 -1.9299  1.0256  1.7179
  489MOL0     H65967   7.888   6.637   4.355  0.6677 -0.6432  0.5113
  489MOL0     H65968   7.983   6.483   4.332  0.5349  0.2153  1.2098
  489MOL0     H65969   7.764   6.388   4.235 -1.1542 -0.0887 -2.0994
  489MOL0     H65970   7.704   6.561   4.238  1.0944  1.3779 -2.2604
  489MOL0     H65971   7.933   6.431   4.081 -0.1646  0.1442  3.3853
  489MOL0     H65972   7.897   6.604   4.071  2.4345 -0.5829  2.0683
  489MOL0     H65973   7.725   6.377   3.975  0.0694  0.6787  4.1920
  489MOL0     H65974   7.839   6.477   3.878  0.7842  0.9805  0.0287
  489MOL0     H65975   7.466   6.721   3.887 -0.7053 -0.6673 -0.1682
  489MOL0     H65976   7.349   6.734   3.680 -0.9376 -0.4408 -0.1722
  489MOL0     H65977   7.094   6.825   3.428  1.0635  3.5947 -0.8409
  489MOL0     H65978   6.925   6.819   3.216 -0.1715 -3.3619  1.5816
  489MOL0     H65979   7.104   6.903   2.826 -2.4737  1.9027 -0.4919
  489MOL0     H65980   7.077   6.720   2.810  1.5402  1.3850 -1.7451
  489MOL0     H65981   6.873   6.944   2.812 -2.8815 -1.8401 -0.8008
  489MOL0     H65982   6.948   6.891   2.655 -0.3094 -1.1238 -0.0706
  489MOL0     H65983   6.753   6.777   2.647 -0.2842 -0.8208  1.3825
  489MOL0     H65984   6.828   6.661   2.743 -0.9914  0.0733 -1.1819
  489MOL0     H65985   6.692   6.870   2.914 -3.7921 -0.0419  2.5228
  489MOL0     H65986   6.738   6.710   2.957 -1.9971 -1.4244 -0.1426
  489MOL0     H65987   6.529   6.811   2.752 -0.6335  1.8064  1.9033
  489MOL0     H65988   6.487   6.764   2.920  1.7921  1.1265  1.0017
  489MOL0     H65989   6.582   6.557   2.711 -1.1399 -0.3198 -1.4489
  489MOL0     H65990   6.536   6.533   2.883 -1.9806  0.4438  0.2726
  489MOL0     H65991   6.368   6.640   2.646 -0.1385 -0.3487 -0.6991
  489MOL0     H65992   6.322   6.629   2.822 -1.6127 -1.2058 -0.8870
  489MOL0     H65993   6.356   6.397   2.633  3.3040  0.4785  0.0715
  489MOL0     H65994   6.385   6.368   2.796 -1.4930 -1.4031 -0.0534
  489MOL0     H65995   7.261   6.720   2.977  0.9156  0.1946  1.3327
  489MOL0     H65996   7.396   6.674   3.162  1.2867  1.6788 -0.4108
  489MOL0     H65997   7.630   6.460   3.501 -1.4659 -2.6114  2.0150
  489MOL0     H65998   7.726   6.427   3.718  2.2642  2.2834  2.6036
  489MOL0     H65999   7.026   7.127   4.999 -0.2972 -0.9566 -2.9061
  489MOL0     H66000   6.830   7.177   5.125 -1.5394 -0.0483 -0.9312
  489MOL0     H66001   6.644   7.153   5.451 -0.2552 -2.1741 -4.0952
  489MOL0     H66002   6.499   7.285   5.621  0.7030 -1.8465  1.5563
  489MOL0     H66003   6.127   7.317   5.801  0.4969  4.3006 -3.0423
  489MOL0     H66004   6.096   7.160   5.731 -0.2815 -0.7105 -2.3062
  489MOL0     H66005   6.049   7.285   5.514  1.2627  1.4456 -1.4366
  489MOL0     H66006   6.113   7.429   5.597  1.0571 -0.2264 -1.3874
  489MOL0     H66007   5.893   7.479   5.614  2.6112 -0.1773 -0.5253
  489MOL0     H66008   5.905   7.386   5.763  0.2872  2.8457 -0.3091
  489MOL0     H66009   5.710   7.325   5.670  0.4098  1.7784  0.2283
  489MOL0     H66010   5.779   7.288   5.510  1.8582 -1.7401  0.1393
  489MOL0     H66011   5.824   6.930   5.707 -2.8012  1.3482  1.1213
  489MOL0     H66012   6.154   7.061   5.524 -1.1653  0.5317  0.6049
  489MOL0     H66013   6.321   6.870   5.231 -2.0769 -0.5859  0.5220
  489MOL0     H66014   6.186   6.872   5.344 -0.6356  0.3044  1.3696
  489MOL0     H66015   6.216   7.012   5.229 -0.2178 -0.9806 -1.8216
  490MOL0     O66016   5.356   9.926  11.466  0.3431  0.5752 -0.3166
  490MOL0     C66017   5.263  10.000  11.427 -0.4414 -0.3592  0.7634
  490MOL0     O66018   5.230  10.024  11.301  0.7571 -0.1359 -0.4561
  490MOL0     C66019   5.255   9.926  11.210 -0.6724  0.7528  1.1501
  490MOL0     C66020   5.272   9.962  11.079  0.0250  0.8032 -0.3665
  490MOL0     C66021   5.327   9.866  10.988 -0.3723  0.2866  0.4342
  490MOL0     C66022   5.330   9.730  11.018 -0.3453 -0.5499 -0.4928
  490MOL0     O66023   5.370   9.664  10.906  0.0329 -0.1816 -0.0830
  490MOL0     C66024   5.353   9.529  10.902  0.3157  0.4584 -1.0789
  490MOL0     C66025   5.386   9.485  10.760  0.2575 -0.4573  0.3981
  490MOL0     C66026   5.370   9.328  10.749  1.1228 -0.3290 -0.0453
  490MOL0     C66027   5.463   9.287  10.641 -0.0832 -0.2136 -0.0772
  490MOL0     C66028   5.490   9.137  10.647  1.4840  0.6656 -0.2040
  490MOL0     C66029   5.616   9.108  10.565 -0.1109  0.9654 -0.0563
  490MOL0     C66030   5.648   8.957  10.567 -0.4494 -0.4183  0.4717
  490MOL0     C66031   5.666   8.896  10.713 -0.6374 -0.7822  1.5182
  490MOL0     N66032   5.740   8.769  10.706  0.2633 -0.4018  0.4002
  490MOL0     C66033   5.856   8.740  10.774 -0.3695  1.7951 -0.0561
  490MOL0     C66034   5.874   8.602  10.744 -0.6987 -0.9398  0.4956
  490MOL0     C66035   6.004   8.517  10.773  0.6765 -0.2899  0.2158
  490MOL0     C66036   6.118   8.540  10.672 -0.1623 -1.0361 -0.7424
  490MOL0     C66037   6.233   8.450  10.715 -0.2996  0.0717  1.0689
  490MOL0     C66038   6.341   8.466  10.608  0.7111 -0.4776 -0.5988
  490MOL0     O66039   6.450   8.380  10.652  0.3389  0.2192 -0.1871
  490MOL0     C66040   6.437   8.245  10.615 -0.3812  0.0248  0.4827
  490MOL0     C66041   6.391   8.189  10.486 -0.0678 -0.4396 -0.3821
  490MOL0     C66042   6.396   8.047  10.451  0.2401 -0.8476  0.5193
  490MOL0     C66043   6.393   7.949  10.552 -0.1399  0.3388  0.4617
  490MOL0     C66044   6.376   7.807  10.544  0.2187  0.8814  0.2127
  490MOL0     O66045   6.432   7.741  10.637  0.1636 -0.4713  0.7864
  490MOL0     C66046   6.442   7.601  10.657 -0.5124  0.6418 -0.5841
  490MOL0     C66047   6.470   7.571  10.791 -1.2370 -0.5619 -0.3692
  490MOL0     C66048   6.473   7.439  10.833 -0.4705  0.6998 -0.6876
  490MOL0     C66049   6.461   7.334  10.745 -0.5035  0.2174  0.6157
  490MOL0     O66050   6.469   7.201  10.783  0.0200 -0.0098  0.0040
  490MOL0     C66051   6.427   7.091  10.699  1.0186 -0.3597  0.7090
  490MOL0     C66052   6.437   6.962  10.780  0.3669  0.3953  0.6907
  490MOL0     C66053   6.343   6.960  10.897  0.0049  0.7770 -0.0539
  490MOL0     C66054   6.282   6.830  10.955  0.3101 -0.4386 -0.6509
  490MOL0     C66055   6.400   6.768  11.049  1.0085  0.5811 -0.6656
  490MOL0     C66056   6.384   6.621  11.093 -0.2363  0.0691  0.0737
  490MOL0     C66057   6.238   6.589  11.132  0.5204  0.6381  0.7279
  490MOL0     C66058   6.211   6.440  11.139 -0.5140 -0.6380  0.7499
  490MOL0    Cl66059   6.240   6.356  10.983  0.1160 -0.1742 -0.2561
  490MOL0     C66060   6.429   7.370  10.611 -0.2181  0.0533 -0.5352
  490MOL0     C66061   6.402   7.503  10.567 -0.1098 -0.3013 -0.0271
  490MOL0     O66062   6.316   7.761  10.453 -0.6715  0.6114 -0.1674
  490MOL0     C66063   6.428   8.005  10.680  1.3893 -0.3231 -0.0018
  490MOL0     C66064   6.461   8.144  10.709 -1.1036  0.0177 -0.0231
  490MOL0     N66065   5.777   8.562  10.656  0.4344  0.7522 -0.0867
  490MOL0     N66066   5.698   8.658  10.637 -0.2178 -1.1846  0.0554
  490MOL0     C66067   5.293   9.686  11.140  0.7144  0.9936  0.0690
  490MOL0     C66068   5.257   9.781  11.239  0.0600 -0.8661 -0.4726
  490MOL0     C66069   5.185  10.067  11.535 -0.9125 -0.2631  0.5071
  490MOL0     C66070   5.214  10.201  11.546  0.1122  0.8680 -0.3185
  490MOL0     C66071   5.143  10.279  11.638  0.1503 -0.5243  0.2362
  490MOL0     C66072   5.041  10.228  11.720 -0.4225 -0.0950  1.0056
  490MOL0     O66073   4.964  10.303  11.810 -0.4740 -0.2701  0.7453
  490MOL0     C66074   4.971  10.443  11.802 -0.4775 -0.6193 -0.3883
  490MOL0     C66075   4.893  10.516  11.912  0.8135  0.7236 -0.0272
  490MOL0     C66076   4.928  10.476  12.060  0.6729  0.0077  0.4381
  490MOL0     C66077   5.066  10.513  12.118 -0.4362 -0.8009 -0.4122
  490MOL0     C66078   5.075  10.512  12.268  1.0369  0.6463 -0.9565
  490MOL0     C66079   5.079  10.519  12.391  0.3517  0.2362  0.5316
  490MOL0     C66080   5.009  10.092  11.704 -0.7302 -0.4801 -0.1531
  490MOL0     C66081   5.086  10.009  11.615  1.1183  0.5175  0.0201
  490MOL0     C66082   5.042   9.869  11.584  0.3639  0.7792  0.4380
  490MOL0     H66083   5.251  10.068  11.068  1.1006  1.1129  0.3053
  490MOL0     H66084   5.347   9.905  10.889 -2.7737  4.9041  1.4910
  490MOL0     H66085   5.415   9.489  10.982 -2.4104  1.3792  1.7188
  490MOL0     H66086   5.248   9.512  10.928 -0.8102  4.2092 -2.4269
  490MOL0     H66087   5.489   9.519  10.742 -0.2328  0.2652 -1.1864
  490MOL0     H66088   5.318   9.535  10.690 -0.5710 -1.2671  0.6069
  490MOL0     H66089   5.271   9.285  10.730  1.0608 -0.7014  1.0526
  490MOL0     H66090   5.392   9.285  10.847 -1.2022  0.3357  0.8377
  490MOL0     H66091   5.423   9.316  10.543 -4.4926  1.2842  1.8804
  490MOL0     H66092   5.563   9.330  10.647 -0.0552 -0.0613 -1.4082
  490MOL0     H66093   5.499   9.112  10.753  0.0807 -0.2249 -0.2598
  490MOL0     H66094   5.413   9.065  10.616  1.7981 -0.2283  1.0085
  490MOL0     H66095   5.607   9.141  10.461  3.5959  0.5281 -0.6374
  490MOL0     H66096   5.691   9.155  10.629  0.0354 -2.1953  2.3385
  490MOL0     H66097   5.740   8.950  10.509  0.1235  0.4251  1.2352
  490MOL0     H66098   5.568   8.907  10.511 -1.0076  0.3288  0.5808
  490MOL0     H66099   5.730   8.963  10.772 -1.8308  1.4870  0.3617
  490MOL0     H66100   5.570   8.873  10.759 -0.4285 -2.2650  1.2630
  490MOL0     H66101   5.931   8.795  10.831  1.0044 -1.0422  1.0811
  490MOL0     H66102   6.034   8.538  10.877  0.5113  2.3182 -0.1836
  490MOL0     H66103   5.982   8.410  10.767  2.9875 -0.7911 -0.5602
  490MOL0     H66104   6.093   8.521  10.567  0.0702  0.2875 -1.0493
  490MOL0     H66105   6.144   8.644  10.691  0.9404 -1.2722 -0.9092
  490MOL0     H66106   6.200   8.345  10.714  0.0537 -0.1114 -2.2292
  490MOL0     H66107   6.277   8.485  10.809 -0.6002  0.9046  0.9040
  490MOL0     H66108   6.372   8.571  10.609  1.2449 -0.6316 -0.7158
  490MOL0     H66109   6.302   8.457  10.506  0.1705  0.7978 -0.5314
  490MOL0     H66110   6.380   8.267  10.411 -2.5553  2.0678  2.3239
  490MOL0     H66111   6.376   8.015  10.349 -1.1673  5.7162 -1.7785
  490MOL0     H66112   6.485   7.655  10.859 -0.6699 -0.9980  0.0621
  490MOL0     H66113   6.478   7.423  10.940 -1.6271 -0.9157 -0.8430
  490MOL0     H66114   6.320   7.099  10.677  0.8989 -1.1626  0.9408
  490MOL0     H66115   6.482   7.081  10.605  1.6009 -0.1876  1.0309
  490MOL0     H66116   6.419   6.868  10.727  1.6566 -0.5859  1.9129
  490MOL0     H66117   6.540   6.953  10.815 -0.2799 -1.6668  2.2330
  490MOL0     H66118   6.407   7.011  10.969 -0.5165  1.2683  0.0716
  490MOL0     H66119   6.260   7.030  10.886 -0.4130  0.4448  0.9021
  490MOL0     H66120   6.269   6.757  10.875 -3.0626  0.1848 -0.8135
  490MOL0     H66121   6.193   6.859  11.011  0.4323  1.0028 -1.1690
  490MOL0     H66122   6.401   6.842  11.129 -1.3081  2.6868 -2.4273
  490MOL0     H66123   6.493   6.776  10.991  2.6250  0.8754  1.8472
  490MOL0     H66124   6.418   6.550  11.017 -0.2351 -0.7234  0.7949
  490MOL0     H66125   6.448   6.607  11.181  0.4134  0.1847 -0.3727
  490MOL0     H66126   6.165   6.631  11.062 -1.9558 -0.3353  2.5679
  490MOL0     H66127   6.211   6.643  11.224 -5.2783 -1.5798  0.7564
  490MOL0     H66128   6.278   6.403  11.217 -0.0846  0.3229  0.8422
  490MOL0     H66129   6.107   6.414  11.163 -0.9573  1.6467  1.4895
  490MOL0     H66130   6.412   7.293  10.535  4.3405  1.3047 -3.2077
  490MOL0     H66131   6.366   7.522  10.467  1.6576 -1.9667 -1.0376
  490MOL0     H66132   6.428   7.946  10.770 -0.6826  1.4839  1.2770
  490MOL0     H66133   6.487   8.182  10.808 -1.0559 -1.3539  0.5087
  490MOL0     H66134   5.288   9.579  11.157 -1.3798  0.8326 -1.2077
  490MOL0     H66135   5.243   9.754  11.343  0.7469  1.9013  0.4151
  490MOL0     H66136   5.292  10.251  11.488  1.6671  0.1236  1.0530
  490MOL0     H66137   5.156  10.386  11.635  2.6696 -0.7839 -0.8872
  490MOL0     H66138   4.931  10.480  11.707 -0.8250  2.3920  0.8106
  490MOL0     H66139   5.074  10.480  11.803  0.3041 -2.6509 -0.9989
  490MOL0     H66140   4.787  10.488  11.912  0.7227  1.0715 -0.4193
  490MOL0     H66141   4.887  10.623  11.894 -1.5929  0.6158 -0.1129
  490MOL0     H66142   4.928  10.367  12.058 -1.4502 -0.0188 -1.7365
  490MOL0     H66143   4.862  10.523  12.134  1.5278  0.5533  0.8695
  490MOL0     H66144   5.137  10.441  12.075  1.1375  0.0066  0.7496
  490MOL0     H66145   5.095  10.614  12.089 -1.8591 -0.4705 -0.7779
  490MOL0     H66146   5.085  10.510  12.498 -0.3361  0.5640  0.6050
  490MOL0     H66147   4.928  10.047  11.760 -0.0108 -1.1324  0.3906
  490MOL0     H66148   5.134   9.810  11.587 -0.4472 -0.4995  1.3044
  490MOL0     H66149   4.970   9.824  11.653 -0.7097  0.8710 -0.6038
  490MOL0     H66150   4.999   9.860  11.484 -0.1510  1.8402  0.5497
  491MOL0     O66151   3.875   5.579   6.213  0.6216 -0.7747  0.4941
  491MOL0     C66152   3.937   5.474   6.230  0.4623 -0.4571 -0.8176
  491MOL0     O66153   4.017   5.452   6.346 -0.3698 -0.3733  1.0030
  491MOL0     C66154   4.049   5.563   6.428  0.2621  0.4607  0.5474
  491MOL0     C66155   3.954   5.627   6.510 -0.3788  0.8307 -0.7213
  491MOL0     C66156   3.987   5.746   6.581  0.4337 -1.5196 -0.2845
  491MOL0     C66157   4.116   5.801   6.576  0.5532  0.2686 -0.1903
  491MOL0     O66158   4.136   5.911   6.656 -0.7362  0.0992  0.3859
  491MOL0     C66159   4.251   5.993   6.629 -0.5813  0.3774 -0.0716
  491MOL0     C66160   4.252   6.102   6.733  0.1935  0.0268  0.2634
  491MOL0     C66161   4.282   6.038   6.867  0.2845 -0.4458  0.0381
  491MOL0     C66162   4.218   6.115   6.984 -0.9022  0.2126 -0.6872
  491MOL0     C66163   4.262   6.046   7.122 -0.3979  1.2319  0.1626
  491MOL0     C66164   4.167   5.929   7.166 -0.5633 -0.6142  0.0952
  491MOL0     C66165   4.228   5.830   7.269 -0.5732 -0.1286  0.4848
  491MOL0     C66166   4.123   5.753   7.353  0.1062 -0.4388 -0.1854
  491MOL0     N66167   4.177   5.656   7.450  0.1640  0.2459 -0.0664
  491MOL0     C66168   4.282   5.556   7.435  0.5292 -0.2231 -0.1805
  491MOL0     C66169   4.308   5.510   7.558  0.1635  0.5862 -1.5899
  491MOL0     C66170   4.414   5.414   7.590  0.9232 -0.1374 -0.2484
  491MOL0     C66171   4.370   5.273   7.553 -0.2921 -0.1563  0.8110
  491MOL0     C66172   4.247   5.223   7.627 -0.9477  0.4894 -0.2370
  491MOL0     C66173   4.202   5.087   7.573  1.1199 -0.6186 -0.7928
  491MOL0     O66174   4.132   5.116   7.446  0.0694  0.4432  0.1821
  491MOL0     C66175   4.116   5.009   7.367 -0.4363 -0.0888 -0.3578
  491MOL0     C66176   4.032   4.900   7.414 -0.6043  0.3338  0.4694
  491MOL0     C66177   4.038   4.782   7.347 -0.5247  0.1178 -0.1865
  491MOL0     C66178   4.114   4.766   7.229  0.4791  0.0213 -0.6216
  491MOL0     C66179   4.143   4.630   7.171  0.8130  0.3797 -0.1738
  491MOL0     O66180   4.062   4.522   7.222 -0.5847 -0.2803  0.7634
  491MOL0     C66181   4.078   4.395   7.173 -0.8707  0.7244  0.1470
  491MOL0     C66182   4.068   4.356   7.036  0.0035 -0.2624  0.3079
  491MOL0     C66183   4.075   4.218   7.003  1.4190 -0.5940  0.1736
  491MOL0     C66184   4.114   4.118   7.089 -0.4025 -0.0698 -0.4846
  491MOL0     O66185   4.115   3.992   7.043  0.5834 -0.3074 -0.8226
  491MOL0     C66186   4.088   3.878   7.131  0.0305 -0.3979 -0.5751
  491MOL0     C66187   4.089   3.740   7.050 -0.6101 -0.3999  0.8196
  491MOL0     C66188   3.991   3.734   6.927  0.6528 -0.3651 -0.3577
  491MOL0     C66189   3.844   3.767   6.951  0.0464 -0.6598  0.8972
  491MOL0     C66190   3.764   3.781   6.815  0.0807 -0.5651 -0.4668
  491MOL0     C66191   3.798   3.921   6.762  0.1154 -0.6655  0.8031
  491MOL0     C66192   3.727   3.950   6.626 -0.8416  0.3014 -0.6521
  491MOL0     C66193   3.805   4.049   6.545  0.4600  0.6871 -0.0061
  491MOL0    Cl66194   3.890   4.182   6.634 -0.1228  0.0110  0.1729
  491MOL0     C66195   4.138   4.159   7.223 -0.3470 -0.0813 -0.7637
  491MOL0     C66196   4.125   4.295   7.262  0.5838  0.1029 -0.2088
  491MOL0     O66197   4.231   4.626   7.085  0.2568  0.6842 -0.3911
  491MOL0     C66198   4.181   4.881   7.185 -0.3117  0.0661  0.1303
  491MOL0     C66199   4.176   5.003   7.247  0.2101  0.8352  0.5390
  491MOL0     N66200   4.218   5.576   7.641  0.6597 -0.1043  0.4995
  491MOL0     N66201   4.138   5.654   7.575 -0.0383  0.0720 -1.0388
  491MOL0     C66202   4.209   5.733   6.502  0.1913  1.4571  0.2195
  491MOL0     C66203   4.172   5.624   6.428  0.3004  0.8378  0.4442
  491MOL0     C66204   3.934   5.363   6.132  0.2399  0.2572 -0.1560
  491MOL0     C66205   3.960   5.399   6.000 -0.4547  0.1205 -0.3504
  491MOL0     C66206   3.973   5.303   5.900 -0.3830 -1.0030 -0.1590
  491MOL0     C66207   3.977   5.166   5.930 -0.3663 -0.5083 -0.3638
  491MOL0     O66208   3.991   5.086   5.823  0.5099 -0.0791 -0.2117
  491MOL0     C66209   4.033   4.947   5.840  0.0107 -0.3543  1.2283
  491MOL0     C66210   4.044   4.861   5.715  0.4072 -0.1478 -0.3529
  491MOL0     C66211   4.052   4.708   5.739  0.6355 -0.9987 -0.7846
  491MOL0     C66212   4.030   4.600   5.631 -0.1618 -0.5157 -0.1711
  491MOL0     C66213   3.895   4.614   5.576  0.2027 -0.8558 -0.0978
  491MOL0     C66214   3.783   4.652   5.552  0.0887 -0.5916 -0.1423
  491MOL0     C66215   3.966   5.127   6.062  0.3709 -0.2878 -0.3679
  491MOL0     C66216   3.943   5.221   6.164  0.2410  0.0494  0.7144
  491MOL0     C66217   3.928   5.168   6.302 -0.8379 -0.6501 -0.6832
  491MOL0     H66218   3.860   5.575   6.520  0.0614  0.2793  0.7545
  491MOL0     H66219   3.919   5.806   6.640  1.6099 -0.7378  0.3351
  491MOL0     H66220   4.351   5.949   6.632  0.6588  3.0660  0.0921
  491MOL0     H66221   4.253   6.033   6.527  0.3005  1.3040  0.2972
  491MOL0     H66222   4.156   6.154   6.729  0.1596  0.0195  0.9590
  491MOL0     H66223   4.333   6.173   6.713  0.5097 -0.6894 -1.1659
  491MOL0     H66224   4.391   6.037   6.876  0.2872 -0.5258 -0.0036
  491MOL0     H66225   4.245   5.935   6.862 -1.4379 -0.0930  3.0285
  491MOL0     H66226   4.247   6.221   6.975  1.0258  0.0853  2.4847
  491MOL0     H66227   4.109   6.113   6.982 -0.8911 -0.6312 -0.6142
  491MOL0     H66228   4.362   6.004   7.107 -0.9649  0.0318 -0.3834
  491MOL0     H66229   4.279   6.113   7.207 -1.2693  1.9990 -0.2514
  491MOL0     H66230   4.073   5.974   7.200  0.7225  2.2272  0.1382
  491MOL0     H66231   4.144   5.864   7.082  1.3986 -2.2764  0.7475
  491MOL0     H66232   4.297   5.882   7.336 -1.1468  3.0499 -1.1939
  491MOL0     H66233   4.280   5.753   7.210 -0.3967  0.8175 -0.6275
  491MOL0     H66234   4.062   5.827   7.406  1.5674 -0.4052  1.5447
  491MOL0     H66235   4.073   5.697   7.274  3.4660 -1.1891 -1.9752
  491MOL0     H66236   4.332   5.525   7.343 -3.0052 -1.5268 -1.8415
  491MOL0     H66237   4.497   5.451   7.529 -0.0173  0.3378 -1.2910
  491MOL0     H66238   4.436   5.412   7.697 -1.5844 -0.0144  0.3464
  491MOL0     H66239   4.351   5.269   7.445 -2.3764 -2.0829  1.1628
  491MOL0     H66240   4.458   5.211   7.573 -0.7646 -0.3112  2.5982
  491MOL0     H66241   4.162   5.289   7.607 -0.2664  1.3965 -0.1529
  491MOL0     H66242   4.266   5.230   7.734 -1.5949 -0.7945 -0.0043
  491MOL0     H66243   4.131   5.045   7.645 -1.4280  1.4228 -1.9208
  491MOL0     H66244   4.284   5.016   7.563  1.7114 -0.2075  0.7778
  491MOL0     H66245   3.977   4.901   7.508 -2.1776  0.6258 -0.4314
  491MOL0     H66246   3.969   4.705   7.380  0.8565 -1.4476 -0.8027
  491MOL0     H66247   4.057   4.438   6.965  1.0195  2.1421  2.7310
  491MOL0     H66248   4.054   4.199   6.898  0.9403  1.5603 -0.1840
  491MOL0     H66249   4.166   3.872   7.208 -2.6095 -3.8019  2.1917
  491MOL0     H66250   3.992   3.892   7.180  0.4412 -0.1844  0.1758
  491MOL0     H66251   4.190   3.715   7.019 -0.7920 -1.3824  0.9784
  491MOL0     H66252   4.077   3.658   7.121  2.1782 -0.8387  0.8782
  491MOL0     H66253   4.030   3.808   6.856  0.0604  1.2248  0.9133
  491MOL0     H66254   3.993   3.632   6.887  1.0267 -1.0019  1.2050
  491MOL0     H66255   3.831   3.857   7.013 -0.7044 -1.6520  2.2230
  491MOL0     H66256   3.802   3.685   7.010 -0.8447 -0.0421  1.1487
  491MOL0     H66257   3.655   3.789   6.827  0.3942  1.2592  2.1199
  491MOL0     H66258   3.788   3.705   6.741  1.5480  0.6038 -1.2408
  491MOL0     H66259   3.755   3.999   6.826 -0.8482  0.0583 -0.6952
  491MOL0     H66260   3.906   3.924   6.743 -0.0814 -0.0670 -0.2728
  491MOL0     H66261   3.629   3.994   6.648 -1.1954 -1.1512  0.9150
  491MOL0     H66262   3.715   3.854   6.575 -0.3763 -1.2401  1.9640
  491MOL0     H66263   3.881   3.988   6.495 -2.1440 -1.1577 -1.9784
  491MOL0     H66264   3.745   4.085   6.461  3.2269 -2.4967 -3.7329
  491MOL0     H66265   4.164   4.087   7.300 -3.3483  0.2674  0.7216
  491MOL0     H66266   4.139   4.325   7.365 -2.2893  1.8468 -0.2133
  491MOL0     H66267   4.240   4.862   7.096  0.3567 -0.7202  0.7242
  491MOL0     H66268   4.226   5.090   7.205  2.8888 -0.8365 -0.0152
  491MOL0     H66269   4.314   5.757   6.499  0.8890 -1.2175  0.7337
  491MOL0     H66270   4.241   5.567   6.367  1.3301  1.1813  1.2551
  491MOL0     H66271   3.958   5.501   5.962 -1.2004  0.3849  0.3904
  491MOL0     H66272   3.990   5.333   5.797  2.5429  3.0647  1.2643
  491MOL0     H66273   3.955   4.900   5.900 -0.3535 -0.2539  0.8343
  491MOL0     H66274   4.131   4.947   5.889 -0.2408 -2.0097  1.7678
  491MOL0     H66275   4.124   4.902   5.654  0.0288 -0.4044 -1.0328
  491MOL0     H66276   3.951   4.872   5.658  0.7314 -2.6264 -1.4978
  491MOL0     H66277   3.985   4.689   5.824 -0.3231  2.2482 -0.6718
  491MOL0     H66278   4.151   4.686   5.779  0.9877 -0.3979 -1.3220
  491MOL0     H66279   4.108   4.598   5.553  2.0288  1.3802  1.7951
  491MOL0     H66280   4.032   4.504   5.681  1.5611 -1.1420 -1.3288
  491MOL0     H66281   3.685   4.694   5.546 -0.4890 -2.0378 -1.2609
  491MOL0     H66282   3.970   5.021   6.083  0.9266 -0.8970 -3.0490
  491MOL0     H66283   3.867   5.077   6.303 -0.4817 -0.9241  1.8224
  491MOL0     H66284   4.025   5.153   6.351 -1.0636 -0.2677 -0.1057
  491MOL0     H66285   3.874   5.236   6.368  0.8084  0.3792 -0.3257
  492MOL0     O66286   3.391   8.372   3.411  0.0783  0.3473  0.1781
  492MOL0     C66287   3.401   8.402   3.292  1.2520  0.5356 -0.3087
  492MOL0     O66288   3.516   8.466   3.238 -0.3800 -0.1873 -0.2316
  492MOL0     C66289   3.632   8.463   3.303 -0.0871 -0.8162  0.5062
  492MOL0     C66290   3.723   8.567   3.261 -0.4342 -0.3375 -0.3445
  492MOL0     C66291   3.844   8.577   3.341  0.3624  0.9107  1.5398
  492MOL0     C66292   3.879   8.482   3.432 -0.2529 -0.6482 -0.4971
  492MOL0     O66293   3.987   8.505   3.510 -0.7042 -0.2625 -1.3791
  492MOL0     C66294   3.969   8.531   3.652  0.4472 -0.1481 -0.4852
  492MOL0     C66295   4.103   8.531   3.722 -0.2359 -0.9066  0.1928
  492MOL0     C66296   4.164   8.393   3.728 -0.2796  0.2971  0.0630
  492MOL0     C66297   4.253   8.357   3.848 -0.5461 -0.3216  0.6424
  492MOL0     C66298   4.315   8.212   3.846 -0.0078  0.3528 -0.3175
  492MOL0     C66299   4.199   8.113   3.864 -0.8541 -0.3908 -0.3229
  492MOL0     C66300   4.245   7.962   3.853 -0.6423 -0.7485 -1.2223
  492MOL0     C66301   4.325   7.923   3.980  0.5470 -0.7646 -0.3638
  492MOL0     N66302   4.220   7.906   4.093 -0.8198 -0.1311  0.4504
  492MOL0     C66303   4.101   7.851   4.075  0.8346 -0.4295 -0.3830
  492MOL0     C66304   4.042   7.874   4.193 -0.1843  0.7666 -0.3373
  492MOL0     C66305   3.891   7.853   4.213 -0.0332 -0.6577  0.1018
  492MOL0     C66306   3.799   7.868   4.086  0.2965 -1.5017 -0.2155
  492MOL0     C66307   3.805   8.011   4.032  0.2603 -0.3077  0.2089
  492MOL0     C66308   3.712   8.032   3.908 -0.4885  0.3606 -0.3041
  492MOL0     O66309   3.777   7.972   3.794 -0.6792 -0.3788  0.4008
  492MOL0     C66310   3.725   7.957   3.669  0.6685 -0.2611  0.7439
  492MOL0     C66311   3.792   7.995   3.560 -0.5292  0.4715  0.6953
  492MOL0     C66312   3.730   8.018   3.437 -0.1136 -0.0463 -0.7241
  492MOL0     C66313   3.597   7.973   3.422  0.9153 -0.7982  1.0035
  492MOL0     C66314   3.535   7.996   3.283 -1.1630 -0.0454  0.8513
  492MOL0     O66315   3.404   7.960   3.252 -0.4726  0.0053  0.6815
  492MOL0     C66316   3.334   7.995   3.130 -1.2281 -0.2615 -0.5783
  492MOL0     C66317   3.376   8.111   3.048  0.5602  0.1845 -0.2063
  492MOL0     C66318   3.309   8.134   2.931  0.4914 -0.2152  0.3229
  492MOL0     C66319   3.205   8.049   2.878 -0.3517 -0.2711  0.0569
  492MOL0     O66320   3.123   8.091   2.770 -0.1880  0.8883  0.0631
  492MOL0     C66321   3.043   7.990   2.702  0.2632  0.4179 -0.3167
  492MOL0     C66322   2.984   8.017   2.567  1.2607 -0.7712  0.1595
  492MOL0     C66323   3.070   8.107   2.487  0.2569  0.4107  0.3002
  492MOL0     C66324   3.193   8.033   2.418 -0.4098  0.1227  0.1401
  492MOL0     C66325   3.273   8.137   2.326 -0.3617 -0.3684 -0.2395
  492MOL0     C66326   3.414   8.079   2.289 -0.5598  0.6470  0.4807
  492MOL0     C66327   3.537   8.105   2.379  0.4292  0.4785  0.4257
  492MOL0     C66328   3.530   8.044   2.520  0.2680 -0.3321  0.0686
  492MOL0    Cl66329   3.695   8.038   2.589 -0.2716 -0.1704  0.1089
  492MOL0     C66330   3.167   7.941   2.959 -0.1342 -0.0872 -1.0267
  492MOL0     C66331   3.227   7.917   3.089  0.4969  0.2566  0.2347
  492MOL0     O66332   3.612   8.030   3.192 -0.6388 -0.7931 -0.2040
  492MOL0     C66333   3.519   7.921   3.530 -0.3631 -0.2915  0.0380
  492MOL0     C66334   3.591   7.912   3.651 -0.1229 -0.6544 -0.5255
  492MOL0     N66335   4.124   7.943   4.274 -0.2875  1.1767  0.0066
  492MOL0     N66336   4.236   7.956   4.220  0.3606  0.1260  0.6150
  492MOL0     C66337   3.792   8.381   3.460 -1.1574 -0.1642  0.0775
  492MOL0     C66338   3.669   8.371   3.395 -0.3395 -0.7282 -0.4246
  492MOL0     C66339   3.282   8.403   3.208  0.0563 -0.6036  0.2688
  492MOL0     C66340   3.292   8.482   3.089  0.0194  0.5281  0.6105
  492MOL0     C66341   3.182   8.508   3.010  0.4710  0.3834 -0.4309
  492MOL0     C66342   3.055   8.445   3.031  0.8532  0.1849 -0.7288
  492MOL0     O66343   2.954   8.456   2.940  0.5495  0.4010 -0.6025
  492MOL0     C66344   2.906   8.330   2.895  0.5883 -0.8791  0.1673
  492MOL0     C66345   2.800   8.351   2.790  0.9497 -0.4531 -0.4222
  492MOL0     C66346   2.854   8.413   2.665  0.1743  0.2468  1.2130
  492MOL0     C66347   2.768   8.405   2.540  0.4620 -0.5058 -0.1508
  492MOL0     C66348   2.828   8.481   2.428 -0.2296  0.9074 -0.1480
  492MOL0     C66349   2.872   8.554   2.343  0.4893 -0.9665 -0.4987
  492MOL0     C66350   3.050   8.351   3.140 -0.1448  0.2701  0.2365
  492MOL0     C66351   3.159   8.348   3.239  0.9808 -0.0821 -0.2526
  492MOL0     C66352   3.112   8.274   3.369 -0.1073 -0.3442 -0.0007
  492MOL0     H66353   3.702   8.648   3.191 -1.2175 -1.5715 -1.5789
  492MOL0     H66354   3.915   8.654   3.314  1.6583 -0.1424  1.8531
  492MOL0     H66355   3.926   8.631   3.661  1.3626  0.3689 -1.5695
  492MOL0     H66356   3.900   8.456   3.691  1.1368  0.6212  2.4747
  492MOL0     H66357   4.097   8.582   3.818 -2.8662  3.0667 -1.7906
  492MOL0     H66358   4.158   8.611   3.670 -0.6379 -1.1573 -0.6356
  492MOL0     H66359   4.215   8.373   3.633 -2.7286  0.1471 -1.2949
  492MOL0     H66360   4.079   8.324   3.730 -0.3676  0.4184  1.8424
  492MOL0     H66361   4.333   8.432   3.849 -1.1093  0.4991 -2.6394
  492MOL0     H66362   4.207   8.376   3.945  2.1697 -0.7293  2.1067
  492MOL0     H66363   4.369   8.197   3.752 -0.4977 -0.4014 -0.4856
  492MOL0     H66364   4.383   8.210   3.932  0.3202 -0.0658 -0.5831
  492MOL0     H66365   4.156   8.124   3.964  4.3799 -0.8072  2.3143
  492MOL0     H66366   4.118   8.123   3.791  0.1731  2.0065 -1.2309
  492MOL0     H66367   4.294   7.952   3.756 -1.3342 -2.3214 -1.4306
  492MOL0     H66368   4.164   7.892   3.834 -1.5870  0.5510 -2.0834
  492MOL0     H66369   4.394   7.840   3.967 -0.1732 -1.3903 -0.2223
  492MOL0     H66370   4.396   7.999   4.015  0.2949 -1.0677  0.8533
  492MOL0     H66371   4.052   7.811   3.987 -2.2020  4.4774 -1.3189
  492MOL0     H66372   3.863   7.759   4.262 -1.6671 -0.4911 -0.4534
  492MOL0     H66373   3.853   7.929   4.281 -0.5134 -0.0639 -0.8179
  492MOL0     H66374   3.843   7.793   4.019 -1.6914 -0.2504 -3.1621
  492MOL0     H66375   3.695   7.835   4.097  0.1145 -0.2579  2.5976
  492MOL0     H66376   3.907   8.037   4.003  0.7672 -2.6437 -0.3258
  492MOL0     H66377   3.762   8.074   4.110  0.3251 -1.6966  1.3987
  492MOL0     H66378   3.696   8.139   3.895 -1.6853  0.1807 -0.3851
  492MOL0     H66379   3.617   7.980   3.926  0.6615 -1.9411 -0.4594
  492MOL0     H66380   3.896   8.025   3.566 -0.6252  0.9162  0.2382
  492MOL0     H66381   3.794   8.046   3.354  1.4362  1.7931  0.9699
  492MOL0     H66382   3.458   8.175   3.080 -0.2144  0.5530  1.1194
  492MOL0     H66383   3.333   8.223   2.873  0.4766 -0.4081  0.0152
  492MOL0     H66384   3.112   7.905   2.700  0.2393  0.4057 -0.8725
  492MOL0     H66385   2.958   7.966   2.766  0.1183 -1.9920 -1.2989
  492MOL0     H66386   2.977   7.922   2.513  2.6444 -1.1660  0.6421
  492MOL0     H66387   2.883   8.057   2.580  1.2574  0.1232 -2.1563
  492MOL0     H66388   3.006   8.142   2.406 -1.0858  1.6586  1.8418
  492MOL0     H66389   3.107   8.196   2.538  0.4516  1.0717 -0.9798
  492MOL0     H66390   3.167   7.949   2.354  2.0657 -0.9486  0.4298
  492MOL0     H66391   3.256   7.994   2.498  2.2758  0.7589 -1.5236
  492MOL0     H66392   3.285   8.230   2.383  1.2564 -1.2003  0.8445
  492MOL0     H66393   3.208   8.160   2.241 -0.1163  2.3305  0.2088
  492MOL0     H66394   3.400   7.972   2.270 -1.7578  0.2710  3.0599
  492MOL0     H66395   3.449   8.127   2.197  1.3361  0.7740  1.2163
  492MOL0     H66396   3.554   8.212   2.397  1.0547  0.1157  2.1079
  492MOL0     H66397   3.629   8.062   2.337 -0.5913  0.0496 -1.4822
  492MOL0     H66398   3.456   8.101   2.577 -1.6644 -1.3919 -1.3064
  492MOL0     H66399   3.486   7.944   2.516 -1.1036  0.1510  1.7331
  492MOL0     H66400   3.093   7.866   2.931 -0.9104  0.2744 -0.0280
  492MOL0     H66401   3.189   7.847   3.162 -4.2920  3.1035  0.9249
  492MOL0     H66402   3.418   7.892   3.506  0.1228 -0.4107 -2.0731
  492MOL0     H66403   3.539   7.871   3.737 -0.1293  1.8710  0.7760
  492MOL0     H66404   3.821   8.314   3.540  2.6297  1.5163  0.2986
  492MOL0     H66405   3.615   8.278   3.410 -2.1385  0.2667 -0.4406
  492MOL0     H66406   3.385   8.530   3.061  0.0732 -0.2935 -0.7309
  492MOL0     H66407   3.183   8.586   2.933  1.5320 -0.2088 -1.0363
  492MOL0     H66408   2.863   8.272   2.978  1.4155 -1.8347 -0.0436
  492MOL0     H66409   2.980   8.271   2.840 -0.7265 -1.4425 -1.0696
  492MOL0     H66410   2.732   8.416   2.845  1.6228  0.6079 -0.8218
  492MOL0     H66411   2.748   8.256   2.778  0.3777 -0.5798  2.2448
  492MOL0     H66412   2.945   8.360   2.635 -0.7324  0.0663 -1.5670
  492MOL0     H66413   2.892   8.513   2.688  0.2555 -0.2149  3.2163
  492MOL0     H66414   2.754   8.300   2.513 -2.4103 -0.0929 -0.6590
  492MOL0     H66415   2.670   8.449   2.560  0.2759 -1.5331  1.4232
  492MOL0     H66416   2.891   8.618   2.259  1.6872  0.0695  0.5028
  492MOL0     H66417   2.957   8.297   3.154  0.3097 -0.2503  1.3865
  492MOL0     H66418   3.189   8.240   3.439 -0.5412  0.7881  1.0608
  492MOL0     H66419   3.033   8.325   3.425 -0.1178 -0.9921  0.5883
  492MOL0     H66420   3.064   8.180   3.338 -0.9800  0.1147 -0.0689
  493MOL0     O66421   3.904  11.407   1.900  0.6972 -0.6448  0.2134
  493MOL0     C66422   3.923  11.468   2.002 -0.8640  0.5295 -0.5910
  493MOL0     O66423   4.040  11.533   2.030 -1.0574 -0.6014 -0.7289
  493MOL0     C66424   4.123  11.562   1.927  0.7993 -0.5280 -0.4098
  493MOL0     C66425   4.243  11.609   1.984  0.3096  1.0057  0.9099
  493MOL0     C66426   4.345  11.667   1.899  0.1402  0.0007  0.6524
  493MOL0     C66427   4.320  11.674   1.761 -0.1362  0.0977 -0.0539
  493MOL0     O66428   4.413  11.700   1.667  0.0065 -0.0063 -0.1888
  493MOL0     C66429   4.552  11.736   1.699  0.1619 -0.2718 -0.8355
  493MOL0     C66430   4.635  11.760   1.575 -0.0771 -0.4555  0.3695
  493MOL0     C66431   4.674  11.638   1.495  0.0108  0.3189  0.3205
  493MOL0     C66432   4.723  11.677   1.359 -0.1378 -0.0660 -0.6712
  493MOL0     C66433   4.767  11.559   1.262  0.1616 -0.6106 -0.9655
  493MOL0     C66434   4.804  11.619   1.130  0.2684  0.6385  0.6231
  493MOL0     C66435   4.828  11.499   1.030 -0.5060 -0.2808  0.5814
  493MOL0     C66436   4.904  11.535   0.899 -0.9018  0.5511 -0.2872
  493MOL0     N66437   4.927  11.423   0.812 -0.0090  0.0023  0.6555
  493MOL0     C66438   4.839  11.366   0.730  0.7780  0.4773  0.2514
  493MOL0     C66439   4.896  11.285   0.649 -0.3827  0.7288  0.6922
  493MOL0     C66440   4.830  11.230   0.524 -0.0577  0.2684 -0.7352
  493MOL0     C66441   4.842  11.331   0.407  0.8381 -0.4348  0.1401
  493MOL0     C66442   4.762  11.288   0.281 -0.3575  0.3346 -0.0411
  493MOL0     C66443   4.827  11.339   0.149 -0.3201 -0.1096  0.3602
  493MOL0     O66444   4.801  11.471   0.113  1.0186 -0.5319  0.5419
  493MOL0     C66445   4.813  11.522  -0.012  0.5603  0.5757 -0.2968
  493MOL0     C66446   4.796  11.665  -0.037  0.5535 -1.0609 -0.6512
  493MOL0     C66447   4.819  11.720  -0.163 -0.7025  0.0971  0.0877
  493MOL0     C66448   4.830  11.638  -0.275 -0.3887  0.2972  0.1284
  493MOL0     C66449   4.850  11.698  -0.407 -1.5351  0.0271  0.4632
  493MOL0     O66450   4.886  11.610  -0.507  0.4046  0.1515 -0.3922
  493MOL0     C66451   4.914  11.658  -0.633 -0.3005 -0.6482 -1.1523
  493MOL0     C66452   4.991  11.771  -0.658 -0.2832  0.4486  0.3803
  493MOL0     C66453   5.026  11.807  -0.789 -0.8835  0.6338 -0.8319
  493MOL0     C66454   5.005  11.722  -0.890 -0.9479 -0.3600 -0.1910
  493MOL0     O66455   5.048  11.759  -1.014  0.1771  1.2498  0.6100
  493MOL0     C66456   5.079  11.656  -1.114  0.7273  0.3916 -0.6276
  493MOL0     C66457   5.136  11.723  -1.236 -0.3235  0.1713 -1.2089
  493MOL0     C66458   5.034  11.798  -1.317  1.1152  0.0446  1.0962
  493MOL0     C66459   5.087  11.799  -1.465  1.5509 -0.7364 -0.9075
  493MOL0     C66460   5.029  11.920  -1.535 -1.1648  0.0729  0.3107
  493MOL0     C66461   5.076  11.901  -1.680 -0.3496  0.3174  0.1934
  493MOL0     C66462   5.070  12.031  -1.763  0.3805  0.4533  0.2823
  493MOL0     C66463   5.072  11.994  -1.910  0.4301  0.2528  0.5328
  493MOL0    Cl66464   5.128  12.137  -2.000 -0.0538 -0.0587  0.0632
  493MOL0     C66465   4.950  11.603  -0.867  0.2747 -0.4642  0.3581
  493MOL0     C66466   4.895  11.572  -0.738  0.1303 -0.3436 -0.1130
  493MOL0     O66467   4.829  11.819  -0.428 -0.5830 -0.2423 -0.5041
  493MOL0     C66468   4.829  11.496  -0.262 -0.1301 -0.5729 -0.1348
  493MOL0     C66469   4.821  11.436  -0.127  0.4309 -0.4685  0.5950
  493MOL0     N66470   5.024  11.267   0.699  1.0675  0.1289  0.7174
  493MOL0     N66471   5.045  11.356   0.791  0.0565  0.0761 -0.5773
  493MOL0     C66472   4.196  11.635   1.705 -0.1945 -0.3661 -0.4845
  493MOL0     C66473   4.097  11.576   1.787 -0.2193 -0.2014 -0.1525
  493MOL0     C66474   3.804  11.468   2.108  0.7792  0.9761 -0.5701
  493MOL0     C66475   3.688  11.399   2.075  0.6188 -0.2469  0.5199
  493MOL0     C66476   3.586  11.401   2.165  0.4389  0.3891  0.2696
  493MOL0     C66477   3.588  11.475   2.275  0.7512 -0.9476 -0.0551
  493MOL0     O66478   3.486  11.484   2.369  0.2934  0.1675 -0.5313
  493MOL0     C66479   3.355  11.420   2.332  0.4803  0.1852  0.1831
  493MOL0     C66480   3.351  11.304   2.429  0.5949  0.6464 -0.6164
  493MOL0     C66481   3.214  11.234   2.420  0.2587  0.1428  0.3495
  493MOL0     C66482   3.208  11.116   2.523 -0.9045  0.7250 -0.2813
  493MOL0     C66483   3.084  11.035   2.515 -0.4744 -0.2781 -0.2960
  493MOL0     C66484   2.980  10.961   2.506 -0.5845 -0.6998 -0.0264
  493MOL0     C66485   3.698  11.543   2.308  0.3346 -0.7446  0.2817
  493MOL0     C66486   3.806  11.548   2.222 -0.3643  0.6268 -0.3233
  493MOL0     C66487   3.931  11.617   2.278  0.9822 -0.1862  0.2766
  493MOL0     H66488   4.252  11.612   2.092  3.5201 -1.6353  0.8962
  493MOL0     H66489   4.436  11.694   1.953 -1.3287  0.6816  2.9169
  493MOL0     H66490   4.552  11.819   1.770 -2.0751 -1.0015  0.1370
  493MOL0     H66491   4.592  11.647   1.748 -1.9524 -0.7149  0.2248
  493MOL0     H66492   4.732  11.791   1.616  0.3372 -2.2034  0.8081
  493MOL0     H66493   4.606  11.842   1.509 -0.4653 -1.6210 -0.9498
  493MOL0     H66494   4.589  11.570   1.480 -2.0065  2.6298  0.6981
  493MOL0     H66495   4.742  11.583   1.561  0.1061  1.1137  0.9043
  493MOL0     H66496   4.640  11.730   1.312 -0.8688 -1.0014 -0.4560
  493MOL0     H66497   4.795  11.757   1.380 -1.5401  0.4611  2.6304
  493MOL0     H66498   4.849  11.496   1.295 -1.0530 -1.1936  1.1458
  493MOL0     H66499   4.684  11.487   1.257 -0.0238 -1.1939  4.4204
  493MOL0     H66500   4.718  11.678   1.096  0.3443  0.0952 -0.5818
  493MOL0     H66501   4.901  11.667   1.144  0.9349 -0.7086  0.8141
  493MOL0     H66502   4.726  11.472   1.001 -0.1431 -0.3070 -0.7557
  493MOL0     H66503   4.870  11.407   1.069  3.3860  0.8388 -0.5181
  493MOL0     H66504   4.851  11.613   0.843  1.1747  1.3756 -1.2242
  493MOL0     H66505   5.001  11.569   0.937 -0.4484 -0.0723 -0.8533
  493MOL0     H66506   4.734  11.391   0.721  0.7651 -0.0114 -1.4914
  493MOL0     H66507   4.871  11.134   0.494  1.4341  0.6822 -0.1127
  493MOL0     H66508   4.725  11.220   0.554  0.5355  1.6247  2.1730
  493MOL0     H66509   4.810  11.431   0.440 -2.5650 -0.7498 -1.7990
  493MOL0     H66510   4.948  11.339   0.379  0.9051 -1.7189 -0.0070
  493MOL0     H66511   4.655  11.312   0.289  0.2537  2.7208  2.2693
  493MOL0     H66512   4.766  11.179   0.274  0.2534  0.3027  0.6481
  493MOL0     H66513   4.778  11.281   0.070  0.5582  0.1617 -0.4065
  493MOL0     H66514   4.934  11.315   0.145 -0.4222 -0.3926 -1.6322
  493MOL0     H66515   4.778  11.725   0.052 -0.3901 -2.7994  0.3897
  493MOL0     H66516   4.827  11.828  -0.163  0.6783  0.0108 -0.3884
  493MOL0     H66517   5.009  11.845  -0.581 -1.3859  0.4675  0.6354
  493MOL0     H66518   5.067  11.903  -0.817 -2.0739  2.2933  2.5892
  493MOL0     H66519   5.158  11.592  -1.074  2.2817  2.7389  0.3078
  493MOL0     H66520   4.984  11.608  -1.139  0.0562  1.2082  0.2693
  493MOL0     H66521   5.208  11.795  -1.196  1.7458 -2.7315  0.6050
  493MOL0     H66522   5.188  11.645  -1.292 -1.2196  0.7165 -2.8799
  493MOL0     H66523   4.939  11.744  -1.313  2.3056 -2.1219  2.6274
  493MOL0     H66524   5.021  11.896  -1.271 -1.6821 -0.0668  0.7247
  493MOL0     H66525   5.045  11.707  -1.506 -4.2060  1.2936 -0.4610
  493MOL0     H66526   5.196  11.804  -1.473  1.4603 -1.4404 -4.7963
  493MOL0     H66527   5.065  12.017  -1.500 -0.3846 -0.1297  0.0896
  493MOL0     H66528   4.920  11.913  -1.523 -1.0989  0.1994  0.9842
  493MOL0     H66529   5.181  11.870  -1.690 -0.9651 -2.2382  0.8868
  493MOL0     H66530   5.026  11.822  -1.737  3.3255 -0.5482 -2.2130
  493MOL0     H66531   5.156  12.095  -1.740  0.2738 -0.6691  4.7451
  493MOL0     H66532   4.976  12.081  -1.739 -0.1602 -0.8719  1.0031
  493MOL0     H66533   5.135  11.907  -1.935 -1.7211 -0.7157 -1.9198
  493MOL0     H66534   4.969  11.971  -1.939  0.7622 -2.6206  1.2669
  493MOL0     H66535   4.915  11.549  -0.954 -0.4641  6.5848 -4.6232
  493MOL0     H66536   4.844  11.479  -0.718 -1.1754  0.5472  0.8595
  493MOL0     H66537   4.818  11.438  -0.353  0.6167 -0.1617 -0.4983
  493MOL0     H66538   4.825  11.329  -0.113 -2.5136 -0.2988  4.4490
  493MOL0     H66539   4.166  11.653   1.602 -3.1440  0.0467  0.3562
  493MOL0     H66540   3.997  11.563   1.747 -0.0834 -1.3049 -0.1798
  493MOL0     H66541   3.675  11.351   1.979 -2.0601  0.5508  0.4109
  493MOL0     H66542   3.508  11.329   2.141  3.7225 -3.8939  1.0516
  493MOL0     H66543   3.330  11.389   2.230  0.6263  0.5477  0.0356
  493MOL0     H66544   3.276  11.492   2.353 -1.5443 -1.9677  0.3315
  493MOL0     H66545   3.367  11.329   2.534  0.9735 -5.3749  1.0881
  493MOL0     H66546   3.432  11.235   2.407  0.0477  0.3770 -1.8675
  493MOL0     H66547   3.207  11.191   2.320  3.1905 -0.1694  0.2022
  493MOL0     H66548   3.130  11.300   2.443 -1.1057 -0.5915 -2.1154
  493MOL0     H66549   3.281  11.038   2.502 -1.2261  1.0162 -2.6888
  493MOL0     H66550   3.222  11.160   2.623 -0.6769 -0.5139  0.2545
  493MOL0     H66551   2.884  10.914   2.515 -1.1412  0.5911  1.3358
  493MOL0     H66552   3.687  11.589   2.406  1.7072 -1.2086  0.6764
  493MOL0     H66553   3.905  11.657   2.377  1.7503 -1.3016  0.9519
  493MOL0     H66554   4.020  11.555   2.290  0.9820  0.1499  2.4779
  493MOL0     H66555   3.966  11.696   2.211  1.7096 -0.7792 -0.0583
  494MOL0     O66556  11.389   2.421   6.920  1.0383  0.3921 -0.5345
  494MOL0     C66557  11.427   2.308   6.933 -1.1929 -0.4207  0.0142
  494MOL0     O66558  11.395   2.203   6.853 -0.0661 -0.7600 -0.4299
  494MOL0     C66559  11.330   2.218   6.731 -0.0394  0.2469 -0.8596
  494MOL0     C66560  11.238   2.111   6.710 -0.9417  0.2029  0.2525
  494MOL0     C66561  11.171   2.104   6.591 -0.1420  0.1632  0.8210
  494MOL0     C66562  11.173   2.200   6.494  0.3496 -0.6398 -0.7596
  494MOL0     O66563  11.066   2.186   6.404  0.1392 -0.7090 -0.4553
  494MOL0     C66564  11.047   2.307   6.321  0.1022  0.8718 -0.4099
  494MOL0     C66565  10.980   2.433   6.371 -0.2368  1.4454  0.3650
  494MOL0     C66566  10.835   2.416   6.400  0.7813  0.2762 -0.2363
  494MOL0     C66567  10.805   2.395   6.550 -0.4059  0.2228 -0.0336
  494MOL0     C66568  10.661   2.425   6.604  1.0150 -0.1481 -0.4371
  494MOL0     C66569  10.664   2.427   6.760 -0.6944  0.0187 -0.0489
  494MOL0     C66570  10.512   2.409   6.806 -0.8279  0.4900  0.7615
  494MOL0     C66571  10.485   2.375   6.950 -0.4721 -0.5609  0.4670
  494MOL0     N66572  10.340   2.363   6.973 -0.5086  0.2657  0.2874
  494MOL0     C66573  10.259   2.248   6.960 -0.4351 -0.1329  0.7290
  494MOL0     C66574  10.162   2.260   7.052  0.9266 -0.3442  0.0731
  494MOL0     C66575  10.060   2.149   7.059 -0.0142  0.1761 -0.3874
  494MOL0     C66576   9.921   2.184   7.011  0.7945 -0.0297 -0.1336
  494MOL0     C66577   9.821   2.073   7.055  0.1524  0.8923 -0.2163
  494MOL0     C66578   9.680   2.118   7.037  0.4730 -1.3959 -0.5974
  494MOL0     O66579   9.640   2.197   7.152 -0.1323 -0.1907  0.0532
  494MOL0     C66580   9.507   2.241   7.160 -1.3035  0.2116  0.3319
  494MOL0     C66581   9.464   2.325   7.261 -0.2428 -0.6179  0.1021
  494MOL0     C66582   9.334   2.377   7.258  0.9883  0.8012  0.5007
  494MOL0     C66583   9.243   2.353   7.154  0.0978  1.6053 -0.5621
  494MOL0     C66584   9.109   2.417   7.137  0.6343  0.2568 -0.9286
  494MOL0     O66585   9.066   2.489   7.240 -0.4811  0.2643 -0.4630
  494MOL0     C66586   8.943   2.528   7.253  0.4001 -0.6691  0.0168
  494MOL0     C66587   8.908   2.655   7.227 -0.8395 -0.3090 -0.2316
  494MOL0     C66588   8.785   2.702   7.255 -0.0760  0.0511 -0.7069
  494MOL0     C66589   8.694   2.623   7.329 -0.2725  0.2886 -0.4634
  494MOL0     O66590   8.561   2.651   7.359  0.2853  0.3383  0.2646
  494MOL0     C66591   8.519   2.785   7.346  0.5617  0.2246  0.4632
  494MOL0     C66592   8.369   2.787   7.374 -0.1304 -0.1046 -0.3206
  494MOL0     C66593   8.349   2.773   7.521  0.5794  0.8842  0.1013
  494MOL0     C66594   8.212   2.734   7.556 -0.9414  0.0217 -0.7234
  494MOL0     C66595   8.099   2.831   7.511 -0.8655  0.0833 -0.8954
  494MOL0     C66596   8.099   2.963   7.597 -0.0810 -0.2596 -0.1165
  494MOL0     C66597   8.196   3.066   7.527 -0.7043  0.6260  0.2458
  494MOL0     C66598   8.185   3.207   7.566  0.6122 -0.9255  0.5191
  494MOL0    Cl66599   8.325   3.308   7.494 -0.0843  0.3576 -0.5540
  494MOL0     C66600   8.727   2.493   7.361  0.3502  0.3150 -0.5672
  494MOL0     C66601   8.854   2.439   7.313 -0.2588 -0.3928  0.2730
  494MOL0     O66602   9.035   2.385   7.045 -0.5661 -0.6984  0.0356
  494MOL0     C66603   9.284   2.258   7.056  1.4642 -0.0715  0.1035
  494MOL0     C66604   9.415   2.210   7.059 -0.1615 -0.1202 -0.2016
  494MOL0     N66605  10.192   2.368   7.130  0.4092  0.0572 -0.8739
  494MOL0     N66606  10.300   2.429   7.084 -0.3144 -0.1694  0.0576
  494MOL0     C66607  11.257   2.314   6.524 -0.5230 -0.2115  0.7483
  494MOL0     C66608  11.338   2.320   6.641  0.5583 -0.2237  0.7079
  494MOL0     C66609  11.523   2.294   7.043 -0.1564 -0.1366  0.0951
  494MOL0     C66610  11.598   2.408   7.089 -0.3590  0.6055  0.2724
  494MOL0     C66611  11.698   2.402   7.193 -0.1553 -0.4337  0.9506
  494MOL0     C66612  11.725   2.278   7.253 -1.0037  0.5822  0.9106
  494MOL0     O66613  11.821   2.284   7.343 -0.4412  0.3781  0.0719
  494MOL0     C66614  11.902   2.160   7.369  0.4847  0.5600  0.0766
  494MOL0     C66615  12.015   2.181   7.467 -0.4335 -0.3817  0.3862
  494MOL0     C66616  12.094   2.050   7.497  0.4072  0.0331 -0.5717
  494MOL0     C66617  12.234   2.061   7.458  0.0358  0.0750 -0.6611
  494MOL0     C66618  12.262   2.051   7.316 -0.3600  0.5008 -0.0745
  494MOL0     C66619  12.291   2.028   7.199 -0.3116 -0.7234  0.2311
  494MOL0     C66620  11.664   2.163   7.203  0.4307 -0.7227  0.0445
  494MOL0     C66621  11.562   2.170   7.102 -0.6068 -0.4115 -0.2742
  494MOL0     C66622  11.517   2.030   7.069  0.0295  1.5291  0.8904
  494MOL0     H66623  11.242   2.043   6.794  4.2350  1.6689  1.5786
  494MOL0     H66624  11.102   2.021   6.578  2.4366 -2.1250  0.9367
  494MOL0     H66625  11.146   2.329   6.280  0.2844 -2.5880 -2.2407
  494MOL0     H66626  10.984   2.263   6.242 -0.5288 -1.0970  1.0922
  494MOL0     H66627  10.996   2.518   6.304 -2.3391  0.6757 -1.2400
  494MOL0     H66628  11.044   2.460   6.455  6.2873 -0.0696 -3.3845
  494MOL0     H66629  10.806   2.324   6.349 -1.2363  1.2043 -0.8837
  494MOL0     H66630  10.788   2.510   6.372  2.4507  2.2279  2.9240
  494MOL0     H66631  10.840   2.302   6.595  1.2026  0.3665 -0.8958
  494MOL0     H66632  10.861   2.470   6.607  3.0268 -1.7294 -0.5686
  494MOL0     H66633  10.622   2.524   6.578  2.2182  0.4504 -0.0110
  494MOL0     H66634  10.583   2.352   6.583 -1.2236  1.8814  0.2809
  494MOL0     H66635  10.710   2.332   6.788 -0.9463  0.3400  1.5625
  494MOL0     H66636  10.712   2.516   6.802 -0.7741  2.6950 -4.8750
  494MOL0     H66637  10.455   2.334   6.751  0.2522 -0.5553  1.0098
  494MOL0     H66638  10.474   2.505   6.769 -0.1820 -0.5341 -2.9943
  494MOL0     H66639  10.516   2.271   6.965  2.4256  0.2706  0.8059
  494MOL0     H66640  10.535   2.443   7.019 -1.3159 -1.7994  2.3895
  494MOL0     H66641  10.276   2.168   6.888  2.8913  2.5210 -1.8020
  494MOL0     H66642  10.100   2.064   7.004 -0.9974  0.2379 -1.2101
  494MOL0     H66643  10.046   2.122   7.164  1.9841 -0.1512 -0.1533
  494MOL0     H66644   9.893   2.276   7.063 -0.6200  0.4135 -1.5947
  494MOL0     H66645   9.924   2.205   6.904  0.8011  0.2804 -0.0723
  494MOL0     H66646   9.833   2.041   7.159  2.1921  0.1719 -0.6405
  494MOL0     H66647   9.835   1.982   6.997  2.5840  0.1519  1.4207
  494MOL0     H66648   9.623   2.025   7.028  1.0338 -1.8728  0.6377
  494MOL0     H66649   9.677   2.176   6.944 -0.8539  1.8172  1.2768
  494MOL0     H66650   9.531   2.340   7.345 -0.3950  2.7400 -0.2271
  494MOL0     H66651   9.305   2.446   7.336  0.0716  0.4054  0.5122
  494MOL0     H66652   8.978   2.728   7.187 -2.3306 -0.3401 -3.1082
  494MOL0     H66653   8.755   2.804   7.232  1.1264 -0.2854 -4.6166
  494MOL0     H66654   8.577   2.850   7.412  2.2185 -1.4903  0.7846
  494MOL0     H66655   8.525   2.832   7.247 -0.2329 -3.3740 -1.4518
  494MOL0     H66656   8.323   2.882   7.346 -0.4159  0.3326  1.5033
  494MOL0     H66657   8.325   2.702   7.321 -2.5571  0.0524  1.2720
  494MOL0     H66658   8.415   2.693   7.558  1.7215  0.9079 -1.7640
  494MOL0     H66659   8.383   2.863   7.574  3.0782 -0.1398  0.3825
  494MOL0     H66660   8.207   2.712   7.663 -0.4273  3.5148  0.1491
  494MOL0     H66661   8.192   2.641   7.503  1.0115 -0.3162 -0.9327
  494MOL0     H66662   8.006   2.773   7.517 -0.7414 -0.2233 -1.7951
  494MOL0     H66663   8.117   2.854   7.406  1.9951 -1.9504 -0.9745
  494MOL0     H66664   7.998   3.003   7.608  0.4980  1.4242 -0.7075
  494MOL0     H66665   8.121   2.930   7.699  0.3983  2.0556  0.5779
  494MOL0     H66666   8.172   3.053   7.421  1.7943 -1.2961 -0.1833
  494MOL0     H66667   8.300   3.047   7.556  0.2919  2.2322 -1.9102
  494MOL0     H66668   8.084   3.238   7.536 -1.7341 -3.8154  4.5043
  494MOL0     H66669   8.182   3.210   7.675  0.4936 -1.2526  0.5256
  494MOL0     H66670   8.651   2.431   7.408 -0.6541  1.0157 -1.2409
  494MOL0     H66671   8.887   2.338   7.333 -0.2380 -0.9282 -2.2044
  494MOL0     H66672   9.228   2.219   6.971  0.6642  1.8859 -0.3379
  494MOL0     H66673   9.429   2.140   6.977  0.9074 -0.4063  0.2107
  494MOL0     H66674  11.252   2.389   6.446 -2.5238  0.6176  1.6138
  494MOL0     H66675  11.397   2.409   6.659 -0.1696  0.6982 -1.1737
  494MOL0     H66676  11.581   2.505   7.045 -1.9724 -0.1090 -0.8033
  494MOL0     H66677  11.748   2.497   7.214  1.2366 -0.1951 -2.7809
  494MOL0     H66678  11.953   2.132   7.277  0.9732  1.3684  0.0956
  494MOL0     H66679  11.839   2.077   7.404  1.6329 -0.5829 -0.5043
  494MOL0     H66680  11.968   2.221   7.558 -0.8617  2.1574 -0.8622
  494MOL0     H66681  12.087   2.256   7.432  1.9262 -3.0327 -0.7793
  494MOL0     H66682  12.048   1.966   7.444  0.8445 -0.2174 -0.5581
  494MOL0     H66683  12.084   2.030   7.605  2.9313 -1.7077 -0.5801
  494MOL0     H66684  12.282   2.150   7.501  2.9424 -0.2780 -2.8778
  494MOL0     H66685  12.280   1.976   7.509 -0.6026  0.4577  0.6063
  494MOL0     H66686  12.317   2.002   7.098  1.0839 -0.5103  0.5119
  494MOL0     H66687  11.688   2.069   7.251  3.2493  0.7887  1.8985
  494MOL0     H66688  11.410   2.032   7.045  0.5968 -0.1986 -2.3422
  494MOL0     H66689  11.579   1.987   6.990 -3.1230  1.1862 -1.5785
  494MOL0     H66690  11.539   1.970   7.158  1.1250  0.9424  0.2456
  495MOL0     O66691   2.301   7.797  10.572 -0.1054 -0.5343  0.4679
  495MOL0     C66692   2.316   7.917  10.556 -0.9866  0.1929  0.7642
  495MOL0     O66693   2.431   7.985  10.561  0.2398  0.1785 -0.1024
  495MOL0     C66694   2.544   7.914  10.569 -0.3172  0.9890 -0.5778
  495MOL0     C66695   2.585   7.838  10.682 -0.3178  0.2389  0.2905
  495MOL0     C66696   2.714   7.773  10.685  0.5852  0.2211  0.6186
  495MOL0     C66697   2.802   7.788  10.574  1.0501  0.0114  0.0676
  495MOL0     O66698   2.914   7.710  10.583 -0.3944 -1.0191 -0.2283
  495MOL0     C66699   2.997   7.691  10.472 -0.0912 -0.0368  0.1140
  495MOL0     C66700   3.094   7.807  10.457  0.2639  0.4882 -0.0884
  495MOL0     C66701   3.209   7.788  10.354 -0.2266 -0.5499 -0.2968
  495MOL0     C66702   3.300   7.679  10.393 -0.3260  1.3293 -0.7567
  495MOL0     C66703   3.412   7.653  10.294 -0.0990 -0.7560 -0.2830
  495MOL0     C66704   3.497   7.540  10.344 -0.3697  0.3452  0.0829
  495MOL0     C66705   3.634   7.528  10.274  1.3233 -0.3266  0.2159
  495MOL0     C66706   3.625   7.530  10.126  0.9500 -0.9519 -0.4900
  495MOL0     N66707   3.545   7.424  10.069  0.0509  0.1049  0.0081
  495MOL0     C66708   3.509   7.306  10.129  0.0964  0.0580  0.0831
  495MOL0     C66709   3.430   7.247  10.035  0.5556  0.0717  0.7186
  495MOL0     C66710   3.355   7.116  10.030  0.6284 -0.4162  0.2876
  495MOL0     C66711   3.438   7.001   9.970  1.1852  0.0016 -0.1525
  495MOL0     C66712   3.464   7.024   9.821  0.5810 -0.4822  0.6444
  495MOL0     C66713   3.426   6.899   9.745 -0.5465  1.0216 -1.2338
  495MOL0     O66714   3.511   6.790   9.759 -0.1170  0.2975 -0.5082
  495MOL0     C66715   3.469   6.677   9.684 -0.4768 -0.3128  0.6189
  495MOL0     C66716   3.561   6.568   9.705  0.3231  0.9421 -0.2896
  495MOL0     C66717   3.544   6.456   9.632  0.5597  0.2514  1.0194
  495MOL0     C66718   3.440   6.428   9.544  0.5445  0.3376 -0.4914
  495MOL0     C66719   3.424   6.306   9.457  0.3721 -0.4123  1.0116
  495MOL0     O66720   3.540   6.254   9.413 -0.0662  0.0695  0.7103
  495MOL0     C66721   3.521   6.147   9.338 -0.8614  1.0052 -0.1020
  495MOL0     C66722   3.557   6.150   9.202  0.0969  0.3291 -0.5042
  495MOL0     C66723   3.530   6.038   9.123 -0.7393 -0.0184 -0.1087
  495MOL0     C66724   3.474   5.918   9.175 -0.6057 -0.2560  0.6083
  495MOL0     O66725   3.434   5.817   9.098 -0.4555  0.1491  0.1373
  495MOL0     C66726   3.523   5.801   8.977  0.4803  0.1925 -0.5527
  495MOL0     C66727   3.459   5.678   8.894  0.4670  0.3664 -0.6381
  495MOL0     C66728   3.326   5.689   8.812  0.2373  0.2871 -1.2500
  495MOL0     C66729   3.319   5.758   8.677 -0.6019  0.2647 -0.7652
  495MOL0     C66730   3.182   5.772   8.619  0.7605  0.3128 -0.0938
  495MOL0     C66731   3.176   5.867   8.503 -0.4276 -0.3205  0.1269
  495MOL0     C66732   3.033   5.919   8.496  0.2194 -0.3210  0.7853
  495MOL0     C66733   3.031   6.064   8.434  0.0076 -0.7560  0.3858
  495MOL0    Cl66734   2.868   6.086   8.387 -0.1216 -0.5625 -0.0157
  495MOL0     C66735   3.442   5.921   9.307  0.0801  1.0027 -0.3246
  495MOL0     C66736   3.465   6.031   9.386  0.7480  0.1439  0.6766
  495MOL0     O66737   3.305   6.279   9.426  0.1985 -0.5392 -0.3291
  495MOL0     C66738   3.344   6.535   9.536  0.6217  0.3044  0.6035
  495MOL0     C66739   3.353   6.657   9.610  0.1056  0.0263  0.4637
  495MOL0     N66740   3.426   7.331   9.924 -0.4602 -0.3315 -0.2026
  495MOL0     N66741   3.496   7.434   9.945 -0.1412  0.2056 -0.3516
  495MOL0     C66742   2.754   7.859  10.457  0.4499 -1.0951 -0.1144
  495MOL0     C66743   2.628   7.916  10.460  0.4106 -0.7120 -0.5517
  495MOL0     C66744   2.193   8.002  10.533  0.0256  0.3236  0.3074
  495MOL0     C66745   2.217   8.139  10.545 -0.1455 -1.1942  0.1035
  495MOL0     C66746   2.110   8.227  10.520 -0.0455 -0.0917  0.8661
  495MOL0     C66747   1.985   8.188  10.457  0.2789  0.1203 -0.1005
  495MOL0     O66748   1.872   8.275  10.442 -0.6404 -0.1104  0.2824
  495MOL0     C66749   1.910   8.387  10.373 -0.8094 -0.3223 -0.3090
  495MOL0     C66750   1.793   8.477  10.322  0.2878 -0.2724  0.5514
  495MOL0     C66751   1.849   8.587  10.221 -0.8521  0.7226 -0.4016
  495MOL0     C66752   1.743   8.689  10.176 -0.4095  0.0228  0.5958
  495MOL0     C66753   1.664   8.645  10.063 -0.9847  0.6536 -0.2430
  495MOL0     C66754   1.611   8.612   9.956  0.4879 -0.1688  0.1842
  495MOL0     C66755   1.967   8.047  10.450 -0.5671 -0.8138 -0.4541
  495MOL0     C66756   2.061   7.955  10.492 -0.0870  0.3631  1.2606
  495MOL0     C66757   2.015   7.814  10.473 -0.6864  0.1005  0.5655
  495MOL0     H66758   2.510   7.827  10.759 -0.5183  0.4629  0.1276
  495MOL0     H66759   2.736   7.709  10.770 -0.7457  3.1233  3.3594
  495MOL0     H66760   3.055   7.599  10.484 -0.3489 -0.4904 -1.7362
  495MOL0     H66761   2.928   7.672  10.389  0.9378 -3.1821 -0.1513
  495MOL0     H66762   3.138   7.837  10.553 -1.7636  0.9170  0.7554
  495MOL0     H66763   3.024   7.883  10.423  0.5808  0.1873 -1.4450
  495MOL0     H66764   3.262   7.884  10.352 -1.1715  0.0075 -3.0993
  495MOL0     H66765   3.160   7.760  10.260  0.3117 -3.4361  0.2053
  495MOL0     H66766   3.345   7.700  10.490 -1.7787 -1.5855  0.6626
  495MOL0     H66767   3.236   7.591  10.407  1.8400  0.0377  1.8656
  495MOL0     H66768   3.377   7.615  10.198 -0.3811 -4.0580  1.0048
  495MOL0     H66769   3.457   7.751  10.279 -0.8243  0.1082  2.6336
  495MOL0     H66770   3.516   7.552  10.451 -0.3355 -2.5511  0.4837
  495MOL0     H66771   3.444   7.445  10.333 -0.0128 -0.0164  1.2860
  495MOL0     H66772   3.675   7.438  10.321 -0.1057 -0.1019  1.9775
  495MOL0     H66773   3.689   7.616  10.307 -0.9690  1.4511 -0.4968
  495MOL0     H66774   3.583   7.625  10.093  0.9971 -1.4217 -2.0201
  495MOL0     H66775   3.725   7.528  10.081  1.4798 -0.0602  0.5945
  495MOL0     H66776   3.519   7.265  10.229 -0.7866 -0.6958 -0.1228
  495MOL0     H66777   3.318   7.085  10.128  0.7853 -0.3894  0.3547
  495MOL0     H66778   3.265   7.136   9.970 -0.6504 -0.3411  2.1359
  495MOL0     H66779   3.531   6.989  10.025  1.1306 -0.8285 -0.2249
  495MOL0     H66780   3.384   6.907   9.986  1.0861 -0.1829 -1.4486
  495MOL0     H66781   3.567   7.055   9.802  0.6814 -0.7993  0.6669
  495MOL0     H66782   3.391   7.101   9.794 -0.5870 -2.1663 -1.3197
  495MOL0     H66783   3.410   6.933   9.642  0.5822  0.1615 -1.7240
  495MOL0     H66784   3.335   6.853   9.783  2.9788 -4.1060  2.1696
  495MOL0     H66785   3.640   6.583   9.779 -0.0555  1.7678 -0.0367
  495MOL0     H66786   3.622   6.380   9.633  0.7173  0.4125  0.8786
  495MOL0     H66787   3.612   6.236   9.165  5.5684 -1.9339  1.3288
  495MOL0     H66788   3.565   6.055   9.021  2.2771  2.7438  1.1826
  495MOL0     H66789   3.518   5.890   8.913  1.2033 -0.8425 -2.1189
  495MOL0     H66790   3.624   5.781   9.014  0.1065  0.0355  0.4074
  495MOL0     H66791   3.535   5.653   8.819  1.3346  0.1549  0.2902
  495MOL0     H66792   3.461   5.588   8.956 -0.0705 -1.5627 -3.2504
  495MOL0     H66793   3.285   5.588   8.799 -2.4172  0.4683  3.5410
  495MOL0     H66794   3.270   5.746   8.887  1.9799 -2.1299  2.1640
  495MOL0     H66795   3.385   5.692   8.620 -0.8986 -2.1696  1.4841
  495MOL0     H66796   3.365   5.855   8.692 -0.7254  0.3230 -0.7548
  495MOL0     H66797   3.128   5.821   8.700  3.2179  0.6402  1.4358
  495MOL0     H66798   3.139   5.674   8.596  1.8041  0.1765 -1.6420
  495MOL0     H66799   3.254   5.942   8.516 -1.4423  0.8787 -0.5329
  495MOL0     H66800   3.190   5.799   8.418  2.1680 -2.5991  2.1616
  495MOL0     H66801   2.974   5.932   8.588 -1.3448 -0.2256 -0.1916
  495MOL0     H66802   2.978   5.846   8.436  1.0977 -0.6934  0.4154
  495MOL0     H66803   3.067   6.127   8.516  2.4726 -1.3415 -0.1665
  495MOL0     H66804   3.099   6.074   8.350 -0.5507  1.6081  0.1492
  495MOL0     H66805   3.390   5.836   9.350  2.0776 -0.7431 -1.1256
  495MOL0     H66806   3.441   6.023   9.491 -0.0131 -3.4697  0.3360
  495MOL0     H66807   3.254   6.509   9.480  1.2202  1.3472 -0.9216
  495MOL0     H66808   3.275   6.732   9.612 -0.3600 -0.1295 -3.6174
  495MOL0     H66809   2.813   7.864  10.367 -1.1692  1.4876 -1.1218
  495MOL0     H66810   2.588   7.967  10.373 -1.6291  0.9429  1.2730
  495MOL0     H66811   2.312   8.178  10.579  0.6914 -0.6209 -2.6234
  495MOL0     H66812   2.144   8.331  10.517  2.0431 -0.7326  0.2019
  495MOL0     H66813   1.971   8.350  10.289 -0.8936 -0.3506 -0.3580
  495MOL0     H66814   1.971   8.456  10.432  1.3299 -1.2517 -1.3322
  495MOL0     H66815   1.752   8.530  10.408 -0.9164 -0.0017 -0.1636
  495MOL0     H66816   1.714   8.415  10.278 -0.5381  2.1896 -1.7091
  495MOL0     H66817   1.898   8.545  10.133 -0.4871  0.9027 -0.2868
  495MOL0     H66818   1.935   8.639  10.265 -0.2339 -0.3729 -0.2886
  495MOL0     H66819   1.668   8.708  10.254  0.0762 -1.3976  1.4523
  495MOL0     H66820   1.797   8.780  10.149  2.5549 -1.8371 -0.0776
  495MOL0     H66821   1.570   8.580   9.862 -0.9368 -0.0912  0.7532
  495MOL0     H66822   1.869   8.018  10.416 -0.9651  0.2077 -0.2037
  495MOL0     H66823   2.074   7.772  10.391  0.7835  0.6229  1.3177
  495MOL0     H66824   2.046   7.756  10.561  1.6922  2.9849  1.7993
  495MOL0     H66825   1.909   7.796  10.449  0.2452 -1.6666 -2.9609
  496MOL0     O66826  10.029  11.224  11.121 -0.7105 -0.2008  0.2191
  496MOL0     C66827  10.081  11.297  11.208 -0.8534  0.1920 -0.7862
  496MOL0     O66828  10.096  11.265  11.346 -0.4221  0.0099  0.3998
  496MOL0     C66829  10.001  11.186  11.407 -0.4397 -0.0022 -0.3143
  496MOL0     C66830  10.018  11.047  11.443 -0.2519 -0.5742 -1.2008
  496MOL0     C66831   9.920  10.975  11.509 -0.2927  0.7689 -0.9050
  496MOL0     C66832   9.795  11.033  11.536 -0.1970  0.5634  0.0513
  496MOL0     O66833   9.687  10.972  11.595 -0.7918  0.8363 -0.6085
  496MOL0     C66834   9.713  10.834  11.634 -0.2540 -1.1636 -1.0702
  496MOL0     C66835   9.586  10.771  11.686  0.0981 -0.2332  0.7587
  496MOL0     C66836   9.620  10.625  11.726 -0.5104 -0.2267 -0.1986
  496MOL0     C66837   9.508  10.575  11.832 -0.1084 -0.0715  0.3138
  496MOL0     C66838   9.399  10.498  11.754  0.2866 -0.4884 -1.0006
  496MOL0     C66839   9.322  10.416  11.862 -0.7318 -0.4145 -0.2826
  496MOL0     C66840   9.215  10.327  11.813 -0.1974 -0.0764 -0.4302
  496MOL0     C66841   9.240  10.230  11.703  0.0051  0.3724  0.7283
  496MOL0     N66842   9.325  10.117  11.733 -0.3135  0.2350  0.1303
  496MOL0     C66843   9.304  10.025  11.839  0.1060  0.1135 -1.4457
  496MOL0     C66844   9.406   9.947  11.832  0.1147 -0.6237 -0.2276
  496MOL0     C66845   9.444   9.836  11.924  0.1033  0.2406 -0.1734
  496MOL0     C66846   9.374   9.714  11.870 -1.6870  0.1263 -0.9867
  496MOL0     C66847   9.420   9.601  11.956  0.0427  0.0688 -0.2922
  496MOL0     C66848   9.360   9.478  11.896  0.0411 -0.4898  0.0401
  496MOL0     O66849   9.411   9.441  11.768  0.1688  0.2812  0.9784
  496MOL0     C66850   9.498   9.334  11.761 -0.5365  0.0571  0.5822
  496MOL0     C66851   9.551   9.320  11.635  0.0011  0.3090 -0.2093
  496MOL0     C66852   9.647   9.217  11.608  0.4985  0.3946  0.2798
  496MOL0     C66853   9.693   9.126  11.698 -0.7642 -0.4991  0.0482
  496MOL0     C66854   9.816   9.048  11.680  0.5708  0.5802 -0.1935
  496MOL0     O66855   9.854   8.980  11.782 -0.6491 -0.4895 -0.5532
  496MOL0     C66856   9.959   8.889  11.769 -0.0137 -0.7204 -0.7099
  496MOL0     C66857   9.928   8.766  11.721 -0.3594  0.0753  0.8967
  496MOL0     C66858  10.025   8.659  11.714 -0.6336 -0.4126  0.0674
  496MOL0     C66859  10.157   8.691  11.748  0.0132  0.6347 -0.2931
  496MOL0     O66860  10.249   8.591  11.730 -0.2890 -0.5188  0.5498
  496MOL0     C66861  10.262   8.492  11.826 -0.2734  0.7216 -0.2991
  496MOL0     C66862  10.388   8.498  11.907 -0.8514  0.4736 -0.0194
  496MOL0     C66863  10.372   8.407  12.037  0.2832  0.1988 -1.3869
  496MOL0     C66864  10.493   8.419  12.136  0.6035 -0.1420 -0.2502
  496MOL0     C66865  10.632   8.392  12.074  0.2636 -1.3267  0.2974
  496MOL0     C66866  10.646   8.261  11.983  0.3586  0.6152  0.4591
  496MOL0     C66867  10.623   8.133  12.062 -0.4623  0.3503  0.9168
  496MOL0     C66868  10.697   8.021  11.994  0.9896 -0.9097 -1.3626
  496MOL0    Cl66869  10.729   7.890  12.120  0.5872  0.3660 -0.4095
  496MOL0     C66870  10.184   8.817  11.806 -0.5230  1.2710 -0.1140
  496MOL0     C66871  10.091   8.914  11.826 -0.3237  0.8171 -1.1342
  496MOL0     O66872   9.873   9.042  11.572  0.4846  0.2159  0.0992
  496MOL0     C66873   9.647   9.154  11.825 -0.1598 -0.9764 -0.9558
  496MOL0     C66874   9.551   9.251  11.862 -0.5492 -0.8854 -0.7435
  496MOL0     N66875   9.485   9.984  11.721  0.6173 -0.0421  0.5739
  496MOL0     N66876   9.440  10.079  11.665 -0.2977  0.2256  0.7222
  496MOL0     C66877   9.777  11.171  11.495  0.3292  0.9050  0.0625
  496MOL0     C66878   9.874  11.250  11.434  0.1037 -0.0766  0.1656
  496MOL0     C66879  10.127  11.436  11.168  0.0325  0.4342 -0.0681
  496MOL0     C66880  10.126  11.533  11.272  0.1322  0.4462  0.4637
  496MOL0     C66881  10.133  11.672  11.243 -0.5801 -0.4318  1.1206
  496MOL0     C66882  10.170  11.711  11.109  0.2490 -0.6123 -1.2744
  496MOL0     O66883  10.180  11.844  11.089 -0.3117  0.0993  0.3494
  496MOL0     C66884  10.270  11.889  10.990  0.3605  1.0769 -0.1889
  496MOL0     C66885  10.360  11.996  11.031  0.3814  0.6345 -0.5929
  496MOL0     C66886  10.472  12.009  10.937  0.2729 -0.4395  0.3560
  496MOL0     C66887  10.557  12.137  10.978  0.9063  1.2799 -0.5139
  496MOL0     C66888  10.676  12.135  10.902 -0.9221  1.0081  1.1041
  496MOL0     C66889  10.778  12.135  10.832 -0.2647  0.4440  0.3177
  496MOL0     C66890  10.186  11.613  11.017  0.9433 -0.5714  0.1372
  496MOL0     C66891  10.155  11.483  11.038 -0.5656  0.3731  0.3713
  496MOL0     C66892  10.143  11.400  10.915  0.4347 -0.0692  0.1074
  496MOL0     H66893  10.113  10.996  11.434  1.9176  2.2647  2.5826
  496MOL0     H66894   9.930  10.870  11.535  0.2334  1.0677  0.1680
  496MOL0     H66895   9.762  10.772  11.559  2.4999 -0.5884  0.1270
  496MOL0     H66896   9.790  10.841  11.713 -0.7341  1.7721 -0.7291
  496MOL0     H66897   9.520  10.758  11.600  1.1573 -0.0525 -0.1052
  496MOL0     H66898   9.540  10.824  11.770  2.3684  0.7458  1.4697
  496MOL0     H66899   9.723  10.615  11.764 -0.1574  2.7848 -0.0731
  496MOL0     H66900   9.613  10.568  11.633  2.7737 -0.4814 -0.4325
  496MOL0     H66901   9.555  10.496  11.890 -2.6425 -2.2890 -0.4624
  496MOL0     H66902   9.474  10.663  11.888  2.0911  0.8393  0.3057
  496MOL0     H66903   9.335  10.561  11.693  0.7057 -0.2412 -1.1861
  496MOL0     H66904   9.446  10.421  11.692 -0.3521  0.2501 -2.4421
  496MOL0     H66905   9.401  10.367  11.920  1.1156  1.5629 -1.0285
  496MOL0     H66906   9.279  10.490  11.930 -1.7149 -2.3628  1.3304
  496MOL0     H66907   9.143  10.394  11.766 -0.4354 -0.1378 -0.1605
  496MOL0     H66908   9.162  10.274  11.893 -2.8416 -0.2913 -2.1953
  496MOL0     H66909   9.146  10.191  11.663  0.7517  1.0219 -1.7914
  496MOL0     H66910   9.280  10.290  11.621  1.1828 -0.1711  0.8838
  496MOL0     H66911   9.232  10.027  11.920  3.1984 -0.3894  1.5550
  496MOL0     H66912   9.553   9.825  11.924  0.2348  1.2171  1.2013
  496MOL0     H66913   9.419   9.859  12.028  1.1647 -5.0725  1.5817
  496MOL0     H66914   9.265   9.726  11.869 -1.9871 -1.9089 -3.3670
  496MOL0     H66915   9.407   9.690  11.768 -0.8839  0.3940 -0.7914
  496MOL0     H66916   9.369   9.609  12.053  0.1884  0.9019 -0.2759
  496MOL0     H66917   9.528   9.580  11.963 -0.1028 -0.2063  2.1106
  496MOL0     H66918   9.254   9.495  11.880  0.3452  1.5193 -0.1640
  496MOL0     H66919   9.362   9.394  11.965  0.0597 -1.6849 -1.3815
  496MOL0     H66920   9.525   9.401  11.567  0.3651  0.2295 -0.4483
  496MOL0     H66921   9.693   9.222  11.510 -0.3956  0.1224 -0.1617
  496MOL0     H66922   9.829   8.744  11.682 -0.1814 -1.5795  1.2897
  496MOL0     H66923   9.994   8.560  11.682 -0.7087 -0.0068 -1.1751
  496MOL0     H66924  10.182   8.492  11.901  0.2831  0.5759  0.2953
  496MOL0     H66925  10.263   8.391  11.785 -0.1741 -0.9756  3.4864
  496MOL0     H66926  10.462   8.445  11.845 -2.2303 -2.5723  0.7399
  496MOL0     H66927  10.427   8.593  11.944 -0.5577 -0.3667  1.9495
  496MOL0     H66928  10.282   8.430  12.094 -0.0963  0.7118 -2.1756
  496MOL0     H66929  10.352   8.303  12.008 -5.3918  0.8288 -0.8605
  496MOL0     H66930  10.482   8.355  12.223  0.8741  2.4330  1.8158
  496MOL0     H66931  10.497   8.517  12.185 -0.8419 -0.5816  0.8047
  496MOL0     H66932  10.710   8.390  12.150  1.8065 -1.4507 -1.2264
  496MOL0     H66933  10.652   8.478  12.010  0.7274 -1.4482  0.2736
  496MOL0     H66934  10.587   8.264  11.891  2.5829  1.5819 -1.0019
  496MOL0     H66935  10.750   8.268  11.952 -0.2735  2.4794 -1.5046
  496MOL0     H66936  10.516   8.109  12.067 -0.7384  0.7762 -1.6374
  496MOL0     H66937  10.665   8.151  12.161 -0.5793 -0.8169  1.1922
  496MOL0     H66938  10.632   7.986  11.913  0.0270  0.4523 -1.2193
  496MOL0     H66939  10.794   8.049  11.953  1.0966  0.4436 -0.2348
  496MOL0     H66940  10.280   8.827  11.855  0.3281 -1.3302 -1.0677
  496MOL0     H66941  10.113   8.999  11.889 -3.0640  0.3794  0.5445
  496MOL0     H66942   9.686   9.093  11.906 -0.5964 -1.6350 -1.2371
  496MOL0     H66943   9.521   9.255  11.966 -0.2327 -3.2859 -0.5036
  496MOL0     H66944   9.684  11.223  11.516 -1.8674 -2.4954 -0.4287
  496MOL0     H66945   9.847  11.353  11.414  2.5935  1.0497  2.0753
  496MOL0     H66946  10.111  11.496  11.373  1.8789 -0.3078  0.4913
  496MOL0     H66947  10.118  11.747  11.320  1.1796  2.6359 -1.2910
  496MOL0     H66948  10.202  11.922  10.911 -1.6785 -4.6403 -1.2405
  496MOL0     H66949  10.315  11.807  10.935 -2.4767 -0.2314 -0.7646
  496MOL0     H66950  10.402  11.968  11.128 -0.2338  2.0672  0.1112
  496MOL0     H66951  10.307  12.092  11.033  0.3876  0.6274  0.2039
  496MOL0     H66952  10.439  12.023  10.834 -0.7257 -1.5343  0.5009
  496MOL0     H66953  10.517  11.911  10.952  1.0861  0.2166  2.6201
  496MOL0     H66954  10.485  12.217  10.959 -3.2408 -2.1496 -0.9025
  496MOL0     H66955  10.585  12.141  11.084  5.0107 -0.3469 -1.3549
  496MOL0     H66956  10.856  12.127  10.759 -2.2329 -0.7088 -1.7778
  496MOL0     H66957  10.210  11.633  10.913  1.7031 -1.8445  0.0528
  496MOL0     H66958  10.037  11.374  10.908 -0.8648  4.3257  0.2576
  496MOL0     H66959  10.183  11.455  10.830  1.0601 -1.0606 -0.2589
  496MOL0     H66960  10.203  11.310  10.930  1.9119  1.1882  2.3575
  497MOL0     O66961  10.601   0.772   4.034 -0.4934  0.8370 -0.1459
  497MOL0     C66962  10.590   0.862   4.122  0.1622  0.2092  0.4947
  497MOL0     O66963  10.559   0.842   4.254 -0.4614  0.1794  0.6798
  497MOL0     C66964  10.576   0.719   4.321 -0.5070 -0.4364  0.1283
  497MOL0     C66965  10.643   0.597   4.284 -0.8373 -0.5427  0.8888
  497MOL0     C66966  10.668   0.501   4.379 -0.2459 -0.2468 -0.2655
  497MOL0     C66967  10.611   0.496   4.513 -0.9247  0.6389  0.5315
  497MOL0     O66968  10.645   0.394   4.598 -0.3000 -0.5446  0.6463
  497MOL0     C66969  10.645   0.262   4.546  0.2954 -0.6045 -0.5315
  497MOL0     C66970  10.633   0.167   4.662  0.1563  0.6799 -0.6709
  497MOL0     C66971  10.587   0.029   4.613  0.6878 -0.0758  0.5874
  497MOL0     C66972  10.549  -0.066   4.731 -0.3963  0.6024  0.2051
  497MOL0     C66973  10.508  -0.203   4.671 -0.1074  0.9316  0.3923
  497MOL0     C66974  10.621  -0.295   4.630  0.1835 -0.6440  0.1805
  497MOL0     C66975  10.577  -0.447   4.611  0.3273 -0.8361  0.2333
  497MOL0     C66976  10.464  -0.489   4.508  0.6515  0.8513 -0.4055
  497MOL0     N66977  10.438  -0.633   4.528  0.1795 -0.8330  0.0753
  497MOL0     C66978  10.319  -0.677   4.595 -0.6590 -0.4240  0.4733
  497MOL0     C66979  10.328  -0.812   4.599 -0.2245  0.1569  0.9407
  497MOL0     C66980  10.229  -0.892   4.681  0.1017 -0.7170 -0.1659
  497MOL0     C66981  10.291  -0.958   4.804 -0.3366  0.0574 -0.6824
  497MOL0     C66982  10.392  -0.868   4.877  0.4965  0.5146 -1.0258
  497MOL0     C66983  10.449  -0.933   4.996  0.2394 -0.8689 -0.4472
  497MOL0     O66984  10.551  -1.029   4.949 -0.0172 -0.1234  0.5716
  497MOL0     C66985  10.653  -1.079   5.040  0.4938 -1.1137 -0.2466
  497MOL0     C66986  10.675  -1.028   5.174 -0.1940 -0.2519  0.2306
  497MOL0     C66987  10.784  -1.081   5.245 -0.0371 -0.3034 -0.9655
  497MOL0     C66988  10.864  -1.189   5.191 -0.5241 -0.8734 -0.4711
  497MOL0     C66989  10.978  -1.246   5.266 -1.2456 -0.8024  0.9330
  497MOL0     O66990  11.038  -1.362   5.218  0.0802 -0.2020  0.0617
  497MOL0     C66991  11.165  -1.399   5.266 -0.7868  0.7854  0.9134
  497MOL0     C66992  11.274  -1.311   5.258  0.5847  0.1613 -0.7894
  497MOL0     C66993  11.403  -1.352   5.305 -0.8659  0.5154 -0.0760
  497MOL0     C66994  11.428  -1.491   5.355 -0.0171 -0.9386 -0.3560
  497MOL0     O66995  11.559  -1.520   5.384  0.8036  0.4725 -0.4726
  497MOL0     C66996  11.569  -1.643   5.457 -0.4052  0.0929  0.1393
  497MOL0     C66997  11.690  -1.647   5.555  0.5334  0.3350  0.4126
  497MOL0     C66998  11.694  -1.535   5.661 -0.4179  1.2775  0.0869
  497MOL0     C66999  11.615  -1.556   5.785 -0.3213  0.4764  0.5082
  497MOL0     C67000  11.650  -1.455   5.900  0.1869 -0.3582 -0.2588
  497MOL0     C67001  11.560  -1.322   5.898  0.8898 -0.4350  0.7646
  497MOL0     C67002  11.613  -1.222   6.003  0.1015  0.5931 -0.2730
  497MOL0     C67003  11.515  -1.118   6.038 -0.3778 -0.0192 -0.3688
  497MOL0    Cl67004  11.581  -1.000   6.166  0.1443 -0.0680  0.0361
  497MOL0     C67005  11.316  -1.575   5.347  0.1020  0.2036 -0.7409
  497MOL0     C67006  11.194  -1.532   5.301  0.2656  0.7533  0.0853
  497MOL0     O67007  11.016  -1.182   5.363  0.5945 -0.4797  0.8111
  497MOL0     C67008  10.848  -1.232   5.060  0.3987 -1.0336  0.3450
  497MOL0     C67009  10.741  -1.178   4.991 -0.4950  0.5801  1.1581
  497MOL0     N67010  10.431  -0.844   4.511  0.1971 -0.3143 -0.7638
  497MOL0     N67011  10.499  -0.745   4.478  0.3727  0.1058 -0.8996
  497MOL0     C67012  10.533   0.602   4.546 -0.4654 -1.4637  0.8033
  497MOL0     C67013  10.522   0.713   4.450  0.1037  0.2691  0.6764
  497MOL0     C67014  10.599   1.008   4.078  0.9896  0.5057 -0.2868
  497MOL0     C67015  10.570   1.105   4.180 -0.2571 -0.0365 -0.1061
  497MOL0     C67016  10.572   1.240   4.148  0.4920  0.4393  1.0317
  497MOL0     C67017  10.578   1.278   4.022  0.2056 -1.1940  1.2433
  497MOL0     O67018  10.576   1.408   3.981 -0.0448  0.0882 -0.2816
  497MOL0     C67019  10.578   1.520   4.074 -0.0808  0.3510 -0.4281
  497MOL0     C67020  10.504   1.645   4.007 -0.3756  0.4971  0.4574
  497MOL0     C67021  10.504   1.773   4.095 -0.4642  0.0372  0.1815
  497MOL0     C67022  10.423   1.890   4.036 -0.2755 -0.5132 -1.0901
  497MOL0     C67023  10.480   1.943   3.914  0.5099 -0.0881 -0.6114
  497MOL0     C67024  10.531   1.988   3.817 -0.3590  0.0020 -0.0097
  497MOL0     C67025  10.611   1.186   3.920 -1.7165 -0.0918 -0.6396
  497MOL0     C67026  10.616   1.047   3.948  0.2610  0.2220  0.1003
  497MOL0     C67027  10.629   0.961   3.833  0.1024  0.5782 -0.5924
  497MOL0     H67028  10.704   0.585   4.195  0.4875 -0.5916  1.7630
  497MOL0     H67029  10.736   0.424   4.345 -0.4816 -1.0798  1.0772
  497MOL0     H67030  10.566   0.257   4.470 -0.7593  0.0403  0.4690
  497MOL0     H67031  10.738   0.257   4.489 -0.8404 -0.4607 -2.4716
  497MOL0     H67032  10.558   0.214   4.726 -1.2496  1.5578 -2.8224
  497MOL0     H67033  10.725   0.150   4.719 -1.6707 -1.5340  1.8977
  497MOL0     H67034  10.667  -0.011   4.549  0.5090  0.3846  0.0668
  497MOL0     H67035  10.505   0.040   4.541  1.6581 -0.7927 -0.6911
  497MOL0     H67036  10.625  -0.080   4.809 -0.7893  1.2218  0.7048
  497MOL0     H67037  10.459  -0.039   4.787 -0.8506  0.6466 -0.5289
  497MOL0     H67038  10.440  -0.254   4.740  0.7822 -0.8424  0.0105
  497MOL0     H67039  10.451  -0.188   4.578  3.0400  1.9912 -1.5581
  497MOL0     H67040  10.659  -0.264   4.532  1.8805 -0.9803  0.7006
  497MOL0     H67041  10.699  -0.279   4.705  0.2282  1.6242 -0.2736
  497MOL0     H67042  10.541  -0.478   4.710 -0.5574  0.2278  0.2714
  497MOL0     H67043  10.667  -0.497   4.575  1.4771  1.0429  0.3641
  497MOL0     H67044  10.372  -0.440   4.540  0.7363  2.9385 -3.0424
  497MOL0     H67045  10.479  -0.474   4.401 -1.4795 -0.2404 -0.9078
  497MOL0     H67046  10.244  -0.616   4.645 -0.9100  0.7174 -1.2281
  497MOL0     H67047  10.151  -0.829   4.724 -0.9577 -2.6858  0.9236
  497MOL0     H67048  10.186  -0.968   4.614  0.2835 -2.3879  1.5315
  497MOL0     H67049  10.211  -0.993   4.869 -0.3299 -2.0202 -1.7318
  497MOL0     H67050  10.345  -1.046   4.769 -2.2603 -1.5557  0.2190
  497MOL0     H67051  10.329  -0.788   4.915 -0.5388  1.0311 -3.6492
  497MOL0     H67052  10.473  -0.822   4.819 -0.3680  3.6131  0.0554
  497MOL0     H67053  10.372  -0.978   5.059  0.4120  0.3420  0.6697
  497MOL0     H67054  10.510  -0.870   5.061 -1.0868  0.7804 -0.7347
  497MOL0     H67055  10.605  -0.966   5.228 -1.3802 -0.6814 -0.7712
  497MOL0     H67056  10.801  -1.049   5.347 -2.1948 -2.4118  0.1553
  497MOL0     H67057  11.255  -1.216   5.210  1.2303  1.6551  1.7037
  497MOL0     H67058  11.491  -1.290   5.292  1.4777 -2.7410 -0.9614
  497MOL0     H67059  11.478  -1.667   5.513 -2.2689  1.1689 -2.2316
  497MOL0     H67060  11.585  -1.719   5.380 -1.6780 -0.4491  0.3894
  497MOL0     H67061  11.678  -1.742   5.608 -1.3587  0.1474 -0.2725
  497MOL0     H67062  11.788  -1.649   5.507  1.0140  1.0928  1.3082
  497MOL0     H67063  11.800  -1.514   5.678  0.5356 -2.4250 -0.4589
  497MOL0     H67064  11.659  -1.448   5.605  0.8195  1.4518 -0.4436
  497MOL0     H67065  11.632  -1.655   5.829  1.2051 -0.7838 -2.5899
  497MOL0     H67066  11.509  -1.546   5.761 -0.8097  2.2329  3.0410
  497MOL0     H67067  11.754  -1.421   5.902  0.6155 -1.2987  3.9596
  497MOL0     H67068  11.644  -1.498   6.001  2.3939  0.2272  0.1729
  497MOL0     H67069  11.569  -1.275   5.799  0.4784  2.4066  1.9688
  497MOL0     H67070  11.456  -1.344   5.926  1.4164 -1.0627  2.3656
  497MOL0     H67071  11.705  -1.178   5.963  2.1377 -1.7942  1.4511
  497MOL0     H67072  11.632  -1.275   6.097  2.2900  0.5122 -0.6935
  497MOL0     H67073  11.480  -1.063   5.951 -2.6644  0.1607  0.5937
  497MOL0     H67074  11.426  -1.164   6.081  0.8119 -0.8261  1.3743
  497MOL0     H67075  11.316  -1.680   5.373  4.3161  0.2960  0.3673
  497MOL0     H67076  11.111  -1.601   5.289  2.5146 -1.6978 -3.1435
  497MOL0     H67077  10.922  -1.293   5.009 -1.7586 -1.3833 -2.6774
  497MOL0     H67078  10.719  -1.216   4.891 -1.5295 -1.1367  1.9945
  497MOL0     H67079  10.491   0.620   4.644 -2.3121  0.0007 -0.1846
  497MOL0     H67080  10.469   0.802   4.484  1.9060  1.7186 -0.0877
  497MOL0     H67081  10.551   1.086   4.285 -1.1397  0.4688 -0.1633
  497MOL0     H67082  10.542   1.310   4.226  0.3375  3.3262 -1.4627
  497MOL0     H67083  10.682   1.554   4.082  0.6128 -2.0088  2.3516
  497MOL0     H67084  10.546   1.501   4.177  3.1738 -0.6718  0.5212
  497MOL0     H67085  10.402   1.608   3.996 -1.0359  2.2932  0.2822
  497MOL0     H67086  10.543   1.662   3.906  0.7668 -3.2256  0.1298
  497MOL0     H67087  10.608   1.797   4.118  0.1191 -3.1705  1.3914
  497MOL0     H67088  10.471   1.739   4.193  0.4091  2.1171  1.2475
  497MOL0     H67089  10.320   1.854   4.026 -0.6007 -1.6539  3.6629
  497MOL0     H67090  10.426   1.967   4.114  2.5197 -2.6853  1.1973
  497MOL0     H67091  10.564   2.035   3.727 -0.5212  2.8222  1.3014
  497MOL0     H67092  10.628   1.219   3.818  3.2119 -2.0476 -0.6915
  497MOL0     H67093  10.530   0.916   3.820 -1.2296  2.8549  0.9185
  497MOL0     H67094  10.647   1.021   3.743  1.5258  0.0218 -0.7078
  497MOL0     H67095  10.708   0.886   3.849  4.0294  4.0323 -2.1577
  498MOL0     O67096   4.787   9.622  10.095  0.9885  0.1797  0.4225
  498MOL0     C67097   4.840   9.520  10.050 -0.2430 -0.2802 -0.5046
  498MOL0     O67098   4.953   9.521   9.981 -0.6567 -0.4482  0.4545
  498MOL0     C67099   4.989   9.612   9.891  0.0619  0.3043 -0.4294
  498MOL0     C67100   5.118   9.588   9.845  0.2810  1.0287 -0.6398
  498MOL0     C67101   5.180   9.674   9.760 -0.5260  0.5366 -0.0481
  498MOL0     C67102   5.113   9.784   9.713 -0.0387 -0.5822 -0.1269
  498MOL0     O67103   5.177   9.874   9.626 -0.7230 -0.0403  0.4511
  498MOL0     C67104   5.159  10.014   9.651 -0.1460  0.3148 -0.2123
  498MOL0     C67105   5.280  10.090   9.596  0.9244  0.1400  0.0174
  498MOL0     C67106   5.415  10.055   9.660  0.5671 -0.3553  0.5482
  498MOL0     C67107   5.523  10.160   9.621 -0.9535 -0.0906 -0.0579
  498MOL0     C67108   5.656  10.124   9.705  0.3166 -0.4042 -0.5822
  498MOL0     C67109   5.739  10.018   9.624  0.2281 -0.0556  0.1795
  498MOL0     C67110   5.886  10.024   9.666 -0.3005 -0.4342  0.4611
  498MOL0     C67111   5.910   9.949   9.798 -0.0158 -0.3928 -0.9704
  498MOL0     N67112   6.029  10.007   9.868 -0.0378  0.8975 -0.0606
  498MOL0     C67113   6.035  10.129   9.927 -0.2932  0.1395 -1.3931
  498MOL0     C67114   6.166  10.143   9.957 -0.0097 -0.3962 -0.2688
  498MOL0     C67115   6.228  10.268  10.025  0.1613  0.8845  0.1671
  498MOL0     C67116   6.241  10.247  10.180  0.1818 -0.3825  0.6614
  498MOL0     C67117   6.113  10.286  10.250 -0.3678 -0.0159  0.3960
  498MOL0     C67118   6.160  10.328  10.390 -0.7239  0.3732  0.3912
  498MOL0     O67119   6.055  10.304  10.478  0.8425 -1.0528 -0.2468
  498MOL0     C67120   6.070  10.365  10.605  0.4024 -0.1457  0.3325
  498MOL0     C67121   6.183  10.437  10.649  0.1120  0.0494 -0.3071
  498MOL0     C67122   6.196  10.479  10.771  0.2568 -0.4752  0.5272
  498MOL0     C67123   6.099  10.447  10.867 -0.3964 -1.0514  0.7021
  498MOL0     C67124   6.119  10.500  11.010  0.0736  0.4565  0.4796
  498MOL0     O67125   6.195  10.617  11.019 -0.0183 -0.2951 -0.9750
  498MOL0     C67126   6.272  10.639  11.133 -0.3640 -0.2795 -0.2372
  498MOL0     C67127   6.309  10.778  11.148  0.0147  0.3642  0.3498
  498MOL0     C67128   6.372  10.826  11.257 -0.0697 -0.0643 -0.0202
  498MOL0     C67129   6.419  10.733  11.362  1.1243 -1.0822  0.0521
  498MOL0     O67130   6.492  10.761  11.472  0.1823 -0.4922 -0.0987
  498MOL0     C67131   6.553  10.892  11.486  0.1898 -0.2030 -0.0328
  498MOL0     C67132   6.679  10.893  11.572  0.0609 -0.2208  0.5415
  498MOL0     C67133   6.646  10.856  11.721  0.0968 -0.3927  0.0235
  498MOL0     C67134   6.536  10.942  11.781 -0.3632 -0.3951  0.3691
  498MOL0     C67135   6.540  10.955  11.931 -0.6416  0.0747 -0.3901
  498MOL0     C67136   6.414  11.014  11.988 -0.5669 -0.1360 -0.9764
  498MOL0     C67137   6.380  11.155  11.930 -0.8391  0.0732  0.1207
  498MOL0     C67138   6.490  11.257  11.966 -0.3265  0.1055 -0.7564
  498MOL0    Cl67139   6.439  11.425  11.931 -0.0400 -0.2072 -0.2020
  498MOL0     C67140   6.378  10.600  11.352 -0.6782 -0.3765  0.0827
  498MOL0     C67141   6.309  10.548  11.245  0.6557 -1.2412 -0.3317
  498MOL0     O67142   6.051  10.451  11.095  0.1239 -0.8658  0.3499
  498MOL0     C67143   5.979  10.393  10.829  0.8468  0.3383  1.4104
  498MOL0     C67144   5.966  10.347  10.700 -0.3082 -0.9312  0.3682
  498MOL0     N67145   6.238  10.029   9.934 -0.4947  0.3588 -0.6364
  498MOL0     N67146   6.158   9.953   9.872  0.2417 -0.7093  0.7207
  498MOL0     C67147   4.976   9.807   9.753 -0.3563 -0.2963  0.8084
  498MOL0     C67148   4.909   9.716   9.839  0.2145 -0.3720 -0.7282
  498MOL0     C67149   4.770   9.397  10.103 -0.2946  0.2796  0.7656
  498MOL0     C67150   4.635   9.414  10.150  0.2776  0.0196  0.3200
  498MOL0     C67151   4.568   9.312  10.212 -0.6229 -0.6399  0.5537
  498MOL0     C67152   4.628   9.186  10.225 -0.2416  0.6170  0.3435
  498MOL0     O67153   4.572   9.085  10.306 -0.2420 -0.0505  0.4192
  498MOL0     C67154   4.608   8.954  10.283 -0.3624 -0.0621 -0.2150
  498MOL0     C67155   4.503   8.870  10.343  0.0954 -0.2286 -0.0579
  498MOL0     C67156   4.411   8.812  10.238 -0.2037  0.6480  0.1309
  498MOL0     C67157   4.296   8.725  10.297 -0.2035  0.1996 -0.6078
  498MOL0     C67158   4.178   8.812  10.344  0.0716 -0.8664 -0.0347
  498MOL0     C67159   4.084   8.880  10.377  0.2228 -0.2726  0.9870
  498MOL0     C67160   4.758   9.166  10.173  0.5889 -0.3114  0.3184
  498MOL0     C67161   4.829   9.271  10.108 -0.3508  0.1830 -0.3920
  498MOL0     C67162   4.967   9.249  10.073  0.7444 -0.6059  0.8675
  498MOL0     H67163   5.182   9.502   9.866  0.4032  1.4315  0.7084
  498MOL0     H67164   5.284   9.667   9.731 -0.8849  0.2504 -1.3080
  498MOL0     H67165   5.070  10.047   9.597 -0.7879  1.0634  1.2447
  498MOL0     H67166   5.142  10.037   9.756 -1.9129 -1.2346 -0.1085
  498MOL0     H67167   5.261  10.198   9.592  0.2383 -0.0028 -1.2165
  498MOL0     H67168   5.271  10.049   9.495 -0.0885 -0.9610  0.5416
  498MOL0     H67169   5.430   9.951   9.633 -0.2570 -0.5206  0.6981
  498MOL0     H67170   5.404  10.050   9.769  0.7286 -3.3135  0.4862
  498MOL0     H67171   5.544  10.172   9.514  0.1967  0.1239  0.1801
  498MOL0     H67172   5.496  10.253   9.672  2.7189  0.0316  2.0293
  498MOL0     H67173   5.722  10.211   9.710  1.5353 -1.2254 -1.6449
  498MOL0     H67174   5.626  10.093   9.805 -0.3023 -0.9334 -0.9192
  498MOL0     H67175   5.693   9.919   9.623  0.6960 -0.2807  0.7267
  498MOL0     H67176   5.741  10.056   9.521 -0.5003  0.5881  0.3874
  498MOL0     H67177   5.911  10.130   9.665 -0.6611 -0.3465 -0.9185
  498MOL0     H67178   5.931   9.971   9.582 -0.4143  0.4612 -0.1683
  498MOL0     H67179   5.826   9.967   9.865 -0.1575 -1.0947 -0.9525
  498MOL0     H67180   5.918   9.841   9.779 -0.7208 -0.5287 -0.5447
  498MOL0     H67181   5.963  10.205   9.954  0.2064  0.6358 -1.4478
  498MOL0     H67182   6.332  10.269   9.990  0.4127 -1.4796  0.6991
  498MOL0     H67183   6.179  10.362   9.997 -0.9987 -0.0215 -0.9537
  498MOL0     H67184   6.279  10.147  10.199 -1.3553 -1.4241 -1.3140
  498MOL0     H67185   6.311  10.324  10.213  0.2480  0.3908 -1.1241
  498MOL0     H67186   6.047  10.199  10.243  0.1469 -0.2546 -3.2715
  498MOL0     H67187   6.058  10.369  10.205  0.3998  0.6298  0.6012
  498MOL0     H67188   6.182  10.435  10.393  1.5788 -0.0496  0.5323
  498MOL0     H67189   6.254  10.280  10.420  0.6855  2.4561 -0.4656
  498MOL0     H67190   6.256  10.466  10.574 -1.8171 -0.8027 -2.6666
  498MOL0     H67191   6.285  10.539  10.788 -0.7736  0.5013  2.7706
  498MOL0     H67192   6.282  10.850  11.070 -3.6255  0.3844  1.4107
  498MOL0     H67193   6.398  10.931  11.264  2.5022 -0.7005  1.4991
  498MOL0     H67194   6.585  10.922  11.386  2.7396 -0.3420  0.6815
  498MOL0     H67195   6.484  10.963  11.532  1.5646 -0.0983  1.9972
  498MOL0     H67196   6.762  10.828  11.545  1.5699  1.6925  0.3433
  498MOL0     H67197   6.713  10.997  11.570 -0.7319  0.0363 -0.7384
  498MOL0     H67198   6.637  10.749  11.744 -0.4637 -0.2343  0.6002
  498MOL0     H67199   6.739  10.883  11.771 -0.5982  0.2880  0.9819
  498MOL0     H67200   6.440  10.903  11.746 -0.4369  0.6652 -0.6528
  498MOL0     H67201   6.554  11.044  11.748 -1.5957  0.2627  1.6088
  498MOL0     H67202   6.628  11.014  11.957 -2.0743  1.4794  1.5609
  498MOL0     H67203   6.551  10.857  11.978 -2.8235  0.6103  1.4354
  498MOL0     H67204   6.333  10.952  11.948 -2.9806  2.9069 -1.2495
  498MOL0     H67205   6.399  11.003  12.096  2.1629 -0.5622 -0.5760
  498MOL0     H67206   6.282  11.192  11.963 -0.8466 -0.5353  0.7986
  498MOL0     H67207   6.370  11.134  11.824  0.7620 -1.6420  0.2666
  498MOL0     H67208   6.489  11.250  12.075 -0.7583  0.2845 -0.7466
  498MOL0     H67209   6.588  11.238  11.921  0.9730  2.1420  0.9972
  498MOL0     H67210   6.408  10.530  11.429 -0.3126  1.9127  2.1303
  498MOL0     H67211   6.281  10.443  11.253  1.6786 -1.3800  1.8510
  498MOL0     H67212   5.899  10.371  10.899 -0.4551 -0.2544 -0.2004
  498MOL0     H67213   5.876  10.294  10.669  0.6045 -2.5521  0.3664
  498MOL0     H67214   4.925   9.898   9.723  2.2632  1.6532  1.9015
  498MOL0     H67215   4.808   9.728   9.875  0.3460 -0.5171 -0.3013
  498MOL0     H67216   4.586   9.509  10.131 -0.1251 -0.0137  1.1908
  498MOL0     H67217   4.484   9.341  10.275 -0.4022 -0.7448  0.9010
  498MOL0     H67218   4.704   8.933  10.332  0.0194  0.5516 -0.6870
  498MOL0     H67219   4.615   8.932  10.176 -1.4891 -1.7357  0.0217
  498MOL0     H67220   4.444   8.930  10.413 -0.8640 -3.5141  2.1959
  498MOL0     H67221   4.542   8.789  10.406 -2.5601 -0.7056  1.1120
  498MOL0     H67222   4.481   8.751  10.180  0.7354  1.1571  0.6835
  498MOL0     H67223   4.369   8.894  10.180 -1.0396  1.4151  1.7403
  498MOL0     H67224   4.270   8.666  10.209  0.2404 -3.3689  1.4478
  498MOL0     H67225   4.327   8.660  10.380 -2.1670 -3.3093 -2.3981
  498MOL0     H67226   4.000   8.935  10.414 -1.6372 -1.4641 -1.2311
  498MOL0     H67227   4.813   9.073  10.181 -0.7127 -1.0244  1.2554
  498MOL0     H67228   4.978   9.255   9.964 -1.7673 -2.2920  0.4226
  498MOL0     H67229   5.030   9.321  10.126 -2.0368  2.3024  0.5976
  498MOL0     H67230   4.994   9.147  10.102 -0.2505 -0.6366  1.7406
  499MOL0     O67231   9.867   8.690   7.984  0.9327 -0.0743 -0.7316
  499MOL0     C67232   9.816   8.775   8.057  0.3038 -0.3871 -0.3242
  499MOL0     O67233   9.880   8.885   8.108 -1.4763  0.0321  0.3619
  499MOL0     C67234  10.016   8.899   8.105  0.2278  0.0706  0.4423
  499MOL0     C67235  10.062   9.030   8.097 -0.1317  0.2636  0.3739
  499MOL0     C67236  10.199   9.058   8.095  0.6267  0.0095  0.0300
  499MOL0     C67237  10.288   8.955   8.119 -0.2787 -0.0088 -0.8771
  499MOL0     O67238  10.424   8.987   8.133 -0.2478  0.1013  0.5632
  499MOL0     C67239  10.511   8.894   8.199 -0.2080 -0.1216  0.0343
  499MOL0     C67240  10.655   8.952   8.210 -0.8840 -0.1959  0.3882
  499MOL0     C67241  10.709   9.018   8.078  0.9276 -0.1623 -1.5841
  499MOL0     C67242  10.830   9.104   8.108  0.1408  0.3622 -0.7925
  499MOL0     C67243  10.914   9.139   7.988 -0.4741  0.0514  0.2979
  499MOL0     C67244  10.822   9.225   7.900  0.2913  0.4485  0.5186
  499MOL0     C67245  10.888   9.285   7.774 -0.0358  0.0815 -0.2640
  499MOL0     C67246  10.796   9.384   7.689 -0.0254  0.4116  0.4199
  499MOL0     N67247  10.795   9.528   7.733  0.6954 -0.0319 -0.1046
  499MOL0     C67248  10.813   9.579   7.864  0.3970  0.0176 -0.4062
  499MOL0     C67249  10.774   9.711   7.862 -0.5004  0.7434  0.1390
  499MOL0     C67250  10.788   9.786   7.992  0.2039  0.2136  0.6073
  499MOL0     C67251  10.752   9.927   7.965  0.1873 -0.0337 -0.6428
  499MOL0     C67252  10.726   9.996   8.094  0.1057 -0.6419 -0.4791
  499MOL0     C67253  10.620   9.927   8.182 -0.5762 -0.5834  0.7009
  499MOL0     O67254  10.550  10.013   8.271 -0.3789 -0.6306  0.5495
  499MOL0     C67255  10.449   9.956   8.344 -0.0742  0.2253 -0.2754
  499MOL0     C67256  10.320   9.989   8.309 -0.6834  0.1004 -0.3559
  499MOL0     C67257  10.207   9.939   8.384 -0.8443  0.4328  0.2613
  499MOL0     C67258  10.230   9.848   8.492  0.3688 -0.0734  0.2522
  499MOL0     C67259  10.135   9.789   8.573  0.5331  0.5559 -0.0161
  499MOL0     O67260  10.168   9.675   8.637 -0.9515 -0.2292  0.0932
  499MOL0     C67261  10.071   9.616   8.716 -0.5961  0.8424 -0.3638
  499MOL0     C67262   9.953   9.589   8.666 -0.2096 -0.1073  0.3425
  499MOL0     C67263   9.854   9.517   8.740  0.3165  0.5319  1.1082
  499MOL0     C67264   9.891   9.471   8.864 -0.0252 -0.0043  0.0507
  499MOL0     O67265   9.814   9.384   8.934  1.0631  0.4083 -0.6247
  499MOL0     C67266   9.821   9.253   8.873  0.1511  0.1362 -0.5847
  499MOL0     C67267   9.690   9.178   8.892 -0.4473  0.9207 -0.3279
  499MOL0     C67268   9.581   9.229   8.798  0.0384  0.2832  0.1760
  499MOL0     C67269   9.439   9.174   8.838  0.1375 -0.5970  0.2285
  499MOL0     C67270   9.419   9.022   8.849  0.2609 -0.6816  1.2582
  499MOL0     C67271   9.271   9.002   8.890  0.2277 -0.5088 -0.2682
  499MOL0     C67272   9.232   8.858   8.890 -1.0103  0.3875 -0.4349
  499MOL0     C67273   9.096   8.808   8.908 -0.1506  0.2757 -0.2115
  499MOL0    Cl67274   9.097   8.630   8.871 -0.0204 -0.2961  0.7446
  499MOL0     C67275  10.013   9.500   8.912  0.3688  0.3487 -0.4848
  499MOL0     C67276  10.105   9.574   8.837 -0.9668 -0.4180 -0.2394
  499MOL0     O67277  10.018   9.833   8.574  0.0473  0.4189  0.4590
  499MOL0     C67278  10.364   9.845   8.544  0.2434  0.8620 -0.7523
  499MOL0     C67279  10.467   9.896   8.468  0.3953 -0.1511  0.8936
  499MOL0     N67280  10.752   9.742   7.729  0.9919 -0.3858 -0.1560
  499MOL0     N67281  10.765   9.637   7.651 -0.0198 -0.5740  0.2900
  499MOL0     C67282  10.244   8.823   8.127 -0.6642  0.0287  0.8471
  499MOL0     C67283  10.109   8.794   8.124  0.7998  0.5060  0.5642
  499MOL0     C67284   9.673   8.772   8.057  0.7180  0.2553 -1.0933
  499MOL0     C67285   9.593   8.888   8.029 -0.6310  0.0981 -0.4947
  499MOL0     C67286   9.458   8.881   8.030 -0.8378 -0.9251 -0.6730
  499MOL0     C67287   9.380   8.773   8.063 -0.6278 -0.9922  0.0585
  499MOL0     O67288   9.245   8.774   8.079 -0.2786  0.1682 -0.1546
  499MOL0     C67289   9.170   8.891   8.047 -0.1328  0.5303 -0.0384
  499MOL0     C67290   9.027   8.890   8.089  0.5910 -0.5762 -0.9268
  499MOL0     C67291   8.963   9.016   8.030  0.2925  0.0171 -0.0759
  499MOL0     C67292   8.818   9.034   8.091 -0.9148 -0.6645  0.6866
  499MOL0     C67293   8.826   9.140   8.193 -0.2354 -0.4875 -0.2033
  499MOL0     C67294   8.835   9.218   8.289  0.7686 -0.3273 -0.1963
  499MOL0     C67295   9.455   8.655   8.092  0.1492 -0.4879  0.7717
  499MOL0     C67296   9.596   8.652   8.083  0.7963  0.0791  0.8541
  499MOL0     C67297   9.667   8.528   8.127  0.8351 -0.2232 -0.8611
  499MOL0     H67298   9.982   9.101   8.082  0.5489  0.2950 -5.0974
  499MOL0     H67299  10.246   9.152   8.067 -2.0309  0.8618 -2.0513
  499MOL0     H67300  10.465   8.870   8.295 -1.3215  0.1419 -0.4240
  499MOL0     H67301  10.508   8.800   8.144 -0.7706 -1.0531  1.5994
  499MOL0     H67302  10.726   8.874   8.236 -2.0557 -1.5015 -0.2198
  499MOL0     H67303  10.665   9.023   8.293  1.5014 -1.9059  1.6877
  499MOL0     H67304  10.630   9.078   8.032 -2.2620 -2.6672  0.1725
  499MOL0     H67305  10.733   8.930   8.018 -3.3558 -0.9379 -2.5007
  499MOL0     H67306  10.794   9.198   8.150  0.8696 -0.5613  2.0879
  499MOL0     H67307  10.898   9.052   8.176 -1.3322 -0.8051 -0.1508
  499MOL0     H67308  11.009   9.189   8.012  0.2965 -0.4074 -1.6038
  499MOL0     H67309  10.940   9.050   7.929 -0.3011 -0.9872  1.8798
  499MOL0     H67310  10.735   9.166   7.870  0.9716 -0.4663  0.3135
  499MOL0     H67311  10.784   9.314   7.951  2.0587  0.8737  1.2002
  499MOL0     H67312  10.929   9.201   7.718  3.1207  1.4749 -0.2560
  499MOL0     H67313  10.970   9.353   7.799 -0.1782  0.7034 -1.4305
  499MOL0     H67314  10.819   9.379   7.582  2.0153  0.1255  0.8338
  499MOL0     H67315  10.692   9.355   7.704  0.6015 -0.6186  3.5706
  499MOL0     H67316  10.836   9.522   7.953  0.5306  0.0670 -0.4086
  499MOL0     H67317  10.723   9.737   8.066 -1.2043  1.8136  0.4905
  499MOL0     H67318  10.895   9.771   8.012  1.1534  2.2383 -2.4059
  499MOL0     H67319  10.837   9.973   7.913  4.2880 -0.5649  4.6849
  499MOL0     H67320  10.679   9.929   7.884  1.8960  0.3554 -2.2359
  499MOL0     H67321  10.693  10.100   8.087  1.5513 -0.0835  0.5490
  499MOL0     H67322  10.822   9.989   8.146 -0.5198 -0.3737  0.7458
  499MOL0     H67323  10.667   9.851   8.245  0.9591  2.1605  3.0899
  499MOL0     H67324  10.545   9.872   8.123  0.2851 -1.2676  0.2244
  499MOL0     H67325  10.296  10.045   8.219 -1.7834 -0.9116 -0.7180
  499MOL0     H67326  10.111   9.978   8.352 -1.1926 -0.9219 -0.3694
  499MOL0     H67327   9.918   9.617   8.567 -2.4283  0.6194  1.2880
  499MOL0     H67328   9.761   9.486   8.695  0.5885 -0.5232  1.2577
  499MOL0     H67329   9.853   9.254   8.768  0.4857  0.0353 -0.4825
  499MOL0     H67330   9.892   9.196   8.933  0.2436 -0.6776 -1.4425
  499MOL0     H67331   9.705   9.071   8.875 -0.4111  0.6566  1.2748
  499MOL0     H67332   9.660   9.178   8.997 -1.3291  1.0018 -0.5722
  499MOL0     H67333   9.580   9.338   8.802  2.8681  0.5805 -2.7877
  499MOL0     H67334   9.603   9.199   8.695  1.1915  2.5380 -0.2833
  499MOL0     H67335   9.370   9.211   8.762  1.9767 -0.2190 -1.3144
  499MOL0     H67336   9.417   9.221   8.935  1.7159 -1.9915  1.3304
  499MOL0     H67337   9.484   8.970   8.920 -2.7777 -3.6304  2.1072
  499MOL0     H67338   9.445   8.982   8.751  0.6651  0.5829  0.8282
  499MOL0     H67339   9.257   9.048   8.989  2.2002 -1.2981  0.4309
  499MOL0     H67340   9.203   9.061   8.829 -1.6263 -1.9526  0.3231
  499MOL0     H67341   9.283   8.825   8.981 -0.6730 -1.6573 -1.3059
  499MOL0     H67342   9.276   8.820   8.797  1.4438  5.0488 -1.4742
  499MOL0     H67343   9.080   8.814   9.016  1.5663 -4.4790  0.5455
  499MOL0     H67344   9.022   8.854   8.841 -0.0017  1.2319  0.2735
  499MOL0     H67345  10.031   9.459   9.011  1.3358  0.2013 -0.7148
  499MOL0     H67346  10.206   9.591   8.874 -0.9650  1.2023 -0.9035
  499MOL0     H67347  10.378   9.796   8.640 -0.7062  1.3528 -0.3553
  499MOL0     H67348  10.571   9.887   8.495  0.4887  0.8841  0.8813
  499MOL0     H67349  10.309   8.737   8.136 -3.3092 -2.3458 -0.9585
  499MOL0     H67350  10.070   8.693   8.130 -1.1132  0.8186 -3.4279
  499MOL0     H67351   9.635   8.984   8.000 -2.3978  0.8338 -0.7526
  499MOL0     H67352   9.413   8.974   7.998  1.3933  0.1034 -0.9969
  499MOL0     H67353   9.178   8.911   7.940 -0.4971  1.5809  0.1138
  499MOL0     H67354   9.214   8.975   8.104 -3.9975  2.5712  0.2774
  499MOL0     H67355   9.012   8.887   8.197  2.0646 -1.8562 -0.7135
  499MOL0     H67356   8.971   8.809   8.042 -1.0391  0.6682 -1.2291
  499MOL0     H67357   8.946   9.001   7.923 -3.4753 -2.0543  0.6101
  499MOL0     H67358   9.035   9.097   8.040 -0.6875  0.9994 -0.7401
  499MOL0     H67359   8.747   9.078   8.020  2.5725  1.4862 -1.8116
  499MOL0     H67360   8.770   8.946   8.135 -3.7157  1.3109  1.9169
  499MOL0     H67361   8.853   9.283   8.372 -1.1029  0.4100 -0.3387
  499MOL0     H67362   9.393   8.569   8.114 -1.0805 -0.0524 -0.8693
  499MOL0     H67363   9.700   8.462   8.047 -2.5200 -2.7552 -0.3974
  499MOL0     H67364   9.751   8.548   8.194  1.1737 -0.5039 -1.1983
  499MOL0     H67365   9.594   8.475   8.190  1.8743 -1.4591 -0.6614
  500MOL0     O67366   6.161   3.649   2.962 -0.5173 -0.5831 -0.2526
  500MOL0     C67367   6.189   3.533   2.982 -0.0369  0.2803  0.0709
  500MOL0     O67368   6.308   3.490   3.047  0.6506  0.2085  0.1410
  500MOL0     C67369   6.412   3.569   3.096 -0.0899  0.8282 -1.2665
  500MOL0     C67370   6.394   3.703   3.136 -0.2263 -0.2690 -0.2194
  500MOL0     C67371   6.510   3.790   3.167 -0.2947  0.3610  0.7743
  500MOL0     C67372   6.634   3.719   3.200 -0.5316 -0.0390 -0.0335
  500MOL0     O67373   6.750   3.775   3.239 -0.3349  0.5681  0.4951
  500MOL0     C67374   6.732   3.873   3.343 -0.1645  1.2254  0.0800
  500MOL0     C67375   6.879   3.923   3.371  0.4788  0.9708 -0.3278
  500MOL0     C67376   6.881   4.033   3.479  0.0482 -0.2588  0.0088
  500MOL0     C67377   7.019   4.093   3.491 -0.9318  0.7822 -0.8134
  500MOL0     C67378   7.070   4.190   3.380  0.2617  0.6234 -0.9269
  500MOL0     C67379   7.208   4.239   3.422 -0.3799  0.1975 -0.1524
  500MOL0     C67380   7.256   4.340   3.313 -0.3201 -0.0379  0.2755
  500MOL0     C67381   7.391   4.399   3.346  0.1887 -0.1002  0.0853
  500MOL0     N67382   7.496   4.295   3.339 -0.6467 -0.3624  1.2543
  500MOL0     C67383   7.522   4.218   3.227 -0.7753 -0.5042  0.1196
  500MOL0     C67384   7.633   4.152   3.261  0.1238  0.2938 -0.0920
  500MOL0     C67385   7.686   4.031   3.184  0.0240 -0.3804  0.5328
  500MOL0     C67386   7.823   4.048   3.109  0.0950  0.1977  0.1976
  500MOL0     C67387   7.830   4.147   2.984  0.3579  0.6531 -1.2417
  500MOL0     C67388   7.755   4.098   2.855 -0.7363  0.4232  0.4819
  500MOL0     O67389   7.611   4.113   2.864 -0.0132 -0.4962  0.4099
  500MOL0     C67390   7.547   4.221   2.808 -0.1617  0.7968  0.3202
  500MOL0     C67391   7.530   4.227   2.675  0.0937  0.4884  0.9095
  500MOL0     C67392   7.457   4.336   2.616 -0.2036 -0.3399  0.6685
  500MOL0     C67393   7.420   4.446   2.696 -0.2187  0.8702 -0.3594
  500MOL0     C67394   7.358   4.562   2.634  0.2648 -0.7956  0.8117
  500MOL0     O67395   7.385   4.679   2.700  0.6976 -0.0535  0.0739
  500MOL0     C67396   7.342   4.799   2.654  1.3912 -0.3001 -0.4987
  500MOL0     C67397   7.210   4.814   2.590  0.1419  0.3075  0.1459
  500MOL0     C67398   7.157   4.937   2.552  0.3565 -0.2899 -0.6571
  500MOL0     C67399   7.245   5.045   2.577  0.6770 -0.7480  0.5574
  500MOL0     O67400   7.213   5.171   2.529 -0.7386  0.2647 -0.5075
  500MOL0     C67401   7.161   5.265   2.625 -0.1889 -0.5433  0.3381
  500MOL0     C67402   7.145   5.395   2.545  0.5463 -0.3156  0.6083
  500MOL0     C67403   7.087   5.516   2.612  0.1719  0.8841 -0.4709
  500MOL0     C67404   7.151   5.648   2.542 -0.4168  0.4735 -0.3170
  500MOL0     C67405   7.093   5.667   2.397  0.6406  0.7608  0.5545
  500MOL0     C67406   7.091   5.816   2.360 -0.3253 -0.4483 -0.1148
  500MOL0     C67407   7.046   5.823   2.214  0.0664 -0.1643 -0.4947
  500MOL0     C67408   7.091   5.966   2.159  0.1319 -0.1646 -0.2123
  500MOL0    Cl67409   7.263   5.959   2.122  0.2327  0.2126  0.4551
  500MOL0     C67410   7.370   5.029   2.636  0.6110 -0.0821 -0.1278
  500MOL0     C67411   7.421   4.909   2.673 -0.1118 -0.2059 -0.3919
  500MOL0     O67412   7.317   4.558   2.519 -0.2923 -0.1081  0.4235
  500MOL0     C67413   7.438   4.438   2.834  0.2142  0.9340 -0.4343
  500MOL0     C67414   7.501   4.325   2.890 -0.8243 -0.1133  0.1993
  500MOL0     N67415   7.668   4.193   3.382 -0.3812  0.0090 -0.2776
  500MOL0     N67416   7.586   4.277   3.442  0.1727 -0.6204 -0.4013
  500MOL0     C67417   6.635   3.583   3.187 -0.7103 -0.5521 -0.4009
  500MOL0     C67418   6.530   3.512   3.133 -0.4627  0.0383  0.0073
  500MOL0     C67419   6.100   3.421   2.943  0.2414  0.3372 -0.0048
  500MOL0     C67420   6.162   3.296   2.930  0.6247 -0.5185  0.3696
  500MOL0     C67421   6.097   3.172   2.904 -0.7106  0.5566  0.0266
  500MOL0     C67422   5.953   3.173   2.903 -0.2281  0.4529  0.2008
  500MOL0     O67423   5.868   3.063   2.895  1.6758 -0.2510 -0.1475
  500MOL0     C67424   5.916   2.923   2.897  0.6893  0.4945  1.0841
  500MOL0     C67425   5.942   2.875   2.751 -0.0093 -0.5193 -0.3944
  500MOL0     C67426   5.820   2.831   2.678 -0.0984 -0.7755  0.4172
  500MOL0     C67427   5.770   2.961   2.607 -0.3827 -0.5156 -0.7002
  500MOL0     C67428   5.641   2.936   2.552  0.6534  0.0258  0.3514
  500MOL0     C67429   5.540   2.923   2.489  0.1907  0.5807 -0.8993
  500MOL0     C67430   5.890   3.300   2.909 -1.0272 -0.2544  0.6181
  500MOL0     C67431   5.955   3.419   2.934 -1.3204 -0.7730  0.0048
  500MOL0     C67432   5.878   3.551   2.940  0.5226  0.2638  0.2908
  500MOL0     H67433   6.297   3.751   3.137  0.3885  1.1326  2.3762
  500MOL0     H67434   6.477   3.892   3.181 -1.8942  0.1165 -0.7884
  500MOL0     H67435   6.667   3.954   3.309 -0.6881 -0.0432 -2.1433
  500MOL0     H67436   6.701   3.822   3.435 -0.8089  0.6509 -0.4365
  500MOL0     H67437   6.929   3.963   3.282  2.3386 -2.0929 -0.7847
  500MOL0     H67438   6.947   3.843   3.400 -1.4552 -0.9824 -0.9270
  500MOL0     H67439   6.861   3.994   3.579  1.0444  1.2765  0.8562
  500MOL0     H67440   6.808   4.112   3.455 -0.1933 -1.3920 -3.4818
  500MOL0     H67441   7.034   4.143   3.588  0.6671 -4.5035  2.0488
  500MOL0     H67442   7.090   4.010   3.495  1.1958  2.5444  1.2883
  500MOL0     H67443   7.081   4.150   3.279  1.7899 -1.7484  0.0756
  500MOL0     H67444   7.006   4.279   3.382  0.2959  0.6297  0.4388
  500MOL0     H67445   7.218   4.287   3.520 -1.7694  1.4067 -0.5560
  500MOL0     H67446   7.277   4.154   3.423  0.4727  0.8809  0.6623
  500MOL0     H67447   7.197   4.432   3.297 -0.4119 -0.0118  0.7398
  500MOL0     H67448   7.267   4.294   3.215  1.8349  2.5275 -0.8245
  500MOL0     H67449   7.416   4.488   3.288 -1.8634  2.1663  2.3617
  500MOL0     H67450   7.402   4.451   3.442  1.4536 -0.7337  0.3034
  500MOL0     H67451   7.465   4.199   3.136  0.6443  1.1725 -1.2032
  500MOL0     H67452   7.707   3.957   3.263  1.9826  0.3578  0.7335
  500MOL0     H67453   7.596   3.990   3.136  0.6754 -1.3403  0.0965
  500MOL0     H67454   7.901   4.068   3.183  0.5868  0.3807 -0.3533
  500MOL0     H67455   7.848   3.949   3.069 -0.2379  0.3583 -0.4170
  500MOL0     H67456   7.935   4.165   2.958  0.3942 -0.6260 -2.0932
  500MOL0     H67457   7.784   4.242   3.013 -1.3227  0.1622 -2.1279
  500MOL0     H67458   7.779   3.996   2.823  0.9284  1.0536 -0.4102
  500MOL0     H67459   7.796   4.153   2.770 -1.7922  1.6237  0.7115
  500MOL0     H67460   7.552   4.140   2.613 -0.9012 -0.9009  2.4329
  500MOL0     H67461   7.448   4.347   2.508  2.0033 -1.3289  0.3195
  500MOL0     H67462   7.151   4.725   2.570 -1.5053  1.7159 -1.7540
  500MOL0     H67463   7.061   4.939   2.501 -0.0076  0.0030  0.0300
  500MOL0     H67464   7.065   5.220   2.651 -0.5464 -2.2955 -3.3925
  500MOL0     H67465   7.232   5.272   2.708  0.2360  1.9885 -0.1480
  500MOL0     H67466   7.245   5.418   2.506 -0.2022 -0.9224 -1.8822
  500MOL0     H67467   7.086   5.369   2.457 -2.4638  1.2779  2.0092
  500MOL0     H67468   6.978   5.511   2.613  0.1825 -3.6479  1.2085
  500MOL0     H67469   7.116   5.517   2.717 -0.4404 -3.7174 -0.0477
  500MOL0     H67470   7.259   5.648   2.521 -0.8658  1.8395 -2.9794
  500MOL0     H67471   7.126   5.734   2.605 -2.3017  0.4038 -0.9328
  500MOL0     H67472   6.988   5.637   2.390  0.7392  0.1974  1.3879
  500MOL0     H67473   7.150   5.612   2.321 -1.0199  2.0101 -1.7478
  500MOL0     H67474   7.037   5.879   2.430 -3.6372 -2.8373 -0.2623
  500MOL0     H67475   7.197   5.840   2.348 -0.7030  0.8718 -0.9395
  500MOL0     H67476   6.938   5.811   2.201 -0.4060 -0.7250  2.8591
  500MOL0     H67477   7.092   5.737   2.163 -0.5691 -0.0687 -1.2459
  500MOL0     H67478   7.039   5.997   2.068  0.3137  1.8962  0.3463
  500MOL0     H67479   7.081   6.032   2.246  0.1123 -0.5354  0.0719
  500MOL0     H67480   7.419   5.124   2.653  0.4263  0.0935 -0.5602
  500MOL0     H67481   7.518   4.898   2.720  0.5733  1.6162 -1.2898
  500MOL0     H67482   7.397   4.511   2.903 -2.3603  0.4083 -1.2775
  500MOL0     H67483   7.536   4.315   2.992 -3.3106 -1.3366  0.9873
  500MOL0     H67484   6.718   3.521   3.219 -1.1807 -1.6457 -1.2425
  500MOL0     H67485   6.542   3.405   3.120  0.7872  0.0982  0.5360
  500MOL0     H67486   6.270   3.289   2.928  0.5903 -0.9667 -0.9449
  500MOL0     H67487   6.146   3.076   2.895 -1.2766  0.2988 -0.3190
  500MOL0     H67488   5.835   2.857   2.930 -0.3322  1.2660  0.2118
  500MOL0     H67489   5.997   2.901   2.967  1.2195 -0.9679  0.0636
  500MOL0     H67490   6.010   2.791   2.767  3.2706  2.3602  2.2433
  500MOL0     H67491   6.005   2.942   2.692  0.0027 -0.4034 -0.2490
  500MOL0     H67492   5.745   2.788   2.744 -0.8150 -1.8817 -1.0516
  500MOL0     H67493   5.851   2.760   2.600  1.6967  1.6622 -1.2463
  500MOL0     H67494   5.766   3.045   2.676  0.6836 -1.2900  0.3459
  500MOL0     H67495   5.831   2.997   2.523 -0.1316  0.6471 -0.0411
  500MOL0     H67496   5.444   2.916   2.442 -1.5519  2.3902  2.0804
  500MOL0     H67497   5.781   3.302   2.909 -1.0429 -0.9432  1.1089
  500MOL0     H67498   5.879   3.608   2.846 -0.9965  1.1799  0.7928
  500MOL0     H67499   5.774   3.535   2.968  1.4408 -0.6914  3.5713
  500MOL0     H67500   5.923   3.618   3.014  1.8013  0.9898 -1.0787
  501MOL0     O67501   0.941  10.076   9.003 -0.0574  0.2715 -0.2553
  501MOL0     C67502   0.838  10.127   9.060 -0.4335  0.4965  0.7935
  501MOL0     O67503   0.728  10.187   8.986 -0.6277 -0.0506 -0.9693
  501MOL0     C67504   0.751  10.207   8.851 -0.7151  0.5200  0.2119
  501MOL0     C67505   0.832  10.300   8.804  0.4967 -0.1803  0.7278
  501MOL0     C67506   0.858  10.284   8.664  0.5685 -0.1879  0.1816
  501MOL0     C67507   0.794  10.200   8.580  0.6820 -0.5745  0.5524
  501MOL0     O67508   0.841  10.200   8.445 -0.4925 -0.1167 -0.0791
  501MOL0     C67509   0.781  10.090   8.370  0.4140  0.2656 -0.6085
  501MOL0     C67510   0.826  10.105   8.226 -1.0328  0.1970 -0.3467
  501MOL0     C67511   0.720  10.031   8.139 -0.4382  0.5147 -0.3013
  501MOL0     C67512   0.766  10.033   7.989 -0.1043  0.6180  0.4258
  501MOL0     C67513   0.915   9.998   7.962  0.4965  1.1004  0.3014
  501MOL0     C67514   0.926   9.943   7.813 -0.7675 -0.9345 -0.2168
  501MOL0     C67515   1.077   9.931   7.776  0.4772 -0.7232 -0.5207
  501MOL0     C67516   1.103   9.880   7.639 -0.0114  0.1057 -1.3142
  501MOL0     N67517   1.225   9.942   7.582  0.5670 -0.1207 -0.8117
  501MOL0     C67518   1.223  10.031   7.474  0.6657 -0.2533  0.7208
  501MOL0     C67519   1.354  10.032   7.434 -1.3087  0.8913  0.4551
  501MOL0     C67520   1.418  10.103   7.316 -0.1851  0.5658 -0.5902
  501MOL0     C67521   1.557  10.157   7.351  1.1347  0.6564  0.1855
  501MOL0     C67522   1.560  10.246   7.478 -0.2525 -0.0787 -0.9501
  501MOL0     C67523   1.436  10.342   7.492  0.0428  0.7527  0.4472
  501MOL0     O67524   1.455  10.418   7.610 -0.2032  0.2448 -0.3686
  501MOL0     C67525   1.445  10.363   7.739  0.2816 -0.2587  0.2263
  501MOL0     C67526   1.400  10.237   7.780 -0.5292 -0.4509  0.1118
  501MOL0     C67527   1.369  10.207   7.912  0.2747 -0.2439 -0.4572
  501MOL0     C67528   1.380  10.300   8.013 -0.6897 -0.0105  0.1723
  501MOL0     C67529   1.357  10.266   8.154  0.1986 -0.5238  0.2981
  501MOL0     O67530   1.313  10.137   8.163 -0.4607  0.1224 -0.7829
  501MOL0     C67531   1.277  10.083   8.283 -0.3909 -1.8489 -0.4346
  501MOL0     C67532   1.355   9.992   8.359 -0.3107 -0.0869  1.3312
  501MOL0     C67533   1.322   9.938   8.481 -0.2309  0.6932 -0.3296
  501MOL0     C67534   1.217   9.976   8.553  0.0163 -0.8111 -0.3919
  501MOL0     O67535   1.187   9.921   8.677  0.3714  1.0513 -0.2580
  501MOL0     C67536   1.049   9.913   8.711  0.7466  0.0267 -0.6969
  501MOL0     C67537   1.012   9.802   8.821 -0.0971  0.0521  1.6307
  501MOL0     C67538   1.105   9.821   8.942 -1.3910 -0.2629 -0.1908
  501MOL0     C67539   1.139   9.688   9.016  0.0845  0.1761  0.0428
  501MOL0     C67540   1.196   9.715   9.150 -0.6608  0.7790  0.3226
  501MOL0     C67541   1.326   9.784   9.159 -0.7170  0.1352  0.2963
  501MOL0     C67542   1.377   9.796   9.301  0.3224 -0.2985 -0.2677
  501MOL0     C67543   1.516   9.851   9.317  0.8599 -0.4854 -0.4435
  501MOL0    Cl67544   1.582   9.853   9.482  0.3912 -0.0018 -0.4780
  501MOL0     C67545   1.136  10.082   8.497 -0.9819  0.6914 -0.2991
  501MOL0     C67546   1.169  10.140   8.363  0.3907  0.4283  1.2343
  501MOL0     O67547   1.356  10.348   8.248 -0.0703  0.4706 -1.2151
  501MOL0     C67548   1.422  10.430   7.972  0.6340 -0.1206 -0.2558
  501MOL0     C67549   1.449  10.459   7.836 -0.1989  0.1576 -0.0371
  501MOL0     N67550   1.434   9.947   7.503 -0.3828 -0.4992 -0.3535
  501MOL0     N67551   1.354   9.899   7.595  0.2270  1.0139 -0.3489
  501MOL0     C67552   0.698  10.114   8.632  0.6293 -1.1303 -0.7417
  501MOL0     C67553   0.689  10.110   8.771  0.8261  0.0312  0.4776
  501MOL0     C67554   0.836  10.102   9.200 -0.4400 -0.2046  0.7890
  501MOL0     C67555   0.709  10.086   9.259 -0.5787 -1.1499 -0.0876
  501MOL0     C67556   0.694  10.042   9.388 -0.4868  0.5268 -0.2786
  501MOL0     C67557   0.813  10.011   9.459 -0.0648  0.4483  0.2215
  501MOL0     O67558   0.788   9.959   9.580 -0.0524  0.5024  0.8326
  501MOL0     C67559   0.891   9.893   9.649  0.3298  0.0057 -0.1090
  501MOL0     C67560   0.960   9.990   9.743 -0.0802 -0.3068 -0.3941
  501MOL0     C67561   0.868  10.017   9.860  0.2094 -0.5524  0.5139
  501MOL0     C67562   0.936  10.088   9.969 -1.6631  0.4605  0.0009
  501MOL0     C67563   0.852  10.168  10.055 -0.0552 -0.0592  0.4566
  501MOL0     C67564   0.780  10.252  10.103 -0.2798  0.1674  0.2532
  501MOL0     C67565   0.941  10.043   9.411  0.0182  0.1354 -0.7167
  501MOL0     C67566   0.954  10.087   9.282 -0.1241 -0.5484  0.4064
  501MOL0     C67567   1.096  10.117   9.244  0.4811 -0.6966  0.5468
  501MOL0     H67568   0.895  10.376   8.849  4.5580 -2.6757 -0.1981
  501MOL0     H67569   0.929  10.353   8.619  1.8621 -2.2851 -1.1581
  501MOL0     H67570   0.802   9.994   8.416 -3.7133 -0.3069  0.4352
  501MOL0     H67571   0.672  10.096   8.364  0.2972 -1.3923 -0.4485
  501MOL0     H67572   0.927  10.066   8.220 -1.6994 -2.2407  2.1452
  501MOL0     H67573   0.819  10.212   8.203  2.7423  0.5216 -0.5293
  501MOL0     H67574   0.614  10.056   8.140 -0.2593  1.3263 -0.5976
  501MOL0     H67575   0.733   9.930   8.177 -2.3577  0.4840  0.3780
  501MOL0     H67576   0.694   9.967   7.941  0.4385 -0.5090  1.1252
  501MOL0     H67577   0.763  10.134   7.946  0.6727  0.5287  0.1480
  501MOL0     H67578   0.978  10.087   7.966  0.2384  1.2354  3.1008
  501MOL0     H67579   0.951   9.927   8.037 -0.1878  0.4507  0.0338
  501MOL0     H67580   0.886   9.842   7.802 -1.5242 -0.6393 -0.2313
  501MOL0     H67581   0.870  10.009   7.746 -0.7694  0.9281  1.5094
  501MOL0     H67582   1.129   9.870   7.851 -2.8084 -0.0588  2.5850
  501MOL0     H67583   1.116  10.032   7.782 -1.0233 -0.0619 -1.2403
  501MOL0     H67584   1.117   9.772   7.646  2.0887  0.4362  0.5744
  501MOL0     H67585   1.016   9.903   7.576 -0.7939  0.3641 -0.1669
  501MOL0     H67586   1.133  10.084   7.442 -0.2606 -2.8609 -1.3767
  501MOL0     H67587   1.427  10.044   7.225 -0.5171  0.1431 -0.3501
  501MOL0     H67588   1.349  10.186   7.293 -0.5207  1.1200  2.0860
  501MOL0     H67589   1.625  10.074   7.367 -0.7799 -0.7542  1.4888
  501MOL0     H67590   1.584  10.221   7.267 -1.1137 -1.5930 -2.4593
  501MOL0     H67591   1.647  10.310   7.459 -1.6828  1.7289 -1.7341
  501MOL0     H67592   1.566  10.189   7.571 -0.3886 -2.6752 -2.4371
  501MOL0     H67593   1.349  10.277   7.500 -0.1529  0.6553 -1.9771
  501MOL0     H67594   1.424  10.414   7.411 -1.0808  1.7652  1.4617
  501MOL0     H67595   1.376  10.166   7.702  1.2970  0.6344 -1.5293
  501MOL0     H67596   1.336  10.104   7.925  0.7683 -0.5329 -1.4067
  501MOL0     H67597   1.436   9.948   8.303 -0.6487  0.3219  0.5063
  501MOL0     H67598   1.399   9.871   8.519  1.0002  2.4323  0.3740
  501MOL0     H67599   1.022  10.013   8.743  0.4841 -0.5752  1.0546
  501MOL0     H67600   0.987   9.902   8.621 -0.2731 -0.5469  0.0623
  501MOL0     H67601   0.909   9.802   8.858 -2.4014 -2.0151 -3.6366
  501MOL0     H67602   1.030   9.711   8.762  0.9568  1.6046 -0.5839
  501MOL0     H67603   1.195   9.876   8.913 -1.2816  0.8146  1.9615
  501MOL0     H67604   1.068   9.891   9.018  0.1607  0.0545  0.3058
  501MOL0     H67605   1.214   9.634   8.958 -0.5625  0.6130 -1.2330
  501MOL0     H67606   1.047   9.630   9.028  1.0308 -1.0992  1.4544
  501MOL0     H67607   1.197   9.619   9.203 -3.2317  0.5882  0.1456
  501MOL0     H67608   1.125   9.764   9.217 -0.3446 -0.1697  1.3985
  501MOL0     H67609   1.399   9.726   9.101 -0.5825  0.3498  0.2514
  501MOL0     H67610   1.324   9.882   9.110  2.0742  0.3644  0.4469
  501MOL0     H67611   1.366   9.701   9.354 -1.8834  1.2102  2.2343
  501MOL0     H67612   1.307   9.864   9.351  1.0457  0.6423 -0.4910
  501MOL0     H67613   1.576   9.781   9.257 -2.3442 -2.7185 -1.2747
  501MOL0     H67614   1.522   9.953   9.277  1.1329 -0.5017 -0.4423
  501MOL0     H67615   1.062  10.118   8.568  0.2822 -1.7759  2.5240
  501MOL0     H67616   1.102  10.213   8.319  0.0369  0.1852  1.3630
  501MOL0     H67617   1.448  10.506   8.045 -4.1988  2.6081 -0.9546
  501MOL0     H67618   1.478  10.556   7.797 -0.3786  0.7304  1.1996
  501MOL0     H67619   0.638  10.038   8.582 -0.2703  0.0625 -1.5577
  501MOL0     H67620   0.612  10.049   8.817 -1.3912  0.1273 -2.7369
  501MOL0     H67621   0.620  10.109   9.201 -0.2789  0.0026 -0.1117
  501MOL0     H67622   0.597  10.028   9.436  0.8613 -0.1231  2.4098
  501MOL0     H67623   0.964   9.850   9.580 -1.7107 -2.5480 -0.8268
  501MOL0     H67624   0.848   9.807   9.701  3.5471 -0.6154  1.7647
  501MOL0     H67625   1.000  10.081   9.699 -1.6076  0.1686 -0.8293
  501MOL0     H67626   1.049   9.938   9.783  0.4797  2.3553  2.1887
  501MOL0     H67627   0.828   9.928   9.909 -2.8632  1.6428  2.3150
  501MOL0     H67628   0.794  10.086   9.817  2.2210  0.9318 -0.7302
  501MOL0     H67629   0.983  10.004  10.021 -2.1739 -0.1792 -0.5537
  501MOL0     H67630   1.009  10.154   9.922 -0.1387  0.8372  2.7003
  501MOL0     H67631   0.701  10.322  10.123 -1.9505 -0.7435 -2.4930
  501MOL0     H67632   1.032  10.023   9.467  0.0778  1.9179 -0.1308
  501MOL0     H67633   1.127  10.191   9.319 -1.1637  1.0197 -0.3991
  501MOL0     H67634   1.166  10.033   9.235 -2.1179 -2.9516  0.0660
  501MOL0     H67635   1.096  10.166   9.146 -0.9135 -0.9280  0.4169
  502MOL0     O67636  10.199   3.826   2.677  0.1751  0.0532 -0.8550
  502MOL0     C67637  10.110   3.746   2.721 -0.3767  0.6217 -1.4749
  502MOL0     O67638   9.984   3.736   2.665  0.0429 -0.2849 -0.3971
  502MOL0     C67639   9.930   3.850   2.607  1.1193  0.9816 -0.4312
  502MOL0     C67640   9.959   3.901   2.481 -0.9429 -0.1846  0.4374
  502MOL0     C67641   9.911   4.022   2.432  0.0708 -0.4536 -1.0727
  502MOL0     C67642   9.816   4.090   2.502 -0.8535  0.6163  0.5994
  502MOL0     O67643   9.757   4.207   2.471 -0.0254 -0.6421  0.3905
  502MOL0     C67644   9.670   4.202   2.356 -0.2080 -0.8954 -0.6145
  502MOL0     C67645   9.544   4.127   2.385 -0.9454  0.2573  0.1537
  502MOL0     C67646   9.464   4.131   2.261  1.0590 -1.0089 -0.3288
  502MOL0     C67647   9.322   4.093   2.293  0.0158 -0.0127  0.1873
  502MOL0     C67648   9.244   4.090   2.156 -0.1931 -0.9621 -0.2370
  502MOL0     C67649   9.240   4.227   2.087  0.0259 -1.0636 -0.4486
  502MOL0     C67650   9.120   4.235   1.998  0.1689  0.7034  1.0505
  502MOL0     C67651   9.098   4.368   1.930 -0.1217  0.7307 -0.8533
  502MOL0     N67652   9.192   4.397   1.826 -0.6679  0.0495  0.4149
  502MOL0     C67653   9.181   4.334   1.706  0.6467 -0.3154 -0.6417
  502MOL0     C67654   9.269   4.398   1.626 -0.7353  0.0417  0.0143
  502MOL0     C67655   9.287   4.369   1.482  0.2876 -1.0779 -0.1718
  502MOL0     C67656   9.225   4.480   1.395  0.4280 -0.3618  0.5243
  502MOL0     C67657   9.242   4.442   1.253  0.8402  0.8464 -0.0684
  502MOL0     C67658   9.182   4.548   1.158 -0.7553 -0.8270 -0.6094
  502MOL0     O67659   9.247   4.555   1.043  0.6817  0.0142 -0.1839
  502MOL0     C67660   9.186   4.495   0.936  0.4574 -0.4890 -1.0943
  502MOL0     C67661   9.210   4.366   0.902 -0.3092 -0.1391  0.1367
  502MOL0     C67662   9.162   4.305   0.796  0.5147 -0.3794  0.6747
  502MOL0     C67663   9.085   4.384   0.711 -0.1394  0.4507  0.1754
  502MOL0     C67664   9.033   4.330   0.588  0.1139  0.2037  0.1420
  502MOL0     O67665   8.943   4.407   0.522  0.1496 -0.2751  0.6399
  502MOL0     C67666   8.870   4.349   0.423  0.2956  0.3610 -0.3446
  502MOL0     C67667   8.850   4.414   0.311 -0.3874 -0.3085  0.9097
  502MOL0     C67668   8.746   4.371   0.221  0.5018  0.0060  0.2450
  502MOL0     C67669   8.681   4.245   0.239  0.6769 -0.9989 -0.0818
  502MOL0     O67670   8.597   4.182   0.161  0.6243 -0.4160 -0.3147
  502MOL0     C67671   8.512   4.254   0.071 -0.0117 -0.5873  1.5803
  502MOL0     C67672   8.454   4.166  -0.040 -1.0981 -0.0109  0.3351
  502MOL0     C67673   8.326   4.084  -0.007 -0.0778 -0.5136  0.9606
  502MOL0     C67674   8.349   3.947   0.048 -1.0667 -0.5321 -0.0380
  502MOL0     C67675   8.393   3.828  -0.043  0.6853  0.4653  0.7934
  502MOL0     C67676   8.309   3.825  -0.170 -0.2551 -1.2101  0.7375
  502MOL0     C67677   8.355   3.714  -0.269  0.8711 -0.1276 -0.9541
  502MOL0     C67678   8.335   3.570  -0.211 -0.4294  0.2549 -0.0021
  502MOL0    Cl67679   8.392   3.471  -0.348  0.2454 -0.1158  0.0037
  502MOL0     C67680   8.715   4.175   0.355  0.1133  0.0881 -0.8760
  502MOL0     C67681   8.800   4.227   0.454 -0.6031 -0.0519 -0.0460
  502MOL0     O67682   9.080   4.225   0.546 -0.7767 -0.1085 -0.7571
  502MOL0     C67683   9.055   4.517   0.748  0.8998  0.7432  0.2184
  502MOL0     C67684   9.115   4.577   0.851 -0.7533  0.9254 -0.0651
  502MOL0     N67685   9.326   4.502   1.699  0.4632  0.0377 -0.0604
  502MOL0     N67686   9.295   4.495   1.823  0.5698 -0.5863  0.0231
  502MOL0     C67687   9.782   4.038   2.624  0.6142 -0.1700 -0.8675
  502MOL0     C67688   9.835   3.920   2.682  0.5897  0.3201  0.4472
  502MOL0     C67689  10.139   3.651   2.827  0.5003 -0.1134  0.3847
  502MOL0     C67690  10.217   3.537   2.795 -0.1069  0.3648  0.6338
  502MOL0     C67691  10.263   3.460   2.896 -1.0586  0.3160  0.1237
  502MOL0     C67692  10.251   3.495   3.029  0.6161 -0.2324  0.2295
  502MOL0     O67693  10.318   3.419   3.122 -0.6353  0.5840  0.9538
  502MOL0     C67694  10.319   3.441   3.262 -0.1728 -0.4515  0.3047
  502MOL0     C67695  10.433   3.361   3.327 -0.6271 -0.1566 -0.1516
  502MOL0     C67696  10.401   3.220   3.369  0.1556  0.5366  0.8730
  502MOL0     C67697  10.354   3.139   3.247 -0.0099 -0.4662  0.7310
  502MOL0     C67698  10.362   2.999   3.276 -0.2906  0.0974  1.1294
  502MOL0     C67699  10.364   2.885   3.295 -0.1112 -0.0501 -0.3458
  502MOL0     C67700  10.171   3.602   3.059 -0.4026  0.5166 -0.6219
  502MOL0     C67701  10.111   3.679   2.960  0.5182  0.5678 -0.2805
  502MOL0     C67702  10.033   3.802   3.004  0.1585  0.4427  0.5329
  502MOL0     H67703  10.035   3.853   2.419 -2.3427 -1.2175 -0.5554
  502MOL0     H67704   9.943   4.067   2.339  0.6068  0.9649 -0.2267
  502MOL0     H67705   9.651   4.307   2.332 -3.5612 -1.4211 -0.8469
  502MOL0     H67706   9.726   4.154   2.275  1.5949  0.5633 -0.2849
  502MOL0     H67707   9.484   4.178   2.460 -2.6812 -2.6756  0.9118
  502MOL0     H67708   9.566   4.024   2.413 -0.5580 -0.2276 -1.7436
  502MOL0     H67709   9.514   4.062   2.193  0.9036 -1.8756  0.4210
  502MOL0     H67710   9.465   4.231   2.216  2.5426  0.3350  2.4363
  502MOL0     H67711   9.327   3.995   2.342 -0.1085 -0.6473 -1.0388
  502MOL0     H67712   9.274   4.168   2.357 -0.4706  0.3537 -0.5881
  502MOL0     H67713   9.297   4.036   2.077  0.2226 -0.6743 -0.1570
  502MOL0     H67714   9.149   4.037   2.162  0.1719 -1.5053  1.3850
  502MOL0     H67715   9.213   4.300   2.164 -0.7785 -1.6276 -0.1789
  502MOL0     H67716   9.333   4.256   2.039 -1.3179 -1.7636 -3.7293
  502MOL0     H67717   9.031   4.212   2.058 -0.5710  0.5662 -0.0598
  502MOL0     H67718   9.112   4.170   1.910 -2.6228  3.8329 -1.2861
  502MOL0     H67719   8.995   4.358   1.895 -0.3953 -5.1665  0.5792
  502MOL0     H67720   9.117   4.455   1.994  0.3531  0.0257 -0.0035
  502MOL0     H67721   9.113   4.254   1.679 -3.9537  3.0799 -0.3174
  502MOL0     H67722   9.395   4.365   1.467  1.4475  2.6557  4.6348
  502MOL0     H67723   9.239   4.276   1.450  1.6273 -1.2526 -1.8169
  502MOL0     H67724   9.123   4.508   1.422  0.4781  3.5584 -2.4190
  502MOL0     H67725   9.287   4.570   1.393 -0.8095  0.5072 -1.4576
  502MOL0     H67726   9.209   4.341   1.225 -3.4145  1.9090  0.3960
  502MOL0     H67727   9.349   4.437   1.233  0.7334 -0.2504 -0.4144
  502MOL0     H67728   9.197   4.642   1.214 -0.6760 -1.4048  0.3678
  502MOL0     H67729   9.074   4.541   1.143 -0.6912  0.4998 -1.9773
  502MOL0     H67730   9.281   4.307   0.958  1.0820  1.4795  0.1495
  502MOL0     H67731   9.191   4.208   0.756 -0.2921 -0.8262  1.1636
  502MOL0     H67732   8.899   4.509   0.291 -2.0784  0.6667  1.2152
  502MOL0     H67733   8.712   4.428   0.135 -1.7278  0.3269  1.2692
  502MOL0     H67734   8.442   4.317   0.126  0.5345  2.0762 -0.5412
  502MOL0     H67735   8.581   4.327   0.026 -0.8116  0.9690  2.8117
  502MOL0     H67736   8.439   4.230  -0.127  0.2432  0.3855  0.3750
  502MOL0     H67737   8.539   4.111  -0.081  0.3058  2.3266 -0.0885
  502MOL0     H67738   8.271   4.138   0.070 -0.6887 -0.2847  0.3753
  502MOL0     H67739   8.267   4.087  -0.099  0.0281 -1.8256  0.8311
  502MOL0     H67740   8.262   3.902   0.097  0.0471 -4.4683 -1.3010
  502MOL0     H67741   8.427   3.959   0.124 -0.8563  0.9303 -0.4607
  502MOL0     H67742   8.385   3.737   0.017 -0.3137 -1.8204 -2.5570
  502MOL0     H67743   8.498   3.844  -0.069  0.9452 -2.3968 -0.2287
  502MOL0     H67744   8.201   3.826  -0.154 -0.3207  2.9760  1.0117
  502MOL0     H67745   8.327   3.913  -0.233  0.5258 -3.2082 -2.0476
  502MOL0     H67746   8.459   3.726  -0.304  1.5381 -2.1386  0.2084
  502MOL0     H67747   8.302   3.718  -0.365  3.0396  0.2783 -2.2077
  502MOL0     H67748   8.386   3.541  -0.119  0.6033  1.8589 -0.0257
  502MOL0     H67749   8.229   3.545  -0.205 -0.3111 -0.8363 -1.7157
  502MOL0     H67750   8.664   4.080   0.370  0.0794  0.4455  1.9387
  502MOL0     H67751   8.818   4.165   0.541 -0.9393  1.3686  1.0769
  502MOL0     H67752   8.991   4.580   0.687 -0.3049 -1.2020 -0.6486
  502MOL0     H67753   9.114   4.682   0.876 -0.2468  1.1886 -1.1053
  502MOL0     H67754   9.700   4.072   2.686  2.0469  0.2772  0.8820
  502MOL0     H67755   9.820   3.897   2.787 -1.1386  3.0769  0.9176
  502MOL0     H67756  10.256   3.502   2.700  3.4094  0.6878  1.8028
  502MOL0     H67757  10.321   3.370   2.878 -0.5002  0.5699  0.6397
  502MOL0     H67758  10.220   3.416   3.303  0.4500 -0.4312  1.8553
  502MOL0     H67759  10.341   3.547   3.274  2.2746 -0.9539  0.6426
  502MOL0     H67760  10.440   3.419   3.420 -2.5713 -0.0024 -0.0705
  502MOL0     H67761  10.530   3.352   3.279  1.1955  0.3877  3.0902
  502MOL0     H67762  10.326   3.218   3.448 -0.4017  2.6688  0.4653
  502MOL0     H67763  10.495   3.182   3.412  0.7945  3.1860  2.0466
  502MOL0     H67764  10.252   3.157   3.214  1.2389 -0.3839 -3.6277
  502MOL0     H67765  10.420   3.154   3.162 -1.0943  1.1727  0.1387
  502MOL0     H67766  10.364   2.781   3.322  0.3881  0.3524  1.2823
  502MOL0     H67767  10.173   3.646   3.158  4.0179 -0.0270 -0.2814
  502MOL0     H67768  10.024   3.808   3.112  4.0885 -0.4405  1.0602
  502MOL0     H67769  10.078   3.896   2.972 -0.8724  0.4971 -0.8815
  502MOL0     H67770   9.937   3.813   2.953 -0.3096 -2.2709  0.6523
  503MOL0     O67771   7.178  11.306   9.526  0.5054 -0.7134 -0.1846
  503MOL0     C67772   7.285  11.355   9.510 -0.7951  0.9119  0.9221
  503MOL0     O67773   7.382  11.380   9.594  0.0140  0.1930 -0.5098
  503MOL0     C67774   7.367  11.370   9.735  0.4241  0.4172 -0.1015
  503MOL0     C67775   7.453  11.452   9.805 -0.2969 -0.9419 -0.2256
  503MOL0     C67776   7.463  11.454   9.943  0.1996  0.4935 -1.0805
  503MOL0     C67777   7.396  11.359  10.026 -0.4041 -0.4556 -0.1617
  503MOL0     O67778   7.420  11.350  10.165  0.5490  0.5929  0.3727
  503MOL0     C67779   7.498  11.438  10.246  0.1250  0.7527  0.4700
  503MOL0     C67780   7.523  11.373  10.378  0.4776 -0.5894 -0.1825
  503MOL0     C67781   7.387  11.318  10.453 -0.7496  0.3765 -0.4329
  503MOL0     C67782   7.403  11.273  10.601  0.4452  0.8782  0.5629
  503MOL0     C67783   7.287  11.181  10.629 -0.5309  0.0662 -0.5023
  503MOL0     C67784   7.294  11.143  10.777 -0.3186  0.1079  0.9331
  503MOL0     C67785   7.274  10.993  10.800  0.0281 -0.1698  0.6907
  503MOL0     C67786   7.126  10.955  10.814 -0.2264 -0.6622 -0.4788
  503MOL0     N67787   7.116  10.836  10.893 -0.0173  0.3174 -0.3933
  503MOL0     C67788   7.047  10.728  10.849  0.2266 -0.3175  0.6867
  503MOL0     C67789   7.048  10.645  10.954  0.0673 -0.0046  0.4744
  503MOL0     C67790   6.985  10.506  10.945 -0.4897 -1.2320  0.4319
  503MOL0     C67791   7.033  10.417  10.827 -1.2768 -0.6707  0.5515
  503MOL0     C67792   7.171  10.340  10.850  0.4551  0.3940  0.2971
  503MOL0     C67793   7.198  10.254  10.728  1.0085 -0.6914 -0.6399
  503MOL0     O67794   7.312  10.169  10.728  0.2458 -0.1297  0.5232
  503MOL0     C67795   7.313  10.059  10.806  0.2318 -0.0807 -0.9957
  503MOL0     C67796   7.198  10.008  10.870  0.7918  0.2670 -0.6025
  503MOL0     C67797   7.209   9.888  10.945  0.4742  0.0097  0.2461
  503MOL0     C67798   7.334   9.829  10.970 -0.0466 -0.2391 -0.5499
  503MOL0     C67799   7.339   9.695  11.036 -0.9137  0.3809  0.0377
  503MOL0     O67800   7.244   9.663  11.123  0.4411 -0.7022  0.5582
  503MOL0     C67801   7.248   9.533  11.174  0.8774 -0.1936 -0.1740
  503MOL0     C67802   7.203   9.416  11.115  0.6595  0.5779 -0.3998
  503MOL0     C67803   7.196   9.296  11.183 -0.0988  0.1475  1.0550
  503MOL0     C67804   7.240   9.291  11.317 -0.2744 -0.5495 -0.0443
  503MOL0     O67805   7.230   9.168  11.383  0.2908 -0.7741 -0.1929
  503MOL0     C67806   7.362   9.111  11.425 -0.3864 -0.0488  0.4127
  503MOL0     C67807   7.331   8.990  11.509  0.0085 -0.1070  0.1845
  503MOL0     C67808   7.459   8.900  11.513 -1.1735  0.4483 -0.2304
  503MOL0     C67809   7.437   8.778  11.599 -0.7423  0.6471 -0.1676
  503MOL0     C67810   7.572   8.713  11.629 -0.8028 -0.1705 -0.1981
  503MOL0     C67811   7.565   8.567  11.657 -0.1592 -0.9972 -0.4938
  503MOL0     C67812   7.704   8.500  11.684 -0.5277 -0.0432 -0.2202
  503MOL0     C67813   7.740   8.396  11.576 -0.5817  0.2937  0.1518
  503MOL0    Cl67814   7.906   8.333  11.614 -0.9564 -0.0224  0.2217
  503MOL0     C67815   7.291   9.408  11.376  1.1875  1.2083  0.7891
  503MOL0     C67816   7.300   9.524  11.305 -0.0053  0.1774 -0.2135
  503MOL0     O67817   7.433   9.620  11.014  0.2162  0.2075 -0.3992
  503MOL0     C67818   7.446   9.883  10.911  0.1787  1.1810  0.9627
  503MOL0     C67819   7.424   9.990  10.818  0.4532  0.3860 -0.0816
  503MOL0     N67820   7.111  10.708  11.068 -0.3444  0.2544 -0.0132
  503MOL0     N67821   7.146  10.828  11.034 -0.8433  0.4643  0.7423
  503MOL0     C67822   7.311  11.277   9.962  0.7036  0.6788 -0.0160
  503MOL0     C67823   7.291  11.284   9.818  0.0518  0.3785  0.6331
  503MOL0     C67824   7.316  11.406   9.377  0.7049  1.0585  0.0412
  503MOL0     C67825   7.370  11.530   9.371 -0.4573  0.5166 -0.4160
  503MOL0     C67826   7.414  11.587   9.257  0.0669  0.3041  0.3029
  503MOL0     C67827   7.386  11.522   9.140 -0.3593 -1.2270 -0.0068
  503MOL0     O67828   7.438  11.599   9.037  0.5513 -0.1559  0.0101
  503MOL0     C67829   7.351  11.661   8.944 -0.4123  0.1684  0.2319
  503MOL0     C67830   7.298  11.566   8.841  0.5989 -0.6270  1.0218
  503MOL0     C67831   7.187  11.630   8.769  0.4716 -0.0929  0.2139
  503MOL0     C67832   7.210  11.744   8.663 -0.0324 -0.0621  0.1159
  503MOL0     C67833   7.277  11.683   8.537 -0.3821  0.2972  0.4005
  503MOL0     C67834   7.307  11.618   8.441 -0.5926  0.8884  0.6089
  503MOL0     C67835   7.338  11.390   9.141 -0.6059 -0.1160 -0.4108
  503MOL0     C67836   7.307  11.329   9.261 -0.2335 -0.2857 -0.5340
  503MOL0     C67837   7.283  11.189   9.259 -0.0722  0.2178  0.1542
  503MOL0     H67838   7.517  11.516   9.746  2.8741 -2.2338  1.5503
  503MOL0     H67839   7.535  11.523   9.985 -0.3908 -0.4925  1.8313
  503MOL0     H67840   7.597  11.461  10.204 -0.2852  0.1819 -0.8704
  503MOL0     H67841   7.454  11.536  10.267 -1.7982 -0.2081  1.1009
  503MOL0     H67842   7.557  11.452  10.446 -0.4345 -0.0218 -0.3576
  503MOL0     H67843   7.591  11.292  10.354  0.8115 -1.1731  2.4631
  503MOL0     H67844   7.349  11.235  10.394 -0.7508  0.1544 -0.1193
  503MOL0     H67845   7.320  11.405  10.456  1.2868  2.2268 -3.3835
  503MOL0     H67846   7.495  11.221  10.628  1.4932  1.9688 -0.7715
  503MOL0     H67847   7.403  11.368  10.655 -0.3332  2.6567 -2.3709
  503MOL0     H67848   7.189  11.227  10.616  0.1671  1.0933 -2.6901
  503MOL0     H67849   7.307  11.090  10.571  2.9378  0.6734 -0.5208
  503MOL0     H67850   7.392  11.154  10.823  0.2655 -3.5952  0.8903
  503MOL0     H67851   7.214  11.191  10.833 -0.4917 -2.0333  2.6648
  503MOL0     H67852   7.328  10.965  10.890  0.8313  0.8010  0.5327
  503MOL0     H67853   7.325  10.931  10.725 -2.4694 -1.6870  0.1128
  503MOL0     H67854   7.065  11.030  10.866  0.3843 -0.3286 -0.2281
  503MOL0     H67855   7.083  10.947  10.714 -2.1664  0.2744  0.2337
  503MOL0     H67856   7.028  10.711  10.744  0.1280 -0.7838  0.7802
  503MOL0     H67857   6.992  10.455  11.041 -3.9297 -3.2018 -0.2005
  503MOL0     H67858   6.878  10.527  10.934  0.2304  1.7060 -2.5365
  503MOL0     H67859   6.960  10.336  10.821 -1.9293 -0.1279  1.0899
  503MOL0     H67860   7.039  10.467  10.730 -0.5594 -0.8509  0.4965
  503MOL0     H67861   7.164  10.280  10.941  1.2418  0.4942  0.4282
  503MOL0     H67862   7.254  10.411  10.858 -0.0225  0.7503  5.5502
  503MOL0     H67863   7.214  10.317  10.640  2.3809  1.6367  1.1254
  503MOL0     H67864   7.110  10.196  10.703  1.1911 -0.4702 -1.8463
  503MOL0     H67865   7.101  10.054  10.855  0.9853  1.2109  0.8617
  503MOL0     H67866   7.121   9.835  10.980  1.6577 -2.8641 -0.7834
  503MOL0     H67867   7.173   9.422  11.011 -1.4681 -0.4001  0.0888
  503MOL0     H67868   7.165   9.209  11.127  0.0063  1.1339 -0.6107
  503MOL0     H67869   7.412   9.080  11.333 -0.6200 -0.2173  0.3405
  503MOL0     H67870   7.434   9.182  11.465 -0.9659  0.9790 -0.3135
  503MOL0     H67871   7.309   9.016  11.612  2.8231  1.1280  0.5319
  503MOL0     H67872   7.247   8.936  11.463  1.3789 -2.0270 -0.1925
  503MOL0     H67873   7.496   8.875  11.413  1.4087  1.2189  0.4539
  503MOL0     H67874   7.543   8.950  11.562 -0.0605  0.6603 -2.2548
  503MOL0     H67875   7.368   8.704  11.557 -2.0900  1.0875  1.1901
  503MOL0     H67876   7.381   8.798  11.690 -3.3870 -0.5645 -1.3944
  503MOL0     H67877   7.623   8.765  11.711 -2.2803  1.3522 -0.1834
  503MOL0     H67878   7.641   8.716  11.543  0.7502  1.0744  1.0325
  503MOL0     H67879   7.488   8.557  11.734  0.4280  1.1891  0.4336
  503MOL0     H67880   7.518   8.514  11.573 -0.9600  1.0425 -1.3906
  503MOL0     H67881   7.696   8.478  11.791  2.8441  1.2180  0.4251
  503MOL0     H67882   7.784   8.575  11.685 -1.5162  1.1297  2.6638
  503MOL0     H67883   7.669   8.313  11.571 -1.5270  1.0857  0.2669
  503MOL0     H67884   7.730   8.449  11.481 -0.4466  1.9374  1.0368
  503MOL0     H67885   7.318   9.399  11.481  1.9238 -3.9155  0.4146
  503MOL0     H67886   7.336   9.617  11.348  2.6162 -0.2155 -1.3570
  503MOL0     H67887   7.540   9.829  10.912 -0.6103 -0.3794 -1.0331
  503MOL0     H67888   7.512  10.035  10.773 -0.4430 -0.0253 -2.3545
  503MOL0     H67889   7.269  11.195  10.018  0.1637 -0.5651 -2.1063
  503MOL0     H67890   7.223  11.215   9.770  1.5816  0.1024 -1.2394
  503MOL0     H67891   7.373  11.598   9.456 -3.5832  0.2291  0.0692
  503MOL0     H67892   7.464  11.683   9.266  4.2241 -1.5966 -0.0298
  503MOL0     H67893   7.405  11.742   8.894  0.1141  0.5782  1.4246
  503MOL0     H67894   7.261  11.705   8.987 -1.8194  1.2279 -3.3795
  503MOL0     H67895   7.277  11.468   8.884 -0.9332  0.9575  4.2169
  503MOL0     H67896   7.371  11.547   8.762  1.1538 -1.6299  1.7613
  503MOL0     H67897   7.119  11.681   8.838  0.9575 -0.0547  0.6632
  503MOL0     H67898   7.129  11.556   8.712 -1.1855  0.2956  1.3349
  503MOL0     H67899   7.108  11.774   8.634 -0.3399  0.5126  1.7057
  503MOL0     H67900   7.258  11.835   8.700 -3.2985  2.8653 -2.0830
  503MOL0     H67901   7.344  11.548   8.368 -0.9077  2.0647 -0.7196
  503MOL0     H67902   7.342  11.330   9.051 -0.4730  3.1030 -2.7019
  503MOL0     H67903   7.177  11.184   9.232 -0.1574  3.3093 -0.4954
  503MOL0     H67904   7.341  11.147   9.176  2.5688  1.4916  1.2339
  503MOL0     H67905   7.303  11.135   9.352 -3.1491 -1.3213  0.0664
  504MOL0     O67906   6.795   3.089   8.738  0.4503 -0.2878  0.1431
  504MOL0     C67907   6.749   3.194   8.697 -0.0501 -0.8313 -0.8971
  504MOL0     O67908   6.826   3.303   8.656 -0.2690  0.1401  0.7638
  504MOL0     C67909   6.963   3.313   8.661  0.0606 -0.8287 -0.3494
  504MOL0     C67910   7.028   3.288   8.785  0.2914  0.0629  0.1074
  504MOL0     C67911   7.162   3.320   8.805 -1.4314  0.3329  0.4532
  504MOL0     C67912   7.243   3.361   8.699 -0.3869  0.2795 -0.3474
  504MOL0     O67913   7.375   3.385   8.733  0.7325 -0.2437 -0.3293
  504MOL0     C67914   7.454   3.454   8.645 -1.3532  0.3881  0.1373
  504MOL0     C67915   7.505   3.352   8.537  0.2478 -0.4509  0.2896
  504MOL0     C67916   7.613   3.402   8.430 -0.0769  0.5474 -0.3404
  504MOL0     C67917   7.747   3.419   8.497  0.1235  0.4871  0.4341
  504MOL0     C67918   7.862   3.448   8.391  0.4594  0.4054 -0.9272
  504MOL0     C67919   7.994   3.418   8.443 -0.1602 -0.3803 -0.5000
  504MOL0     C67920   8.034   3.269   8.437  0.3358 -0.4075 -0.3677
  504MOL0     C67921   8.189   3.262   8.445 -0.3997  0.2337 -0.4622
  504MOL0     N67922   8.225   3.290   8.584  0.0247  0.0122  0.6836
  504MOL0     C67923   8.227   3.203   8.684  0.1251  0.3019  0.3191
  504MOL0     C67924   8.291   3.267   8.781  0.4439  0.0429 -0.9193
  504MOL0     C67925   8.299   3.210   8.925  0.7549 -0.0908 -0.0576
  504MOL0     C67926   8.417   3.263   9.008  0.8217 -0.4223  0.1519
  504MOL0     C67927   8.396   3.413   9.054  0.7607 -0.4949  0.1361
  504MOL0     C67928   8.521   3.489   9.044 -1.0368 -0.7672 -0.1242
  504MOL0     O67929   8.515   3.626   9.092  0.2026  0.5807 -1.0395
  504MOL0     C67930   8.502   3.653   9.228 -0.6548 -0.7034  0.0511
  504MOL0     C67931   8.500   3.551   9.326  0.4129  0.6542 -0.3260
  504MOL0     C67932   8.487   3.587   9.460  0.0798  0.3851  0.2536
  504MOL0     C67933   8.475   3.726   9.505  0.0911  0.1887 -1.7956
  504MOL0     C67934   8.456   3.772   9.647 -0.1577 -0.6066 -0.0538
  504MOL0     O67935   8.506   3.891   9.676 -0.1350 -0.1983  0.0415
  504MOL0     C67936   8.500   3.938   9.807 -0.6427  0.0951 -0.3431
  504MOL0     C67937   8.597   4.038   9.833 -0.4960 -1.3096  0.4735
  504MOL0     C67938   8.609   4.101   9.961  0.0453 -0.6114 -0.5924
  504MOL0     C67939   8.509   4.070  10.060 -1.4539 -0.5002  0.3619
  504MOL0     O67940   8.533   4.137  10.173 -0.0112 -0.5151  0.3430
  504MOL0     C67941   8.460   4.102  10.287 -0.2162 -0.0293  0.7105
  504MOL0     C67942   8.325   4.164  10.285 -0.9113  1.0361 -0.3684
  504MOL0     C67943   8.245   4.168  10.420 -0.3681 -0.7716  0.2254
  504MOL0     C67944   8.299   4.255  10.536  0.7302 -0.0906 -0.4914
  504MOL0     C67945   8.199   4.265  10.654 -0.5172 -0.0989  0.4817
  504MOL0     C67946   8.065   4.300  10.606 -0.2427  0.5649  0.2493
  504MOL0     C67947   7.970   4.378  10.691 -0.5937  1.0576  0.4891
  504MOL0     C67948   7.824   4.377  10.647  1.2744  0.1917 -0.3956
  504MOL0    Cl67949   7.725   4.436  10.777 -0.1636  0.3625  0.4675
  504MOL0     C67950   8.414   3.974  10.033 -0.2837 -0.3556 -0.7359
  504MOL0     C67951   8.407   3.907   9.908  0.4190 -0.7518 -0.5190
  504MOL0     O67952   8.416   3.693   9.726 -0.5565 -0.1961  0.2941
  504MOL0     C67953   8.475   3.820   9.403 -0.4758 -1.2233  1.1728
  504MOL0     C67954   8.484   3.787   9.263 -0.0482  0.4697 -0.0394
  504MOL0     N67955   8.338   3.388   8.742  0.5051 -0.2041 -0.2682
  504MOL0     N67956   8.286   3.405   8.629 -0.5856  0.3769 -0.0125
  504MOL0     C67957   7.175   3.387   8.575 -0.0932  0.2140 -0.7158
  504MOL0     C67958   7.036   3.363   8.553 -0.5864  0.5422 -0.5690
  504MOL0     C67959   6.600   3.198   8.712  0.8440  0.6679 -0.2043
  504MOL0     C67960   6.544   3.325   8.728  0.1675 -0.5525 -0.1584
  504MOL0     C67961   6.406   3.344   8.699 -0.2267 -0.1239 -1.0719
  504MOL0     C67962   6.317   3.238   8.681 -0.1951  0.0516  0.7449
  504MOL0     O67963   6.186   3.273   8.667  0.1310 -0.2472 -0.0737
  504MOL0     C67964   6.095   3.191   8.586 -0.1104 -0.2313 -0.4509
  504MOL0     C67965   5.974   3.148   8.659  0.1741  0.7034  0.7894
  504MOL0     C67966   5.874   3.080   8.572  0.6548 -0.1898 -1.3508
  504MOL0     C67967   5.745   3.039   8.647 -0.5731 -0.6044  0.6545
  504MOL0     C67968   5.674   2.937   8.578 -0.0343  0.8286 -0.6025
  504MOL0     C67969   5.610   2.846   8.530  0.4264  0.3341 -0.5088
  504MOL0     C67970   6.368   3.113   8.680 -0.1456 -0.0612 -0.3784
  504MOL0     C67971   6.507   3.090   8.682 -0.1822 -0.5988  0.4009
  504MOL0     C67972   6.547   2.951   8.654 -0.0580  0.3045 -0.1399
  504MOL0     H67973   6.969   3.261   8.872 -0.0897 -0.0400 -0.1795
  504MOL0     H67974   7.212   3.306   8.900  1.3434 -3.0169 -1.2636
  504MOL0     H67975   7.408   3.545   8.606 -1.1328 -1.1903 -4.4310
  504MOL0     H67976   7.526   3.494   8.718 -3.5719  0.9380  2.1497
  504MOL0     H67977   7.419   3.318   8.480  2.0864 -0.9664 -2.3637
  504MOL0     H67978   7.531   3.262   8.594 -1.2746 -1.1825 -0.1258
  504MOL0     H67979   7.573   3.493   8.383  0.6023  0.2123 -1.6110
  504MOL0     H67980   7.614   3.326   8.352 -1.8004  1.0798 -0.9288
  504MOL0     H67981   7.734   3.504   8.565 -0.3095  1.5808 -0.9511
  504MOL0     H67982   7.761   3.333   8.563 -2.4290 -1.1820 -1.0481
  504MOL0     H67983   7.844   3.395   8.297 -1.6477 -2.1552  0.7789
  504MOL0     H67984   7.850   3.553   8.362 -0.6885  0.4999 -0.1757
  504MOL0     H67985   8.063   3.466   8.373 -0.8192  1.4961  0.0744
  504MOL0     H67986   7.998   3.456   8.545 -3.0024 -1.5629  0.1597
  504MOL0     H67987   8.013   3.224   8.339 -0.6887 -1.6538  0.3979
  504MOL0     H67988   8.002   3.207   8.521  0.6844 -0.0879  0.0033
  504MOL0     H67989   8.217   3.162   8.411  3.1040  0.9691 -0.1315
  504MOL0     H67990   8.247   3.322   8.373  1.0866 -1.4739 -0.7461
  504MOL0     H67991   8.192   3.100   8.687  2.4539 -1.0468 -5.6151
  504MOL0     H67992   8.202   3.238   8.968  1.8534  1.8352  1.3220
  504MOL0     H67993   8.317   3.102   8.926  1.4738  0.0245  0.5645
  504MOL0     H67994   8.418   3.189   9.088 -2.0441 -0.9243 -0.1988
  504MOL0     H67995   8.501   3.263   8.937  1.0060  0.9462  0.3350
  504MOL0     H67996   8.344   3.412   9.150 -3.5484 -1.2579 -1.9742
  504MOL0     H67997   8.321   3.466   8.994 -0.8493 -2.0418  0.6854
  504MOL0     H67998   8.557   3.500   8.942 -1.9194 -0.9009 -0.4565
  504MOL0     H67999   8.599   3.429   9.092  0.1676  1.0311  0.2707
  504MOL0     H68000   8.520   3.447   9.302  0.7625  1.3044 -3.1171
  504MOL0     H68001   8.501   3.503   9.527  0.2749 -1.5035 -2.0181
  504MOL0     H68002   8.655   4.069   9.747 -0.5940 -0.4629  0.7041
  504MOL0     H68003   8.671   4.188   9.981 -1.5446  0.7846 -1.4497
  504MOL0     H68004   8.464   3.993  10.298 -1.2221  0.0101  1.6271
  504MOL0     H68005   8.517   4.155  10.364  0.9112 -0.6075  0.3015
  504MOL0     H68006   8.340   4.264  10.243 -1.1788  0.9461 -0.6826
  504MOL0     H68007   8.259   4.100  10.227  1.8307 -1.7850 -0.6597
  504MOL0     H68008   8.143   4.188  10.387 -0.8914 -3.1171  0.2662
  504MOL0     H68009   8.253   4.069  10.465 -0.5482 -1.2907 -0.8635
  504MOL0     H68010   8.316   4.352  10.489 -0.2075 -0.2243 -1.1401
  504MOL0     H68011   8.393   4.213  10.575  1.9152  1.8393 -1.1179
  504MOL0     H68012   8.234   4.342  10.723  2.9627 -0.9467 -0.1126
  504MOL0     H68013   8.200   4.171  10.710 -2.2538 -0.9910 -0.8979
  504MOL0     H68014   8.083   4.354  10.512 -0.8920 -2.2389 -1.6053
  504MOL0     H68015   8.017   4.207  10.574 -0.0628  1.1626 -1.9059
  504MOL0     H68016   7.991   4.486  10.688 -2.5647  1.5495  2.0537
  504MOL0     H68017   7.995   4.342  10.791  0.1598 -0.9182 -0.3682
  504MOL0     H68018   7.817   4.430  10.552  0.0960  1.7930  0.5190
  504MOL0     H68019   7.800   4.272  10.628  5.5193 -1.1129  0.3773
  504MOL0     H68020   8.350   3.948  10.116  0.2162 -0.8647 -0.5020
  504MOL0     H68021   8.323   3.841   9.891 -0.5744  0.8030 -1.9832
  504MOL0     H68022   8.465   3.927   9.423 -0.4516 -1.4005  2.1715
  504MOL0     H68023   8.487   3.869   9.192  1.1200 -0.9150 -1.6493
  504MOL0     H68024   7.231   3.432   8.494  0.2268  3.6602  1.2216
  504MOL0     H68025   6.992   3.386   8.456 -1.3680  2.3906  0.1635
  504MOL0     H68026   6.601   3.415   8.746 -0.4370 -0.3993  1.1185
  504MOL0     H68027   6.375   3.447   8.689  0.1187  0.0328 -0.5683
  504MOL0     H68028   6.140   3.106   8.534  0.9259 -2.6662  3.8833
  504MOL0     H68029   6.072   3.271   8.515  1.5089  1.5269  0.8703
  504MOL0     H68030   5.927   3.230   8.713 -0.1422  0.6254  0.6339
  504MOL0     H68031   6.010   3.062   8.717  0.2776 -2.4997 -3.4803
  504MOL0     H68032   5.918   2.989   8.530 -0.1889 -1.4381  0.3389
  504MOL0     H68033   5.845   3.136   8.483 -2.2626 -1.3088 -1.2081
  504MOL0     H68034   5.771   3.016   8.750  2.7288  1.2068  0.3637
  504MOL0     H68035   5.681   3.128   8.638 -1.7855 -1.5563 -0.4637
  504MOL0     H68036   5.556   2.758   8.500 -0.5515  0.6826  0.1655
  504MOL0     H68037   6.293   3.035   8.678 -0.6960  0.3279  2.1248
  504MOL0     H68038   6.582   2.957   8.550 -0.8084 -1.7683 -0.5512
  504MOL0     H68039   6.626   2.924   8.725 -0.3983  3.2839  1.5067
  504MOL0     H68040   6.461   2.885   8.651 -2.3841  3.1736 -1.4030
  505MOL0     O68041   0.353  10.491   1.977  0.7158  0.0054  0.1322
  505MOL0     C68042   0.278  10.521   2.074  0.0091 -0.5284 -0.2856
  505MOL0     O68043   0.293  10.475   2.203  0.2411  0.6786  0.7830
  505MOL0     C68044   0.405  10.403   2.218 -0.2629  0.1320  0.6655
  505MOL0     C68045   0.531  10.455   2.233  0.2530  0.2703  0.0771
  505MOL0     C68046   0.646  10.370   2.251  0.6767 -0.1344  1.1781
  505MOL0     C68047   0.629  10.233   2.267  0.3235 -0.3324  0.3977
  505MOL0     O68048   0.746  10.165   2.288  0.8990  0.6149  0.1349
  505MOL0     C68049   0.734  10.021   2.289 -1.3068  0.5222 -1.0207
  505MOL0     C68050   0.872   9.960   2.272 -0.4224 -0.8655  0.5386
  505MOL0     C68051   0.903   9.947   2.117  0.3670 -0.2707  0.0002
  505MOL0     C68052   1.053   9.932   2.095 -0.6394 -0.3024 -0.4902
  505MOL0     C68053   1.096   9.968   1.955 -0.7764  0.0040  0.1112
  505MOL0     C68054   1.235   9.927   1.920  0.3223  0.5224 -0.3103
  505MOL0     C68055   1.285   9.988   1.787 -0.2601  0.8457 -0.2319
  505MOL0     C68056   1.403   9.905   1.737 -0.0733  0.0044  0.4844
  505MOL0     N68057   1.449   9.931   1.594 -0.3407 -0.2807 -0.0532
  505MOL0     C68058   1.452  10.053   1.536 -0.5140 -0.2525 -0.0350
  505MOL0     C68059   1.503  10.043   1.415 -0.2117 -0.6224 -0.0125
  505MOL0     C68060   1.519  10.161   1.319 -0.9270  0.6922 -0.5419
  505MOL0     C68061   1.526  10.118   1.167  0.4498 -0.5922  0.4901
  505MOL0     C68062   1.533  10.248   1.090 -0.1403 -1.1602 -0.4203
  505MOL0     C68063   1.550  10.222   0.938 -0.0242  0.4900 -0.3762
  505MOL0     O68064   1.573  10.356   0.900  0.7010 -0.3385 -0.1991
  505MOL0     C68065   1.663  10.382   0.800 -0.6537 -0.1002  0.8206
  505MOL0     C68066   1.658  10.318   0.679  0.5673  0.3981 -1.0662
  505MOL0     C68067   1.759  10.336   0.587 -0.3015 -0.1023  0.0366
  505MOL0     C68068   1.860  10.440   0.605  0.9281  0.4936 -0.7879
  505MOL0     C68069   1.964  10.455   0.507 -0.2943 -0.7454  0.5390
  505MOL0     O68070   1.973  10.356   0.413 -0.5949 -0.4038  0.6354
  505MOL0     C68071   2.076  10.350   0.326 -1.0404  0.2333  1.1326
  505MOL0     C68072   2.047  10.377   0.191 -0.1719  0.5906  0.2358
  505MOL0     C68073   2.144  10.362   0.097  0.6580  0.2663  0.0730
  505MOL0     C68074   2.275  10.342   0.133 -0.2831  0.3368  0.2551
  505MOL0     O68075   2.373  10.344   0.036 -0.0861 -0.3884 -0.4785
  505MOL0     C68076   2.464  10.238   0.045  0.4460 -0.4305 -0.1342
  505MOL0     C68077   2.514  10.205  -0.093  0.4670  0.4049 -0.0487
  505MOL0     C68078   2.594  10.065  -0.098  1.1223  0.0338 -0.0916
  505MOL0     C68079   2.709  10.060  -0.005  0.7942 -1.3049  0.5674
  505MOL0     C68080   2.785   9.924   0.000 -0.5479 -0.0809  0.9558
  505MOL0     C68081   2.685   9.809   0.048 -0.1642  0.9409 -0.0448
  505MOL0     C68082   2.640   9.845   0.194 -0.6140 -0.4656  0.6699
  505MOL0     C68083   2.554   9.726   0.249  0.0958  0.4440 -0.5898
  505MOL0    Cl68084   2.646   9.586   0.301 -0.1244  0.2789 -0.3562
  505MOL0     C68085   2.309  10.324   0.269 -0.2994  0.4391  0.6976
  505MOL0     C68086   2.202  10.316   0.361 -1.3653 -1.0190  0.0081
  505MOL0     O68087   2.038  10.553   0.521  0.9514  0.1379 -0.7642
  505MOL0     C68088   1.866  10.498   0.733 -0.5905 -0.0330 -0.3315
  505MOL0     C68089   1.767  10.470   0.826  0.0601 -0.9393 -0.0091
  505MOL0     N68090   1.520   9.903   1.401 -0.2384  0.0759  0.5767
  505MOL0     N68091   1.493   9.838   1.502  0.3995 -0.7043  0.2266
  505MOL0     C68092   0.505  10.175   2.240  0.3425  1.3319  0.6794
  505MOL0     C68093   0.395  10.259   2.217 -0.2381  0.7856  0.0518
  505MOL0     C68094   0.160  10.604   2.044  0.2129  0.7863  0.0222
  505MOL0     C68095   0.182  10.713   1.961 -0.5403  0.2990  0.3113
  505MOL0     C68096   0.075  10.803   1.938 -0.7498 -0.3191  0.1797
  505MOL0     C68097  -0.050  10.784   1.981 -0.0644 -0.1323 -0.7202
  505MOL0     O68098  -0.155  10.868   1.942 -0.1249  0.5384  0.1758
  505MOL0     C68099  -0.287  10.856   2.003  0.2914  1.0332 -0.6459
  505MOL0     C68100  -0.391  10.957   1.955 -1.3183  0.6185  0.5124
  505MOL0     C68101  -0.422  10.945   1.807  0.3080  0.3468 -0.0274
  505MOL0     C68102  -0.526  11.047   1.766  0.4672 -0.1176 -0.5950
  505MOL0     C68103  -0.613  10.994   1.662 -0.3648 -0.1650  0.1125
  505MOL0     C68104  -0.696  10.961   1.578  0.4686 -0.1177 -0.3544
  505MOL0     C68105  -0.078  10.676   2.066 -0.2431 -0.1360  0.4793
  505MOL0     C68106   0.031  10.598   2.107  0.3136  0.8957 -0.5119
  505MOL0     C68107   0.002  10.486   2.203 -0.3662 -0.4151 -0.2467
  505MOL0     H68108   0.562  10.558   2.248 -0.1606  0.3984  0.0798
  505MOL0     H68109   0.744  10.417   2.257  1.2321 -1.1956  0.6796
  505MOL0     H68110   0.701  10.005   2.391  1.4372  0.5424 -0.0569
  505MOL0     H68111   0.666   9.975   2.217 -2.2231 -2.3569  1.5043
  505MOL0     H68112   0.858   9.862   2.319 -1.2387 -0.3806  1.3268
  505MOL0     H68113   0.948  10.023   2.319  0.9284 -1.2149 -1.0746
  505MOL0     H68114   0.871  10.039   2.066  0.0004  0.7572  1.9970
  505MOL0     H68115   0.845   9.865   2.075  0.3455 -1.0287  1.4510
  505MOL0     H68116   1.113   9.998   2.159 -0.5260  0.4189 -1.3202
  505MOL0     H68117   1.081   9.832   2.128  3.5975  1.1093  0.8810
  505MOL0     H68118   1.042   9.917   1.874  0.7675 -1.2204 -0.1945
  505MOL0     H68119   1.098  10.076   1.938  0.2332  0.0127  0.2041
  505MOL0     H68120   1.300   9.961   2.002 -1.1051  0.6238  0.8241
  505MOL0     H68121   1.238   9.817   1.919 -1.3792  0.4546 -0.8448
  505MOL0     H68122   1.303  10.095   1.803 -2.8240  1.5144 -1.3870
  505MOL0     H68123   1.200   9.987   1.719 -3.3256 -2.8488  3.1380
  505MOL0     H68124   1.489   9.939   1.796  2.0317 -0.6435 -2.0029
  505MOL0     H68125   1.379   9.799   1.748 -2.4271  0.2955 -1.1108
  505MOL0     H68126   1.411  10.143   1.579 -1.1520  0.6226 -2.3444
  505MOL0     H68127   1.443  10.237   1.341 -1.6487  0.0702 -0.8433
  505MOL0     H68128   1.618  10.203   1.337 -1.5731  3.8040 -3.2420
  505MOL0     H68129   1.612  10.053   1.149  1.5038  0.1447  2.5238
  505MOL0     H68130   1.430  10.071   1.145  0.4583  0.6797 -2.7822
  505MOL0     H68131   1.615  10.305   1.133  1.2318 -2.0540 -1.7507
  505MOL0     H68132   1.447  10.315   1.098 -0.2841 -1.2994 -0.7838
  505MOL0     H68133   1.460  10.182   0.891 -0.9116  1.2904  0.5707
  505MOL0     H68134   1.629  10.148   0.926  1.8367  2.4661 -1.0050
  505MOL0     H68135   1.574  10.251   0.666 -0.9846  1.7609  1.1965
  505MOL0     H68136   1.766  10.268   0.503  0.5895 -2.4086  1.8926
  505MOL0     H68137   1.944  10.389   0.160 -0.1499  2.7188  0.8188
  505MOL0     H68138   2.114  10.371  -0.007  0.5704 -3.4544 -0.3401
  505MOL0     H68139   2.548  10.278   0.103 -0.7087  2.0522 -0.0361
  505MOL0     H68140   2.421  10.151   0.094 -0.6072 -0.0217 -0.3072
  505MOL0     H68141   2.430  10.200  -0.162  1.7536  1.8515 -1.8044
  505MOL0     H68142   2.589  10.276  -0.128 -0.6520  0.3361 -2.7833
  505MOL0     H68143   2.528   9.985  -0.065 -0.4265  2.5534  3.6565
  505MOL0     H68144   2.639  10.044  -0.195  0.5575 -0.4093 -0.2573
  505MOL0     H68145   2.673  10.102   0.089  3.0380  2.1084  0.1068
  505MOL0     H68146   2.780  10.133  -0.045  0.7255 -0.2540  2.2737
  505MOL0     H68147   2.867   9.930   0.072  1.3289 -1.1540 -0.9769
  505MOL0     H68148   2.827   9.904  -0.099 -0.7814  2.2235  0.3174
  505MOL0     H68149   2.605   9.800  -0.025 -1.2183  0.5894  1.1248
  505MOL0     H68150   2.736   9.713   0.060 -0.1363  1.2285  2.7932
  505MOL0     H68151   2.573   9.931   0.185  0.4475  0.3943  0.7903
  505MOL0     H68152   2.723   9.882   0.255  1.3711 -3.0329 -0.2704
  505MOL0     H68153   2.485   9.762   0.325 -1.2160  1.0647 -2.0092
  505MOL0     H68154   2.484   9.685   0.174 -0.0213 -0.7329  0.1382
  505MOL0     H68155   2.414  10.314   0.297 -0.2845 -1.5863  0.0684
  505MOL0     H68156   2.234  10.308   0.465  2.1478 -3.8984 -1.0943
  505MOL0     H68157   1.949  10.561   0.762 -0.7305 -0.4874  1.1457
  505MOL0     H68158   1.776  10.521   0.921 -1.6390  2.1118 -1.3464
  505MOL0     H68159   0.485  10.069   2.228  1.8276  0.8165  2.2849
  505MOL0     H68160   0.299  10.213   2.197  0.8768 -0.4691 -3.0317
  505MOL0     H68161   0.276  10.721   1.907  0.1738 -2.1030  1.0665
  505MOL0     H68162   0.087  10.890   1.874  0.7009 -1.9632 -1.9408
  505MOL0     H68163  -0.278  10.866   2.112 -1.5985  0.0180 -0.3567
  505MOL0     H68164  -0.342  10.762   2.002 -0.8854  1.6720  0.4595
  505MOL0     H68165  -0.337  11.051   1.970  0.1879 -0.3067  1.1012
  505MOL0     H68166  -0.485  10.951   2.011 -0.8825 -2.9318  1.0624
  505MOL0     H68167  -0.464  10.848   1.777  1.2623 -0.0959  0.0473
  505MOL0     H68168  -0.338  10.964   1.740 -0.6583  2.9650 -0.6339
  505MOL0     H68169  -0.591  11.064   1.853 -0.0387  1.5960 -1.2662
  505MOL0     H68170  -0.475  11.135   1.727  0.4898 -0.0019 -0.3031
  505MOL0     H68171  -0.765  10.923   1.504 -2.9716 -1.2309  3.0683
  505MOL0     H68172  -0.175  10.665   2.112  1.7368 -2.3481  4.6928
  505MOL0     H68173  -0.102  10.450   2.209 -0.5027 -0.4985 -2.3616
  505MOL0     H68174   0.060  10.396   2.178 -1.9086 -1.3715 -0.5646
  505MOL0     H68175   0.027  10.524   2.303 -1.6952 -1.4984  0.5440
  506MOL0     O68176   7.444  10.426   2.135 -1.0450  0.6498 -0.3645
  506MOL0     C68177   7.391  10.326   2.088  0.0133  1.0876 -0.1456
  506MOL0     O68178   7.453  10.233   2.017  0.3730 -0.5785  0.0270
  506MOL0     C68179   7.589  10.243   2.003  0.6184  0.2529  0.7549
  506MOL0     C68180   7.640  10.117   1.967 -0.4116 -0.5972  1.1064
  506MOL0     C68181   7.772  10.089   1.915 -0.4032 -0.8236 -0.4929
  506MOL0     C68182   7.851  10.203   1.890 -0.5946  0.0694 -0.9840
  506MOL0     O68183   7.974  10.173   1.839  0.7499 -0.4054  0.0249
  506MOL0     C68184   8.022  10.270   1.746  0.0024  1.0543  0.2544
  506MOL0     C68185   8.156  10.327   1.784 -0.2048  0.1870 -0.2820
  506MOL0     C68186   8.172  10.427   1.902  0.7613  0.6821  0.0232
  506MOL0     C68187   8.212  10.361   2.037  0.3594  0.6870  0.7509
  506MOL0     C68188   8.202  10.444   2.161 -0.5599 -0.6418  0.3011
  506MOL0     C68189   8.054  10.486   2.199 -0.3704 -0.1374 -0.8623
  506MOL0     C68190   7.974  10.378   2.258 -0.3223  0.5323 -0.5303
  506MOL0     C68191   7.827  10.403   2.299 -0.9249  0.0193 -0.4149
  506MOL0     N68192   7.791  10.459   2.432  0.1131 -0.7622  0.0380
  506MOL0     C68193   7.664  10.516   2.456 -0.6485  0.1896 -0.4034
  506MOL0     C68194   7.679  10.531   2.591  0.0342  0.5340 -0.8432
  506MOL0     C68195   7.569  10.566   2.686  0.6562  1.2209 -1.1177
  506MOL0     C68196   7.434  10.525   2.650 -0.1062  0.1861 -0.0888
  506MOL0     C68197   7.361  10.617   2.561  1.1463 -0.6840  0.1151
  506MOL0     C68198   7.224  10.568   2.523  1.1520 -0.2257 -0.1326
  506MOL0     O68199   7.136  10.680   2.510 -0.2547  0.5355 -0.1051
  506MOL0     C68200   7.016  10.663   2.576 -0.2051  0.1302 -0.1156
  506MOL0     C68201   6.894  10.652   2.506  0.0682 -0.1327  0.8811
  506MOL0     C68202   6.781  10.611   2.582 -0.4278  0.3569  0.0721
  506MOL0     C68203   6.786  10.604   2.719  0.1218 -0.1390 -0.4288
  506MOL0     C68204   6.664  10.583   2.796  0.6968 -0.3473  1.0953
  506MOL0     O68205   6.652  10.667   2.904  0.0827 -0.5334 -0.0802
  506MOL0     C68206   6.539  10.644   2.982  0.5915 -0.1272 -0.3828
  506MOL0     C68207   6.543  10.612   3.121 -0.4443 -0.3837 -1.2014
  506MOL0     C68208   6.420  10.597   3.194  0.4080 -0.9121  0.1279
  506MOL0     C68209   6.300  10.614   3.138 -0.1176  1.7867  0.3113
  506MOL0     O68210   6.186  10.612   3.215 -0.5822 -0.1958 -1.3183
  506MOL0     C68211   6.192  10.563   3.351  0.8101 -0.0696  0.5070
  506MOL0     C68212   6.048  10.540   3.392  0.7698 -0.6001  0.1528
  506MOL0     C68213   6.031  10.480   3.540 -0.5338  0.3424  0.4075
  506MOL0     C68214   5.882  10.449   3.566 -0.7697  0.2183 -0.7605
  506MOL0     C68215   5.877  10.381   3.708 -0.4126  0.4952  0.1810
  506MOL0     C68216   5.729  10.323   3.724  0.4762  0.3189 -0.1432
  506MOL0     C68217   5.710  10.284   3.874  1.1535 -0.0824 -0.2105
  506MOL0     C68218   5.579  10.190   3.892  0.0745  0.2431 -0.1489
  506MOL0    Cl68219   5.623  10.020   3.839  0.1185 -0.5038 -0.3945
  506MOL0     C68220   6.294  10.651   3.002  0.2288  1.2833  0.1315
  506MOL0     C68221   6.412  10.666   2.926  0.2445  0.0555  0.1627
  506MOL0     O68222   6.572  10.515   2.748  0.2624  0.2965  0.6196
  506MOL0     C68223   6.904  10.630   2.797  0.6457  0.5741 -0.0695
  506MOL0     C68224   7.024  10.644   2.718  0.7445 -0.3553 -0.0395
  506MOL0     N68225   7.806  10.492   2.641 -0.1320 -1.1419 -0.1605
  506MOL0     N68226   7.868  10.470   2.540 -0.3322 -0.6386  0.5597
  506MOL0     C68227   7.807  10.326   1.940 -0.7026  1.0548 -0.3138
  506MOL0     C68228   7.678  10.343   1.988 -1.2710 -0.3636  0.0199
  506MOL0     C68229   7.252  10.283   2.142 -0.5387 -0.9890  0.6652
  506MOL0     C68230   7.220  10.149   2.152  0.2854  0.0521  0.5905
  506MOL0     C68231   7.105  10.106   2.206  1.3502  0.3436 -0.2955
  506MOL0     C68232   7.033  10.207   2.274 -0.1255  0.3884 -0.1709
  506MOL0     O68233   6.932  10.154   2.364  0.6527 -0.5535  0.3382
  506MOL0     C68234   6.869  10.238   2.459 -0.3520  0.4707 -0.2081
  506MOL0     C68235   6.762  10.151   2.532 -0.2261  0.5863 -0.2341
  506MOL0     C68236   6.682  10.229   2.640  0.1978 -0.7455  0.6790
  506MOL0     C68237   6.551  10.162   2.679 -0.1072  0.5297 -0.8737
  506MOL0     C68238   6.564  10.021   2.702 -0.0641 -0.2606  0.2989
  506MOL0     C68239   6.591   9.912   2.739 -0.8561  0.2370  0.2222
  506MOL0     C68240   7.053  10.341   2.253 -0.6275  0.3335  0.0884
  506MOL0     C68241   7.162  10.390   2.181  1.6152 -0.2815  0.5279
  506MOL0     C68242   7.185  10.543   2.159  0.3687  0.3421 -0.4548
  506MOL0     H68243   7.579  10.029   1.986 -0.0484 -0.7604  1.5134
  506MOL0     H68244   7.799   9.986   1.895 -0.9583 -0.8336 -1.2409
  506MOL0     H68245   8.040  10.218   1.652 -1.7298  0.1547  0.3809
  506MOL0     H68246   7.954  10.356   1.738  1.7071  2.5517  1.1667
  506MOL0     H68247   8.193  10.377   1.694 -2.4463 -0.9141 -1.9177
  506MOL0     H68248   8.229  10.245   1.790 -1.9182 -1.2813  3.0064
  506MOL0     H68249   8.078  10.485   1.903  0.1414 -0.1897 -2.2141
  506MOL0     H68250   8.248  10.501   1.875  1.0599  1.3073  2.3678
  506MOL0     H68251   8.144  10.276   2.046 -1.3195  1.6628 -1.7248
  506MOL0     H68252   8.311  10.317   2.018 -0.8273 -1.8493 -0.0319
  506MOL0     H68253   8.244  10.390   2.247  0.7174 -1.4093 -0.7539
  506MOL0     H68254   8.266  10.533   2.153 -0.2991 -0.7891  0.6888
  506MOL0     H68255   8.056  10.550   2.287  0.0094 -1.0159 -0.2190
  506MOL0     H68256   7.996  10.533   2.119 -0.1331 -1.6564 -1.9673
  506MOL0     H68257   8.031  10.356   2.349  0.5234  2.3050 -0.5869
  506MOL0     H68258   7.975  10.295   2.187 -0.7097  0.3084 -0.2812
  506MOL0     H68259   7.774  10.465   2.225 -0.4678  1.2065  0.2300
  506MOL0     H68260   7.782  10.305   2.279 -2.5061  0.9749 -1.8696
  506MOL0     H68261   7.575  10.520   2.394 -1.2742  3.8970  0.5057
  506MOL0     H68262   7.601  10.517   2.779 -0.0203  2.3878 -0.2383
  506MOL0     H68263   7.560  10.674   2.699 -0.0556  1.8089 -5.3083
  506MOL0     H68264   7.429  10.428   2.602 -1.1745  0.1584  0.0510
  506MOL0     H68265   7.375  10.508   2.741 -1.5116 -1.8470 -1.3125
  506MOL0     H68266   7.419  10.639   2.470 -0.5518  0.6288 -0.6953
  506MOL0     H68267   7.335  10.708   2.616 -1.5142 -1.7753  0.8258
  506MOL0     H68268   7.187  10.496   2.597 -1.2933  0.7641 -0.2682
  506MOL0     H68269   7.242  10.512   2.431  3.3857 -0.4081  0.3796
  506MOL0     H68270   6.888  10.656   2.398 -1.5011 -0.5914  0.9209
  506MOL0     H68271   6.689  10.578   2.534  0.6995 -0.9115 -1.3377
  506MOL0     H68272   6.639  10.613   3.172 -1.0305  2.5518  0.0925
  506MOL0     H68273   6.447  10.575   3.297  3.0416  0.4931 -0.1919
  506MOL0     H68274   6.242  10.466   3.359 -1.1203 -1.0378  1.7875
  506MOL0     H68275   6.250  10.636   3.407  2.5260  0.0831 -1.3450
  506MOL0     H68276   6.001  10.639   3.385 -2.1920 -1.9011 -0.1600
  506MOL0     H68277   5.997  10.469   3.326  1.5483  0.3365 -1.5069
  506MOL0     H68278   6.087  10.387   3.552 -1.0465  0.0485  0.5746
  506MOL0     H68279   6.070  10.551   3.613  0.8311 -0.4226  0.4521
  506MOL0     H68280   5.857  10.378   3.486 -2.1812  3.7465 -3.7551
  506MOL0     H68281   5.818  10.537   3.560 -0.5847  0.4878  0.9040
  506MOL0     H68282   5.892  10.465   3.777  3.3087  0.3702 -0.2535
  506MOL0     H68283   5.957  10.307   3.719 -0.9628 -0.2843 -0.8973
  506MOL0     H68284   5.670  10.411   3.696 -0.8744  0.1767  2.0059
  506MOL0     H68285   5.709  10.242   3.653  1.2750 -0.6215  0.6736
  506MOL0     H68286   5.700  10.376   3.933 -1.9235 -1.7714  2.1688
  506MOL0     H68287   5.796  10.232   3.916  0.1816  0.0371  2.0716
  506MOL0     H68288   5.549  10.183   3.997  0.7234 -0.5771 -0.0119
  506MOL0     H68289   5.496  10.236   3.838 -0.5651  0.5227  1.0308
  506MOL0     H68290   6.194  10.671   2.964  0.6573 -1.4660 -2.8924
  506MOL0     H68291   6.416  10.706   2.826  2.5539 -2.4815 -0.8715
  506MOL0     H68292   6.905  10.632   2.906 -2.3686 -0.4335  0.0800
  506MOL0     H68293   7.115  10.620   2.773  1.1766  0.0565 -0.5626
  506MOL0     H68294   7.872  10.413   1.944 -3.5977  3.3110  0.7818
  506MOL0     H68295   7.652  10.443   2.019 -2.8317 -0.9714  0.8151
  506MOL0     H68296   7.280  10.067   2.113 -1.3040  0.6179 -3.5309
  506MOL0     H68297   7.069  10.004   2.218  3.2240 -0.1011  2.1174
  506MOL0     H68298   6.808  10.311   2.405 -0.6503 -1.1209 -2.1454
  506MOL0     H68299   6.935  10.287   2.531 -1.1095  3.3527 -1.3106
  506MOL0     H68300   6.821  10.067   2.569 -0.0017  0.0596 -1.7439
  506MOL0     H68301   6.687  10.117   2.460 -1.1965 -0.3069  1.1390
  506MOL0     H68302   6.665  10.329   2.601 -1.4197 -1.2002  0.1434
  506MOL0     H68303   6.742  10.230   2.732  1.7806 -0.1226 -0.3084
  506MOL0     H68304   6.518  10.210   2.772 -0.3457 -1.2307 -0.0170
  506MOL0     H68305   6.477  10.168   2.598 -1.7545 -0.2352  0.5117
  506MOL0     H68306   6.617   9.814   2.772  1.5274  1.1489  1.3205
  506MOL0     H68307   6.984  10.414   2.295 -1.3658 -0.4351  0.2283
  506MOL0     H68308   7.092  10.583   2.118  0.9179 -0.2751 -2.4173
  506MOL0     H68309   7.199  10.593   2.255  2.8794  3.0889 -2.1110
  506MOL0     H68310   7.274  10.570   2.101  0.3815  0.2958 -0.4572
  507MOL0     O68311   6.643   3.322   6.606 -0.1604  0.4007 -0.6120
  507MOL0     C68312   6.673   3.211   6.654  0.0044 -0.2185 -0.0788
  507MOL0     O68313   6.600   3.139   6.746  1.0291 -0.3157 -0.1700
  507MOL0     C68314   6.526   3.198   6.843  0.4975 -0.6884 -0.2438
  507MOL0     C68315   6.481   3.333   6.852  0.8779  0.6975  0.6720
  507MOL0     C68316   6.417   3.377   6.958 -0.5129  0.2885  0.1704
  507MOL0     C68317   6.359   3.293   7.050 -0.5110 -0.8884 -0.3949
  507MOL0     O68318   6.300   3.349   7.162  0.5616  0.8376 -0.8355
  507MOL0     C68319   6.183   3.275   7.213 -1.0047  0.1745  1.2186
  507MOL0     C68320   6.077   3.391   7.224  0.8668 -0.2309  0.0827
  507MOL0     C68321   5.941   3.329   7.265 -0.7400  1.3068  0.1010
  507MOL0     C68322   5.836   3.429   7.297 -0.1515 -0.3026  0.3133
  507MOL0     C68323   5.697   3.372   7.297  0.2372  0.3663  0.0387
  507MOL0     C68324   5.582   3.464   7.325  0.2718 -0.5842 -0.4556
  507MOL0     C68325   5.459   3.374   7.364 -0.4957 -0.2736 -0.0931
  507MOL0     C68326   5.343   3.460   7.348 -0.1760 -0.7150  0.4345
  507MOL0     N68327   5.224   3.382   7.350  0.4295  0.4985  0.4364
  507MOL0     C68328   5.182   3.297   7.245  0.5102  0.7703  0.1789
  507MOL0     C68329   5.069   3.239   7.304  0.2552  0.6028  0.1261
  507MOL0     C68330   4.974   3.135   7.259  0.0659  0.6033 -0.4534
  507MOL0     C68331   4.956   3.115   7.110  0.2765 -0.5991 -0.2139
  507MOL0     C68332   4.869   3.230   7.048 -0.0225 -0.7782  0.2279
  507MOL0     C68333   4.786   3.187   6.926  0.1161 -1.0834  0.0718
  507MOL0     O68334   4.880   3.132   6.830  0.2108 -0.4419 -1.0401
  507MOL0     C68335   4.831   3.021   6.764 -0.0210 -0.4215 -0.2393
  507MOL0     C68336   4.709   3.015   6.697  0.3432  0.3205  0.8672
  507MOL0     C68337   4.662   2.902   6.631 -0.6611 -0.5749 -0.5181
  507MOL0     C68338   4.741   2.782   6.645  0.6007 -0.9164  0.2893
  507MOL0     C68339   4.692   2.655   6.587 -0.5126  0.1120 -0.2270
  507MOL0     O68340   4.590   2.667   6.496 -0.2305 -0.0568  0.1294
  507MOL0     C68341   4.534   2.554   6.444  0.7521 -0.7505  0.1208
  507MOL0     C68342   4.598   2.445   6.395 -0.2252 -0.3281 -0.1028
  507MOL0     C68343   4.536   2.338   6.323 -0.5459 -0.4599  0.0536
  507MOL0     C68344   4.394   2.346   6.313 -0.2034 -0.0985  0.9951
  507MOL0     O68345   4.318   2.255   6.240  0.3932  1.0931  0.9446
  507MOL0     C68346   4.236   2.162   6.311 -1.0954  0.8661  0.1300
  507MOL0     C68347   4.175   2.072   6.204  0.0032  0.4266 -0.6440
  507MOL0     C68348   4.067   1.990   6.278  0.3928  1.6928 -0.2999
  507MOL0     C68349   3.988   1.888   6.194  0.2239 -0.5593  0.0072
  507MOL0     C68350   3.866   1.836   6.279  0.4548  0.1258  0.7785
  507MOL0     C68351   3.766   1.748   6.196 -0.2478  0.1558  0.6002
  507MOL0     C68352   3.624   1.783   6.194  0.2103 -0.1410  0.0610
  507MOL0     C68353   3.534   1.688   6.101 -0.4680 -0.1923  0.5904
  507MOL0    Cl68354   3.474   1.553   6.195  0.3900  0.1495 -0.0193
  507MOL0     C68355   4.318   2.453   6.371 -0.2183 -0.1885 -0.0195
  507MOL0     C68356   4.391   2.557   6.435  1.0707  0.1027  0.5623
  507MOL0     O68357   4.761   2.556   6.605  0.7768  0.4448  0.8347
  507MOL0     C68358   4.856   2.782   6.713  0.2380  0.8942  0.2360
  507MOL0     C68359   4.901   2.904   6.773 -1.0796  0.3484 -0.0938
  507MOL0     N68360   5.049   3.299   7.430  0.3083 -0.0968  0.0688
  507MOL0     N68361   5.149   3.376   7.457 -0.1627 -0.2957  0.0888
  507MOL0     C68362   6.391   3.162   7.044 -0.0297  0.1335 -0.2144
  507MOL0     C68363   6.470   3.114   6.945 -0.9193  0.3306  1.3232
  507MOL0     C68364   6.787   3.138   6.601  0.4190 -0.2435  0.3317
  507MOL0     C68365   6.839   3.023   6.674 -1.0412 -0.8324  0.2452
  507MOL0     C68366   6.946   2.951   6.626 -0.7622 -0.5889 -0.8986
  507MOL0     C68367   7.011   2.984   6.507  0.2824 -0.3215 -0.1909
  507MOL0     O68368   7.115   2.920   6.452 -0.2787 -1.2462 -0.1270
  507MOL0     C68369   7.083   2.784   6.407  0.4644  1.0250 -0.7824
  507MOL0     C68370   7.199   2.711   6.348 -0.1551 -0.7462 -0.3633
  507MOL0     C68371   7.256   2.788   6.216  0.7213 -0.7136 -0.0758
  507MOL0     C68372   7.349   2.702   6.129  0.4605 -0.2376 -0.6466
  507MOL0     C68373   7.265   2.605   6.050  0.4870 -0.4919  0.2273
  507MOL0     C68374   7.199   2.532   5.990  0.5079 -0.2520 -0.5610
  507MOL0     C68375   6.954   3.080   6.429 -0.0929 -0.1976 -0.5685
  507MOL0     C68376   6.843   3.163   6.465  0.2109 -0.1500 -0.2975
  507MOL0     C68377   6.811   3.278   6.373  0.0478 -0.2217  0.3429
  507MOL0     H68378   6.493   3.399   6.766 -1.5758  0.7200  0.2545
  507MOL0     H68379   6.402   3.482   6.979  2.0660  0.3752  2.2218
  507MOL0     H68380   6.161   3.194   7.143  0.8904  0.1908  0.5542
  507MOL0     H68381   6.207   3.228   7.309  0.4380 -0.6059  0.5072
  507MOL0     H68382   6.071   3.438   7.125  0.8305  0.1299  0.2573
  507MOL0     H68383   6.109   3.469   7.293  0.3257  1.6472 -1.7007
  507MOL0     H68384   5.966   3.268   7.352  4.6192 -1.7930 -3.0584
  507MOL0     H68385   5.903   3.259   7.190  0.0512 -0.4918  1.2803
  507MOL0     H68386   5.862   3.476   7.393  0.3022  1.6680 -0.7041
  507MOL0     H68387   5.847   3.516   7.231 -1.5095  0.7513  1.4142
  507MOL0     H68388   5.673   3.331   7.198 -0.3629  0.7984 -0.0004
  507MOL0     H68389   5.696   3.284   7.362  1.6010 -0.6971 -1.2956
  507MOL0     H68390   5.607   3.530   7.408  1.6447 -3.0150  1.1871
  507MOL0     H68391   5.567   3.526   7.236 -4.4423  2.7474  2.1877
  507MOL0     H68392   5.456   3.344   7.469  1.8034  1.4509  0.5503
  507MOL0     H68393   5.450   3.290   7.295  0.1280  2.0706 -3.2843
  507MOL0     H68394   5.322   3.532   7.427 -1.4028 -1.3994  0.7571
  507MOL0     H68395   5.348   3.506   7.249  3.0068 -2.2169 -0.2359
  507MOL0     H68396   5.223   3.281   7.145  2.8004  0.5476  1.0955
  507MOL0     H68397   5.006   3.037   7.295 -2.2817  0.0346  0.2548
  507MOL0     H68398   4.879   3.160   7.307  0.5273 -1.3437  1.6558
  507MOL0     H68399   5.056   3.120   7.066 -0.6876 -0.5495 -2.5435
  507MOL0     H68400   4.921   3.016   7.080 -0.0281 -0.4866 -0.2251
  507MOL0     H68401   4.930   3.314   7.015 -2.1850  3.1194  4.8050
  507MOL0     H68402   4.783   3.259   7.110  0.2356  0.8365 -0.1251
  507MOL0     H68403   4.731   3.273   6.886  1.7993  0.5082  1.0216
  507MOL0     H68404   4.706   3.119   6.959 -4.4990  2.9494 -1.5293
  507MOL0     H68405   4.642   3.099   6.687 -0.1090 -0.1585 -0.5071
  507MOL0     H68406   4.568   2.917   6.580 -1.5084  1.5301  1.4949
  507MOL0     H68407   4.706   2.443   6.407 -0.3429  1.6545  1.9871
  507MOL0     H68408   4.597   2.255   6.290  1.6326 -0.9317  4.5303
  507MOL0     H68409   4.286   2.109   6.393  0.2460  2.0108  0.0829
  507MOL0     H68410   4.157   2.215   6.365 -2.1459  1.1457 -1.5799
  507MOL0     H68411   4.127   2.134   6.127  2.0752  1.7628 -0.9271
  507MOL0     H68412   4.252   2.003   6.168 -0.2261 -0.4205  0.4232
  507MOL0     H68413   4.110   1.944   6.368 -0.4575  0.1485 -0.6443
  507MOL0     H68414   4.005   2.066   6.326  0.6593  2.3287 -0.9486
  507MOL0     H68415   4.059   1.810   6.161  1.5067  1.2246 -1.7004
  507MOL0     H68416   3.944   1.947   6.114 -1.9541  0.6840  2.0007
  507MOL0     H68417   3.807   1.922   6.312 -0.4406 -0.8244  1.7357
  507MOL0     H68418   3.898   1.780   6.368  1.1851 -0.7947 -0.0443
  507MOL0     H68419   3.803   1.753   6.093  0.4561 -0.1659  0.8369
  507MOL0     H68420   3.771   1.645   6.231  0.3470  0.1248  0.4307
  507MOL0     H68421   3.623   1.889   6.167  0.0384  0.6921  2.9452
  507MOL0     H68422   3.593   1.774   6.299 -2.1113 -1.6403 -0.6817
  507MOL0     H68423   3.448   1.751   6.077 -1.9790 -1.7530  1.6823
  507MOL0     H68424   3.591   1.662   6.012 -0.0678  0.1695  0.7340
  507MOL0     H68425   4.210   2.448   6.360 -0.2469 -1.9086  0.7231
  507MOL0     H68426   4.347   2.644   6.481  0.1441  1.1756 -2.1310
  507MOL0     H68427   4.914   2.691   6.726 -0.4375  0.7382  2.8696
  507MOL0     H68428   4.998   2.912   6.822  0.0125 -1.4960 -1.7667
  507MOL0     H68429   6.366   3.112   7.137  3.0890 -0.0273  0.6535
  507MOL0     H68430   6.494   3.008   6.938 -0.2541  0.5525 -0.4391
  507MOL0     H68431   6.797   3.013   6.773 -0.2772  0.0085  0.6721
  507MOL0     H68432   7.008   2.884   6.684 -0.5326 -0.8787 -1.4642
  507MOL0     H68433   6.989   2.780   6.352 -1.1284 -0.0370  1.7984
  507MOL0     H68434   7.068   2.719   6.494  2.8203  1.7307  0.2355
  507MOL0     H68435   7.179   2.605   6.326  2.1841 -1.1725 -0.6574
  507MOL0     H68436   7.276   2.715   6.425 -1.1344  0.7657  0.5724
  507MOL0     H68437   7.325   2.866   6.250 -2.7467  3.9577 -2.5731
  507MOL0     H68438   7.176   2.829   6.155  1.3057 -1.7851 -1.6161
  507MOL0     H68439   7.409   2.769   6.066  0.4026 -1.2188 -1.7944
  507MOL0     H68440   7.428   2.660   6.191  2.3589  2.5554 -0.9702
  507MOL0     H68441   7.145   2.465   5.926  2.0810 -2.2462  0.0807
  507MOL0     H68442   7.002   3.084   6.331 -1.6981 -5.2007 -1.8193
  507MOL0     H68443   6.880   3.285   6.288  0.7457  0.3831  0.9461
  507MOL0     H68444   6.709   3.253   6.343  0.5073 -3.0870  0.9300
  507MOL0     H68445   6.813   3.377   6.420 -1.8965 -1.1237  2.4808
  508MOL0     O68446   5.948   8.853   1.138  0.2336  0.1584 -0.1990
  508MOL0     C68447   6.065   8.861   1.091  0.7373  0.0881  0.2027
  508MOL0     O68448   6.166   8.820   1.170  0.0257 -0.3075 -0.5199
  508MOL0     C68449   6.135   8.739   1.276  0.3151  0.1935 -0.4878
  508MOL0     C68450   6.182   8.764   1.407  0.1910  0.1953  0.8774
  508MOL0     C68451   6.141   8.688   1.515 -0.1654  0.0683 -0.6053
  508MOL0     C68452   6.068   8.571   1.503 -0.1855  0.0206  0.8123
  508MOL0     O68453   6.036   8.499   1.616  0.0152 -0.4602  0.3396
  508MOL0     C68454   5.971   8.377   1.617 -0.1815  0.4217 -0.1956
  508MOL0     C68455   5.820   8.398   1.596 -0.2870  0.0901  0.4418
  508MOL0     C68456   5.736   8.264   1.597 -0.5213 -0.5876 -0.3117
  508MOL0     C68457   5.765   8.165   1.479 -0.8389 -0.8224 -0.2759
  508MOL0     C68458   5.729   8.021   1.512  0.6922 -0.3712 -0.6104
  508MOL0     C68459   5.769   7.917   1.410  0.5277  0.5136  0.0060
  508MOL0     C68460   5.719   7.776   1.441 -0.3197 -0.5077 -0.4788
  508MOL0     C68461   5.781   7.720   1.569 -0.6537  0.4047 -0.3874
  508MOL0     N68462   5.742   7.575   1.585 -0.3316  1.0781  0.6542
  508MOL0     C68463   5.658   7.517   1.678 -0.5163  0.2156  0.1191
  508MOL0     C68464   5.673   7.383   1.676  0.2437 -0.5903  0.6877
  508MOL0     C68465   5.619   7.285   1.773 -0.3527 -1.3684  0.6797
  508MOL0     C68466   5.483   7.240   1.725  0.1921  1.0230 -0.0912
  508MOL0     C68467   5.376   7.351   1.727  0.1957  0.0095  0.3143
  508MOL0     C68468   5.235   7.289   1.718 -0.3604  0.0446  0.2127
  508MOL0     O68469   5.185   7.241   1.594  0.6883  0.8486 -0.6085
  508MOL0     C68470   5.049   7.238   1.564 -0.1526 -0.4644  0.2766
  508MOL0     C68471   5.009   7.213   1.439  0.0716  0.6199  0.3802
  508MOL0     C68472   4.872   7.213   1.408  0.3446  1.3249  1.0440
  508MOL0     C68473   4.778   7.234   1.516  0.1596  0.4158 -0.8040
  508MOL0     C68474   4.635   7.222   1.499  0.4247  0.1990  0.1896
  508MOL0     O68475   4.593   7.152   1.384  0.3626  0.6208  0.0002
  508MOL0     C68476   4.462   7.125   1.358  0.4167 -0.6256  0.0015
  508MOL0     C68477   4.371   7.229   1.350  0.8610 -0.1037  0.2101
  508MOL0     C68478   4.235   7.211   1.309 -0.0163  0.1355 -0.4390
  508MOL0     C68479   4.196   7.079   1.287  0.2366 -0.0384  0.4142
  508MOL0     O68480   4.073   7.037   1.241 -0.3072 -0.0039  0.4675
  508MOL0     C68481   3.987   7.134   1.174  0.1122  0.2053  0.1604
  508MOL0     C68482   3.907   7.050   1.083 -0.0033  0.6782 -0.7473
  508MOL0     C68483   3.797   7.138   1.019  0.4532 -0.0983  0.0967
  508MOL0     C68484   3.687   7.055   0.954  0.2934 -0.5764  0.1040
  508MOL0     C68485   3.544   7.118   0.946  0.8461 -0.3195  0.5671
  508MOL0     C68486   3.434   7.027   0.880  0.9449  0.2149  0.8713
  508MOL0     C68487   3.287   7.065   0.918 -1.0459 -0.7437 -0.6542
  508MOL0     C68488   3.187   7.006   0.824  0.7993 -0.0745  0.0071
  508MOL0    Cl68489   3.022   7.010   0.875  0.1715  0.0052 -0.3281
  508MOL0     C68490   4.276   6.972   1.311 -0.4735 -0.4480 -0.4402
  508MOL0     C68491   4.408   6.995   1.338 -0.1757 -0.0175 -0.7259
  508MOL0     O68492   4.558   7.272   1.581 -0.8584 -0.3865 -0.3887
  508MOL0     C68493   4.826   7.261   1.645  0.5693  1.1488 -0.3485
  508MOL0     C68494   4.956   7.251   1.662 -0.2371  0.2225  0.0108
  508MOL0     N68495   5.753   7.357   1.564  0.4036 -0.2942 -0.2727
  508MOL0     N68496   5.798   7.476   1.513 -0.3290 -0.0887 -0.3195
  508MOL0     C68497   6.032   8.535   1.370  0.0519 -0.0580 -0.6400
  508MOL0     C68498   6.066   8.617   1.262 -0.8154 -0.3382  0.7889
  508MOL0     C68499   6.103   8.907   0.948  0.4476  0.8709  0.4178
  508MOL0     C68500   6.226   8.876   0.895  0.5631  0.2066 -0.1298
  508MOL0     C68501   6.256   8.903   0.759  0.1767  0.4879  0.0186
  508MOL0     C68502   6.172   8.969   0.679 -0.0201  0.2592 -0.4089
  508MOL0     O68503   6.215   8.983   0.553  0.5677  0.2421 -0.3335
  508MOL0     C68504   6.119   9.002   0.438 -1.2221  0.1494 -0.6823
  508MOL0     C68505   6.212   9.031   0.321 -0.1275  0.6725  0.3907
  508MOL0     C68506   6.141   8.994   0.185 -0.2810  0.6724  0.3968
  508MOL0     C68507   6.026   9.084   0.124  0.0343  0.2682  0.2568
  508MOL0     C68508   6.071   9.215   0.079  0.7634 -1.0306  0.0860
  508MOL0     C68509   6.127   9.310   0.033 -0.2287 -0.0668 -0.4375
  508MOL0     C68510   6.039   9.002   0.731  0.6669 -0.5630  0.2395
  508MOL0     C68511   6.010   8.984   0.863  0.6060  0.8514 -0.7848
  508MOL0     C68512   5.877   9.043   0.908  0.1332  0.5178 -1.2569
  508MOL0     H68513   6.250   8.845   1.429  1.8625  0.2152 -3.3998
  508MOL0     H68514   6.192   8.718   1.605  3.7939 -3.1437 -1.5127
  508MOL0     H68515   6.016   8.324   1.532 -0.0135  2.1288 -1.2006
  508MOL0     H68516   5.993   8.319   1.708  1.4383  0.0717 -0.7798
  508MOL0     H68517   5.797   8.440   1.498 -5.8979 -3.6947 -0.3418
  508MOL0     H68518   5.785   8.469   1.671 -3.0148 -1.9279  1.2528
  508MOL0     H68519   5.631   8.293   1.599 -0.9046 -1.9477 -0.0260
  508MOL0     H68520   5.751   8.224   1.698 -1.5320 -0.2655 -0.0211
  508MOL0     H68521   5.721   8.194   1.383 -0.6392  3.3945  0.7167
  508MOL0     H68522   5.873   8.162   1.460 -0.6674 -0.3842  0.6149
  508MOL0     H68523   5.768   8.006   1.613  2.4802  0.0375 -1.2119
  508MOL0     H68524   5.620   8.020   1.523  0.8799 -0.7491  1.8417
  508MOL0     H68525   5.733   7.951   1.312  1.4686  0.3025 -0.4255
  508MOL0     H68526   5.879   7.918   1.408  0.5592  3.3440 -1.0289
  508MOL0     H68527   5.746   7.713   1.356  2.0934 -1.9553  1.2187
  508MOL0     H68528   5.610   7.780   1.450 -0.2681  2.2301 -0.2970
  508MOL0     H68529   5.888   7.741   1.566 -0.0911 -1.9290  1.1127
  508MOL0     H68530   5.755   7.780   1.657 -0.3151 -1.0785  0.7566
  508MOL0     H68531   5.604   7.572   1.755  0.2831  1.4111 -0.1333
  508MOL0     H68532   5.678   7.193   1.770  0.5309 -0.8170  0.7233
  508MOL0     H68533   5.614   7.346   1.864  0.6480  2.6873 -1.7406
  508MOL0     H68534   5.491   7.202   1.622 -3.7971  1.0463 -0.5934
  508MOL0     H68535   5.446   7.155   1.783 -0.0465  2.1383  1.4493
  508MOL0     H68536   5.388   7.417   1.641  0.9627 -0.5660 -0.0348
  508MOL0     H68537   5.396   7.404   1.821 -0.9198 -1.2136  1.2851
  508MOL0     H68538   5.165   7.367   1.750 -2.2487 -0.7860 -1.6576
  508MOL0     H68539   5.230   7.204   1.787 -3.2618 -0.1543 -0.1149
  508MOL0     H68540   5.086   7.177   1.371  1.0789  0.5506  1.5351
  508MOL0     H68541   4.839   7.179   1.310  1.3647  0.6200  0.9307
  508MOL0     H68542   4.393   7.333   1.375 -0.3482  0.7271 -1.8847
  508MOL0     H68543   4.172   7.299   1.309  2.4171  2.1066  2.4926
  508MOL0     H68544   3.934   7.183   1.257  1.7623  0.2721  1.2288
  508MOL0     H68545   4.024   7.218   1.115  0.5547 -0.7444 -0.9442
  508MOL0     H68546   3.973   6.999   1.012 -0.8413  1.9537 -2.5201
  508MOL0     H68547   3.857   6.979   1.148  0.7280  2.8435  2.3819
  508MOL0     H68548   3.749   7.203   1.093  1.1791  2.2075 -1.3734
  508MOL0     H68549   3.851   7.198   0.946 -0.0403  0.5209  0.2367
  508MOL0     H68550   3.691   6.955   0.999 -1.2789 -0.5606  0.3220
  508MOL0     H68551   3.722   7.050   0.850  2.3883  0.2001  0.7084
  508MOL0     H68552   3.541   7.213   0.891 -3.5454 -0.5670 -0.0411
  508MOL0     H68553   3.511   7.141   1.048 -4.0159  1.3172 -1.0558
  508MOL0     H68554   3.444   7.027   0.771 -1.5049 -1.4953  0.5771
  508MOL0     H68555   3.450   6.921   0.902  1.1989 -0.9984 -4.0410
  508MOL0     H68556   3.272   7.173   0.925 -0.8260 -0.8360  2.0078
  508MOL0     H68557   3.266   7.032   1.020 -0.0419 -0.8448 -0.4728
  508MOL0     H68558   3.191   7.042   0.720 -2.1234 -0.6556 -0.3868
  508MOL0     H68559   3.211   6.900   0.809 -3.0723 -1.0175 -0.5740
  508MOL0     H68560   4.232   6.873   1.314 -1.7836  0.0798 -1.6211
  508MOL0     H68561   4.474   6.912   1.359 -1.0245 -1.1266 -2.2489
  508MOL0     H68562   4.759   7.276   1.729  0.7839 -1.5280  0.3695
  508MOL0     H68563   4.990   7.239   1.765 -0.8749 -2.0277  0.0177
  508MOL0     H68564   5.964   8.451   1.365 -2.9169  1.7087  3.8366
  508MOL0     H68565   6.032   8.584   1.164  1.7333  1.3370 -0.7724
  508MOL0     H68566   6.285   8.816   0.964 -2.0423 -2.0309  0.3059
  508MOL0     H68567   6.346   8.859   0.716 -1.3146 -1.2719 -1.4711
  508MOL0     H68568   6.053   9.087   0.460 -0.6412  0.1282  1.3736
  508MOL0     H68569   6.060   8.916   0.407  0.1859 -1.9142  1.9464
  508MOL0     H68570   6.289   8.955   0.339 -3.0704 -3.4781 -2.8189
  508MOL0     H68571   6.260   9.130   0.317  3.1325 -0.7530  0.8182
  508MOL0     H68572   6.114   8.888   0.185  2.9261 -0.2839  2.3872
  508MOL0     H68573   6.223   9.015   0.115 -2.5649  3.8653 -1.5710
  508MOL0     H68574   6.012   9.033   0.028 -0.2104  0.8426 -0.0199
  508MOL0     H68575   5.932   9.095   0.179 -1.1994 -0.5328 -1.5833
  508MOL0     H68576   6.174   9.400  -0.001 -0.0027  1.1395  2.7280
  508MOL0     H68577   5.970   9.059   0.669  2.6480 -1.4885 -3.1109
  508MOL0     H68578   5.801   8.964   0.919  0.9653  0.0228  2.7918
  508MOL0     H68579   5.883   9.068   1.015  0.8928  2.8599 -1.8007
  508MOL0     H68580   5.844   9.135   0.859 -0.3653  2.3385  2.1151
  509MOL0     O68581   1.077  11.280   4.363 -0.0948 -0.0918 -0.1155
  509MOL0     C68582   0.983  11.202   4.364 -0.0275  0.3920 -0.7919
  509MOL0     O68583   0.981  11.099   4.274  0.7669 -0.3046  0.0458
  509MOL0     C68584   1.057  11.095   4.161  0.9830  0.3218  0.0724
  509MOL0     C68585   1.138  11.194   4.107 -0.8026 -0.2790 -0.2532
  509MOL0     C68586   1.192  11.190   3.980 -0.7356 -0.1464  1.1779
  509MOL0     C68587   1.193  11.067   3.909 -0.4332 -0.6512 -1.0251
  509MOL0     O68588   1.236  11.071   3.781  0.3444  0.4326 -0.0702
  509MOL0     C68589   1.222  10.953   3.703  1.2609  0.5324 -0.2510
  509MOL0     C68590   1.264  10.996   3.561 -0.6684 -0.5941 -0.1829
  509MOL0     C68591   1.180  10.915   3.458  0.1731  0.0434 -0.6511
  509MOL0     C68592   1.183  10.974   3.317  0.3347 -0.3601  0.3682
  509MOL0     C68593   1.086  10.900   3.217  0.1729 -0.1186  1.2215
  509MOL0     C68594   1.082  10.975   3.080 -1.1136  0.5546 -0.5108
  509MOL0     C68595   0.983  10.894   2.988 -0.5058 -0.1308 -0.0615
  509MOL0     C68596   0.967  10.956   2.854 -0.0583 -0.4194  0.7838
  509MOL0     N68597   0.883  10.878   2.768  0.4700  0.0036 -0.2309
  509MOL0     C68598   0.934  10.795   2.682  0.0848  0.6986  1.0096
  509MOL0     C68599   0.850  10.779   2.578 -1.0914  0.4752  1.0894
  509MOL0     C68600   0.870  10.690   2.454 -0.6305  0.1043  0.1565
  509MOL0     C68601   0.936  10.772   2.336 -0.0994  0.0506  0.6177
  509MOL0     C68602   0.964  10.694   2.206  0.5660 -0.4568 -0.5773
  509MOL0     C68603   1.023  10.798   2.100  0.1223  0.4573 -1.1117
  509MOL0     O68604   1.040  10.752   1.965  0.3095 -0.7904  0.1050
  509MOL0     C68605   1.118  10.820   1.880  0.5570  0.6730  0.3360
  509MOL0     C68606   1.134  10.759   1.754  0.5570  0.0661 -0.2674
  509MOL0     C68607   1.224  10.810   1.658  0.0152 -0.2493  0.6113
  509MOL0     C68608   1.297  10.928   1.672 -0.8351  0.7025  0.5184
  509MOL0     C68609   1.372  10.987   1.557  0.0983  0.6050  0.4244
  509MOL0     O68610   1.372  10.919   1.443 -0.9605 -0.5035  0.0561
  509MOL0     C68611   1.407  10.992   1.324 -0.1571  0.1926 -0.1769
  509MOL0     C68612   1.468  10.909   1.224  0.8927 -0.6708 -0.3266
  509MOL0     C68613   1.512  10.953   1.093 -1.3068 -0.3038 -0.0215
  509MOL0     C68614   1.501  11.094   1.071 -0.5882 -0.5951 -1.2340
  509MOL0     O68615   1.538  11.164   0.959 -0.6123 -1.3805 -0.1535
  509MOL0     C68616   1.579  11.096   0.842 -1.6440  0.5644  0.2564
  509MOL0     C68617   1.604  11.209   0.734 -0.2879 -0.8126  0.6881
  509MOL0     C68618   1.728  11.296   0.760  0.2769 -0.6344 -0.2676
  509MOL0     C68619   1.858  11.235   0.769  0.3326  0.6556  0.1335
  509MOL0     C68620   1.969  11.351   0.765  0.0903  0.2887  0.7452
  509MOL0     C68621   2.107  11.303   0.772 -1.1676 -0.7218  0.8563
  509MOL0     C68622   2.151  11.253   0.918  0.0028 -0.0630 -0.2868
  509MOL0     C68623   2.301  11.216   0.924  0.9174  1.8035  0.5938
  509MOL0    Cl68624   2.331  11.169   1.094 -0.2702 -0.2950  0.3289
  509MOL0     C68625   1.441  11.174   1.172  1.3712 -0.4009 -0.6510
  509MOL0     C68626   1.389  11.130   1.287  0.5937  0.4733 -0.1958
  509MOL0     O68627   1.411  11.101   1.571 -0.0326 -0.5086  0.1803
  509MOL0     C68628   1.287  10.991   1.793 -0.6379  0.9500 -0.0328
  509MOL0     C68629   1.192  10.940   1.890 -0.6438  0.1323  0.4531
  509MOL0     N68630   0.744  10.859   2.613 -0.1628  0.6877 -0.2246
  509MOL0     N68631   0.759  10.910   2.725 -0.3611  0.4587 -0.2376
  509MOL0     C68632   1.115  10.964   3.966 -0.2460  0.5599 -0.1154
  509MOL0     C68633   1.052  10.974   4.093  0.1487 -0.2479 -0.8457
  509MOL0     C68634   0.867  11.222   4.451  1.4727  0.4497 -0.0756
  509MOL0     C68635   0.885  11.213   4.590  0.0537 -0.2479 -0.9569
  509MOL0     C68636   0.787  11.238   4.680  0.1672  0.2447 -0.4716
  509MOL0     C68637   0.656  11.255   4.641  1.2813  1.1354  0.0031
  509MOL0     O68638   0.562  11.252   4.741 -0.0629 -0.0532 -0.0743
  509MOL0     C68639   0.426  11.308   4.741 -0.2773 -0.0012  0.1018
  509MOL0     C68640   0.375  11.297   4.885 -0.2439 -0.3923 -0.0856
  509MOL0     C68641   0.342  11.156   4.924 -0.5454  0.4475  1.1050
  509MOL0     C68642   0.331  11.146   5.076  0.3334  0.0422 -0.5682
  509MOL0     C68643   0.232  11.233   5.139 -0.1442 -0.3319  0.0929
  509MOL0     C68644   0.166  11.315   5.204  0.3093 -0.3118 -0.8783
  509MOL0     C68645   0.626  11.267   4.500  0.9170 -0.0562 -0.7477
  509MOL0     C68646   0.730  11.245   4.410 -1.2392  0.2539 -0.4291
  509MOL0     C68647   0.704  11.273   4.264 -0.7453  0.0526  0.7778
  509MOL0     H68648   1.129  11.293   4.151 -1.2902 -0.6092  0.4068
  509MOL0     H68649   1.251  11.273   3.942 -0.6185 -0.6629  0.1934
  509MOL0     H68650   1.297  10.880   3.735 -0.6180 -1.0400  0.7620
  509MOL0     H68651   1.118  10.920   3.705  1.2889  0.4745  0.4861
  509MOL0     H68652   1.369  10.973   3.543 -0.1866 -0.3355  2.0108
  509MOL0     H68653   1.247  11.102   3.539  0.0574 -0.8351 -2.0735
  509MOL0     H68654   1.077  10.909   3.493  0.5495  0.6589  0.6542
  509MOL0     H68655   1.223  10.815   3.450  0.6224  0.1732  0.0702
  509MOL0     H68656   1.146  11.077   3.314 -0.2706 -0.5609  0.8548
  509MOL0     H68657   1.283  10.969   3.271  1.3265 -3.1810  2.5138
  509MOL0     H68658   1.125  10.801   3.195  0.6034 -0.0182  1.5339
  509MOL0     H68659   0.986  10.883   3.258 -1.9769  3.2019 -1.9361
  509MOL0     H68660   1.054  11.080   3.095  2.9398  1.8383 -0.6590
  509MOL0     H68661   1.176  10.982   3.024 -1.3734  4.1739 -0.7120
  509MOL0     H68662   0.878  10.889   3.020 -1.3014  3.7946 -1.4818
  509MOL0     H68663   1.009  10.788   2.987 -1.2541 -0.3432  0.9671
  509MOL0     H68664   0.918  11.050   2.879 -0.2928  0.2106 -1.7603
  509MOL0     H68665   1.061  10.986   2.806  1.5993 -0.6783  3.6670
  509MOL0     H68666   1.028  10.740   2.688  0.4813  1.1095 -0.6607
  509MOL0     H68667   0.927  10.599   2.472 -2.1727 -1.1651 -1.0853
  509MOL0     H68668   0.775  10.650   2.417  0.1331 -1.1189 -0.5169
  509MOL0     H68669   0.866  10.855   2.318  0.8439  0.3561 -2.3143
  509MOL0     H68670   1.024  10.823   2.377 -2.5030  0.5972  5.9270
  509MOL0     H68671   0.883  10.632   2.167 -2.8399  3.8418 -1.0520
  509MOL0     H68672   1.047  10.623   2.211  0.1797 -0.8640  0.1684
  509MOL0     H68673   1.117  10.830   2.145 -0.6644  1.4096 -0.1091
  509MOL0     H68674   0.949  10.877   2.114 -0.2316 -0.1733  0.8672
  509MOL0     H68675   1.055  10.689   1.730  0.1359 -0.6024  2.6980
  509MOL0     H68676   1.222  10.757   1.564 -0.5299 -2.0185  1.5664
  509MOL0     H68677   1.496  10.806   1.244 -1.1990 -1.7096 -2.2116
  509MOL0     H68678   1.530  10.877   1.018 -3.1722 -0.5550 -0.2532
  509MOL0     H68679   1.674  11.048   0.868 -1.3316  1.0666  0.0627
  509MOL0     H68680   1.506  11.025   0.802  0.4112 -2.0669  0.8848
  509MOL0     H68681   1.627  11.166   0.637  0.4136  1.2425 -0.1125
  509MOL0     H68682   1.512  11.267   0.718  1.6230  2.1683 -0.2668
  509MOL0     H68683   1.730  11.361   0.671 -2.9925 -2.3587 -1.7910
  509MOL0     H68684   1.708  11.343   0.856  0.2250  0.6965 -0.9033
  509MOL0     H68685   1.888  11.161   0.694  2.1765 -1.5657  2.8150
  509MOL0     H68686   1.870  11.192   0.869  3.1584  1.4365  0.2279
  509MOL0     H68687   1.962  11.420   0.849  1.4029  1.3150  0.0557
  509MOL0     H68688   1.956  11.421   0.682  1.1558  2.8103  2.5770
  509MOL0     H68689   2.140  11.235   0.693 -2.3670 -1.5558  1.0393
  509MOL0     H68690   2.162  11.397   0.759 -2.1145  0.3109  3.7109
  509MOL0     H68691   2.103  11.158   0.943  0.4543 -0.2828 -0.2591
  509MOL0     H68692   2.132  11.328   0.995  1.5849  0.9209 -0.8299
  509MOL0     H68693   2.324  11.127   0.865 -0.4306  1.5667  0.3985
  509MOL0     H68694   2.368  11.292   0.882 -2.5303  4.7463 -0.0990
  509MOL0     H68695   1.428  11.278   1.144  0.2268 -1.0484 -2.7006
  509MOL0     H68696   1.356  11.206   1.358 -1.6185 -1.2911  0.8033
  509MOL0     H68697   1.342  11.082   1.812 -1.4024  1.5884 -0.7762
  509MOL0     H68698   1.183  11.013   1.970 -5.7723  1.6371 -1.0764
  509MOL0     H68699   1.114  10.869   3.914 -1.6592 -0.2654  1.3478
  509MOL0     H68700   1.002  10.888   4.136  0.2774  0.1062  0.0353
  509MOL0     H68701   0.985  11.188   4.625 -0.1865  0.2305  0.0937
  509MOL0     H68702   0.831  11.253   4.778 -0.7967  0.8336 -0.1254
  509MOL0     H68703   0.363  11.272   4.659  0.8495 -2.3151  0.1878
  509MOL0     H68704   0.437  11.417   4.734  1.1268 -0.1004  0.5050
  509MOL0     H68705   0.289  11.364   4.895  1.6723  1.9549  2.4250
  509MOL0     H68706   0.447  11.327   4.962  1.2327 -1.6999 -0.8964
  509MOL0     H68707   0.430  11.095   4.902 -0.5553  0.9213 -0.3308
  509MOL0     H68708   0.252  11.109   4.883  0.1229  0.3081 -0.2804
  509MOL0     H68709   0.287  11.049   5.101 -1.7196  0.7477 -1.2154
  509MOL0     H68710   0.421  11.169   5.132 -0.2578 -1.8261  1.2667
  509MOL0     H68711   0.115  11.391   5.259 -0.5023 -2.2650  1.1979
  509MOL0     H68712   0.524  11.266   4.464  0.0325 -3.2316  1.3579
  509MOL0     H68713   0.610  11.328   4.248  0.7174  2.1091 -1.5378
  509MOL0     H68714   0.782  11.339   4.224 -3.3588  2.0660 -1.3695
  509MOL0     H68715   0.712  11.182   4.205  0.8911  0.3655  0.4735
  510MOL0     O68716   1.863   5.846   6.189  0.0524 -0.4976 -0.5853
  510MOL0     C68717   1.944   5.764   6.158 -0.9549  0.6465 -0.7414
  510MOL0     O68718   2.029   5.702   6.252  0.2680  0.2265 -0.5903
  510MOL0     C68719   2.050   5.732   6.384 -0.5992 -0.1011 -0.7281
  510MOL0     C68720   2.118   5.629   6.458  0.0377 -0.3757 -0.8075
  510MOL0     C68721   2.158   5.645   6.594 -0.1973  0.9132 -0.0298
  510MOL0     C68722   2.156   5.783   6.642  0.3110 -0.6409 -0.2886
  510MOL0     O68723   2.222   5.810   6.761 -0.3654  1.0755 -0.1832
  510MOL0     C68724   2.157   5.902   6.856 -0.3539 -0.5870  1.3080
  510MOL0     C68725   2.131   5.826   6.970 -0.9324  0.1949 -0.7213
  510MOL0     C68726   2.073   5.901   7.094  0.4288 -0.4450 -0.4898
  510MOL0     C68727   1.984   5.814   7.178  0.1178  0.1198 -0.1810
  510MOL0     C68728   1.965   5.843   7.323  0.6181  0.1287 -0.8653
  510MOL0     C68729   1.884   5.735   7.403  0.3438  0.3721  0.2641
  510MOL0     C68730   1.887   5.768   7.554 -0.1300 -0.5068  0.3728
  510MOL0     C68731   1.816   5.668   7.648  0.1186  0.4105 -0.6613
  510MOL0     N68732   1.692   5.708   7.714  0.1380  0.0028 -0.0685
  510MOL0     C68733   1.677   5.705   7.846  0.1805  0.1237 -0.2122
  510MOL0     C68734   1.547   5.715   7.879  0.6844  0.0419 -0.5185
  510MOL0     C68735   1.482   5.696   8.017 -0.4196 -0.2297  0.0615
  510MOL0     C68736   1.512   5.564   8.087 -0.5132 -0.1956  0.5974
  510MOL0     C68737   1.646   5.567   8.159 -0.0412 -0.1530 -0.5671
  510MOL0     C68738   1.617   5.617   8.306 -0.0969 -0.0934  0.3428
  510MOL0     O68739   1.557   5.749   8.310  0.0869 -1.0399  0.4250
  510MOL0     C68740   1.563   5.810   8.426 -0.3458 -0.3333 -0.2589
  510MOL0     C68741   1.527   5.749   8.554  0.2422  0.0649 -0.7894
  510MOL0     C68742   1.541   5.815   8.682  0.4078  0.1573  0.4179
  510MOL0     C68743   1.604   5.944   8.678  0.4465  1.3637 -0.0371
  510MOL0     C68744   1.648   6.005   8.802  1.1207 -0.4405 -0.0751
  510MOL0     O68745   1.595   5.961   8.922 -0.2958 -0.0785 -0.6751
  510MOL0     C68746   1.650   5.989   9.047  0.3765  0.7069  0.4010
  510MOL0     C68747   1.784   5.947   9.067  0.8268 -0.8831  0.0518
  510MOL0     C68748   1.833   5.975   9.187 -0.2763  0.3421 -0.5946
  510MOL0     C68749   1.769   6.058   9.283 -0.1037 -0.4201 -0.6574
  510MOL0     O68750   1.842   6.095   9.399  0.5519  0.1800  0.4571
  510MOL0     C68751   1.771   6.098   9.527 -0.6075  0.4528  0.1111
  510MOL0     C68752   1.854   6.027   9.631 -0.4133  0.6661  0.3685
  510MOL0     C68753   1.968   6.116   9.666  0.1421 -1.2678  0.1119
  510MOL0     C68754   2.044   6.056   9.782  0.5946  0.1611 -0.1345
  510MOL0     C68755   2.158   6.145   9.843  0.2894 -0.0984  0.4345
  510MOL0     C68756   2.125   6.278   9.924 -0.1751  0.0117  0.0368
  510MOL0     C68757   2.248   6.312  10.006  0.5858  0.7690  0.2095
  510MOL0     C68758   2.235   6.439  10.086 -0.2182 -0.0487 -0.2146
  510MOL0    Cl68759   2.125   6.413  10.223  0.4869 -0.3634  0.0773
  510MOL0     C68760   1.634   6.102   9.255  1.0969  0.1776  0.1271
  510MOL0     C68761   1.579   6.060   9.140  0.2832  0.8199  0.7393
  510MOL0     O68762   1.733   6.091   8.794  0.1003 -0.1531 -0.3697
  510MOL0     C68763   1.644   6.006   8.552 -0.1609 -0.1977 -0.1135
  510MOL0     C68764   1.628   5.936   8.433  0.1164  0.1187  0.8172
  510MOL0     N68765   1.484   5.744   7.760  0.2607  0.4740  0.6180
  510MOL0     N68766   1.567   5.732   7.659 -0.1021  0.4525 -0.3254
  510MOL0     C68767   2.098   5.894   6.572  0.4836 -0.2740  0.2228
  510MOL0     C68768   2.037   5.854   6.450 -0.4307 -0.6368  0.2821
  510MOL0     C68769   1.951   5.728   6.016 -0.3058  1.1124 -0.1519
  510MOL0     C68770   2.002   5.604   5.988 -0.1447  0.1633 -0.5940
  510MOL0     C68771   2.027   5.560   5.859  0.3813 -0.2892  0.0783
  510MOL0     C68772   1.996   5.648   5.751 -0.3519  0.1022 -0.3297
  510MOL0     O68773   2.018   5.590   5.623 -0.3856 -0.1629 -0.1836
  510MOL0     C68774   1.954   5.651   5.513  0.1819  0.5179  0.4670
  510MOL0     C68775   2.008   5.596   5.375  0.4549  0.1194 -0.6210
  510MOL0     C68776   2.163   5.593   5.380  1.4689 -0.1147  0.0846
  510MOL0     C68777   2.236   5.730   5.381 -0.6055  0.5446  0.3285
  510MOL0     C68778   2.240   5.791   5.242 -0.2276 -0.0992  0.1091
  510MOL0     C68779   2.231   5.844   5.135 -0.2130 -0.2922 -0.4309
  510MOL0     C68780   1.941   5.771   5.772 -0.1797  0.1935 -0.3916
  510MOL0     C68781   1.910   5.813   5.906  0.9720  0.6863 -0.1381
  510MOL0     C68782   1.841   5.935   5.901 -0.6753 -0.8130  0.3188
  510MOL0     H68783   2.126   5.537   6.401  0.1155 -2.2567  2.0451
  510MOL0     H68784   2.207   5.566   6.649  1.2157  1.2695 -0.7317
  510MOL0     H68785   2.213   5.992   6.881 -5.0707  2.9311  0.5322
  510MOL0     H68786   2.058   5.931   6.818  0.8344 -0.6451 -2.2404
  510MOL0     H68787   2.232   5.797   7.002 -1.4994  0.6754  1.6702
  510MOL0     H68788   2.069   5.736   6.958 -0.6758 -0.2495  0.9259
  510MOL0     H68789   2.013   5.986   7.060  2.1783  2.0133  2.0918
  510MOL0     H68790   2.147   5.950   7.157 -1.9920 -1.0531  3.1232
  510MOL0     H68791   1.884   5.814   7.133  0.1819 -1.2600 -0.3648
  510MOL0     H68792   2.021   5.711   7.175  2.3124  0.8168  0.8925
  510MOL0     H68793   2.063   5.842   7.372  0.6563  1.4737 -0.8938
  510MOL0     H68794   1.926   5.944   7.337  0.7823 -0.1571  2.3717
  510MOL0     H68795   1.781   5.725   7.367  1.1641  0.3274 -2.1987
  510MOL0     H68796   1.940   5.642   7.391  2.5997  1.7775 -0.5988
  510MOL0     H68797   1.840   5.865   7.569  4.2211  1.3586  4.6180
  510MOL0     H68798   1.990   5.777   7.590  0.4510 -3.2811 -0.3238
  510MOL0     H68799   1.803   5.573   7.595 -2.5581  0.6597 -0.5822
  510MOL0     H68800   1.881   5.651   7.735 -1.2505 -0.2013  0.2639
  510MOL0     H68801   1.753   5.688   7.922  2.7204  0.6001 -2.4945
  510MOL0     H68802   1.508   5.787   8.072  0.9977 -0.8408  0.4308
  510MOL0     H68803   1.374   5.698   7.997 -0.5827 -1.7671  0.6583
  510MOL0     H68804   1.427   5.528   8.146 -1.1690 -2.0819 -1.3771
  510MOL0     H68805   1.511   5.491   8.006  0.5177 -0.5457  0.8949
  510MOL0     H68806   1.713   5.641   8.113 -2.0507  3.1082  1.3498
  510MOL0     H68807   1.700   5.472   8.158  0.0894 -0.1232  0.8333
  510MOL0     H68808   1.712   5.631   8.357  0.7819  1.0688 -1.5020
  510MOL0     H68809   1.556   5.543   8.358  0.9064 -1.5122 -0.4323
  510MOL0     H68810   1.489   5.648   8.554 -0.4150  0.2741 -2.8657
  510MOL0     H68811   1.519   5.765   8.776 -0.2445 -0.0466  0.1647
  510MOL0     H68812   1.847   5.896   8.996 -1.8595 -6.0233  0.9034
  510MOL0     H68813   1.929   5.940   9.223  0.1060  0.1153 -1.8062
  510MOL0     H68814   1.740   6.201   9.546 -3.7984 -0.4431  0.2267
  510MOL0     H68815   1.675   6.046   9.517 -0.7051  0.7953 -0.8315
  510MOL0     H68816   1.792   6.020   9.721  1.9595  0.7561  2.1088
  510MOL0     H68817   1.887   5.929   9.594 -1.6786  0.5842 -0.5794
  510MOL0     H68818   2.032   6.137   9.580 -1.5081  3.2000 -0.2437
  510MOL0     H68819   1.934   6.214   9.698 -3.2819 -2.0766 -0.7018
  510MOL0     H68820   2.084   5.959   9.753 -1.5458 -1.0737  0.8168
  510MOL0     H68821   1.978   6.025   9.864  0.9101  1.1571  0.5168
  510MOL0     H68822   2.228   6.167   9.762  0.4697  1.5750  1.0078
  510MOL0     H68823   2.219   6.085   9.912  3.5795  1.4453 -0.9304
  510MOL0     H68824   2.084   6.359   9.864 -1.1694  1.1857  2.2147
  510MOL0     H68825   2.041   6.261   9.991 -0.3959 -1.3645 -0.5513
  510MOL0     H68826   2.338   6.298   9.945 -0.2491 -1.5392 -0.6014
  510MOL0     H68827   2.250   6.240  10.088  0.4977  0.6944  0.1438
  510MOL0     H68828   2.335   6.468  10.121  0.1488 -1.7608  0.2671
  510MOL0     H68829   2.210   6.519  10.017 -0.5156 -0.5134 -0.6474
  510MOL0     H68830   1.566   6.140   9.330 -0.5800  1.1683 -1.8170
  510MOL0     H68831   1.479   6.090   9.110  0.0957 -1.2244 -0.9363
  510MOL0     H68832   1.700   6.098   8.546 -0.3108 -0.1776 -1.6645
  510MOL0     H68833   1.672   5.968   8.339 -0.3238 -0.5360  0.3873
  510MOL0     H68834   2.091   5.991   6.619  1.1425 -0.3510  0.4943
  510MOL0     H68835   1.993   5.942   6.404  1.4780  0.5125  0.5161
  510MOL0     H68836   2.032   5.535   6.066 -2.7805 -2.4304 -1.6918
  510MOL0     H68837   2.059   5.460   5.829  4.1829  1.8532 -4.1112
  510MOL0     H68838   1.989   5.755   5.519  2.3433 -0.2187  1.7875
  510MOL0     H68839   1.845   5.646   5.511  0.2368 -0.6628  0.0831
  510MOL0     H68840   1.975   5.648   5.285 -1.6218  0.4624  0.2736
  510MOL0     H68841   1.959   5.498   5.366  1.3549 -0.2259 -2.0783
  510MOL0     H68842   2.192   5.547   5.285  2.9404 -0.3404  0.6203
  510MOL0     H68843   2.196   5.529   5.463  1.0522  1.1912  1.2840
  510MOL0     H68844   2.203   5.803   5.455  3.3453  0.3688  2.5208
  510MOL0     H68845   2.341   5.715   5.407 -1.0017  0.0759  1.7685
  510MOL0     H68846   2.235   5.889   5.038 -2.8111 -0.1023 -0.5210
  510MOL0     H68847   1.927   5.845   5.694 -2.8572 -0.8430 -1.0079
  510MOL0     H68848   1.908   6.009   5.855 -0.6049 -0.6360  0.7073
  510MOL0     H68849   1.745   5.922   5.849 -0.6174 -0.5315  0.1427
  510MOL0     H68850   1.819   5.983   5.996 -0.5153  0.9902 -0.5250
  511MOL0     O68851   2.587   5.640   5.098 -0.4253 -0.2265  0.0620
  511MOL0     C68852   2.593   5.521   5.064 -0.2439 -0.8305 -0.3866
  511MOL0     O68853   2.625   5.417   5.148  0.0833  0.2209 -0.9662
  511MOL0     C68854   2.633   5.418   5.284  0.7546 -0.4988 -0.5483
  511MOL0     C68855   2.729   5.342   5.340  0.1420 -0.4193  0.2665
  511MOL0     C68856   2.730   5.340   5.483 -0.6574 -0.0366  0.8739
  511MOL0     C68857   2.643   5.421   5.562  0.2939  1.0941  1.0134
  511MOL0     O68858   2.642   5.432   5.701 -0.0445  0.1386 -0.3893
  511MOL0     C68859   2.675   5.316   5.781  0.1250 -0.2810  0.3709
  511MOL0     C68860   2.670   5.351   5.926 -0.3913  0.8948 -0.6580
  511MOL0     C68861   2.804   5.415   5.973 -0.9380  0.3210  0.0244
  511MOL0     C68862   2.804   5.465   6.117  0.1541 -0.6663  0.0250
  511MOL0     C68863   2.934   5.482   6.188 -0.3381  0.0100 -0.4139
  511MOL0     C68864   2.957   5.612   6.266 -0.4862 -0.4165 -0.6929
  511MOL0     C68865   2.887   5.608   6.403  1.3443  0.0534 -0.2361
  511MOL0     C68866   2.933   5.708   6.503  0.5570  0.2303  0.4007
  511MOL0     N68867   2.893   5.662   6.634  0.6837 -1.1149 -0.0208
  511MOL0     C68868   2.960   5.699   6.746  0.2118 -0.8042  0.1349
  511MOL0     C68869   2.885   5.645   6.853  0.6095 -0.8519  0.5029
  511MOL0     C68870   2.917   5.653   7.001 -0.1689  0.3946 -0.3773
  511MOL0     C68871   2.910   5.796   7.054 -0.3390 -0.4984  0.0537
  511MOL0     C68872   2.920   5.811   7.206  0.4631 -0.5734  0.0699
  511MOL0     C68873   3.000   5.712   7.283 -0.3122  0.2437 -0.5585
  511MOL0     O68874   2.955   5.729   7.413 -0.1808  0.2021 -1.0325
  511MOL0     C68875   2.895   5.630   7.467  0.5070  0.2529 -0.5408
  511MOL0     C68876   2.820   5.533   7.391 -0.1251  0.0075 -0.4993
  511MOL0     C68877   2.739   5.449   7.465 -0.3563  0.2111 -0.0104
  511MOL0     C68878   2.729   5.454   7.600  0.0401  0.0616 -1.0748
  511MOL0     C68879   2.639   5.377   7.684  0.8289  0.8426  0.4926
  511MOL0     O68880   2.667   5.358   7.819 -0.1579 -0.4287 -0.0864
  511MOL0     C68881   2.572   5.332   7.911 -0.2895 -0.5276 -0.7013
  511MOL0     C68882   2.449   5.393   7.920 -1.2116 -0.4569  0.3576
  511MOL0     C68883   2.368   5.371   8.024  0.2910 -0.0130  0.1222
  511MOL0     C68884   2.403   5.296   8.138  0.7786 -0.0371 -0.0563
  511MOL0     O68885   2.322   5.256   8.238  0.4091 -0.1713  0.6907
  511MOL0     C68886   2.185   5.319   8.243 -1.2650 -0.0563 -0.3100
  511MOL0     C68887   2.180   5.455   8.296 -1.0822 -0.2937 -0.3723
  511MOL0     C68888   2.238   5.455   8.438 -0.8837  0.0642 -0.3009
  511MOL0     C68889   2.372   5.531   8.425  0.3910 -0.1510 -0.0104
  511MOL0     C68890   2.446   5.531   8.563  0.7508 -0.2632 -0.2412
  511MOL0     C68891   2.559   5.629   8.557  0.2550 -1.1647 -0.9280
  511MOL0     C68892   2.634   5.609   8.687  0.2994 -0.2479  0.9062
  511MOL0     C68893   2.757   5.699   8.711 -0.7227  0.1140 -0.6247
  511MOL0    Cl68894   2.725   5.869   8.684 -0.6491  0.2950  0.1450
  511MOL0     C68895   2.528   5.230   8.134  0.0924 -0.1722 -0.0292
  511MOL0     C68896   2.601   5.244   8.019 -0.7106 -0.3913 -0.4326
  511MOL0     O68897   2.528   5.340   7.638  0.4825 -0.8784 -0.1254
  511MOL0     C68898   2.798   5.560   7.674 -0.5012  0.8220  0.7481
  511MOL0     C68899   2.872   5.648   7.603  0.5259 -0.1766  0.4456
  511MOL0     N68900   2.768   5.600   6.802 -0.4501 -0.0361  0.3926
  511MOL0     N68901   2.765   5.624   6.672 -0.2342  0.3736  0.0802
  511MOL0     C68902   2.539   5.485   5.495 -0.0656 -0.5600  0.7102
  511MOL0     C68903   2.541   5.490   5.351  0.2298  0.1665  0.4528
  511MOL0     C68904   2.537   5.480   4.933  0.4907 -0.8931  0.0224
  511MOL0     C68905   2.402   5.438   4.940  0.1385 -0.2665  0.4701
  511MOL0     C68906   2.336   5.416   4.815  0.0311  0.7053  0.1393
  511MOL0     C68907   2.393   5.454   4.693  0.6095  0.3450 -1.3529
  511MOL0     O68908   2.320   5.425   4.579 -0.5139  0.2024 -0.2655
  511MOL0     C68909   2.368   5.477   4.452 -0.3987 -0.4767 -0.7569
  511MOL0     C68910   2.274   5.455   4.333  0.0267  0.4711 -0.7197
  511MOL0     C68911   2.244   5.582   4.250  0.2778 -0.3591 -0.3316
  511MOL0     C68912   2.178   5.560   4.110  0.9069 -0.2850 -0.2698
  511MOL0     C68913   2.267   5.482   4.025  0.4842 -0.4866  0.3310
  511MOL0     C68914   2.341   5.418   3.954  0.2258 -1.1729 -0.2294
  511MOL0     C68915   2.528   5.496   4.695  0.8514  0.4012 -0.0539
  511MOL0     C68916   2.606   5.505   4.808  0.3092 -0.4880 -0.5333
  511MOL0     C68917   2.757   5.546   4.809  0.4634 -0.3979  0.3611
  511MOL0     H68918   2.799   5.300   5.270 -2.7996 -1.7325 -2.1413
  511MOL0     H68919   2.820   5.299   5.528 -0.0807  0.1083 -0.1076
  511MOL0     H68920   2.596   5.241   5.774 -2.4835  2.3801 -0.8836
  511MOL0     H68921   2.769   5.282   5.735 -0.2680  0.6033 -1.1645
  511MOL0     H68922   2.642   5.261   5.981 -0.9993  1.7790  0.5108
  511MOL0     H68923   2.582   5.414   5.943 -0.1148  0.8381  1.1034
  511MOL0     H68924   2.829   5.502   5.910  1.7486 -2.0752 -2.5279
  511MOL0     H68925   2.884   5.345   5.947 -0.9822  0.9017 -1.8698
  511MOL0     H68926   2.741   5.554   6.122  0.6372 -0.1710 -1.7192
  511MOL0     H68927   2.750   5.389   6.174 -0.2151 -2.2732 -2.2977
  511MOL0     H68928   2.958   5.398   6.253  1.8061 -2.5651 -4.2184
  511MOL0     H68929   3.011   5.479   6.111  0.1484 -2.0020  0.1097
  511MOL0     H68930   3.065   5.612   6.279 -0.5236 -1.9324 -0.1031
  511MOL0     H68931   2.941   5.706   6.213 -1.6053  0.6475  1.4004
  511MOL0     H68932   2.898   5.506   6.439  1.2838 -0.5579 -1.8682
  511MOL0     H68933   2.779   5.611   6.387  0.9899  1.7418  1.9105
  511MOL0     H68934   3.038   5.735   6.493  0.5291  0.7674  1.4193
  511MOL0     H68935   2.890   5.803   6.470  0.5014 -0.7110 -2.5404
  511MOL0     H68936   3.054   5.754   6.747 -0.2329  0.2256 -3.2966
  511MOL0     H68937   2.849   5.583   7.051  2.1056 -3.3597 -2.0296
  511MOL0     H68938   3.022   5.624   7.014 -0.9484 -1.6721  2.0986
  511MOL0     H68939   2.998   5.847   7.013  0.6257 -1.1715  1.2291
  511MOL0     H68940   2.818   5.841   7.016 -0.0612  0.1983  0.2022
  511MOL0     H68941   2.821   5.819   7.251  0.7712  4.6907  0.3913
  511MOL0     H68942   2.971   5.905   7.227 -0.9511  0.6479 -1.7482
  511MOL0     H68943   3.105   5.739   7.269 -0.4766  0.0333 -2.4419
  511MOL0     H68944   2.997   5.610   7.244  1.4437  0.4220 -1.2583
  511MOL0     H68945   2.818   5.525   7.283 -0.2569 -0.6060 -0.4599
  511MOL0     H68946   2.676   5.377   7.413 -0.4932 -0.1865  0.6854
  511MOL0     H68947   2.425   5.456   7.835  1.0001 -0.4617 -0.3269
  511MOL0     H68948   2.271   5.418   8.010  0.6681  0.9249  0.5108
  511MOL0     H68949   2.136   5.317   8.145  0.4264 -2.1111 -1.2001
  511MOL0     H68950   2.125   5.259   8.312 -0.0536 -2.9779 -1.6199
  511MOL0     H68951   2.216   5.530   8.225 -0.0647 -0.8723 -0.4975
  511MOL0     H68952   2.074   5.477   8.313 -0.6659  0.3690  1.6831
  511MOL0     H68953   2.173   5.511   8.506 -0.0905  1.5677 -0.7248
  511MOL0     H68954   2.252   5.353   8.474  5.7310  0.0528 -1.7133
  511MOL0     H68955   2.362   5.631   8.382 -2.4511 -1.3802 -2.6247
  511MOL0     H68956   2.439   5.468   8.365  0.8557  1.1137 -0.8521
  511MOL0     H68957   2.484   5.430   8.581  1.7986  0.0901 -0.4034
  511MOL0     H68958   2.373   5.553   8.642 -2.2097 -1.0360 -2.5973
  511MOL0     H68959   2.623   5.611   8.470  0.7712  1.3702 -1.1562
  511MOL0     H68960   2.530   5.734   8.553  1.6930 -0.5961  1.4743
  511MOL0     H68961   2.659   5.504   8.699 -1.8966 -0.5378  4.2295
  511MOL0     H68962   2.575   5.621   8.778  0.5003 -2.3941  1.3636
  511MOL0     H68963   2.765   5.697   8.821  0.9107 -0.7190 -0.7338
  511MOL0     H68964   2.848   5.667   8.660 -1.1578 -2.0451 -0.1314
  511MOL0     H68965   2.573   5.176   8.216  0.4923  0.7066  0.3528
  511MOL0     H68966   2.699   5.198   8.021 -1.4117 -1.9613  1.9916
  511MOL0     H68967   2.788   5.586   7.779 -0.4281 -0.5152  1.0961
  511MOL0     H68968   2.922   5.730   7.655  1.4517  0.4843 -1.4064
  511MOL0     H68969   2.465   5.545   5.546  1.5898  0.5542  1.9051
  511MOL0     H68970   2.471   5.553   5.298 -1.0310 -0.5925  1.1801
  511MOL0     H68971   2.353   5.430   5.037 -0.7237  2.0379  0.2963
  511MOL0     H68972   2.232   5.387   4.819  0.3556 -0.7188 -1.1587
  511MOL0     H68973   2.464   5.426   4.449 -0.3276 -0.2981 -3.2517
  511MOL0     H68974   2.387   5.585   4.463  3.0174 -1.0080 -0.4798
  511MOL0     H68975   2.182   5.409   4.371  0.2484 -0.6452 -1.4973
  511MOL0     H68976   2.319   5.389   4.259 -0.0440  0.0223 -0.3663
  511MOL0     H68977   2.340   5.631   4.236  1.2813 -0.9286  3.5110
  511MOL0     H68978   2.172   5.639   4.309 -0.3939 -2.9494  1.5340
  511MOL0     H68979   2.077   5.519   4.113  0.5982  0.3793 -1.4038
  511MOL0     H68980   2.175   5.662   4.072 -2.5409 -0.3243 -0.4021
  511MOL0     H68981   2.420   5.357   3.915  0.0389 -1.1856 -0.5936
  511MOL0     H68982   2.592   5.531   4.614  1.7988 -2.4502 -0.6555
  511MOL0     H68983   2.765   5.645   4.855 -0.2971 -0.0995 -0.1407
  511MOL0     H68984   2.814   5.475   4.870  2.6317 -0.5207 -1.6747
  511MOL0     H68985   2.808   5.533   4.713 -2.0523 -2.8883 -0.7739
  512MOL0     O68986   0.238   1.715  10.860  0.3607  0.6908  0.3146
  512MOL0     C68987   0.273   1.619  10.932 -0.3880  0.5143 -0.5891
  512MOL0     O68988   0.281   1.624  11.067 -0.2393  0.4084 -0.1621
  512MOL0     C68989   0.218   1.731  11.126 -0.7677 -0.0921  0.5311
  512MOL0     C68990   0.257   1.811  11.233 -0.1700 -0.1427 -0.2577
  512MOL0     C68991   0.172   1.910  11.288 -0.4113  0.7157 -0.6100
  512MOL0     C68992   0.041   1.934  11.235 -0.6866 -0.2377 -0.4848
  512MOL0     O68993  -0.030   2.037  11.295 -0.4477  0.3680  0.6029
  512MOL0     C68994  -0.167   2.018  11.317  0.0992 -0.7550 -0.6917
  512MOL0     C68995  -0.265   2.073  11.215 -1.0583 -0.0780 -1.4018
  512MOL0     C68996  -0.301   2.216  11.257 -0.3889 -1.2831  1.2464
  512MOL0     C68997  -0.195   2.331  11.254 -0.2213  0.3174 -0.0326
  512MOL0     C68998  -0.252   2.472  11.277  0.6368 -0.1669 -0.6932
  512MOL0     C68999  -0.139   2.574  11.314 -0.3538  0.7104 -0.3330
  512MOL0     C69000  -0.205   2.708  11.327 -0.4425 -0.2153 -0.2540
  512MOL0     C69001  -0.109   2.831  11.338 -0.8752 -0.2455  0.6321
  512MOL0     N69002  -0.042   2.875  11.212  0.9051 -0.9297 -0.5511
  512MOL0     C69003   0.051   2.808  11.138 -0.9442 -0.9354 -1.1402
  512MOL0     C69004   0.073   2.880  11.030  1.0463  0.4485 -0.3971
  512MOL0     C69005   0.180   2.856  10.925  0.2468 -0.0712 -0.5264
  512MOL0     C69006   0.155   2.910  10.780 -0.8771 -0.6760  0.5353
  512MOL0     C69007   0.030   2.850  10.706  0.4228 -0.1890 -0.3235
  512MOL0     C69008   0.026   2.863  10.552 -0.1911  0.2889  0.6046
  512MOL0     O69009  -0.103   2.884  10.502  1.0561 -0.2275 -0.4804
  512MOL0     C69010  -0.207   2.791  10.524  0.1207  0.1873  0.0712
  512MOL0     C69011  -0.180   2.655  10.574  0.5783 -0.4655  0.1295
  512MOL0     C69012  -0.277   2.560  10.585  0.3581 -0.1011 -0.0895
  512MOL0     C69013  -0.407   2.579  10.537 -0.5054 -0.8891  0.3507
  512MOL0     C69014  -0.511   2.483  10.555  0.1765 -0.7644  0.7794
  512MOL0     O69015  -0.601   2.488  10.441  0.3692 -0.2405 -0.2800
  512MOL0     C69016  -0.724   2.446  10.467 -0.1743 -0.1513  0.0700
  512MOL0     C69017  -0.805   2.513  10.546  0.1246 -0.0331 -0.6148
  512MOL0     C69018  -0.938   2.467  10.573 -1.2053 -0.0874 -0.2189
  512MOL0     C69019  -0.987   2.345  10.519 -0.2863  0.5219  1.0552
  512MOL0     O69020  -1.109   2.306  10.538  0.2775 -0.3461 -1.0279
  512MOL0     C69021  -1.165   2.190  10.474  0.6801  0.3762  0.4552
  512MOL0     C69022  -1.132   2.064  10.554 -0.4233  1.0798  0.3208
  512MOL0     C69023  -1.115   1.942  10.451  0.3028  0.0110 -0.0704
  512MOL0     C69024  -1.166   1.822  10.523  0.5427  0.7467  0.1132
  512MOL0     C69025  -1.172   1.695  10.440 -1.0015  0.5377 -0.9249
  512MOL0     C69026  -1.029   1.632  10.428  1.3535 -0.3687 -0.0091
  512MOL0     C69027  -1.035   1.482  10.417 -0.6136 -0.0422  0.2681
  512MOL0     C69028  -1.070   1.437  10.274 -0.2779  1.0548 -0.3499
  512MOL0    Cl69029  -0.954   1.501  10.146 -0.3334 -0.0031 -0.0191
  512MOL0     C69030  -0.892   2.279  10.443  0.9941 -0.5854 -0.3242
  512MOL0     C69031  -0.769   2.323  10.410 -0.7075 -0.7671 -0.1598
  512MOL0     O69032  -0.520   2.416  10.657 -0.4034 -0.3518  0.7458
  512MOL0     C69033  -0.440   2.711  10.497  0.0804  0.1324 -0.4850
  512MOL0     C69034  -0.344   2.813  10.487  0.0155  0.0479 -0.0136
  512MOL0     N69035   0.001   2.994  11.043  0.0138 -0.4965  0.1475
  512MOL0     N69036  -0.064   2.991  11.146  0.2782  0.4624 -1.3250
  512MOL0     C69037  -0.002   1.841  11.138 -0.1465 -0.3459 -0.6637
  512MOL0     C69038   0.078   1.743  11.091 -0.3071 -0.4735 -0.4409
  512MOL0     C69039   0.329   1.494  10.868  0.8001 -0.3107 -0.3346
  512MOL0     C69040   0.379   1.397  10.952 -1.1768  0.6684  0.1248
  512MOL0     C69041   0.427   1.281  10.902 -0.7609  0.8394  0.4476
  512MOL0     C69042   0.438   1.250  10.765 -0.3138 -0.0629 -0.6341
  512MOL0     O69043   0.497   1.140  10.714  0.1879 -0.8297  0.4413
  512MOL0     C69044   0.557   1.053  10.803  0.6840 -0.3128 -0.5882
  512MOL0     C69045   0.619   0.951  10.695  1.2062 -0.7911 -0.6702
  512MOL0     C69046   0.752   1.006  10.632 -0.3128 -0.2375 -0.0132
  512MOL0     C69047   0.849   0.893  10.603 -0.9276 -0.1391  0.4580
  512MOL0     C69048   0.966   0.950  10.529  0.5144  0.2431  0.0663
  512MOL0     C69049   1.048   1.019  10.471  0.0393 -0.4852  0.2566
  512MOL0     C69050   0.390   1.341  10.680  0.1242 -0.8336 -0.6788
  512MOL0     C69051   0.328   1.463  10.728 -0.5204  0.4362  0.3939
  512MOL0     C69052   0.247   1.545  10.632  0.2033 -0.0279  0.7620
  512MOL0     H69053   0.354   1.807  11.281  0.1212  0.6169 -0.7718
  512MOL0     H69054   0.216   1.953  11.378  2.1552  1.6864 -2.1991
  512MOL0     H69055  -0.193   1.912  11.323  1.2555 -0.9809  2.6465
  512MOL0     H69056  -0.188   2.056  11.417  0.4978  0.5837 -1.0933
  512MOL0     H69057  -0.357   2.015  11.225 -1.3714  0.6399  0.2069
  512MOL0     H69058  -0.222   2.058  11.116  0.2374  1.9584 -1.2049
  512MOL0     H69059  -0.353   2.225  11.353 -0.1623 -3.1436  1.5717
  512MOL0     H69060  -0.375   2.246  11.182  2.5007  1.8100 -0.6853
  512MOL0     H69061  -0.111   2.313  11.321  1.4771 -2.8180 -2.7078
  512MOL0     H69062  -0.143   2.331  11.158 -2.6792 -0.1039 -1.4480
  512MOL0     H69063  -0.304   2.507  11.187 -1.2277 -1.7438 -0.2872
  512MOL0     H69064  -0.332   2.461  11.350  1.5933  1.6230  0.6980
  512MOL0     H69065  -0.098   2.542  11.410 -0.3939 -2.6567 -1.3259
  512MOL0     H69066  -0.064   2.576  11.234 -0.7306  1.1132 -0.6789
  512MOL0     H69067  -0.272   2.703  11.413 -4.5505 -1.2320 -3.2263
  512MOL0     H69068  -0.280   2.712  11.248 -0.9280 -0.9567  0.1550
  512MOL0     H69069  -0.164   2.910  11.390 -1.4269 -0.4561  0.3652
  512MOL0     H69070  -0.026   2.798  11.402  0.9807  2.8444  0.0227
  512MOL0     H69071   0.095   2.710  11.147  1.7954  0.0108 -3.1079
  512MOL0     H69072   0.273   2.898  10.962  0.2609 -1.8117  1.6563
  512MOL0     H69073   0.197   2.748  10.918 -1.9866 -0.4124 -1.7940
  512MOL0     H69074   0.153   3.020  10.779  1.6906 -0.5514 -1.3531
  512MOL0     H69075   0.248   2.880  10.731  0.1052  1.0445  1.2363
  512MOL0     H69076  -0.055   2.903  10.751  0.1852 -2.2249  1.7906
  512MOL0     H69077   0.010   2.747  10.733 -1.6685 -0.0068 -1.0329
  512MOL0     H69078   0.069   2.779  10.497  1.7458  1.5084  0.1551
  512MOL0     H69079   0.089   2.948  10.528  2.4265 -1.7811 -0.2956
  512MOL0     H69080  -0.080   2.625  10.601 -0.0385 -3.6708 -0.7518
  512MOL0     H69081  -0.243   2.465  10.625  2.4546 -0.0589 -1.6099
  512MOL0     H69082  -0.783   2.610  10.589 -3.0519  0.0810  1.0274
  512MOL0     H69083  -1.010   2.515  10.639 -1.4025 -0.7120  0.0329
  512MOL0     H69084  -1.274   2.198  10.470  0.5765 -1.1509 -2.3552
  512MOL0     H69085  -1.138   2.178  10.369 -3.7294  1.7468 -1.0623
  512MOL0     H69086  -1.031   2.069  10.595 -0.3530 -0.2581  0.3607
  512MOL0     H69087  -1.208   2.037  10.627  0.6197 -2.6123  0.2361
  512MOL0     H69088  -1.165   1.977  10.360 -0.9689  1.0034  0.9522
  512MOL0     H69089  -1.008   1.923  10.443  0.2712 -1.8160  2.3949
  512MOL0     H69090  -1.268   1.844  10.558  0.5634  0.4481  0.3619
  512MOL0     H69091  -1.115   1.808  10.618  1.6286  1.0699 -0.4139
  512MOL0     H69092  -1.230   1.714  10.349 -3.2300  0.3866  0.3991
  512MOL0     H69093  -1.227   1.618  10.494  1.5422  0.2163  1.4579
  512MOL0     H69094  -0.952   1.671  10.361  1.8081  4.2684  2.7597
  512MOL0     H69095  -0.990   1.646  10.529  2.7091  1.6668 -0.7368
  512MOL0     H69096  -1.104   1.437  10.488 -1.1101 -1.0943 -0.8432
  512MOL0     H69097  -0.936   1.446  10.444 -0.7189  0.2931  1.1179
  512MOL0     H69098  -1.075   1.327  10.273 -3.4595  1.0424  1.9078
  512MOL0     H69099  -1.171   1.475  10.256  0.4196  3.1643 -0.0496
  512MOL0     H69100  -0.934   2.189  10.400  1.4692 -0.1423 -1.7619
  512MOL0     H69101  -0.706   2.260  10.348  0.1474  0.0613 -0.1614
  512MOL0     H69102  -0.545   2.732  10.476 -0.4725 -2.3525 -0.4256
  512MOL0     H69103  -0.378   2.908  10.448  0.6221  1.5747  2.9046
  512MOL0     H69104  -0.100   1.846  11.091 -0.7002 -2.2993  0.2148
  512MOL0     H69105   0.040   1.685  11.008  0.9774 -0.8622 -0.7873
  512MOL0     H69106   0.392   1.399  11.059 -2.3599  0.8843  0.2818
  512MOL0     H69107   0.482   1.212  10.966  1.2837 -1.3825 -3.3032
  512MOL0     H69108   0.481   1.008  10.866 -1.7331  2.9614 -0.8704
  512MOL0     H69109   0.642   1.097  10.857 -1.7134  0.8294  2.5549
  512MOL0     H69110   0.546   0.927  10.618 -0.6246  2.8578 -0.2845
  512MOL0     H69111   0.640   0.878  10.774  0.6340  2.0084  2.3018
  512MOL0     H69112   0.795   1.093  10.683  1.6323 -1.3353  0.2887
  512MOL0     H69113   0.722   1.047  10.535 -1.0249 -0.2281  0.2000
  512MOL0     H69114   0.889   0.841  10.691 -0.2466  1.3205  1.0469
  512MOL0     H69115   0.807   0.805  10.553  1.7817 -1.6272  0.6045
  512MOL0     H69116   1.118   1.070  10.407  0.4313 -0.6475  0.5548
  512MOL0     H69117   0.389   1.308  10.577  0.7135  2.5645 -1.8913
  512MOL0     H69118   0.222   1.497  10.537 -0.5668 -1.2959  1.5671
  512MOL0     H69119   0.154   1.578  10.679 -0.1143 -1.7318  1.3967
  512MOL0     H69120   0.299   1.635  10.598  1.0854 -0.7537  0.1437
  513MOL0     O69121   9.098   6.370  10.178  0.8765  0.4268 -0.2463
  513MOL0     C69122   9.135   6.492  10.184 -0.2506  0.6636  0.5558
  513MOL0     O69123   9.159   6.574  10.077  0.9730  0.6125 -0.1352
  513MOL0     C69124   9.128   6.551   9.938 -0.2531 -0.0651  0.1828
  513MOL0     C69125   9.044   6.451   9.874  0.2143  0.5643  0.2646
  513MOL0     C69126   9.031   6.440   9.735  0.4019  0.3399 -1.0964
  513MOL0     C69127   9.112   6.520   9.653 -0.9893  0.6141 -0.1743
  513MOL0     O69128   9.097   6.519   9.514  0.2163  0.2516  0.2865
  513MOL0     C69129   9.059   6.403   9.438 -0.6548 -0.9973 -1.1575
  513MOL0     C69130   9.187   6.331   9.396 -0.0180 -0.2069  0.6893
  513MOL0     C69131   9.273   6.417   9.309 -0.3795 -0.2138  0.5779
  513MOL0     C69132   9.360   6.346   9.200  1.3287 -0.1300 -0.1092
  513MOL0     C69133   9.449   6.443   9.122 -0.3566  0.2952  0.3458
  513MOL0     C69134   9.533   6.387   9.006  0.1523 -0.0283 -1.1846
  513MOL0     C69135   9.460   6.285   8.923  0.0387  0.0413  0.2213
  513MOL0     C69136   9.338   6.349   8.851 -0.2264  0.1684 -0.8153
  513MOL0     N69137   9.274   6.269   8.753 -0.0883  0.8796 -0.5393
  513MOL0     C69138   9.143   6.222   8.771 -0.3457 -0.7840  0.3217
  513MOL0     C69139   9.131   6.127   8.674 -0.1044  0.3416 -0.3308
  513MOL0     C69140   9.017   6.047   8.641 -0.4243 -0.1678  0.1677
  513MOL0     C69141   8.902   6.053   8.742  0.0062  0.0463  0.0919
  513MOL0     C69142   8.898   5.931   8.837 -0.0899  0.5638 -0.7783
  513MOL0     C69143   8.835   5.947   8.977 -0.5692  0.0900  0.7205
  513MOL0     O69144   8.896   6.051   9.052  0.0669  0.0621 -0.3519
  513MOL0     C69145   8.824   6.096   9.165  0.4826  0.2569  0.4537
  513MOL0     C69146   8.743   6.025   9.252  0.0245  0.0407 -0.5051
  513MOL0     C69147   8.697   6.087   9.375 -0.4287 -0.6527  0.0974
  513MOL0     C69148   8.719   6.221   9.406  0.2732 -0.3766 -0.3599
  513MOL0     C69149   8.648   6.285   9.517 -0.1306  0.2391  0.1654
  513MOL0     O69150   8.640   6.417   9.505 -0.7541 -0.2244 -0.2038
  513MOL0     C69151   8.583   6.495   9.603  0.2863  0.1596 -0.7793
  513MOL0     C69152   8.647   6.603   9.646  0.0430 -0.3385  0.4259
  513MOL0     C69153   8.593   6.698   9.732 -0.0552  0.0952  0.2365
  513MOL0     C69154   8.475   6.676   9.784  0.0371 -0.6988  1.3035
  513MOL0     O69155   8.429   6.778   9.866 -0.4947  0.1415  0.0786
  513MOL0     C69156   8.294   6.785   9.891  0.1370  0.0318  0.4900
  513MOL0     C69157   8.268   6.895   9.996  0.3079  0.0486 -0.7836
  513MOL0     C69158   8.221   6.834  10.129  0.9275  0.1353  0.5235
  513MOL0     C69159   8.181   6.950  10.224 -0.1115  0.5400 -0.0296
  513MOL0     C69160   8.179   6.892  10.360  0.0980  0.0188 -0.4717
  513MOL0     C69161   8.333   6.878  10.404  0.0898  0.0228 -0.6151
  513MOL0     C69162   8.327   6.891  10.554 -0.7711  0.7399  0.2213
  513MOL0     C69163   8.453   6.851  10.626 -0.1179  0.5089 -0.2337
  513MOL0    Cl69164   8.583   6.959  10.582  0.1297 -0.2088 -0.3898
  513MOL0     C69165   8.408   6.556   9.752  1.4158  0.0249  0.2984
  513MOL0     C69166   8.452   6.469   9.651  0.0605  0.2818  0.0210
  513MOL0     O69167   8.610   6.210   9.606  0.0017 -0.4584 -0.2220
  513MOL0     C69168   8.775   6.298   9.305  0.1367  0.0478  0.5089
  513MOL0     C69169   8.835   6.233   9.188  0.2251 -0.8328 -0.3226
  513MOL0     N69170   9.252   6.120   8.604  0.0740  0.4033 -0.8477
  513MOL0     N69171   9.337   6.199   8.661  0.4882  1.0300  0.1630
  513MOL0     C69172   9.192   6.619   9.710 -0.2699  0.3844 -0.1660
  513MOL0     C69173   9.198   6.629   9.846  0.0801  0.4836  0.1591
  513MOL0     C69174   9.173   6.549  10.315 -0.1626 -0.8702  0.4276
  513MOL0     C69175   9.234   6.674  10.313 -0.5934  1.0412  0.1292
  513MOL0     C69176   9.322   6.726  10.412 -0.5752 -0.8600  0.6148
  513MOL0     C69177   9.325   6.653  10.530  0.3931  0.6071 -0.2090
  513MOL0     O69178   9.387   6.690  10.642 -0.5646 -0.4679  0.2983
  513MOL0     C69179   9.449   6.825  10.653  0.5042  0.9160  0.8773
  513MOL0     C69180   9.507   6.833  10.790  0.7364  0.4531 -0.0624
  513MOL0     C69181   9.388   6.822  10.892 -0.1340 -0.9887  1.7419
  513MOL0     C69182   9.443   6.801  11.039  0.0523 -0.7907  0.3779
  513MOL0     C69183   9.374   6.901  11.123  0.2080  0.1704 -0.3772
  513MOL0     C69184   9.331   6.988  11.206 -0.4361  0.4156  0.0678
  513MOL0     C69185   9.266   6.528  10.540 -1.2181  0.1413  0.9020
  513MOL0     C69186   9.187   6.474  10.434  0.1078 -0.1251  0.3396
  513MOL0     C69187   9.095   6.351  10.450 -0.1604 -0.6072 -1.1739
  513MOL0     H69188   9.001   6.379   9.942 -1.0154  1.5076  0.5156
  513MOL0     H69189   8.964   6.362   9.700  0.9789 -0.4963 -0.3854
  513MOL0     H69190   9.003   6.328   9.495 -2.0189 -0.0750 -1.2373
  513MOL0     H69191   8.996   6.444   9.359  1.0327  1.2665 -1.4419
  513MOL0     H69192   9.168   6.242   9.336  2.5708  1.2053 -2.4631
  513MOL0     H69193   9.241   6.313   9.490 -3.0040 -2.1203  2.1994
  513MOL0     H69194   9.333   6.471   9.384  0.7606  0.8953 -1.0650
  513MOL0     H69195   9.223   6.501   9.259  2.7790  2.3849  1.4146
  513MOL0     H69196   9.423   6.268   9.245 -1.0704 -1.1456  1.7136
  513MOL0     H69197   9.285   6.292   9.142  0.3746  0.6159  0.3934
  513MOL0     H69198   9.389   6.515   9.066  1.8517 -0.0379 -2.7187
  513MOL0     H69199   9.527   6.483   9.188 -1.1719  0.9308  0.9438
  513MOL0     H69200   9.574   6.463   8.939 -0.2398  4.0396  2.7354
  513MOL0     H69201   9.608   6.330   9.061 -0.9060  1.6134  2.2169
  513MOL0     H69202   9.429   6.198   8.981 -2.1241  0.8156  0.2931
  513MOL0     H69203   9.532   6.245   8.850 -1.3246  0.8911 -1.6690
  513MOL0     H69204   9.273   6.382   8.932  1.5913 -0.8281  1.1564
  513MOL0     H69205   9.386   6.432   8.800  2.4523 -1.0244 -0.3940
  513MOL0     H69206   9.076   6.261   8.847  2.0856  2.8966  0.8246
  513MOL0     H69207   8.987   6.102   8.551  2.3099  2.2322  0.5479
  513MOL0     H69208   9.048   5.945   8.620  0.9092 -0.2892  2.3614
  513MOL0     H69209   8.913   6.148   8.796 -3.2515  0.8656 -0.5192
  513MOL0     H69210   8.805   6.057   8.692 -0.8039 -1.5568  1.4237
  513MOL0     H69211   8.996   5.887   8.857  0.0500  0.4994 -1.5790
  513MOL0     H69212   8.839   5.847   8.797 -1.0201 -0.8223  3.0412
  513MOL0     H69213   8.843   5.852   9.032  0.4380 -1.2525 -1.6032
  513MOL0     H69214   8.733   5.980   8.955 -0.3754 -0.5266 -1.3446
  513MOL0     H69215   8.723   5.923   9.223  0.8094  0.5973 -3.2933
  513MOL0     H69216   8.636   6.042   9.452  1.3960 -0.8251  1.5069
  513MOL0     H69217   8.747   6.628   9.611  1.2897  0.3484  3.9809
  513MOL0     H69218   8.645   6.790   9.758 -1.2551  0.5295  1.2024
  513MOL0     H69219   8.239   6.808   9.800  0.2681 -1.2913  0.0568
  513MOL0     H69220   8.255   6.691   9.932  0.1744 -0.5720 -0.8109
  513MOL0     H69221   8.354   6.959  10.019  0.1192 -0.5306  1.9575
  513MOL0     H69222   8.190   6.963   9.960 -0.4243 -0.4060 -0.1109
  513MOL0     H69223   8.134   6.769  10.122  0.5501  0.7897 -1.7704
  513MOL0     H69224   8.303   6.768  10.160  0.1609 -0.9143  0.3769
  513MOL0     H69225   8.082   6.985  10.194 -0.8905  0.1756  1.9503
  513MOL0     H69226   8.249   7.035  10.234  1.3138 -0.6277  0.5666
  513MOL0     H69227   8.125   6.799  10.379 -0.4138  0.8228  2.6844
  513MOL0     H69228   8.125   6.962  10.425 -1.0078 -1.1243 -0.1323
  513MOL0     H69229   8.375   6.785  10.364 -2.4217 -0.4210 -2.5246
  513MOL0     H69230   8.393   6.956  10.357 -1.6672  1.5733 -0.4063
  513MOL0     H69231   8.246   6.832  10.598  1.6542 -1.6560  1.7434
  513MOL0     H69232   8.307   6.997  10.571 -0.5663  0.8844 -0.3961
  513MOL0     H69233   8.450   6.876  10.732 -1.1869  3.0408 -0.7912
  513MOL0     H69234   8.471   6.746  10.602 -3.5670 -0.2163 -0.1528
  513MOL0     H69235   8.316   6.538   9.807  2.2124 -1.7469  1.1270
  513MOL0     H69236   8.394   6.391   9.603 -2.4203  2.6855 -1.1529
  513MOL0     H69237   8.781   6.407   9.311 -1.5964  0.3526 -1.6839
  513MOL0     H69238   8.900   6.281   9.116  0.6146  1.4658  1.4634
  513MOL0     H69239   9.252   6.684   9.647  0.3681 -0.1837 -0.1666
  513MOL0     H69240   9.263   6.705   9.888 -0.0946  0.0883  1.1701
  513MOL0     H69241   9.223   6.745  10.232 -0.9343  1.7714  0.8049
  513MOL0     H69242   9.371   6.821  10.391  1.1006 -1.8864 -0.3746
  513MOL0     H69243   9.363   6.890  10.632 -0.0501 -0.8276 -3.2833
  513MOL0     H69244   9.529   6.838  10.579  0.1837 -2.2168 -0.1545
  513MOL0     H69245   9.551   6.932  10.802 -0.8674  1.3630 -1.2106
  513MOL0     H69246   9.582   6.755  10.805  0.4817  0.5040  1.5696
  513MOL0     H69247   9.320   6.741  10.866 -1.1372  0.5514 -0.9061
  513MOL0     H69248   9.324   6.910  10.883 -1.3264 -2.0344 -1.2471
  513MOL0     H69249   9.435   6.698  11.076  1.7094 -1.1648 -0.2536
  513MOL0     H69250   9.545   6.840  11.042  0.9197 -2.8592 -0.2883
  513MOL0     H69251   9.297   7.067  11.270  1.0332  1.0017  0.1776
  513MOL0     H69252   9.280   6.486  10.639  1.9386  0.4173  0.6711
  513MOL0     H69253   8.997   6.366  10.404  0.3536  6.3751 -1.1785
  513MOL0     H69254   9.146   6.264  10.409  1.0045 -0.6730  0.3452
  513MOL0     H69255   9.085   6.343  10.558  0.0587  2.6399 -0.8038
  514MOL0     O69256   4.980   3.309   8.016 -0.2689 -0.2963  0.9180
  514MOL0     C69257   4.975   3.272   8.131 -0.0052  0.4670  0.6525
  514MOL0     O69258   4.895   3.169   8.169 -0.0518  0.6395 -0.5306
  514MOL0     C69259   4.860   3.072   8.076  0.4247  1.2034  0.8566
  514MOL0     C69260   4.759   3.104   7.979 -0.1763  0.3827 -0.0981
  514MOL0     C69261   4.722   3.004   7.883 -0.1835 -1.0198 -0.2579
  514MOL0     C69262   4.789   2.879   7.870  0.3324 -0.2981  0.6125
  514MOL0     O69263   4.779   2.800   7.758 -0.1384 -0.3535  0.2798
  514MOL0     C69264   4.843   2.670   7.763  0.5769  0.5749  0.0640
  514MOL0     C69265   4.823   2.578   7.637 -0.2277  0.6611 -0.7372
  514MOL0     C69266   4.677   2.557   7.615  0.3274 -1.0748  0.1992
  514MOL0     C69267   4.631   2.473   7.487  0.6821  0.1796 -0.5539
  514MOL0     C69268   4.479   2.470   7.465  0.0105  0.1075 -0.8913
  514MOL0     C69269   4.441   2.378   7.348  0.0670  0.1477  0.3706
  514MOL0     C69270   4.496   2.232   7.344  0.6297 -0.2311 -0.6489
  514MOL0     C69271   4.421   2.133   7.433 -0.0432 -0.6252 -0.1362
  514MOL0     N69272   4.429   2.148   7.579  0.4356  0.2713 -0.3519
  514MOL0     C69273   4.549   2.127   7.647 -0.3985  0.1879  0.2202
  514MOL0     C69274   4.520   2.165   7.777 -0.3144  0.0809  0.3379
  514MOL0     C69275   4.614   2.163   7.895  0.6447  0.6295  1.6276
  514MOL0     C69276   4.724   2.267   7.873  0.1525  0.2708 -0.0118
  514MOL0     C69277   4.849   2.195   7.920  0.3331 -0.3344 -0.1377
  514MOL0     C69278   4.964   2.290   7.929  0.0461 -0.6526  0.8355
  514MOL0     O69279   4.940   2.379   8.046  0.2511  0.6673 -0.0596
  514MOL0     C69280   5.029   2.481   8.081  1.5792  0.3456  0.4067
  514MOL0     C69281   5.148   2.507   8.012  0.5138 -0.0931  0.0172
  514MOL0     C69282   5.222   2.616   8.048 -0.0704 -0.3754  0.2165
  514MOL0     C69283   5.192   2.692   8.163 -0.8245  0.0218  0.3051
  514MOL0     C69284   5.284   2.804   8.206 -0.3742  0.1635 -0.2586
  514MOL0     O69285   5.234   2.892   8.286  0.7951 -0.8884 -0.2208
  514MOL0     C69286   5.307   3.006   8.325 -0.8832  0.3250  1.6798
  514MOL0     C69287   5.332   3.043   8.464  0.2784  0.5246  0.0880
  514MOL0     C69288   5.386   3.163   8.496 -0.8893  0.3109 -0.3542
  514MOL0     C69289   5.440   3.248   8.394 -0.4742  0.6731 -0.5588
  514MOL0     O69290   5.488   3.370   8.433 -0.0319 -0.1353  0.9210
  514MOL0     C69291   5.601   3.418   8.354  1.0871  0.0796 -0.1897
  514MOL0     C69292   5.677   3.529   8.442  0.2631 -0.4712  0.0307
  514MOL0     C69293   5.742   3.470   8.574 -0.0434 -0.1335 -0.1917
  514MOL0     C69294   5.826   3.578   8.634  0.1977 -0.5193 -0.0365
  514MOL0     C69295   5.917   3.532   8.748 -0.4554 -0.0845 -0.3378
  514MOL0     C69296   6.003   3.647   8.810 -0.2372 -0.2532 -0.4518
  514MOL0     C69297   6.087   3.604   8.932 -0.6965  0.5516 -0.0772
  514MOL0     C69298   6.197   3.700   8.949 -0.3301  0.9107  0.4915
  514MOL0    Cl69299   6.317   3.670   8.814 -0.0393 -0.4318  0.0193
  514MOL0     C69300   5.440   3.216   8.260 -0.4834  0.3696 -0.1786
  514MOL0     C69301   5.367   3.096   8.229  0.0580  0.5010  0.3759
  514MOL0     O69302   5.403   2.803   8.165  0.2020  0.8273 -0.5254
  514MOL0     C69303   5.075   2.665   8.230 -0.5157  0.2623  0.8184
  514MOL0     C69304   4.995   2.559   8.193 -0.1955 -0.6612 -0.7383
  514MOL0     N69305   4.391   2.208   7.773 -0.7285  0.4616  0.9458
  514MOL0     N69306   4.333   2.197   7.662  0.2458  0.2965  0.0814
  514MOL0     C69307   4.878   2.848   7.980 -0.4175 -1.0069  0.1855
  514MOL0     C69308   4.917   2.946   8.074 -0.2059 -1.1095  0.1695
  514MOL0     C69309   5.040   3.342   8.242  0.0730 -0.2818  0.1980
  514MOL0     C69310   5.044   3.268   8.359 -0.4880  0.3123  0.1758
  514MOL0     C69311   5.111   3.327   8.471  0.2037 -0.7211 -0.2148
  514MOL0     C69312   5.156   3.455   8.475  0.8931  0.1637  0.8128
  514MOL0     O69313   5.210   3.496   8.590 -0.2461 -0.1676  0.1578
  514MOL0     C69314   5.269   3.622   8.613 -0.9299  0.4256  0.6960
  514MOL0     C69315   5.356   3.635   8.738  0.6871 -0.3101 -0.4259
  514MOL0     C69316   5.262   3.585   8.862  0.2479 -0.0356 -0.1049
  514MOL0     C69317   5.314   3.627   9.008  0.4057  0.6104  0.1048
  514MOL0     C69318   5.454   3.588   9.033  0.3884  0.0806  0.4003
  514MOL0     C69319   5.572   3.575   9.061 -0.3416  0.1751  0.3457
  514MOL0     C69320   5.144   3.529   8.356  0.4706  0.5928 -0.5585
  514MOL0     C69321   5.090   3.472   8.239  0.6393 -0.4265 -0.8021
  514MOL0     C69322   5.089   3.569   8.121 -0.4427 -0.1867 -0.9888
  514MOL0     H69323   4.704   3.197   7.979  0.2394  0.6440 -1.1200
  514MOL0     H69324   4.643   3.026   7.813 -3.0831 -0.1086  3.0076
  514MOL0     H69325   4.949   2.691   7.777  0.2067  1.8011  1.3187
  514MOL0     H69326   4.796   2.614   7.844  0.6617 -0.1849 -0.3994
  514MOL0     H69327   4.875   2.487   7.671  5.4989  3.0093 -2.0291
  514MOL0     H69328   4.875   2.618   7.550  1.2344  1.4086  0.4496
  514MOL0     H69329   4.623   2.652   7.620 -0.5091 -1.5806  1.1461
  514MOL0     H69330   4.638   2.490   7.693  2.0146 -0.1776  1.8812
  514MOL0     H69331   4.680   2.514   7.398 -0.5716 -0.6101 -1.6449
  514MOL0     H69332   4.661   2.370   7.507 -1.4817 -0.4809 -0.5446
  514MOL0     H69333   4.427   2.447   7.558 -0.5587  1.3024 -0.8849
  514MOL0     H69334   4.438   2.570   7.447 -1.0745 -0.1254  0.1360
  514MOL0     H69335   4.333   2.379   7.331  0.3948  1.4049 -2.0792
  514MOL0     H69336   4.487   2.415   7.256  0.3817  0.0382  0.4853
  514MOL0     H69337   4.600   2.225   7.374  0.0597 -3.4883  0.9257
  514MOL0     H69338   4.490   2.206   7.238 -2.6062 -0.1146 -0.5992
  514MOL0     H69339   4.318   2.136   7.396 -0.2116  2.7501  0.3391
  514MOL0     H69340   4.459   2.031   7.422 -0.0073 -0.9551  2.4038
  514MOL0     H69341   4.643   2.080   7.622 -1.3720 -0.9561 -1.5851
  514MOL0     H69342   4.557   2.194   7.983 -3.0454  0.5426 -0.5317
  514MOL0     H69343   4.643   2.061   7.918  1.7765  0.4096 -0.5456
  514MOL0     H69344   4.736   2.296   7.768  2.6561  1.5529  0.5541
  514MOL0     H69345   4.718   2.359   7.932 -0.9886  2.8657 -3.7881
  514MOL0     H69346   4.874   2.105   7.864 -1.3164 -1.1548  0.4053
  514MOL0     H69347   4.832   2.164   8.024  0.9993 -0.0207  0.0736
  514MOL0     H69348   4.979   2.350   7.839 -1.5474 -0.4164  0.7002
  514MOL0     H69349   5.056   2.231   7.937 -0.3734 -1.2311  1.5994
  514MOL0     H69350   5.156   2.456   7.916 -2.2758 -1.0569  0.1786
  514MOL0     H69351   5.307   2.638   7.984 -0.3268  2.0018  0.6092
  514MOL0     H69352   5.279   2.983   8.537  0.6655 -0.0825 -0.1208
  514MOL0     H69353   5.390   3.199   8.599 -3.7686  0.7497 -0.3024
  514MOL0     H69354   5.672   3.341   8.323  2.9914  1.5719  0.2509
  514MOL0     H69355   5.563   3.474   8.268 -2.1868  2.5951  2.6086
  514MOL0     H69356   5.755   3.572   8.379  1.4542 -2.0285  0.3682
  514MOL0     H69357   5.609   3.611   8.466  0.9417  0.2795 -0.5490
  514MOL0     H69358   5.662   3.426   8.634  0.1353  0.5653  0.5682
  514MOL0     H69359   5.819   3.397   8.548 -0.5392 -0.0803 -1.9644
  514MOL0     H69360   5.754   3.652   8.669  1.4061  2.6820 -3.6336
  514MOL0     H69361   5.885   3.623   8.553  0.2317 -2.2013 -1.0006
  514MOL0     H69362   5.982   3.448   8.723 -3.1009 -2.2106 -0.4788
  514MOL0     H69363   5.856   3.487   8.827 -1.3316 -0.9110 -1.4531
  514MOL0     H69364   6.061   3.676   8.722  0.2769 -3.6497 -1.3835
  514MOL0     H69365   5.924   3.722   8.821 -1.6361 -1.5510 -1.1557
  514MOL0     H69366   6.117   3.499   8.934  0.6932  0.9333  1.2737
  514MOL0     H69367   6.033   3.616   9.027  0.9555  0.0447  0.9727
  514MOL0     H69368   6.164   3.804   8.947 -0.5830  0.8293 -1.9340
  514MOL0     H69369   6.240   3.695   9.050  0.3651  1.9158  0.2625
  514MOL0     H69370   5.468   3.276   8.173 -0.3515 -1.6719 -1.6179
  514MOL0     H69371   5.345   3.062   8.129  1.2205  1.2390 -0.1428
  514MOL0     H69372   5.041   2.729   8.310 -1.7974  0.3770  0.2062
  514MOL0     H69373   4.907   2.545   8.254 -0.0809  1.0130 -0.1496
  514MOL0     H69374   4.925   2.750   7.982  1.4135 -0.1850 -0.8560
  514MOL0     H69375   4.989   2.923   8.152 -2.9661 -1.3924  2.8213
  514MOL0     H69376   5.004   3.168   8.363  1.4748 -0.6454 -2.1085
  514MOL0     H69377   5.110   3.263   8.559 -0.6751 -3.2347 -1.9387
  514MOL0     H69378   5.176   3.678   8.627 -2.1365 -1.3049 -0.0583
  514MOL0     H69379   5.338   3.656   8.535  1.2156 -1.8204  1.4945
  514MOL0     H69380   5.380   3.741   8.746  1.2918 -0.3113 -1.8512
  514MOL0     H69381   5.450   3.579   8.729  1.3992  0.9497 -1.2130
  514MOL0     H69382   5.254   3.476   8.863 -0.3894  0.0038 -0.4049
  514MOL0     H69383   5.168   3.641   8.853  2.3814  3.9310 -0.0753
  514MOL0     H69384   5.298   3.730   9.043  0.1023  0.0881  1.6185
  514MOL0     H69385   5.239   3.571   9.066  0.1927 -1.5590 -2.1236
  514MOL0     H69386   5.674   3.548   9.078 -0.6050 -2.5027 -1.6196
  514MOL0     H69387   5.172   3.633   8.366 -2.9365  1.4597  1.3954
  514MOL0     H69388   5.174   3.533   8.063  2.4918  1.0938  2.1499
  514MOL0     H69389   5.003   3.584   8.055 -1.0694  2.8512  0.3073
  514MOL0     H69390   5.119   3.671   8.150  2.3199 -2.1532  4.6254
  515MOL0     O69391   8.350   0.002   7.559 -0.7088  0.6122  1.7988
  515MOL0     C69392   8.415   0.061   7.642  0.0301  0.1157 -1.1267
  515MOL0     O69393   8.442   0.194   7.644 -0.3094 -0.7344  0.0127
  515MOL0     C69394   8.399   0.278   7.541 -0.0342 -0.0711 -1.0093
  515MOL0     C69395   8.288   0.266   7.455 -0.5227 -0.3327 -0.4314
  515MOL0     C69396   8.274   0.364   7.353 -0.1502  0.0469  0.8673
  515MOL0     C69397   8.360   0.470   7.337  0.0066 -0.8872  0.5768
  515MOL0     O69398   8.355   0.575   7.233 -0.7419  0.1168 -0.7207
  515MOL0     C69399   8.246   0.583   7.137  0.0257  1.0740  0.3225
  515MOL0     C69400   8.269   0.692   7.033 -0.3848 -0.3049  0.1432
  515MOL0     C69401   8.177   0.646   6.914  0.4705 -0.1078 -0.5272
  515MOL0     C69402   8.221   0.702   6.775  0.1793 -0.0941 -0.3672
  515MOL0     C69403   8.160   0.623   6.665 -0.4619  0.5446  0.7885
  515MOL0     C69404   8.197   0.677   6.529  0.6507 -1.0679  0.5451
  515MOL0     C69405   8.132   0.622   6.409 -0.4821 -0.2710  0.2902
  515MOL0     C69406   7.972   0.635   6.403  0.2824 -0.1755  0.6040
  515MOL0     N69407   7.921   0.766   6.400 -0.2887 -0.1902  0.5652
  515MOL0     C69408   7.873   0.842   6.505 -0.3994  0.1915 -0.2580
  515MOL0     C69409   7.796   0.932   6.452  0.4401  0.5102 -0.3223
  515MOL0     C69410   7.712   1.040   6.505  0.2413 -0.9507  0.6370
  515MOL0     C69411   7.787   1.159   6.566  0.2086 -0.2140  0.0413
  515MOL0     C69412   7.718   1.251   6.665 -0.4890 -0.7705  0.7155
  515MOL0     C69413   7.801   1.373   6.680 -1.0927  0.5114  0.2742
  515MOL0     O69414   7.797   1.450   6.565  0.4724 -0.3055  0.0866
  515MOL0     C69415   7.889   1.557   6.558 -0.2455  0.9361 -0.4624
  515MOL0     C69416   7.912   1.603   6.433 -0.5286 -0.0908  0.2330
  515MOL0     C69417   8.004   1.699   6.410 -0.3440 -0.2081  0.0110
  515MOL0     C69418   8.056   1.781   6.522 -0.7222  0.9946  0.0819
  515MOL0     C69419   8.120   1.906   6.494  0.2942 -0.4414 -0.4152
  515MOL0     O69420   8.191   1.963   6.592 -0.2081 -0.2835  0.8819
  515MOL0     C69421   8.254   2.083   6.561 -0.4868 -0.1737  0.5614
  515MOL0     C69422   8.365   2.089   6.487 -0.4081 -0.8574  0.1850
  515MOL0     C69423   8.428   2.216   6.461  0.6615  0.7273 -0.3701
  515MOL0     C69424   8.370   2.334   6.510  0.3590  0.7267  1.5623
  515MOL0     O69425   8.425   2.458   6.486 -0.1235  0.2308 -0.3896
  515MOL0     C69426   8.446   2.500   6.349 -0.4665 -0.5398  0.4414
  515MOL0     C69427   8.362   2.617   6.304  0.1047 -0.1743 -0.5106
  515MOL0     C69428   8.231   2.636   6.392  0.3626 -0.9911  0.8330
  515MOL0     C69429   8.131   2.527   6.342 -0.0605 -0.2392 -0.2727
  515MOL0     C69430   7.994   2.538   6.408  0.0133  0.0951 -1.1752
  515MOL0     C69431   7.927   2.680   6.387 -0.0344 -0.5467 -0.0856
  515MOL0     C69432   7.777   2.696   6.429  0.8016 -0.3954 -0.3936
  515MOL0     C69433   7.714   2.809   6.344 -0.4576 -0.0832  0.2778
  515MOL0    Cl69434   7.564   2.864   6.400  0.2303  0.4970  0.2246
  515MOL0     C69435   8.256   2.325   6.586 -0.5235  0.9100  0.2208
  515MOL0     C69436   8.195   2.203   6.611  0.2844 -0.1719  0.0083
  515MOL0     O69437   8.097   1.959   6.380  0.6087  0.1246 -0.2146
  515MOL0     C69438   8.036   1.728   6.653  0.3174  0.2412  0.3354
  515MOL0     C69439   7.955   1.607   6.667 -0.1182 -0.4504  0.3909
  515MOL0     N69440   7.809   0.927   6.321 -0.5486  0.2821 -0.0958
  515MOL0     N69441   7.876   0.824   6.284 -0.3462  0.7546  0.6266
  515MOL0     C69442   8.466   0.484   7.426 -0.1764  0.1029  0.3783
  515MOL0     C69443   8.481   0.389   7.527  0.1601 -0.5049 -0.5634
  515MOL0     C69444   8.447  -0.012   7.767  0.1595 -0.2164  0.8240
  515MOL0     C69445   8.400   0.048   7.884 -0.6480  0.1963  0.6318
  515MOL0     C69446   8.427  -0.016   8.007  0.9134 -0.3030  0.2313
  515MOL0     C69447   8.490  -0.136   8.019  0.0537 -0.4364 -0.5876
  515MOL0     O69448   8.509  -0.210   8.137 -0.5652  0.4183 -0.6599
  515MOL0     C69449   8.449  -0.191   8.265  0.9627  0.8160 -0.1154
  515MOL0     C69450   8.362  -0.313   8.302  0.0398 -0.2175 -0.6941
  515MOL0     C69451   8.231  -0.337   8.224  0.7284  0.6278 -0.2845
  515MOL0     C69452   8.102  -0.317   8.294 -0.0602  0.1696 -0.5802
  515MOL0     C69453   8.087  -0.183   8.340 -0.2262 -0.4394 -0.5782
  515MOL0     C69454   8.078  -0.076   8.389 -0.4054 -0.3635  0.2559
  515MOL0     C69455   8.535  -0.196   7.902  0.2044 -0.9427 -0.2183
  515MOL0     C69456   8.522  -0.132   7.776  0.6813 -0.1240  0.7671
  515MOL0     C69457   8.579  -0.183   7.649  0.1945  0.0421 -0.1749
  515MOL0     H69458   8.221   0.182   7.469  1.9947 -2.5493 -0.8560
  515MOL0     H69459   8.199   0.343   7.277 -0.9461 -0.0200  1.6481
  515MOL0     H69460   8.247   0.484   7.093 -0.7484  0.7482  0.9978
  515MOL0     H69461   8.152   0.596   7.193  0.0374 -0.7387  0.8035
  515MOL0     H69462   8.372   0.711   7.003 -0.2187 -2.0124 -0.5259
  515MOL0     H69463   8.242   0.789   7.074  1.2897  0.4784 -0.5338
  515MOL0     H69464   8.076   0.680   6.934 -0.5177 -2.5355 -1.0474
  515MOL0     H69465   8.167   0.538   6.901  0.4278 -0.9667  4.6558
  515MOL0     H69466   8.180   0.803   6.761 -0.8103 -0.3829  0.2959
  515MOL0     H69467   8.329   0.707   6.757  0.0103 -2.2158 -2.4036
  515MOL0     H69468   8.201   0.522   6.671  2.6564  1.6924  1.0089
  515MOL0     H69469   8.051   0.624   6.674 -0.4049  2.0030  1.6392
  515MOL0     H69470   8.154   0.777   6.522 -0.8952 -1.5396  2.4943
  515MOL0     H69471   8.305   0.682   6.513  0.5670  1.2450  0.3720
  515MOL0     H69472   8.158   0.518   6.388  1.5007  0.9551 -4.6026
  515MOL0     H69473   8.180   0.670   6.323  0.5587 -1.4349  0.2020
  515MOL0     H69474   7.938   0.580   6.315  1.8533  2.3629 -1.7523
  515MOL0     H69475   7.956   0.587   6.500  2.7569 -1.0468  0.6633
  515MOL0     H69476   7.886   0.815   6.609 -1.0984  3.0497  0.6728
  515MOL0     H69477   7.656   1.083   6.422  0.5262 -1.9418 -0.0878
  515MOL0     H69478   7.648   0.998   6.584 -0.7275  2.3831  1.7813
  515MOL0     H69479   7.882   1.128   6.610  1.0622  2.7984  0.5647
  515MOL0     H69480   7.820   1.222   6.483  2.7874 -0.5384  0.7222
  515MOL0     H69481   7.705   1.200   6.760  3.4413 -1.4235  1.0676
  515MOL0     H69482   7.624   1.287   6.621 -0.4016  2.9275  3.1479
  515MOL0     H69483   7.903   1.342   6.705 -1.3248 -0.5593 -0.0360
  515MOL0     H69484   7.777   1.422   6.774 -1.0313 -0.7414  0.9711
  515MOL0     H69485   7.878   1.550   6.344  1.0189 -0.9454  0.1225
  515MOL0     H69486   8.026   1.714   6.305 -3.0550  3.2006 -0.2530
  515MOL0     H69487   8.399   2.003   6.430  1.2591 -0.2287  0.1626
  515MOL0     H69488   8.511   2.234   6.394  0.8275  0.2565 -0.2955
  515MOL0     H69489   8.552   2.528   6.348  0.0650 -2.4282 -1.0386
  515MOL0     H69490   8.447   2.421   6.274 -1.8515 -0.1433 -0.0313
  515MOL0     H69491   8.423   2.707   6.308  1.3090 -0.9708 -0.2691
  515MOL0     H69492   8.326   2.615   6.201 -0.0734 -1.1562 -0.4424
  515MOL0     H69493   8.254   2.616   6.497  0.3502  2.0841  1.5053
  515MOL0     H69494   8.191   2.737   6.382  1.3279 -0.4244  2.3327
  515MOL0     H69495   8.172   2.426   6.339 -1.4224 -0.8130 -0.0197
  515MOL0     H69496   8.104   2.548   6.238  0.2361 -2.0425 -0.7330
  515MOL0     H69497   7.998   2.515   6.515  0.5337  4.1866 -0.1682
  515MOL0     H69498   7.933   2.463   6.356 -0.4212  0.3905 -1.0957
  515MOL0     H69499   7.986   2.752   6.445 -1.3837  1.3995 -1.0272
  515MOL0     H69500   7.930   2.699   6.279  4.2785 -0.5980 -0.1248
  515MOL0     H69501   7.768   2.709   6.538 -0.1668 -3.1074 -0.0634
  515MOL0     H69502   7.734   2.599   6.400  5.1931 -2.6782 -0.0757
  515MOL0     H69503   7.780   2.897   6.350 -1.2230  0.4274  2.2182
  515MOL0     H69504   7.710   2.787   6.237  0.7026 -0.5177  0.3011
  515MOL0     H69505   8.217   2.409   6.642 -0.0944  3.6865 -3.2507
  515MOL0     H69506   8.102   2.191   6.667 -0.1433 -1.3956 -0.9160
  515MOL0     H69507   8.082   1.775   6.739  3.3779 -0.9245 -0.4914
  515MOL0     H69508   7.930   1.567   6.765  1.5767  0.8026  1.4117
  515MOL0     H69509   8.546   0.556   7.418  0.7500 -0.8937  0.3440
  515MOL0     H69510   8.559   0.410   7.600 -0.7883  3.1895 -0.3851
  515MOL0     H69511   8.369   0.151   7.884  2.9194  1.4188  1.4959
  515MOL0     H69512   8.387   0.036   8.094 -0.0838  0.8397 -0.8745
  515MOL0     H69513   8.389  -0.100   8.267 -0.4273 -0.0024 -1.9363
  515MOL0     H69514   8.522  -0.180   8.346  0.1777 -0.9230  0.9043
  515MOL0     H69515   8.336  -0.293   8.406  1.7224  0.5008 -0.3697
  515MOL0     H69516   8.425  -0.403   8.297  0.3524  0.0575 -2.2843
  515MOL0     H69517   8.224  -0.437   8.180 -3.7967  0.5167  0.2421
  515MOL0     H69518   8.219  -0.262   8.146 -1.0631  0.3667 -0.2848
  515MOL0     H69519   8.024  -0.343   8.222 -0.3030 -2.5500  0.5593
  515MOL0     H69520   8.088  -0.388   8.376  2.7126  0.4659  0.2619
  515MOL0     H69521   8.060   0.012   8.447 -0.0174  1.1609 -1.8140
  515MOL0     H69522   8.581  -0.293   7.917 -1.1975 -1.8085 -1.1976
  515MOL0     H69523   8.634  -0.105   7.595 -1.8879  0.4485 -1.8236
  515MOL0     H69524   8.639  -0.275   7.658  3.4241  2.0637  0.4805
  515MOL0     H69525   8.492  -0.199   7.585  0.3192  3.5823 -1.4432
  516MOL0     O69526   7.326   4.802   9.048  0.2361  0.2038 -0.0464
  516MOL0     C69527   7.343   4.690   9.099  0.0324  0.2484  0.3662
  516MOL0     O69528   7.458   4.647   9.173  0.0987 -0.8465 -0.6452
  516MOL0     C69529   7.565   4.740   9.192 -0.1625 -0.2189  0.4066
  516MOL0     C69530   7.693   4.723   9.141 -0.5289 -0.4267  0.4126
  516MOL0     C69531   7.786   4.820   9.139  0.5880  0.2957 -0.2580
  516MOL0     C69532   7.772   4.938   9.220  0.2567  0.5530  2.3810
  516MOL0     O69533   7.871   5.034   9.245  0.4261 -0.0166  0.7807
  516MOL0     C69534   7.946   5.087   9.132 -0.5609  0.0540 -0.1793
  516MOL0     C69535   7.875   5.194   9.053  0.8034 -0.7576  0.1251
  516MOL0     C69536   7.970   5.249   8.945 -0.0918  0.4318  0.0124
  516MOL0     C69537   7.894   5.354   8.868 -0.5887  0.3234  0.1043
  516MOL0     C69538   7.908   5.499   8.919 -0.2743  0.3421  0.1052
  516MOL0     C69539   7.883   5.604   8.803  0.0095 -0.0363 -0.0190
  516MOL0     C69540   7.964   5.735   8.803 -0.7435  0.2774  1.0055
  516MOL0     C69541   7.892   5.835   8.896  0.4192 -0.0791  0.0782
  516MOL0     N69542   7.953   5.970   8.866 -0.1766  0.4201 -0.2010
  516MOL0     C69543   7.904   6.068   8.784 -0.7364  0.3316 -0.3747
  516MOL0     C69544   7.965   6.181   8.824 -0.3606 -0.6275 -0.3767
  516MOL0     C69545   7.942   6.320   8.772 -0.0591 -0.1342 -0.0474
  516MOL0     C69546   7.933   6.339   8.620  0.5848 -0.0496  0.0603
  516MOL0     C69547   7.965   6.487   8.580  0.3452 -0.4093  0.2036
  516MOL0     C69548   7.988   6.504   8.433 -0.4781 -0.1791  0.3379
  516MOL0     O69549   7.875   6.488   8.349 -0.4226  0.2905 -0.4801
  516MOL0     C69550   7.774   6.579   8.382 -0.0645  0.3404  0.3213
  516MOL0     C69551   7.792   6.714   8.409  0.3886 -0.1506  0.2183
  516MOL0     C69552   7.682   6.799   8.443 -0.7639 -0.0398 -0.3170
  516MOL0     C69553   7.555   6.751   8.435  0.4701  0.1086  0.6125
  516MOL0     C69554   7.437   6.829   8.456  0.0343 -0.2370  0.1416
  516MOL0     O69555   7.312   6.775   8.455 -0.7793  0.0856  0.1497
  516MOL0     C69556   7.209   6.856   8.495  0.0407  0.3724  0.4197
  516MOL0     C69557   7.153   6.845   8.621 -0.1153 -0.6111  0.9247
  516MOL0     C69558   7.045   6.927   8.664 -0.1271 -0.9839  0.7697
  516MOL0     C69559   7.002   7.026   8.582 -0.3014 -0.1363 -0.1683
  516MOL0     O69560   6.907   7.112   8.615 -0.3618 -0.1892 -0.2857
  516MOL0     C69561   6.821   7.079   8.731 -0.8368  0.0746  0.2804
  516MOL0     C69562   6.727   7.194   8.766  0.4357 -0.1924 -0.3654
  516MOL0     C69563   6.633   7.176   8.888  0.3307  0.9740  0.2990
  516MOL0     C69564   6.538   7.288   8.913 -0.1310 -0.0086  0.5145
  516MOL0     C69565   6.478   7.279   9.052  0.1586 -0.2444  0.2375
  516MOL0     C69566   6.380   7.398   9.073 -0.4901  0.2862  0.6428
  516MOL0     C69567   6.321   7.391   9.209  0.5307 -0.7350 -0.3288
  516MOL0     C69568   6.210   7.495   9.236  0.0096 -0.1968  0.6845
  516MOL0    Cl69569   6.219   7.511   9.411  0.1523  0.5320  0.1239
  516MOL0     C69570   7.059   7.044   8.459  0.0949  0.4754  0.6495
  516MOL0     C69571   7.161   6.959   8.413  0.4963  0.5041  0.6091
  516MOL0     O69572   7.462   6.949   8.470 -0.6093 -0.7203  0.6883
  516MOL0     C69573   7.540   6.615   8.399  0.9752  0.4413  0.5960
  516MOL0     C69574   7.647   6.521   8.374  0.5362 -0.3693 -0.0762
  516MOL0     N69575   8.030   6.163   8.941  0.0774 -0.9632  0.4038
  516MOL0     N69576   8.021   6.036   8.967  0.6419 -0.9677  0.0361
  516MOL0     C69577   7.644   4.955   9.273  0.1244 -0.2703 -0.6663
  516MOL0     C69578   7.536   4.865   9.262  0.8508  0.0548  0.4466
  516MOL0     C69579   7.234   4.592   9.092  0.0791 -0.0429  0.8303
  516MOL0     C69580   7.197   4.513   9.203 -0.2372 -0.0958  0.7617
  516MOL0     C69581   7.091   4.431   9.204 -0.1663 -0.8490  1.0162
  516MOL0     C69582   7.011   4.414   9.087 -0.5191  0.0301 -0.8395
  516MOL0     O69583   6.913   4.323   9.070 -0.8479 -0.9586 -0.5727
  516MOL0     C69584   6.893   4.213   9.158  0.2732  1.0669  0.4730
  516MOL0     C69585   6.758   4.159   9.126 -0.3080 -0.1402  1.5407
  516MOL0     C69586   6.753   4.089   8.983  0.0878 -0.0115 -0.0191
  516MOL0     C69587   6.615   4.032   8.933 -0.4401 -0.3783  1.0279
  516MOL0     C69588   6.566   3.945   9.039  0.9108 -0.0616 -1.0180
  516MOL0     C69589   6.541   3.851   9.119  0.6260  0.3961 -0.6389
  516MOL0     C69590   7.049   4.491   8.964  0.3697  0.1969 -0.2629
  516MOL0     C69591   7.156   4.580   8.973  0.9566 -0.0336  0.0646
  516MOL0     C69592   7.194   4.638   8.839  0.0517 -0.0463 -0.0777
  516MOL0     H69593   7.706   4.630   9.085 -1.8404 -1.1598  1.2747
  516MOL0     H69594   7.875   4.809   9.078  0.0196  1.6075 -1.3926
  516MOL0     H69595   8.039   5.127   9.173 -1.9997  1.1448  2.2642
  516MOL0     H69596   7.964   5.004   9.062  0.1172  0.6184 -0.6854
  516MOL0     H69597   7.842   5.280   9.110  3.6336  0.8255 -0.4218
  516MOL0     H69598   7.789   5.157   8.997  1.7249  1.0225 -2.7056
  516MOL0     H69599   8.002   5.165   8.883 -2.5629  1.4172 -2.8406
  516MOL0     H69600   8.061   5.293   8.987  0.2021 -0.3166  0.1802
  516MOL0     H69601   7.927   5.355   8.763 -0.7226 -1.3279  0.0243
  516MOL0     H69602   7.786   5.336   8.870 -0.5533  0.1982  1.8807
  516MOL0     H69603   7.832   5.522   8.993 -2.6244 -0.7435 -1.8555
  516MOL0     H69604   8.009   5.522   8.956 -0.5220  5.0992 -1.4231
  516MOL0     H69605   7.913   5.550   8.713 -0.5918 -0.7335  0.1921
  516MOL0     H69606   7.778   5.631   8.785  0.1199 -0.8715 -2.1952
  516MOL0     H69607   7.957   5.777   8.702  0.5804 -2.5227 -0.3806
  516MOL0     H69608   8.068   5.720   8.835 -0.3861 -0.0328 -0.2306
  516MOL0     H69609   7.783   5.840   8.895  0.3418  0.1013 -3.0854
  516MOL0     H69610   7.936   5.821   8.995  4.6910 -3.0432 -1.9179
  516MOL0     H69611   7.849   6.046   8.693  0.4313 -0.7839 -0.8351
  516MOL0     H69612   7.863   6.369   8.830 -0.1447 -0.1279 -0.1680
  516MOL0     H69613   8.030   6.372   8.810 -1.1341  1.0533  0.9210
  516MOL0     H69614   7.997   6.272   8.563 -0.8009 -0.8489 -0.5838
  516MOL0     H69615   7.834   6.302   8.590  0.4811  1.1540 -1.1894
  516MOL0     H69616   8.054   6.530   8.627  0.8001  0.4695 -1.3707
  516MOL0     H69617   7.890   6.559   8.613  0.4967 -0.6649  1.1288
  516MOL0     H69618   8.069   6.437   8.402  2.6079  3.8408 -1.2108
  516MOL0     H69619   8.031   6.602   8.409  1.2330 -1.2547 -1.2173
  516MOL0     H69620   7.892   6.757   8.416  0.7669 -0.8601 -0.5780
  516MOL0     H69621   7.693   6.903   8.471 -0.6738  0.2152 -1.2572
  516MOL0     H69622   7.163   6.757   8.684  0.4559 -0.4466  1.0747
  516MOL0     H69623   7.009   6.897   8.762 -2.3360  5.0142  2.2299
  516MOL0     H69624   6.764   6.990   8.705  0.0146 -1.0149  1.9433
  516MOL0     H69625   6.875   7.054   8.823  2.5305  0.2171 -1.4834
  516MOL0     H69626   6.789   7.281   8.788 -1.2039  0.8412  0.3409
  516MOL0     H69627   6.667   7.215   8.676 -1.3330  0.5845  0.9386
  516MOL0     H69628   6.582   7.080   8.893  2.6985 -0.4582 -0.9184
  516MOL0     H69629   6.704   7.158   8.970  2.1575 -1.0782 -1.5693
  516MOL0     H69630   6.467   7.296   8.830  0.0171 -0.3078  0.3577
  516MOL0     H69631   6.595   7.382   8.912  1.6429 -1.0320  0.5514
  516MOL0     H69632   6.542   7.277   9.140 -0.7692  1.0959  0.9870
  516MOL0     H69633   6.411   7.193   9.050 -1.6154  1.0515  0.8861
  516MOL0     H69634   6.429   7.496   9.062  1.5099 -0.6977  0.4247
  516MOL0     H69635   6.299   7.378   9.003  0.7488 -0.6712 -0.5613
  516MOL0     H69636   6.400   7.389   9.285 -1.0324 -0.0908  1.3657
  516MOL0     H69637   6.269   7.294   9.205  0.4894 -0.7290  0.0141
  516MOL0     H69638   6.235   7.595   9.198 -1.5985  0.0648  0.2432
  516MOL0     H69639   6.110   7.466   9.204  0.9338 -1.5863 -1.1148
  516MOL0     H69640   7.031   7.125   8.392 -0.5548 -2.0472 -2.3642
  516MOL0     H69641   7.203   6.965   8.313 -1.3108  0.2626 -0.2114
  516MOL0     H69642   7.439   6.582   8.378  1.4532 -0.8681  0.2233
  516MOL0     H69643   7.618   6.422   8.342 -0.1914  0.2739 -1.5044
  516MOL0     H69644   7.631   5.045   9.334  0.4360 -0.4437 -0.3429
  516MOL0     H69645   7.436   4.888   9.297  0.1179  0.4264 -1.7700
  516MOL0     H69646   7.253   4.531   9.294 -3.2241  1.2730  2.4757
  516MOL0     H69647   7.074   4.366   9.289  2.0125 -3.0491 -0.1181
  516MOL0     H69648   6.887   4.251   9.260  0.4285 -2.0943  1.7559
  516MOL0     H69649   6.971   4.140   9.134 -0.9152  0.5788 -2.2102
  516MOL0     H69650   6.685   4.240   9.135 -1.0810 -0.5073 -0.7796
  516MOL0     H69651   6.739   4.083   9.203  1.8192 -0.7071  1.5813
  516MOL0     H69652   6.836   4.021   8.963  0.7250  0.6505  0.3235
  516MOL0     H69653   6.770   4.172   8.913 -1.6098  0.8026  0.4837
  516MOL0     H69654   6.545   4.115   8.923  0.5374  0.2039 -2.2225
  516MOL0     H69655   6.628   3.987   8.834  1.3280  0.1868  0.9627
  516MOL0     H69656   6.515   3.766   9.178  2.9552  1.8557  2.8533
  516MOL0     H69657   6.996   4.469   8.872  0.2532 -1.6450  0.2103
  516MOL0     H69658   7.127   4.715   8.798  1.5186  2.3629  1.7377
  516MOL0     H69659   7.295   4.680   8.847  0.9782 -2.4051  1.6414
  516MOL0     H69660   7.193   4.564   8.759 -3.2404  1.8020 -1.9744
  517MOL0     O69661   7.487   8.285   1.266  1.2145 -0.1764  0.2877
  517MOL0     C69662   7.509   8.327   1.150  0.7705 -0.9723  0.3298
  517MOL0     O69663   7.419   8.374   1.059 -0.6236  0.5789 -0.0908
  517MOL0     C69664   7.288   8.401   1.099  0.1063  0.3952 -0.0994
  517MOL0     C69665   7.273   8.517   1.183  0.7008  0.5324 -0.9259
  517MOL0     C69666   7.150   8.555   1.230  0.7246 -0.4810  1.1017
  517MOL0     C69667   7.037   8.477   1.199 -0.8485 -0.0720  0.5275
  517MOL0     O69668   6.908   8.496   1.239 -0.3391  0.4127 -0.6178
  517MOL0     C69669   6.859   8.633   1.238 -0.5485  0.1423 -0.0322
  517MOL0     C69670   6.706   8.634   1.264  0.2858  0.6062 -0.6557
  517MOL0     C69671   6.633   8.564   1.153 -0.7196 -0.1352  0.0854
  517MOL0     C69672   6.482   8.577   1.170  0.1996 -0.2039 -0.0112
  517MOL0     C69673   6.403   8.532   1.058  0.6514 -0.2140 -0.4508
  517MOL0     C69674   6.443   8.410   0.983  0.3951 -0.1125 -0.9233
  517MOL0     C69675   6.348   8.361   0.869  1.0035 -0.5210  0.9480
  517MOL0     C69676   6.367   8.437   0.738  0.1442  0.3999 -0.0130
  517MOL0     N69677   6.480   8.395   0.666 -0.0580  0.4223  0.2300
  517MOL0     C69678   6.597   8.464   0.653  0.4081  0.7360 -0.8670
  517MOL0     C69679   6.672   8.379   0.580 -0.3429  0.4113  0.1878
  517MOL0     C69680   6.812   8.418   0.521 -0.2168  0.2856 -0.5086
  517MOL0     C69681   6.795   8.546   0.448  0.2258 -0.6207 -0.4298
  517MOL0     C69682   6.913   8.577   0.359  0.2170 -0.3157  0.3796
  517MOL0     C69683   6.912   8.716   0.301 -0.5458 -0.2713  1.5790
  517MOL0     O69684   6.978   8.804   0.376  0.1369 -0.0589  1.3561
  517MOL0     C69685   7.005   8.936   0.331 -0.3328 -0.5914  0.2831
  517MOL0     C69686   7.068   9.019   0.429  0.0650  0.3261  0.2801
  517MOL0     C69687   7.109   9.150   0.400 -0.4127 -0.5608 -0.1094
  517MOL0     C69688   7.094   9.190   0.271  0.0136  0.3708  0.5559
  517MOL0     C69689   7.116   9.327   0.239 -0.7842 -0.0221 -0.1979
  517MOL0     O69690   7.010   9.378   0.174  0.0561 -0.0264 -0.6511
  517MOL0     C69691   7.029   9.508   0.144  0.1094  0.6674 -0.1271
  517MOL0     C69692   7.027   9.551   0.014 -0.0419  0.3088  0.5490
  517MOL0     C69693   7.043   9.681  -0.027 -0.1506 -0.1344  0.6528
  517MOL0     C69694   7.073   9.776   0.071 -0.7989  0.2403  0.7607
  517MOL0     O69695   7.092   9.915   0.054 -0.7620  0.8026 -0.5163
  517MOL0     C69696   7.064   9.967  -0.078 -0.1247 -0.0322 -0.4755
  517MOL0     C69697   7.068  10.123  -0.059  0.7938  0.6578 -0.1716
  517MOL0     C69698   7.156  10.186  -0.164  0.0017 -0.5945 -0.0666
  517MOL0     C69699   7.252  10.289  -0.112 -0.1674  0.3632  0.0412
  517MOL0     C69700   7.363  10.331  -0.222 -0.3458  0.6997  1.2466
  517MOL0     C69701   7.357  10.481  -0.243  1.3771 -0.4029  0.0798
  517MOL0     C69702   7.449  10.536  -0.349  0.0289  0.3076 -0.1128
  517MOL0     C69703   7.452  10.689  -0.366 -1.2831  1.4043  0.4265
  517MOL0    Cl69704   7.621  10.731  -0.419  0.4590 -0.1398 -0.5811
  517MOL0     C69705   7.070   9.746   0.209  0.4489 -0.0455  0.4993
  517MOL0     C69706   7.047   9.614   0.243 -0.2851  0.4376 -0.0973
  517MOL0     O69707   7.226   9.381   0.279 -0.0135 -0.2164 -0.3311
  517MOL0     C69708   7.035   9.101   0.173  0.0879 -0.0097  0.7887
  517MOL0     C69709   6.979   8.979   0.207  0.9054  1.1060  0.4053
  517MOL0     N69710   6.591   8.257   0.548 -0.0070 -0.6039 -0.1363
  517MOL0     N69711   6.481   8.274   0.603  0.1300  0.0281 -0.8041
  517MOL0     C69712   7.047   8.365   1.114 -0.3396  0.1240 -0.3470
  517MOL0     C69713   7.177   8.322   1.065  0.4213  0.7550 -0.0473
  517MOL0     C69714   7.655   8.330   1.099  0.4908 -0.1587  0.2328
  517MOL0     C69715   7.676   8.405   0.972  0.0795 -0.2953 -0.5700
  517MOL0     C69716   7.800   8.408   0.916 -0.3805 -0.6536  0.1477
  517MOL0     C69717   7.907   8.346   0.976 -0.5281 -0.3216  0.7686
  517MOL0     O69718   8.032   8.370   0.913  0.0717  0.8912  0.9037
  517MOL0     C69719   8.144   8.299   0.960  0.0900 -1.2144  0.0396
  517MOL0     C69720   8.134   8.148   0.960  0.2673 -0.4163 -0.0043
  517MOL0     C69721   8.111   8.098   0.811 -0.1114 -0.3878 -1.1302
  517MOL0     C69722   8.235   8.053   0.752 -0.5897 -0.2988  0.2557
  517MOL0     C69723   8.227   7.997   0.614  0.2434 -0.8136  0.9433
  517MOL0     C69724   8.210   7.946   0.502 -1.1675 -0.4048 -0.7555
  517MOL0     C69725   7.892   8.293   1.107  0.3622 -0.1154  0.8485
  517MOL0     C69726   7.766   8.277   1.158 -0.0716  0.4710  0.0615
  517MOL0     C69727   7.757   8.190   1.281 -0.3746  0.5866  0.6339
  517MOL0     H69728   7.364   8.574   1.194 -0.0292  1.8649 -1.5259
  517MOL0     H69729   7.139   8.640   1.296 -2.4060  1.2728 -1.4249
  517MOL0     H69730   6.907   8.685   1.321 -1.0560 -0.5114  0.6862
  517MOL0     H69731   6.896   8.678   1.145 -0.3269 -2.1836 -1.1346
  517MOL0     H69732   6.678   8.739   1.276  0.4340  0.5947 -0.1499
  517MOL0     H69733   6.695   8.580   1.359 -1.6063 -0.7045 -1.5668
  517MOL0     H69734   6.668   8.460   1.146  1.4456  0.5669 -0.1427
  517MOL0     H69735   6.671   8.612   1.062  1.4874  1.2467  1.6612
  517MOL0     H69736   6.453   8.516   1.256  3.0227 -0.8971  0.5744
  517MOL0     H69737   6.469   8.683   1.195  5.8267  1.1917 -1.5592
  517MOL0     H69738   6.299   8.514   1.090  0.0444  3.2426 -0.0283
  517MOL0     H69739   6.408   8.617   0.990  0.8916  1.0557  1.0734
  517MOL0     H69740   6.542   8.421   0.939  0.6572  0.1149 -0.2965
  517MOL0     H69741   6.445   8.323   1.050  0.5594  0.8653  0.3769
  517MOL0     H69742   6.244   8.370   0.903  1.0844 -0.6022  1.2238
  517MOL0     H69743   6.352   8.257   0.836  2.2048 -0.0070 -0.6522
  517MOL0     H69744   6.273   8.423   0.683 -0.1057 -0.4036  0.5956
  517MOL0     H69745   6.374   8.545   0.753  0.9617  0.3902 -0.3105
  517MOL0     H69746   6.619   8.563   0.692  1.5616  0.2640 -0.3043
  517MOL0     H69747   6.862   8.435   0.617 -1.1174 -2.5837  0.5656
  517MOL0     H69748   6.846   8.330   0.466  0.0244  0.8702 -1.3073
  517MOL0     H69749   6.704   8.524   0.391  1.4294 -0.6656 -2.4618
  517MOL0     H69750   6.780   8.628   0.519 -5.6122 -0.0633 -1.7867
  517MOL0     H69751   6.924   8.499   0.283  1.6014  0.5123 -0.3008
  517MOL0     H69752   7.005   8.583   0.417  1.3144  0.7657 -1.3934
  517MOL0     H69753   6.808   8.749   0.297 -1.1308 -2.1537 -0.7165
  517MOL0     H69754   6.953   8.699   0.201 -0.3940 -0.9938  1.7587
  517MOL0     H69755   7.101   8.984   0.526  1.1024  0.2609 -0.0749
  517MOL0     H69756   7.143   9.230   0.464 -4.1169  2.9893 -2.1129
  517MOL0     H69757   7.011   9.479  -0.065 -0.4481  2.4334 -1.3843
  517MOL0     H69758   7.040   9.709  -0.131  3.3145  1.2056  0.7967
  517MOL0     H69759   7.140   9.920  -0.141  0.5366  1.7942 -1.1039
  517MOL0     H69760   6.959   9.944  -0.098  0.4160 -3.4727  0.0088
  517MOL0     H69761   6.968  10.165  -0.071  0.5891 -0.2155 -1.9188
  517MOL0     H69762   7.114  10.141   0.038 -2.2395  0.7628  1.3526
  517MOL0     H69763   7.220  10.107  -0.205  0.9105 -0.8462  1.7491
  517MOL0     H69764   7.100  10.221  -0.251  1.2472  0.9038 -0.3101
  517MOL0     H69765   7.300  10.265  -0.016  1.3399  2.2225 -0.1891
  517MOL0     H69766   7.182  10.367  -0.079 -2.7978 -2.1180  0.8184
  517MOL0     H69767   7.333  10.282  -0.315 -2.7944  3.7677  0.2194
  517MOL0     H69768   7.459  10.287  -0.195  0.0661  0.4092 -0.6008
  517MOL0     H69769   7.253  10.508  -0.263  1.7035  3.1740  2.3711
  517MOL0     H69770   7.384  10.535  -0.152  3.0964  2.4368 -1.9647
  517MOL0     H69771   7.408  10.493  -0.440 -2.2865  0.3289  0.8450
  517MOL0     H69772   7.552  10.512  -0.321 -0.6612 -0.5849  1.8371
  517MOL0     H69773   7.374  10.724  -0.434 -1.6650  0.5860  0.4355
  517MOL0     H69774   7.439  10.751  -0.277  2.1102  0.1813  1.9197
  517MOL0     H69775   7.085   9.826   0.281 -0.9615  1.1298 -0.4426
  517MOL0     H69776   7.044   9.589   0.349  2.1217  1.0719  0.1826
  517MOL0     H69777   7.015   9.134   0.071  0.1129 -4.6888 -1.0036
  517MOL0     H69778   6.910   8.939   0.133  1.5459  1.9533 -0.6728
  517MOL0     H69779   6.961   8.305   1.086  1.3941 -0.7893 -4.4002
  517MOL0     H69780   7.189   8.227   1.015  3.6596  1.2473 -0.4074
  517MOL0     H69781   7.592   8.451   0.921  0.0902  1.1850  0.6516
  517MOL0     H69782   7.823   8.440   0.815 -0.3280 -0.4654  0.2193
  517MOL0     H69783   8.169   8.340   1.058  0.6061 -0.8260 -0.2497
  517MOL0     H69784   8.236   8.327   0.907 -1.1583  1.4732 -0.9262
  517MOL0     H69785   8.051   8.114   1.022  0.5624  0.2615  0.7843
  517MOL0     H69786   8.229   8.114   1.002  0.7260 -0.3423 -0.9640
  517MOL0     H69787   8.078   8.179   0.745  1.9475  2.6593  1.3174
  517MOL0     H69788   8.034   8.021   0.820 -2.1414  1.6989  1.3409
  517MOL0     H69789   8.306   8.136   0.750  0.1629 -0.6613  4.2726
  517MOL0     H69790   8.277   7.980   0.821 -2.2878 -0.6078  1.0200
  517MOL0     H69791   8.198   7.894   0.409 -3.6993 -1.1535 -0.1079
  517MOL0     H69792   7.978   8.252   1.158 -0.6688 -3.4599  0.1452
  517MOL0     H69793   7.855   8.157   1.317 -1.5271 -0.5365  2.9683
  517MOL0     H69794   7.723   8.236   1.375 -0.0992 -0.4521  1.2569
  517MOL0     H69795   7.704   8.101   1.248  0.6015 -0.9696  2.9816
  518MOL0     O69796  10.686   2.930  11.258  0.1114  0.5472  0.0070
  518MOL0     C69797  10.758   3.013  11.296  0.1442 -0.0731 -0.5018
  518MOL0     O69798  10.877   2.991  11.343  0.2751  0.2627 -0.0792
  518MOL0     C69799  10.899   2.866  11.393  0.3179 -0.8119  0.5672
  518MOL0     C69800  10.922   2.763  11.309 -0.6382  0.0239 -0.2085
  518MOL0     C69801  10.945   2.635  11.355  0.7684 -0.2111 -0.4404
  518MOL0     C69802  10.937   2.599  11.492 -0.1966 -0.3988  0.5121
  518MOL0     O69803  10.960   2.472  11.536  1.0830  0.6360  0.0751
  518MOL0     C69804  10.977   2.441  11.672  0.0408  0.6289  0.2036
  518MOL0     C69805  11.117   2.371  11.684  0.3108  0.4556  0.4466
  518MOL0     C69806  11.233   2.476  11.654 -0.0852  0.3564  0.1053
  518MOL0     C69807  11.299   2.518  11.784 -1.0137 -0.1773 -0.4473
  518MOL0     C69808  11.410   2.624  11.749  0.9435 -0.8066 -0.0466
  518MOL0     C69809  11.448   2.711  11.878 -0.3377 -0.9410 -0.8758
  518MOL0     C69810  11.563   2.799  11.851  0.1037  0.3986 -0.1411
  518MOL0     C69811  11.542   2.928  11.940  0.1298  0.4760 -0.1471
  518MOL0     N69812  11.667   3.011  11.953 -0.0629  0.4546  0.0780
  518MOL0     C69813  11.676   3.133  12.008  1.0941  0.5491 -0.5886
  518MOL0     C69814  11.789   3.193  11.962  0.3432  0.2273  0.5260
  518MOL0     C69815  11.859   3.323  12.007 -0.6522  0.4811  0.3013
  518MOL0     C69816  11.769   3.449  12.016  0.6258  0.1294  0.0299
  518MOL0     C69817  11.687   3.488  11.893  0.1187  0.0113  0.1503
  518MOL0     C69818  11.770   3.494  11.752  0.3896 -0.1807 -0.4877
  518MOL0     O69819  11.805   3.624  11.722  1.1616 -0.2387 -0.3316
  518MOL0     C69820  11.858   3.655  11.597  0.6804 -0.7975  0.4717
  518MOL0     C69821  11.886   3.792  11.572 -0.4025  0.6093 -0.7363
  518MOL0     C69822  11.925   3.834  11.441  0.4708  0.6423  0.8702
  518MOL0     C69823  11.940   3.745  11.332 -0.2316  0.5095  0.3512
  518MOL0     C69824  11.954   3.791  11.198  0.0536 -0.9767  0.4519
  518MOL0     O69825  11.954   3.695  11.095  0.5371 -0.4031  0.7885
  518MOL0     C69826  11.951   3.736  10.955  0.5610  0.6551 -0.1862
  518MOL0     C69827  11.875   3.655  10.864  0.0342  0.2326  0.5165
  518MOL0     C69828  11.881   3.683  10.731 -0.3592 -0.8568  0.9566
  518MOL0     C69829  11.950   3.793  10.680  0.1642  0.6443  0.5867
  518MOL0     O69830  11.969   3.832  10.555  0.0358 -0.0355  0.5593
  518MOL0     C69831  11.914   3.755  10.442 -0.1373 -0.5102 -0.8320
  518MOL0     C69832  11.962   3.820  10.314 -0.3882  0.4943  0.5092
  518MOL0     C69833  11.910   3.960  10.313  0.4353 -0.4532  0.6429
  518MOL0     C69834  11.938   4.042  10.190 -0.4093 -0.6581  0.1413
  518MOL0     C69835  12.087   4.067  10.158  0.2405 -0.1965  0.3077
  518MOL0     C69836  12.126   4.160  10.035  0.2895  0.8760 -0.5338
  518MOL0     C69837  12.056   4.115   9.901  0.0562  0.6351 -0.0688
  518MOL0     C69838  12.119   4.188   9.781  0.5908  0.3001 -0.2181
  518MOL0    Cl69839  11.980   4.242   9.662  0.3167  0.4625  0.0803
  518MOL0     C69840  12.012   3.879  10.772  0.5267  0.1903  0.4712
  518MOL0     C69841  12.017   3.843  10.903  1.0743 -0.5545  0.2134
  518MOL0     O69842  11.957   3.914  11.183 -0.0009 -0.2645  0.0577
  518MOL0     C69843  11.929   3.616  11.360  0.4101  0.5424 -0.4044
  518MOL0     C69844  11.879   3.573  11.491 -0.1492  0.8273  1.5118
  518MOL0     N69845  11.844   3.101  11.870 -0.3708 -0.3894 -0.1741
  518MOL0     N69846  11.767   2.997  11.870  0.8304 -0.2511  0.3658
  518MOL0     C69847  10.932   2.709  11.580 -0.7340 -0.2901 -0.2391
  518MOL0     C69848  10.894   2.831  11.528 -0.8193 -0.1485  0.0366
  518MOL0     C69849  10.707   3.151  11.292 -0.9699  0.5922  0.7646
  518MOL0     C69850  10.798   3.257  11.318 -0.0730  0.6575  0.5305
  518MOL0     C69851  10.756   3.387  11.336  0.0377  0.5934 -0.2213
  518MOL0     C69852  10.624   3.424  11.332  0.6550 -0.0017  0.2036
  518MOL0     O69853  10.596   3.560  11.337 -0.0786 -0.3963  0.3946
  518MOL0     C69854  10.453   3.594  11.347  0.0593  0.0237  0.4137
  518MOL0     C69855  10.421   3.740  11.407  1.1613  0.0462 -0.3088
  518MOL0     C69856  10.454   3.863  11.322  0.0524  0.1458 -0.1478
  518MOL0     C69857  10.429   3.976  11.412  0.0551  0.0074 -0.2647
  518MOL0     C69858  10.487   4.102  11.360  0.5863 -0.4744  0.2602
  518MOL0     C69859  10.548   4.195  11.307  1.2943  0.2536  0.5031
  518MOL0     C69860  10.530   3.323  11.292 -0.0594  1.6471 -0.3368
  518MOL0     C69861  10.569   3.186  11.264 -0.4792  0.7486 -0.6322
  518MOL0     C69862  10.465   3.083  11.207 -0.2719 -0.5213 -1.0254
  518MOL0     H69863  10.915   2.793  11.205 -0.2443 -1.1122 -0.5825
  518MOL0     H69864  10.972   2.564  11.278 -0.1754 -1.5373  0.4229
  518MOL0     H69865  10.958   2.525  11.740 -0.9613  0.9377 -0.4397
  518MOL0     H69866  10.905   2.363  11.699  0.8724 -0.4197 -0.5185
  518MOL0     H69867  11.112   2.285  11.617  1.7600 -0.2741  1.2111
  518MOL0     H69868  11.125   2.328  11.785  0.4335 -0.2821  0.1329
  518MOL0     H69869  11.208   2.558  11.586 -0.9595  0.0190  0.0176
  518MOL0     H69870  11.306   2.409  11.607 -3.0818 -2.4538 -0.8654
  518MOL0     H69871  11.218   2.563  11.843  0.7460  1.6802  0.7050
  518MOL0     H69872  11.347   2.440  11.844  2.4139  2.0545 -0.0269
  518MOL0     H69873  11.494   2.570  11.707  0.8976  1.9938 -4.3551
  518MOL0     H69874  11.381   2.688  11.665  2.6178 -1.5722 -1.2397
  518MOL0     H69875  11.353   2.757  11.908 -0.4672 -2.1905  0.7451
  518MOL0     H69876  11.482   2.639  11.952  1.3000 -0.2293 -0.9042
  518MOL0     H69877  11.565   2.833  11.747 -2.0764  2.3245  0.3547
  518MOL0     H69878  11.656   2.744  11.870 -0.0764  0.4178  0.8561
  518MOL0     H69879  11.451   2.987  11.926  0.6402  2.4147  3.4951
  518MOL0     H69880  11.534   2.892  12.043  2.2461  0.8742  0.1930
  518MOL0     H69881  11.609   3.178  12.082 -1.0463 -0.4056 -1.8485
  518MOL0     H69882  11.886   3.305  12.111 -0.7709 -1.8056 -0.0254
  518MOL0     H69883  11.944   3.345  11.940 -1.5377 -2.3943 -1.9701
  518MOL0     H69884  11.703   3.434  12.101  1.9180 -1.2585  0.8326
  518MOL0     H69885  11.833   3.536  12.037 -1.4425  1.2215  2.3203
  518MOL0     H69886  11.653   3.591  11.905 -1.2593 -0.6092  2.0447
  518MOL0     H69887  11.601   3.420  11.888  1.5994 -2.1575  2.1357
  518MOL0     H69888  11.703   3.444  11.682  0.4564 -1.7016  0.4786
  518MOL0     H69889  11.862   3.436  11.765  2.4033  3.3831  4.2201
  518MOL0     H69890  11.878   3.863  11.654 -0.1949  2.2639 -2.0933
  518MOL0     H69891  11.924   3.942  11.427 -2.5399  0.2285 -5.7226
  518MOL0     H69892  11.816   3.569  10.895 -0.2320  0.3367  0.3021
  518MOL0     H69893  11.817   3.621  10.669 -3.0987  1.5921  1.1526
  518MOL0     H69894  11.966   3.659  10.447  2.9306  1.0430 -0.3045
  518MOL0     H69895  11.805   3.749  10.447 -0.0344 -1.8336  2.9810
  518MOL0     H69896  12.071   3.816  10.320 -0.5134 -1.2868  2.2947
  518MOL0     H69897  11.927   3.777  10.219 -0.7283 -1.0131  1.2914
  518MOL0     H69898  11.801   3.953  10.314  0.3459  0.1018 -1.5158
  518MOL0     H69899  11.946   4.026  10.392 -2.0222  3.0951 -0.9485
  518MOL0     H69900  11.892   4.140  10.205  3.2241  1.2352 -0.0638
  518MOL0     H69901  11.885   4.002  10.103 -1.1229  0.6699 -0.0715
  518MOL0     H69902  12.123   3.964  10.154  3.6971  0.9042 -0.2920
  518MOL0     H69903  12.144   4.104  10.243  1.3087 -0.8031 -0.1243
  518MOL0     H69904  12.099   4.264  10.055 -2.6799 -0.0445  0.7906
  518MOL0     H69905  12.233   4.150  10.015 -0.1305 -1.2759 -2.0659
  518MOL0     H69906  11.949   4.140   9.899 -0.3719 -0.7256  2.2886
  518MOL0     H69907  12.067   4.009   9.878  0.7910  0.5699  0.5445
  518MOL0     H69908  12.181   4.273   9.811 -0.6206  0.7883  0.9848
  518MOL0     H69909  12.188   4.120   9.731  0.1025  1.6528 -2.9028
  518MOL0     H69910  12.068   3.964  10.733  3.0785 -0.8757  1.6276
  518MOL0     H69911  12.061   3.913  10.973 -1.7512 -0.6438  2.2514
  518MOL0     H69912  11.949   3.545  11.280 -1.0277  0.4523 -0.7049
  518MOL0     H69913  11.871   3.466  11.507  0.3325  0.1274 -2.1149
  518MOL0     H69914  10.941   2.712  11.688  1.1270  0.9505 -0.3737
  518MOL0     H69915  10.862   2.906  11.600  0.6902  1.5076 -0.9195
  518MOL0     H69916  10.903   3.229  11.326 -1.1298 -4.5621  0.0167
  518MOL0     H69917  10.830   3.464  11.355  2.1999 -1.1382 -1.2172
  518MOL0     H69918  10.401   3.527  11.417 -1.6467  0.1246 -0.6865
  518MOL0     H69919  10.410   3.581  11.247 -1.3773  1.4306  0.8054
  518MOL0     H69920  10.473   3.744  11.503 -0.4629  1.1179  0.5806
  518MOL0     H69921  10.315   3.745  11.433  1.2436  0.6774 -0.0800
  518MOL0     H69922  10.390   3.875  11.234  1.5584  1.6622 -1.0828
  518MOL0     H69923  10.562   3.859  11.303  1.1608 -4.3835  4.4579
  518MOL0     H69924  10.324   4.003  11.424  0.1122  0.0793  0.0883
  518MOL0     H69925  10.477   3.954  11.507 -0.0679 -1.0312 -0.4346
  518MOL0     H69926  10.594   4.284  11.271 -0.2216 -0.1194 -2.6742
  518MOL0     H69927  10.423   3.342  11.279 -0.1778  3.9883  2.7809
  518MOL0     H69928  10.495   3.081  11.101  0.0281  0.1278 -0.9590
  518MOL0     H69929  10.465   2.980  11.244 -4.7353 -0.2826  0.2346
  518MOL0     H69930  10.367   3.127  11.226  0.6046  1.0666  0.0212
  519MOL0     O69931   5.634   3.850   3.070  0.2336  0.3608 -0.8347
  519MOL0     C69932   5.596   3.951   3.012  0.3848 -0.5319  0.1262
  519MOL0     O69933   5.677   4.051   2.963  0.6669 -0.0983  0.4050
  519MOL0     C69934   5.813   4.028   2.980  0.2610 -0.7345 -0.5376
  519MOL0     C69935   5.875   4.150   3.020  0.1533  0.2504  0.3724
  519MOL0     C69936   6.010   4.150   3.049 -0.1039 -0.8333  0.4507
  519MOL0     C69937   6.091   4.048   3.003  1.2346  0.5314 -0.9186
  519MOL0     O69938   6.229   4.041   3.023 -0.6870 -0.0730  0.6322
  519MOL0     C69939   6.305   4.151   3.071  0.6204  0.6805  0.5169
  519MOL0     C69940   6.319   4.144   3.223 -0.1971  0.3753  0.0586
  519MOL0     C69941   6.424   4.241   3.269 -0.2399 -0.1321 -0.2606
  519MOL0     C69942   6.419   4.257   3.423  0.2039 -0.2045  0.4255
  519MOL0     C69943   6.526   4.355   3.482 -0.4574 -0.2100  1.0172
  519MOL0     C69944   6.487   4.502   3.453  0.0436 -0.5894  0.5787
  519MOL0     C69945   6.592   4.586   3.516 -0.6103  0.6564  0.6961
  519MOL0     C69946   6.598   4.732   3.508 -0.2706 -0.6761  1.0151
  519MOL0     N69947   6.478   4.796   3.560  0.8579  0.4784  0.2320
  519MOL0     C69948   6.420   4.750   3.676  0.4748  0.3164  0.2439
  519MOL0     C69949   6.299   4.806   3.678  0.7643  0.3642  0.3729
  519MOL0     C69950   6.190   4.802   3.781 -0.6476  0.0404 -0.6078
  519MOL0     C69951   6.126   4.662   3.793 -0.6136  0.0288  0.5391
  519MOL0     C69952   6.042   4.663   3.928 -0.3651  0.2545 -0.1011
  519MOL0     C69953   6.139   4.660   4.048  0.6717  0.5570 -0.0505
  519MOL0     O69954   6.059   4.645   4.167  0.0378  0.1996 -0.2254
  519MOL0     C69955   6.043   4.752   4.251 -0.0984 -0.5308 -0.1164
  519MOL0     C69956   5.916   4.801   4.286 -0.3327  0.0410  0.1196
  519MOL0     C69957   5.897   4.922   4.357  0.2849  0.3715 -0.2302
  519MOL0     C69958   6.010   4.985   4.407 -0.6737 -0.9858  0.3466
  519MOL0     C69959   5.982   5.106   4.502  0.0662 -0.1358  0.9417
  519MOL0     O69960   6.095   5.145   4.566 -0.1043 -0.1169 -0.8503
  519MOL0     C69961   6.083   5.230   4.675  0.5071 -0.0758  0.3857
  519MOL0     C69962   6.158   5.189   4.788 -0.2943 -0.2444 -0.1622
  519MOL0     C69963   6.144   5.260   4.908  0.4000 -0.2450 -0.8326
  519MOL0     C69964   6.074   5.385   4.910  0.1359  0.3653 -0.2443
  519MOL0     O69965   6.071   5.445   5.035  0.2796 -0.5006 -0.0403
  519MOL0     C69966   6.042   5.591   5.036 -0.3272  1.0222 -0.1459
  519MOL0     C69967   6.042   5.637   5.183 -1.0580 -0.6070  0.1370
  519MOL0     C69968   6.009   5.793   5.189 -0.1468 -0.0391 -0.7571
  519MOL0     C69969   5.944   5.829   5.329  0.2618 -0.4805 -0.0820
  519MOL0     C69970   5.895   5.974   5.337 -0.3520 -0.4245  0.8265
  519MOL0     C69971   6.015   6.067   5.363 -0.4000  0.3902  1.0852
  519MOL0     C69972   5.958   6.209   5.377  0.4771  0.5162 -1.4964
  519MOL0     C69973   6.062   6.315   5.399  0.3763  0.6695  1.0091
  519MOL0    Cl69974   6.128   6.367   5.243 -0.3378  0.0059 -0.2384
  519MOL0     C69975   6.001   5.423   4.797  0.4400  0.9255  0.6711
  519MOL0     C69976   6.008   5.344   4.671 -0.5024 -0.8532 -0.1013
  519MOL0     O69977   5.864   5.151   4.520 -0.0197  0.3284  0.2532
  519MOL0     C69978   6.145   4.937   4.363 -0.6205  0.3085 -0.6343
  519MOL0     C69979   6.158   4.820   4.293 -0.0175  0.0585  1.1236
  519MOL0     N69980   6.290   4.892   3.574 -0.4712 -0.7895  0.1411
  519MOL0     N69981   6.398   4.891   3.503 -0.4818 -0.1233 -0.1580
  519MOL0     C69982   6.029   3.934   2.944 -0.1420 -0.3692  0.4661
  519MOL0     C69983   5.892   3.921   2.929  0.7223 -0.9359 -0.1034
  519MOL0     C69984   5.455   3.976   2.986  1.0306 -0.0910  0.3697
  519MOL0     C69985   5.405   4.107   2.975  0.6345  1.2767 -0.6917
  519MOL0     C69986   5.269   4.139   2.963  0.7550 -0.7070  0.6050
  519MOL0     C69987   5.181   4.033   2.935  0.9595  0.1907 -0.1051
  519MOL0     O69988   5.048   4.064   2.917 -0.1807 -0.3610  0.3433
  519MOL0     C69989   4.945   3.961   2.930  0.4403  0.4530 -0.2007
  519MOL0     C69990   4.799   4.013   2.925 -0.0710 -0.9808  1.1434
  519MOL0     C69991   4.769   4.107   3.054  0.3064 -0.1085 -0.0157
  519MOL0     C69992   4.757   4.033   3.192  0.4182 -0.2846  0.2348
  519MOL0     C69993   4.683   4.123   3.282 -0.3526  0.4061 -0.2993
  519MOL0     C69994   4.616   4.201   3.356 -1.3810  0.1520  0.5011
  519MOL0     C69995   5.232   3.907   2.934 -0.8360  0.2382  0.3050
  519MOL0     C69996   5.364   3.867   2.964 -0.0251  0.0117  0.3342
  519MOL0     C69997   5.405   3.724   2.957 -0.9004  0.0716 -0.8783
  519MOL0     H69998   5.818   4.236   3.054 -0.1541  0.0083  0.4803
  519MOL0     H69999   6.040   4.243   3.096  0.7951 -0.6549 -0.4322
  519MOL0     H70000   6.398   4.155   3.014  1.1527  3.3833  1.4084
  519MOL0     H70001   6.247   4.241   3.047 -0.8238 -0.5771 -0.9821
  519MOL0     H70002   6.353   4.044   3.250  0.8650  1.1480  1.7219
  519MOL0     H70003   6.220   4.160   3.266 -0.9964 -1.2019 -1.1122
  519MOL0     H70004   6.407   4.336   3.218  3.9303  0.1654 -1.5371
  519MOL0     H70005   6.523   4.218   3.228  0.1045 -0.8795  0.9406
  519MOL0     H70006   6.324   4.306   3.446  2.1139  3.6643  0.8767
  519MOL0     H70007   6.421   4.160   3.474 -0.3282 -1.4532 -1.7790
  519MOL0     H70008   6.531   4.350   3.591 -0.2634 -1.0302  0.9762
  519MOL0     H70009   6.628   4.340   3.442  0.6724 -0.5421  3.8067
  519MOL0     H70010   6.470   4.524   3.347 -0.9355 -3.0028  0.1691
  519MOL0     H70011   6.399   4.526   3.513  0.5641 -0.8121  1.4443
  519MOL0     H70012   6.688   4.564   3.468 -0.2580  0.6303  1.3871
  519MOL0     H70013   6.588   4.553   3.621 -0.9128  0.5239  0.6441
  519MOL0     H70014   6.687   4.777   3.552  1.3156 -1.7000 -0.9946
  519MOL0     H70015   6.612   4.760   3.403  4.1235 -2.8727  0.7827
  519MOL0     H70016   6.456   4.678   3.749 -2.4480  0.2177  1.7617
  519MOL0     H70017   6.233   4.839   3.875 -3.3562 -0.9930  1.1390
  519MOL0     H70018   6.120   4.883   3.758 -3.2184 -1.9125 -0.0442
  519MOL0     H70019   6.055   4.637   3.713 -0.0677 -2.7823  0.8075
  519MOL0     H70020   6.205   4.586   3.802  1.1712  1.8280  0.6765
  519MOL0     H70021   5.992   4.565   3.925  2.0261 -0.9998 -1.3348
  519MOL0     H70022   5.967   4.743   3.929 -1.4281 -0.7135  0.2267
  519MOL0     H70023   6.214   4.737   4.062  0.8290 -0.1262  3.9620
  519MOL0     H70024   6.198   4.568   4.046  2.6473  1.7108  1.7704
  519MOL0     H70025   5.828   4.746   4.255  1.5298 -2.4064 -1.1390
  519MOL0     H70026   5.795   4.949   4.384 -0.6322 -3.1344  0.4022
  519MOL0     H70027   6.210   5.095   4.802 -1.3491 -0.6830  0.9696
  519MOL0     H70028   6.183   5.214   4.998 -1.3353 -0.2929 -0.0632
  519MOL0     H70029   6.113   5.649   4.977  1.3338  0.6783  1.4269
  519MOL0     H70030   5.939   5.612   5.004 -2.3013  0.0416  4.6615
  519MOL0     H70031   5.970   5.585   5.246 -1.3841 -0.4209 -0.0783
  519MOL0     H70032   6.140   5.625   5.230 -1.8641  1.4377  2.5399
  519MOL0     H70033   6.103   5.848   5.179 -0.5539  0.2948 -4.2687
  519MOL0     H70034   5.945   5.825   5.106  0.0274 -0.2350 -0.9687
  519MOL0     H70035   6.018   5.808   5.407  0.8891  0.8945 -0.2576
  519MOL0     H70036   5.857   5.764   5.341  0.1226 -0.3367 -0.3135
  519MOL0     H70037   5.816   5.982   5.413 -1.0454  1.4151 -0.0135
  519MOL0     H70038   5.842   5.992   5.244 -1.6937 -0.4298  1.5638
  519MOL0     H70039   6.073   6.042   5.452  0.2551  2.0601  1.1502
  519MOL0     H70040   6.082   6.060   5.277  0.0482 -2.0936  1.5495
  519MOL0     H70041   5.886   6.213   5.459 -0.7325 -1.5593 -2.4008
  519MOL0     H70042   5.892   6.228   5.292  0.9976  2.9723 -1.4297
  519MOL0     H70043   6.012   6.406   5.434  0.4160  1.9409 -1.9371
  519MOL0     H70044   6.141   6.296   5.472  1.0195  2.2952  0.7709
  519MOL0     H70045   5.934   5.508   4.788 -1.0973 -0.0267  2.3600
  519MOL0     H70046   5.972   5.387   4.578  2.1660  3.4995  0.5914
  519MOL0     H70047   6.235   4.981   4.404 -1.1166 -0.4329  1.3421
  519MOL0     H70048   6.258   4.791   4.264 -1.3816 -4.1039 -0.2029
  519MOL0     H70049   6.088   3.861   2.891 -1.4459  0.6845 -2.6562
  519MOL0     H70050   5.848   3.837   2.877  1.2719  0.1488 -2.4639
  519MOL0     H70051   5.471   4.194   2.981  0.9000  1.0970 -0.9703
  519MOL0     H70052   5.253   4.246   2.971 -0.7467 -1.0646  3.4972
  519MOL0     H70053   4.945   3.901   3.021  0.4743 -0.5008 -0.8142
  519MOL0     H70054   4.954   3.887   2.850 -0.4727 -0.3858  0.4505
  519MOL0     H70055   4.736   3.924   2.930 -0.2369 -1.2465 -2.9691
  519MOL0     H70056   4.777   4.073   2.837  2.8803 -0.8728  0.3753
  519MOL0     H70057   4.669   4.147   3.033  0.1354 -0.5558 -0.0670
  519MOL0     H70058   4.836   4.193   3.055 -1.5956  1.4704  1.8214
  519MOL0     H70059   4.717   3.932   3.186 -1.5902  0.3703  1.5058
  519MOL0     H70060   4.862   4.033   3.225  0.3735  3.4971  0.8391
  519MOL0     H70061   4.556   4.263   3.419 -2.8442 -2.2308  1.6174
  519MOL0     H70062   5.170   3.834   2.883  0.5785 -1.9361  1.5054
  519MOL0     H70063   5.494   3.715   2.895 -0.9934  3.4127 -1.6912
  519MOL0     H70064   5.427   3.693   3.059 -0.3716  0.4094 -0.8889
  519MOL0     H70065   5.322   3.659   2.926 -1.6447 -0.1924  1.4838
  520MOL0     O70066   2.034   6.821   2.445 -0.0820  0.7014  0.7322
  520MOL0     C70067   2.105   6.877   2.527 -0.4144  0.7889  0.0160
  520MOL0     O70068   2.230   6.852   2.543 -0.5486 -0.1035  0.3640
  520MOL0     C70069   2.288   6.742   2.483 -1.0922  0.1294 -0.1729
  520MOL0     C70070   2.407   6.757   2.404 -0.1168  0.0824 -0.4238
  520MOL0     C70071   2.470   6.641   2.353 -0.9277 -0.6084 -0.1593
  520MOL0     C70072   2.417   6.515   2.380 -0.3070 -0.4097 -0.7826
  520MOL0     O70073   2.483   6.403   2.329  0.1945 -0.6467  0.0475
  520MOL0     C70074   2.407   6.342   2.221 -0.0380 -0.1208 -0.6326
  520MOL0     C70075   2.501   6.230   2.173 -0.2729  0.5238 -0.1653
  520MOL0     C70076   2.441   6.182   2.036  0.0027 -1.0695  1.1005
  520MOL0     C70077   2.509   6.043   2.001 -0.4066 -0.4247  0.1582
  520MOL0     C70078   2.456   5.973   1.886  1.3883  0.4833  0.9188
  520MOL0     C70079   2.434   6.055   1.759  0.0824 -0.8289 -0.1906
  520MOL0     C70080   2.562   6.125   1.704  1.0615 -0.6448  0.9851
  520MOL0     C70081   2.518   6.205   1.573 -0.2522  0.2445 -0.2418
  520MOL0     N70082   2.637   6.272   1.507  0.6254  0.1934 -1.1312
  520MOL0     C70083   2.726   6.196   1.431 -0.6565  0.5853 -0.8539
  520MOL0     C70084   2.834   6.276   1.406  0.7598 -0.8582  1.4583
  520MOL0     C70085   2.950   6.257   1.304  0.8028 -0.2609 -0.4512
  520MOL0     C70086   3.080   6.292   1.365 -0.9950  0.3271 -0.2776
  520MOL0     C70087   3.145   6.167   1.445  0.3706 -0.6684 -0.7855
  520MOL0     C70088   3.289   6.196   1.492  0.3900  1.1334 -0.3253
  520MOL0     O70089   3.370   6.229   1.378 -0.1386 -0.4429 -0.5337
  520MOL0     C70090   3.504   6.204   1.380 -0.7768  0.0666  0.0269
  520MOL0     C70091   3.587   6.160   1.491  0.4120 -0.9932  0.7089
  520MOL0     C70092   3.722   6.119   1.467  0.5497  0.2712 -1.1051
  520MOL0     C70093   3.782   6.136   1.348 -0.0176  0.2842  0.1957
  520MOL0     C70094   3.924   6.119   1.330  0.3637  0.3875 -0.0709
  520MOL0     O70095   3.991   6.064   1.441 -0.2392  0.0668  0.0662
  520MOL0     C70096   4.132   6.063   1.433 -0.0410 -0.7683 -0.6053
  520MOL0     C70097   4.180   5.974   1.332 -0.0915 -1.1745  0.8122
  520MOL0     C70098   4.315   5.953   1.329 -0.9850 -0.4706  0.6726
  520MOL0     C70099   4.399   6.024   1.422 -0.0487 -0.8996  0.4179
  520MOL0     O70100   4.535   6.009   1.445  0.3390  0.4296 -0.0830
  520MOL0     C70101   4.609   5.947   1.342 -0.3742  0.1528  0.4491
  520MOL0     C70102   4.757   5.972   1.375  0.4044 -0.7346 -0.7254
  520MOL0     C70103   4.844   5.907   1.270  1.0905  0.0919 -1.0967
  520MOL0     C70104   4.844   5.978   1.134  0.7824 -0.4977 -0.9421
  520MOL0     C70105   4.930   5.906   1.038  1.2064 -0.3041  0.1956
  520MOL0     C70106   4.933   5.973   0.898  0.1294  0.3194  0.3952
  520MOL0     C70107   4.997   5.893   0.793 -0.3363  0.4340 -0.4040
  520MOL0     C70108   5.149   5.897   0.793 -0.4679 -0.6880 -0.6745
  520MOL0    Cl70109   5.235   6.045   0.756 -0.5370 -0.0206  0.1361
  520MOL0     C70110   4.340   6.110   1.522 -0.6809  0.3293  0.0468
  520MOL0     C70111   4.213   6.140   1.518  0.9367  1.1840 -0.0082
  520MOL0     O70112   3.978   6.159   1.224 -0.8373 -0.2744 -0.2555
  520MOL0     C70113   3.704   6.194   1.249  0.2543  0.6773 -0.6204
  520MOL0     C70114   3.569   6.219   1.264 -0.0707  0.3914  0.2739
  520MOL0     N70115   2.809   6.398   1.470  0.1191  0.0602  0.2684
  520MOL0     N70116   2.695   6.391   1.537 -0.8413 -0.2189 -1.0439
  520MOL0     C70117   2.300   6.502   2.451  0.0485 -0.5171 -0.1053
  520MOL0     C70118   2.241   6.616   2.506  0.0527 -0.4306 -0.3698
  520MOL0     C70119   2.059   6.989   2.609  0.2576  0.1540  0.5814
  520MOL0     C70120   2.124   7.011   2.736  0.5961 -0.1388  0.1618
  520MOL0     C70121   2.094   7.117   2.820 -0.3286  0.1100 -0.4321
  520MOL0     C70122   1.981   7.198   2.799  0.1699 -0.4487  0.0541
  520MOL0     O70123   1.950   7.305   2.879  0.0483  0.3251  0.7296
  520MOL0     C70124   1.820   7.369   2.869  0.6577 -0.0429  0.4171
  520MOL0     C70125   1.812   7.437   3.010  0.7544 -0.9989 -0.5458
  520MOL0     C70126   1.674   7.508   3.036  0.2048  0.0069  0.1579
  520MOL0     C70127   1.560   7.416   3.088  0.0945 -0.8387 -0.4781
  520MOL0     C70128   1.489   7.347   2.975 -0.4053 -0.0266 -1.5530
  520MOL0     C70129   1.428   7.306   2.880  0.4186 -0.7535 -0.4503
  520MOL0     C70130   1.913   7.176   2.675 -0.5841  0.1301  0.3494
  520MOL0     C70131   1.954   7.075   2.577 -0.8059 -0.1819 -0.4158
  520MOL0     C70132   1.878   7.057   2.448 -0.6007 -0.6915 -0.3456
  520MOL0     H70133   2.453   6.854   2.387 -0.9608  0.3982 -0.9705
  520MOL0     H70134   2.555   6.645   2.286 -1.3864  1.6148 -0.6906
  520MOL0     H70135   2.309   6.310   2.257 -1.0989  0.6220 -2.7014
  520MOL0     H70136   2.397   6.421   2.146  5.1194  0.0930 -1.4561
  520MOL0     H70137   2.500   6.146   2.243  0.2461 -0.1487 -0.9434
  520MOL0     H70138   2.604   6.268   2.167 -0.3257  0.6326 -0.4051
  520MOL0     H70139   2.464   6.252   1.956 -0.7904 -2.0146 -0.0016
  520MOL0     H70140   2.335   6.154   2.045 -0.1631 -0.0957  2.6022
  520MOL0     H70141   2.607   6.087   1.977 -1.2867  3.7923  3.1236
  520MOL0     H70142   2.501   5.989   2.095  0.9355 -0.3201  0.3570
  520MOL0     H70143   2.516   5.890   1.846  0.9541  0.9647 -0.8420
  520MOL0     H70144   2.359   5.941   1.923  1.4981 -1.0081  0.0236
  520MOL0     H70145   2.405   5.987   1.679  1.9698 -0.8240 -0.9113
  520MOL0     H70146   2.350   6.125   1.767 -1.0315 -2.2487  1.2281
  520MOL0     H70147   2.647   6.065   1.671  1.0486  1.2089 -3.0838
  520MOL0     H70148   2.601   6.195   1.778  0.7263 -3.1556  3.7209
  520MOL0     H70149   2.465   6.137   1.504  2.6403 -0.7055 -1.6944
  520MOL0     H70150   2.445   6.278   1.609 -0.7667 -0.8382  1.0049
  520MOL0     H70151   2.704   6.098   1.391  0.3380  0.6386 -1.5771
  520MOL0     H70152   2.944   6.151   1.278 -1.1744 -0.1690 -0.5374
  520MOL0     H70153   2.933   6.316   1.214 -2.7139 -0.5178 -0.0834
  520MOL0     H70154   3.149   6.322   1.285 -1.8128  0.1270 -1.0700
  520MOL0     H70155   3.081   6.377   1.434  1.9982  0.6718 -0.6193
  520MOL0     H70156   3.139   6.077   1.384  0.0742 -2.0761  1.2393
  520MOL0     H70157   3.080   6.160   1.533  2.1165  0.7921  0.6906
  520MOL0     H70158   3.315   6.114   1.560 -4.1911  0.8273  1.4233
  520MOL0     H70159   3.272   6.286   1.552 -2.8466  1.3047 -1.2798
  520MOL0     H70160   3.537   6.145   1.586 -0.4681 -0.8431  0.2708
  520MOL0     H70161   3.774   6.083   1.555 -1.3441 -0.9532 -0.4418
  520MOL0     H70162   4.116   5.916   1.267  0.3359 -0.1686 -0.5515
  520MOL0     H70163   4.350   5.889   1.248 -2.8130 -1.6471  0.7448
  520MOL0     H70164   4.589   5.840   1.348 -2.4055  0.4166 -0.4817
  520MOL0     H70165   4.597   5.989   1.242 -1.5701 -0.3420  0.3694
  520MOL0     H70166   4.773   6.080   1.372  0.3075 -0.6921  0.0549
  520MOL0     H70167   4.781   5.932   1.474  0.1304  1.2987  0.2146
  520MOL0     H70168   4.939   5.896   1.322  0.5030 -0.3105 -0.0837
  520MOL0     H70169   4.798   5.811   1.246 -0.0143  1.0157 -2.9753
  520MOL0     H70170   4.874   6.080   1.159 -0.7313  0.1434 -1.5838
  520MOL0     H70171   4.747   5.998   1.087  0.5899  2.2455  0.3970
  520MOL0     H70172   4.892   5.805   1.022  1.0770 -0.4706  1.4570
  520MOL0     H70173   5.029   5.893   1.082  1.6761 -0.2522 -0.8121
  520MOL0     H70174   4.830   5.990   0.866  1.0408  1.0082 -2.4901
  520MOL0     H70175   4.985   6.069   0.910 -1.1589  0.8765  1.9508
  520MOL0     H70176   4.963   5.917   0.692  2.7136 -1.6005 -2.0687
  520MOL0     H70177   4.967   5.789   0.802 -1.5023  0.5138 -2.5817
  520MOL0     H70178   5.184   5.860   0.890 -0.0140 -0.7800 -0.8695
  520MOL0     H70179   5.199   5.821   0.733  2.8201 -0.4766  1.5235
  520MOL0     H70180   4.411   6.159   1.588 -0.2846 -0.4678  0.2158
  520MOL0     H70181   4.161   6.210   1.583 -0.3004  1.8563 -1.6629
  520MOL0     H70182   3.723   6.212   1.144 -0.2520  0.7596 -0.7020
  520MOL0     H70183   3.531   6.264   1.173 -1.3881 -2.2649 -0.6037
  520MOL0     H70184   2.261   6.402   2.463 -0.5211 -0.3045 -0.1691
  520MOL0     H70185   2.157   6.596   2.571 -2.3602 -0.5285 -3.2778
  520MOL0     H70186   2.205   6.948   2.771  1.7416  0.4982 -1.2254
  520MOL0     H70187   2.159   7.146   2.902 -0.1068  2.2403 -1.2763
  520MOL0     H70188   1.734   7.303   2.851 -0.1086  1.5866 -2.5048
  520MOL0     H70189   1.822   7.439   2.785  1.1081 -0.0298  0.4407
  520MOL0     H70190   1.901   7.498   3.029  0.2398 -1.0572  2.6442
  520MOL0     H70191   1.830   7.360   3.086  0.8031 -1.7037 -1.2551
  520MOL0     H70192   1.637   7.553   2.944  0.0713 -1.3426 -0.4688
  520MOL0     H70193   1.669   7.595   3.103 -2.8333  2.0972 -2.5049
  520MOL0     H70194   1.599   7.355   3.170 -0.4689 -2.0476 -1.0922
  520MOL0     H70195   1.491   7.489   3.130  0.6953 -1.0602  0.9590
  520MOL0     H70196   1.366   7.287   2.795 -2.8468 -1.5845  1.9258
  520MOL0     H70197   1.834   7.243   2.643  0.3746  1.0143 -0.2253
  520MOL0     H70198   1.820   7.150   2.443  0.6261  0.1378  0.3089
  520MOL0     H70199   1.944   7.045   2.362 -2.1725 -2.6719 -1.3614
  520MOL0     H70200   1.806   6.978   2.473 -2.3296  1.7578  3.4991
  521MOL0     O70201   2.388   7.116   5.767  0.2849 -0.4762 -0.3563
  521MOL0     C70202   2.393   7.032   5.679  0.4875  0.7418 -0.3509
  521MOL0     O70203   2.377   7.060   5.555 -0.0826 -0.7899  0.8531
  521MOL0     C70204   2.373   7.191   5.511  0.2218 -0.5149 -0.2594
  521MOL0     C70205   2.421   7.211   5.380  0.5700  0.1425 -0.7024
  521MOL0     C70206   2.432   7.331   5.316  0.3155  0.6303 -0.0074
  521MOL0     C70207   2.385   7.440   5.380  0.3066 -0.2545 -0.1927
  521MOL0     O70208   2.415   7.565   5.346 -0.0058  0.1168 -0.7004
  521MOL0     C70209   2.444   7.576   5.206  0.1087 -0.4325  0.0050
  521MOL0     C70210   2.422   7.731   5.194 -0.3776 -0.0082  0.0144
  521MOL0     C70211   2.265   7.768   5.179  0.2666  0.1080  0.7777
  521MOL0     C70212   2.193   7.767   5.321  0.6235  0.0765 -0.3724
  521MOL0     C70213   2.041   7.777   5.305  0.3763  0.1963 -0.7020
  521MOL0     C70214   1.979   7.908   5.258  0.4735 -0.6694 -0.1388
  521MOL0     C70215   1.916   7.991   5.375 -0.3925 -0.5578 -0.0704
  521MOL0     C70216   1.845   8.129   5.328 -0.4720 -0.5466 -0.5673
  521MOL0     N70217   1.713   8.096   5.282  0.7454  0.1633  0.2354
  521MOL0     C70218   1.603   8.050   5.350 -0.2381  0.1302  0.8629
  521MOL0     C70219   1.504   8.057   5.261  0.6713  0.8406  0.0150
  521MOL0     C70220   1.361   8.025   5.297 -0.4923 -0.8455  0.8891
  521MOL0     C70221   1.302   8.148   5.360 -0.3980 -1.6482  0.1130
  521MOL0     C70222   1.157   8.151   5.361 -0.3923  0.5573  0.1985
  521MOL0     C70223   1.092   8.044   5.440 -0.4762 -0.4523  0.5787
  521MOL0     O70224   1.099   7.930   5.355 -0.1417 -0.1084 -0.0785
  521MOL0     C70225   1.123   7.813   5.420 -0.6240  0.0408 -0.4307
  521MOL0     C70226   1.215   7.719   5.385 -0.6995 -0.4967  0.7956
  521MOL0     C70227   1.219   7.591   5.437 -0.2928 -0.3026 -0.8119
  521MOL0     C70228   1.129   7.549   5.537  0.8457 -0.7991 -0.5120
  521MOL0     C70229   1.126   7.421   5.596 -0.3651  0.9740 -0.5135
  521MOL0     O70230   1.072   7.418   5.722  0.3433  0.3239  0.3057
  521MOL0     C70231   1.088   7.297   5.797  0.5929  0.7374 -0.2953
  521MOL0     C70232   1.132   7.308   5.926 -0.2269 -0.3080 -0.0559
  521MOL0     C70233   1.130   7.198   6.015 -0.4082 -0.3686  0.0278
  521MOL0     C70234   1.111   7.076   5.965 -0.6294 -0.1266 -0.5006
  521MOL0     O70235   1.134   6.973   6.053  0.3393 -0.5019  0.6917
  521MOL0     C70236   1.178   6.844   5.999  0.1954  0.4110 -0.1371
  521MOL0     C70237   1.211   6.760   6.124 -1.0548  0.1526  0.0740
  521MOL0     C70238   1.107   6.750   6.228 -0.8419  0.3562 -0.8400
  521MOL0     C70239   1.138   6.642   6.348 -0.0196 -0.0790 -0.4973
  521MOL0     C70240   1.146   6.495   6.304  1.1682  0.2240  0.0876
  521MOL0     C70241   1.021   6.449   6.225  0.1663  0.5468 -0.1774
  521MOL0     C70242   0.980   6.295   6.243 -0.2006 -0.7964  0.4274
  521MOL0     C70243   0.835   6.263   6.240  1.0434  0.5530 -0.5704
  521MOL0    Cl70244   0.800   6.080   6.231 -0.3618  0.8011 -0.2174
  521MOL0     C70245   1.072   7.057   5.837 -0.5006 -0.3419 -0.1900
  521MOL0     C70246   1.057   7.168   5.753 -0.5055  0.8273  1.0270
  521MOL0     O70247   1.176   7.322   5.544  0.7147 -0.1219  0.2398
  521MOL0     C70248   1.042   7.654   5.577 -1.1934 -0.4868 -0.1837
  521MOL0     C70249   1.032   7.780   5.515  0.2564  0.9144  0.1331
  521MOL0     N70250   1.548   8.096   5.135  0.3203  0.1351 -0.2429
  521MOL0     N70251   1.681   8.102   5.149  0.9342  0.2053  0.3829
  521MOL0     C70252   2.316   7.433   5.505 -0.1876  0.1464 -0.3400
  521MOL0     C70253   2.315   7.307   5.571 -0.4666 -0.2336  0.5340
  521MOL0     C70254   2.408   6.885   5.713 -0.3859 -0.3128 -0.2863
  521MOL0     C70255   2.316   6.788   5.662  0.0915 -0.3010 -0.9531
  521MOL0     C70256   2.336   6.651   5.675 -0.3868  0.8172  0.9819
  521MOL0     C70257   2.447   6.602   5.748  0.1954  0.1149 -0.4594
  521MOL0     O70258   2.465   6.467   5.746 -0.1116 -0.6661  0.3082
  521MOL0     C70259   2.592   6.406   5.780  0.4202  0.2463 -0.3600
  521MOL0     C70260   2.578   6.251   5.780 -0.5994 -0.3638 -0.4472
  521MOL0     C70261   2.633   6.182   5.908 -0.2477  0.1378  0.4288
  521MOL0     C70262   2.636   6.030   5.892 -0.7291  0.8714  0.4246
  521MOL0     C70263   2.721   5.971   5.999  0.2060  0.1952  0.3707
  521MOL0     C70264   2.796   5.924   6.085 -0.0026  0.6164 -0.3307
  521MOL0     C70265   2.534   6.697   5.801 -0.2040 -0.1764  0.6166
  521MOL0     C70266   2.515   6.832   5.789  0.0913 -0.4668 -0.6129
  521MOL0     C70267   2.597   6.922   5.873 -0.7710  0.6604  0.4628
  521MOL0     H70268   2.478   7.131   5.334  2.5360  0.5576  0.8795
  521MOL0     H70269   2.471   7.332   5.214 -0.7690  0.8891 -0.4380
  521MOL0     H70270   2.546   7.559   5.170 -0.0999 -1.1020 -0.2940
  521MOL0     H70271   2.375   7.523   5.140  1.0634 -1.2329 -0.3717
  521MOL0     H70272   2.476   7.763   5.105  2.6903 -2.4719  0.7873
  521MOL0     H70273   2.462   7.788   5.279 -0.4725 -3.7644  2.8342
  521MOL0     H70274   2.220   7.701   5.106  0.2649  2.3626 -1.4404
  521MOL0     H70275   2.261   7.866   5.129  2.3837  0.5156  1.2685
  521MOL0     H70276   2.209   7.670   5.369 -0.4448  0.6676  1.2982
  521MOL0     H70277   2.232   7.840   5.394 -1.9779  2.9604 -1.6414
  521MOL0     H70278   2.006   7.685   5.257 -0.2637  0.1049 -0.0683
  521MOL0     H70279   2.010   7.772   5.409 -0.3252  1.7136 -0.8202
  521MOL0     H70280   2.058   7.966   5.208  0.1393 -0.9353 -0.9905
  521MOL0     H70281   1.899   7.887   5.187  1.9290 -2.0506 -1.4762
  521MOL0     H70282   1.999   8.019   5.440 -1.6257 -2.5674  2.5701
  521MOL0     H70283   1.844   7.932   5.432 -1.2813 -0.5818 -1.1775
  521MOL0     H70284   1.825   8.198   5.410 -0.8808  0.6615 -1.6508
  521MOL0     H70285   1.913   8.163   5.249 -1.9533  2.2759 -0.7535
  521MOL0     H70286   1.593   8.025   5.455  1.2709 -0.0766  0.9844
  521MOL0     H70287   1.307   8.014   5.202 -1.4162  2.0087  0.9905
  521MOL0     H70288   1.351   7.932   5.353 -2.0091 -1.8727 -0.9498
  521MOL0     H70289   1.340   8.171   5.460 -1.6191  4.2649 -0.3899
  521MOL0     H70290   1.325   8.235   5.297 -2.0070 -0.7579  0.6957
  521MOL0     H70291   1.117   8.153   5.259  0.6046 -0.4650 -0.2357
  521MOL0     H70292   1.139   8.249   5.405  1.4836  0.9810  0.1095
  521MOL0     H70293   0.989   8.068   5.469 -0.8394 -0.1623 -0.8420
  521MOL0     H70294   1.145   8.031   5.534  2.1990  0.7646 -0.6482
  521MOL0     H70295   1.284   7.743   5.305 -0.0590  2.8058  2.2166
  521MOL0     H70296   1.295   7.526   5.397 -1.2337 -1.1764 -1.2132
  521MOL0     H70297   1.162   7.402   5.970 -1.3176 -0.4969  1.1484
  521MOL0     H70298   1.152   7.198   6.121 -2.8783 -2.5106  0.6271
  521MOL0     H70299   1.095   6.794   5.949 -1.1161  1.3277  1.0610
  521MOL0     H70300   1.265   6.845   5.933  0.6054 -0.1226  0.3715
  521MOL0     H70301   1.236   6.660   6.087  3.8705  1.3801 -0.6622
  521MOL0     H70302   1.302   6.803   6.167 -0.6778 -0.1160 -0.4491
  521MOL0     H70303   1.064   6.839   6.274 -0.0296 -1.6393  4.4994
  521MOL0     H70304   1.017   6.710   6.181 -1.2098  0.7869 -0.5163
  521MOL0     H70305   1.062   6.666   6.423 -0.5350 -0.8350 -0.7600
  521MOL0     H70306   1.239   6.662   6.384  0.0654  0.3295 -0.9433
  521MOL0     H70307   1.152   6.436   6.395  0.3586  0.0410  0.0324
  521MOL0     H70308   1.244   6.470   6.260  0.5992 -1.0229 -0.5504
  521MOL0     H70309   0.940   6.508   6.270 -0.7466 -0.4623 -0.4599
  521MOL0     H70310   1.028   6.469   6.118 -3.9316  1.6654 -0.3783
  521MOL0     H70311   1.017   6.261   6.341 -0.1041 -2.1448 -0.0508
  521MOL0     H70312   1.032   6.238   6.165  0.7071 -0.9460  1.1166
  521MOL0     H70313   0.783   6.311   6.323 -0.6468 -0.5171 -0.9638
  521MOL0     H70314   0.790   6.304   6.149  1.6584 -0.6486 -1.4394
  521MOL0     H70315   1.048   6.954   5.810 -1.9703 -0.9095  2.8216
  521MOL0     H70316   1.027   7.155   5.650  1.5089 -0.9630  0.6027
  521MOL0     H70317   0.968   7.644   5.656 -0.8998 -0.9602  0.0329
  521MOL0     H70318   0.951   7.837   5.558 -1.5951 -1.8348  0.5935
  521MOL0     H70319   2.278   7.523   5.552  1.6673 -0.3236  2.3056
  521MOL0     H70320   2.258   7.289   5.662 -0.3244 -1.5764  0.3779
  521MOL0     H70321   2.240   6.836   5.601  0.8671  0.2465 -1.4988
  521MOL0     H70322   2.268   6.591   5.615 -0.3820 -0.7392  2.4895
  521MOL0     H70323   2.629   6.437   5.879  2.1885 -0.2409 -0.8416
  521MOL0     H70324   2.669   6.433   5.708  0.1092  0.4152 -0.6343
  521MOL0     H70325   2.635   6.212   5.695 -4.3901  0.7196 -3.8113
  521MOL0     H70326   2.476   6.221   5.754 -0.7683  0.9279 -1.3856
  521MOL0     H70327   2.569   6.221   5.987 -0.4385 -2.4806  1.6768
  521MOL0     H70328   2.735   6.222   5.914 -0.7351  1.6678 -0.7133
  521MOL0     H70329   2.534   5.992   5.902 -0.3980 -0.6108 -1.4368
  521MOL0     H70330   2.666   5.989   5.796  0.0987 -0.1101  1.0804
  521MOL0     H70331   2.866   5.895   6.161 -1.0562  1.6959  1.1246
  521MOL0     H70332   2.628   6.663   5.843  0.2120  1.3086  0.9209
  521MOL0     H70333   2.655   6.992   5.811  1.1906 -2.1038 -1.0829
  521MOL0     H70334   2.543   6.974   5.953  0.8202  0.9759  1.3701
  521MOL0     H70335   2.678   6.856   5.904  0.8733  1.2735 -2.1660
  522MOL0     O70336   9.309   2.808  10.016 -0.2111 -0.5980 -1.0019
  522MOL0     C70337   9.250   2.706  10.002  0.2334  0.7041  0.3402
  522MOL0     O70338   9.268   2.598  10.087 -0.0111  0.1539 -0.3540
  522MOL0     C70339   9.376   2.593  10.169 -0.0124 -0.3790  0.5470
  522MOL0     C70340   9.362   2.601  10.311  0.9016 -0.7590 -0.1699
  522MOL0     C70341   9.478   2.601  10.390  0.2321 -1.2284 -0.2397
  522MOL0     C70342   9.604   2.603  10.338 -0.1153 -0.3073  0.0416
  522MOL0     O70343   9.719   2.615  10.414 -0.1374  0.2376 -0.5495
  522MOL0     C70344   9.777   2.755  10.419 -0.2581  1.1273  0.6272
  522MOL0     C70345   9.734   2.814  10.556 -0.0016 -0.1542 -0.3926
  522MOL0     C70346   9.839   2.887  10.640 -0.4252 -0.2138  0.2037
  522MOL0     C70347   9.887   3.017  10.565 -0.0725  0.0997  0.3729
  522MOL0     C70348   9.995   3.090  10.650  0.4283  0.5783  0.3391
  522MOL0     C70349  10.029   3.218  10.565  0.0325  0.4101 -0.5583
  522MOL0     C70350  10.114   3.315  10.642  1.1034 -0.0755  0.1612
  522MOL0     C70351  10.135   3.449  10.563 -0.2728  0.5817 -0.5667
  522MOL0     N70352  10.233   3.445  10.452  0.4917  0.2087  0.5897
  522MOL0     C70353  10.202   3.401  10.319 -0.4471  0.6997 -0.5243
  522MOL0     C70354  10.325   3.388  10.261  0.2850 -0.1472  0.3155
  522MOL0     C70355  10.357   3.331  10.124 -0.7428  0.7854 -0.0834
  522MOL0     C70356  10.242   3.269  10.043 -0.0881 -0.0020  0.0126
  522MOL0     C70357  10.269   3.168   9.925 -0.3571 -0.0184  0.0384
  522MOL0     C70358  10.140   3.140   9.845 -0.6177 -0.4060 -0.5219
  522MOL0     O70359  10.099   3.261   9.782 -0.7474  0.2469  0.1037
  522MOL0     C70360   9.959   3.274   9.771 -0.3063  0.8832 -0.5156
  522MOL0     C70361   9.899   3.375   9.844 -0.0592  0.5016  0.7068
  522MOL0     C70362   9.756   3.394   9.833 -1.0400  0.6166  0.3847
  522MOL0     C70363   9.682   3.297   9.756  0.3485 -0.6552 -0.1606
  522MOL0     C70364   9.534   3.305   9.761  0.2245  0.5671  0.4835
  522MOL0     O70365   9.473   3.335   9.873 -0.3594  0.7703  0.6391
  522MOL0     C70366   9.335   3.326   9.868  0.4678  1.2706  0.3366
  522MOL0     C70367   9.256   3.441   9.851  0.6971 -1.0684 -0.0264
  522MOL0     C70368   9.118   3.438   9.831  0.1039 -0.3791  1.0502
  522MOL0     C70369   9.057   3.310   9.822  0.6552  0.3157 -0.3762
  522MOL0     O70370   8.931   3.282   9.786 -0.6075 -0.3147  0.4154
  522MOL0     C70371   8.823   3.365   9.836 -0.2774  0.0153  0.6512
  522MOL0     C70372   8.796   3.362   9.986  0.3583  0.7445  0.5354
  522MOL0     C70373   8.685   3.453  10.033 -0.0884  0.3816 -0.4841
  522MOL0     C70374   8.543   3.410  10.003  1.5141  0.7104  0.2857
  522MOL0     C70375   8.441   3.506  10.066 -0.4223  0.6469 -0.3485
  522MOL0     C70376   8.306   3.498  10.008  0.7070 -0.2380  0.8967
  522MOL0     C70377   8.204   3.424  10.082  0.3161  0.2666 -0.1548
  522MOL0     C70378   8.068   3.422  10.016 -0.0592 -0.0310 -0.1269
  522MOL0    Cl70379   7.932   3.352  10.103  0.1574  0.1584  0.3548
  522MOL0     C70380   9.137   3.191   9.828 -0.1161  0.5529 -0.0682
  522MOL0     C70381   9.272   3.204   9.864 -0.4784  0.0139  0.2855
  522MOL0     O70382   9.475   3.277   9.647 -0.1655 -0.5325 -0.0608
  522MOL0     C70383   9.745   3.200   9.682 -0.7019  0.0181  0.3009
  522MOL0     C70384   9.883   3.179   9.692 -0.2459 -1.5411  0.6068
  522MOL0     N70385  10.423   3.433  10.347  0.4877 -0.1568 -0.1082
  522MOL0     N70386  10.371   3.464  10.462 -0.5533 -0.7067 -0.1082
  522MOL0     C70387   9.625   2.588  10.200  0.7059  0.2767  0.8880
  522MOL0     C70388   9.511   2.589  10.117  0.3858 -0.1205  0.4139
  522MOL0     C70389   9.148   2.703   9.890 -0.9679  1.3774  0.6672
  522MOL0     C70390   9.068   2.816   9.857  0.0635 -0.4596  0.3672
  522MOL0     C70391   8.973   2.802   9.754  0.3630  0.0259  0.6334
  522MOL0     C70392   8.951   2.686   9.686 -0.1489 -0.5617 -0.4954
  522MOL0     O70393   8.842   2.680   9.608 -0.0387  0.3959  0.0341
  522MOL0     C70394   8.734   2.596   9.657 -0.6341 -0.3665  0.0280
  522MOL0     C70395   8.678   2.492   9.553  0.0123 -0.0764 -0.2566
  522MOL0     C70396   8.672   2.547   9.411 -0.5859 -0.2405 -0.2912
  522MOL0     C70397   8.605   2.431   9.321 -0.2103  0.0744  0.0481
  522MOL0     C70398   8.589   2.480   9.184  0.2011  0.0579  0.1320
  522MOL0     C70399   8.570   2.522   9.071  1.1297 -0.0733  0.1986
  522MOL0     C70400   9.032   2.577   9.713 -0.3650  0.0576 -0.3660
  522MOL0     C70401   9.125   2.581   9.819  1.0681 -0.6898 -0.0509
  522MOL0     C70402   9.205   2.458   9.846 -0.7132 -0.2571 -0.3672
  522MOL0     H70403   9.266   2.620  10.357  2.8496 -0.2196  4.1115
  522MOL0     H70404   9.480   2.607  10.498  1.9777  0.5545 -0.3329
  522MOL0     H70405   9.885   2.740  10.412 -0.2816  1.1572  0.1623
  522MOL0     H70406   9.751   2.830  10.343  2.5657  1.0685 -0.5131
  522MOL0     H70407   9.708   2.725  10.614  0.8975 -0.7281 -0.8603
  522MOL0     H70408   9.639   2.868  10.566 -1.1564 -1.9936 -0.8104
  522MOL0     H70409   9.922   2.818  10.658 -0.5090 -0.9185 -1.8732
  522MOL0     H70410   9.794   2.918  10.735  1.4532  1.6964  0.5577
  522MOL0     H70411   9.929   2.991  10.467 -0.7075  1.0431 -0.1640
  522MOL0     H70412   9.794   3.069  10.543 -2.8050 -4.4304 -0.0723
  522MOL0     H70413   9.951   3.108  10.748  1.3421 -0.9000  1.0526
  522MOL0     H70414  10.082   3.025  10.663  1.3768  1.2960 -1.8807
  522MOL0     H70415  10.083   3.192  10.474  1.9243  6.2578 -1.4967
  522MOL0     H70416   9.931   3.260  10.541 -0.7957 -0.0046  1.7649
  522MOL0     H70417  10.212   3.279  10.671  0.8591 -0.6014  0.3378
  522MOL0     H70418  10.066   3.338  10.737  0.0906 -0.2296 -0.2906
  522MOL0     H70419  10.037   3.489  10.534  0.2358  1.3438 -1.2687
  522MOL0     H70420  10.181   3.514  10.638  0.8257  1.4552 -1.9607
  522MOL0     H70421  10.103   3.373  10.285  0.3970 -1.6929 -1.2511
  522MOL0     H70422  10.424   3.393  10.065  0.9771 -0.2769  0.6703
  522MOL0     H70423  10.410   3.241  10.157  1.9863  2.6659  0.9703
  522MOL0     H70424  10.171   3.210  10.102  1.1413 -1.6910 -0.1161
  522MOL0     H70425  10.190   3.360  10.013 -2.2443 -0.2870  2.5419
  522MOL0     H70426  10.302   3.082   9.984  2.9356  1.8216  1.1830
  522MOL0     H70427  10.356   3.188   9.861 -1.6628 -1.1358 -2.2083
  522MOL0     H70428  10.067   3.093   9.911  0.1931 -1.4839 -0.3726
  522MOL0     H70429  10.161   3.060   9.774 -1.0885  0.8403 -2.1312
  522MOL0     H70430   9.963   3.440   9.904 -0.2566 -0.5423  2.0859
  522MOL0     H70431   9.706   3.476   9.884 -2.6595 -1.7978  2.9988
  522MOL0     H70432   9.302   3.539   9.853  0.5142 -0.9671  1.9910
  522MOL0     H70433   9.074   3.537   9.827 -0.2194 -0.5683 -0.4499
  522MOL0     H70434   8.825   3.468   9.797  2.1883 -1.2606 -3.1019
  522MOL0     H70435   8.729   3.319   9.806 -1.8882  2.1502  2.0528
  522MOL0     H70436   8.776   3.256  10.006  0.1791  0.6817  0.0405
  522MOL0     H70437   8.885   3.389  10.044  0.6164  1.6387 -0.2466
  522MOL0     H70438   8.696   3.454  10.142  0.0927 -0.8211 -0.4774
  522MOL0     H70439   8.707   3.556  10.005  1.1298  0.2427 -0.0884
  522MOL0     H70440   8.520   3.309  10.039 -2.9092  1.6536  0.6418
  522MOL0     H70441   8.525   3.409   9.896  1.2007 -1.2749  0.3109
  522MOL0     H70442   8.466   3.611  10.043 -1.0291  0.9872  0.5006
  522MOL0     H70443   8.445   3.505  10.175  0.5538  1.8098 -0.3387
  522MOL0     H70444   8.264   3.596   9.985 -1.9463 -1.6111 -0.6102
  522MOL0     H70445   8.321   3.437   9.919 -0.2579 -0.8306  1.1226
  522MOL0     H70446   8.191   3.474  10.178 -2.3410 -0.4080 -0.0811
  522MOL0     H70447   8.225   3.317  10.091 -0.6993  0.2735  3.7561
  522MOL0     H70448   8.020   3.519  10.000  0.6818  0.8272  2.4667
  522MOL0     H70449   8.080   3.362   9.925  2.3687 -0.3347  0.3235
  522MOL0     H70450   9.100   3.091   9.808  1.5846  0.0109 -0.6252
  522MOL0     H70451   9.337   3.117   9.874 -0.6788 -0.4118 -1.7469
  522MOL0     H70452   9.690   3.129   9.622  0.0208  0.3316 -0.7664
  522MOL0     H70453   9.932   3.106   9.629  1.8713  0.9510 -0.8334
  522MOL0     H70454   9.715   2.571  10.142 -0.8023  0.9081 -1.8267
  522MOL0     H70455   9.534   2.588  10.011  1.5163  0.7346  0.6351
  522MOL0     H70456   9.089   2.912   9.905  2.2375 -0.8103  0.2499
  522MOL0     H70457   8.918   2.893   9.738  1.4533  1.4103  3.9521
  522MOL0     H70458   8.661   2.670   9.692  2.2817  2.5465  0.5397
  522MOL0     H70459   8.764   2.543   9.748 -4.3847 -3.0765 -0.0912
  522MOL0     H70460   8.582   2.450   9.585  1.8184 -4.3040  0.3007
  522MOL0     H70461   8.752   2.414   9.572  0.0081  0.4551  2.2750
  522MOL0     H70462   8.772   2.574   9.374 -1.7425  3.5809 -1.0343
  522MOL0     H70463   8.617   2.641   9.412 -0.3948 -0.0982  2.2159
  522MOL0     H70464   8.666   2.340   9.319 -0.8514 -0.3469 -0.6661
  522MOL0     H70465   8.508   2.397   9.356 -0.9418  2.8933  1.0272
  522MOL0     H70466   8.555   2.581   8.983 -0.0249 -0.2331  0.2742
  522MOL0     H70467   9.010   2.487   9.657 -2.4020 -0.0339  0.5134
  522MOL0     H70468   9.144   2.391   9.907  1.4767  1.1088  3.6451
  522MOL0     H70469   9.220   2.409   9.749 -1.3238  2.7606 -2.1043
  522MOL0     H70470   9.296   2.481   9.901 -1.7457 -0.2789  1.4094
  523MOL0     O70471   3.609   2.665   7.553 -1.0262 -0.1992 -0.4569
  523MOL0     C70472   3.529   2.635   7.641 -0.6617 -0.5171 -1.0130
  523MOL0     O70473   3.530   2.699   7.772 -0.5677  0.2548  0.3471
  523MOL0     C70474   3.625   2.799   7.795 -0.6212  0.6382  0.3345
  523MOL0     C70475   3.711   2.767   7.902  0.6777 -0.4510  0.4374
  523MOL0     C70476   3.807   2.860   7.937  0.8127  0.1473  1.2632
  523MOL0     C70477   3.827   2.971   7.856  0.3294  0.1018  0.9078
  523MOL0     O70478   3.918   3.062   7.896  0.2271 -0.0677  0.0392
  523MOL0     C70479   3.874   3.198   7.902  0.1406 -0.3635 -0.2475
  523MOL0     C70480   3.938   3.254   8.028 -0.8658 -0.4222 -0.5110
  523MOL0     C70481   3.970   3.401   8.018 -0.4207  0.5645 -0.2491
  523MOL0     C70482   4.020   3.464   8.148  0.0379  0.4909 -0.3417
  523MOL0     C70483   4.065   3.612   8.115 -0.8708  0.0728  0.1659
  523MOL0     C70484   4.116   3.669   8.245 -0.2221 -0.3938 -0.1391
  523MOL0     C70485   4.172   3.800   8.204 -0.5949  0.8693 -0.3316
  523MOL0     C70486   4.217   3.890   8.322 -0.0829  0.1058  0.8046
  523MOL0     N70487   4.318   3.826   8.402 -0.9830 -1.1216  0.7789
  523MOL0     C70488   4.287   3.724   8.492  0.7231 -0.8394  0.1678
  523MOL0     C70489   4.404   3.710   8.565  0.3763  0.3318  0.4612
  523MOL0     C70490   4.441   3.602   8.658  0.2941 -0.3258 -0.3488
  523MOL0     C70491   4.327   3.493   8.667 -0.6453  0.1463 -0.2171
  523MOL0     C70492   4.325   3.409   8.549  0.1198  0.4621  1.0186
  523MOL0     C70493   4.222   3.301   8.555 -0.5801 -0.4858  0.0033
  523MOL0     O70494   4.206   3.237   8.428  0.3716  0.0828  0.0235
  523MOL0     C70495   4.109   3.138   8.439 -0.4798  0.5124 -1.3131
  523MOL0     C70496   3.991   3.153   8.372 -0.2242 -0.4317 -0.1772
  523MOL0     C70497   3.897   3.047   8.374 -0.2766  0.3341 -0.2972
  523MOL0     C70498   3.931   2.925   8.443  0.5378 -0.6077 -0.3465
  523MOL0     C70499   3.828   2.820   8.434  0.0452  0.4927 -0.2742
  523MOL0     O70500   3.731   2.832   8.342 -0.2768  0.7609  0.8902
  523MOL0     C70501   3.640   2.732   8.320  1.0792 -0.4092  0.2560
  523MOL0     C70502   3.660   2.643   8.220 -0.6472 -0.6174 -0.6114
  523MOL0     C70503   3.561   2.540   8.194  0.5602 -0.7495 -0.5231
  523MOL0     C70504   3.439   2.548   8.260  0.1995  0.0798 -0.3866
  523MOL0     O70505   3.354   2.455   8.214  0.1035 -0.1988  0.0129
  523MOL0     C70506   3.226   2.469   8.276  0.3251  0.1346 -0.5197
  523MOL0     C70507   3.136   2.343   8.237  0.1791 -0.4434  0.3064
  523MOL0     C70508   3.022   2.379   8.139  0.8643 -0.5287  0.3467
  523MOL0     C70509   2.973   2.248   8.069  0.6106 -0.4989 -0.4731
  523MOL0     C70510   2.833   2.251   8.010 -0.2660  0.2195 -0.2581
  523MOL0     C70511   2.823   2.361   7.900  0.1515  0.2314 -0.7346
  523MOL0     C70512   2.679   2.344   7.847  0.5288  0.1162 -0.1507
  523MOL0     C70513   2.622   2.469   7.778  0.8572  0.7605  0.6566
  523MOL0    Cl70514   2.441   2.471   7.758  0.2489 -0.0430 -0.0305
  523MOL0     C70515   3.426   2.631   8.366 -0.6217 -1.1003  0.5422
  523MOL0     C70516   3.526   2.730   8.395  0.2774  0.0722 -1.1701
  523MOL0     O70517   3.837   2.728   8.518 -0.6019 -0.4555  0.8024
  523MOL0     C70518   4.035   2.922   8.530  0.5533 -0.1974  0.2899
  523MOL0     C70519   4.137   3.017   8.512  0.4988  0.1462  0.3283
  523MOL0     N70520   4.500   3.792   8.512  0.0240 -0.3491 -0.8428
  523MOL0     N70521   4.446   3.867   8.419 -0.5169  0.0317  0.4819
  523MOL0     C70522   3.744   2.989   7.742 -0.6310 -0.5997  0.3971
  523MOL0     C70523   3.642   2.907   7.715 -0.7729  0.1555  0.1060
  523MOL0     C70524   3.436   2.525   7.607  0.1064  0.5877 -0.5433
  523MOL0     C70525   3.358   2.484   7.720  0.2104 -0.6606 -0.2751
  523MOL0     C70526   3.273   2.378   7.712 -0.2424  0.6815  0.3142
  523MOL0     C70527   3.285   2.299   7.593 -0.5701 -0.5362 -0.3393
  523MOL0     O70528   3.217   2.184   7.564  0.3138  0.1638  0.4286
  523MOL0     C70529   3.102   2.155   7.651 -0.6773 -0.1252  0.2359
  523MOL0     C70530   3.156   2.056   7.763 -0.2833 -0.4192 -0.5879
  523MOL0     C70531   3.099   1.917   7.774 -0.4177  0.8288 -1.0440
  523MOL0     C70532   2.947   1.911   7.804  0.2367  0.7590  0.5934
  523MOL0     C70533   2.888   1.774   7.788 -0.5119  0.6795  0.1783
  523MOL0     C70534   2.846   1.666   7.781 -0.0170  0.3557 -0.6002
  523MOL0     C70535   3.370   2.332   7.488  0.4772 -0.0097 -0.6518
  523MOL0     C70536   3.445   2.442   7.493  0.1361  0.3153  0.8721
  523MOL0     C70537   3.532   2.479   7.370 -0.8024 -0.3556 -0.1534
  523MOL0     H70538   3.676   2.681   7.959 -2.9776  0.0284 -0.8052
  523MOL0     H70539   3.873   2.850   8.023 -0.5844 -0.0467  2.3586
  523MOL0     H70540   3.897   3.256   7.812  2.3708  2.6629  2.0706
  523MOL0     H70541   3.769   3.210   7.930  0.4118  0.2911  0.5127
  523MOL0     H70542   4.032   3.204   8.055 -1.7869 -2.7607 -1.3569
  523MOL0     H70543   3.858   3.230   8.100 -1.2333  0.3590 -0.6535
  523MOL0     H70544   3.875   3.447   7.991 -0.4900  0.1364 -0.7669
  523MOL0     H70545   4.039   3.409   7.933 -1.7702 -1.9400 -1.7217
  523MOL0     H70546   3.950   3.442   8.228  1.8354 -1.1235  0.8793
  523MOL0     H70547   4.109   3.407   8.175  1.6347  3.2914  0.8149
  523MOL0     H70548   4.143   3.617   8.039 -0.4834 -0.8744  0.4835
  523MOL0     H70549   3.975   3.658   8.074 -1.0045 -0.5529 -0.2495
  523MOL0     H70550   4.043   3.677   8.325 -0.8134  3.2570 -0.8765
  523MOL0     H70551   4.208   3.617   8.274  0.0398  0.7105  1.0433
  523MOL0     H70552   4.104   3.862   8.146 -1.4372  0.1026 -0.1746
  523MOL0     H70553   4.260   3.773   8.145  0.6147 -0.2763  1.8474
  523MOL0     H70554   4.259   3.985   8.289 -1.3160 -0.5224 -3.0067
  523MOL0     H70555   4.122   3.907   8.375 -0.3954 -1.1792  0.6876
  523MOL0     H70556   4.196   3.667   8.507  1.0661 -1.5906 -0.5061
  523MOL0     H70557   4.535   3.558   8.624  2.0931  3.4786 -0.7922
  523MOL0     H70558   4.464   3.641   8.757 -1.6767 -1.1550  0.5037
  523MOL0     H70559   4.347   3.435   8.758 -1.3418 -0.4088 -0.4106
  523MOL0     H70560   4.236   3.550   8.688 -0.8353 -0.7012  1.4943
  523MOL0     H70561   4.425   3.365   8.542  0.7892  2.1371 -0.9049
  523MOL0     H70562   4.307   3.465   8.457  0.5544  0.3178  0.8443
  523MOL0     H70563   4.122   3.341   8.571  0.0845  0.9971  0.7273
  523MOL0     H70564   4.257   3.235   8.635  0.9101  0.2537  0.0040
  523MOL0     H70565   3.966   3.249   8.329 -0.4332  0.8312  2.5227
  523MOL0     H70566   3.814   3.054   8.303 -0.0338 -0.6906 -0.6977
  523MOL0     H70567   3.758   2.653   8.176  0.3308 -0.3552  1.5073
  523MOL0     H70568   3.578   2.474   8.110  1.1413  1.7722 -2.5249
  523MOL0     H70569   3.242   2.467   8.384  0.5513 -1.7339 -0.5700
  523MOL0     H70570   3.177   2.564   8.251  1.9626  1.5812  1.5058
  523MOL0     H70571   3.202   2.263   8.204  3.3304  1.7472  0.9085
  523MOL0     H70572   3.087   2.313   8.330  2.7627  0.3273  2.0030
  523MOL0     H70573   2.934   2.418   8.191  0.6195 -2.2907  1.3529
  523MOL0     H70574   3.057   2.439   8.055  1.5563 -2.1618 -0.5889
  523MOL0     H70575   2.968   2.169   8.144 -0.0745  0.3412  0.3933
  523MOL0     H70576   3.047   2.225   7.992 -0.7314  3.0686 -3.1272
  523MOL0     H70577   2.768   2.275   8.095  1.6483 -0.5639  1.5192
  523MOL0     H70578   2.810   2.156   7.961  0.4684  1.0157 -2.2615
  523MOL0     H70579   2.835   2.461   7.942 -1.2167 -0.3751  1.2550
  523MOL0     H70580   2.899   2.349   7.822  1.4513  0.8394  0.3815
  523MOL0     H70581   2.618   2.314   7.933 -0.2322 -1.5246 -1.2217
  523MOL0     H70582   2.679   2.260   7.777  2.2818  0.9033 -1.1682
  523MOL0     H70583   2.657   2.560   7.829 -2.7892  2.8604 -0.2428
  523MOL0     H70584   2.671   2.478   7.681  0.2869  2.3710  0.4895
  523MOL0     H70585   3.341   2.643   8.432 -2.6859 -1.2947 -1.9580
  523MOL0     H70586   3.510   2.802   8.475 -0.6604  2.2148 -3.1709
  523MOL0     H70587   4.049   2.838   8.597  0.5611  0.4414  1.1196
  523MOL0     H70588   4.233   3.010   8.562  1.7046 -0.2284 -1.8925
  523MOL0     H70589   3.760   3.068   7.669  1.3017 -1.6615 -0.4057
  523MOL0     H70590   3.581   2.936   7.630  2.7477  1.2378 -2.2984
  523MOL0     H70591   3.354   2.547   7.808 -0.1918  2.2019 -2.2194
  523MOL0     H70592   3.211   2.352   7.797 -1.1545  2.4888  0.2406
  523MOL0     H70593   3.028   2.111   7.584 -2.0715  0.3306  1.4143
  523MOL0     H70594   3.059   2.242   7.703 -1.0242 -0.1005 -0.0886
  523MOL0     H70595   3.144   2.107   7.859 -0.5787  1.5663 -1.6277
  523MOL0     H70596   3.263   2.036   7.753 -1.0377 -5.7964 -0.6977
  523MOL0     H70597   3.153   1.870   7.857  1.6188  3.0260 -1.0206
  523MOL0     H70598   3.129   1.859   7.686  1.9893 -0.6184  0.5887
  523MOL0     H70599   2.932   1.940   7.909 -1.8020 -1.3160  0.9606
  523MOL0     H70600   2.894   1.974   7.731 -0.2042 -0.0848  0.1635
  523MOL0     H70601   2.817   1.564   7.764 -1.2552  0.6128 -0.1413
  523MOL0     H70602   3.374   2.263   7.404  2.2149  0.1243 -0.7178
  523MOL0     H70603   3.501   2.576   7.328 -2.1867 -1.5549 -2.0277
  523MOL0     H70604   3.633   2.483   7.412 -0.8461  1.9723 -0.1061
  523MOL0     H70605   3.527   2.399   7.296 -4.5921  0.9484 -1.5696
  524MOL0     O70606   0.765   8.553   8.290  0.1854  0.4341 -0.1959
  524MOL0     C70607   0.869   8.572   8.226 -0.2819  0.3371 -0.2175
  524MOL0     O70608   0.900   8.489   8.126  0.6870 -0.6512  0.8834
  524MOL0     C70609   0.832   8.368   8.095  0.8357  0.6379 -0.0088
  524MOL0     C70610   0.867   8.248   8.158  0.0198  0.0718 -0.0089
  524MOL0     C70611   0.804   8.124   8.133 -0.5710  0.9544 -0.0354
  524MOL0     C70612   0.701   8.127   8.043 -0.6852  0.4596 -0.4511
  524MOL0     O70613   0.646   8.006   8.029  0.3971 -0.3299  0.5216
  524MOL0     C70614   0.502   7.989   8.037  0.0254 -0.1596 -0.4368
  524MOL0     C70615   0.467   7.839   7.996 -0.6588 -0.2627 -0.2250
  524MOL0     C70616   0.321   7.829   7.973  0.7844  0.1723  0.0626
  524MOL0     C70617   0.235   7.877   8.089  0.4762  0.1686 -0.2211
  524MOL0     C70618   0.080   7.859   8.075  0.0309  0.2812  0.0758
  524MOL0     C70619   0.030   7.913   7.944 -1.0093 -0.5687  0.3807
  524MOL0     C70620   0.078   8.054   7.903 -0.4298  0.4126 -0.8821
  524MOL0     C70621   0.020   8.080   7.765  0.4307  0.1085 -0.3655
  524MOL0     N70622   0.108   8.174   7.691  0.1816 -0.2745  0.0344
  524MOL0     C70623   0.152   8.298   7.744 -0.1480 -1.2029  0.6539
  524MOL0     C70624   0.227   8.349   7.645  0.2135  0.6263  0.8190
  524MOL0     C70625   0.288   8.491   7.628 -0.0089  0.4731  0.1039
  524MOL0     C70626   0.176   8.601   7.642 -0.3803  0.3333 -0.3171
  524MOL0     C70627   0.225   8.737   7.592  0.5658  0.1169  0.5594
  524MOL0     C70628   0.285   8.821   7.704 -1.1471  0.7716 -0.0642
  524MOL0     O70629   0.185   8.867   7.804 -0.3542 -0.0504  0.0158
  524MOL0     C70630   0.225   8.956   7.901 -0.1752 -0.5781 -0.5704
  524MOL0     C70631   0.346   9.022   7.910 -0.3989  0.2865 -0.1813
  524MOL0     C70632   0.373   9.112   8.011  0.1655 -0.1833 -0.9567
  524MOL0     C70633   0.276   9.133   8.117  0.1362 -0.0760  0.1514
  524MOL0     C70634   0.286   9.235   8.229 -0.8604  0.5921 -0.3516
  524MOL0     O70635   0.187   9.258   8.318 -0.9990 -0.2633  0.3406
  524MOL0     C70636   0.176   9.375   8.384 -0.0575 -0.1290  0.1970
  524MOL0     C70637   0.277   9.416   8.477 -0.0629  0.4997 -0.1028
  524MOL0     C70638   0.243   9.503   8.571  0.8039 -0.8038 -0.6875
  524MOL0     C70639   0.123   9.574   8.568 -0.2487 -0.7623  0.5241
  524MOL0     O70640   0.103   9.659   8.669  0.7937  0.3275 -0.2672
  524MOL0     C70641   0.016   9.596   8.768  0.2955 -0.2118 -0.5551
  524MOL0     C70642   0.062   9.658   8.901 -0.5095  0.5247 -0.4066
  524MOL0     C70643   0.007   9.576   9.020 -0.0123  1.1361 -0.1195
  524MOL0     C70644  -0.104   9.639   9.106 -1.1132 -0.0176  0.8451
  524MOL0     C70645  -0.155   9.539   9.215  0.1491  0.2916  0.9941
  524MOL0     C70646  -0.262   9.617   9.307  0.0317  0.7441  1.0635
  524MOL0     C70647  -0.318   9.544   9.421  1.0297  0.2849 -0.3332
  524MOL0     C70648  -0.353   9.402   9.386 -0.2256 -0.4319 -1.0636
  524MOL0    Cl70649  -0.450   9.324   9.513 -0.0106 -0.3871  0.3458
  524MOL0     C70650   0.021   9.546   8.470 -0.1270 -0.3271 -0.4596
  524MOL0     C70651   0.046   9.437   8.386  0.2422  0.2203  0.0201
  524MOL0     O70652   0.381   9.314   8.204 -0.2690 -0.7343  0.1116
  524MOL0     C70653   0.152   9.071   8.098 -0.1673 -0.4540  0.1617
  524MOL0     C70654   0.129   8.983   7.997  0.0412 -0.5936 -0.5673
  524MOL0     N70655   0.226   8.261   7.538 -0.2961  1.2423 -0.2575
  524MOL0     N70656   0.154   8.162   7.567  0.1752  0.1773 -0.4910
  524MOL0     C70657   0.663   8.253   7.974 -0.0333  0.0330  0.4431
  524MOL0     C70658   0.721   8.374   8.009  0.3192  0.3231 -0.1825
  524MOL0     C70659   0.945   8.699   8.252  0.4962  0.0916 -0.0229
  524MOL0     C70660   0.887   8.792   8.338 -0.5312 -0.2629 -1.0750
  524MOL0     C70661   0.942   8.917   8.341 -0.2389 -0.1246 -1.0497
  524MOL0     C70662   1.054   8.964   8.275  0.6472 -0.1042  0.1065
  524MOL0     O70663   1.106   9.086   8.306  0.1846  0.0130 -0.8202
  524MOL0     C70664   1.222   9.143   8.251  0.4632 -0.2936  0.7582
  524MOL0     C70665   1.337   9.089   8.339 -0.9412  0.2080 -0.0548
  524MOL0     C70666   1.476   9.145   8.287 -0.7038 -0.6068  0.0840
  524MOL0     C70667   1.535   9.065   8.170  0.6346 -0.7270  0.3375
  524MOL0     C70668   1.675   9.088   8.148 -0.8388 -1.5036 -1.4856
  524MOL0     C70669   1.796   9.115   8.131  0.0247 -0.1155  0.3543
  524MOL0     C70670   1.121   8.867   8.203 -0.2961  0.1302  0.8304
  524MOL0     C70671   1.066   8.738   8.179 -0.4624  0.6780  0.6787
  524MOL0     C70672   1.133   8.647   8.087 -0.2527  0.7486 -0.3070
  524MOL0     H70673   0.961   8.246   8.212  0.7356  4.5938 -0.6853
  524MOL0     H70674   0.844   8.028   8.164 -1.0644 -0.1561 -2.5834
  524MOL0     H70675   0.458   8.002   8.136 -1.2314 -0.2378 -0.9637
  524MOL0     H70676   0.451   8.058   7.969 -0.1296  0.4530  0.2875
  524MOL0     H70677   0.504   7.764   8.067  1.0757 -0.8969 -1.7151
  524MOL0     H70678   0.523   7.813   7.906  2.8317  0.7963  1.4383
  524MOL0     H70679   0.296   7.723   7.962 -0.8496  0.7184 -2.3388
  524MOL0     H70680   0.289   7.871   7.877  2.0341 -0.9659 -0.8861
  524MOL0     H70681   0.273   7.818   8.173  1.4370  1.9267  0.6355
  524MOL0     H70682   0.246   7.985   8.102 -1.2859  0.1450  1.9460
  524MOL0     H70683   0.053   7.754   8.063 -1.6776  0.2915  2.8855
  524MOL0     H70684   0.029   7.904   8.160 -0.5933 -2.5770  1.3354
  524MOL0     H70685   0.063   7.839   7.870 -2.8271 -0.8661 -0.2071
  524MOL0     H70686  -0.080   7.908   7.945 -1.2665  2.5677 -0.5381
  524MOL0     H70687   0.187   8.056   7.901 -0.4468  0.9368 -1.4049
  524MOL0     H70688   0.040   8.132   7.969 -2.8877 -0.9082 -0.6371
  524MOL0     H70689   0.010   7.983   7.715  0.1086 -1.6794  2.8316
  524MOL0     H70690  -0.078   8.125   7.782 -0.9090 -2.4760 -0.6606
  524MOL0     H70691   0.128   8.352   7.834 -1.9712  0.5800 -0.8035
  524MOL0     H70692   0.361   8.500   7.709 -0.2428 -2.7353  0.8022
  524MOL0     H70693   0.341   8.505   7.533  2.3883 -0.9139  1.1768
  524MOL0     H70694   0.092   8.578   7.575  2.0499 -0.2554 -3.4225
  524MOL0     H70695   0.152   8.608   7.748 -0.9547 -1.8671 -0.2564
  524MOL0     H70696   0.142   8.787   7.540 -0.5879 -3.3902 -1.3145
  524MOL0     H70697   0.291   8.712   7.509 -2.5415 -1.1146 -1.7480
  524MOL0     H70698   0.341   8.901   7.654  2.4552 -2.5924 -2.0196
  524MOL0     H70699   0.348   8.753   7.762 -2.5518  0.6826  1.4522
  524MOL0     H70700   0.431   9.019   7.843 -0.8399 -0.1086 -0.7362
  524MOL0     H70701   0.473   9.154   8.013  0.1369  0.7266 -6.2433
  524MOL0     H70702   0.377   9.375   8.480  0.6028  2.1292  1.6636
  524MOL0     H70703   0.294   9.520   8.666  0.7323  3.0918 -1.1907
  524MOL0     H70704  -0.086   9.631   8.749  1.0677  2.0359 -0.9235
  524MOL0     H70705   0.020   9.487   8.768  2.2923 -0.1667 -1.2569
  524MOL0     H70706   0.172   9.660   8.909 -0.5814 -0.1459  1.2043
  524MOL0     H70707   0.016   9.757   8.912 -0.9507  0.2708  0.0528
  524MOL0     H70708  -0.047   9.490   8.978 -2.4492  0.8341  3.1877
  524MOL0     H70709   0.082   9.535   9.088 -0.8430 -0.0346  0.1327
  524MOL0     H70710  -0.185   9.662   9.036 -0.8252  1.2070  0.8941
  524MOL0     H70711  -0.063   9.727   9.156 -1.9101  0.1590  1.1948
  524MOL0     H70712  -0.068   9.511   9.275  1.3823  0.3709 -0.6880
  524MOL0     H70713  -0.187   9.440   9.184  1.3241 -0.7161  2.8286
  524MOL0     H70714  -0.206   9.703   9.346  1.4842  0.8104 -1.0399
  524MOL0     H70715  -0.339   9.638   9.232  0.3449 -2.9992 -0.4666
  524MOL0     H70716  -0.407   9.599   9.454  2.1564  1.9343  0.0914
  524MOL0     H70717  -0.258   9.556   9.511 -3.2497 -0.8122  2.9983
  524MOL0     H70718  -0.406   9.393   9.291  2.4156 -0.8009 -2.6071
  524MOL0     H70719  -0.265   9.336   9.391  0.0605 -0.1479 -2.0374
  524MOL0     H70720  -0.082   9.581   8.479 -1.1141 -2.7272 -1.6083
  524MOL0     H70721  -0.031   9.406   8.316 -1.9400  0.9869  1.9505
  524MOL0     H70722   0.067   9.085   8.164  1.3970  0.2621  2.0873
  524MOL0     H70723   0.034   8.931   7.991  1.0354 -2.3644 -1.6061
  524MOL0     H70724   0.580   8.250   7.903  0.2526  1.1994  0.0351
  524MOL0     H70725   0.678   8.470   7.979 -1.5521  0.0930  1.5816
  524MOL0     H70726   0.792   8.777   8.389 -0.5751 -0.8664 -1.3261
  524MOL0     H70727   0.893   8.994   8.401  1.2723 -0.5174  0.8012
  524MOL0     H70728   1.200   9.250   8.261 -2.2428 -0.6816 -0.3432
  524MOL0     H70729   1.229   9.110   8.148  0.4290  0.7973  0.3904
  524MOL0     H70730   1.351   8.981   8.340  0.4215  0.3310 -1.5885
  524MOL0     H70731   1.321   9.112   8.445  1.6732  0.7873  0.2683
  524MOL0     H70732   1.553   9.154   8.364 -0.3031  4.1528 -0.5709
  524MOL0     H70733   1.462   9.246   8.246 -1.5668 -1.6299 -2.3414
  524MOL0     H70734   1.513   8.960   8.194 -3.5633  0.7633  4.8780
  524MOL0     H70735   1.482   9.089   8.078 -0.7894 -1.1097  1.0172
  524MOL0     H70736   1.901   9.135   8.121 -0.1222  0.4514 -0.0754
  524MOL0     H70737   1.214   8.890   8.152 -0.7514  0.4627  0.1227
  524MOL0     H70738   1.144   8.549   8.133  2.1026 -0.0347 -2.3168
  524MOL0     H70739   1.076   8.639   7.994  1.3520 -1.7954 -1.1679
  524MOL0     H70740   1.232   8.689   8.068 -0.9793  2.3642 -0.7228
  525MOL0     O70741   9.370   6.073   2.527  0.1876  0.1301  0.3448
  525MOL0     C70742   9.312   6.174   2.493 -0.5418 -0.0986  0.0954
  525MOL0     O70743   9.373   6.289   2.456  0.0479  0.1595  0.0017
  525MOL0     C70744   9.510   6.283   2.441 -0.0752 -0.7635  0.2442
  525MOL0     C70745   9.594   6.367   2.523  0.3806 -0.0227 -0.3307
  525MOL0     C70746   9.733   6.367   2.523  0.2055 -0.3545 -0.7304
  525MOL0     C70747   9.801   6.303   2.417  0.3164  0.2698  0.9453
  525MOL0     O70748   9.937   6.297   2.401  0.1196 -0.2480 -0.2774
  525MOL0     C70749  10.018   6.342   2.513 -0.3799 -0.4707  0.4594
  525MOL0     C70750  10.036   6.231   2.619  0.2663  0.3318 -0.1549
  525MOL0     C70751  10.102   6.285   2.752 -0.0168  0.1427 -0.6849
  525MOL0     C70752  10.229   6.358   2.756  0.3709 -0.7715  0.6121
  525MOL0     C70753  10.338   6.248   2.753 -0.4665  0.1551  0.8476
  525MOL0     C70754  10.478   6.311   2.708  0.1998 -0.5111 -0.0812
  525MOL0     C70755  10.487   6.345   2.567 -0.2885  0.4653  0.8075
  525MOL0     C70756  10.476   6.494   2.534  0.0883 -1.0644  0.9536
  525MOL0     N70757  10.464   6.524   2.389 -0.4623 -0.0602  0.1580
  525MOL0     C70758  10.350   6.547   2.323 -0.2224 -0.7150 -0.7961
  525MOL0     C70759  10.386   6.535   2.192  1.1675 -0.4168 -0.2557
  525MOL0     C70760  10.285   6.529   2.081 -0.3142  0.3124 -0.7896
  525MOL0     C70761  10.165   6.436   2.109  0.2625  0.0217 -0.2294
  525MOL0     C70762  10.037   6.465   2.029 -0.5959  0.9291  1.2881
  525MOL0     C70763   9.927   6.354   2.028 -0.0840  0.2512  0.7041
  525MOL0     O70764   9.815   6.388   1.946  0.2671 -0.3375 -0.6582
  525MOL0     C70765   9.698   6.310   1.953 -0.0736  0.0324  0.5275
  525MOL0     C70766   9.702   6.170   1.967 -1.0216 -0.3983 -0.2582
  525MOL0     C70767   9.579   6.101   1.971  0.0594  0.4804  0.7329
  525MOL0     C70768   9.458   6.164   1.959  0.6566  0.4433  0.5038
  525MOL0     C70769   9.323   6.086   1.965 -0.5831 -0.9405  0.3443
  525MOL0     O70770   9.212   6.147   1.926 -0.6178 -0.2528  0.5554
  525MOL0     C70771   9.122   6.061   1.881 -0.2860 -0.2229  0.5650
  525MOL0     C70772   8.995   6.057   1.932 -0.7027  0.4436 -0.1550
  525MOL0     C70773   8.903   5.960   1.884  0.3089 -0.1478 -0.6947
  525MOL0     C70774   8.916   5.884   1.767 -0.2872  0.5482  0.8341
  525MOL0     O70775   8.809   5.807   1.709  0.1029 -1.1266  0.5492
  525MOL0     C70776   8.809   5.785   1.570 -0.7971  0.2989  0.3432
  525MOL0     C70777   8.665   5.756   1.522  0.5756  0.0010 -0.2264
  525MOL0     C70778   8.644   5.810   1.379  0.2171 -0.3421 -0.2742
  525MOL0     C70779   8.733   5.761   1.261  0.5413  0.0249 -1.0470
  525MOL0     C70780   8.665   5.795   1.127  0.7661 -0.3808  0.7993
  525MOL0     C70781   8.711   5.697   1.007  0.2613 -0.0747 -0.3946
  525MOL0     C70782   8.630   5.676   0.883 -0.8076  1.5137  0.7977
  525MOL0     C70783   8.688   5.572   0.780 -0.5175  0.8098  0.3178
  525MOL0    Cl70784   8.825   5.642   0.688 -0.0560  0.5078  0.5754
  525MOL0     C70785   9.047   5.895   1.711  0.3713 -0.1065 -0.0955
  525MOL0     C70786   9.143   5.974   1.776 -0.4212  0.2083  0.8762
  525MOL0     O70787   9.340   5.974   2.010  0.7535 -0.2149 -0.3047
  525MOL0     C70788   9.460   6.301   1.927  0.7034  0.0634  0.7816
  525MOL0     C70789   9.577   6.373   1.928 -0.2890  0.4308  0.1701
  525MOL0     N70790  10.517   6.513   2.176  0.0420  0.3146 -0.4933
  525MOL0     N70791  10.566   6.507   2.301  0.2146 -0.1454 -0.0859
  525MOL0     C70792   9.717   6.231   2.328  0.6692  0.0168  0.0380
  525MOL0     C70793   9.578   6.225   2.333  0.5687  0.2577  0.4396
  525MOL0     C70794   9.170   6.158   2.483 -1.2309  0.1584  1.1854
  525MOL0     C70795   9.099   6.252   2.557  1.2828 -0.3788  0.0345
  525MOL0     C70796   8.955   6.240   2.554  0.0117  0.0114  0.0009
  525MOL0     C70797   8.889   6.138   2.479 -0.4761 -0.8523  0.3393
  525MOL0     O70798   8.751   6.126   2.475 -0.4435 -0.6086  0.0068
  525MOL0     C70799   8.679   6.224   2.533 -0.4120  0.3151 -0.1977
  525MOL0     C70800   8.537   6.208   2.496  0.6441 -0.0737  0.2130
  525MOL0     C70801   8.469   6.072   2.525 -0.5876 -0.1957  0.6712
  525MOL0     C70802   8.488   6.024   2.665  0.1071  1.1085  0.5071
  525MOL0     C70803   8.455   6.121   2.773 -0.0821  0.6693  0.0769
  525MOL0     C70804   8.456   6.219   2.850  1.0590  0.4741 -1.5364
  525MOL0     C70805   8.958   6.053   2.404 -0.5204  0.6282 -0.0547
  525MOL0     C70806   9.098   6.056   2.413 -0.3845  0.4140  0.4738
  525MOL0     C70807   9.173   5.949   2.326 -0.3427 -0.2079  0.0118
  525MOL0     H70808   9.533   6.420   2.596 -0.0644 -1.0409  0.0523
  525MOL0     H70809   9.796   6.401   2.605  1.4217 -0.6688 -1.5080
  525MOL0     H70810  10.113   6.369   2.465  0.0910 -0.8315  1.1602
  525MOL0     H70811   9.982   6.435   2.558  0.5809  0.5321 -0.7700
  525MOL0     H70812  10.092   6.153   2.567 -0.3026 -0.5076  0.4801
  525MOL0     H70813   9.936   6.191   2.639 -0.0649  0.7157 -0.9759
  525MOL0     H70814  10.115   6.199   2.818 -2.4968  1.3630  1.5650
  525MOL0     H70815  10.011   6.333   2.790 -2.3121 -3.1600 -1.5710
  525MOL0     H70816  10.239   6.440   2.684  0.3563 -3.4020 -2.6175
  525MOL0     H70817  10.242   6.404   2.855  1.0681 -0.9819  0.6242
  525MOL0     H70818  10.347   6.205   2.853  1.9316  0.3216  0.7603
  525MOL0     H70819  10.306   6.163   2.692 -1.7367  0.8010  0.5889
  525MOL0     H70820  10.502   6.403   2.763  0.5017 -1.4946  1.5291
  525MOL0     H70821  10.560   6.239   2.722  1.9792  1.2348 -1.1277
  525MOL0     H70822  10.401   6.300   2.517  0.1311  0.4621  0.0878
  525MOL0     H70823  10.583   6.317   2.523 -1.6875  0.0845 -2.2560
  525MOL0     H70824  10.378   6.534   2.564 -0.4657  1.1062 -3.0699
  525MOL0     H70825  10.561   6.553   2.572  0.3892 -1.8907  1.5846
  525MOL0     H70826  10.253   6.566   2.367  0.1819 -0.6428  0.0806
  525MOL0     H70827  10.248   6.626   2.049 -0.0539  1.0618  1.0163
  525MOL0     H70828  10.330   6.487   1.991  1.1132  1.9362 -0.8904
  525MOL0     H70829  10.198   6.333   2.091  0.2892  0.1749 -1.0805
  525MOL0     H70830  10.127   6.444   2.211  1.7232  0.2148  0.3219
  525MOL0     H70831  10.071   6.492   1.928 -1.1681  3.0645  1.6012
  525MOL0     H70832   9.987   6.556   2.064 -2.0129 -0.0562  1.9137
  525MOL0     H70833   9.902   6.357   2.135  0.4841  0.0824  0.8442
  525MOL0     H70834   9.968   6.258   1.997  2.0174  1.5339 -0.7117
  525MOL0     H70835   9.801   6.126   1.969 -0.6567  0.4313  0.4546
  525MOL0     H70836   9.581   5.993   1.981  0.4393  0.3320 -0.7452
  525MOL0     H70837   8.964   6.119   2.015 -2.2184 -1.7374  1.0151
  525MOL0     H70838   8.806   5.981   1.927  0.5408  0.7446 -0.5863
  525MOL0     H70839   8.837   5.881   1.526 -2.4650 -0.3211 -2.2928
  525MOL0     H70840   8.873   5.707   1.528 -1.9794 -0.7348  0.4025
  525MOL0     H70841   8.642   5.649   1.526 -2.1077  0.5362  0.3635
  525MOL0     H70842   8.592   5.807   1.584  1.0696 -0.8567  1.1171
  525MOL0     H70843   8.546   5.767   1.355  1.3283 -2.4125 -1.4609
  525MOL0     H70844   8.633   5.919   1.382 -0.6411 -0.3929  4.2451
  525MOL0     H70845   8.741   5.652   1.258 -4.1006 -0.5041 -4.0265
  525MOL0     H70846   8.832   5.806   1.274 -0.0783  1.2630 -0.4726
  525MOL0     H70847   8.681   5.902   1.111  2.2609 -1.0206 -2.8344
  525MOL0     H70848   8.558   5.774   1.133 -0.1187  2.9699 -0.8065
  525MOL0     H70849   8.819   5.710   0.994  0.8941 -2.1810  1.8747
  525MOL0     H70850   8.710   5.597   1.051  1.2695  0.8930  2.0204
  525MOL0     H70851   8.626   5.770   0.828  1.7181  0.9579 -0.4484
  525MOL0     H70852   8.534   5.639   0.922 -1.8054 -1.4373 -3.5970
  525MOL0     H70853   8.714   5.479   0.833 -2.9604 -0.7409 -0.9824
  525MOL0     H70854   8.609   5.539   0.712 -0.2768 -0.7054  0.7158
  525MOL0     H70855   9.072   5.838   1.622 -0.4410  0.1250 -0.4843
  525MOL0     H70856   9.240   5.984   1.728 -0.9023 -4.4599 -1.6551
  525MOL0     H70857   9.366   6.351   1.908  0.2725 -1.5504 -1.9241
  525MOL0     H70858   9.571   6.481   1.911  1.2581  1.2450  3.8581
  525MOL0     H70859   9.766   6.177   2.247 -3.1742 -0.5151 -2.1603
  525MOL0     H70860   9.526   6.162   2.261  1.3871 -1.7776  1.5380
  525MOL0     H70861   9.149   6.314   2.631 -2.1485  1.7416  0.7945
  525MOL0     H70862   8.900   6.305   2.622  1.2906  1.0248  0.0925
  525MOL0     H70863   8.725   6.316   2.497 -0.3950 -1.0217 -4.1879
  525MOL0     H70864   8.683   6.224   2.642 -0.1525 -3.0232 -0.0855
  525MOL0     H70865   8.531   6.229   2.388 -1.6507  0.9000  0.4776
  525MOL0     H70866   8.487   6.291   2.546  1.2333 -0.1553  0.9519
  525MOL0     H70867   8.511   5.994   2.461  2.4323  3.1941 -1.8681
  525MOL0     H70868   8.362   6.078   2.505 -0.3093  0.6947 -0.6259
  525MOL0     H70869   8.416   5.942   2.669  1.1293  0.0893 -0.8683
  525MOL0     H70870   8.585   5.980   2.688  0.0828  1.0109  0.4276
  525MOL0     H70871   8.468   6.300   2.919 -0.0580 -0.4741 -0.1836
  525MOL0     H70872   8.908   5.975   2.348 -2.7610  1.7458  0.3045
  525MOL0     H70873   9.105   5.869   2.297 -1.3040 -0.9372  3.6946
  525MOL0     H70874   9.219   6.001   2.241 -0.2652  1.3399  0.9550
  525MOL0     H70875   9.255   5.895   2.375  1.5190  2.2775 -0.1463
  526MOL0     O70876   1.835   7.554   6.420  0.1375  0.7152  0.3274
  526MOL0     C70877   1.836   7.587   6.542  0.1497  0.4367 -0.2183
  526MOL0     O70878   1.857   7.720   6.585  0.1204 -0.4576 -0.1248
  526MOL0     C70879   1.905   7.799   6.490 -0.0781  0.2869 -0.5393
  526MOL0     C70880   2.047   7.787   6.470  0.5553 -0.4370  0.2970
  526MOL0     C70881   2.108   7.860   6.363 -0.1154 -0.1536 -0.4559
  526MOL0     C70882   2.028   7.946   6.280 -1.0201 -1.3460 -0.5636
  526MOL0     O70883   2.098   8.011   6.178  0.0756 -0.2844  0.1317
  526MOL0     C70884   2.027   8.125   6.118  0.0106  0.4246  0.6633
  526MOL0     C70885   2.132   8.231   6.068  0.5442  0.6365  0.0821
  526MOL0     C70886   2.075   8.356   6.005 -0.2878 -0.1032  0.1734
  526MOL0     C70887   2.162   8.491   6.038 -0.1159  0.1402 -0.5686
  526MOL0     C70888   2.104   8.610   5.961 -0.0690  0.2294 -0.1033
  526MOL0     C70889   2.107   8.591   5.809  0.4844  0.0322 -0.0446
  526MOL0     C70890   2.052   8.717   5.733 -0.3214  0.7249 -1.0970
  526MOL0     C70891   2.027   8.683   5.588  0.0737 -0.4470  0.4339
  526MOL0     N70892   1.906   8.604   5.560  0.1601  0.0003 -0.0594
  526MOL0     C70893   1.773   8.645   5.560 -0.1488  0.0353 -0.4244
  526MOL0     C70894   1.693   8.545   5.515 -0.3470 -0.8749  0.1323
  526MOL0     C70895   1.544   8.550   5.486  0.2963 -0.5676 -0.2294
  526MOL0     C70896   1.453   8.492   5.600 -0.0975  0.1159  0.2307
  526MOL0     C70897   1.466   8.564   5.738  0.6159 -0.1027  0.9558
  526MOL0     C70898   1.344   8.534   5.834  0.3476  0.1390 -0.3369
  526MOL0     O70899   1.360   8.603   5.962 -0.7707 -0.0940  0.7528
  526MOL0     C70900   1.319   8.545   6.076 -0.7905 -0.6602 -0.6458
  526MOL0     C70901   1.294   8.633   6.189  0.2763 -0.1190 -0.4186
  526MOL0     C70902   1.243   8.594   6.316 -0.1082 -0.4668  0.1211
  526MOL0     C70903   1.196   8.456   6.325 -0.3469  0.4265  0.0037
  526MOL0     C70904   1.150   8.405   6.452  0.0711  1.1345 -0.4576
  526MOL0     O70905   1.161   8.487   6.562  0.1276 -0.2594 -0.4534
  526MOL0     C70906   1.093   8.464   6.680  1.4728  0.8385 -0.5948
  526MOL0     C70907   1.147   8.484   6.803  0.3712 -0.6008  0.3517
  526MOL0     C70908   1.088   8.451   6.926  0.4070  0.8623  0.1082
  526MOL0     C70909   0.961   8.389   6.929 -1.0947 -0.2046 -0.2889
  526MOL0     O70910   0.884   8.374   7.039  0.2556 -0.4158  0.3990
  526MOL0     C70911   0.926   8.436   7.161  0.8936  0.4006  0.2160
  526MOL0     C70912   0.814   8.410   7.268 -0.0688  0.0746 -0.3420
  526MOL0     C70913   0.814   8.261   7.312 -0.0705  0.2171 -0.1326
  526MOL0     C70914   0.687   8.234   7.399  0.3379  0.0354 -0.2071
  526MOL0     C70915   0.676   8.090   7.413  0.3884 -0.4663 -1.0930
  526MOL0     C70916   0.555   8.063   7.516 -0.0554  0.8257  0.6220
  526MOL0     C70917   0.601   8.019   7.655  0.4063 -0.3820  0.2717
  526MOL0     C70918   0.659   7.879   7.662  0.2587  0.3508 -0.6950
  526MOL0    Cl70919   0.528   7.761   7.600  0.1323 -0.5234 -0.1410
  526MOL0     C70920   0.905   8.375   6.809  0.3826 -0.6137  1.1337
  526MOL0     C70921   0.967   8.399   6.683  0.5891 -0.5266  0.1917
  526MOL0     O70922   1.099   8.291   6.460 -0.2488 -0.2668 -0.2889
  526MOL0     C70923   1.224   8.368   6.212 -0.4750 -0.2828 -0.1109
  526MOL0     C70924   1.286   8.409   6.099 -0.3708 -0.4919  0.4790
  526MOL0     N70925   1.785   8.446   5.473 -0.2355  0.6095 -0.9141
  526MOL0     N70926   1.907   8.479   5.509 -0.0977  0.2480 -0.7432
  526MOL0     C70927   1.891   7.951   6.304  0.4229 -0.2784 -0.9293
  526MOL0     C70928   1.831   7.879   6.406 -1.1479 -0.0629 -0.4269
  526MOL0     C70929   1.830   7.478   6.652 -0.3214 -0.3366 -0.5634
  526MOL0     C70930   1.799   7.520   6.787  0.5513 -0.5005  0.0892
  526MOL0     C70931   1.792   7.434   6.893  0.2557 -0.6618 -0.6305
  526MOL0     C70932   1.809   7.299   6.869  0.3736 -0.1163  0.1132
  526MOL0     O70933   1.790   7.222   6.985  0.0138  0.3443  0.1461
  526MOL0     C70934   1.754   7.086   6.963 -0.0375  0.6847 -0.4628
  526MOL0     C70935   1.863   6.990   7.000  0.3338  0.1017 -0.4187
  526MOL0     C70936   1.799   6.850   7.007  0.2454  0.2327  0.2502
  526MOL0     C70937   1.708   6.817   6.881 -0.1976  0.3600 -0.9481
  526MOL0     C70938   1.701   6.669   6.889 -0.6625 -0.4891  0.6996
  526MOL0     C70939   1.686   6.551   6.895  0.3578  0.0982 -0.6528
  526MOL0     C70940   1.840   7.251   6.741 -0.1207  0.3719  0.8900
  526MOL0     C70941   1.847   7.338   6.632 -0.5419  0.5192 -0.4507
  526MOL0     C70942   1.864   7.286   6.490 -0.1338  0.2442 -0.2334
  526MOL0     H70943   2.109   7.721   6.529  0.6813 -0.5628  0.0298
  526MOL0     H70944   2.214   7.851   6.340 -0.0484  1.5629 -0.9591
  526MOL0     H70945   1.961   8.089   6.039  0.5444  2.3172 -0.7205
  526MOL0     H70946   1.954   8.169   6.186 -2.7431 -0.7693 -1.3533
  526MOL0     H70947   2.203   8.178   6.004 -0.2702 -1.4001  0.7925
  526MOL0     H70948   2.197   8.271   6.147  0.5728  4.1345 -1.5332
  526MOL0     H70949   1.970   8.364   6.037 -1.5428  2.9298 -3.7372
  526MOL0     H70950   2.063   8.331   5.899  1.5137  1.3760 -0.4226
  526MOL0     H70951   2.163   8.512   6.145  0.4823  2.6650 -1.0117
  526MOL0     H70952   2.264   8.483   6.000  1.3990  2.7754  2.4904
  526MOL0     H70953   2.000   8.630   5.990 -0.9556 -1.2583 -1.9986
  526MOL0     H70954   2.168   8.694   5.988 -1.7823  1.8485 -0.8283
  526MOL0     H70955   2.213   8.576   5.783  1.1142 -0.8161  2.6420
  526MOL0     H70956   2.051   8.502   5.777 -1.2500  0.5290  1.4457
  526MOL0     H70957   2.130   8.794   5.738  1.0423 -0.6903  0.4801
  526MOL0     H70958   1.962   8.753   5.783  0.7497 -0.2465  1.6850
  526MOL0     H70959   2.011   8.778   5.535 -0.3269 -1.2953 -1.0269
  526MOL0     H70960   2.117   8.633   5.552  1.7422 -0.5647  4.3668
  526MOL0     H70961   1.742   8.747   5.581 -3.4654 -0.7507 -0.9534
  526MOL0     H70962   1.520   8.653   5.458 -1.5801 -1.6413 -3.0121
  526MOL0     H70963   1.517   8.492   5.397  0.4995  0.8405 -1.2394
  526MOL0     H70964   1.348   8.500   5.569 -0.9554 -0.8433  2.6125
  526MOL0     H70965   1.469   8.385   5.611  1.7952  0.4246  0.8494
  526MOL0     H70966   1.490   8.670   5.722  2.1549 -0.7207 -1.3288
  526MOL0     H70967   1.553   8.519   5.786  0.9164  1.2630  1.7253
  526MOL0     H70968   1.333   8.425   5.831 -1.1881  0.2895 -1.8538
  526MOL0     H70969   1.253   8.574   5.788  0.4590  1.3009  0.4177
  526MOL0     H70970   1.306   8.739   6.168  2.7734 -0.3022 -0.1525
  526MOL0     H70971   1.227   8.672   6.390  0.9822 -2.3040  2.4402
  526MOL0     H70972   1.243   8.533   6.811  0.1440  0.5737 -2.8059
  526MOL0     H70973   1.135   8.481   7.019  1.2140  0.5864 -0.2008
  526MOL0     H70974   1.016   8.394   7.206 -1.9870 -3.0216  3.5577
  526MOL0     H70975   0.925   8.545   7.148 -2.6825  0.3506 -0.9916
  526MOL0     H70976   0.832   8.482   7.348 -0.6311 -1.1429  0.9178
  526MOL0     H70977   0.726   8.452   7.218 -0.6133 -2.2829 -1.4989
  526MOL0     H70978   0.820   8.201   7.220  0.8227  1.7056 -1.0873
  526MOL0     H70979   0.907   8.237   7.364  0.8063  1.1660 -1.1917
  526MOL0     H70980   0.593   8.269   7.355 -0.5541 -1.5637  0.3271
  526MOL0     H70981   0.712   8.269   7.499  3.3079  0.1588 -0.9211
  526MOL0     H70982   0.767   8.037   7.442 -0.0780  0.1846  1.9240
  526MOL0     H70983   0.644   8.046   7.318  2.6915  0.5128 -2.3968
  526MOL0     H70984   0.489   8.149   7.520  0.4914  1.3214 -0.4857
  526MOL0     H70985   0.501   7.984   7.463  0.7328 -0.1483  1.2314
  526MOL0     H70986   0.528   8.016   7.737 -0.7064 -1.1130 -0.7055
  526MOL0     H70987   0.673   8.097   7.680 -0.3811  0.5335 -0.2189
  526MOL0     H70988   0.746   7.875   7.595  1.1679 -0.0352  0.4739
  526MOL0     H70989   0.684   7.858   7.766  0.1853  0.7844 -0.5892
  526MOL0     H70990   0.798   8.356   6.816  0.5184 -1.1687  1.8738
  526MOL0     H70991   0.906   8.365   6.600  0.9045 -1.2844  0.2663
  526MOL0     H70992   1.199   8.263   6.202  0.1124 -0.4723  0.3293
  526MOL0     H70993   1.274   8.340   6.015 -1.5014  0.8844 -0.5454
  526MOL0     H70994   1.835   8.008   6.230  2.0548  0.6323 -1.5179
  526MOL0     H70995   1.723   7.881   6.412 -1.2845 -3.2089 -0.4356
  526MOL0     H70996   1.775   7.618   6.826 -1.1839 -1.0340  0.4519
  526MOL0     H70997   1.792   7.486   6.988  2.1339  0.1340 -1.0359
  526MOL0     H70998   1.726   7.070   6.859  1.7724 -0.5408 -0.7923
  526MOL0     H70999   1.666   7.071   7.027 -0.2374  1.0038 -0.6582
  526MOL0     H71000   1.909   7.015   7.096 -0.6228  0.3642 -0.0237
  526MOL0     H71001   1.945   6.989   6.927  2.2554 -2.6869  1.5558
  526MOL0     H71002   1.733   6.831   7.092  3.4453 -1.5160  2.5966
  526MOL0     H71003   1.881   6.779   7.020 -0.5993 -1.6340 -3.4038
  526MOL0     H71004   1.613   6.868   6.899  0.3971  0.3011  3.4186
  526MOL0     H71005   1.738   6.857   6.783 -2.0716  2.4013 -0.7805
  526MOL0     H71006   1.677   6.444   6.902 -5.8071  0.3414  2.6869
  526MOL0     H71007   1.889   7.156   6.726  2.0979  1.2250  2.1923
  526MOL0     H71008   1.772   7.286   6.430 -0.9039  0.8718  0.9080
  526MOL0     H71009   1.945   7.325   6.427  2.1360 -2.6435  0.6513
  526MOL0     H71010   1.897   7.182   6.497  3.1766  1.2357  0.9946
  527MOL0     O71011   7.249   6.616   2.678  0.1522  0.2398 -0.1316
  527MOL0     C71012   7.374   6.629   2.679 -0.4865  0.6913 -0.3704
  527MOL0     O71013   7.452   6.692   2.585 -0.6382  0.1968  0.7890
  527MOL0     C71014   7.405   6.717   2.456  0.1272  0.0067  0.6056
  527MOL0     C71015   7.509   6.727   2.366  0.0334 -0.4788  0.8629
  527MOL0     C71016   7.478   6.718   2.229 -0.6073  0.5958  1.0686
  527MOL0     C71017   7.344   6.709   2.183 -0.0132 -0.3754  0.3859
  527MOL0     O71018   7.306   6.705   2.051  0.4012 -0.3074  0.1868
  527MOL0     C71019   7.407   6.699   1.955  0.3162  0.5912 -0.2286
  527MOL0     C71020   7.353   6.712   1.810 -0.2068  0.0438 -0.8446
  527MOL0     C71021   7.419   6.616   1.705  0.2291  1.0567 -0.6384
  527MOL0     C71022   7.574   6.620   1.705  0.3199  0.8539  0.6834
  527MOL0     C71023   7.635   6.535   1.598  0.4392 -0.1820  1.7187
  527MOL0     C71024   7.628   6.383   1.608 -0.0338 -0.2650 -0.4745
  527MOL0     C71025   7.766   6.325   1.582  0.1632  0.6656 -0.1554
  527MOL0     C71026   7.773   6.174   1.572  0.9739  0.9368  0.9696
  527MOL0     N71027   7.743   6.108   1.711 -0.5816  0.1544 -0.1412
  527MOL0     C71028   7.629   6.029   1.732 -0.2635  0.9270  0.8914
  527MOL0     C71029   7.639   5.980   1.856  0.5756  0.5194  0.5255
  527MOL0     C71030   7.546   5.874   1.907  0.4294  0.0384  0.5817
  527MOL0     C71031   7.576   5.746   1.841  0.2561  0.0688 -0.5029
  527MOL0     C71032   7.564   5.628   1.933  0.2753 -0.9446 -0.6018
  527MOL0     C71033   7.644   5.505   1.875  0.2584  1.0791  0.0417
  527MOL0     O71034   7.614   5.508   1.739  0.7862  0.5053 -0.0511
  527MOL0     C71035   7.688   5.430   1.649 -0.2855  0.2091  0.9976
  527MOL0     C71036   7.806   5.366   1.687  0.2218 -1.0340  0.3137
  527MOL0     C71037   7.888   5.296   1.604 -0.2076  0.8436  0.3458
  527MOL0     C71038   7.858   5.293   1.463  0.2933  0.2854 -0.0656
  527MOL0     C71039   7.939   5.222   1.368  0.2481 -1.0004 -0.0739
  527MOL0     O71040   7.904   5.226   1.234  0.0738 -0.5337 -0.1094
  527MOL0     C71041   7.928   5.121   1.150 -0.0892 -0.0773 -0.3678
  527MOL0     C71042   7.812   5.069   1.085 -0.1307  0.0335 -0.2288
  527MOL0     C71043   7.819   4.956   1.010  1.3757  0.7566  0.2355
  527MOL0     C71044   7.935   4.882   0.999 -1.0066 -0.6354 -0.6538
  527MOL0     O71045   7.929   4.770   0.921  0.4707  0.5164 -0.3731
  527MOL0     C71046   8.040   4.682   0.911  0.4667  0.3342 -0.0322
  527MOL0     C71047   8.038   4.587   1.030  0.4787 -0.3063  0.0289
  527MOL0     C71048   8.161   4.504   1.034  0.0715  1.2630 -0.8230
  527MOL0     C71049   8.129   4.366   0.970  0.6468 -0.3882 -0.3789
  527MOL0     C71050   8.260   4.300   0.953 -0.2933  1.1418 -0.9596
  527MOL0     C71051   8.240   4.150   0.966 -0.7527 -0.0461 -0.1090
  527MOL0     C71052   8.384   4.085   0.969 -0.2384  0.4098  0.5514
  527MOL0     C71053   8.384   3.935   1.000 -0.7754  0.5141 -0.5850
  527MOL0    Cl71054   8.558   3.883   0.989  0.2948 -0.3288 -0.1113
  527MOL0     C71055   8.051   4.926   1.073 -0.0043  0.3012  0.4540
  527MOL0     C71056   8.049   5.049   1.139 -0.1861  0.0734 -0.3368
  527MOL0     O71057   8.027   5.152   1.419 -0.0282  0.0546  1.3156
  527MOL0     C71058   7.738   5.357   1.421 -0.2961  0.4335 -0.2245
  527MOL0     C71059   7.662   5.427   1.512  0.8276 -0.5530 -0.0103
  527MOL0     N71060   7.762   6.030   1.909  0.4768  0.2861  0.2827
  527MOL0     N71061   7.818   6.106   1.824  0.1925 -0.0308  0.3924
  527MOL0     C71062   7.240   6.711   2.275 -0.0859  0.2385 -0.0119
  527MOL0     C71063   7.271   6.717   2.413  0.1340 -0.7976 -0.8593
  527MOL0     C71064   7.452   6.588   2.801 -0.7873  0.1605  0.2110
  527MOL0     C71065   7.576   6.644   2.827  0.3987  0.3948 -0.3947
  527MOL0     C71066   7.655   6.599   2.935  0.7984  0.2969 -0.2866
  527MOL0     C71067   7.612   6.494   3.018  0.4499 -0.4269 -0.4615
  527MOL0     O71068   7.687   6.430   3.115 -0.5412  0.3778  0.2672
  527MOL0     C71069   7.825   6.480   3.138 -0.7556 -0.6447  1.1034
  527MOL0     C71070   7.845   6.604   3.221  0.2747 -0.2670 -0.7230
  527MOL0     C71071   7.991   6.653   3.238  0.3044 -0.4818 -0.1645
  527MOL0     C71072   8.011   6.785   3.314 -0.5339  0.1396 -0.0237
  527MOL0     C71073   7.947   6.771   3.447  0.2122  0.8123  0.2885
  527MOL0     C71074   7.871   6.767   3.545  0.5247  0.5518  0.2103
  527MOL0     C71075   7.493   6.441   3.002  0.4230 -0.0457  0.1148
  527MOL0     C71076   7.408   6.490   2.902 -0.2483  0.1489  0.1265
  527MOL0     C71077   7.278   6.409   2.899  0.1965  0.5613 -0.1043
  527MOL0     H71078   7.609   6.721   2.410  0.5789  0.1987 -0.2497
  527MOL0     H71079   7.562   6.718   2.160 -2.8422 -0.3559 -1.8532
  527MOL0     H71080   7.491   6.766   1.973 -0.4240  1.7390 -0.9185
  527MOL0     H71081   7.456   6.603   1.972  0.9058  0.4413 -2.4786
  527MOL0     H71082   7.394   6.810   1.783  0.7651 -0.6881 -2.1176
  527MOL0     H71083   7.245   6.722   1.811 -0.0884  1.4753 -0.1810
  527MOL0     H71084   7.389   6.655   1.608  1.3869 -1.8050 -2.2863
  527MOL0     H71085   7.382   6.514   1.723 -1.4224  1.5221 -1.2503
  527MOL0     H71086   7.600   6.725   1.695 -1.1411  1.0819 -1.1317
  527MOL0     H71087   7.620   6.588   1.799  3.7465 -3.2289 -1.9964
  527MOL0     H71088   7.600   6.561   1.498  0.6142 -3.9959  0.4970
  527MOL0     H71089   7.740   6.568   1.601  1.5275 -3.3239  1.9125
  527MOL0     H71090   7.613   6.355   1.713 -1.5327  0.8107 -0.3745
  527MOL0     H71091   7.551   6.334   1.548 -0.7957 -0.2594  0.4735
  527MOL0     H71092   7.836   6.353   1.661 -1.4195 -1.6124  2.1852
  527MOL0     H71093   7.802   6.366   1.487  1.6727  0.1933  0.1809
  527MOL0     H71094   7.689   6.155   1.504  1.3945  1.6464  0.2315
  527MOL0     H71095   7.865   6.136   1.528 -1.0530 -0.8044 -2.1862
  527MOL0     H71096   7.552   6.021   1.656  0.1656 -0.1949  0.5564
  527MOL0     H71097   7.567   5.874   2.014  0.8751  0.8726  0.5045
  527MOL0     H71098   7.443   5.909   1.892  0.9918  2.4118  1.7778
  527MOL0     H71099   7.506   5.726   1.760  1.3292 -0.8364 -1.2298
  527MOL0     H71100   7.666   5.741   1.780 -1.4830 -2.6464 -3.0878
  527MOL0     H71101   7.461   5.593   1.946 -0.2182  0.3602 -0.8269
  527MOL0     H71102   7.612   5.660   2.026  3.2789 -0.3240 -2.2390
  527MOL0     H71103   7.622   5.406   1.916  1.9840  0.0597 -1.3598
  527MOL0     H71104   7.753   5.515   1.889  0.3502 -2.4411  3.8147
  527MOL0     H71105   7.847   5.368   1.788 -1.4660 -2.9466  1.0993
  527MOL0     H71106   7.978   5.256   1.649  0.0401 -0.9251 -1.5624
  527MOL0     H71107   7.719   5.123   1.094 -0.4261 -0.2589 -1.3057
  527MOL0     H71108   7.729   4.927   0.956 -0.0997  2.8862  1.3843
  527MOL0     H71109   8.045   4.630   0.815 -0.7692  0.4644 -0.1762
  527MOL0     H71110   8.130   4.745   0.908  0.4892  0.2747 -1.6783
  527MOL0     H71111   8.046   4.660   1.110  1.8122  0.5235 -0.8232
  527MOL0     H71112   7.942   4.533   1.027  0.3086 -0.1012  1.3845
  527MOL0     H71113   8.245   4.558   0.990 -1.0267  5.3101  1.4872
  527MOL0     H71114   8.192   4.498   1.139 -3.0443  4.1513  0.4374
  527MOL0     H71115   8.079   4.376   0.873  0.4587 -0.3739 -0.2801
  527MOL0     H71116   8.067   4.307   1.037  1.4230  1.1308  1.7897
  527MOL0     H71117   8.347   4.323   1.017 -1.7947 -0.7259  1.9672
  527MOL0     H71118   8.290   4.325   0.851 -2.5381  0.0039 -1.9632
  527MOL0     H71119   8.181   4.126   1.055 -2.4415  1.5037 -0.7526
  527MOL0     H71120   8.176   4.116   0.884 -2.4807 -2.5196  2.0884
  527MOL0     H71121   8.437   4.131   1.053  2.5344  2.0691 -1.9189
  527MOL0     H71122   8.443   4.105   0.879  0.1545  2.3871  1.1936
  527MOL0     H71123   8.351   3.922   1.104  3.9043  0.0681  1.0790
  527MOL0     H71124   8.336   3.860   0.937 -0.3223 -0.5131  0.2577
  527MOL0     H71125   8.145   4.875   1.058  0.7674  0.8865  2.8683
  527MOL0     H71126   8.136   5.095   1.184 -0.2086 -1.4140  1.3456
  527MOL0     H71127   7.711   5.353   1.317 -2.5432  2.0380  0.2366
  527MOL0     H71128   7.579   5.485   1.473 -0.3730 -2.4774 -0.4917
  527MOL0     H71129   7.143   6.697   2.229  0.9025 -1.8091 -1.7060
  527MOL0     H71130   7.191   6.708   2.485  0.9982  0.7295  0.3609
  527MOL0     H71131   7.613   6.723   2.762  2.6709 -2.6173 -3.1152
  527MOL0     H71132   7.745   6.653   2.962  0.4490  0.3973  0.7411
  527MOL0     H71133   7.876   6.482   3.041  0.2215 -2.6481  1.5312
  527MOL0     H71134   7.872   6.398   3.193 -1.2440 -1.4224  0.3961
  527MOL0     H71135   7.803   6.569   3.316  3.5736 -2.5377  0.0843
  527MOL0     H71136   7.791   6.686   3.172 -2.5673 -1.7580 -0.2405
  527MOL0     H71137   8.038   6.650   3.140  2.2077  0.4571  0.6592
  527MOL0     H71138   8.058   6.582   3.287 -0.3864 -1.6220 -0.8324
  527MOL0     H71139   8.118   6.803   3.333 -0.5234 -0.1369  0.1844
  527MOL0     H71140   7.961   6.871   3.268  2.0535  1.1976 -1.0775
  527MOL0     H71141   7.799   6.763   3.624  1.0728  0.0216  0.6918
  527MOL0     H71142   7.463   6.360   3.068  1.2023 -0.3603  0.0911
  527MOL0     H71143   7.261   6.381   2.794 -1.3128  0.4475  0.1530
  527MOL0     H71144   7.278   6.322   2.964 -0.9819  1.2059  0.7847
  527MOL0     H71145   7.198   6.477   2.928  1.2083  1.9362 -0.4321
  528MOL0     O71146  11.027   7.838   3.663  1.3196  0.0597  0.8094
  528MOL0     C71147  10.930   7.821   3.585  0.2758  0.4058  0.5089
  528MOL0     O71148  10.889   7.907   3.479 -0.6849 -0.9934 -0.2123
  528MOL0     C71149  10.956   8.023   3.478 -0.4792 -0.5886 -0.0951
  528MOL0     C71150  10.889   8.136   3.522  0.3914  0.3020 -0.6458
  528MOL0     C71151  10.957   8.261   3.504  0.7387  0.1419  0.1379
  528MOL0     C71152  11.073   8.270   3.424  0.4563  0.2384  0.4388
  528MOL0     O71153  11.128   8.398   3.423  0.0255  0.0774 -0.3526
  528MOL0     C71154  11.272   8.409   3.418  0.5118  0.2968  0.1109
  528MOL0     C71155  11.308   8.558   3.448  1.0105  0.3681 -0.1360
  528MOL0     C71156  11.256   8.616   3.576 -1.0948  1.0788 -0.4556
  528MOL0     C71157  11.387   8.648   3.663 -1.2978 -0.2802  0.0565
  528MOL0     C71158  11.358   8.711   3.804  0.0149 -0.8473  0.1079
  528MOL0     C71159  11.282   8.843   3.788  0.5057  0.5787 -0.5203
  528MOL0     C71160  11.224   8.872   3.928 -0.2433 -0.2129 -0.2061
  528MOL0     C71161  11.128   8.991   3.936 -0.1822  0.2243 -1.2490
  528MOL0     N71162  11.180   9.120   3.879  0.2192  0.4765  0.4278
  528MOL0     C71163  11.178   9.148   3.747  0.1331  0.2525  0.2375
  528MOL0     C71164  11.202   9.286   3.738 -0.1590  0.3071 -0.0379
  528MOL0     C71165  11.198   9.365   3.612 -1.0199  0.5004  0.1958
  528MOL0     C71166  11.069   9.345   3.542 -0.7805  0.1401  0.3616
  528MOL0     C71167  10.934   9.390   3.601 -0.3322  0.1838  0.1459
  528MOL0     C71168  10.930   9.534   3.659 -0.0371  0.0536 -0.0502
  528MOL0     O71169  10.799   9.560   3.708  0.2120 -0.1438 -0.2648
  528MOL0     C71170  10.757   9.495   3.824  0.4996  1.2290 -0.5341
  528MOL0     C71171  10.833   9.403   3.899 -0.7331  1.0393 -0.5962
  528MOL0     C71172  10.771   9.330   4.007 -0.7795 -0.7515  0.0714
  528MOL0     C71173  10.640   9.354   4.046  0.4038  0.7162  0.5138
  528MOL0     C71174  10.586   9.278   4.157 -0.9196 -0.7963  0.6554
  528MOL0     O71175  10.453   9.281   4.160  0.0827  0.3231  0.1553
  528MOL0     C71176  10.376   9.210   4.253  0.0855 -0.1395 -0.2484
  528MOL0     C71177  10.243   9.162   4.207 -0.3847  0.2262  0.2784
  528MOL0     C71178  10.155   9.108   4.300 -0.6822 -0.0074  0.3566
  528MOL0     C71179  10.187   9.105   4.435 -0.3141  0.0388  0.0176
  528MOL0     O71180  10.086   9.065   4.516 -0.2107  1.0964 -1.2807
  528MOL0     C71181  10.103   8.963   4.620 -0.2540 -0.6410  0.1164
  528MOL0     C71182  10.100   8.816   4.561 -0.3750 -0.2161 -0.1069
  528MOL0     C71183   9.952   8.772   4.538  0.5730 -0.1358  0.1768
  528MOL0     C71184   9.891   8.728   4.673 -0.6863  0.2486  0.6558
  528MOL0     C71185   9.735   8.721   4.689  0.0149  0.6222  1.0064
  528MOL0     C71186   9.690   8.580   4.711  0.3831  0.0094 -0.5430
  528MOL0     C71187   9.540   8.551   4.694  0.0178 -0.1521 -0.0486
  528MOL0     C71188   9.483   8.433   4.772 -0.8100  0.2114 -0.8783
  528MOL0    Cl71189   9.313   8.399   4.714 -0.3017 -0.4143  0.2677
  528MOL0     C71190  10.316   9.136   4.484 -0.2421 -0.5593  0.2228
  528MOL0     C71191  10.403   9.200   4.390 -0.1951  0.6830  0.3073
  528MOL0     O71192  10.658   9.214   4.233 -0.5289 -0.2503  0.9742
  528MOL0     C71193  10.574   9.452   3.977  1.1481 -0.4352  0.2758
  528MOL0     C71194  10.628   9.523   3.870  0.1286 -0.2886  0.3058
  528MOL0     N71195  11.209   9.332   3.865 -1.2448 -0.2014  0.0295
  528MOL0     N71196  11.183   9.238   3.949  0.0001  1.1328 -0.3495
  528MOL0     C71197  11.130   8.153   3.380 -0.1471 -0.1465 -0.0302
  528MOL0     C71198  11.068   8.026   3.398  0.0167  0.5923 -0.2015
  528MOL0     C71199  10.847   7.704   3.617  1.0800  0.9787  0.7444
  528MOL0     C71200  10.908   7.579   3.654  0.6355  0.2819  0.3629
  528MOL0     C71201  10.843   7.459   3.697 -1.0668  0.8983  0.1341
  528MOL0     C71202  10.700   7.456   3.686 -0.4651 -0.7005 -0.3507
  528MOL0     O71203  10.632   7.342   3.728  0.3860  0.1824  0.6130
  528MOL0     C71204  10.627   7.229   3.638 -0.5649 -0.3781 -0.0726
  528MOL0     C71205  10.565   7.111   3.717 -0.8564 -0.4028  0.7718
  528MOL0     C71206  10.641   7.080   3.837  0.1891 -0.7603  0.0554
  528MOL0     C71207  10.626   6.937   3.885 -0.8333 -0.0298  0.9901
  528MOL0     C71208  10.702   6.910   4.008 -0.4486  0.6235  0.0221
  528MOL0     C71209  10.756   6.878   4.116  0.8379  0.2448 -0.6102
  528MOL0     C71210  10.643   7.584   3.659 -0.3630  0.0119  0.2463
  528MOL0     C71211  10.704   7.703   3.623 -0.4848 -0.2725  0.3595
  528MOL0     C71212  10.631   7.830   3.593 -0.8206 -0.5414 -0.0496
  528MOL0     H71213  10.803   8.119   3.585  1.4090 -3.6039 -0.0521
  528MOL0     H71214  10.915   8.345   3.559  1.7826  1.2311 -0.6823
  528MOL0     H71215  11.322   8.345   3.491 -0.0530 -2.0271 -1.4108
  528MOL0     H71216  11.305   8.382   3.317 -2.8075 -0.4796 -0.8830
  528MOL0     H71217  11.272   8.611   3.359  1.6739  1.0898  0.0097
  528MOL0     H71218  11.417   8.566   3.443  1.0455 -0.9028 -2.7725
  528MOL0     H71219  11.191   8.543   3.625  1.4067  0.1728  1.6852
  528MOL0     H71220  11.205   8.711   3.556 -1.0465  0.8526 -1.7311
  528MOL0     H71221  11.445   8.557   3.679  0.0664  0.5836  0.1296
  528MOL0     H71222  11.453   8.714   3.606 -0.8518 -0.9001 -0.1521
  528MOL0     H71223  11.310   8.646   3.877  4.5593 -2.0283  2.4560
  528MOL0     H71224  11.456   8.720   3.852 -0.5275 -2.8650  1.7563
  528MOL0     H71225  11.346   8.921   3.746 -1.2909  1.9615 -0.8356
  528MOL0     H71226  11.197   8.815   3.725  2.1581 -2.4788 -1.6005
  528MOL0     H71227  11.310   8.889   3.995 -0.7364 -1.3119  0.7358
  528MOL0     H71228  11.159   8.789   3.955  0.3011 -0.7289 -0.4732
  528MOL0     H71229  11.033   8.970   3.888 -0.0047  1.1651 -2.0547
  528MOL0     H71230  11.099   9.012   4.040  2.0321  0.0063 -0.5163
  528MOL0     H71231  11.151   9.088   3.660  1.5919  0.6966 -0.5655
  528MOL0     H71232  11.203   9.472   3.636  2.0941  0.2206  1.2567
  528MOL0     H71233  11.287   9.331   3.558 -0.9164  2.1392 -0.7407
  528MOL0     H71234  11.079   9.398   3.447  4.5460  3.4700  2.3393
  528MOL0     H71235  11.073   9.236   3.528  1.8499  0.2069  0.1650
  528MOL0     H71236  10.919   9.319   3.683  0.9421  0.0268  0.2611
  528MOL0     H71237  10.850   9.379   3.532 -1.4420  1.2212  1.2620
  528MOL0     H71238  10.964   9.606   3.584  4.2282 -0.8354  0.7691
  528MOL0     H71239  10.998   9.539   3.744 -1.0931  0.3154  0.7969
  528MOL0     H71240  10.937   9.379   3.882  0.2788  4.5404 -0.1579
  528MOL0     H71241  10.833   9.266   4.070 -0.0733 -0.6260 -0.4853
  528MOL0     H71242  10.220   9.178   4.102  2.0688 -1.1782 -0.5570
  528MOL0     H71243  10.054   9.082   4.269 -0.2493 -1.7494  0.2821
  528MOL0     H71244  10.195   8.975   4.678  0.0982 -4.9014  0.7457
  528MOL0     H71245  10.028   8.974   4.698 -2.0024 -2.9037 -1.1022
  528MOL0     H71246  10.149   8.825   4.464  0.8292 -2.1166  0.2633
  528MOL0     H71247  10.154   8.744   4.624  1.6261  0.1152 -1.3582
  528MOL0     H71248   9.888   8.849   4.494 -4.6943 -4.1553 -0.0353
  528MOL0     H71249   9.952   8.680   4.480  2.0379 -1.1175  1.6320
  528MOL0     H71250   9.921   8.779   4.765 -1.8656  0.0809  1.1485
  528MOL0     H71251   9.935   8.628   4.679  0.9385  0.8814 -0.0851
  528MOL0     H71252   9.684   8.757   4.599 -0.9732 -2.4821  0.1816
  528MOL0     H71253   9.693   8.793   4.759  0.5794  2.2989 -0.3100
  528MOL0     H71254   9.746   8.519   4.640  1.8623 -1.2511  1.5604
  528MOL0     H71255   9.731   8.555   4.810 -2.2703 -1.0956  0.3806
  528MOL0     H71256   9.524   8.539   4.586 -1.0533  4.0727 -0.5255
  528MOL0     H71257   9.487   8.640   4.728 -0.1783 -0.0608 -0.5805
  528MOL0     H71258   9.540   8.342   4.747  0.7255  0.5449  1.1607
  528MOL0     H71259   9.500   8.443   4.879 -1.6558 -2.9579 -0.3328
  528MOL0     H71260  10.329   9.130   4.591 -3.5157 -0.5067  0.7118
  528MOL0     H71261  10.494   9.229   4.441 -1.2639  0.9041  2.2200
  528MOL0     H71262  10.477   9.477   4.020  1.4677 -2.2569  2.2030
  528MOL0     H71263  10.569   9.590   3.808 -0.8699 -1.2513  0.1900
  528MOL0     H71264  11.222   8.158   3.323  0.1954 -1.1789  0.4089
  528MOL0     H71265  11.118   7.933   3.371  0.5920  0.7430  0.3249
  528MOL0     H71266  11.015   7.560   3.650  1.1024  2.6249  0.3424
  528MOL0     H71267  10.890   7.366   3.728 -0.6681  1.4615  1.2656
  528MOL0     H71268  10.731   7.206   3.615 -0.0286  0.6577  1.1730
  528MOL0     H71269  10.567   7.260   3.552 -1.5551 -0.0101  0.7266
  528MOL0     H71270  10.569   7.022   3.653 -0.0045  0.3633 -0.2918
  528MOL0     H71271  10.461   7.139   3.737 -0.7377  1.4364 -0.8452
  528MOL0     H71272  10.621   7.151   3.918  1.5855 -0.0326 -0.2228
  528MOL0     H71273  10.744   7.101   3.808 -0.6914  0.9763 -2.1422
  528MOL0     H71274  10.526   6.912   3.922 -0.3726 -2.2806  0.8312
  528MOL0     H71275  10.655   6.873   3.801  0.5978  2.0295 -0.1636
  528MOL0     H71276  10.795   6.840   4.209  1.2296 -1.3139 -1.3841
  528MOL0     H71277  10.535   7.576   3.657 -0.2396 -1.8338 -1.3167
  528MOL0     H71278  10.547   7.837   3.663  0.5844 -2.2224  1.9010
  528MOL0     H71279  10.690   7.921   3.606  0.0857 -0.3586 -4.1192
  528MOL0     H71280  10.595   7.838   3.489  3.0644 -1.6294 -1.6500
  529MOL0     O71281   7.608   3.151   4.868 -0.2968 -0.4236 -0.1368
  529MOL0     C71282   7.551   3.094   4.780  0.4409  0.5735 -0.3565
  529MOL0     O71283   7.588   2.982   4.733  0.0773  0.1433  0.4431
  529MOL0     C71284   7.711   2.935   4.774 -0.5498  0.4547 -0.1204
  529MOL0     C71285   7.834   2.948   4.706 -0.2803  0.9428  0.0526
  529MOL0     C71286   7.947   2.873   4.738 -0.3331 -0.8873 -0.1383
  529MOL0     C71287   7.950   2.796   4.858 -1.0233 -0.9934 -0.3430
  529MOL0     O71288   8.058   2.730   4.905  0.4522  0.7335  0.2066
  529MOL0     C71289   8.187   2.768   4.872 -0.7462 -1.3363  0.0883
  529MOL0     C71290   8.292   2.688   4.949  0.5103  0.9644 -0.0210
  529MOL0     C71291   8.306   2.713   5.099 -0.3480  0.5457 -0.2896
  529MOL0     C71292   8.400   2.627   5.195  0.2144 -0.7351  0.3882
  529MOL0     C71293   8.410   2.483   5.173  0.3263  0.0652 -0.2425
  529MOL0     C71294   8.285   2.415   5.207  0.3207 -0.1344  0.1628
  529MOL0     C71295   8.283   2.270   5.154  0.4298  0.1523  0.9071
  529MOL0     C71296   8.161   2.194   5.195  0.4633 -0.1885  0.2045
  529MOL0     N71297   8.039   2.239   5.126  1.0571  0.5937 -0.0663
  529MOL0     C71298   7.927   2.272   5.200 -0.5349  0.1146  0.3424
  529MOL0     C71299   7.825   2.261   5.106 -0.0965  0.6721  0.6829
  529MOL0     C71300   7.687   2.320   5.143 -0.8652 -0.3056 -0.1037
  529MOL0     C71301   7.642   2.269   5.281  0.8390  0.3772 -0.8450
  529MOL0     C71302   7.509   2.334   5.336 -0.8488  0.1508  0.6056
  529MOL0     C71303   7.377   2.279   5.279 -0.2458 -0.5593 -1.1494
  529MOL0     O71304   7.323   2.344   5.165  0.1622  0.2991  0.6898
  529MOL0     C71305   7.290   2.474   5.178 -0.5798  0.2436  0.8669
  529MOL0     C71306   7.211   2.534   5.272 -0.0541  0.9483  0.3278
  529MOL0     C71307   7.184   2.670   5.273  0.7308 -0.1710  0.1784
  529MOL0     C71308   7.250   2.756   5.178  0.3274  0.0549  0.9536
  529MOL0     C71309   7.227   2.898   5.181  0.2759 -0.0854 -0.7802
  529MOL0     O71310   7.269   2.969   5.082  0.2521 -0.2259 -0.2323
  529MOL0     C71311   7.235   3.097   5.069 -0.7345  0.2371  0.9137
  529MOL0     C71312   7.102   3.134   5.034  0.6205 -0.9969 -0.1079
  529MOL0     C71313   7.082   3.267   5.011 -0.1556  0.3630  0.1088
  529MOL0     C71314   7.183   3.361   5.018  0.5048  0.3928  0.4180
  529MOL0     O71315   7.141   3.487   5.009 -0.6231  0.5679  0.3128
  529MOL0     C71316   7.090   3.567   5.121  0.6172 -0.0625 -0.5986
  529MOL0     C71317   7.204   3.622   5.195  0.5856  0.3609  0.4777
  529MOL0     C71318   7.153   3.729   5.290 -0.8353  0.0272 -0.2376
  529MOL0     C71319   7.255   3.730   5.404  0.2024 -0.3088 -0.5762
  529MOL0     C71320   7.402   3.755   5.353  0.7006  0.3857 -0.0044
  529MOL0     C71321   7.492   3.786   5.481  0.0514  0.1888 -0.3478
  529MOL0     C71322   7.640   3.802   5.436  0.5309  0.1667 -0.1218
  529MOL0     C71323   7.731   3.807   5.556  0.1385  0.3219 -0.7899
  529MOL0    Cl71324   7.789   3.636   5.586 -0.0808 -0.0202  0.4103
  529MOL0     C71325   7.313   3.326   5.040 -0.2741  0.2481 -0.2761
  529MOL0     C71326   7.341   3.193   5.067  0.9973 -0.1661  0.1059
  529MOL0     O71327   7.156   2.941   5.270 -0.6408  0.6318  0.7576
  529MOL0     C71328   7.333   2.686   5.087  0.1323 -0.8182  0.8620
  529MOL0     C71329   7.357   2.548   5.086  0.1474 -1.2319 -0.4840
  529MOL0     N71330   7.880   2.221   4.983  0.2330 -0.7999  0.2573
  529MOL0     N71331   8.008   2.197   4.997  0.4282  0.6759 -0.1068
  529MOL0     C71332   7.827   2.780   4.924 -0.0487  0.2688  0.7399
  529MOL0     C71333   7.720   2.853   4.885 -0.2567 -0.3089 -0.0670
  529MOL0     C71334   7.415   3.140   4.724 -0.9673  0.0560 -0.0871
  529MOL0     C71335   7.400   3.279   4.697 -0.8338  0.9781 -0.1839
  529MOL0     C71336   7.273   3.323   4.674  0.7297 -0.3440 -0.1328
  529MOL0     C71337   7.158   3.245   4.684  0.0310  0.1525  0.1298
  529MOL0     O71338   7.037   3.300   4.647 -0.0773  0.5263 -1.1408
  529MOL0     C71339   6.919   3.233   4.676  0.1168  0.0441 -0.2592
  529MOL0     C71340   6.784   3.313   4.638 -0.2750 -0.3064 -0.8612
  529MOL0     C71341   6.672   3.270   4.727 -0.3574 -0.2758 -0.0106
  529MOL0     C71342   6.651   3.358   4.844  0.1512  0.7036  0.0478
  529MOL0     C71343   6.535   3.301   4.924  0.4750 -0.2599 -0.7788
  529MOL0     C71344   6.454   3.254   4.999  0.6525  0.1104 -1.1162
  529MOL0     C71345   7.181   3.105   4.693  1.3665 -0.7916 -0.9859
  529MOL0     C71346   7.307   3.051   4.711  0.2863 -0.1405  0.5328
  529MOL0     C71347   7.323   2.901   4.747 -0.0744  0.3044  0.0249
  529MOL0     H71348   7.824   3.006   4.614 -0.3749  1.1446  0.1894
  529MOL0     H71349   8.041   2.887   4.685 -0.6279 -0.1163 -0.4702
  529MOL0     H71350   8.195   2.753   4.764 -0.5828  0.7953 -0.2397
  529MOL0     H71351   8.207   2.874   4.888  2.5738 -1.8306 -0.0307
  529MOL0     H71352   8.386   2.710   4.898 -0.4284  2.5224 -1.1569
  529MOL0     H71353   8.271   2.582   4.931 -2.0271  1.2083  1.0677
  529MOL0     H71354   8.209   2.696   5.148 -0.8796 -0.3788 -1.6101
  529MOL0     H71355   8.346   2.814   5.115 -0.6270  1.0817 -2.6061
  529MOL0     H71356   8.495   2.681   5.184 -1.1393  1.1796 -5.7968
  529MOL0     H71357   8.364   2.644   5.297 -0.4437 -0.7984  0.1657
  529MOL0     H71358   8.416   2.468   5.065  0.1688  0.9107 -0.3794
  529MOL0     H71359   8.493   2.437   5.226  1.0149  1.0175 -0.4766
  529MOL0     H71360   8.290   2.419   5.316 -0.3497  0.1954  0.1872
  529MOL0     H71361   8.201   2.468   5.162  0.8092  1.3766  0.9545
  529MOL0     H71362   8.373   2.220   5.191  0.1395 -0.9038  0.2132
  529MOL0     H71363   8.287   2.263   5.045 -1.2529 -1.4472  0.9026
  529MOL0     H71364   8.182   2.094   5.157  1.3832  0.5206 -1.2450
  529MOL0     H71365   8.144   2.198   5.303 -1.7390 -1.9943  0.0174
  529MOL0     H71366   7.915   2.297   5.305  0.8143 -0.8828  0.7573
  529MOL0     H71367   7.686   2.429   5.144 -0.3067 -0.2974 -0.0670
  529MOL0     H71368   7.620   2.293   5.061 -2.3444  3.1697 -0.2280
  529MOL0     H71369   7.624   2.161   5.274 -2.3230  0.7644 -0.2966
  529MOL0     H71370   7.713   2.271   5.364 -1.7466 -0.6826  1.5534
  529MOL0     H71371   7.510   2.442   5.316 -2.1805  0.0531 -0.1364
  529MOL0     H71372   7.508   2.320   5.444 -2.3216 -0.5563  0.5228
  529MOL0     H71373   7.311   2.296   5.365  3.0709  0.8840  1.3092
  529MOL0     H71374   7.377   2.171   5.261 -0.4368 -0.4388 -1.9198
  529MOL0     H71375   7.156   2.478   5.347 -1.5926  3.5179  1.2830
  529MOL0     H71376   7.110   2.717   5.338  0.0528 -0.0807 -0.6390
  529MOL0     H71377   7.024   3.059   5.024  1.1594 -1.5154 -0.4220
  529MOL0     H71378   6.980   3.296   4.986 -0.0390  0.5797 -0.1144
  529MOL0     H71379   7.031   3.655   5.095 -0.0928 -1.1029 -2.7699
  529MOL0     H71380   7.021   3.511   5.185 -0.8249  2.9141  0.6610
  529MOL0     H71381   7.235   3.538   5.257 -2.4377 -2.4468 -1.4707
  529MOL0     H71382   7.291   3.652   5.137 -0.0429  2.3580  0.4731
  529MOL0     H71383   7.149   3.818   5.227  4.3949  0.1093 -0.9431
  529MOL0     H71384   7.051   3.709   5.324 -0.0459 -0.7015  1.9476
  529MOL0     H71385   7.245   3.634   5.455 -1.1231 -1.8785 -3.4910
  529MOL0     H71386   7.228   3.814   5.468  2.6981 -1.1462  1.7628
  529MOL0     H71387   7.406   3.832   5.276 -3.1851 -0.3762 -1.2052
  529MOL0     H71388   7.440   3.661   5.312 -0.3547  0.1495 -0.4871
  529MOL0     H71389   7.466   3.885   5.518  0.7058  0.7122 -1.2663
  529MOL0     H71390   7.489   3.706   5.555 -0.3746  0.3972 -0.1372
  529MOL0     H71391   7.641   3.898   5.382 -0.1555  1.8230  2.6206
  529MOL0     H71392   7.678   3.734   5.359  2.5999  2.6928 -1.5183
  529MOL0     H71393   7.819   3.872   5.546  2.4287 -2.6931 -1.6724
  529MOL0     H71394   7.676   3.848   5.641 -1.3291 -0.1750 -1.4717
  529MOL0     H71395   7.383   3.408   5.029  2.7974 -2.0030  1.0175
  529MOL0     H71396   7.446   3.173   5.082  1.4829  2.1655  0.2321
  529MOL0     H71397   7.396   2.738   5.016  0.1633  2.4883  3.0848
  529MOL0     H71398   7.437   2.515   5.021  0.8548 -1.8260  0.6631
  529MOL0     H71399   7.829   2.725   5.017 -0.4410 -0.6110  0.2430
  529MOL0     H71400   7.639   2.839   4.956  0.6420 -0.9273  0.8665
  529MOL0     H71401   7.492   3.335   4.702  0.0881 -0.4664 -0.3395
  529MOL0     H71402   7.250   3.425   4.645  0.8358 -0.1730  0.3806
  529MOL0     H71403   6.906   3.220   4.784  2.4489  2.4723  0.4231
  529MOL0     H71404   6.913   3.142   4.615  0.3152  0.3938 -0.8086
  529MOL0     H71405   6.762   3.306   4.531 -0.2656  1.2896 -0.9956
  529MOL0     H71406   6.810   3.419   4.649  1.0592 -0.0754 -4.6012
  529MOL0     H71407   6.697   3.175   4.775 -1.3977 -1.1252 -1.0843
  529MOL0     H71408   6.579   3.258   4.670 -1.2598 -0.8391  1.5391
  529MOL0     H71409   6.739   3.341   4.907  0.5809 -1.3468 -1.0071
  529MOL0     H71410   6.637   3.462   4.815 -0.3286  0.8710  0.8569
  529MOL0     H71411   6.406   3.201   5.078 -0.9416  0.5882 -1.7272
  529MOL0     H71412   7.099   3.035   4.678 -0.1092 -0.3978  3.7100
  529MOL0     H71413   7.224   2.854   4.742  0.0472  0.1749 -1.8138
  529MOL0     H71414   7.385   2.854   4.671 -0.3649  0.2813 -0.1981
  529MOL0     H71415   7.367   2.898   4.847  2.7338  1.8079 -1.0638
  530MOL0     O71416   1.512   7.402   3.409 -0.2647 -0.7588 -1.2092
  530MOL0     C71417   1.581   7.363   3.507 -0.1751  0.4477 -0.5689
  530MOL0     O71418   1.704   7.407   3.548  0.0374 -0.0937  0.4210
  530MOL0     C71419   1.736   7.535   3.501 -0.1381  1.5659 -1.0661
  530MOL0     C71420   1.728   7.651   3.579  0.9213  0.9271 -0.5595
  530MOL0     C71421   1.773   7.774   3.534 -0.2942  0.6085 -0.7391
  530MOL0     C71422   1.837   7.784   3.405  0.4249 -0.3898 -0.5914
  530MOL0     O71423   1.902   7.900   3.371  1.0953 -0.2072  0.2701
  530MOL0     C71424   2.030   7.878   3.306  0.4082 -0.5019 -0.2915
  530MOL0     C71425   2.109   8.014   3.290  0.1873 -0.5059 -0.4572
  530MOL0     C71426   2.262   8.002   3.292  0.5395  0.7219  0.5431
  530MOL0     C71427   2.331   8.128   3.346  0.3160 -0.4909  0.2594
  530MOL0     C71428   2.476   8.116   3.361 -0.9133 -0.4328  0.4045
  530MOL0     C71429   2.505   8.063   3.501  1.2481  0.5442 -1.4204
  530MOL0     C71430   2.653   8.037   3.526 -0.0948  0.8189  0.8684
  530MOL0     C71431   2.660   7.975   3.668  0.6175 -1.3794  0.2215
  530MOL0     N71432   2.790   7.984   3.731 -1.1760 -0.4882 -0.0188
  530MOL0     C71433   2.871   8.090   3.746 -0.2372 -0.6910  0.0690
  530MOL0     C71434   2.974   8.050   3.835  1.1821 -0.0668  0.5975
  530MOL0     C71435   3.084   8.132   3.883  0.1508 -0.1383 -0.6298
  530MOL0     C71436   3.168   8.198   3.769  0.8603 -0.2423  0.7122
  530MOL0     C71437   3.277   8.288   3.811  0.0991  0.3264 -0.2565
  530MOL0     C71438   3.413   8.216   3.829  0.5949  1.0478 -0.4400
  530MOL0     O71439   3.477   8.312   3.912 -0.8091  0.2907  0.0109
  530MOL0     C71440   3.525   8.424   3.852 -0.7589 -0.1401  0.3748
  530MOL0     C71441   3.527   8.449   3.712  0.4842 -0.2511 -0.3103
  530MOL0     C71442   3.577   8.567   3.662  0.2996 -0.1852 -0.5742
  530MOL0     C71443   3.648   8.660   3.741  0.8723  0.4545 -0.4493
  530MOL0     C71444   3.700   8.778   3.674  0.7279 -0.3017  0.4256
  530MOL0     O71445   3.681   8.794   3.536  0.3536 -0.1539 -0.1817
  530MOL0     C71446   3.771   8.879   3.470  0.4659 -0.8644 -0.2234
  530MOL0     C71447   3.719   8.962   3.373 -0.5133  0.0461 -0.1943
  530MOL0     C71448   3.803   9.039   3.282 -0.1099 -1.6127  0.1849
  530MOL0     C71449   3.942   9.027   3.294  0.1028  0.0011  0.2248
  530MOL0     O71450   4.031   9.085   3.209  0.6060  0.1591  0.1175
  530MOL0     C71451   4.103   9.184   3.276 -0.1557  0.1273 -0.3387
  530MOL0     C71452   4.083   9.315   3.197  0.2621 -0.0045 -0.1613
  530MOL0     C71453   4.171   9.424   3.267 -0.3883  0.9441 -0.0291
  530MOL0     C71454   4.193   9.564   3.200  1.1543  0.3094 -0.4524
  530MOL0     C71455   4.274   9.670   3.282 -0.2848  0.0959  0.2197
  530MOL0     C71456   4.309   9.803   3.218  0.9594 -0.3480 -0.3643
  530MOL0     C71457   4.381   9.790   3.071  0.3005  0.7849  0.5362
  530MOL0     C71458   4.473   9.909   3.037 -0.0042  0.2912  0.0995
  530MOL0    Cl71459   4.643   9.893   3.099 -0.1286  0.1071  0.4501
  530MOL0     C71460   3.993   8.947   3.400  0.9787  0.1704 -0.0466
  530MOL0     C71461   3.911   8.871   3.485  0.2664  0.4226 -0.4999
  530MOL0     O71462   3.764   8.858   3.743  0.2708 -0.1727  0.2410
  530MOL0     C71463   3.643   8.634   3.884  0.5743  0.4556  0.5354
  530MOL0     C71464   3.585   8.516   3.937  0.2519 -1.0969 -0.3062
  530MOL0     N71465   2.942   7.919   3.878  0.7449 -0.0690 -0.5807
  530MOL0     N71466   2.839   7.884   3.811  0.0552  0.1263 -0.3297
  530MOL0     C71467   1.822   7.673   3.316  0.3147 -0.1302 -0.6656
  530MOL0     C71468   1.775   7.548   3.363  0.2191  0.7545  0.7687
  530MOL0     C71469   1.536   7.239   3.579 -0.3443  0.2034  0.9662
  530MOL0     C71470   1.637   7.164   3.652  0.9242  0.3234 -0.8533
  530MOL0     C71471   1.604   7.056   3.732  0.8089  0.3168 -0.7527
  530MOL0     C71472   1.473   7.019   3.751 -0.3642 -0.2109 -0.1043
  530MOL0     O71473   1.436   6.904   3.811  0.1902 -0.2008  0.3044
  530MOL0     C71474   1.471   6.793   3.726  0.3631  0.7666 -0.3264
  530MOL0     C71475   1.444   6.657   3.790  0.3246 -0.6608  1.1002
  530MOL0     C71476   1.307   6.639   3.857 -0.1995  0.1048  0.0072
  530MOL0     C71477   1.181   6.687   3.779 -0.6035  0.2579 -0.3179
  530MOL0     C71478   1.151   6.591   3.680 -0.2040 -0.3796  0.0147
  530MOL0     C71479   1.107   6.508   3.607 -0.4688  0.1907 -0.1425
  530MOL0     C71480   1.376   7.087   3.687  0.2888 -0.1907 -0.3808
  530MOL0     C71481   1.404   7.198   3.611 -0.2199  0.3360  0.3010
  530MOL0     C71482   1.275   7.263   3.549  1.1028 -1.0627 -1.6694
  530MOL0     H71483   1.704   7.643   3.684 -1.1111  2.2884 -0.8559
  530MOL0     H71484   1.781   7.854   3.607  0.2923 -0.9056  0.9302
  530MOL0     H71485   2.094   7.810   3.363  0.5394 -0.4275 -0.3492
  530MOL0     H71486   2.032   7.838   3.204  0.3478 -2.0038  0.2758
  530MOL0     H71487   2.071   8.069   3.376  1.1160 -1.4375  0.5730
  530MOL0     H71488   2.075   8.072   3.204  2.8708  2.2846  0.1689
  530MOL0     H71489   2.293   7.982   3.188 -1.8005  0.2287 -0.1166
  530MOL0     H71490   2.300   7.915   3.346  0.7952  0.6130  0.1967
  530MOL0     H71491   2.307   8.208   3.275 -2.5329  0.6827  2.3581
  530MOL0     H71492   2.288   8.164   3.439  1.8353  1.4332  0.2734
  530MOL0     H71493   2.515   8.058   3.276  1.0115  2.6913 -1.0192
  530MOL0     H71494   2.536   8.205   3.340  2.0131 -2.2390  0.5148
  530MOL0     H71495   2.461   8.132   3.573  0.8978 -1.5167  0.4635
  530MOL0     H71496   2.456   7.967   3.518  1.0733  1.0376  1.2961
  530MOL0     H71497   2.714   8.127   3.513  2.0768 -0.5847  0.9003
  530MOL0     H71498   2.697   7.964   3.458  0.1246  1.0524  0.7582
  530MOL0     H71499   2.581   8.023   3.726  0.4322 -0.5600 -0.6750
  530MOL0     H71500   2.635   7.868   3.673 -2.2684 -0.8391 -0.7754
  530MOL0     H71501   2.857   8.195   3.719  2.5688 -0.4612 -0.8363
  530MOL0     H71502   3.044   8.206   3.953  2.4858 -0.2737  0.9450
  530MOL0     H71503   3.162   8.077   3.935 -1.1733 -2.6052 -1.1085
  530MOL0     H71504   3.200   8.123   3.696 -2.6948 -1.5520  0.3052
  530MOL0     H71505   3.106   8.278   3.727  4.6229  3.6712  1.9616
  530MOL0     H71506   3.245   8.341   3.901  1.8327  1.3681 -0.2043
  530MOL0     H71507   3.290   8.358   3.728 -0.6765  1.4435  0.5246
  530MOL0     H71508   3.465   8.195   3.735  1.7844 -0.7957  0.5643
  530MOL0     H71509   3.412   8.117   3.874  2.5114 -1.2956 -4.8583
  530MOL0     H71510   3.478   8.385   3.639  0.2308  0.6515 -0.9480
  530MOL0     H71511   3.559   8.579   3.556  0.7803 -3.7118 -1.1648
  530MOL0     H71512   3.611   8.969   3.367 -0.5265 -0.5484 -0.7534
  530MOL0     H71513   3.758   9.103   3.207 -2.5742 -1.3351  1.7880
  530MOL0     H71514   4.072   9.207   3.379 -0.2817  0.3359 -0.4242
  530MOL0     H71515   4.207   9.152   3.287 -0.5852 -1.5269 -0.6668
  530MOL0     H71516   4.100   9.293   3.092 -3.5607 -1.5612 -0.6109
  530MOL0     H71517   3.976   9.325   3.220  0.0261 -2.8116  0.3654
  530MOL0     H71518   4.131   9.451   3.365  0.8313  1.6395  0.3016
  530MOL0     H71519   4.272   9.385   3.285 -0.2704  1.3655  0.2559
  530MOL0     H71520   4.090   9.596   3.180  0.6407 -0.0599  1.4014
  530MOL0     H71521   4.246   9.535   3.109  0.6349 -4.4963  0.4804
  530MOL0     H71522   4.366   9.619   3.313 -1.2370 -1.4024  0.7274
  530MOL0     H71523   4.216   9.691   3.372 -2.0909 -0.1033 -0.8476
  530MOL0     H71524   4.214   9.856   3.201  3.1303  3.2746 -2.4049
  530MOL0     H71525   4.372   9.857   3.289  0.0546 -0.1637  0.3266
  530MOL0     H71526   4.301   9.783   2.997 -0.3269  0.3787  1.2412
  530MOL0     H71527   4.438   9.698   3.061  1.0035  1.2512  0.0998
  530MOL0     H71528   4.477   9.928   2.929 -2.3940 -0.9834 -0.2772
  530MOL0     H71529   4.435  10.002   3.079  2.8587  1.5289  0.2013
  530MOL0     H71530   4.102   8.952   3.404  1.1117  3.2569 -2.8753
  530MOL0     H71531   3.949   8.811   3.566  1.3469  1.9351  0.1665
  530MOL0     H71532   3.685   8.715   3.942 -1.3818  1.4380  0.6598
  530MOL0     H71533   3.577   8.507   4.045  1.8354  1.5812  0.1208
  530MOL0     H71534   1.850   7.679   3.212 -1.9290  2.1260 -1.2427
  530MOL0     H71535   1.765   7.462   3.297  2.7536 -1.1498  2.6381
  530MOL0     H71536   1.741   7.192   3.638  0.7059  1.1322 -0.9319
  530MOL0     H71537   1.693   7.014   3.778  1.4839  1.5973 -0.8388
  530MOL0     H71538   1.576   6.807   3.701 -0.2358  2.6779 -2.0168
  530MOL0     H71539   1.420   6.799   3.629 -2.4269  3.5719  1.1396
  530MOL0     H71540   1.523   6.629   3.861 -0.6307 -2.3394  1.5427
  530MOL0     H71541   1.447   6.581   3.711 -1.3867 -0.3906  0.7432
  530MOL0     H71542   1.327   6.714   3.934 -2.5917  1.9079 -1.0394
  530MOL0     H71543   1.289   6.544   3.910  0.5894 -1.7618 -2.8368
  530MOL0     H71544   1.107   6.704   3.858  0.6554  0.6708  0.8042
  530MOL0     H71545   1.220   6.779   3.734  1.9501 -0.3132  0.5589
  530MOL0     H71546   1.065   6.429   3.547 -0.0315 -0.8927  0.9434
  530MOL0     H71547   1.272   7.065   3.711  1.0536 -1.1695  2.4311
  530MOL0     H71548   1.301   7.340   3.477 -3.2320 -0.2886 -2.7022
  530MOL0     H71549   1.213   7.182   3.509 -1.6710 -2.9076  4.8460
  530MOL0     H71550   1.228   7.315   3.633  0.8129 -0.1902 -2.3653
  531MOL0     O71551   2.566  10.478   8.492 -0.1027 -0.1629 -0.5275
  531MOL0     C71552   2.668  10.424   8.525  0.1753  1.0531 -0.5815
  531MOL0     O71553   2.755  10.375   8.439 -0.5311  0.5972 -0.1449
  531MOL0     C71554   2.745  10.381   8.306  0.2473 -0.1698  1.9202
  531MOL0     C71555   2.871  10.375   8.245 -0.5092 -0.0844  0.6311
  531MOL0     C71556   2.883  10.380   8.106  0.0966  0.8239  0.2360
  531MOL0     C71557   2.775  10.385   8.019  0.0829 -0.3091  0.3577
  531MOL0     O71558   2.801  10.381   7.881 -0.3382  0.2873 -0.0167
  531MOL0     C71559   2.738  10.265   7.821  0.2005  0.5891 -0.0861
  531MOL0     C71560   2.810  10.123   7.849  0.2938  0.6144  0.7931
  531MOL0     C71561   2.770  10.057   7.984 -0.0008 -1.4641  0.4837
  531MOL0     C71562   2.629   9.986   7.966  0.1589 -0.5347 -0.7076
  531MOL0     C71563   2.577   9.916   8.095  0.1437  0.0711  0.4251
  531MOL0     C71564   2.425   9.907   8.095 -0.2443  0.2438  0.1599
  531MOL0     C71565   2.385   9.808   8.199 -0.2249  0.5651  0.5863
  531MOL0     C71566   2.390   9.836   8.352  0.3971 -0.4669 -0.3549
  531MOL0     N71567   2.525   9.858   8.406 -0.2720 -0.5945  0.2096
  531MOL0     C71568   2.583   9.973   8.464  0.5802 -0.3948  0.0171
  531MOL0     C71569   2.691   9.923   8.537  1.0527  0.3868  0.4745
  531MOL0     C71570   2.767  10.017   8.622 -0.1530  0.1432  0.3797
  531MOL0     C71571   2.916  10.023   8.608 -0.2406 -1.1549  0.5481
  531MOL0     C71572   2.973  10.002   8.466 -0.1879 -0.1462 -0.4413
  531MOL0     C71573   3.118  10.047   8.459 -0.0241 -0.3146  0.2468
  531MOL0     O71574   3.133  10.123   8.340 -0.2166 -0.3308  0.0739
  531MOL0     C71575   3.136  10.075   8.214  0.1179  0.2090  0.3248
  531MOL0     C71576   3.170  10.169   8.115 -0.5556 -0.5512 -0.5039
  531MOL0     C71577   3.176  10.136   7.984  0.0544  0.5275  1.1771
  531MOL0     C71578   3.169   9.999   7.942 -0.3747  0.6998  0.4857
  531MOL0     C71579   3.181   9.960   7.801  0.1850  0.8524 -0.0142
  531MOL0     O71580   3.149  10.052   7.702  0.5152  0.9819 -0.5617
  531MOL0     C71581   3.147   9.996   7.574 -1.1092  0.4168 -0.7944
  531MOL0     C71582   3.028   9.967   7.510  0.1681  0.3121 -0.8053
  531MOL0     C71583   3.021   9.914   7.378  0.4051  0.7879 -0.0009
  531MOL0     C71584   3.136   9.873   7.317 -0.5033 -0.2526  0.7235
  531MOL0     O71585   3.114   9.827   7.191  1.1353  0.1713  1.2694
  531MOL0     C71586   3.176   9.709   7.138 -0.1452 -0.2078 -0.5552
  531MOL0     C71587   3.227   9.715   6.990  0.7086  1.5556  0.1637
  531MOL0     C71588   3.119   9.757   6.892 -0.6028 -0.5340  0.2958
  531MOL0     C71589   3.002   9.661   6.891  0.1580 -0.8104 -0.8137
  531MOL0     C71590   2.919   9.667   6.764 -0.8241 -0.5502  0.0735
  531MOL0     C71591   2.981   9.556   6.674 -0.0233 -0.0478 -0.3083
  531MOL0     C71592   2.905   9.565   6.539 -0.5498  0.4695  0.0938
  531MOL0     C71593   2.923   9.693   6.449  0.1513 -0.6328  0.1454
  531MOL0    Cl71594   3.076   9.690   6.360 -0.2207 -0.1252 -0.4509
  531MOL0     C71595   3.260   9.904   7.372  0.3431 -0.1717 -0.3117
  531MOL0     C71596   3.267   9.963   7.503 -0.1408  0.0519  0.4406
  531MOL0     O71597   3.222   9.850   7.772 -0.5730 -0.1728  0.3171
  531MOL0     C71598   3.137   9.907   8.048 -0.2718 -0.2018  0.2061
  531MOL0     C71599   3.120   9.943   8.181  0.3941  0.0328  0.3049
  531MOL0     N71600   2.694   9.785   8.511 -0.6764 -0.1365 -0.5380
  531MOL0     N71601   2.609   9.750   8.424  0.0342 -0.4629 -0.9356
  531MOL0     C71602   2.642  10.405   8.081  0.5059 -0.1340 -0.2477
  531MOL0     C71603   2.623  10.389   8.229 -0.4900 -0.7715 -0.0063
  531MOL0     C71604   2.709  10.411   8.665 -0.1311  0.4679  0.1283
  531MOL0     C71605   2.847  10.441   8.686 -0.2871 -0.0847 -0.9393
  531MOL0     C71606   2.912  10.437   8.811  0.7350  0.9505  0.7906
  531MOL0     C71607   2.830  10.405   8.919  0.0469 -0.5248  0.1754
  531MOL0     O71608   2.893  10.394   9.039  0.2698 -0.1189  0.0192
  531MOL0     C71609   2.853  10.493   9.143  0.7926 -0.3009  0.1875
  531MOL0     C71610   2.882  10.633   9.114 -0.5488 -0.4564  0.0195
  531MOL0     C71611   3.034  10.651   9.110 -0.6708  0.2978 -0.2296
  531MOL0     C71612   3.090  10.771   9.047  0.0565  0.0448  0.4994
  531MOL0     C71613   3.071  10.767   8.902 -0.1844 -0.1179 -0.7361
  531MOL0     C71614   3.052  10.770   8.784  0.5204  0.5655  0.2268
  531MOL0     C71615   2.691  10.384   8.902 -0.4526  0.6560  0.9480
  531MOL0     C71616   2.625  10.388   8.775  0.7118 -0.3063 -0.2716
  531MOL0     C71617   2.485  10.353   8.753 -0.3392  0.1614  0.0683
  531MOL0     H71618   2.956  10.358   8.311 -0.1803  0.9078  0.4808
  531MOL0     H71619   2.976  10.343   8.064 -0.9133  0.1479 -1.4790
  531MOL0     H71620   2.632  10.258   7.847  0.6443 -3.1652  1.3744
  531MOL0     H71621   2.735  10.277   7.712 -3.3239  1.5479  0.0030
  531MOL0     H71622   2.918  10.140   7.840  0.8218 -2.3143  0.3943
  531MOL0     H71623   2.787  10.049   7.771 -0.9581  0.5063  1.2470
  531MOL0     H71624   2.761  10.134   8.062  1.3450  2.9899 -3.3356
  531MOL0     H71625   2.834   9.971   8.007  0.8832 -1.2959 -1.2425
  531MOL0     H71626   2.557  10.067   7.948  0.0710 -0.3529  0.3599
  531MOL0     H71627   2.626   9.915   7.883 -3.1270 -1.6000  0.1867
  531MOL0     H71628   2.625   9.818   8.100  0.8267  0.4284  1.0592
  531MOL0     H71629   2.590   9.977   8.185 -2.9022  0.6595  0.5721
  531MOL0     H71630   2.381  10.002   8.128 -2.3335 -0.6611  0.1886
  531MOL0     H71631   2.403   9.875   7.992  1.4401  0.9179 -0.4320
  531MOL0     H71632   2.430   9.709   8.183  3.0206  1.8583  0.7922
  531MOL0     H71633   2.280   9.792   8.175 -0.0902  3.1418 -2.3526
  531MOL0     H71634   2.325   9.923   8.364 -0.0359 -0.9817  1.2586
  531MOL0     H71635   2.334   9.758   8.404  0.1040 -1.8110 -2.5715
  531MOL0     H71636   2.547  10.076   8.461 -1.1927 -0.8782  2.0591
  531MOL0     H71637   2.734  10.117   8.590 -2.9404 -0.7703  0.2038
  531MOL0     H71638   2.737  10.004   8.726  1.7932 -6.0575  0.5779
  531MOL0     H71639   2.952  10.120   8.643 -1.8607 -0.2482 -0.1628
  531MOL0     H71640   2.955   9.945   8.675  0.0155 -0.1104  1.6524
  531MOL0     H71641   2.918  10.069   8.399 -1.4582 -0.4776  0.2272
  531MOL0     H71642   2.976   9.895   8.442  1.8463  0.0800 -1.3906
  531MOL0     H71643   3.188   9.966   8.481 -1.6910 -1.9976 -0.3198
  531MOL0     H71644   3.136  10.113   8.544 -0.7833 -0.0910  0.2457
  531MOL0     H71645   3.192  10.264   8.162  0.6300 -0.4759 -1.1533
  531MOL0     H71646   3.210  10.214   7.916 -0.4913  1.8084  2.3190
  531MOL0     H71647   2.939   9.970   7.572 -0.4598  4.3961 -1.5995
  531MOL0     H71648   2.931   9.888   7.324  0.4272  1.1535 -0.2150
  531MOL0     H71649   3.252   9.682   7.212 -0.2716 -1.5271 -0.8869
  531MOL0     H71650   3.098   9.632   7.141  0.4379 -0.9653 -2.9355
  531MOL0     H71651   3.312   9.783   6.982  2.4584 -0.4283  0.9921
  531MOL0     H71652   3.254   9.613   6.965 -0.3830  0.6977  2.2100
  531MOL0     H71653   3.091   9.861   6.908  4.3797  0.7336  2.7742
  531MOL0     H71654   3.160   9.748   6.790 -4.1292 -2.4153 -1.1666
  531MOL0     H71655   2.935   9.693   6.971  1.1587 -2.4299  0.7169
  531MOL0     H71656   3.036   9.561   6.916  0.3001 -0.9329 -1.4625
  531MOL0     H71657   2.922   9.761   6.710  0.0264 -0.6080  0.0169
  531MOL0     H71658   2.812   9.655   6.783 -1.5703  3.7144 -0.4534
  531MOL0     H71659   3.090   9.565   6.671  0.1397 -0.3663  2.3091
  531MOL0     H71660   2.975   9.461   6.728  3.0709  0.8092  1.8884
  531MOL0     H71661   2.798   9.554   6.562 -0.7556  0.4430 -0.8468
  531MOL0     H71662   2.932   9.486   6.469  1.7038  0.8670  0.4450
  531MOL0     H71663   2.844   9.701   6.375  1.6860  3.3063 -1.3235
  531MOL0     H71664   2.934   9.789   6.499  2.4812 -0.9822  0.4326
  531MOL0     H71665   3.355   9.890   7.322 -0.2804 -0.6342 -1.3983
  531MOL0     H71666   3.359   9.970   7.561  0.2294  1.7679 -0.3036
  531MOL0     H71667   3.120   9.806   8.011 -1.7961  0.5526 -1.3394
  531MOL0     H71668   3.102   9.869   8.259 -1.0650  1.9652  1.8897
  531MOL0     H71669   2.552  10.415   8.021  1.2127  2.0026 -1.0649
  531MOL0     H71670   2.525  10.405   8.274 -0.5428  2.3827 -0.9784
  531MOL0     H71671   2.907  10.456   8.596  2.0547 -0.0538  0.5504
  531MOL0     H71672   3.018  10.456   8.816  1.2645 -0.8650 -1.7919
  531MOL0     H71673   2.883  10.457   9.242 -2.9750 -0.5023  1.3837
  531MOL0     H71674   2.744  10.493   9.151  0.7394 -0.2864 -0.5093
  531MOL0     H71675   2.847  10.693   9.199  0.9308 -2.3439  2.0865
  531MOL0     H71676   2.843  10.669   9.018  2.6424 -1.7920 -1.9628
  531MOL0     H71677   3.085  10.566   9.062  2.8320  2.0993 -0.0365
  531MOL0     H71678   3.056  10.645   9.217  4.1402  0.5836 -0.9740
  531MOL0     H71679   3.038  10.857   9.090 -0.5909  0.5231 -1.1499
  531MOL0     H71680   3.198  10.778   9.059  0.1067 -0.2193  0.2238
  531MOL0     H71681   3.036  10.758   8.679  1.4019  0.3685  0.1079
  531MOL0     H71682   2.628  10.362   8.988 -3.3663  0.9002 -0.9802
  531MOL0     H71683   2.421  10.441   8.761  1.4473  1.3730  2.5319
  531MOL0     H71684   2.479  10.308   8.653  2.3904 -1.2265  0.4359
  531MOL0     H71685   2.456  10.270   8.818 -0.9568  1.2577  1.2495
  532MOL0     O71686   2.981   8.095   8.490 -0.1697  0.0319  0.9372
  532MOL0     C71687   2.930   8.083   8.380 -0.7405 -0.3249  0.0210
  532MOL0     O71688   2.871   8.185   8.317  0.0476 -0.0830  0.1640
  532MOL0     C71689   2.885   8.316   8.371 -0.2445  0.1776 -0.9108
  532MOL0     C71690   2.794   8.356   8.463 -0.5666 -0.5609 -0.0439
  532MOL0     C71691   2.813   8.488   8.508  0.0605 -0.0048  0.4953
  532MOL0     C71692   2.921   8.572   8.480  0.1231  0.5441 -0.5607
  532MOL0     O71693   2.948   8.697   8.536  0.0404  0.9827 -0.6950
  532MOL0     C71694   3.082   8.731   8.568  0.5971  0.7549  0.7795
  532MOL0     C71695   3.082   8.820   8.690 -0.3949  0.1786  1.4381
  532MOL0     C71696   3.040   8.751   8.813  0.2211 -0.0000 -0.0512
  532MOL0     C71697   2.951   8.837   8.902  0.3423 -0.5313 -0.0887
  532MOL0     C71698   2.819   8.868   8.831  0.2294  1.1322 -0.6300
  532MOL0     C71699   2.731   8.746   8.815  0.1060 -0.1284 -0.4330
  532MOL0     C71700   2.596   8.776   8.747 -0.1004 -0.2893  0.3172
  532MOL0     C71701   2.480   8.836   8.825  0.5421  0.2232 -0.2983
  532MOL0     N71702   2.375   8.888   8.734 -1.0501 -0.1196 -0.0241
  532MOL0     C71703   2.391   8.983   8.643  0.0291  0.6009 -0.0227
  532MOL0     C71704   2.284   8.956   8.560 -0.2854 -0.6657  1.0920
  532MOL0     C71705   2.289   8.993   8.409 -0.6715  0.3166  0.1261
  532MOL0     C71706   2.365   8.886   8.320 -0.4722 -0.5877 -0.5364
  532MOL0     C71707   2.522   8.903   8.349 -0.4039  0.5629  0.8172
  532MOL0     C71708   2.583   8.779   8.293  0.8197 -0.4467 -0.6211
  532MOL0     O71709   2.557   8.764   8.150 -0.5708 -0.1280 -0.4818
  532MOL0     C71710   2.640   8.696   8.079 -0.7508  0.8572  0.6388
  532MOL0     C71711   2.735   8.607   8.130 -0.1278 -0.1407 -0.7964
  532MOL0     C71712   2.817   8.535   8.037  0.4163 -0.6951 -0.3181
  532MOL0     C71713   2.816   8.567   7.895 -0.5552  0.4466 -0.9420
  532MOL0     C71714   2.915   8.510   7.793  0.1351 -0.2089  0.1441
  532MOL0     O71715   2.920   8.577   7.678 -0.0655  0.6110 -0.7474
  532MOL0     C71716   3.017   8.546   7.584  0.1431  1.0690 -0.5820
  532MOL0     C71717   3.047   8.408   7.555 -0.0078 -0.0247  0.4484
  532MOL0     C71718   3.132   8.383   7.451  0.4608 -0.5269  0.9631
  532MOL0     C71719   3.198   8.484   7.377 -0.5072  0.4788  0.8034
  532MOL0     O71720   3.289   8.433   7.284  0.2852  0.7065  0.7390
  532MOL0     C71721   3.402   8.517   7.259  0.3429  0.4337 -0.2797
  532MOL0     C71722   3.503   8.459   7.169 -0.9895 -0.3060 -0.5413
  532MOL0     C71723   3.638   8.515   7.206  0.3707 -0.1625  0.3214
  532MOL0     C71724   3.744   8.451   7.123 -0.2086 -0.3070 -0.3198
  532MOL0     C71725   3.885   8.500   7.160 -0.4520  0.1372  0.1637
  532MOL0     C71726   3.996   8.453   7.057 -0.4542  0.0279  0.7006
  532MOL0     C71727   4.137   8.462   7.106  0.4937 -0.9588  0.0268
  532MOL0     C71728   4.240   8.402   7.009  0.6981  0.6637  0.4118
  532MOL0    Cl71729   4.223   8.492   6.856 -0.2297  0.2627 -0.0674
  532MOL0     C71730   3.174   8.617   7.404 -0.2952  0.6684 -0.1870
  532MOL0     C71731   3.086   8.647   7.512  0.1774  0.9293  0.5008
  532MOL0     O71732   2.997   8.432   7.833 -0.1240 -0.3342  0.3219
  532MOL0     C71733   2.716   8.659   7.841  0.2371  0.1551 -0.7884
  532MOL0     C71734   2.632   8.721   7.938  1.3583 -0.4352  0.1758
  532MOL0     N71735   2.205   8.856   8.612 -0.4316 -0.3677  0.7599
  532MOL0     N71736   2.263   8.813   8.710 -0.3057  0.1724 -0.2611
  532MOL0     C71737   2.996   8.532   8.364 -0.0517  0.8540 -0.5349
  532MOL0     C71738   2.970   8.403   8.315  0.1745  0.0367 -0.0933
  532MOL0     C71739   2.930   7.951   8.315 -0.2447  0.0875  0.2233
  532MOL0     C71740   2.917   7.941   8.170  0.0894  0.3533 -0.0338
  532MOL0     C71741   2.919   7.815   8.110  0.2444  0.9024 -0.2305
  532MOL0     C71742   2.923   7.699   8.180  0.5860  0.6616 -0.0308
  532MOL0     O71743   2.929   7.571   8.139  0.2369  0.5150 -0.1928
  532MOL0     C71744   2.850   7.528   8.026 -0.0325 -0.2217 -0.2919
  532MOL0     C71745   2.705   7.518   8.073  0.6171 -0.0924  0.7563
  532MOL0     C71746   2.685   7.428   8.197 -0.3086 -0.5039 -0.2802
  532MOL0     C71747   2.535   7.416   8.226 -1.0158  0.5481 -1.0957
  532MOL0     C71748   2.518   7.343   8.350 -0.2857 -0.5320  0.1490
  532MOL0     C71749   2.515   7.295   8.465 -0.3008 -0.2480  0.6098
  532MOL0     C71750   2.945   7.707   8.318 -0.1260  0.3234 -0.1127
  532MOL0     C71751   2.958   7.826   8.381  0.5787 -0.7414  0.1071
  532MOL0     C71752   3.019   7.816   8.524  1.0664 -0.9459  0.2552
  532MOL0     H71753   2.709   8.296   8.495  0.4865 -2.0648  0.0231
  532MOL0     H71754   2.730   8.534   8.561 -0.5115  0.4713 -0.7483
  532MOL0     H71755   3.145   8.647   8.598 -0.1130  0.9172  2.9207
  532MOL0     H71756   3.125   8.787   8.485  2.0111  2.2595  2.4139
  532MOL0     H71757   3.024   8.908   8.662  0.2911  0.7985  1.9217
  532MOL0     H71758   3.179   8.867   8.712  0.6314 -0.3356 -1.5967
  532MOL0     H71759   3.126   8.728   8.878 -1.8092 -2.3455  2.0335
  532MOL0     H71760   2.993   8.657   8.783  0.1516  1.2693 -4.5278
  532MOL0     H71761   2.952   8.796   9.004  1.3953  0.6755  0.4133
  532MOL0     H71762   2.995   8.935   8.921 -0.8231 -0.2038  1.1409
  532MOL0     H71763   2.758   8.936   8.891 -1.1702 -1.6352  1.2687
  532MOL0     H71764   2.838   8.911   8.732 -2.6683  3.9068 -0.1411
  532MOL0     H71765   2.771   8.660   8.761 -3.1173 -2.4091  0.5099
  532MOL0     H71766   2.710   8.707   8.915  4.8240  0.0590  0.8887
  532MOL0     H71767   2.558   8.688   8.693  0.5326  0.5253 -1.5483
  532MOL0     H71768   2.630   8.840   8.665  0.7292 -0.2388  0.6962
  532MOL0     H71769   2.438   8.761   8.894  0.7397 -0.9066 -1.3809
  532MOL0     H71770   2.525   8.917   8.882  1.1205 -1.0351  1.0972
  532MOL0     H71771   2.474   9.051   8.629  2.3537 -2.1655 -0.6315
  532MOL0     H71772   2.187   8.986   8.371  0.8414 -0.3975 -4.3908
  532MOL0     H71773   2.321   9.094   8.382  0.5746 -0.2790 -0.7187
  532MOL0     H71774   2.328   8.788   8.352 -1.8804  0.1856  0.3187
  532MOL0     H71775   2.352   8.907   8.214 -1.4158  2.8476  0.1190
  532MOL0     H71776   2.556   8.911   8.453 -0.0678  0.9671  0.6802
  532MOL0     H71777   2.573   8.989   8.306  1.9925 -1.5902 -0.9017
  532MOL0     H71778   2.530   8.691   8.332  0.3726 -0.1130 -0.4616
  532MOL0     H71779   2.688   8.789   8.321  0.3288  1.7314  0.6535
  532MOL0     H71780   2.742   8.575   8.233 -1.2640 -2.3552 -1.3517
  532MOL0     H71781   2.888   8.463   8.078  2.8167  1.5662 -0.2560
  532MOL0     H71782   2.987   8.330   7.599 -1.5026 -0.4324 -2.0939
  532MOL0     H71783   3.165   8.288   7.410  0.7797  0.3733 -0.9581
  532MOL0     H71784   3.368   8.613   7.219 -0.2111  0.2606 -0.2318
  532MOL0     H71785   3.446   8.521   7.359  2.9377  0.1522 -1.3230
  532MOL0     H71786   3.509   8.351   7.182 -1.1579 -0.5610 -2.3521
  532MOL0     H71787   3.480   8.487   7.066 -1.6905  0.1965 -0.2588
  532MOL0     H71788   3.638   8.621   7.178  1.3214 -0.3362 -0.3578
  532MOL0     H71789   3.648   8.494   7.313  0.0623  1.1012  0.6215
  532MOL0     H71790   3.732   8.472   7.017 -1.6839  0.3455 -0.0351
  532MOL0     H71791   3.741   8.342   7.140  0.6252 -0.1651  0.8704
  532MOL0     H71792   3.919   8.454   7.254 -1.8981  1.0442  1.1715
  532MOL0     H71793   3.890   8.609   7.171 -0.6512  0.0479  1.3054
  532MOL0     H71794   3.982   8.354   7.012  0.2357  0.2386 -0.0097
  532MOL0     H71795   4.002   8.514   6.966  1.1729 -1.6358 -0.4035
  532MOL0     H71796   4.154   8.423   7.207 -2.3431  0.5752  1.2149
  532MOL0     H71797   4.166   8.566   7.125 -1.5250 -0.7529  2.6839
  532MOL0     H71798   4.334   8.432   7.055  1.5114 -2.2915  0.9192
  532MOL0     H71799   4.238   8.295   6.986  4.4332  1.0276 -2.5068
  532MOL0     H71800   3.223   8.701   7.357  1.8184  0.5406  1.6427
  532MOL0     H71801   3.050   8.745   7.541 -1.6457 -0.3424  2.8085
  532MOL0     H71802   2.695   8.669   7.735 -4.2372  0.8194 -0.0466
  532MOL0     H71803   2.560   8.801   7.926 -0.4225 -2.2534 -2.2047
  532MOL0     H71804   3.066   8.593   8.307 -1.0479  3.3093  0.7019
  532MOL0     H71805   3.026   8.360   8.233 -0.6312 -0.8890 -0.1700
  532MOL0     H71806   2.912   8.022   8.098  1.5058 -1.2668 -2.1138
  532MOL0     H71807   2.930   7.820   8.002  2.7811 -2.9125 -0.3505
  532MOL0     H71808   2.878   7.426   7.997  0.0232 -0.5552  0.8968
  532MOL0     H71809   2.867   7.609   7.954  2.1984  0.9786  1.4743
  532MOL0     H71810   2.652   7.464   7.994  1.0958  3.0288 -1.9088
  532MOL0     H71811   2.667   7.621   8.081  0.6582  0.5007 -3.7897
  532MOL0     H71812   2.731   7.492   8.273 -2.5615  1.8150 -0.7093
  532MOL0     H71813   2.741   7.337   8.174  1.4038 -0.0240  1.7021
  532MOL0     H71814   2.501   7.519   8.237  4.2462  2.3361  2.3921
  532MOL0     H71815   2.470   7.360   8.158 -1.0104 -0.6539 -0.1523
  532MOL0     H71816   2.518   7.253   8.564 -0.8116  0.8908  1.1217
  532MOL0     H71817   2.968   7.616   8.374 -1.0062  0.9348  1.2750
  532MOL0     H71818   3.069   7.721   8.546  0.9744 -0.8325  0.9923
  532MOL0     H71819   3.100   7.889   8.537 -0.2856  0.4733  1.0572
  532MOL0     H71820   2.934   7.827   8.592 -1.2482 -1.9518 -2.3342
  533MOL0     O71821   0.432   2.671   7.288 -0.4466 -0.4798 -0.5850
  533MOL0     C71822   0.550   2.649   7.298 -0.6781 -0.1516 -0.2877
  533MOL0     O71823   0.609   2.605   7.412 -0.0534  0.5571  0.0482
  533MOL0     C71824   0.539   2.619   7.527  0.1509 -1.5243 -0.2646
  533MOL0     C71825   0.417   2.553   7.562  0.1870  0.0885 -0.0550
  533MOL0     C71826   0.373   2.555   7.690  0.1299  0.4306 -0.9258
  533MOL0     C71827   0.419   2.650   7.776 -0.1840 -0.5858  0.2895
  533MOL0     O71828   0.379   2.672   7.907  0.3524  0.7412 -0.8967
  533MOL0     C71829   0.414   2.556   7.994  0.2382 -0.4696 -0.3756
  533MOL0     C71830   0.478   2.644   8.110  0.1805 -0.6979 -0.3174
  533MOL0     C71831   0.563   2.568   8.210 -0.3673  0.8045  0.4999
  533MOL0     C71832   0.696   2.622   8.224 -0.6234  0.8601  0.1844
  533MOL0     C71833   0.768   2.544   8.338  1.0255 -0.1420 -0.6317
  533MOL0     C71834   0.796   2.392   8.315  0.0914  0.0669  0.0960
  533MOL0     C71835   0.936   2.383   8.262 -0.6919  0.0706  0.8601
  533MOL0     C71836   1.050   2.420   8.361 -0.5330  0.3439  0.0252
  533MOL0     N71837   1.062   2.331   8.484  0.0848  0.4194  0.9902
  533MOL0     C71838   1.085   2.361   8.610  0.0900 -0.3242 -0.3719
  533MOL0     C71839   1.107   2.249   8.670  0.7497 -0.2278 -0.2887
  533MOL0     C71840   1.147   2.228   8.816 -0.5840  0.0913 -0.1176
  533MOL0     C71841   1.198   2.084   8.841  0.1387  0.9221 -0.7719
  533MOL0     C71842   1.201   2.049   8.998 -0.6501  0.1022  0.2801
  533MOL0     C71843   1.263   2.159   9.090  0.4083 -0.1773  0.3297
  533MOL0     O71844   1.398   2.216   9.073  0.8694  0.1019  0.6213
  533MOL0     C71845   1.490   2.118   9.093 -0.1884 -0.0611  0.6677
  533MOL0     C71846   1.547   2.059   8.983  0.8515  0.5099 -0.9947
  533MOL0     C71847   1.643   1.962   8.994  0.0605  1.0814  0.3723
  533MOL0     C71848   1.681   1.905   9.126  0.4479 -0.6818  1.6083
  533MOL0     C71849   1.777   1.808   9.141 -0.2677  0.2817  0.9779
  533MOL0     O71850   1.838   1.800   9.266  0.5260 -0.0817  0.3969
  533MOL0     C71851   1.897   1.680   9.307  0.0083 -0.5372 -0.0952
  533MOL0     C71852   1.872   1.631   9.433 -0.6688  1.1882  0.2320
  533MOL0     C71853   1.937   1.518   9.477 -0.4566 -0.3355 -0.7601
  533MOL0     C71854   2.043   1.462   9.401  0.0330 -0.6258  0.1896
  533MOL0     O71855   2.110   1.356   9.449  0.1643  0.2957 -0.4543
  533MOL0     C71856   2.087   1.292   9.573 -0.6121  0.3332 -0.7199
  533MOL0     C71857   1.975   1.194   9.560  0.0129 -0.5675 -0.0474
  533MOL0     C71858   1.979   1.076   9.459  0.3565 -0.6715  0.8250
  533MOL0     C71859   1.840   1.017   9.459 -0.0315 -0.1629  0.8235
  533MOL0     C71860   1.823   0.897   9.371  1.1285 -0.1722 -0.2076
  533MOL0     C71861   1.930   0.790   9.412 -0.1961 -0.6605  0.4551
  533MOL0     C71862   1.887   0.662   9.360  0.0504 -0.4216  0.3551
  533MOL0     C71863   1.886   0.628   9.217  0.2034 -0.8885  0.5869
  533MOL0    Cl71864   2.051   0.585   9.178  0.0466 -0.2629 -0.3879
  533MOL0     C71865   2.076   1.517   9.279  0.2478  0.5414  0.2532
  533MOL0     C71866   1.995   1.615   9.226 -0.0518  0.1779  0.6015
  533MOL0     O71867   1.781   1.721   9.047  0.1249 -0.2606 -0.5621
  533MOL0     C71868   1.620   1.958   9.235 -0.9013 -0.5935  0.0038
  533MOL0     C71869   1.528   2.066   9.229  0.7289 -0.6086 -0.3400
  533MOL0     N71870   1.090   2.154   8.575 -0.6889  0.4375  0.2370
  533MOL0     N71871   1.080   2.203   8.471  0.2608 -0.4009  0.5129
  533MOL0     C71872   0.525   2.731   7.733  0.7676  0.0281 -0.0142
  533MOL0     C71873   0.593   2.718   7.614  0.0292  0.3454 -0.4372
  533MOL0     C71874   0.640   2.671   7.183 -1.3771 -0.2203  1.0337
  533MOL0     C71875   0.650   2.798   7.115  0.4946  0.7760 -0.4260
  533MOL0     C71876   0.729   2.819   7.001 -0.1289 -0.2615 -0.1500
  533MOL0     C71877   0.810   2.727   6.950  1.0585 -0.4458  0.1334
  533MOL0     O71878   0.871   2.747   6.829  0.1876 -0.6107  0.0749
  533MOL0     C71879   0.947   2.644   6.772  0.1588  0.1497  0.8761
  533MOL0     C71880   1.002   2.707   6.644 -0.4054 -0.4816  0.7595
  533MOL0     C71881   0.911   2.789   6.554  0.0541  0.1172 -0.7266
  533MOL0     C71882   0.851   2.707   6.439 -1.3189 -0.0469 -0.3816
  533MOL0     C71883   0.726   2.642   6.480 -0.0441  0.1482  0.5009
  533MOL0     C71884   0.631   2.574   6.512  0.0416  0.1533  0.2303
  533MOL0     C71885   0.808   2.602   7.020 -0.5265 -0.2480 -0.1247
  533MOL0     C71886   0.724   2.572   7.131  0.1478  0.3152 -0.0629
  533MOL0     C71887   0.732   2.432   7.184 -0.0485  0.7794  0.2800
  533MOL0     H71888   0.373   2.488   7.486  1.8434 -2.1897  0.7982
  533MOL0     H71889   0.292   2.486   7.707  0.5041 -0.0141 -0.9208
  533MOL0     H71890   0.320   2.507   8.020 -0.1535 -0.8985 -2.4162
  533MOL0     H71891   0.500   2.507   7.948  3.7191  2.7263  2.1522
  533MOL0     H71892   0.400   2.688   8.172  3.2615  2.0362  2.0079
  533MOL0     H71893   0.528   2.732   8.068  1.4212 -1.3701 -0.3129
  533MOL0     H71894   0.560   2.464   8.177  0.9164  1.3154 -1.3881
  533MOL0     H71895   0.506   2.563   8.304  0.3433  0.0159  0.8993
  533MOL0     H71896   0.758   2.616   8.134 -2.2977 -3.0695 -0.9136
  533MOL0     H71897   0.682   2.728   8.249 -1.7849  0.8259 -0.2293
  533MOL0     H71898   0.858   2.601   8.365 -0.5964  1.6953  1.1648
  533MOL0     H71899   0.711   2.555   8.430  0.4874  2.0237 -1.1846
  533MOL0     H71900   0.796   2.337   8.410  1.2243  2.2881  1.4573
  533MOL0     H71901   0.726   2.347   8.245  1.2499  1.0212 -1.7490
  533MOL0     H71902   0.951   2.447   8.174  0.7342 -2.5553 -0.9545
  533MOL0     H71903   0.942   2.277   8.237  0.1593  0.2617  0.1911
  533MOL0     H71904   1.148   2.417   8.314 -0.4851 -5.6602 -0.2268
  533MOL0     H71905   1.044   2.521   8.405  1.7190  0.2154  0.7450
  533MOL0     H71906   1.097   2.462   8.648  0.3478  0.3986 -2.2563
  533MOL0     H71907   1.230   2.298   8.829 -0.0754  0.0981 -2.8667
  533MOL0     H71908   1.071   2.261   8.888  2.2065  0.5857  2.8520
  533MOL0     H71909   1.132   2.021   8.781  1.8321 -0.0935 -1.6678
  533MOL0     H71910   1.299   2.069   8.801  1.9851 -2.9264  4.2415
  533MOL0     H71911   1.252   1.953   9.012  1.4802  0.6957 -2.4424
  533MOL0     H71912   1.100   2.021   9.030 -0.1141 -1.1711  0.9667
  533MOL0     H71913   1.245   2.127   9.192 -2.2430 -1.9215 -0.5849
  533MOL0     H71914   1.219   2.256   9.064  2.1199  0.5754  0.0582
  533MOL0     H71915   1.517   2.102   8.888 -0.5444 -1.0253 -1.2903
  533MOL0     H71916   1.686   1.920   8.903 -0.9208  0.8402  0.0073
  533MOL0     H71917   1.794   1.676   9.494 -2.4858  0.8675 -1.7458
  533MOL0     H71918   1.915   1.475   9.574 -1.2857 -1.3587 -1.3720
  533MOL0     H71919   2.177   1.234   9.597 -0.4938  1.3810  1.6111
  533MOL0     H71920   2.081   1.367   9.652  0.5377  1.2765 -1.4889
  533MOL0     H71921   1.960   1.152   9.660  0.8431  1.6748  1.1016
  533MOL0     H71922   1.891   1.259   9.535  1.7201 -0.2682 -6.9450
  533MOL0     H71923   1.992   1.124   9.361 -0.8775 -0.7310  0.6187
  533MOL0     H71924   2.057   1.003   9.480  1.7858  0.5060 -0.1698
  533MOL0     H71925   1.769   1.089   9.416  1.6870 -0.0600 -2.0997
  533MOL0     H71926   1.818   0.991   9.563  0.6771 -0.0866  0.9962
  533MOL0     H71927   1.823   0.930   9.266  3.2717  0.2213 -0.1331
  533MOL0     H71928   1.725   0.854   9.390 -0.7012  2.9776 -1.7341
  533MOL0     H71929   2.019   0.821   9.357 -1.9148 -3.3066 -4.5010
  533MOL0     H71930   1.951   0.778   9.519  1.1187 -1.0519  0.1634
  533MOL0     H71931   1.781   0.652   9.385 -0.7466  3.2764 -0.8514
  533MOL0     H71932   1.942   0.590   9.421  0.6215 -1.7513 -1.6410
  533MOL0     H71933   1.819   0.545   9.197  0.9587 -1.7632  1.5974
  533MOL0     H71934   1.836   0.704   9.155  0.0174  0.6788  2.5476
  533MOL0     H71935   2.159   1.473   9.224 -0.5895 -0.5775 -0.1463
  533MOL0     H71936   2.016   1.666   9.133 -2.1127 -0.6659 -0.3940
  533MOL0     H71937   1.655   1.947   9.337 -2.4876  2.4891  0.9877
  533MOL0     H71938   1.488   2.096   9.325  0.9848  0.1975 -0.4798
  533MOL0     H71939   0.545   2.802   7.813  0.1875 -0.3148  0.4416
  533MOL0     H71940   0.686   2.771   7.597 -1.3074  2.3880 -1.7006
  533MOL0     H71941   0.587   2.879   7.150 -1.0289 -0.9107  0.9339
  533MOL0     H71942   0.725   2.916   6.953  0.5529 -0.1026  0.1136
  533MOL0     H71943   0.905   2.547   6.746  2.2742 -0.4829 -0.3982
  533MOL0     H71944   1.030   2.611   6.835  2.1969 -0.9003 -2.1380
  533MOL0     H71945   1.040   2.619   6.592  2.0922  0.4222  0.9364
  533MOL0     H71946   1.092   2.764   6.669 -0.2925 -0.6694  0.7836
  533MOL0     H71947   0.961   2.873   6.504 -0.9098 -0.7831 -3.3802
  533MOL0     H71948   0.831   2.822   6.621  1.5950  2.0606  0.2584
  533MOL0     H71949   0.831   2.770   6.351  2.3737  0.3547 -1.0694
  533MOL0     H71950   0.916   2.633   6.391 -2.0258  0.3164 -1.9645
  533MOL0     H71951   0.542   2.538   6.560  1.4943  0.3661  3.2536
  533MOL0     H71952   0.880   2.530   6.982  2.7500  3.4485 -1.5356
  533MOL0     H71953   0.633   2.398   7.214 -0.4233  0.2525 -1.4384
  533MOL0     H71954   0.765   2.363   7.106  0.2670  0.6779  0.5015
  533MOL0     H71955   0.814   2.434   7.256  3.3203 -0.0435 -3.1768
  534MOL0     O71956  10.651   0.758   1.378  0.0548  0.0260  0.2707
  534MOL0     C71957  10.535   0.742   1.413 -0.3083 -0.3841  0.6108
  534MOL0     O71958  10.418   0.794   1.351 -0.4929  0.6616  0.7026
  534MOL0     C71959  10.439   0.880   1.247 -1.5626 -0.6465  0.3264
  534MOL0     C71960  10.395   1.014   1.260  0.7169 -0.7057 -0.4748
  534MOL0     C71961  10.422   1.105   1.152  0.3942  0.3964 -0.5526
  534MOL0     C71962  10.485   1.067   1.042 -0.8756  0.1082 -0.6583
  534MOL0     O71963  10.543   1.150   0.943  0.6048 -0.3685 -0.2210
  534MOL0     C71964  10.547   1.298   0.964  1.4469 -0.1289 -0.8742
  534MOL0     C71965  10.650   1.333   1.072  0.0386 -0.1539 -0.3108
  534MOL0     C71966  10.652   1.485   1.082  0.0244 -1.0278  0.2682
  534MOL0     C71967  10.740   1.536   1.193  0.8649  0.0661  0.1682
  534MOL0     C71968  10.748   1.687   1.180 -0.4644 -0.1201  0.6121
  534MOL0     C71969  10.849   1.739   1.269  0.2526 -0.8786  0.6188
  534MOL0     C71970  10.873   1.888   1.237 -0.5438 -0.6086  0.7241
  534MOL0     C71971  10.958   1.953   1.346  1.0601 -0.9490 -0.2394
  534MOL0     N71972  10.879   2.012   1.452 -0.4875  0.2685 -0.3737
  534MOL0     C71973  10.819   1.943   1.550  0.6461  0.2765 -0.1809
  534MOL0     C71974  10.725   2.032   1.598  0.6392  0.9196  0.2189
  534MOL0     C71975  10.627   1.992   1.696 -0.3053  0.3528 -0.1224
  534MOL0     C71976  10.678   1.998   1.845 -0.2047  0.0935  0.1745
  534MOL0     C71977  10.568   2.020   1.953 -0.7615  1.1628  0.5906
  534MOL0     C71978  10.633   2.017   2.093  0.6111  0.6684  0.1176
  534MOL0     O71979  10.741   2.119   2.096  0.4409 -0.6397  0.5517
  534MOL0     C71980  10.875   2.073   2.100  0.2107  0.1579  0.2415
  534MOL0     C71981  10.917   1.963   2.182 -0.6212 -0.3955  0.6233
  534MOL0     C71982  11.059   1.942   2.198  0.0458  0.6548  0.0327
  534MOL0     C71983  11.149   2.034   2.137  0.5614  0.6713  1.0002
  534MOL0     C71984  11.292   2.000   2.148  0.8592  0.0173  0.2627
  534MOL0     O71985  11.328   1.874   2.203 -0.2958  0.3799  0.1278
  534MOL0     C71986  11.457   1.822   2.178 -0.1472 -0.3271 -0.5354
  534MOL0     C71987  11.517   1.757   2.286  0.5092 -1.1138 -0.3296
  534MOL0     C71988  11.642   1.710   2.285 -0.2224  0.4727 -0.2741
  534MOL0     C71989  11.719   1.703   2.176  0.8529 -0.3526  0.3545
  534MOL0     O71990  11.837   1.648   2.155 -1.2654  0.8565 -0.9997
  534MOL0     C71991  11.927   1.640   2.263  0.6352 -0.2588 -0.6243
  534MOL0     C71992  12.071   1.628   2.207 -0.8655  0.9020 -0.4230
  534MOL0     C71993  12.079   1.515   2.104  0.5359 -0.7430  0.3817
  534MOL0     C71994  12.052   1.372   2.159 -0.0162 -0.3823  0.3607
  534MOL0     C71995  12.103   1.250   2.077  0.5080  0.4721 -0.5065
  534MOL0     C71996  12.252   1.271   2.032 -0.2093 -0.4039 -0.1066
  534MOL0     C71997  12.308   1.140   1.965 -0.0461 -0.0888  0.1090
  534MOL0     C71998  12.463   1.130   1.985  0.7130  0.0880 -0.6770
  534MOL0    Cl71999  12.526   1.281   1.917 -0.5669 -0.1690 -0.2318
  534MOL0     C72000  11.671   1.768   2.062  0.2930  0.7861  0.5642
  534MOL0     C72001  11.542   1.826   2.054 -0.4314  0.4257 -0.7198
  534MOL0     O72002  11.367   2.081   2.114 -0.3678 -0.0975 -0.3184
  534MOL0     C72003  11.105   2.138   2.048  0.5848  1.1864 -0.5433
  534MOL0     C72004  10.963   2.161   2.034  0.4992 -0.1608 -0.3444
  534MOL0     N72005  10.723   2.150   1.528  0.9802  0.2930  0.4702
  534MOL0     N72006  10.822   2.137   1.433  0.8994  0.1625  0.2768
  534MOL0     C72007  10.517   0.933   1.026  0.5820  0.1581 -0.1957
  534MOL0     C72008  10.491   0.834   1.128 -0.3683 -0.2690  0.4296
  534MOL0     C72009  10.502   0.663   1.532  0.5264  0.3188  1.0900
  534MOL0     C72010  10.409   0.556   1.520  0.2733 -0.6709 -0.4866
  534MOL0     C72011  10.361   0.494   1.637 -0.2773  0.8384 -0.4661
  534MOL0     C72012  10.406   0.536   1.768 -0.3628  0.9058  0.5733
  534MOL0     O72013  10.356   0.492   1.887 -0.7865 -0.3247  0.5146
  534MOL0     C72014  10.317   0.353   1.890 -0.3216  0.0195 -0.0882
  534MOL0     C72015  10.248   0.317   2.021 -0.1272 -1.1904  0.0947
  534MOL0     C72016  10.187   0.179   2.003  0.6841 -0.1692 -0.5691
  534MOL0     C72017  10.085   0.126   2.095 -0.5655  0.3696  0.1893
  534MOL0     C72018  10.125   0.120   2.238  0.2972  0.4390 -0.1838
  534MOL0     C72019  10.172   0.112   2.347 -0.5384  0.6040 -0.3251
  534MOL0     C72020  10.510   0.630   1.774  0.0042  0.4110  0.0809
  534MOL0     C72021  10.556   0.695   1.657 -0.1766  0.6465  0.3079
  534MOL0     C72022  10.670   0.790   1.683  0.1664  0.1892 -0.1591
  534MOL0     H72023  10.342   1.043   1.350  0.3115 -1.3245 -0.5076
  534MOL0     H72024  10.403   1.210   1.171  2.6186  0.5123  1.4736
  534MOL0     H72025  10.565   1.345   0.867 -0.8577  0.9324 -0.8435
  534MOL0     H72026  10.450   1.339   0.992  0.2522 -1.9986 -2.0339
  534MOL0     H72027  10.750   1.300   1.046  0.1961  1.8763 -2.6959
  534MOL0     H72028  10.617   1.290   1.167 -0.4408 -2.4815 -1.4519
  534MOL0     H72029  10.551   1.523   1.097  0.2150  0.7897 -2.2311
  534MOL0     H72030  10.690   1.521   0.985 -2.1905 -1.6230 -0.8927
  534MOL0     H72031  10.699   1.507   1.291 -1.4160  2.8387  0.1565
  534MOL0     H72032  10.829   1.480   1.162 -0.8111 -1.3640 -2.4890
  534MOL0     H72033  10.774   1.710   1.076 -0.2620 -1.1001  0.4304
  534MOL0     H72034  10.646   1.718   1.203 -1.5593 -2.0891 -1.1315
  534MOL0     H72035  10.815   1.741   1.373  1.1236 -0.3011  0.9089
  534MOL0     H72036  10.939   1.678   1.252  1.1846  0.9073 -1.2327
  534MOL0     H72037  10.778   1.940   1.221  0.7215  1.2710 -1.3352
  534MOL0     H72038  10.924   1.895   1.141 -1.7373 -2.1703 -0.0713
  534MOL0     H72039  11.032   1.880   1.380  2.2773  0.9332  1.3623
  534MOL0     H72040  11.020   2.033   1.304 -0.8026  1.5740  1.4989
  534MOL0     H72041  10.842   1.841   1.581  2.6249  0.5565 -0.5779
  534MOL0     H72042  10.536   2.052   1.684  0.5823  1.9327  0.6397
  534MOL0     H72043  10.602   1.886   1.692 -2.4286  0.7040  1.8539
  534MOL0     H72044  10.718   1.899   1.865 -1.8365 -0.8094 -0.8126
  534MOL0     H72045  10.750   2.080   1.850  0.4600 -0.3856 -1.1598
  534MOL0     H72046  10.496   1.938   1.947 -0.3552  0.8213  0.2640
  534MOL0     H72047  10.529   2.119   1.927 -1.8059  0.4754 -0.5431
  534MOL0     H72048  10.674   1.917   2.111  2.3559  1.6330  1.7998
  534MOL0     H72049  10.555   2.044   2.165 -1.6783 -4.2507 -0.1323
  534MOL0     H72050  10.851   1.910   2.250  0.6875  0.7541  2.8730
  534MOL0     H72051  11.094   1.853   2.248 -0.9062  0.4124  0.2958
  534MOL0     H72052  11.460   1.758   2.378 -0.9266  3.2482 -1.0077
  534MOL0     H72053  11.684   1.660   2.372  0.2372 -2.3622 -2.0007
  534MOL0     H72054  11.914   1.725   2.332 -2.6610  1.9427 -3.6109
  534MOL0     H72055  11.893   1.552   2.318 -0.5577 -1.0203 -2.4805
  534MOL0     H72056  12.090   1.725   2.161  1.0650 -0.1241 -1.9612
  534MOL0     H72057  12.131   1.620   2.298  0.0687 -1.2226 -1.1519
  534MOL0     H72058  12.005   1.536   2.026 -0.6759  0.6927  1.8444
  534MOL0     H72059  12.182   1.514   2.067  0.1668  0.3595 -0.7328
  534MOL0     H72060  11.948   1.370   2.193 -1.4507  1.4622 -3.4071
  534MOL0     H72061  12.106   1.369   2.255  0.0367 -2.5569  0.3039
  534MOL0     H72062  12.040   1.228   1.990 -0.9734 -2.3372  1.1172
  534MOL0     H72063  12.096   1.164   2.145 -0.9093  0.7059 -0.3111
  534MOL0     H72064  12.248   1.353   1.961 -0.6511 -2.0043 -2.0248
  534MOL0     H72065  12.316   1.306   2.114  0.1351  0.7485 -0.8463
  534MOL0     H72066  12.273   1.146   1.862 -3.6768  2.2395  1.2787
  534MOL0     H72067  12.264   1.046   2.000 -0.2345 -1.1402 -2.7433
  534MOL0     H72068  12.487   1.120   2.091 -2.3987  1.5122  0.2702
  534MOL0     H72069  12.498   1.040   1.934  1.4620  0.0338 -0.0869
  534MOL0     H72070  11.727   1.767   1.969 -3.1807  0.9379 -1.7415
  534MOL0     H72071  11.503   1.877   1.967 -1.3536  0.2077 -0.4510
  534MOL0     H72072  11.175   2.182   1.978 -0.6408  3.4342 -0.4800
  534MOL0     H72073  10.925   2.240   1.970 -0.2443  0.1474  0.4537
  534MOL0     H72074  10.579   0.915   0.939  0.0559 -0.4820 -0.4487
  534MOL0     H72075  10.503   0.728   1.110  1.2272  0.0104 -0.2960
  534MOL0     H72076  10.363   0.519   1.429 -2.6906 -1.1484  1.0628
  534MOL0     H72077  10.290   0.412   1.626  1.9285 -1.0830 -1.1256
  534MOL0     H72078  10.413   0.301   1.881  0.0840  1.1380 -3.5679
  534MOL0     H72079  10.250   0.324   1.809 -0.8481 -0.6661  0.5864
  534MOL0     H72080  10.166   0.387   2.038 -1.9235 -3.1322 -0.1782
  534MOL0     H72081  10.314   0.322   2.108  3.1230  2.9541 -2.2088
  534MOL0     H72082  10.264   0.104   2.023 -1.9526 -2.1687  3.3687
  534MOL0     H72083  10.156   0.166   1.899  2.5296  0.0312 -1.1906
  534MOL0     H72084   9.997   0.191   2.092 -2.6968 -2.0621  3.1786
  534MOL0     H72085  10.053   0.025   2.068 -0.9685 -0.2870  2.8688
  534MOL0     H72086  10.226   0.126   2.438  2.8426 -2.1995 -1.6469
  534MOL0     H72087  10.550   0.649   1.873  2.7456 -1.0122 -0.6308
  534MOL0     H72088  10.708   0.847   1.597  2.0566  0.4984  0.8137
  534MOL0     H72089  10.644   0.861   1.762 -1.6319 -0.3782 -0.2037
  534MOL0     H72090  10.754   0.729   1.720  0.7076  0.7960 -0.3654
  535MOL0     O72091   8.781   9.729  10.251  0.1818 -0.3482  0.3998
  535MOL0     C72092   8.722   9.764  10.151  0.0563  0.5384  0.8577
  535MOL0     O72093   8.766   9.855  10.060  0.7792  0.3941 -0.1433
  535MOL0     C72094   8.882   9.923  10.092  0.4301  0.8696 -0.6251
  535MOL0     C72095   8.996   9.875  10.171  0.9892 -0.5878 -0.5679
  535MOL0     C72096   9.101   9.966  10.201 -0.7820 -0.1233 -0.1638
  535MOL0     C72097   9.087  10.104  10.171  0.3755 -0.7096 -0.4211
  535MOL0     O72098   9.183  10.192  10.217 -0.4591  0.4008 -0.1636
  535MOL0     C72099   9.161  10.331  10.199 -0.3589  0.5234  0.2599
  535MOL0     C72100   9.248  10.415  10.300 -0.2274  0.2692 -0.6219
  535MOL0     C72101   9.269  10.342  10.438  0.3284 -0.2711 -0.0132
  535MOL0     C72102   9.370  10.413  10.531  0.0249 -0.6697  1.0272
  535MOL0     C72103   9.406  10.307  10.632  0.8381 -0.4805 -0.0603
  535MOL0     C72104   9.492  10.374  10.745 -0.3305  0.3921  0.0126
  535MOL0     C72105   9.557  10.291  10.855 -0.1273  0.2051 -0.4523
  535MOL0     C72106   9.699  10.246  10.830  0.4055 -0.5498 -0.5803
  535MOL0     N72107   9.801  10.343  10.876  0.4963  1.9479 -1.5561
  535MOL0     C72108   9.815  10.479  10.865  0.6766 -0.1149 -0.0690
  535MOL0     C72109   9.929  10.501  10.931 -1.5008  0.7471 -0.4380
  535MOL0     C72110  10.001  10.631  10.915  0.1584 -0.8802 -0.5997
  535MOL0     C72111   9.971  10.708  11.055  0.4175  0.1038 -0.0752
  535MOL0     C72112   9.823  10.758  11.067  0.5203 -0.4529  0.4637
  535MOL0     C72113   9.775  10.791  11.206  0.2999  0.9216 -0.5791
  535MOL0     O72114   9.790  10.676  11.299  0.4599 -0.1616 -0.4156
  535MOL0     C72115   9.695  10.581  11.290 -0.2197  0.1112  0.1616
  535MOL0     C72116   9.733  10.444  11.281 -0.2888 -0.1667 -0.6880
  535MOL0     C72117   9.640  10.338  11.292  0.4365 -0.1221 -0.4321
  535MOL0     C72118   9.503  10.373  11.301  0.0217  0.4450 -0.6595
  535MOL0     C72119   9.419  10.251  11.294  0.3894 -0.4741 -0.6978
  535MOL0     O72120   9.463  10.138  11.239  0.3445 -0.3013  0.2685
  535MOL0     C72121   9.373  10.033  11.238  0.1989 -0.4131 -0.3426
  535MOL0     C72122   9.382   9.937  11.337 -0.1561  0.0347 -0.7410
  535MOL0     C72123   9.302   9.822  11.340 -0.0412 -1.0790 -0.1388
  535MOL0     C72124   9.222   9.801  11.240  0.4090  1.4164  0.5850
  535MOL0     O72125   9.155   9.678  11.253  0.0030 -0.2693  0.3438
  535MOL0     C72126   9.067   9.624  11.158  0.4750 -0.2111  0.0329
  535MOL0     C72127   9.010   9.478  11.195  0.0124 -0.3526  0.1645
  535MOL0     C72128   8.938   9.479  11.331 -1.2107 -1.1528 -0.0544
  535MOL0     C72129   8.827   9.594  11.338  0.0561 -0.7538 -0.2658
  535MOL0     C72130   8.733   9.554  11.448 -1.2097 -0.1978  0.4936
  535MOL0     C72131   8.625   9.646  11.493  0.1453 -0.2559 -0.1318
  535MOL0     C72132   8.543   9.693  11.376 -0.3397  0.2220  0.3967
  535MOL0     C72133   8.399   9.734  11.407 -0.1505 -0.5340 -0.4629
  535MOL0    Cl72134   8.371   9.851  11.519  0.5375  0.3729 -0.4177
  535MOL0     C72135   9.202   9.891  11.137 -0.3439  0.5701  0.1196
  535MOL0     C72136   9.277  10.012  11.138 -0.0926  0.7010  1.2179
  535MOL0     O72137   9.299  10.265  11.322  0.0583  0.1762  0.4402
  535MOL0     C72138   9.460  10.503  11.315 -0.3077 -0.3595  0.1792
  535MOL0     C72139   9.560  10.608  11.318 -0.0701 -0.0476  0.6022
  535MOL0     N72140   9.988  10.380  10.969 -0.4092 -0.6789 -0.5669
  535MOL0     N72141   9.895  10.289  10.961 -0.1523 -0.3337 -0.4910
  535MOL0     C72142   8.988  10.141  10.077  0.4874 -0.2896  0.0923
  535MOL0     C72143   8.885  10.051  10.037 -0.2019  0.4800  0.1592
  535MOL0     C72144   8.594   9.687  10.120  0.3119  0.5999 -0.2440
  535MOL0     C72145   8.478   9.771  10.105  0.1041  0.9732  0.3791
  535MOL0     C72146   8.351   9.711  10.082  0.2003  0.0874 -0.9647
  535MOL0     C72147   8.344   9.573  10.051 -0.0756  0.1969  0.3860
  535MOL0     O72148   8.234   9.508  10.007  0.2539 -0.2767  0.3951
  535MOL0     C72149   8.109   9.548  10.067  0.0568 -0.2160  0.1123
  535MOL0     C72150   8.015   9.427  10.077  0.4359  0.8232  0.8735
  535MOL0     C72151   7.873   9.454  10.139 -0.7538 -0.0243  0.5393
  535MOL0     C72152   7.787   9.330  10.156 -0.2022 -0.1702  0.6544
  535MOL0     C72153   7.748   9.281  10.019 -0.8004  0.3309 -0.9045
  535MOL0     C72154   7.720   9.237   9.907 -0.3235 -0.0896 -0.2920
  535MOL0     C72155   8.461   9.501  10.073  0.0596 -1.5101  1.3603
  535MOL0     C72156   8.584   9.553  10.096  0.1002 -0.3413 -0.7156
  535MOL0     C72157   8.710   9.462  10.100  0.2382 -0.7479  0.8750
  535MOL0     H72158   9.006   9.770  10.195  1.5782 -0.1985  1.0172
  535MOL0     H72159   9.176   9.937  10.274 -1.1416  0.5961  0.5020
  535MOL0     H72160   9.180  10.361  10.096 -2.3134 -4.2159 -1.7644
  535MOL0     H72161   9.059  10.360  10.228  0.9360  2.6373  3.2519
  535MOL0     H72162   9.218  10.520  10.305  0.3336  0.5048 -1.8466
  535MOL0     H72163   9.345  10.418  10.248  1.4152 -2.8480  1.9147
  535MOL0     H72164   9.299  10.237  10.426 -2.6045 -1.1533 -0.3909
  535MOL0     H72165   9.176  10.338  10.496 -0.0384  1.5986 -0.4205
  535MOL0     H72166   9.468  10.436  10.487 -0.4121 -0.7552 -0.0168
  535MOL0     H72167   9.328  10.508  10.564  0.0549 -0.1349 -0.4102
  535MOL0     H72168   9.312  10.263  10.668  1.0068 -0.3735  0.5188
  535MOL0     H72169   9.464  10.224  10.588 -0.1526 -0.8743 -0.6641
  535MOL0     H72170   9.574  10.433  10.701  0.7300  0.3822  1.8625
  535MOL0     H72171   9.417  10.440  10.788  0.3442  1.4328 -0.3804
  535MOL0     H72172   9.489  10.207  10.866 -1.8036  1.3264 -1.7048
  535MOL0     H72173   9.570  10.351  10.946  1.0059  1.4272 -1.3662
  535MOL0     H72174   9.711  10.144  10.867  2.2017 -0.1596  0.0186
  535MOL0     H72175   9.710  10.232  10.723 -1.3220  1.0692 -1.0284
  535MOL0     H72176   9.757  10.552  10.808  0.2126 -0.3195  0.1340
  535MOL0     H72177  10.108  10.615  10.898  0.4192 -2.0587  1.7797
  535MOL0     H72178   9.949  10.679  10.832  1.7036  2.5858  0.2325
  535MOL0     H72179   9.992  10.642  11.139 -1.3115 -0.1577  0.1837
  535MOL0     H72180  10.037  10.796  11.056 -0.8708  1.1059  0.1898
  535MOL0     H72181   9.751  10.683  11.035  0.7643  0.5137 -2.6430
  535MOL0     H72182   9.802  10.845  11.005 -1.8071  1.7918  4.0134
  535MOL0     H72183   9.671  10.815  11.186  1.1813  2.5662 -3.8921
  535MOL0     H72184   9.814  10.884  11.249  0.6894  0.3301  0.3870
  535MOL0     H72185   9.840  10.424  11.278 -0.1669  0.2137  0.7229
  535MOL0     H72186   9.668  10.234  11.284 -0.0992 -0.3396  0.4173
  535MOL0     H72187   9.452   9.954  11.418  0.8501 -4.3349 -0.4515
  535MOL0     H72188   9.325   9.752  11.420  0.9827  1.6102  2.1095
  535MOL0     H72189   8.986   9.694  11.138 -0.0620 -0.8254  0.0195
  535MOL0     H72190   9.110   9.604  11.060 -1.7262  0.1969 -1.0656
  535MOL0     H72191   8.931   9.459  11.121 -0.6501  2.7873 -0.0734
  535MOL0     H72192   9.081   9.395  11.190  1.3658  0.7975 -0.3099
  535MOL0     H72193   8.891   9.381  11.347 -1.4592 -0.9940  0.1770
  535MOL0     H72194   9.018   9.497  11.403 -2.0211  1.1103  0.3435
  535MOL0     H72195   8.780   9.597  11.239  5.7050 -2.2661 -3.4587
  535MOL0     H72196   8.861   9.696  11.359 -0.6280 -0.8295  1.3465
  535MOL0     H72197   8.790   9.528  11.537 -2.5747 -2.7258  0.7289
  535MOL0     H72198   8.678   9.470  11.404  0.8495 -0.9802 -0.7052
  535MOL0     H72199   8.562   9.598  11.569 -0.1225 -2.2062 -1.4943
  535MOL0     H72200   8.678   9.731  11.537  0.0369 -0.2556  0.0013
  535MOL0     H72201   8.550   9.627  11.290  1.3722  2.1187 -1.0155
  535MOL0     H72202   8.588   9.785  11.337 -0.6496  0.9118  1.6171
  535MOL0     H72203   8.349   9.780  11.321  0.5651 -1.9693 -1.6863
  535MOL0     H72204   8.345   9.641  11.427  0.2734 -0.6186  0.3065
  535MOL0     H72205   9.129   9.895  11.057  0.3244 -1.3669 -0.6735
  535MOL0     H72206   9.276  10.092  11.065  1.0138 -1.1308 -0.9218
  535MOL0     H72207   9.353  10.521  11.321 -0.4126 -1.4476  2.2663
  535MOL0     H72208   9.532  10.712  11.330  2.1485  1.1222 -2.6300
  535MOL0     H72209   8.988  10.236  10.024 -0.5051 -0.7415 -0.7355
  535MOL0     H72210   8.806  10.079   9.968 -0.6708  0.1923  0.5736
  535MOL0     H72211   8.491   9.878  10.123  3.3180  1.1341 -1.9278
  535MOL0     H72212   8.263   9.772  10.066  0.0862  0.3900  0.6785
  535MOL0     H72213   8.065   9.628  10.008  0.2908  0.9236  1.4305
  535MOL0     H72214   8.123   9.596  10.164 -1.2225  0.3381  0.0408
  535MOL0     H72215   8.054   9.344  10.137 -1.3237 -2.8785 -2.5814
  535MOL0     H72216   7.991   9.383   9.979  2.6465  2.0503 -0.2902
  535MOL0     H72217   7.812   9.521  10.079  1.6519  2.7945  0.9851
  535MOL0     H72218   7.889   9.512  10.231  1.1075  0.7343 -0.1987
  535MOL0     H72219   7.848   9.250  10.199 -0.2710 -1.6387 -1.8098
  535MOL0     H72220   7.695   9.349  10.213 -2.8546 -1.2422 -2.9163
  535MOL0     H72221   7.688   9.205   9.810  3.4532 -0.9794 -1.3943
  535MOL0     H72222   8.457   9.394  10.058 -1.1443 -1.1055 -2.2042
  535MOL0     H72223   8.717   9.412  10.197 -2.0374 -2.2161  0.3598
  535MOL0     H72224   8.690   9.386  10.023 -1.0585 -0.9112  1.3479
  535MOL0     H72225   8.796   9.522  10.069 -0.8592 -0.5651 -2.1694
  536MOL0     O72226   9.671   9.944   4.489  1.4167  0.2706 -0.5117
  536MOL0     C72227   9.586  10.014   4.430 -0.1111  0.2503  0.3319
  536MOL0     O72228   9.595  10.157   4.418 -0.8078 -0.2758  0.7899
  536MOL0     C72229   9.671  10.221   4.504  0.2707  0.1535 -0.8863
  536MOL0     C72230   9.609  10.280   4.612  0.3696  0.5723  0.8351
  536MOL0     C72231   9.667  10.372   4.705 -0.1224 -0.0260 -0.5342
  536MOL0     C72232   9.810  10.391   4.694 -0.0234 -0.4585 -0.3447
  536MOL0     O72233   9.890  10.461   4.777 -0.0816 -0.0839  0.2701
  536MOL0     C72234   9.860  10.451   4.915  0.1542  0.1329 -0.5045
  536MOL0     C72235   9.887  10.585   4.976  0.3920  0.0776  0.3465
  536MOL0     C72236   9.897  10.583   5.129 -1.0294 -0.2520 -0.6821
  536MOL0     C72237   9.869  10.715   5.205 -0.3618 -0.5593  0.4546
  536MOL0     C72238   9.725  10.736   5.232  0.3378  0.6545 -0.5433
  536MOL0     C72239   9.688  10.866   5.304 -0.5795 -0.7585  0.3850
  536MOL0     C72240   9.754  10.884   5.444 -1.0291  0.7809 -0.6298
  536MOL0     C72241   9.731  10.770   5.550  0.9636  0.2338  0.0494
  536MOL0     N72242   9.808  10.807   5.674  0.4289 -0.5767  0.6381
  536MOL0     C72243   9.780  10.901   5.769 -0.2967  0.0628 -0.2811
  536MOL0     C72244   9.900  10.918   5.827 -0.2650  0.5582 -1.1756
  536MOL0     C72245   9.932  11.036   5.919  1.1376 -0.1428 -0.5158
  536MOL0     C72246  10.056  11.023   6.004  0.0263  0.5159 -0.1471
  536MOL0     C72247  10.078  11.147   6.096  0.0930 -0.6307 -0.8132
  536MOL0     C72248  10.160  11.252   6.027  0.0572  0.3735 -0.7778
  536MOL0     O72249  10.298  11.213   6.041  0.2604 -0.5568  0.2458
  536MOL0     C72250  10.362  11.297   6.125  0.2769  0.0806 -0.6879
  536MOL0     C72251  10.477  11.363   6.080 -0.1522 -0.3696  0.4845
  536MOL0     C72252  10.544  11.452   6.170 -0.3901 -0.7590  0.5897
  536MOL0     C72253  10.507  11.460   6.308 -0.2474 -0.2862  0.0798
  536MOL0     C72254  10.597  11.541   6.402  0.3214  0.8961  0.4347
  536MOL0     O72255  10.549  11.553   6.539 -0.5062 -0.0447  0.4029
  536MOL0     C72256  10.622  11.633   6.632  0.7549  0.3663 -0.6434
  536MOL0     C72257  10.759  11.660   6.634 -0.1138 -0.0451 -0.2023
  536MOL0     C72258  10.814  11.739   6.732 -0.9041 -0.0054  0.8851
  536MOL0     C72259  10.744  11.802   6.835  1.4523 -0.0686  0.8930
  536MOL0     O72260  10.807  11.860   6.939 -0.0809 -0.4983 -0.1161
  536MOL0     C72261  10.735  11.964   7.013 -1.3784  0.5611 -0.3984
  536MOL0     C72262  10.791  11.988   7.150 -0.0971 -0.3063  0.0215
  536MOL0     C72263  10.761  11.870   7.244  0.8282 -0.4635  0.5462
  536MOL0     C72264  10.847  11.872   7.365 -0.5882  0.6342  0.3927
  536MOL0     C72265  10.797  11.776   7.464  0.1314  0.5371  0.5639
  536MOL0     C72266  10.824  11.837   7.611  0.4859  0.3712  0.0984
  536MOL0     C72267  10.778  11.723   7.702 -0.2323 -0.1720  0.1291
  536MOL0     C72268  10.782  11.774   7.852 -0.1706 -0.2026  0.0738
  536MOL0    Cl72269  10.948  11.824   7.890 -0.2340 -0.4809 -0.6423
  536MOL0     C72270  10.599  11.783   6.820  0.3865 -0.1543  0.3889
  536MOL0     C72271  10.547  11.699   6.723  0.1833 -0.3940 -1.4280
  536MOL0     O72272  10.698  11.590   6.353 -0.1927  0.4005 -0.4252
  536MOL0     C72273  10.394  11.396   6.351  0.7966 -0.8610  0.2163
  536MOL0     C72274  10.317  11.312   6.267 -0.6926 -0.2883  0.9604
  536MOL0     N72275   9.993  10.840   5.766 -0.2851 -0.5179 -0.2272
  536MOL0     N72276   9.939  10.774   5.671  0.2239  0.7456  0.1410
  536MOL0     C72277   9.869  10.338   4.578 -0.7528 -1.4107 -0.0147
  536MOL0     C72278   9.804  10.261   4.489  0.1397  0.3904 -0.1090
  536MOL0     C72279   9.477   9.938   4.353  1.2008 -1.4751  0.3228
  536MOL0     C72280   9.502   9.808   4.313  0.4220  0.3158  0.1990
  536MOL0     C72281   9.419   9.729   4.230  1.0247  0.6818  0.9729
  536MOL0     C72282   9.297   9.780   4.195 -0.3865 -0.4563  1.3370
  536MOL0     O72283   9.203   9.710   4.121 -0.7390  0.4129  0.2380
  536MOL0     C72284   9.221   9.571   4.105  0.0407  0.4407 -0.1185
  536MOL0     C72285   9.124   9.503   4.011 -0.1272 -0.6373  0.4137
  536MOL0     C72286   8.985   9.490   4.078 -0.3414 -0.1755 -0.6978
  536MOL0     C72287   8.908   9.371   4.031 -0.2125 -0.5418  0.6560
  536MOL0     C72288   8.770   9.389   4.064  0.8501  0.5606 -0.0573
  536MOL0     C72289   8.658   9.393   4.106  0.2978 -0.0180 -0.5626
  536MOL0     C72290   9.276   9.911   4.221  0.1974 -0.4313  0.3817
  536MOL0     C72291   9.360   9.995   4.301 -0.8547  0.4594  0.2112
  536MOL0     C72292   9.308  10.137   4.334  0.0651  0.3990 -0.3205
  536MOL0     H72293   9.506  10.255   4.636 -0.4741  2.6269 -0.2882
  536MOL0     H72294   9.614  10.415   4.789 -1.9909 -2.7902 -0.1742
  536MOL0     H72295   9.761  10.418   4.946  1.0250 -1.2377  0.9867
  536MOL0     H72296   9.934  10.387   4.963 -1.7676 -0.3775  1.9972
  536MOL0     H72297   9.804  10.650   4.945  1.2263  0.8565 -0.3013
  536MOL0     H72298   9.986  10.610   4.936  1.3121 -0.7388  2.0205
  536MOL0     H72299  10.001  10.574   5.158 -1.3068 -2.0214 -0.1337
  536MOL0     H72300   9.839  10.498   5.166 -1.7882 -0.4949 -2.3147
  536MOL0     H72301   9.933  10.720   5.294 -0.8083  0.9622  0.7204
  536MOL0     H72302   9.908  10.799   5.147 -0.7355 -0.2479  0.6494
  536MOL0     H72303   9.674  10.746   5.135  1.6729  1.3672 -1.2044
  536MOL0     H72304   9.691  10.646   5.282 -0.6342  0.2720 -1.8357
  536MOL0     H72305   9.721  10.954   5.247  0.5291 -3.0715 -2.7869
  536MOL0     H72306   9.579  10.881   5.304 -0.5907 -0.8018 -0.3736
  536MOL0     H72307   9.714  10.980   5.479 -1.1939 -0.0727  1.7035
  536MOL0     H72308   9.862  10.897   5.436 -0.5566 -2.8747 -1.9407
  536MOL0     H72309   9.628  10.754   5.583  1.3277  0.1531  1.1950
  536MOL0     H72310   9.754  10.674   5.504 -1.1370  0.5347 -1.8382
  536MOL0     H72311   9.685  10.949   5.787  0.6936  2.2785 -0.5564
  536MOL0     H72312   9.943  11.128   5.861  1.1455 -0.2754 -0.7288
  536MOL0     H72313   9.845  11.055   5.982  0.5936 -1.5125 -0.8220
  536MOL0     H72314  10.043  10.930   6.061  1.0146 -0.9616 -2.2390
  536MOL0     H72315  10.149  11.019   5.947  0.0382  0.1702 -0.1010
  536MOL0     H72316  10.143  11.112   6.177  2.8829  4.6485 -0.3024
  536MOL0     H72317   9.993  11.191   6.148  1.6954  2.8696 -0.8769
  536MOL0     H72318  10.151  11.356   6.059 -0.0830  0.4270 -0.9923
  536MOL0     H72319  10.130  11.255   5.922  0.3360  2.9460 -0.8479
  536MOL0     H72320  10.522  11.345   5.983 -0.3635 -0.5881  0.4265
  536MOL0     H72321  10.635  11.502   6.138  0.1187 -0.9718  1.6460
  536MOL0     H72322  10.822  11.621   6.554  0.8407 -1.3126  1.1141
  536MOL0     H72323  10.921  11.757   6.729 -0.7579 -0.9102 -2.0070
  536MOL0     H72324  10.745  12.055   6.953  1.0495  1.1926  0.8047
  536MOL0     H72325  10.632  11.929   7.023 -1.2713  0.2106 -0.4938
  536MOL0     H72326  10.899  12.005   7.156 -0.3010  0.9762  0.3738
  536MOL0     H72327  10.754  12.087   7.180  0.2437 -0.4217  0.8543
  536MOL0     H72328  10.655  11.885   7.267  0.3400  0.5457 -2.0593
  536MOL0     H72329  10.772  11.775   7.191  0.3515 -0.5546  0.6082
  536MOL0     H72330  10.847  11.976   7.397 -0.5602  1.6918 -2.7488
  536MOL0     H72331  10.953  11.850   7.347 -0.5003 -0.4192  1.9689
  536MOL0     H72332  10.857  11.685   7.454  4.5494  3.2727 -0.2912
  536MOL0     H72333  10.691  11.759   7.443 -0.1635  1.6972  1.0415
  536MOL0     H72334  10.929  11.861   7.627  0.6043 -0.6792  1.0048
  536MOL0     H72335  10.752  11.919   7.618 -2.4095 -1.2179 -5.2238
  536MOL0     H72336  10.843  11.636   7.701  0.6682  0.4884 -0.1639
  536MOL0     H72337  10.676  11.691   7.681 -0.9286 -0.2196  3.1458
  536MOL0     H72338  10.708  11.849   7.879 -0.6360 -0.5622 -0.1926
  536MOL0     H72339  10.748  11.691   7.915 -0.4386  0.5533  0.9347
  536MOL0     H72340  10.525  11.831   6.884  1.3776 -1.1315  2.3804
  536MOL0     H72341  10.441  11.679   6.718 -0.2907 -1.3300  4.8905
  536MOL0     H72342  10.368  11.380   6.455  1.7026 -0.2338  0.5495
  536MOL0     H72343  10.230  11.266   6.311 -2.4272  1.0676 -0.8453
  536MOL0     H72344   9.976  10.355   4.587 -0.6372 -2.1374  0.0753
  536MOL0     H72345   9.862  10.221   4.406  1.8628 -1.9106  2.0234
  536MOL0     H72346   9.602   9.768   4.328  0.5215 -0.2733 -1.6731
  536MOL0     H72347   9.453   9.632   4.194 -1.1105 -0.3960  1.6463
  536MOL0     H72348   9.209   9.514   4.198 -0.5406 -1.3275 -1.2160
  536MOL0     H72349   9.323   9.556   4.067 -1.2789 -1.8175 -3.2860
  536MOL0     H72350   9.170   9.404   4.001 -2.7134 -1.6665 -3.2449
  536MOL0     H72351   9.112   9.554   3.915 -1.2624 -0.0852  0.8203
  536MOL0     H72352   8.945   9.591   4.067  3.0827  1.2604 -1.3102
  536MOL0     H72353   8.997   9.464   4.183  2.1084  1.9494 -0.3366
  536MOL0     H72354   8.909   9.361   3.923  0.6421  3.1688  0.1710
  536MOL0     H72355   8.942   9.279   4.079 -1.9742 -3.1337 -2.6536
  536MOL0     H72356   8.558   9.407   4.142  0.2078 -2.5246  0.3672
  536MOL0     H72357   9.178   9.949   4.192  0.3544  1.3076  2.0036
  536MOL0     H72358   9.302  10.149   4.443 -4.6640 -2.4722  0.0220
  536MOL0     H72359   9.372  10.211   4.286  2.4331 -1.2024  0.1834
  536MOL0     H72360   9.202  10.134   4.307  0.3412 -2.6323 -1.5470
  537MOL0     O72361  10.764   5.208   3.870 -0.9777  0.0970 -0.1200
  537MOL0     C72362  10.713   5.114   3.812  0.1504  0.2018  0.7305
  537MOL0     O72363  10.719   4.984   3.853 -0.6939  0.3766  0.4303
  537MOL0     C72364  10.759   4.953   3.982  0.2598 -0.8834  0.1561
  537MOL0     C72365  10.828   4.837   3.986 -0.2982  0.0885 -0.1464
  537MOL0     C72366  10.862   4.789   4.109  0.6409  0.6663 -0.2055
  537MOL0     C72367  10.826   4.853   4.231  0.2626 -0.3908  0.2569
  537MOL0     O72368  10.855   4.785   4.347  0.8319  0.2293  0.3336
  537MOL0     C72369  10.886   4.847   4.472 -0.0039  0.0859  0.2646
  537MOL0     C72370  10.976   4.772   4.566 -0.6214 -0.5007  0.8401
  537MOL0     C72371  10.908   4.647   4.635 -0.0955 -0.3272 -0.1098
  537MOL0     C72372  10.974   4.615   4.766  0.0463 -0.5923  0.6392
  537MOL0     C72373  10.937   4.472   4.801  0.0700  0.5802 -0.8467
  537MOL0     C72374  11.008   4.452   4.935  0.5787 -0.2828 -1.0175
  537MOL0     C72375  11.035   4.311   4.967 -0.3723  1.1824 -0.0810
  537MOL0     C72376  11.175   4.274   4.927  0.0041 -0.3600  0.4826
  537MOL0     N72377  11.187   4.134   4.946 -0.5776  0.9115 -0.1392
  537MOL0     C72378  11.164   4.034   4.853  0.4520  0.4613  0.5298
  537MOL0     C72379  11.219   3.922   4.896 -0.6274 -0.4530 -0.5654
  537MOL0     C72380  11.196   3.785   4.834 -0.4738 -0.1719  0.3154
  537MOL0     C72381  11.320   3.759   4.743  0.2709  0.3190 -0.4624
  537MOL0     C72382  11.320   3.614   4.689  0.0437 -0.2403 -0.4559
  537MOL0     C72383  11.196   3.579   4.608  0.7432  0.4513 -0.1928
  537MOL0     O72384  11.111   3.692   4.563  1.0029  0.7299 -0.3755
  537MOL0     C72385  11.152   3.745   4.444 -0.1829 -0.7842  0.4673
  537MOL0     C72386  11.287   3.769   4.394 -0.4831  0.2644  0.1168
  537MOL0     C72387  11.311   3.835   4.270 -0.0250  1.1395  0.0431
  537MOL0     C72388  11.206   3.871   4.193  0.0534  1.1589 -0.2590
  537MOL0     C72389  11.225   3.953   4.071  0.4722  1.1697 -0.8242
  537MOL0     O72390  11.333   4.034   4.067 -0.4464 -1.0029  0.2360
  537MOL0     C72391  11.347   4.121   3.955  0.5275 -0.3043 -1.1515
  537MOL0     C72392  11.437   4.097   3.853  0.2112 -0.0287  0.1051
  537MOL0     C72393  11.434   4.169   3.730 -0.6451 -0.3160 -0.4123
  537MOL0     C72394  11.342   4.275   3.720  0.3303  1.2679  0.0070
  537MOL0     O72395  11.326   4.347   3.605 -0.1339  0.9281 -0.0014
  537MOL0     C72396  11.366   4.296   3.479  0.7773 -0.8760 -0.1036
  537MOL0     C72397  11.499   4.337   3.432 -0.0427  0.2566 -0.1376
  537MOL0     C72398  11.524   4.274   3.304  0.8290  0.4948  0.1587
  537MOL0     C72399  11.540   4.126   3.296 -1.2129 -0.3332  0.1583
  537MOL0     C72400  11.598   4.081   3.161  0.2517  0.1223  0.9755
  537MOL0     C72401  11.744   4.123   3.135 -0.1652 -0.1599 -0.2609
  537MOL0     C72402  11.795   4.088   2.994 -0.1746 -0.5851 -0.9893
  537MOL0     C72403  11.768   4.203   2.899  0.2304  0.1218 -1.3632
  537MOL0    Cl72404  11.837   4.143   2.750 -0.1990 -0.0128  0.6593
  537MOL0     C72405  11.259   4.301   3.826 -0.7314 -0.0879 -0.0217
  537MOL0     C72406  11.263   4.228   3.945  1.0688  0.0220 -0.2274
  537MOL0     O72407  11.146   3.933   3.981  0.0973  0.0147  0.1936
  537MOL0     C72408  11.078   3.851   4.237  0.4192  0.0064 -0.1755
  537MOL0     C72409  11.047   3.785   4.359 -0.3465  0.6008 -0.5062
  537MOL0     N72410  11.302   3.959   5.002  0.4629  0.3302 -0.1261
  537MOL0     N72411  11.292   4.085   5.024  0.0448  0.5520 -0.4215
  537MOL0     C72412  10.750   4.971   4.224 -0.3356 -0.7017  0.3790
  537MOL0     C72413  10.715   5.024   4.095  0.1739  0.1997  0.5477
  537MOL0     C72414  10.624   5.158   3.694  0.0581  0.3993 -0.4592
  537MOL0     C72415  10.581   5.293   3.704 -0.3601 -0.1635  0.6587
  537MOL0     C72416  10.496   5.353   3.608  0.5199 -0.2009 -1.0662
  537MOL0     C72417  10.437   5.279   3.507  0.0889  0.4023 -0.0777
  537MOL0     O72418  10.356   5.327   3.408 -0.5123  0.3609  0.5164
  537MOL0     C72419  10.230   5.383   3.447 -0.0398  0.2146  0.0058
  537MOL0     C72420  10.161   5.432   3.316  0.6342 -0.2544 -0.5735
  537MOL0     C72421  10.108   5.316   3.234 -0.1490 -0.0798 -0.3750
  537MOL0     C72422  10.037   5.365   3.107 -0.3834 -0.0921 -0.0829
  537MOL0     C72423   9.915   5.418   3.142  0.4113  0.6257 -0.0263
  537MOL0     C72424   9.806   5.459   3.179  1.2181  0.0528  0.0210
  537MOL0     C72425  10.474   5.142   3.500  0.5667 -0.2628  1.0602
  537MOL0     C72426  10.571   5.074   3.588 -0.3539 -0.0800 -1.6357
  537MOL0     C72427  10.614   4.927   3.577 -0.2028 -0.2341  0.3358
  537MOL0     H72428  10.869   4.810   3.889  1.7016 -0.9472  0.9385
  537MOL0     H72429  10.917   4.697   4.125  1.0406  0.8028 -0.7700
  537MOL0     H72430  10.927   4.948   4.458 -0.3921 -0.1144 -3.0205
  537MOL0     H72431  10.792   4.861   4.527 -3.1766  0.3791 -4.6289
  537MOL0     H72432  10.995   4.842   4.648 -0.5312 -1.8762  2.0417
  537MOL0     H72433  11.066   4.746   4.510 -1.6145  0.2611 -1.2002
  537MOL0     H72434  10.910   4.554   4.578  0.1109 -1.2758  1.4004
  537MOL0     H72435  10.802   4.658   4.659 -0.6357 -0.9509 -2.0069
  537MOL0     H72436  11.082   4.635   4.763  0.0483 -0.1710 -3.9256
  537MOL0     H72437  10.935   4.679   4.846 -1.3134 -1.5633  0.7774
  537MOL0     H72438  10.830   4.456   4.813 -0.0516  0.3829 -2.0033
  537MOL0     H72439  10.974   4.398   4.728  1.1769 -0.4052  0.6442
  537MOL0     H72440  11.104   4.506   4.932 -0.2401  1.9546  3.7259
  537MOL0     H72441  10.951   4.492   5.019  0.1724 -1.8219 -0.5301
  537MOL0     H72442  10.965   4.235   4.931 -0.3758 -0.3268  2.8531
  537MOL0     H72443  11.036   4.307   5.076  0.1359  2.0957 -0.0370
  537MOL0     H72444  11.181   4.292   4.820 -0.7150 -4.9721 -0.5608
  537MOL0     H72445  11.254   4.329   4.978 -0.8936  1.0022  0.4416
  537MOL0     H72446  11.104   4.039   4.763  0.0563  3.3312  0.8613
  537MOL0     H72447  11.195   3.715   4.918  0.1402  0.5060  0.8932
  537MOL0     H72448  11.093   3.784   4.796 -0.0632  0.3328 -0.8648
  537MOL0     H72449  11.331   3.819   4.652 -0.5010 -0.5496 -1.1431
  537MOL0     H72450  11.416   3.762   4.795  0.2498  0.0365 -0.4063
  537MOL0     H72451  11.317   3.544   4.773  0.8148 -3.3226 -2.7843
  537MOL0     H72452  11.406   3.607   4.621 -1.1503  0.1578 -2.0849
  537MOL0     H72453  11.131   3.520   4.672  1.3764  1.5230  1.4888
  537MOL0     H72454  11.236   3.516   4.527 -0.7281  1.3521 -1.6912
  537MOL0     H72455  11.375   3.732   4.446 -0.8392  0.1787  0.6783
  537MOL0     H72456  11.409   3.847   4.225 -0.3026 -2.8466 -2.0141
  537MOL0     H72457  11.508   4.019   3.878  1.7883  1.2143 -0.3666
  537MOL0     H72458  11.502   4.143   3.650 -1.2172  2.6748 -1.9728
  537MOL0     H72459  11.359   4.187   3.471  0.3229 -0.7187 -3.6042
  537MOL0     H72460  11.285   4.333   3.415 -0.2225  3.2650  3.0870
  537MOL0     H72461  11.504   4.446   3.415 -1.6423  0.3354 -0.1962
  537MOL0     H72462  11.569   4.292   3.503 -3.1592 -1.9525  1.8029
  537MOL0     H72463  11.442   4.300   3.237  0.5455  0.7176  0.5897
  537MOL0     H72464  11.612   4.329   3.268  0.7423 -0.2737 -1.3062
  537MOL0     H72465  11.442   4.079   3.303 -1.0817 -1.0782 -2.1287
  537MOL0     H72466  11.612   4.088   3.370 -0.8526 -2.2438 -1.0894
  537MOL0     H72467  11.534   4.118   3.080  2.2463  0.7206 -0.3892
  537MOL0     H72468  11.582   3.974   3.179 -0.9840  0.2526  0.7740
  537MOL0     H72469  11.753   4.232   3.142 -1.0972  0.0708 -2.1910
  537MOL0     H72470  11.800   4.079   3.219  2.1262  2.8496 -0.0712
  537MOL0     H72471  11.733   4.009   2.953 -3.0038  0.5849  0.7445
  537MOL0     H72472  11.900   4.057   3.006 -0.1043  0.4753  2.0113
  537MOL0     H72473  11.660   4.217   2.900  0.1110 -0.2903  1.9919
  537MOL0     H72474  11.823   4.296   2.918 -2.9741  2.1821 -1.4793
  537MOL0     H72475  11.192   4.383   3.802  0.4519  0.4805 -1.5756
  537MOL0     H72476  11.189   4.262   4.017 -2.1657 -1.9863 -2.3681
  537MOL0     H72477  10.987   3.879   4.185  0.1711 -1.8603 -0.8366
  537MOL0     H72478  10.945   3.776   4.395 -0.8604  1.1480 -1.7905
  537MOL0     H72479  10.709   5.025   4.309 -1.0490 -2.4721  1.2200
  537MOL0     H72480  10.650   5.108   4.072 -2.1856 -1.6913 -0.1608
  537MOL0     H72481  10.601   5.355   3.792  0.5230  2.3071 -1.1652
  537MOL0     H72482  10.462   5.456   3.613 -0.8174 -0.6790  2.0474
  537MOL0     H72483  10.237   5.476   3.505  0.0406  1.1284 -1.4285
  537MOL0     H72484  10.177   5.302   3.499 -0.6402  0.2693 -0.5041
  537MOL0     H72485  10.233   5.478   3.248 -1.9553  0.1420 -3.2279
  537MOL0     H72486  10.077   5.497   3.341 -1.8222 -3.8384  1.3874
  537MOL0     H72487  10.037   5.251   3.287  0.8497 -0.4167  0.5853
  537MOL0     H72488  10.192   5.250   3.214  0.3344  0.9309 -1.7719
  537MOL0     H72489  10.096   5.436   3.048 -1.0941 -0.6933 -1.5505
  537MOL0     H72490  10.016   5.282   3.040  1.7632  0.8655 -2.0595
  537MOL0     H72491   9.708   5.501   3.184  2.2391  2.5007  1.6907
  537MOL0     H72492  10.448   5.073   3.420 -0.0234  2.3255 -1.1073
  537MOL0     H72493  10.723   4.926   3.591  0.0842  3.3380 -0.5963
  537MOL0     H72494  10.560   4.864   3.648 -0.9677 -0.8540 -0.7604
  537MOL0     H72495  10.597   4.903   3.471  2.0541  1.6203 -0.5169
  538MOL0     O72496   1.492  10.504   1.270 -0.6132 -0.1639  0.0419
  538MOL0     C72497   1.376  10.533   1.311 -0.8366  0.1630 -0.5659
  538MOL0     O72498   1.270  10.576   1.243  0.1430  0.7260  0.4887
  538MOL0     C72499   1.280  10.647   1.124  0.6460  0.7359  0.3770
  538MOL0     C72500   1.199  10.759   1.113 -0.2332 -0.3103  0.6769
  538MOL0     C72501   1.207  10.845   0.997 -0.2859  0.5143 -0.9233
  538MOL0     C72502   1.280  10.801   0.885  0.5857 -0.2017  0.2417
  538MOL0     O72503   1.305  10.875   0.776 -0.2066  0.2124  0.5402
  538MOL0     C72504   1.241  11.002   0.758 -0.3237 -0.2546  0.2724
  538MOL0     C72505   1.272  11.068   0.619  0.1047 -0.7117  0.3432
  538MOL0     C72506   1.196  11.209   0.617  0.2719 -0.3441 -0.8620
  538MOL0     C72507   1.206  11.270   0.480  0.5727 -0.5529 -0.4896
  538MOL0     C72508   1.117  11.396   0.465  1.1779 -0.0670  0.0721
  538MOL0     C72509   1.103  11.451   0.322  0.7415 -0.4067 -0.1791
  538MOL0     C72510   1.018  11.584   0.318 -0.2194  0.7539 -2.1828
  538MOL0     C72511   0.873  11.565   0.354  0.5080  0.6217  0.4647
  538MOL0     N72512   0.788  11.683   0.344 -0.1799  0.3843 -0.5268
  538MOL0     C72513   0.660  11.693   0.406 -1.0094  0.0649  0.5987
  538MOL0     C72514   0.612  11.814   0.369 -0.6099 -0.2441  0.1380
  538MOL0     C72515   0.485  11.886   0.412 -0.3717 -0.2587 -0.2550
  538MOL0     C72516   0.383  11.857   0.303  0.0756  0.5192 -0.9597
  538MOL0     C72517   0.270  11.964   0.290 -0.4352  0.1390  0.2542
  538MOL0     C72518   0.309  12.118   0.284 -0.4928  1.1093 -0.6723
  538MOL0     O72519   0.198  12.197   0.245  0.0564  0.4607 -0.4822
  538MOL0     C72520   0.206  12.334   0.269 -0.4729 -0.9826  0.3252
  538MOL0     C72521   0.297  12.398   0.359  0.2798 -0.0551  0.5951
  538MOL0     C72522   0.313  12.539   0.351  0.6097  0.5184 -0.2150
  538MOL0     C72523   0.235  12.616   0.264 -0.5160 -0.3193 -0.9405
  538MOL0     C72524   0.247  12.766   0.276  0.1940  0.2679 -0.2668
  538MOL0     O72525   0.154  12.837   0.199 -0.1789 -0.0646  0.2215
  538MOL0     C72526   0.156  12.975   0.199 -0.4711 -0.5281 -0.2043
  538MOL0     C72527   0.108  13.033   0.076 -0.7753  0.7699  0.3344
  538MOL0     C72528   0.087  13.171   0.071 -0.6343 -0.3597 -0.1076
  538MOL0     C72529   0.103  13.244   0.188 -0.5471 -0.0140  0.5618
  538MOL0     O72530   0.092  13.382   0.161  0.8662 -0.4388 -0.0741
  538MOL0     C72531   0.066  13.470   0.269  0.0770  0.7990 -0.3931
  538MOL0     C72532   0.060  13.617   0.233  0.0737  0.5327 -0.2704
  538MOL0     C72533   0.198  13.672   0.203 -0.4793  0.5105 -1.1300
  538MOL0     C72534   0.179  13.820   0.187  0.3026 -0.0960  0.4805
  538MOL0     C72535   0.298  13.901   0.145  0.5360 -0.7608  0.5913
  538MOL0     C72536   0.275  14.049   0.117 -0.6022  0.6671  1.5189
  538MOL0     C72537   0.403  14.116   0.056  0.1929 -0.8429  0.2249
  538MOL0     C72538   0.391  14.275   0.070 -0.1991  0.6356  0.8159
  538MOL0    Cl72539   0.256  14.328  -0.042 -0.0749  0.0282  0.4666
  538MOL0     C72540   0.152  13.185   0.310 -0.8346 -0.2853 -0.3850
  538MOL0     C72541   0.176  13.048   0.319 -0.3750 -0.3415  0.2225
  538MOL0     O72542   0.333  12.818   0.344  0.6398 -0.6257  0.2276
  538MOL0     C72543   0.153  12.559   0.177  0.5893 -0.0037  0.4369
  538MOL0     C72544   0.135  12.420   0.180  0.1473  1.2180 -0.2960
  538MOL0     N72545   0.707  11.876   0.301  0.6138  0.5243 -0.5280
  538MOL0     N72546   0.814  11.800   0.283  0.1463 -0.4403 -0.6428
  538MOL0     C72547   1.361  10.691   0.895 -0.1478  0.3739 -0.1780
  538MOL0     C72548   1.363  10.621   1.009 -0.0340  0.8787 -0.9857
  538MOL0     C72549   1.341  10.502   1.448  0.0243  0.5275 -0.1500
  538MOL0     C72550   1.444  10.510   1.543 -0.0770  0.9448  0.0730
  538MOL0     C72551   1.422  10.489   1.683 -0.2035 -0.3645  0.0103
  538MOL0     C72552   1.298  10.442   1.726 -0.4636  0.5061  0.1697
  538MOL0     O72553   1.281  10.394   1.852  0.0944 -0.1707  0.1371
  538MOL0     C72554   1.321  10.471   1.962 -0.5052 -0.1744 -0.6300
  538MOL0     C72555   1.233  10.480   2.083  0.2807  1.0084  0.5433
  538MOL0     C72556   1.194  10.332   2.136  0.7114 -0.7125 -0.5645
  538MOL0     C72557   1.305  10.231   2.146 -0.5361 -0.5657 -0.1367
  538MOL0     C72558   1.418  10.265   2.233  0.5180 -0.4774  0.1851
  538MOL0     C72559   1.499  10.304   2.306  0.0104 -0.7463 -0.1229
  538MOL0     C72560   1.200  10.430   1.630 -0.0128 -0.1281  0.2177
  538MOL0     C72561   1.210  10.458   1.488 -0.1968  0.1591  0.9454
  538MOL0     C72562   1.093  10.427   1.395  0.2344  0.5450  0.9690
  538MOL0     H72563   1.144  10.791   1.200  0.8515  2.2605  0.5083
  538MOL0     H72564   1.152  10.938   1.011 -2.3316 -1.0657  3.0307
  538MOL0     H72565   1.134  10.998   0.781  0.4775 -0.0329  4.9644
  538MOL0     H72566   1.280  11.068   0.835  0.9156 -0.5860 -0.0496
  538MOL0     H72567   1.238  11.003   0.537  2.8804 -2.7097  0.6237
  538MOL0     H72568   1.378  11.083   0.597 -0.0925  0.0179 -0.1401
  538MOL0     H72569   1.244  11.274   0.691  1.0003  2.1722 -3.3607
  538MOL0     H72570   1.093  11.188   0.646  0.4038  0.8032  0.5574
  538MOL0     H72571   1.312  11.295   0.469  0.6339  0.6157  2.1007
  538MOL0     H72572   1.186  11.191   0.408 -1.8933  0.4918 -1.0523
  538MOL0     H72573   1.015  11.380   0.502  2.1443 -0.6035  2.7053
  538MOL0     H72574   1.164  11.474   0.525  1.3336 -0.8459  0.9917
  538MOL0     H72575   1.197  11.475   0.271 -0.4241  2.8271 -1.0563
  538MOL0     H72576   1.051  11.373   0.266  3.4210 -2.1504 -0.4296
  538MOL0     H72577   1.038  11.631   0.222  3.3864 -2.3319 -3.1594
  538MOL0     H72578   1.052  11.650   0.398  0.1738 -0.8297 -0.9820
  538MOL0     H72579   0.832  11.492   0.283 -0.4316 -0.5604  2.1316
  538MOL0     H72580   0.870  11.537   0.460 -1.4845  2.7911  1.0506
  538MOL0     H72581   0.606  11.633   0.479 -1.4952  1.2772  1.2569
  538MOL0     H72582   0.440  11.832   0.497  0.0101 -5.7026 -3.0494
  538MOL0     H72583   0.513  11.989   0.434  0.5386 -0.2109 -1.5773
  538MOL0     H72584   0.438  11.853   0.209  1.8174  1.2944 -0.0273
  538MOL0     H72585   0.332  11.762   0.322  0.9893  0.7629  4.2104
  538MOL0     H72586   0.216  11.945   0.383  3.0174  0.1160  2.4739
  538MOL0     H72587   0.204  11.941   0.207 -1.3140  1.1000  0.6570
  538MOL0     H72588   0.382  12.130   0.203 -0.6633 -1.4437 -1.2869
  538MOL0     H72589   0.342  12.154   0.381 -2.6102 -3.2237  1.9380
  538MOL0     H72590   0.363  12.343   0.425  2.2753 -0.1215 -1.3253
  538MOL0     H72591   0.374  12.595   0.421  0.5142  0.4396 -0.0698
  538MOL0     H72592   0.071  12.970  -0.005 -0.7946  2.4575 -1.0255
  538MOL0     H72593   0.050  13.220  -0.018 -0.9625 -1.1727 -0.4303
  538MOL0     H72594  -0.028  13.429   0.307  1.2254 -0.2740  1.4402
  538MOL0     H72595   0.136  13.458   0.352 -1.4245 -0.7203  0.7152
  538MOL0     H72596   0.002  13.620   0.141 -2.9993 -1.8474  1.4110
  538MOL0     H72597   0.012  13.669   0.316  2.4018 -1.5497  2.5847
  538MOL0     H72598   0.267  13.658   0.287 -1.4800  4.6351  0.6082
  538MOL0     H72599   0.244  13.643   0.108  3.3288 -0.4833  0.8181
  538MOL0     H72600   0.149  13.861   0.283  1.8611 -2.9058  2.2938
  538MOL0     H72601   0.096  13.837   0.118  1.6230  1.8431 -0.7442
  538MOL0     H72602   0.348  13.866   0.055 -2.8251 -0.2443 -1.6621
  538MOL0     H72603   0.365  13.891   0.231 -2.1655  1.7012  3.2710
  538MOL0     H72604   0.196  14.054   0.042  0.7911 -1.7869 -0.2545
  538MOL0     H72605   0.240  14.112   0.199  2.0627 -1.3260  4.3983
  538MOL0     H72606   0.413  14.094  -0.051 -0.3080 -0.6464  0.1316
  538MOL0     H72607   0.490  14.072   0.106 -0.9777 -1.1501  2.0813
  538MOL0     H72608   0.377  14.305   0.175 -4.3497  5.3387 -0.6837
  538MOL0     H72609   0.480  14.330   0.039 -1.7839  3.1895  0.5272
  538MOL0     H72610   0.175  13.233   0.404  1.7911 -2.2417  0.0844
  538MOL0     H72611   0.216  13.012   0.413 -0.6501  2.8802  1.7231
  538MOL0     H72612   0.092  12.617   0.109 -0.1524  0.5085  1.5025
  538MOL0     H72613   0.068  12.372   0.110 -0.8610  2.4786 -0.2397
  538MOL0     H72614   1.415  10.646   0.812 -1.6885 -0.7864 -0.6030
  538MOL0     H72615   1.424  10.531   1.017 -0.5723  0.4759 -1.3852
  538MOL0     H72616   1.540  10.551   1.515 -1.4193  2.3267 -3.0350
  538MOL0     H72617   1.501  10.501   1.758 -1.7806  0.7313  1.5943
  538MOL0     H72618   1.347  10.575   1.937  1.8215 -0.5691 -0.1314
  538MOL0     H72619   1.417  10.433   1.999 -0.8536  0.5708  1.1871
  538MOL0     H72620   1.143  10.529   2.046  0.5894 -0.8680 -3.1091
  538MOL0     H72621   1.291  10.532   2.160  0.0268  1.4736  0.4252
  538MOL0     H72622   1.106  10.298   2.081  0.5466  3.0162 -2.9463
  538MOL0     H72623   1.156  10.356   2.236 -2.1703 -0.5311 -1.6136
  538MOL0     H72624   1.259  10.142   2.189  1.3707 -2.7322 -2.2580
  538MOL0     H72625   1.344  10.208   2.046  2.8646  0.3143  0.8540
  538MOL0     H72626   1.566  10.352   2.375 -0.5181 -1.3493  0.8434
  538MOL0     H72627   1.105  10.402   1.673 -0.0612  0.2511  0.3551
  538MOL0     H72628   1.126  10.356   1.318 -1.8617 -0.4194  0.9074
  538MOL0     H72629   1.010  10.382   1.449 -0.5001  2.2950  1.3713
  538MOL0     H72630   1.058  10.518   1.346  2.1594  0.7083 -0.2349
  539MOL0     O72631   1.768   1.524   1.244  0.3066 -0.2330 -0.0682
  539MOL0     C72632   1.882   1.511   1.216  0.0604  1.3272  0.1135
  539MOL0     O72633   1.975   1.606   1.218 -0.9428 -0.4800 -0.3559
  539MOL0     C72634   1.940   1.740   1.219  0.2848 -0.4567 -0.3699
  539MOL0     C72635   1.906   1.799   1.340 -0.9927  0.3422  0.5009
  539MOL0     C72636   1.887   1.932   1.339  0.3619 -0.1691 -0.4797
  539MOL0     C72637   1.912   2.017   1.230  0.2847  1.3307 -0.4550
  539MOL0     O72638   1.881   2.149   1.225 -0.0578  0.1048  0.0029
  539MOL0     C72639   1.808   2.205   1.333 -0.8524 -0.2182  0.5431
  539MOL0     C72640   1.755   2.351   1.305  1.0731  0.0975  0.1434
  539MOL0     C72641   1.667   2.389   1.415 -0.2367  0.1058 -0.1811
  539MOL0     C72642   1.749   2.447   1.538  0.4806 -0.5526 -0.0344
  539MOL0     C72643   1.810   2.587   1.509 -0.8205  0.0415  0.1356
  539MOL0     C72644   1.895   2.635   1.616 -0.2957  0.5591 -0.7491
  539MOL0     C72645   2.004   2.729   1.562  0.4745 -1.1055  0.0783
  539MOL0     C72646   2.076   2.791   1.685 -0.4978 -0.2039 -1.2423
  539MOL0     N72647   2.132   2.689   1.778 -0.1870  0.3215  1.1328
  539MOL0     C72648   2.216   2.595   1.729  0.6064 -0.4588  0.3559
  539MOL0     C72649   2.215   2.499   1.832 -0.5642 -0.3764  0.2849
  539MOL0     C72650   2.283   2.367   1.832  0.2756  0.1851 -0.3672
  539MOL0     C72651   2.435   2.372   1.841 -0.1742  0.1871 -0.2661
  539MOL0     C72652   2.483   2.428   1.976  0.7521 -0.4300  0.5184
  539MOL0     C72653   2.504   2.576   1.995 -0.7044 -0.0715 -0.3465
  539MOL0     O72654   2.581   2.634   1.881  0.1752  0.6066  0.2988
  539MOL0     C72655   2.715   2.613   1.865  0.1645 -0.3501  0.7900
  539MOL0     C72656   2.816   2.538   1.933 -0.3347  0.2734  0.4176
  539MOL0     C72657   2.948   2.541   1.875  0.7401  0.4837  0.2906
  539MOL0     C72658   2.991   2.618   1.769  0.7412  0.1122  0.0471
  539MOL0     C72659   3.123   2.612   1.707  0.2916  0.4370  0.0815
  539MOL0     O72660   3.213   2.524   1.749  0.2818  0.0954 -0.1256
  539MOL0     C72661   3.330   2.497   1.678 -0.4093 -0.5531 -0.1284
  539MOL0     C72662   3.427   2.432   1.754  0.0885  1.1643  0.0841
  539MOL0     C72663   3.550   2.397   1.701 -0.3655 -0.0077 -0.1165
  539MOL0     C72664   3.581   2.419   1.562 -0.4621 -0.2899 -0.3216
  539MOL0     O72665   3.704   2.390   1.497  0.2267  0.4713  0.2913
  539MOL0     C72666   3.814   2.321   1.561  0.2904 -0.0999 -0.2854
  539MOL0     C72667   3.932   2.313   1.475  1.0261 -0.2121 -0.2711
  539MOL0     C72668   3.963   2.433   1.395 -0.1782 -0.0777  0.4364
  539MOL0     C72669   3.913   2.424   1.252 -1.0185  0.1580  0.0839
  539MOL0     C72670   3.939   2.556   1.179 -0.3552  0.3794 -0.0862
  539MOL0     C72671   3.904   2.523   1.029  0.1453 -0.2891 -0.7203
  539MOL0     C72672   3.909   2.651   0.948 -0.2820  0.3509 -0.2539
  539MOL0     C72673   3.815   2.669   0.835 -0.5328  0.0644  0.3590
  539MOL0    Cl72674   3.862   2.818   0.744  0.1031  0.4234  0.4024
  539MOL0     C72675   3.490   2.495   1.490 -0.2054  1.0698 -0.2916
  539MOL0     C72676   3.362   2.528   1.543  0.3136 -0.0537 -0.0584
  539MOL0     O72677   3.145   2.704   1.630  0.7495 -0.1745  0.2335
  539MOL0     C72678   2.886   2.701   1.721  1.1909  0.7727  0.1711
  539MOL0     C72679   2.763   2.697   1.767  0.1885 -0.1577  0.5251
  539MOL0     N72680   2.138   2.544   1.938  0.0360  0.0097 -0.3727
  539MOL0     N72681   2.088   2.658   1.903 -0.3457  0.1705  0.2628
  539MOL0     C72682   1.954   1.953   1.115  0.3865  0.5003  1.3336
  539MOL0     C72683   1.961   1.811   1.103 -0.8786 -0.7719  0.0727
  539MOL0     C72684   1.922   1.371   1.173 -0.1220 -0.3400 -1.0097
  539MOL0     C72685   2.038   1.357   1.094 -0.1802  0.2052  0.5122
  539MOL0     C72686   2.088   1.230   1.046 -0.6354 -1.3963 -0.0275
  539MOL0     C72687   2.026   1.113   1.071  1.1497 -0.0629  1.4565
  539MOL0     O72688   2.083   0.996   1.020 -0.2923  0.1962 -0.3329
  539MOL0     C72689   1.995   0.885   0.989 -1.1290  0.2876  0.1046
  539MOL0     C72690   2.087   0.766   0.967 -0.5090  0.6096  1.1756
  539MOL0     C72691   2.136   0.701   1.096 -0.4460 -0.1438 -0.1065
  539MOL0     C72692   2.201   0.565   1.084  0.0641 -0.1616  0.0978
  539MOL0     C72693   2.317   0.580   0.993 -0.9481  0.2933  0.0709
  539MOL0     C72694   2.423   0.600   0.933 -0.2074 -0.2389  0.1393
  539MOL0     C72695   1.911   1.129   1.152 -0.4545  0.8043 -0.0060
  539MOL0     C72696   1.860   1.252   1.201 -0.6126 -0.0010 -0.4015
  539MOL0     C72697   1.727   1.237   1.279  0.3230 -0.1970  0.0178
  539MOL0     H72698   1.894   1.741   1.431 -1.9784  4.0759  2.9632
  539MOL0     H72699   1.849   1.981   1.428  0.7707  2.8527 -1.8397
  539MOL0     H72700   1.725   2.136   1.352 -0.7561 -0.8362 -1.0666
  539MOL0     H72701   1.872   2.209   1.421 -0.7888  0.7828  0.4594
  539MOL0     H72702   1.697   2.350   1.212  1.4901  0.5264 -0.1279
  539MOL0     H72703   1.841   2.415   1.286  1.2511 -0.1804 -0.0065
  539MOL0     H72704   1.598   2.313   1.453 -0.0669 -0.0434 -0.1739
  539MOL0     H72705   1.617   2.477   1.372  0.2655  0.4666 -0.0389
  539MOL0     H72706   1.687   2.462   1.627  0.8480  1.2006 -0.0493
  539MOL0     H72707   1.819   2.371   1.574 -1.4326 -1.2760  2.4415
  539MOL0     H72708   1.868   2.585   1.417 -1.6107  3.2808 -0.5453
  539MOL0     H72709   1.737   2.666   1.489 -0.9370  1.0930  3.8768
  539MOL0     H72710   1.838   2.686   1.693 -1.6789 -1.3984 -0.3927
  539MOL0     H72711   1.939   2.541   1.650  0.1941  0.2653 -2.1119
  539MOL0     H72712   1.958   2.819   1.520 -0.2934 -3.0742 -3.8319
  539MOL0     H72713   2.064   2.699   1.475  0.3795  4.3631 -2.2610
  539MOL0     H72714   2.163   2.844   1.645  1.7461 -2.9117 -0.2649
  539MOL0     H72715   2.011   2.859   1.742 -1.6957  0.0095 -2.8036
  539MOL0     H72716   2.250   2.586   1.626 -1.4147 -1.4812 -0.2699
  539MOL0     H72717   2.247   2.308   1.917  1.1094 -0.0239 -0.1472
  539MOL0     H72718   2.240   2.320   1.743  0.9552  2.5221 -2.0285
  539MOL0     H72719   2.460   2.265   1.837 -1.6793 -0.3774  2.7927
  539MOL0     H72720   2.478   2.424   1.755 -0.2028  0.0035 -0.3923
  539MOL0     H72721   2.573   2.379   2.015  1.7062  2.8669  2.9312
  539MOL0     H72722   2.410   2.391   2.048  0.3699 -2.9946 -1.0764
  539MOL0     H72723   2.560   2.581   2.089 -2.3105 -2.6517  0.8513
  539MOL0     H72724   2.408   2.627   2.001 -1.2179 -0.9348 -1.0347
  539MOL0     H72725   2.787   2.477   2.018 -2.1346  0.1915 -0.2222
  539MOL0     H72726   3.023   2.478   1.923  0.5718  0.8205  1.0203
  539MOL0     H72727   3.404   2.421   1.859  1.6411 -2.5878  0.2080
  539MOL0     H72728   3.631   2.339   1.744  0.4065  1.0672 -0.0732
  539MOL0     H72729   3.854   2.364   1.653 -1.8701  0.2254  0.5653
  539MOL0     H72730   3.791   2.218   1.591  1.6900 -0.5019 -0.5178
  539MOL0     H72731   4.015   2.303   1.546 -0.0127  2.0085  1.3629
  539MOL0     H72732   3.919   2.225   1.412  1.8790 -0.8505  0.4131
  539MOL0     H72733   3.920   2.526   1.433 -2.2630 -0.0944 -1.6659
  539MOL0     H72734   4.068   2.461   1.393 -0.4639  1.2833 -3.4397
  539MOL0     H72735   3.805   2.406   1.243 -0.6568 -1.7956 -0.8646
  539MOL0     H72736   3.964   2.342   1.201 -1.8954 -0.5795  0.3516
  539MOL0     H72737   4.044   2.582   1.195 -0.9473  2.1649  1.1780
  539MOL0     H72738   3.865   2.631   1.210 -2.0438 -0.7639 -1.1737
  539MOL0     H72739   3.962   2.443   0.981 -2.6848 -2.7362 -0.3710
  539MOL0     H72740   3.802   2.484   1.024 -0.3542  0.7536  0.9317
  539MOL0     H72741   4.010   2.655   0.906 -0.2623 -0.4452 -0.2801
  539MOL0     H72742   3.909   2.742   1.009 -0.2222  0.7372 -0.8196
  539MOL0     H72743   3.812   2.584   0.766 -0.7337  0.4600 -0.1246
  539MOL0     H72744   3.721   2.688   0.888 -1.1648 -0.2890 -0.6009
  539MOL0     H72745   3.500   2.530   1.387 -2.2096  0.0903 -0.8764
  539MOL0     H72746   3.289   2.564   1.471  2.3140  0.5152 -1.9070
  539MOL0     H72747   2.910   2.766   1.637 -0.7544  2.0091  0.4831
  539MOL0     H72748   2.710   2.772   1.709  3.4033  1.6742 -0.2794
  539MOL0     H72749   1.968   2.028   1.038  0.4679  0.8911  1.7274
  539MOL0     H72750   1.993   1.767   1.009 -0.7155  1.6732 -1.1034
  539MOL0     H72751   2.098   1.448   1.089 -0.2167  0.2714  1.2671
  539MOL0     H72752   2.180   1.220   0.990  0.3883  0.5282  1.2128
  539MOL0     H72753   1.938   0.915   0.901 -1.1697  0.1716  0.0913
  539MOL0     H72754   1.934   0.864   1.077 -0.1301  1.4243  1.0957
  539MOL0     H72755   2.174   0.796   0.906 -2.0240  0.1159 -1.3783
  539MOL0     H72756   2.030   0.700   0.902  2.6449  0.8609 -2.1981
  539MOL0     H72757   2.054   0.696   1.168  0.4636  1.3696  1.0907
  539MOL0     H72758   2.216   0.761   1.141 -0.4988 -0.8865  1.0151
  539MOL0     H72759   2.235   0.525   1.180 -1.4754 -1.4566  0.1448
  539MOL0     H72760   2.128   0.500   1.035 -0.4979  0.0825  0.5964
  539MOL0     H72761   2.522   0.612   0.895 -0.2828  1.1273  0.3336
  539MOL0     H72762   1.860   1.036   1.176  0.2880 -0.1074 -1.7997
  539MOL0     H72763   1.643   1.259   1.212 -0.3758 -1.1826  0.5404
  539MOL0     H72764   1.705   1.134   1.310  0.8303 -0.3903 -0.2596
  539MOL0     H72765   1.722   1.310   1.360 -0.0091  1.3606 -1.3540
  540MOL0     O72766   3.744   1.598   9.143 -0.5617 -0.2444  0.4595
  540MOL0     C72767   3.783   1.690   9.214  0.8766  0.3086 -0.7716
  540MOL0     O72768   3.703   1.756   9.302 -0.3281  0.0264  0.4104
  540MOL0     C72769   3.574   1.718   9.343  0.5246  0.6938  0.5913
  540MOL0     C72770   3.537   1.745   9.468  0.3097  0.3159 -0.4426
  540MOL0     C72771   3.407   1.732   9.516  1.1672 -0.4850 -0.6294
  540MOL0     C72772   3.304   1.676   9.435 -0.4435  0.3635 -0.5517
  540MOL0     O72773   3.179   1.638   9.474 -0.0204  0.4391 -0.0522
  540MOL0     C72774   3.119   1.739   9.559  0.1312 -0.7320  0.5860
  540MOL0     C72775   2.998   1.669   9.628  0.3612  0.0837  0.0764
  540MOL0     C72776   2.885   1.764   9.674  0.7491  0.4066 -0.1844
  540MOL0     C72777   2.906   1.806   9.810 -0.0830  0.5461  0.1605
  540MOL0     C72778   2.808   1.918   9.859  0.0295  0.4864 -0.1141
  540MOL0     C72779   2.667   1.870   9.888  0.2026  0.5092 -0.1341
  540MOL0     C72780   2.555   1.973   9.914  0.6751  0.4413 -0.0931
  540MOL0     C72781   2.507   2.039   9.787  0.1985 -0.0571 -0.2034
  540MOL0     N72782   2.377   2.088   9.800 -0.2972  0.0862  0.3066
  540MOL0     C72783   2.325   2.201   9.745  0.9411 -0.2259 -0.6313
  540MOL0     C72784   2.195   2.202   9.761 -0.5937 -0.4336 -0.5166
  540MOL0     C72785   2.095   2.308   9.720 -0.4321  0.0970 -1.0888
  540MOL0     C72786   2.151   2.445   9.745  0.3537  0.1974 -0.1804
  540MOL0     C72787   2.046   2.557   9.701  1.1501  0.7078 -0.1129
  540MOL0     C72788   2.120   2.687   9.677  0.5493  0.3761  0.1417
  540MOL0     O72789   2.038   2.771   9.591  0.9166  0.3017  0.4279
  540MOL0     C72790   2.032   2.902   9.627  0.8613  0.0713  0.5645
  540MOL0     C72791   2.145   2.981   9.644  0.6286  0.5171 -0.5523
  540MOL0     C72792   2.138   3.117   9.663 -0.1425  1.0254  0.4002
  540MOL0     C72793   2.015   3.187   9.664 -0.1084  0.4818 -0.2717
  540MOL0     C72794   2.003   3.322   9.701  0.3276 -1.6548  0.1450
  540MOL0     O72795   2.082   3.378   9.789  0.2910 -0.2256 -0.6033
  540MOL0     C72796   2.079   3.506   9.833 -0.3235  0.6263 -1.0912
  540MOL0     C72797   2.170   3.523   9.938 -0.6831  0.1446 -0.5443
  540MOL0     C72798   2.210   3.646   9.985 -0.4231 -0.2295  0.5743
  540MOL0     C72799   2.145   3.764   9.942  0.3174 -0.1568 -0.1812
  540MOL0     O72800   2.186   3.891   9.965 -0.0092  0.6512 -0.3715
  540MOL0     C72801   2.310   3.908  10.035  0.5978 -0.5305 -1.0219
  540MOL0     C72802   2.364   4.046   9.978 -0.4728  0.8579 -0.5202
  540MOL0     C72803   2.482   4.021   9.886  0.0277 -0.3891  0.9926
  540MOL0     C72804   2.432   3.986   9.735 -1.3262 -0.4429  0.0665
  540MOL0     C72805   2.527   3.904   9.651 -0.1086 -0.4679  0.1780
  540MOL0     C72806   2.659   3.988   9.624  1.1147 -0.0852 -0.2472
  540MOL0     C72807   2.742   3.963   9.498 -0.3096  0.8649  0.6118
  540MOL0     C72808   2.875   4.015   9.484 -0.6276  0.3012 -0.2284
  540MOL0    Cl72809   2.948   3.967   9.326 -0.0748  0.4993  0.0117
  540MOL0     C72810   2.044   3.745   9.848  0.5729 -0.1771  0.3278
  540MOL0     C72811   2.017   3.617   9.791 -1.0908 -0.2654 -0.4306
  540MOL0     O72812   1.913   3.385   9.646  0.5837  0.2282 -0.1940
  540MOL0     C72813   1.897   3.117   9.648  0.6375  0.3491 -0.3565
  540MOL0     C72814   1.904   2.972   9.625 -0.0696  0.5238  0.5888
  540MOL0     N72815   2.166   2.086   9.822  0.2627  0.6114 -0.8382
  540MOL0     N72816   2.275   2.011   9.850 -0.1735 -0.5327 -0.6661
  540MOL0     C72817   3.342   1.640   9.301  0.5999 -0.1669  0.8024
  540MOL0     C72818   3.478   1.658   9.260 -0.1488 -0.0870  0.2301
  540MOL0     C72819   3.925   1.742   9.204  0.0171 -0.4384 -0.6835
  540MOL0     C72820   4.009   1.684   9.106 -1.0758 -0.6092  0.3972
  540MOL0     C72821   4.137   1.726   9.087  0.3061 -0.6433 -0.6559
  540MOL0     C72822   4.174   1.843   9.149 -0.8126 -0.6889  0.2196
  540MOL0     O72823   4.302   1.886   9.138 -0.4159 -0.2570  0.3597
  540MOL0     C72824   4.364   1.984   9.225  0.1282 -0.1693  0.7730
  540MOL0     C72825   4.375   1.944   9.369 -0.1021  0.4734 -1.0304
  540MOL0     C72826   4.478   2.029   9.444  0.7417 -0.4112 -0.4163
  540MOL0     C72827   4.470   1.984   9.591  0.3688 -0.4748  0.1169
  540MOL0     C72828   4.581   2.056   9.657 -0.0898 -0.5968 -0.3642
  540MOL0     C72829   4.671   2.121   9.713  0.4663  0.7561 -0.8527
  540MOL0     C72830   4.093   1.905   9.244  0.7377 -0.1760  0.4038
  540MOL0     C72831   3.968   1.854   9.283 -0.6453 -0.4427 -0.3847
  540MOL0     C72832   3.909   1.931   9.401  0.1848 -0.5330 -0.5481
  540MOL0     H72833   3.617   1.776   9.533 -0.0174  1.9093 -0.7568
  540MOL0     H72834   3.385   1.761   9.618 -2.1638 -2.0585 -0.7808
  540MOL0     H72835   3.188   1.767   9.639 -0.0413  0.3811  0.3540
  540MOL0     H72836   3.097   1.828   9.500  2.4927 -0.6948 -0.3729
  540MOL0     H72837   3.028   1.592   9.699 -0.0933 -0.8383 -0.6977
  540MOL0     H72838   2.956   1.611   9.544 -1.7799  1.5171  0.0690
  540MOL0     H72839   2.797   1.698   9.667 -0.3781  2.0512 -3.5714
  540MOL0     H72840   2.891   1.850   9.607  2.0091 -0.1853 -0.8738
  540MOL0     H72841   2.902   1.727   9.886 -0.9431 -1.2242 -1.6252
  540MOL0     H72842   3.011   1.835   9.814  1.0008 -1.9538 -3.8566
  540MOL0     H72843   2.849   1.966   9.949 -1.6396  3.2231 -0.6761
  540MOL0     H72844   2.803   1.988   9.775 -1.8218 -0.6667 -1.0281
  540MOL0     H72845   2.643   1.821   9.793  0.3062  3.3940 -1.7379
  540MOL0     H72846   2.664   1.799   9.972 -1.8352  1.0689  0.3249
  540MOL0     H72847   2.604   2.055   9.967  2.4038  2.3249 -4.1034
  540MOL0     H72848   2.479   1.917   9.968  0.4327 -0.6864 -1.5417
  540MOL0     H72849   2.562   2.129   9.757 -0.4486  0.6614  0.6877
  540MOL0     H72850   2.517   1.964   9.708  1.8819 -1.7524  1.5108
  540MOL0     H72851   2.385   2.269   9.686  0.7873 -0.3600 -0.9457
  540MOL0     H72852   2.067   2.304   9.614  0.6603 -0.8123 -1.3612
  540MOL0     H72853   2.005   2.300   9.782  0.3961 -3.2336 -0.0750
  540MOL0     H72854   2.175   2.455   9.851  1.3878  0.9329 -0.4675
  540MOL0     H72855   2.243   2.462   9.688 -2.1472  0.7697 -4.4716
  540MOL0     H72856   1.971   2.564   9.780  2.8534  0.4317  1.6009
  540MOL0     H72857   2.004   2.527   9.604  3.1433 -1.4691 -0.3972
  540MOL0     H72858   2.208   2.663   9.617 -1.8488 -2.0740 -2.7284
  540MOL0     H72859   2.141   2.725   9.778 -1.7690  0.6206  0.5765
  540MOL0     H72860   2.238   2.926   9.652 -0.6588 -2.2850 -2.9503
  540MOL0     H72861   2.233   3.162   9.689  0.0067  1.0824 -0.2366
  540MOL0     H72862   2.234   3.439   9.963  0.0608  0.0626 -2.6032
  540MOL0     H72863   2.301   3.655  10.043 -0.2482 -1.9881  0.6257
  540MOL0     H72864   2.272   3.929  10.136 -1.9175 -2.6409 -1.4393
  540MOL0     H72865   2.388   3.831  10.029 -0.0263 -1.5743  2.2562
  540MOL0     H72866   2.290   4.100   9.918 -2.9317  0.7724  2.1997
  540MOL0     H72867   2.412   4.102  10.058 -2.2876  0.3662  0.9941
  540MOL0     H72868   2.545   4.110   9.885  0.8183 -0.9471  0.9992
  540MOL0     H72869   2.546   3.940   9.922 -1.0525 -0.8483  1.9630
  540MOL0     H72870   2.408   4.079   9.681  1.6809 -0.3052 -1.2452
  540MOL0     H72871   2.339   3.929   9.747 -0.4352 -1.3879  3.5849
  540MOL0     H72872   2.482   3.890   9.552 -1.7599  1.1388  0.6592
  540MOL0     H72873   2.556   3.813   9.705 -1.4275 -0.0982  1.5858
  540MOL0     H72874   2.630   4.092   9.609 -0.0211 -0.2295  0.7641
  540MOL0     H72875   2.713   3.977   9.718 -3.5555  0.5611  2.8748
  540MOL0     H72876   2.682   3.987   9.409 -0.3253 -1.1418  0.0424
  540MOL0     H72877   2.754   3.855   9.501 -0.2471  0.8929  1.7503
  540MOL0     H72878   2.888   4.120   9.513  0.2844 -0.0528  0.7145
  540MOL0     H72879   2.934   3.965   9.562 -2.1366 -0.4248  0.4734
  540MOL0     H72880   1.976   3.811   9.794  0.3274 -0.8816 -0.2448
  540MOL0     H72881   1.947   3.609   9.708 -1.4899  0.9896 -0.2355
  540MOL0     H72882   1.804   3.172   9.640  0.1417 -0.4423 -0.0343
  540MOL0     H72883   1.819   2.913   9.591 -0.8818  2.1594 -0.3482
  540MOL0     H72884   3.271   1.603   9.228  1.1424  1.5672 -0.6569
  540MOL0     H72885   3.499   1.613   9.163 -3.8332 -0.0939 -0.7116
  540MOL0     H72886   3.976   1.603   9.042  2.0355  0.5948 -3.0800
  540MOL0     H72887   4.194   1.684   9.005  0.2871  0.5664 -1.3124
  540MOL0     H72888   4.298   2.071   9.219 -3.6657 -2.9361 -1.4284
  540MOL0     H72889   4.465   2.012   9.193 -0.4090  3.5508  1.8142
  540MOL0     H72890   4.396   1.836   9.373  0.6980  0.6347  2.0209
  540MOL0     H72891   4.279   1.958   9.418 -0.3062  1.8768 -1.7750
  540MOL0     H72892   4.461   2.136   9.429 -1.6131 -0.8101 -0.9096
  540MOL0     H72893   4.581   2.009   9.410  0.0877 -5.3298 -0.2919
  540MOL0     H72894   4.372   2.012   9.630 -0.3006  0.9109 -2.3346
  540MOL0     H72895   4.481   1.875   9.593  0.4593 -0.4619  0.3214
  540MOL0     H72896   4.750   2.187   9.744  2.2788 -0.5475 -2.3916
  540MOL0     H72897   4.129   2.001   9.280  1.1741 -0.3676  0.4938
  540MOL0     H72898   3.816   1.978   9.368 -0.3869  0.7959  2.6014
  540MOL0     H72899   3.894   1.869   9.490 -0.9487  3.4898  2.3122
  540MOL0     H72900   3.978   2.000   9.449 -3.0900  1.5523  1.5488
  541MOL0     O72901   2.387   2.345  10.463 -0.6229  0.1772  0.1711
  541MOL0     C72902   2.466   2.274  10.521 -0.2726 -0.3304  0.0914
  541MOL0     O72903   2.424   2.154  10.583 -0.3355  0.1331 -0.2664
  541MOL0     C72904   2.299   2.114  10.590 -0.0574 -0.0317  0.4258
  541MOL0     C72905   2.193   2.201  10.626  0.4215 -0.3327 -0.7963
  541MOL0     C72906   2.065   2.155  10.597  0.2850  0.4613  0.3535
  541MOL0     C72907   2.034   2.026  10.549 -0.1749 -0.3484  0.3793
  541MOL0     O72908   1.898   2.002  10.523 -0.0774 -0.2675 -0.3545
  541MOL0     C72909   1.863   1.872  10.475 -0.1828 -0.3119  0.1588
  541MOL0     C72910   1.880   1.763  10.584 -0.3797  0.3387 -0.6495
  541MOL0     C72911   1.812   1.634  10.542  0.8081  0.2700  0.0153
  541MOL0     C72912   1.839   1.525  10.646  0.3816  0.1819  0.9345
  541MOL0     C72913   1.823   1.383  10.605 -0.5339 -0.2153 -0.0544
  541MOL0     C72914   1.849   1.280  10.712 -0.6248 -1.1847 -0.7298
  541MOL0     C72915   1.857   1.129  10.669  0.4508 -0.4782  0.9638
  541MOL0     C72916   1.761   1.043  10.753 -0.3653  0.8324 -0.6214
  541MOL0     N72917   1.761   0.903  10.703 -0.3880  0.4220 -0.7589
  541MOL0     C72918   1.850   0.799  10.729 -0.5245  0.7225 -1.2991
  541MOL0     C72919   1.787   0.682  10.693 -0.2666 -0.9392  0.5423
  541MOL0     C72920   1.852   0.544  10.707 -0.8900 -0.4045 -0.3912
  541MOL0     C72921   1.953   0.528  10.602 -0.3782  0.6536  0.0755
  541MOL0     C72922   1.969   0.371  10.583 -0.6005 -0.2866  0.1802
  541MOL0     C72923   2.032   0.300  10.697  0.0437 -0.2459 -0.3888
  541MOL0     O72924   2.067   0.167  10.662 -0.0987 -0.3104 -0.6951
  541MOL0     C72925   2.194   0.111  10.665 -0.2792 -0.5036  0.9881
  541MOL0     C72926   2.203  -0.029  10.688  0.3449 -0.3584  0.6333
  541MOL0     C72927   2.324  -0.096  10.665 -0.0617  0.0741  0.2431
  541MOL0     C72928   2.445  -0.021  10.662  0.7794  0.2794  0.3255
  541MOL0     C72929   2.576  -0.093  10.662 -0.3417  0.5657  0.3861
  541MOL0     O72930   2.568  -0.232  10.667  0.3558  0.1621  1.2499
  541MOL0     C72931   2.679  -0.303  10.639  0.4355  0.4548 -0.1103
  541MOL0     C72932   2.786  -0.301  10.727 -0.5578 -0.5749  1.4472
  541MOL0     C72933   2.905  -0.383  10.703 -0.1887 -0.6253  0.1818
  541MOL0     C72934   2.896  -0.489  10.608  1.0052 -0.0963 -0.3646
  541MOL0     O72935   3.001  -0.572  10.605  0.3820  0.4324  0.4958
  541MOL0     C72936   3.047  -0.634  10.473 -0.1677 -0.8622 -0.3025
  541MOL0     C72937   3.202  -0.616  10.478  0.5379 -0.5470  0.4431
  541MOL0     C72938   3.259  -0.699  10.370 -0.7232 -0.7709 -0.2019
  541MOL0     C72939   3.414  -0.721  10.372  0.0896  0.0438 -0.2031
  541MOL0     C72940   3.477  -0.829  10.271  0.1215 -0.0580 -0.2106
  541MOL0     C72941   3.609  -0.887  10.339  0.4377 -0.8193  0.0768
  541MOL0     C72942   3.705  -0.969  10.249  0.1887 -0.4886 -0.3387
  541MOL0     C72943   3.750  -0.899  10.124 -0.8344 -1.0426  0.2909
  541MOL0    Cl72944   3.795  -0.731  10.153  0.3893  0.3380  0.0111
  541MOL0     C72945   2.781  -0.492  10.524  0.0318 -0.5424  0.6332
  541MOL0     C72946   2.688  -0.396  10.531  0.8612  1.0904 -0.0352
  541MOL0     O72947   2.680  -0.025  10.656 -0.0763  0.9731 -0.1388
  541MOL0     C72948   2.436   0.117  10.660  0.4178 -0.0372  0.7769
  541MOL0     C72949   2.309   0.181  10.654  0.3678  0.4550 -0.1612
  541MOL0     N72950   1.660   0.714  10.647  0.5653 -1.2900 -0.2875
  541MOL0     N72951   1.645   0.846  10.658  0.0888  0.2540 -0.4476
  541MOL0     C72952   2.143   1.942  10.516 -0.1929  0.1347  0.1379
  541MOL0     C72953   2.272   1.990  10.532  0.1771  0.5788 -0.0054
  541MOL0     C72954   2.611   2.312  10.534 -0.3353  1.3723  0.9074
  541MOL0     C72955   2.692   2.208  10.574 -0.9150  0.9733 -0.2289
  541MOL0     C72956   2.824   2.238  10.593 -1.3366  0.4261  1.2257
  541MOL0     C72957   2.882   2.367  10.579  0.0879  0.9570 -0.8580
  541MOL0     O72958   3.019   2.373  10.578 -0.5188 -0.8771  0.5299
  541MOL0     C72959   3.071   2.511  10.588 -0.0873 -0.7319  0.4133
  541MOL0     C72960   3.215   2.496  10.628  0.0764  0.1051 -0.2468
  541MOL0     C72961   3.294   2.627  10.638  0.2296  0.1921 -1.0818
  541MOL0     C72962   3.316   2.703  10.496 -0.4634  0.4236 -0.2335
  541MOL0     C72963   3.454   2.671  10.447  0.1746  0.0170  0.8475
  541MOL0     C72964   3.562   2.629  10.417 -1.0790  1.1885  0.4125
  541MOL0     C72965   2.797   2.462  10.547  0.8757 -1.1530 -0.0299
  541MOL0     C72966   2.659   2.443  10.525  0.3933 -0.3719  0.2913
  541MOL0     C72967   2.573   2.564  10.506 -0.1772 -0.4681  0.1887
  541MOL0     H72968   2.219   2.302  10.654  2.3406 -0.4083 -2.0558
  541MOL0     H72969   1.975   2.211  10.623 -1.5709 -0.6824 -3.0045
  541MOL0     H72970   1.763   1.866  10.431 -0.1411  0.7678 -0.1200
  541MOL0     H72971   1.932   1.854  10.391  2.2772  1.8268  1.5570
  541MOL0     H72972   1.837   1.786  10.681  2.2377  1.9607  0.2236
  541MOL0     H72973   1.985   1.746  10.610 -0.5055  1.1632  0.4555
  541MOL0     H72974   1.867   1.604  10.453  1.9086  1.9333  0.0965
  541MOL0     H72975   1.704   1.643  10.523  0.9288  0.3129 -0.6888
  541MOL0     H72976   1.940   1.541  10.683  1.4224  3.0188 -2.6042
  541MOL0     H72977   1.774   1.542  10.733  2.3232 -0.5312  2.6102
  541MOL0     H72978   1.718   1.378  10.576 -0.8714 -0.0639  1.1140
  541MOL0     H72979   1.879   1.373  10.511 -2.9843  0.5383 -1.6869
  541MOL0     H72980   1.949   1.288  10.756 -1.1567 -0.6945  0.4404
  541MOL0     H72981   1.774   1.290  10.791 -1.6141 -0.4321 -1.7389
  541MOL0     H72982   1.960   1.098  10.687  0.5750 -0.5705  0.1407
  541MOL0     H72983   1.843   1.115  10.561  1.4267  0.0414  0.7568
  541MOL0     H72984   1.783   1.049  10.860  3.3991  2.6959 -1.3462
  541MOL0     H72985   1.658   1.078  10.742 -1.2367 -1.0624  0.8240
  541MOL0     H72986   1.954   0.817  10.758 -0.6871 -0.3527  0.0485
  541MOL0     H72987   1.892   0.513  10.804  2.8684 -0.7062 -1.8855
  541MOL0     H72988   1.769   0.485  10.666 -2.5391  1.8398 -0.5240
  541MOL0     H72989   1.908   0.570  10.511  0.1799  2.2942  0.5243
  541MOL0     H72990   2.047   0.579  10.620  1.5197 -1.7940 -2.1223
  541MOL0     H72991   2.038   0.355  10.499 -1.6248 -3.8810 -0.1318
  541MOL0     H72992   1.880   0.315  10.554  0.3117 -3.2257  2.5038
  541MOL0     H72993   1.963   0.299  10.782  2.0481  1.7127  1.4020
  541MOL0     H72994   2.116   0.356  10.741 -1.5482 -0.7306  3.7301
  541MOL0     H72995   2.104  -0.073  10.694  0.7434 -1.1926  1.2430
  541MOL0     H72996   2.328  -0.203  10.685  0.9448  0.6468  3.8289
  541MOL0     H72997   2.801  -0.219  10.796  0.7183  1.4976 -1.1464
  541MOL0     H72998   2.994  -0.378  10.764 -1.3192 -1.6365  1.9822
  541MOL0     H72999   3.021  -0.740  10.478  1.8325 -1.3478  0.7849
  541MOL0     H73000   3.009  -0.570  10.392  0.5139  0.5143  0.4236
  541MOL0     H73001   3.219  -0.508  10.468 -0.2905 -0.4213  0.2817
  541MOL0     H73002   3.237  -0.651  10.575  0.3926 -3.5889 -0.4913
  541MOL0     H73003   3.217  -0.793  10.409  0.9753 -0.5539  2.3879
  541MOL0     H73004   3.239  -0.658  10.270  2.2966 -1.8070 -1.3381
  541MOL0     H73005   3.440  -0.747  10.475  1.0187  1.7856  0.0518
  541MOL0     H73006   3.461  -0.628  10.338 -4.8952  3.3923  0.9525
  541MOL0     H73007   3.499  -0.780  10.176  0.1342  0.1895 -0.0816
  541MOL0     H73008   3.398  -0.899  10.244  1.0041 -0.9027 -0.6378
  541MOL0     H73009   3.663  -0.805  10.388 -3.6824  2.1274  0.1912
  541MOL0     H73010   3.574  -0.952  10.420 -0.0215  2.9392  3.2156
  541MOL0     H73011   3.664  -1.068  10.229  0.2672 -1.0959  2.1373
  541MOL0     H73012   3.799  -0.981  10.303  1.2709  1.4701 -1.6425
  541MOL0     H73013   3.837  -0.941  10.072 -0.7862  0.8032 -1.2436
  541MOL0     H73014   3.667  -0.888  10.054 -1.4766  1.3549  1.3160
  541MOL0     H73015   2.779  -0.582  10.463 -0.9118 -0.7217  0.9182
  541MOL0     H73016   2.603  -0.401  10.464  0.8963  2.5860 -0.2282
  541MOL0     H73017   2.528   0.174  10.650 -1.0395  2.2859 -0.3031
  541MOL0     H73018   2.296   0.289  10.650 -0.3191  0.4258  0.7954
  541MOL0     H73019   2.140   1.856  10.450 -1.6123 -0.6708  1.1783
  541MOL0     H73020   2.360   1.949  10.483  0.3622 -0.7107  1.3433
  541MOL0     H73021   2.664   2.105  10.593  2.3130  0.3099  1.6296
  541MOL0     H73022   2.899   2.163  10.616 -1.5826 -1.1077 -2.3303
  541MOL0     H73023   3.019   2.569  10.665 -0.7537  1.9288 -1.8558
  541MOL0     H73024   3.068   2.568  10.494  0.2159  0.0445  0.8627
  541MOL0     H73025   3.280   2.431  10.568 -1.4975 -2.2335  0.4473
  541MOL0     H73026   3.204   2.453  10.728 -2.6322  1.0411 -0.0735
  541MOL0     H73027   3.383   2.589  10.689 -1.1509 -2.3874 -0.4018
  541MOL0     H73028   3.252   2.691  10.715 -0.4995 -0.1664 -1.1676
  541MOL0     H73029   3.245   2.680  10.416  1.0593 -4.3909 -0.5547
  541MOL0     H73030   3.314   2.811  10.514  2.0283  1.0247 -2.8398
  541MOL0     H73031   3.641   2.567  10.380 -1.6669  0.0042  1.1104
  541MOL0     H73032   2.829   2.566  10.548  0.9299 -1.1366 -1.3449
  541MOL0     H73033   2.537   2.561  10.403 -3.1970  0.5440  1.1059
  541MOL0     H73034   2.490   2.555  10.576 -3.9086 -0.7340 -3.8842
  541MOL0     H73035   2.622   2.659  10.528 -0.6538 -0.5900  1.9422
  542MOL0     O73036   6.753  11.339   8.795  0.6290 -0.2280 -0.0530
  542MOL0     C73037   6.672  11.245   8.787  1.3086  0.2240  0.2242
  542MOL0     O73038   6.542  11.230   8.854 -0.2740 -0.5440 -0.3600
  542MOL0     C73039   6.515  11.315   8.960  0.4989 -0.4788 -0.5472
  542MOL0     C73040   6.474  11.443   8.947 -0.6767  0.6678  0.8434
  542MOL0     C73041   6.437  11.526   9.051 -0.6307 -0.4025 -0.2778
  542MOL0     C73042   6.454  11.473   9.179  0.0362  0.5932 -0.3274
  542MOL0     O73043   6.437  11.551   9.294  0.3683 -0.2180  0.5992
  542MOL0     C73044   6.514  11.551   9.415 -0.8049  0.3672 -0.3726
  542MOL0     C73045   6.534  11.703   9.449  0.2593  0.5375 -0.0279
  542MOL0     C73046   6.539  11.722   9.609 -0.5553  0.3867 -0.5273
  542MOL0     C73047   6.673  11.660   9.662 -0.1513 -0.3794 -0.1073
  542MOL0     C73048   6.788  11.745   9.640  0.1799  0.3120  0.1734
  542MOL0     C73049   6.919  11.667   9.659 -0.6499  0.4104 -0.7375
  542MOL0     C73050   7.040  11.754   9.683  0.7569 -0.4241 -0.7973
  542MOL0     C73051   7.171  11.679   9.659 -0.0888  0.5041 -0.1745
  542MOL0     N73052   7.293  11.764   9.658  0.1041 -0.2440 -0.4713
  542MOL0     C73053   7.377  11.787   9.770  1.0809  0.5068  0.1206
  542MOL0     C73054   7.458  11.886   9.735  0.2893 -1.1701 -0.2290
  542MOL0     C73055   7.576  11.933   9.816 -0.1038 -0.4010  0.1744
  542MOL0     C73056   7.681  11.825   9.824 -0.3401 -0.1444  0.3381
  542MOL0     C73057   7.778  11.834   9.941  0.8906 -0.4819 -0.1588
  542MOL0     C73058   7.725  11.792  10.078  0.5599 -0.5058  0.0595
  542MOL0     O73059   7.614  11.864  10.115  0.4166  0.0827  0.0928
  542MOL0     C73060   7.560  11.835  10.237 -0.0017 -0.2869  0.4665
  542MOL0     C73061   7.628  11.787  10.347 -0.8032 -0.9345 -0.2193
  542MOL0     C73062   7.559  11.749  10.462  0.2864  0.0728 -0.5306
  542MOL0     C73063   7.423  11.757  10.468  0.1269 -1.5692  0.4434
  542MOL0     C73064   7.367  11.724  10.592  0.8052 -0.1190  0.4847
  542MOL0     O73065   7.440  11.659  10.695 -0.1503  1.1129 -0.3906
  542MOL0     C73066   7.392  11.659  10.822 -0.1057 -0.6297  1.7284
  542MOL0     C73067   7.293  11.572  10.860  0.2467 -0.1637 -0.1863
  542MOL0     C73068   7.229  11.596  10.986  0.6352 -0.0088 -0.8587
  542MOL0     C73069   7.278  11.696  11.078  0.4560  0.3526  0.2365
  542MOL0     O73070   7.220  11.703  11.200 -0.1044 -0.5840 -0.4792
  542MOL0     C73071   7.305  11.691  11.313 -0.3604 -0.3707  0.6159
  542MOL0     C73072   7.239  11.747  11.439 -0.2827 -0.8813 -0.0728
  542MOL0     C73073   7.145  11.642  11.498 -0.3951  0.8457  0.7728
  542MOL0     C73074   7.135  11.646  11.650  0.1031  0.9247 -0.4421
  542MOL0     C73075   7.098  11.508  11.705  1.0245 -0.5998  0.5764
  542MOL0     C73076   7.080  11.533  11.859  0.1955 -0.1387  1.2594
  542MOL0     C73077   6.966  11.615  11.908  0.3848  1.0987 -0.0117
  542MOL0     C73078   6.833  11.553  11.860 -0.1004 -1.0226  0.3477
  542MOL0    Cl73079   6.804  11.378  11.900  0.2860  0.1489 -0.0052
  542MOL0     C73080   7.378  11.776  11.030 -0.7143 -0.3228  0.4999
  542MOL0     C73081   7.439  11.761  10.904 -0.5308 -0.5293  0.7080
  542MOL0     O73082   7.251  11.756  10.600 -0.8097  0.2165 -0.5513
  542MOL0     C73083   7.349  11.806  10.353 -0.6557 -0.4112  0.4370
  542MOL0     C73084   7.423  11.841  10.248 -0.1100  0.3864 -0.0686
  542MOL0     N73085   7.420  11.921   9.608 -0.2870 -0.1937  1.9959
  542MOL0     N73086   7.334  11.844   9.556  0.7574  0.6099  0.5760
  542MOL0     C73087   6.489  11.343   9.206 -0.5512  0.2391  0.2428
  542MOL0     C73088   6.518  11.263   9.092  0.0880  0.2400 -0.5727
  542MOL0     C73089   6.702  11.130   8.698  0.1619 -0.1735 -0.8273
  542MOL0     C73090   6.600  11.026   8.683 -0.8402 -0.2214 -0.3940
  542MOL0     C73091   6.619  10.912   8.602 -0.5780 -0.7481  0.5184
  542MOL0     C73092   6.741  10.889   8.538 -0.3648 -0.1634 -0.0311
  542MOL0     O73093   6.750  10.783   8.451 -0.1135  1.0324  1.5559
  542MOL0     C73094   6.827  10.794   8.339 -0.1982 -0.1974  0.1219
  542MOL0     C73095   6.761  10.701   8.234 -0.3821 -0.2847 -0.9545
  542MOL0     C73096   6.834  10.706   8.103 -0.5078  0.6350 -0.2062
  542MOL0     C73097   6.744  10.652   7.988  0.2962 -0.2761 -0.5313
  542MOL0     C73098   6.728  10.506   8.005  0.5246  0.4448 -1.9029
  542MOL0     C73099   6.701  10.385   8.007 -0.7622 -0.4893 -0.1160
  542MOL0     C73100   6.851  10.990   8.551  0.3268  0.4520  0.2115
  542MOL0     C73101   6.832  11.104   8.633  0.2189  0.0340  0.4398
  542MOL0     C73102   6.944  11.176   8.678  0.0152  0.5121 -0.1499
  542MOL0     H73103   6.482  11.479   8.845 -1.8181 -1.5501 -0.1081
  542MOL0     H73104   6.399  11.627   9.041 -3.7767 -1.1463  2.5510
  542MOL0     H73105   6.466  11.500   9.499  3.0179 -0.0965  1.7762
  542MOL0     H73106   6.607  11.493   9.412 -2.9298 -3.4210  0.2675
  542MOL0     H73107   6.449  11.761   9.411  0.7031  1.1404 -0.1081
  542MOL0     H73108   6.624  11.742   9.402  0.1985  0.1879 -0.4446
  542MOL0     H73109   6.462  11.655   9.646  1.1779 -1.1456  0.4812
  542MOL0     H73110   6.528  11.820   9.657  1.1674 -0.1688  1.1541
  542MOL0     H73111   6.666  11.651   9.770  4.3173  2.2092  0.6225
  542MOL0     H73112   6.684  11.558   9.623  0.5974 -0.6877  0.8750
  542MOL0     H73113   6.798  11.777   9.535 -1.4464  0.9738  0.1968
  542MOL0     H73114   6.787  11.830   9.709  3.7428  3.8887 -3.5419
  542MOL0     H73115   6.911  11.613   9.754 -1.0492  1.5079 -0.1292
  542MOL0     H73116   6.936  11.592   9.582 -2.6000  0.6967 -1.4979
  542MOL0     H73117   7.034  11.790   9.786 -0.5823  1.3466 -1.4335
  542MOL0     H73118   7.045  11.840   9.614  1.8055  0.8923  0.8369
  542MOL0     H73119   7.193  11.605   9.737  1.2268  2.2286  1.1719
  542MOL0     H73120   7.164  11.631   9.560 -0.7816 -3.8149  1.7331
  542MOL0     H73121   7.389  11.721   9.856 -2.2404 -2.6967 -1.6020
  542MOL0     H73122   7.609  12.027   9.770 -1.0972 -0.3824 -0.5263
  542MOL0     H73123   7.530  11.966   9.909  1.1899  2.0830 -0.0076
  542MOL0     H73124   7.648  11.721   9.820  0.8579 -0.5069 -3.3145
  542MOL0     H73125   7.744  11.822   9.735 -1.1368  0.3668 -0.2513
  542MOL0     H73126   7.826  11.932   9.949  0.0199 -0.0738  0.1408
  542MOL0     H73127   7.860  11.763   9.924 -1.4451 -4.3460  2.8627
  542MOL0     H73128   7.815  11.787  10.141  0.8080  0.6182 -0.1752
  542MOL0     H73129   7.681  11.694  10.059 -1.4769  0.5245 -0.8688
  542MOL0     H73130   7.737  11.780  10.341 -0.5408 -0.0254  2.1933
  542MOL0     H73131   7.613  11.717  10.551 -2.4843  0.4359  1.4160
  542MOL0     H73132   7.254  11.500  10.789 -1.4704  0.1480  0.3905
  542MOL0     H73133   7.144  11.541  11.025 -0.0794  0.1265 -2.1633
  542MOL0     H73134   7.342  11.591  11.335 -2.0118 -0.7117  2.0745
  542MOL0     H73135   7.393  11.751  11.285 -1.4914 -0.5861 -4.3459
  542MOL0     H73136   7.304  11.787  11.517 -1.7734  1.7789 -0.0790
  542MOL0     H73137   7.169  11.830  11.424 -0.5600 -0.7610  1.7084
  542MOL0     H73138   7.042  11.657  11.465  0.0683  2.9472  0.1563
  542MOL0     H73139   7.175  11.540  11.474  0.4068  1.2866 -0.1639
  542MOL0     H73140   7.047  11.708  11.671 -2.8709 -3.8506  3.3137
  542MOL0     H73141   7.225  11.687  11.696 -0.5683  2.1916 -0.1936
  542MOL0     H73142   7.175  11.430  11.694  1.1735 -0.3844  0.0584
  542MOL0     H73143   7.004  11.475  11.662  0.0332  3.0630 -0.3690
  542MOL0     H73144   7.076  11.442  11.919  4.9578 -0.5983  1.1968
  542MOL0     H73145   7.176  11.579  11.885  0.9599  0.4040 -2.1399
  542MOL0     H73146   6.980  11.715  11.866  1.4756  1.6471  1.5929
  542MOL0     H73147   6.974  11.635  12.015 -0.3121 -6.6283  2.1199
  542MOL0     H73148   6.747  11.609  11.897 -0.7028 -1.4301 -0.4090
  542MOL0     H73149   6.833  11.569  11.752 -1.8009 -1.9450  0.1795
  542MOL0     H73150   7.411  11.853  11.098  0.4883  0.4694 -0.9280
  542MOL0     H73151   7.519  11.821  10.863 -0.2669 -0.9207  0.6413
  542MOL0     H73152   7.242  11.819  10.346 -0.4413  1.7725  0.3428
  542MOL0     H73153   7.381  11.868  10.152 -0.4733 -0.1667 -0.0686
  542MOL0     H73154   6.501  11.299   9.304 -1.5921  0.0958  0.3168
  542MOL0     H73155   6.552  11.161   9.102  0.4386  0.3612 -0.5004
  542MOL0     H73156   6.503  11.031   8.732 -1.1019  1.3724 -1.0220
  542MOL0     H73157   6.542  10.837   8.590 -0.0800 -1.1036 -0.6772
  542MOL0     H73158   6.930  10.762   8.357  0.8265  1.8436 -1.6470
  542MOL0     H73159   6.841  10.898   8.308 -0.5763  0.2036  1.2395
  542MOL0     H73160   6.661  10.744   8.223  0.3201  1.6124 -0.3439
  542MOL0     H73161   6.760  10.599   8.274 -0.4622 -0.8947 -2.4660
  542MOL0     H73162   6.921  10.641   8.116 -0.8225  0.1790 -0.3478
  542MOL0     H73163   6.875  10.805   8.084 -1.1090  1.7236  3.4225
  542MOL0     H73164   6.649  10.707   7.981  1.3254  1.6069 -0.3783
  542MOL0     H73165   6.784  10.654   7.886  1.0386 -2.7873 -0.3556
  542MOL0     H73166   6.682  10.284   8.038 -2.0098  0.6713  3.4100
  542MOL0     H73167   6.947  10.971   8.504 -0.1178 -1.4245 -0.0345
  542MOL0     H73168   7.028  11.124   8.630 -0.9534 -2.4337  1.1079
  542MOL0     H73169   6.954  11.283   8.663  2.2264  0.4325  0.3788
  542MOL0     H73170   6.966  11.158   8.784 -0.1361 -1.6339 -0.4285
  543MOL0     O73171   6.909   6.035   4.575  0.3119 -0.0798  0.0443
  543MOL0     C73172   6.798   5.996   4.597  1.1974 -0.7815  0.4056
  543MOL0     O73173   6.734   6.031   4.715  1.2779  0.1306 -0.9261
  543MOL0     C73174   6.813   6.098   4.808 -0.2290  0.3334 -0.6446
  543MOL0     C73175   6.821   6.036   4.942 -0.3622 -0.0819 -0.0636
  543MOL0     C73176   6.883   6.118   5.041  0.4408  0.0664  0.3672
  543MOL0     C73177   6.939   6.246   5.018 -0.1459 -0.4642  0.8662
  543MOL0     O73178   7.008   6.317   5.106  0.6221 -0.3688 -1.0420
  543MOL0     C73179   7.035   6.256   5.230 -0.1729  0.0017 -1.0989
  543MOL0     C73180   7.139   6.143   5.238 -0.0570  0.2340  0.3218
  543MOL0     C73181   7.229   6.174   5.356  0.7044 -1.3495 -0.8456
  543MOL0     C73182   7.348   6.078   5.357 -0.1399 -0.4656  0.2287
  543MOL0     C73183   7.429   6.090   5.485 -0.0267 -0.4147  0.3233
  543MOL0     C73184   7.580   6.036   5.457 -0.1762 -0.1951  0.3029
  543MOL0     C73185   7.658   6.002   5.586  0.5426 -0.5182  1.1404
  543MOL0     C73186   7.811   5.982   5.555  0.1723 -0.1649 -0.0070
  543MOL0     N73187   7.809   5.857   5.474 -0.5008 -0.0184  1.5329
  543MOL0     C73188   7.889   5.847   5.354  0.6684  0.6517 -0.9653
  543MOL0     C73189   7.920   5.708   5.348  0.6234 -0.4295  0.2228
  543MOL0     C73190   8.003   5.630   5.245  0.7342 -0.1194 -0.2660
  543MOL0     C73191   7.942   5.639   5.105 -0.4844  0.1471 -0.1460
  543MOL0     C73192   7.822   5.551   5.084  0.6196 -0.2952  0.3974
  543MOL0     C73193   7.777   5.530   4.938  0.6883 -0.8658 -0.3463
  543MOL0     O73194   7.885   5.475   4.860 -0.1804 -0.2026 -0.4652
  543MOL0     C73195   7.882   5.472   4.725 -0.2969 -0.2800 -0.1458
  543MOL0     C73196   8.000   5.477   4.649  0.1807  0.3457  0.1084
  543MOL0     C73197   7.998   5.491   4.510  0.3033 -0.1067 -0.6840
  543MOL0     C73198   7.872   5.491   4.434  0.0390 -0.7903 -0.0064
  543MOL0     C73199   7.866   5.504   4.287 -1.0879  1.3528 -0.3065
  543MOL0     O73200   7.750   5.542   4.222  0.1125  0.3636 -0.0047
  543MOL0     C73201   7.739   5.550   4.086  0.9267 -0.3367 -0.1652
  543MOL0     C73202   7.659   5.659   4.039  0.0584  0.6687 -0.3045
  543MOL0     C73203   7.633   5.659   3.903  0.6809 -0.4411 -0.5829
  543MOL0     C73204   7.683   5.564   3.814  0.1550  0.0744  0.2452
  543MOL0     O73205   7.656   5.572   3.682  0.4149 -0.3702  0.1252
  543MOL0     C73206   7.559   5.675   3.639  0.1856  0.0563  0.6134
  543MOL0     C73207   7.539   5.671   3.492  0.2036  0.0484  0.0715
  543MOL0     C73208   7.486   5.537   3.447  0.7915  0.0081  0.7168
  543MOL0     C73209   7.549   5.492   3.314  0.7195 -0.0747  0.1414
  543MOL0     C73210   7.496   5.356   3.278 -0.2253 -0.0157  1.0866
  543MOL0     C73211   7.577   5.299   3.160  0.1057  0.0387  0.7019
  543MOL0     C73212   7.529   5.165   3.113  1.4244  0.7501  0.0190
  543MOL0     C73213   7.610   5.089   3.008 -0.0011 -0.8394 -0.0620
  543MOL0    Cl73214   7.552   4.934   3.013 -0.4292  0.4758  0.4255
  543MOL0     C73215   7.761   5.458   3.872 -0.0364  0.1980  0.1088
  543MOL0     C73216   7.787   5.449   4.008 -0.2581 -0.2631 -0.2163
  543MOL0     O73217   7.976   5.484   4.236 -0.3035  0.3881  0.4893
  543MOL0     C73218   7.752   5.494   4.513 -0.1539 -0.3504  0.0474
  543MOL0     C73219   7.760   5.482   4.653  0.2560  0.1556  0.2245
  543MOL0     N73220   7.855   5.644   5.443  0.4023  0.7681  0.4474
  543MOL0     N73221   7.795   5.733   5.517 -0.3118  0.1176  0.4468
  543MOL0     C73222   6.932   6.297   4.888 -0.1697 -0.0924 -1.1065
  543MOL0     C73223   6.865   6.222   4.788 -0.9627 -0.3695  0.7258
  543MOL0     C73224   6.718   5.921   4.502  0.1161 -0.6487 -0.1789
  543MOL0     C73225   6.584   5.958   4.496  0.1450  0.8599  0.2482
  543MOL0     C73226   6.485   5.885   4.422  0.2237  0.1464 -0.1090
  543MOL0     C73227   6.530   5.773   4.352  0.1701  0.3466  0.3544
  543MOL0     O73228   6.449   5.695   4.276 -0.4683  0.3664  0.6921
  543MOL0     C73229   6.354   5.772   4.196 -1.0848  0.6245 -1.1583
  543MOL0     C73230   6.354   5.703   4.061  0.0194  0.1385 -0.0869
  543MOL0     C73231   6.485   5.720   3.988 -0.1941 -0.2903 -0.1594
  543MOL0     C73232   6.444   5.688   3.841 -0.4075 -0.3234  0.6646
  543MOL0     C73233   6.538   5.721   3.737 -0.7927 -1.4327 -0.3187
  543MOL0     C73234   6.627   5.759   3.663 -0.1347  0.0419  0.1973
  543MOL0     C73235   6.667   5.741   4.350 -0.1064 -0.2351  0.3518
  543MOL0     C73236   6.760   5.815   4.423 -0.2449  0.0509 -0.0643
  543MOL0     C73237   6.914   5.778   4.412  0.3605 -0.0234 -0.1875
  543MOL0     H73238   6.773   5.944   4.973  2.0149 -1.4409 -0.1545
  543MOL0     H73239   6.871   6.076   5.140 -0.3956  0.6018  0.5058
  543MOL0     H73240   7.074   6.341   5.286 -0.2436  0.5570 -1.8698
  543MOL0     H73241   6.946   6.214   5.277 -2.5672 -0.1761 -5.2256
  543MOL0     H73242   7.199   6.150   5.147 -2.3547  2.6591 -1.1408
  543MOL0     H73243   7.099   6.042   5.250  2.9132 -1.0410  0.4416
  543MOL0     H73244   7.164   6.162   5.443 -3.4735  4.2084 -2.6341
  543MOL0     H73245   7.254   6.280   5.353 -2.5222 -0.5073 -1.7972
  543MOL0     H73246   7.319   5.973   5.344  1.0975 -0.7438 -0.4576
  543MOL0     H73247   7.406   6.095   5.266 -0.4511 -1.8703 -0.2582
  543MOL0     H73248   7.433   6.198   5.503 -0.8626 -0.3509  0.1372
  543MOL0     H73249   7.376   6.035   5.563 -3.2267  0.7018 -0.9344
  543MOL0     H73250   7.572   5.943   5.400  1.2052 -0.3449  0.2995
  543MOL0     H73251   7.631   6.117   5.403 -2.5198  1.5137  0.4785
  543MOL0     H73252   7.619   5.909   5.629 -0.8068  0.0892  1.2685
  543MOL0     H73253   7.647   6.078   5.663 -0.4441 -1.6887  2.1988
  543MOL0     H73254   7.839   6.067   5.492 -2.1570 -0.6815 -1.9323
  543MOL0     H73255   7.865   5.967   5.649 -0.6087 -1.8132  0.2175
  543MOL0     H73256   7.929   5.924   5.288 -2.4436  3.2966 -0.0141
  543MOL0     H73257   8.100   5.681   5.242  0.0324  1.2279 -2.1977
  543MOL0     H73258   8.027   5.525   5.264 -2.6036 -1.3755 -2.1253
  543MOL0     H73259   7.923   5.739   5.067 -2.6744 -0.8429 -1.8733
  543MOL0     H73260   8.022   5.598   5.042  2.4555  1.2763  2.5632
  543MOL0     H73261   7.742   5.588   5.148 -1.9687 -3.7993 -0.4693
  543MOL0     H73262   7.849   5.453   5.126  1.5366 -0.7347 -1.1378
  543MOL0     H73263   7.741   5.624   4.894  2.4900  0.7508  1.4008
  543MOL0     H73264   7.699   5.454   4.941  0.6966 -0.9444 -1.6475
  543MOL0     H73265   8.093   5.471   4.704  1.2036 -0.5451 -1.6280
  543MOL0     H73266   8.091   5.507   4.457  0.6413  2.7455  0.5745
  543MOL0     H73267   7.619   5.738   4.102  2.4151  2.8004 -1.2928
  543MOL0     H73268   7.577   5.745   3.867 -0.4713 -1.2078 -0.6613
  543MOL0     H73269   7.460   5.663   3.684 -1.6940  1.1936 -2.8391
  543MOL0     H73270   7.599   5.773   3.665 -1.9482  1.5268 -1.2630
  543MOL0     H73271   7.463   5.750   3.487 -2.9847 -2.8803 -1.7184
  543MOL0     H73272   7.638   5.703   3.458  0.5457  3.4720  3.4897
  543MOL0     H73273   7.500   5.455   3.519  0.7454 -3.6766 -3.0803
  543MOL0     H73274   7.377   5.544   3.437  0.7506  0.2853  1.3402
  543MOL0     H73275   7.657   5.491   3.335  0.6061 -1.2981  0.7727
  543MOL0     H73276   7.533   5.563   3.232 -0.4962 -0.0053  0.4241
  543MOL0     H73277   7.388   5.362   3.260 -0.6442 -0.4719  3.1411
  543MOL0     H73278   7.503   5.288   3.364  0.3602  0.3736  1.3546
  543MOL0     H73279   7.563   5.366   3.075  1.8242 -1.6411 -1.0151
  543MOL0     H73280   7.680   5.282   3.191 -0.2803 -2.9759  0.7017
  543MOL0     H73281   7.426   5.170   3.075  1.6980 -1.8460 -1.3013
  543MOL0     H73282   7.528   5.100   3.201 -0.9533 -0.9100 -1.1187
  543MOL0     H73283   7.601   5.124   2.905  0.2210 -0.8423 -0.0846
  543MOL0     H73284   7.715   5.108   3.035  0.6705 -0.9041 -2.4202
  543MOL0     H73285   7.785   5.374   3.806  4.0378 -1.1441  2.9086
  543MOL0     H73286   7.838   5.360   4.045 -0.0528 -1.0827 -2.3201
  543MOL0     H73287   7.655   5.503   4.467  1.0083 -1.4058 -2.8154
  543MOL0     H73288   7.665   5.501   4.702 -0.8713  2.1229 -2.4481
  543MOL0     H73289   6.973   6.394   4.862  1.7250 -0.5239  0.1082
  543MOL0     H73290   6.863   6.256   4.685  1.2252 -2.9099 -0.2799
  543MOL0     H73291   6.562   6.049   4.551  0.2443  0.7886  0.4075
  543MOL0     H73292   6.380   5.912   4.425 -0.2407 -0.6212 -3.8132
  543MOL0     H73293   6.377   5.878   4.183  1.1323  0.4720  0.9792
  543MOL0     H73294   6.254   5.767   4.240 -0.0833  0.9388  1.2533
  543MOL0     H73295   6.265   5.731   4.004 -0.0480  1.3682  0.5834
  543MOL0     H73296   6.339   5.595   4.066  0.8146  0.0241 -0.0400
  543MOL0     H73297   6.555   5.651   4.035  2.0909  3.2448  2.0729
  543MOL0     H73298   6.510   5.827   3.991  0.2863 -0.4075  2.6137
  543MOL0     H73299   6.417   5.582   3.831  1.8702 -0.7624 -2.4790
  543MOL0     H73300   6.352   5.737   3.810  0.2827  0.1903 -0.6350
  543MOL0     H73301   6.704   5.787   3.594 -2.2531  1.2917 -1.8109
  543MOL0     H73302   6.690   5.658   4.283  1.1906  1.5399 -1.4933
  543MOL0     H73303   6.927   5.690   4.348 -0.4699 -1.1288  1.1113
  543MOL0     H73304   6.977   5.843   4.350 -1.2342  0.2192 -1.6278
  543MOL0     H73305   6.963   5.763   4.508  1.0293 -0.2881 -0.5592
  544MOL0     O73306  10.200   5.101   8.454  0.3726 -0.3506  0.0237
  544MOL0     C73307  10.267   5.022   8.527  0.3537 -0.5614  0.2779
  544MOL0     O73308  10.394   4.980   8.505 -1.3227 -0.2226  0.0897
  544MOL0     C73309  10.454   5.016   8.395 -0.3177  0.8911  0.2830
  544MOL0     C73310  10.526   5.136   8.378 -0.0081 -0.4826 -0.7214
  544MOL0     C73311  10.614   5.152   8.272  0.2168 -0.2925 -0.2822
  544MOL0     C73312  10.631   5.061   8.171 -0.5488  0.3937  0.2565
  544MOL0     O73313  10.722   5.081   8.065  1.2427 -0.8289 -0.6276
  544MOL0     C73314  10.768   4.959   8.007  0.2476 -0.2210  0.1676
  544MOL0     C73315  10.903   4.991   7.930  0.5822 -0.3907 -0.7038
  544MOL0     C73316  10.882   5.055   7.793  0.2126  0.2370  0.2133
  544MOL0     C73317  11.013   5.134   7.750  0.6556  0.2310 -1.1116
  544MOL0     C73318  10.987   5.207   7.621  0.4958  0.4357 -0.4601
  544MOL0     C73319  11.098   5.309   7.612  0.3310 -0.6304 -0.0912
  544MOL0     C73320  11.142   5.390   7.736 -0.0654 -0.0754 -0.3392
  544MOL0     C73321  11.231   5.509   7.705  0.1835  0.1016 -0.2077
  544MOL0     N73322  11.185   5.598   7.600  0.0123 -0.2043 -0.7123
  544MOL0     C73323  11.202   5.572   7.468  0.6917  0.4536 -0.1815
  544MOL0     C73324  11.120   5.661   7.408 -0.3784 -1.1684  0.2098
  544MOL0     C73325  11.090   5.652   7.265 -0.1008 -0.7311  0.7047
  544MOL0     C73326  10.942   5.665   7.233  0.7279 -0.4382  0.5585
  544MOL0     C73327  10.919   5.699   7.084  0.4127  0.2368  0.3815
  544MOL0     C73328  10.771   5.688   7.040 -0.0522 -0.5778 -0.0154
  544MOL0     O73329  10.770   5.676   6.900 -0.8810 -0.2513 -0.3166
  544MOL0     C73330  10.655   5.677   6.826 -0.3907 -0.8862 -0.0059
  544MOL0     C73331  10.673   5.672   6.688  0.5054  0.8471  0.0548
  544MOL0     C73332  10.562   5.672   6.602 -0.4791  0.3607  1.2133
  544MOL0     C73333  10.432   5.673   6.654 -0.3061  0.1478  1.0800
  544MOL0     C73334  10.325   5.662   6.554  0.6627 -0.4469  0.7205
  544MOL0     O73335  10.206   5.650   6.614  0.1700 -0.1217  0.6759
  544MOL0     C73336  10.091   5.640   6.538  0.9549  0.2445  0.0731
  544MOL0     C73337   9.970   5.688   6.610 -0.6522  0.9229  0.3431
  544MOL0     C73338   9.848   5.676   6.543  0.5653  0.4952 -0.3722
  544MOL0     C73339   9.829   5.614   6.415 -0.2871  0.2006 -0.1550
  544MOL0     O73340   9.702   5.597   6.353 -0.3171  0.2073 -0.3550
  544MOL0     C73341   9.638   5.725   6.314 -0.8640 -0.4281 -0.6649
  544MOL0     C73342   9.571   5.688   6.177  0.1336  0.5665  0.1739
  544MOL0     C73343   9.493   5.801   6.112 -0.5505  0.0663 -0.0428
  544MOL0     C73344   9.395   5.739   6.013 -0.4726 -0.6199  0.2471
  544MOL0     C73345   9.336   5.856   5.926 -0.0214 -0.1447  0.8609
  544MOL0     C73346   9.235   5.941   6.014 -0.3980 -0.1499  0.4638
  544MOL0     C73347   9.196   6.064   5.948  0.4733  0.1858 -0.0886
  544MOL0     C73348   9.117   6.156   6.046  0.1915  0.3087  0.0783
  544MOL0    Cl73349   9.229   6.233   6.156 -0.4854  0.9103  0.0276
  544MOL0     C73350   9.942   5.561   6.346  0.5698  0.0508  0.1637
  544MOL0     C73351  10.071   5.572   6.409  0.0370  0.1659 -0.0127
  544MOL0     O73352  10.336   5.667   6.435  0.8893 -0.0630  0.6567
  544MOL0     C73353  10.414   5.669   6.792  0.1415 -0.3963  0.8348
  544MOL0     C73354  10.529   5.680   6.876 -0.1261 -0.6938 -0.0143
  544MOL0     N73355  11.056   5.740   7.501 -0.4371  0.2811  0.0627
  544MOL0     N73356  11.097   5.706   7.622 -0.2951  0.5445 -0.2229
  544MOL0     C73357  10.548   4.940   8.185  0.5523  0.2063 -0.4814
  544MOL0     C73358  10.459   4.919   8.293 -0.1352  0.5223 -0.2357
  544MOL0     C73359  10.195   4.968   8.650  0.2478 -0.6430  0.2904
  544MOL0     C73360  10.134   5.046   8.738 -0.1995 -0.2357 -1.1494
  544MOL0     C73361  10.071   5.002   8.856 -0.2033  0.2784  0.1805
  544MOL0     C73362  10.044   4.861   8.867 -0.1759 -0.6388  0.4490
  544MOL0     O73363   9.958   4.816   8.968 -0.1069  0.3226 -0.1482
  544MOL0     C73364   9.843   4.743   8.926  0.4211  0.4654  0.7042
  544MOL0     C73365   9.770   4.670   9.044  0.4100 -0.2906  0.2892
  544MOL0     C73366   9.685   4.773   9.124  0.5914  0.5188 -0.6575
  544MOL0     C73367   9.688   4.736   9.272 -0.5210 -0.2601 -0.3161
  544MOL0     C73368   9.560   4.777   9.339 -0.1536 -0.2893 -0.6420
  544MOL0     C73369   9.463   4.838   9.378 -0.4314  0.7917  0.1484
  544MOL0     C73370  10.096   4.779   8.770  0.3465 -0.0988 -1.3561
  544MOL0     C73371  10.170   4.825   8.665 -0.6906 -0.1038  0.5633
  544MOL0     C73372  10.232   4.721   8.564 -0.2361 -0.1849 -0.3583
  544MOL0     H73373  10.511   5.216   8.451  1.1188  0.0076 -1.0065
  544MOL0     H73374  10.662   5.249   8.262  1.4141 -0.6734  1.3179
  544MOL0     H73375  10.781   4.881   8.083 -5.5739 -1.5289  0.2814
  544MOL0     H73376  10.678   4.936   7.950 -0.5465  4.9308 -1.1653
  544MOL0     H73377  10.951   4.897   7.902  0.4274 -0.0294 -2.2493
  544MOL0     H73378  10.961   5.054   7.999  1.3539  0.7975 -2.3867
  544MOL0     H73379  10.793   5.118   7.792 -2.6150 -3.3403  2.9952
  544MOL0     H73380  10.854   4.975   7.724 -2.2561  0.6931  0.6260
  544MOL0     H73381  11.025   5.201   7.836 -0.5283  0.2807 -0.9665
  544MOL0     H73382  11.095   5.062   7.746  1.3891  0.8398  1.3179
  544MOL0     H73383  10.988   5.138   7.537 -2.8406 -2.0236  1.2859
  544MOL0     H73384  10.894   5.266   7.626  0.0733 -0.2257 -0.4750
  544MOL0     H73385  11.193   5.274   7.569  0.5218  1.7958 -1.8810
  544MOL0     H73386  11.063   5.382   7.538  0.1097  2.3168  2.7119
  544MOL0     H73387  11.191   5.315   7.799  1.4727 -2.3199 -3.8737
  544MOL0     H73388  11.053   5.439   7.776 -0.9430 -0.7902 -1.3709
  544MOL0     H73389  11.257   5.559   7.799  3.0646  2.2777 -1.9950
  544MOL0     H73390  11.325   5.471   7.664 -1.1155 -0.7001 -2.6085
  544MOL0     H73391  11.252   5.486   7.426 -0.0932 -0.1874  0.1584
  544MOL0     H73392  11.149   5.726   7.209 -0.6200 -1.5978 -1.0878
  544MOL0     H73393  11.130   5.553   7.239 -1.6018 -1.1219 -0.2768
  544MOL0     H73394  10.900   5.565   7.246  1.5854 -1.1137 -1.4331
  544MOL0     H73395  10.883   5.738   7.288  0.6839  0.4493 -0.6284
  544MOL0     H73396  10.975   5.625   7.027 -0.8093  1.0591 -1.9936
  544MOL0     H73397  10.964   5.795   7.058  3.1866 -0.5023  1.9833
  544MOL0     H73398  10.708   5.773   7.069 -0.9809 -1.0382 -0.6299
  544MOL0     H73399  10.723   5.604   7.090  2.1216 -1.2392  1.0783
  544MOL0     H73400  10.776   5.668   6.653  1.1469  1.8702  1.6939
  544MOL0     H73401  10.583   5.661   6.496  0.7235 -2.0185  1.6305
  544MOL0     H73402   9.965   5.730   6.710 -1.9707 -1.6140  1.4415
  544MOL0     H73403   9.756   5.709   6.590 -1.1520 -3.5703 -0.4413
  544MOL0     H73404   9.569   5.754   6.393  2.2191  2.0947  1.3180
  544MOL0     H73405   9.713   5.805   6.311 -0.5201 -0.7494 -0.6273
  544MOL0     H73406   9.650   5.656   6.110  0.0359  0.3380  0.1678
  544MOL0     H73407   9.501   5.604   6.187  2.0035 -1.3411 -1.8431
  544MOL0     H73408   9.444   5.855   6.193 -2.3102 -2.0387  0.4204
  544MOL0     H73409   9.564   5.868   6.062  0.7631 -0.5442  0.9336
  544MOL0     H73410   9.316   5.684   6.065  1.5617 -1.1512  3.0278
  544MOL0     H73411   9.452   5.669   5.950 -5.6679 -4.2892 -1.0243
  544MOL0     H73412   9.279   5.817   5.841  1.2897 -1.9758  0.7701
  544MOL0     H73413   9.418   5.916   5.888 -1.1819 -0.3454 -2.2114
  544MOL0     H73414   9.150   5.879   6.045 -1.3885  0.9398 -0.0142
  544MOL0     H73415   9.284   5.969   6.108 -1.4967  1.7222  0.5194
  544MOL0     H73416   9.128   6.048   5.864  1.4550 -1.1158 -0.6700
  544MOL0     H73417   9.279   6.114   5.899 -0.0142 -0.2957 -1.4538
  544MOL0     H73418   9.060   6.236   5.999  0.2097  0.7858  0.8381
  544MOL0     H73419   9.040   6.095   6.094 -1.4757  1.6171 -0.8209
  544MOL0     H73420   9.935   5.512   6.250 -0.7616  3.4867 -1.6659
  544MOL0     H73421  10.163   5.528   6.370  0.3170 -1.4317  2.2719
  544MOL0     H73422  10.318   5.695   6.835 -0.0694  3.0777 -1.3449
  544MOL0     H73423  10.516   5.682   6.984 -1.7560 -0.8094 -0.1926
  544MOL0     H73424  10.537   4.861   8.111 -0.1053  0.5735 -0.7892
  544MOL0     H73425  10.403   4.829   8.315 -2.2419  2.4935  3.4951
  544MOL0     H73426  10.154   5.152   8.732 -0.7385 -0.1960 -2.5978
  544MOL0     H73427  10.021   5.064   8.930  0.9734  0.0519  1.2092
  544MOL0     H73428   9.871   4.663   8.856  2.9363  0.6890  1.3685
  544MOL0     H73429   9.770   4.800   8.868 -0.1793 -1.1325 -0.1694
  544MOL0     H73430   9.852   4.628   9.103 -1.2195 -2.3736  1.2065
  544MOL0     H73431   9.716   4.582   9.008  1.2743 -0.9440  0.5701
  544MOL0     H73432   9.583   4.765   9.087  1.9462 -0.3742 -4.6729
  544MOL0     H73433   9.727   4.874   9.121  0.3350  0.7651  1.7066
  544MOL0     H73434   9.698   4.627   9.268  1.2802 -0.1153 -0.5925
  544MOL0     H73435   9.784   4.779   9.302  0.7846 -1.3446 -2.6508
  544MOL0     H73436   9.371   4.870   9.424 -1.0362 -0.6560  0.0048
  544MOL0     H73437  10.079   4.672   8.770  4.1619 -0.9105 -4.0359
  544MOL0     H73438  10.197   4.618   8.574 -1.6047  0.2590 -0.4611
  544MOL0     H73439  10.213   4.750   8.460  1.5281 -1.0441 -0.9707
  544MOL0     H73440  10.341   4.730   8.566 -0.1232 -0.2543 -2.7126
  545MOL0     O73441  10.334   3.617   8.251 -0.0874 -0.6798 -0.3992
  545MOL0     C73442  10.332   3.611   8.370  0.6884 -0.4512 -0.2798
  545MOL0     O73443  10.349   3.497   8.445  0.7068 -0.1207 -0.3583
  545MOL0     C73444  10.442   3.412   8.406  0.0685  0.3278 -1.0178
  545MOL0     C73445  10.559   3.437   8.334 -0.0288  0.6591  0.7210
  545MOL0     C73446  10.645   3.328   8.297  0.4793  0.0869  1.2115
  545MOL0     C73447  10.631   3.200   8.347 -0.0683 -0.4276 -0.4589
  545MOL0     O73448  10.720   3.105   8.309  0.5322  0.1109  0.2850
  545MOL0     C73449  10.709   2.981   8.369  0.6045 -0.4246 -1.2940
  545MOL0     C73450  10.808   2.892   8.293 -0.3251 -0.8266 -0.4785
  545MOL0     C73451  10.790   2.744   8.337 -0.3061  0.1416  0.0526
  545MOL0     C73452  10.837   2.624   8.260 -0.3296  0.0482  0.3051
  545MOL0     C73453  10.781   2.495   8.322 -0.1098  0.3231 -0.1593
  545MOL0     C73454  10.842   2.480   8.467 -0.2546  0.0543  0.2648
  545MOL0     C73455  10.835   2.335   8.522  0.1318 -0.8648  0.5255
  545MOL0     C73456  10.876   2.341   8.668 -0.7065 -1.7698  0.2758
  545MOL0     N73457  10.914   2.208   8.707  0.2061  0.1058 -0.2528
  545MOL0     C73458  10.826   2.127   8.779  0.7163 -0.6926 -0.5875
  545MOL0     C73459  10.910   2.031   8.830  0.5626 -0.2873  0.4027
  545MOL0     C73460  10.865   1.912   8.904  1.2328  0.0046 -0.6958
  545MOL0     C73461  10.895   1.908   9.051 -0.2940  0.0673 -0.1601
  545MOL0     C73462  10.845   1.782   9.123 -0.8867 -0.2453  0.7271
  545MOL0     C73463  10.848   1.789   9.278  0.4527  0.0939 -0.2724
  545MOL0     O73464  10.975   1.846   9.321 -1.1008 -0.9512 -0.0419
  545MOL0     C73465  11.083   1.769   9.349 -0.4109 -0.0370 -0.5133
  545MOL0     C73466  11.198   1.768   9.264 -0.6600  0.4579  0.1122
  545MOL0     C73467  11.304   1.676   9.291 -0.0338 -0.5240  0.1994
  545MOL0     C73468  11.294   1.589   9.404  0.4515 -0.4109  0.6707
  545MOL0     C73469  11.420   1.516   9.429  0.7724  0.0774  0.8496
  545MOL0     O73470  11.500   1.494   9.319  0.1295 -0.4385  0.1502
  545MOL0     C73471  11.619   1.435   9.348 -0.3528  0.1946 -1.3304
  545MOL0     C73472  11.705   1.471   9.453  0.2217 -0.3287  0.5586
  545MOL0     C73473  11.832   1.409   9.456 -0.7723 -1.3198  0.0263
  545MOL0     C73474  11.878   1.320   9.364 -0.2433  0.0141 -0.3054
  545MOL0     O73475  11.997   1.262   9.390  0.1104 -0.4169 -0.4828
  545MOL0     C73476  12.114   1.280   9.305 -0.6897  0.7221 -0.4958
  545MOL0     C73477  12.211   1.174   9.341  0.0667  0.4762  1.1550
  545MOL0     C73478  12.337   1.182   9.243 -0.5585  0.5279  0.5114
  545MOL0     C73479  12.439   1.069   9.279  0.7694  1.4876 -0.1930
  545MOL0     C73480  12.375   0.931   9.242 -0.0628  0.3615  0.3498
  545MOL0     C73481  12.482   0.813   9.231 -0.2086 -0.0941 -0.0966
  545MOL0     C73482  12.441   0.708   9.139  0.3489  0.5500  0.6367
  545MOL0     C73483  12.319   0.626   9.189  0.2214 -0.3609 -0.1178
  545MOL0    Cl73484  12.239   0.562   9.034 -0.4264 -0.2577  0.0345
  545MOL0     C73485  11.798   1.297   9.254 -1.0754  0.3068  0.7938
  545MOL0     C73486  11.671   1.352   9.254  0.3874 -0.1069  0.8428
  545MOL0     O73487  11.444   1.495   9.541 -0.6919 -0.4213 -0.1913
  545MOL0     C73488  11.171   1.581   9.474 -0.4799  0.4103 -0.6207
  545MOL0     C73489  11.069   1.671   9.451  0.1623  0.0946  0.2577
  545MOL0     N73490  11.037   2.062   8.798 -0.2776 -0.6920  0.2713
  545MOL0     N73491  11.042   2.165   8.731  0.8858 -0.3674  1.1758
  545MOL0     C73492  10.509   3.175   8.424 -0.0950  0.4731 -0.2549
  545MOL0     C73493  10.419   3.284   8.448  0.8881 -0.2473  0.1002
  545MOL0     C73494  10.255   3.691   8.458 -0.6684 -0.0532 -0.8268
  545MOL0     C73495  10.314   3.746   8.575  0.7093 -0.0062 -0.0063
  545MOL0     C73496  10.230   3.821   8.666  0.1907 -0.2980  0.2462
  545MOL0     C73497  10.102   3.850   8.628 -0.9617 -0.7002  0.5476
  545MOL0     O73498  10.026   3.929   8.707  0.8080  0.9645 -0.3423
  545MOL0     C73499  10.056   4.070   8.714  0.2409 -0.4033  0.3254
  545MOL0     C73500   9.944   4.137   8.797 -0.3371 -0.1028 -0.1547
  545MOL0     C73501   9.798   4.123   8.754 -0.1400  0.0585  0.5697
  545MOL0     C73502   9.787   4.214   8.621 -0.6972 -0.2721  0.2192
  545MOL0     C73503   9.653   4.242   8.571  0.1636 -1.3383  0.3298
  545MOL0     C73504   9.537   4.278   8.550 -0.2641 -0.0094 -0.1154
  545MOL0     C73505  10.045   3.805   8.504  0.4297  0.1727 -0.5176
  545MOL0     C73506  10.126   3.716   8.429  0.2152 -0.4488 -0.1063
  545MOL0     C73507  10.053   3.646   8.321 -0.8369 -0.5675 -0.0768
  545MOL0     H73508  10.586   3.535   8.295  1.1051 -0.1822 -0.7004
  545MOL0     H73509  10.732   3.354   8.238  1.0114  0.7637  2.2622
  545MOL0     H73510  10.739   2.986   8.474  2.1874 -0.1860 -1.7223
  545MOL0     H73511  10.611   2.937   8.353 -0.0529  1.2808 -2.2703
  545MOL0     H73512  10.905   2.936   8.315 -1.8432  4.1827 -2.5314
  545MOL0     H73513  10.794   2.899   8.185 -4.2762  1.9131  0.0072
  545MOL0     H73514  10.682   2.735   8.354 -0.7498  2.7465 -0.8491
  545MOL0     H73515  10.836   2.748   8.436 -0.1064 -0.5962 -0.0110
  545MOL0     H73516  10.804   2.627   8.156  1.9459 -0.5723 -0.4816
  545MOL0     H73517  10.946   2.626   8.266 -0.2196  3.3719 -0.8053
  545MOL0     H73518  10.673   2.510   8.331 -0.9728 -3.0346 -2.8712
  545MOL0     H73519  10.803   2.406   8.263 -0.3796  0.1537 -0.0018
  545MOL0     H73520  10.950   2.497   8.462  0.6585 -4.3697  0.6526
  545MOL0     H73521  10.796   2.558   8.528  0.2497 -0.3202  1.1415
  545MOL0     H73522  10.901   2.269   8.464 -1.6867 -2.1623 -0.1512
  545MOL0     H73523  10.730   2.304   8.523 -1.1824  2.8990  2.9660
  545MOL0     H73524  10.960   2.407   8.691 -0.3011 -1.2317 -2.3891
  545MOL0     H73525  10.787   2.379   8.719 -1.9454 -1.7883 -1.7749
  545MOL0     H73526  10.718   2.125   8.780  0.5080  3.2112 -0.0840
  545MOL0     H73527  10.757   1.911   8.890  1.3288 -0.1031 -1.4631
  545MOL0     H73528  10.916   1.821   8.869  0.2431 -1.3440  1.2073
  545MOL0     H73529  11.004   1.897   9.053 -0.5004 -2.8234  0.3910
  545MOL0     H73530  10.856   1.998   9.100  1.1723  1.2925 -1.1329
  545MOL0     H73531  10.911   1.700   9.091 -2.0670 -0.9060 -0.1197
  545MOL0     H73532  10.741   1.757   9.101 -1.3469  0.0414  2.4318
  545MOL0     H73533  10.830   1.692   9.326  0.2856  0.6950  0.8920
  545MOL0     H73534  10.762   1.854   9.298 -0.6745 -1.7794  1.3643
  545MOL0     H73535  11.197   1.826   9.173  0.4639 -2.7782 -2.1470
  545MOL0     H73536  11.395   1.686   9.234 -2.0245 -0.1926 -3.1710
  545MOL0     H73537  11.676   1.554   9.516  2.1392  0.3074  0.6887
  545MOL0     H73538  11.900   1.425   9.539 -0.2868 -3.4777  0.1180
  545MOL0     H73539  12.100   1.295   9.197 -0.4684  5.4696 -0.0818
  545MOL0     H73540  12.160   1.370   9.347  0.0032 -0.4046  1.2680
  545MOL0     H73541  12.229   1.155   9.447 -3.6528 -2.7047  1.4749
  545MOL0     H73542  12.159   1.081   9.315  0.3287 -0.2704  3.1800
  545MOL0     H73543  12.305   1.177   9.139 -4.5345  2.4075  1.4596
  545MOL0     H73544  12.384   1.280   9.258 -1.0013  0.7292  0.5855
  545MOL0     H73545  12.478   1.072   9.381  0.4503 -3.7125  0.3542
  545MOL0     H73546  12.530   1.077   9.219  1.6419 -1.6422  0.5324
  545MOL0     H73547  12.322   0.937   9.147  2.7181  0.3625 -1.3238
  545MOL0     H73548  12.314   0.904   9.329  2.9943 -0.3136  2.4365
  545MOL0     H73549  12.579   0.852   9.202  0.4797 -1.0991  0.7774
  545MOL0     H73550  12.494   0.773   9.332  3.1126  2.2134  0.5638
  545MOL0     H73551  12.518   0.632   9.126 -0.3414 -0.4678  2.2355
  545MOL0     H73552  12.414   0.747   9.041  1.7917  0.6034  0.2447
  545MOL0     H73553  12.345   0.553   9.267 -2.6096 -0.1977  1.0910
  545MOL0     H73554  12.249   0.692   9.240 -0.1655 -1.0866  0.3115
  545MOL0     H73555  11.829   1.230   9.175  0.5264  0.9345  0.8556
  545MOL0     H73556  11.593   1.338   9.180  1.2023 -0.6732  0.0630
  545MOL0     H73557  11.160   1.503   9.549  1.3055 -0.6822 -1.4241
  545MOL0     H73558  10.982   1.671   9.516  1.3977  0.9035  2.0056
  545MOL0     H73559  10.490   3.079   8.470 -1.5209  1.4442  1.2897
  545MOL0     H73560  10.326   3.270   8.503  0.7356 -0.1535 -0.1293
  545MOL0     H73561  10.419   3.738   8.602  1.5717  3.1340 -1.8754
  545MOL0     H73562  10.273   3.865   8.755 -1.4410  2.4328 -0.2070
  545MOL0     H73563  10.053   4.118   8.616  1.3481  1.8225  1.3205
  545MOL0     H73564  10.156   4.083   8.756  0.4960  1.0952 -0.6430
  545MOL0     H73565   9.960   4.242   8.821 -1.3410 -0.2961  1.5521
  545MOL0     H73566   9.954   4.085   8.893 -0.8188 -1.6634 -0.9204
  545MOL0     H73567   9.732   4.161   8.833 -0.3020 -0.1394  0.5290
  545MOL0     H73568   9.776   4.021   8.721 -0.1333  0.6052 -1.2512
  545MOL0     H73569   9.843   4.308   8.627 -0.0431 -0.7036  1.0624
  545MOL0     H73570   9.845   4.161   8.544  0.2035  1.0839 -0.0653
  545MOL0     H73571   9.436   4.313   8.560 -0.2843 -0.2300  0.5250
  545MOL0     H73572   9.943   3.825   8.475 -0.3846  0.3469  2.1578
  545MOL0     H73573   9.948   3.625   8.343 -0.7082 -1.6337 -0.4200
  545MOL0     H73574  10.047   3.712   8.234  0.3223  0.6470  0.7060
  545MOL0     H73575  10.099   3.548   8.304 -1.3273 -0.6771 -0.7892
  546MOL0     O73576   8.513   5.552   4.650 -0.0952 -0.0162 -0.3857
  546MOL0     C73577   8.522   5.661   4.598  0.2295 -0.8598  0.2679
  546MOL0     O73578   8.619   5.752   4.617 -0.6298 -0.4992  0.6287
  546MOL0     C73579   8.696   5.760   4.734 -0.2414 -1.0619 -0.2556
  546MOL0     C73580   8.822   5.837   4.730  1.1628  0.8001 -0.1444
  546MOL0     C73581   8.894   5.838   4.853  0.3096 -0.7030  0.2741
  546MOL0     C73582   8.852   5.784   4.976  0.0166 -0.4495  0.1879
  546MOL0     O73583   8.942   5.781   5.085 -0.2203  0.4802  0.5990
  546MOL0     C73584   8.922   5.709   5.205  0.0110 -0.0389  0.3082
  546MOL0     C73585   8.948   5.558   5.185  0.1312  0.1373 -0.6234
  546MOL0     C73586   8.926   5.468   5.306  0.3708 -0.6868  1.1584
  546MOL0     C73587   8.783   5.433   5.344  0.6770  0.7633 -0.6452
  546MOL0     C73588   8.700   5.388   5.226 -0.0213 -0.6576 -0.6832
  546MOL0     C73589   8.574   5.314   5.279 -0.7710 -0.4470 -0.1322
  546MOL0     C73590   8.482   5.296   5.154  0.9929  0.1683  0.2528
  546MOL0     C73591   8.361   5.386   5.164  0.0012 -0.0248 -0.5012
  546MOL0     N73592   8.330   5.455   5.038 -0.4583 -0.6305  0.1148
  546MOL0     C73593   8.317   5.594   5.023  0.7825 -1.0567  0.0036
  546MOL0     C73594   8.281   5.619   4.892  0.5876 -0.5296  0.1403
  546MOL0     C73595   8.251   5.756   4.823  1.2998  0.3518  0.5543
  546MOL0     C73596   8.105   5.796   4.859 -0.0381 -0.1799 -0.9532
  546MOL0     C73597   8.049   5.895   4.765  1.0404  0.5452 -0.1345
  546MOL0     C73598   8.023   5.866   4.617  0.4366 -0.3172  0.1084
  546MOL0     O73599   8.013   5.996   4.553 -0.6400 -0.3256 -0.1201
  546MOL0     C73600   7.995   6.001   4.417 -0.2818  0.4447 -0.6618
  546MOL0     C73601   8.008   6.123   4.364  0.0180  0.2210  0.9247
  546MOL0     C73602   7.977   6.139   4.223 -0.6812  0.3489 -0.0102
  546MOL0     C73603   7.942   6.027   4.147 -1.7770 -0.5504  0.4492
  546MOL0     C73604   7.900   6.041   4.007  0.3429  0.3563  0.1861
  546MOL0     O73605   7.829   5.943   3.950  0.3565 -0.5431  0.2703
  546MOL0     C73606   7.785   5.962   3.819 -0.5121 -0.1239 -0.7031
  546MOL0     C73607   7.835   5.888   3.721 -0.1138 -0.7921 -0.9408
  546MOL0     C73608   7.782   5.912   3.598  0.0913  0.3162  0.3781
  546MOL0     C73609   7.685   6.006   3.564 -0.2183 -0.3018  0.3425
  546MOL0     O73610   7.634   6.023   3.429  0.0978 -0.9450  0.5036
  546MOL0     C73611   7.537   6.136   3.410  0.5976  0.1229  0.3812
  546MOL0     C73612   7.477   6.151   3.266 -0.5095  0.4879 -0.0978
  546MOL0     C73613   7.412   6.030   3.211 -0.2997 -0.9126 -0.0614
  546MOL0     C73614   7.448   6.018   3.059 -0.5214 -0.3996 -0.4138
  546MOL0     C73615   7.425   5.874   3.007  0.3385  0.1574 -0.6195
  546MOL0     C73616   7.512   5.857   2.886  0.0958 -0.3700  0.0141
  546MOL0     C73617   7.452   5.741   2.797  0.3039 -0.1146  0.0051
  546MOL0     C73618   7.444   5.592   2.840  0.1446 -1.1451 -0.1355
  546MOL0    Cl73619   7.348   5.533   2.978 -0.1557 -0.1241  0.2000
  546MOL0     C73620   7.623   6.068   3.673 -0.7001  0.2508 -0.2723
  546MOL0     C73621   7.673   6.054   3.795 -0.5344 -0.0883 -0.1616
  546MOL0     O73622   7.957   6.126   3.938 -0.6509  0.3318  0.0393
  546MOL0     C73623   7.934   5.900   4.202  0.5297 -0.2802  0.5961
  546MOL0     C73624   7.957   5.882   4.339  0.7153 -0.1056 -0.0277
  546MOL0     N73625   8.297   5.493   4.833  0.0355 -0.0124  0.5710
  546MOL0     N73626   8.314   5.396   4.920 -0.3195  0.3538 -0.4573
  546MOL0     C73627   8.736   5.711   4.968 -0.6146  0.2456 -0.5835
  546MOL0     C73628   8.649   5.700   4.859 -0.1104 -0.4087  0.6807
  546MOL0     C73629   8.417   5.693   4.498  0.8312 -0.1538 -0.5768
  546MOL0     C73630   8.370   5.590   4.418 -0.3255  0.5332 -0.1626
  546MOL0     C73631   8.292   5.622   4.307  0.2121  0.8357  0.0565
  546MOL0     C73632   8.264   5.745   4.257 -0.4253  0.0058 -0.4688
  546MOL0     O73633   8.183   5.759   4.151  0.3755  0.1802  0.6166
  546MOL0     C73634   8.219   5.692   4.029  0.0356  0.1476  0.3917
  546MOL0     C73635   8.110   5.687   3.924  0.5729 -0.1714  0.5361
  546MOL0     C73636   8.165   5.654   3.778  0.1722  0.3189  0.4804
  546MOL0     C73637   8.153   5.501   3.748 -0.7150 -0.0431  0.0188
  546MOL0     C73638   8.248   5.421   3.826 -0.5310  1.0856 -0.1797
  546MOL0     C73639   8.329   5.364   3.901  0.5705 -0.2560 -0.0955
  546MOL0     C73640   8.293   5.857   4.336 -0.4903 -0.5358 -0.5151
  546MOL0     C73641   8.372   5.825   4.458 -1.1068 -0.1392  0.6002
  546MOL0     C73642   8.396   5.944   4.541  0.5561  1.2388  0.4683
  546MOL0     H73643   8.856   5.878   4.636 -0.2881 -1.5032 -1.7672
  546MOL0     H73644   8.985   5.895   4.870 -1.3977  1.7118  2.1727
  546MOL0     H73645   8.992   5.742   5.282 -0.9141 -0.7821  1.4983
  546MOL0     H73646   8.826   5.752   5.237  1.1416  3.1307 -0.1149
  546MOL0     H73647   9.051   5.551   5.149  0.2855  0.0039 -0.1619
  546MOL0     H73648   8.885   5.524   5.102 -1.6089 -2.0920  1.4748
  546MOL0     H73649   8.969   5.517   5.394  3.0811 -3.4413  1.5624
  546MOL0     H73650   8.988   5.379   5.288 -0.8086 -1.2384 -0.4302
  546MOL0     H73651   8.786   5.363   5.428 -0.4589  2.8814  1.2919
  546MOL0     H73652   8.727   5.517   5.387  1.8927  0.9003  0.7692
  546MOL0     H73653   8.678   5.465   5.152 -1.0598  0.7850  1.0500
  546MOL0     H73654   8.751   5.308   5.172 -2.5084 -4.3100  1.8685
  546MOL0     H73655   8.600   5.218   5.326  0.1235  0.6164  1.6931
  546MOL0     H73656   8.535   5.375   5.361 -0.4772 -3.1316  2.1664
  546MOL0     H73657   8.454   5.193   5.131 -0.6935  0.2811  1.5861
  546MOL0     H73658   8.532   5.330   5.063 -1.3536  0.8503 -0.8634
  546MOL0     H73659   8.270   5.330   5.189 -0.0206 -0.0303 -0.5936
  546MOL0     H73660   8.382   5.465   5.237 -0.6326 -0.2700 -0.0465
  546MOL0     H73661   8.311   5.663   5.106 -0.0697 -2.1231  0.8575
  546MOL0     H73662   8.323   5.831   4.856  0.3203  1.8804 -0.6256
  546MOL0     H73663   8.268   5.743   4.716 -0.4130 -1.7687  0.4666
  546MOL0     H73664   8.061   5.697   4.848  1.6138 -1.4055  2.0349
  546MOL0     H73665   8.102   5.842   4.959  1.5822  0.4490 -1.1684
  546MOL0     H73666   8.106   5.988   4.777  0.5648  1.0491 -1.5447
  546MOL0     H73667   7.946   5.921   4.794 -0.2729 -2.2309 -1.8939
  546MOL0     H73668   7.934   5.804   4.618 -0.8885  1.4926  0.8958
  546MOL0     H73669   8.101   5.802   4.575  1.8886  1.6030 -0.2643
  546MOL0     H73670   8.016   6.207   4.432 -0.6609 -2.3894  4.5338
  546MOL0     H73671   7.969   6.234   4.172 -3.5782  0.8060  1.1248
  546MOL0     H73672   7.909   5.814   3.751  1.5223  1.9324  2.5252
  546MOL0     H73673   7.826   5.850   3.521  0.5996  0.4743  0.5414
  546MOL0     H73674   7.451   6.128   3.478  0.7070  1.2155  0.6684
  546MOL0     H73675   7.567   6.236   3.442 -1.3729  0.1922  2.2638
  546MOL0     H73676   7.406   6.234   3.271  0.3464  1.1713  1.6165
  546MOL0     H73677   7.553   6.194   3.200 -3.1532  2.6783 -1.9561
  546MOL0     H73678   7.435   5.940   3.268  1.7131 -1.9912 -2.4116
  546MOL0     H73679   7.305   6.051   3.212 -0.0060  0.7279  0.1301
  546MOL0     H73680   7.554   6.033   3.035  0.4336 -3.1880  1.5156
  546MOL0     H73681   7.393   6.096   3.006  1.6666  0.8651 -0.9682
  546MOL0     H73682   7.322   5.863   2.973  0.5005 -1.4568 -0.6583
  546MOL0     H73683   7.448   5.799   3.084 -1.0907 -0.7553 -1.0416
  546MOL0     H73684   7.505   5.950   2.829 -0.2814 -0.4946 -0.1447
  546MOL0     H73685   7.619   5.857   2.908 -0.5934  0.3371  4.5054
  546MOL0     H73686   7.512   5.745   2.706  1.0058 -1.7002  0.3678
  546MOL0     H73687   7.349   5.771   2.776  0.2776  1.7547  2.4022
  546MOL0     H73688   7.394   5.540   2.758 -3.0566  0.4640  0.6227
  546MOL0     H73689   7.550   5.567   2.852  0.9791  1.5738 -1.1855
  546MOL0     H73690   7.541   6.137   3.654 -1.6537 -0.5089  0.9430
  546MOL0     H73691   7.634   6.118   3.874 -0.8578  2.8958 -2.5464
  546MOL0     H73692   7.897   5.822   4.136  0.8631  0.6495 -0.7164
  546MOL0     H73693   7.938   5.789   4.392 -6.5979  1.3705  1.1133
  546MOL0     H73694   8.697   5.662   5.057 -3.4442  1.0534 -1.2729
  546MOL0     H73695   8.552   5.652   4.865 -1.1915  1.1533 -2.2280
  546MOL0     H73696   8.399   5.487   4.431  0.5300  0.8267  0.3636
  546MOL0     H73697   8.246   5.536   4.258  0.7000  0.8334 -0.4076
  546MOL0     H73698   8.238   5.585   4.046 -2.1904 -0.3781 -0.1534
  546MOL0     H73699   8.307   5.743   3.989  1.2030 -0.7222  1.7648
  546MOL0     H73700   8.070   5.788   3.936  2.0931  0.3128  1.7331
  546MOL0     H73701   8.023   5.625   3.951  2.0571 -3.1821 -1.0357
  546MOL0     H73702   8.264   5.686   3.745 -0.2589  0.6696 -0.4966
  546MOL0     H73703   8.095   5.699   3.707 -1.1495  0.0878  1.5841
  546MOL0     H73704   8.052   5.474   3.781 -0.9818  2.3455  1.4062
  546MOL0     H73705   8.184   5.468   3.648  0.4488  2.4414 -0.5028
  546MOL0     H73706   8.406   5.315   3.957 -0.0693  0.0198  1.0393
  546MOL0     H73707   8.251   5.952   4.303 -0.3972 -0.3448 -0.0901
  546MOL0     H73708   8.484   5.988   4.492  3.3327 -1.5142  2.6108
  546MOL0     H73709   8.310   6.012   4.540 -1.4107 -1.0463 -2.2701
  546MOL0     H73710   8.440   5.919   4.638  0.6591  0.1626  0.1530
  547MOL0     O73711   6.212   3.610   1.830 -0.9161 -1.1405  0.2705
  547MOL0     C73712   6.122   3.639   1.907 -0.0965  0.4271  0.2107
  547MOL0     O73713   6.082   3.770   1.933 -0.7578 -0.0221  0.4059
  547MOL0     C73714   6.149   3.867   1.866 -0.4131 -0.4467 -0.2556
  547MOL0     C73715   6.220   3.963   1.944  0.4191  0.6079 -0.1228
  547MOL0     C73716   6.299   4.056   1.874 -0.9413 -0.1258  0.8663
  547MOL0     C73717   6.305   4.068   1.738 -0.9493 -0.0883  0.1051
  547MOL0     O73718   6.378   4.165   1.683 -0.9313 -0.3566 -0.3505
  547MOL0     C73719   6.360   4.210   1.542 -0.4183 -0.2138  0.9360
  547MOL0     C73720   6.447   4.332   1.517 -0.4749 -0.5401 -0.3579
  547MOL0     C73721   6.420   4.462   1.590  0.7412  0.8561  0.5458
  547MOL0     C73722   6.311   4.538   1.536  0.1645  0.7837  0.3963
  547MOL0     C73723   6.329   4.689   1.576 -0.7707 -0.2715  0.5587
  547MOL0     C73724   6.202   4.761   1.543 -0.2326 -0.1456 -0.5689
  547MOL0     C73725   6.206   4.917   1.574 -1.1718  0.3501 -0.3197
  547MOL0     C73726   6.307   4.984   1.480 -0.2382  0.6448  0.3726
  547MOL0     N73727   6.310   5.125   1.495 -0.1744 -0.2059 -0.1229
  547MOL0     C73728   6.284   5.197   1.603  0.4791 -0.1808 -0.4179
  547MOL0     C73729   6.256   5.323   1.550  0.2537  0.0486 -0.1453
  547MOL0     C73730   6.249   5.457   1.623 -0.1872  0.1504  0.2448
  547MOL0     C73731   6.159   5.437   1.752 -0.5520  0.5096  0.8583
  547MOL0     C73732   6.146   5.573   1.828 -0.0414  0.2452 -0.5416
  547MOL0     C73733   6.060   5.665   1.744  0.2084 -0.8739 -0.0365
  547MOL0     O73734   5.930   5.621   1.757  0.0201  0.3222 -0.5053
  547MOL0     C73735   5.827   5.712   1.738 -0.9653  0.3707  0.0753
  547MOL0     C73736   5.829   5.830   1.671 -0.2322 -0.6102  0.1603
  547MOL0     C73737   5.715   5.892   1.626  0.0993  0.6622  0.4255
  547MOL0     C73738   5.589   5.839   1.666  0.4295  0.0560  0.7491
  547MOL0     C73739   5.464   5.913   1.632  0.6127 -1.0000  0.0577
  547MOL0     O73740   5.359   5.906   1.718 -0.4908  0.0457 -0.2017
  547MOL0     C73741   5.266   6.002   1.718  0.0063  1.3293 -0.7317
  547MOL0     C73742   5.183   6.021   1.606 -0.2751  0.2776 -0.6534
  547MOL0     C73743   5.094   6.129   1.607  0.2075  0.2082 -0.0359
  547MOL0     C73744   5.077   6.214   1.718  0.0719  0.9141  0.6428
  547MOL0     O73745   4.982   6.309   1.716  0.3655  0.8475 -0.4159
  547MOL0     C73746   4.960   6.407   1.816 -0.7934  0.4094  0.1678
  547MOL0     C73747   4.881   6.516   1.753 -0.0432  0.0135  0.8932
  547MOL0     C73748   4.750   6.449   1.709  0.0893 -0.3169 -0.8008
  547MOL0     C73749   4.634   6.546   1.655 -0.6216 -0.2456 -0.8030
  547MOL0     C73750   4.588   6.641   1.781 -0.1090 -0.0171 -0.1766
  547MOL0     C73751   4.496   6.752   1.729  0.3522 -0.6688  0.5397
  547MOL0     C73752   4.451   6.855   1.841 -0.3941  0.4064 -0.0988
  547MOL0     C73753   4.568   6.920   1.918 -0.3848 -0.1998 -0.4840
  547MOL0    Cl73754   4.703   6.975   1.811  0.5734  0.2019  0.1080
  547MOL0     C73755   5.153   6.188   1.826  0.3984 -0.3644  0.2475
  547MOL0     C73756   5.247   6.092   1.822 -0.8391 -0.3932  1.2230
  547MOL0     O73757   5.465   5.977   1.535 -0.0447  0.9137 -0.1330
  547MOL0     C73758   5.581   5.726   1.750 -0.1668  0.5112 -1.3394
  547MOL0     C73759   5.700   5.659   1.778 -0.3728  0.2170 -0.8255
  547MOL0     N73760   6.271   5.326   1.410  0.6975  0.3425 -0.2609
  547MOL0     N73761   6.294   5.199   1.387 -0.8724 -1.2355  0.7207
  547MOL0     C73762   6.232   3.977   1.664 -0.2909 -0.3695  0.4458
  547MOL0     C73763   6.161   3.880   1.726  0.2019 -0.1092  0.1067
  547MOL0     C73764   6.043   3.538   1.970  0.6357  0.4175 -0.9661
  547MOL0     C73765   5.935   3.583   2.058 -0.4158 -0.0328 -0.8738
  547MOL0     C73766   5.853   3.493   2.110  1.5441  0.5899 -0.0724
  547MOL0     C73767   5.858   3.361   2.084 -0.0430  0.3544 -0.1551
  547MOL0     O73768   5.777   3.263   2.146  1.0685 -0.9155  0.4113
  547MOL0     C73769   5.632   3.290   2.137 -0.0457  0.2435 -0.2390
  547MOL0     C73770   5.547   3.162   2.170  0.2002 -0.8013 -0.3121
  547MOL0     C73771   5.603   3.042   2.098  0.0810 -0.1852 -0.1257
  547MOL0     C73772   5.609   3.069   1.942 -0.2135 -0.0087  0.6071
  547MOL0     C73773   5.624   2.941   1.865  0.9048 -0.0285  0.2588
  547MOL0     C73774   5.658   2.847   1.796 -0.3007 -0.0348  0.0392
  547MOL0     C73775   5.965   3.314   2.007  0.1690  0.4515 -0.4996
  547MOL0     C73776   6.064   3.400   1.952  0.9177  0.0271  0.1229
  547MOL0     C73777   6.188   3.330   1.882  0.6455 -0.8608  0.4549
  547MOL0     H73778   6.193   3.961   2.049  0.1918 -0.9092 -0.1828
  547MOL0     H73779   6.361   4.125   1.930 -2.6387  1.8651  0.4040
  547MOL0     H73780   6.386   4.126   1.478  2.2772 -0.1130  1.7444
  547MOL0     H73781   6.257   4.238   1.519 -0.0904 -1.4689 -2.5740
  547MOL0     H73782   6.442   4.349   1.409 -3.4155 -0.1055 -0.2383
  547MOL0     H73783   6.550   4.312   1.549 -0.3065  2.1604  1.0651
  547MOL0     H73784   6.502   4.533   1.599 -0.1407  1.8562  0.8689
  547MOL0     H73785   6.393   4.422   1.688 -2.7008 -2.8708 -1.5823
  547MOL0     H73786   6.301   4.524   1.428 -0.3588  4.9511 -0.2792
  547MOL0     H73787   6.219   4.495   1.575  0.3034 -0.3481 -0.5010
  547MOL0     H73788   6.351   4.688   1.683 -0.5706 -0.6572  0.5163
  547MOL0     H73789   6.417   4.734   1.528 -0.2323  0.7809  2.4459
  547MOL0     H73790   6.165   4.739   1.442  0.3698  0.9017 -1.0319
  547MOL0     H73791   6.125   4.713   1.603 -0.6781  1.0965 -0.1123
  547MOL0     H73792   6.223   4.932   1.681 -4.0661  0.5379  0.1938
  547MOL0     H73793   6.109   4.964   1.554 -0.3078  1.5851 -1.8336
  547MOL0     H73794   6.407   4.948   1.505  0.6305  3.5209  1.5405
  547MOL0     H73795   6.289   4.976   1.373 -0.2985  0.6553  0.3817
  547MOL0     H73796   6.298   5.169   1.707  2.0081  4.2907  0.8016
  547MOL0     H73797   6.346   5.484   1.666 -0.2564  0.1471  0.4041
  547MOL0     H73798   6.213   5.537   1.557 -2.9985  1.4415  3.0812
  547MOL0     H73799   6.062   5.390   1.731  0.3051 -0.5131 -1.1206
  547MOL0     H73800   6.220   5.375   1.818  0.4391 -2.7340 -2.6991
  547MOL0     H73801   6.241   5.623   1.851  1.1478 -0.0166 -4.2324
  547MOL0     H73802   6.104   5.554   1.927  2.1481 -1.5028  0.1418
  547MOL0     H73803   6.088   5.680   1.640 -2.6539  1.9111 -0.5726
  547MOL0     H73804   6.058   5.768   1.782  1.8938 -0.7764 -0.1443
  547MOL0     H73805   5.931   5.858   1.647 -0.5598  0.6409  0.1505
  547MOL0     H73806   5.721   5.975   1.557 -0.4995 -1.3841 -2.2479
  547MOL0     H73807   5.182   5.965   1.512  0.7790  2.1934 -1.8623
  547MOL0     H73808   5.028   6.158   1.526  0.6147 -0.7820 -0.7444
  547MOL0     H73809   4.916   6.357   1.903 -0.2328 -0.7439 -0.1960
  547MOL0     H73810   5.060   6.446   1.835  0.7572 -2.7998 -0.7723
  547MOL0     H73811   4.860   6.596   1.824 -1.8416 -2.6500  3.6263
  547MOL0     H73812   4.935   6.557   1.667  0.6350 -0.4320  1.0963
  547MOL0     H73813   4.778   6.398   1.617 -2.7836  1.2427 -2.6810
  547MOL0     H73814   4.706   6.387   1.788  0.4132  1.6268  1.0047
  547MOL0     H73815   4.547   6.486   1.628 -3.4443  2.2509  1.9029
  547MOL0     H73816   4.669   6.589   1.561  0.8802  1.1918  0.3629
  547MOL0     H73817   4.679   6.687   1.821 -0.5621 -0.9270  2.0137
  547MOL0     H73818   4.546   6.577   1.858  0.1085  3.1664  2.8361
  547MOL0     H73819   4.551   6.814   1.658  0.2785 -1.3724 -0.1516
  547MOL0     H73820   4.410   6.701   1.684  0.5380 -0.2627 -0.2925
  547MOL0     H73821   4.380   6.808   1.910  0.8646  1.0859  1.7224
  547MOL0     H73822   4.384   6.928   1.793  0.6885 -0.7648 -3.7306
  547MOL0     H73823   4.524   7.010   1.962 -2.8038 -1.5708  0.0587
  547MOL0     H73824   4.616   6.865   1.999  1.8842  1.8358 -0.3311
  547MOL0     H73825   5.143   6.244   1.919 -1.3118 -0.7834  0.3498
  547MOL0     H73826   5.318   6.078   1.902 -0.0631 -3.1676  0.1852
  547MOL0     H73827   5.501   5.702   1.819  2.1844 -2.2090  0.6586
  547MOL0     H73828   5.687   5.579   1.850  1.2779  0.9998  0.3784
  547MOL0     H73829   6.252   3.974   1.557  0.9405  1.7482  0.5500
  547MOL0     H73830   6.119   3.794   1.676  1.0620 -1.5586  1.7729
  547MOL0     H73831   5.924   3.689   2.079 -0.8321  0.5851 -3.8574
  547MOL0     H73832   5.777   3.516   2.183 -0.1668 -0.2168 -1.5386
  547MOL0     H73833   5.616   3.320   2.033  4.2409  2.9164 -0.3790
  547MOL0     H73834   5.619   3.379   2.199 -3.1070 -1.3191  1.6241
  547MOL0     H73835   5.443   3.179   2.139  0.0555 -1.7380 -0.3500
  547MOL0     H73836   5.548   3.140   2.277 -0.5075  1.0353  0.1144
  547MOL0     H73837   5.537   2.959   2.123 -1.6925  0.9975 -0.6475
  547MOL0     H73838   5.705   3.030   2.135  0.6463  5.4911  1.1609
  547MOL0     H73839   5.526   3.130   1.906 -0.3179 -0.3045  0.3380
  547MOL0     H73840   5.702   3.127   1.934  0.1956 -0.6121  0.8613
  547MOL0     H73841   5.689   2.765   1.735 -1.2041 -0.8482  0.6375
  547MOL0     H73842   5.963   3.206   1.998 -1.5631  0.6009 -2.9019
  547MOL0     H73843   6.272   3.399   1.868 -1.5669  1.5248 -2.5184
  547MOL0     H73844   6.212   3.236   1.932 -0.8631 -0.4910  1.9626
  547MOL0     H73845   6.152   3.307   1.781  3.5839 -1.1575 -0.5990
  548MOL0     O73846   3.685   1.782   6.962 -0.9290  0.2208 -0.9041
  548MOL0     C73847   3.734   1.695   6.893 -0.5672 -0.9128  0.9725
  548MOL0     O73848   3.686   1.566   6.886 -0.3349 -0.0741 -0.1571
  548MOL0     C73849   3.700   1.498   6.768  0.4414 -0.1519 -0.7568
  548MOL0     C73850   3.760   1.379   6.788 -0.4862 -0.2921  0.8361
  548MOL0     C73851   3.778   1.303   6.669  0.4328  0.8414  0.9276
  548MOL0     C73852   3.728   1.343   6.548  0.0312  0.3815  0.3836
  548MOL0     O73853   3.743   1.254   6.443  0.5365  0.1102  0.3966
  548MOL0     C73854   3.665   1.289   6.322 -0.8576 -0.3567  0.3835
  548MOL0     C73855   3.690   1.172   6.234 -0.6516  0.6825 -0.6337
  548MOL0     C73856   3.595   1.167   6.117 -0.0511 -0.0866  0.7699
  548MOL0     C73857   3.617   1.281   6.022 -0.2687 -0.1161  0.3589
  548MOL0     C73858   3.514   1.264   5.907 -1.0990  0.5802  0.0909
  548MOL0     C73859   3.496   1.400   5.824 -0.1947 -0.9824  0.4533
  548MOL0     C73860   3.401   1.385   5.699  0.4561  0.0240  0.2450
  548MOL0     C73861   3.263   1.347   5.733 -0.1369 -0.1168  0.3731
  548MOL0     N73862   3.178   1.333   5.614  0.6432  0.0313 -0.4227
  548MOL0     C73863   3.194   1.231   5.516  0.3755 -0.4759 -0.2670
  548MOL0     C73864   3.080   1.235   5.445 -0.2427 -1.6074 -0.3636
  548MOL0     C73865   3.045   1.143   5.326 -1.0798 -0.1632  1.3748
  548MOL0     C73866   2.965   1.021   5.359 -0.3646  0.4241  0.2430
  548MOL0     C73867   2.901   0.978   5.232  0.8093 -0.2770 -0.3557
  548MOL0     C73868   2.837   0.840   5.240 -0.3333  0.6822 -0.3533
  548MOL0     O73869   2.935   0.727   5.209 -0.0600 -0.2550  0.0688
  548MOL0     C73870   3.019   0.682   5.308 -0.6106  0.2073  0.0574
  548MOL0     C73871   3.001   0.701   5.447  0.1932 -0.6453  0.5142
  548MOL0     C73872   3.075   0.655   5.545 -0.0772  0.2244  0.2642
  548MOL0     C73873   3.175   0.562   5.517  0.6792 -0.8030  0.2119
  548MOL0     C73874   3.244   0.492   5.627 -0.7580 -0.4044  0.1567
  548MOL0     O73875   3.352   0.415   5.599  0.3247 -0.2857 -0.0261
  548MOL0     C73876   3.398   0.331   5.692 -0.2005  0.8794 -0.1170
  548MOL0     C73877   3.536   0.319   5.699 -0.0048  0.5393  0.5499
  548MOL0     C73878   3.584   0.216   5.772 -0.3005  0.0507 -0.0876
  548MOL0     C73879   3.509   0.134   5.852 -0.3638 -0.8452 -1.0538
  548MOL0     O73880   3.573   0.032   5.919  0.2765 -0.3525 -0.8739
  548MOL0     C73881   3.489  -0.044   6.016  0.3117 -0.8189  0.2679
  548MOL0     C73882   3.580  -0.101   6.127 -0.6588  0.1117 -0.4117
  548MOL0     C73883   3.707  -0.179   6.080 -0.3097  0.2019 -0.4450
  548MOL0     C73884   3.687  -0.327   6.048  0.9986  0.8511  0.1888
  548MOL0     C73885   3.610  -0.348   5.915 -0.3487 -0.1663 -0.4096
  548MOL0     C73886   3.635  -0.487   5.854 -0.1878 -0.1635  0.2051
  548MOL0     C73887   3.562  -0.601   5.941  0.1100 -0.6068 -0.2694
  548MOL0     C73888   3.574  -0.732   5.867 -1.0691 -0.6445  0.4511
  548MOL0    Cl73889   3.730  -0.818   5.875 -0.2102 -0.5520  0.0235
  548MOL0     C73890   3.372   0.142   5.837  0.3720  0.4020 -0.4526
  548MOL0     C73891   3.317   0.242   5.763  0.2129 -0.1426 -0.5352
  548MOL0     O73892   3.197   0.511   5.736  0.0260 -0.9928  0.3732
  548MOL0     C73893   3.198   0.539   5.381 -0.3699 -0.3161 -1.4696
  548MOL0     C73894   3.130   0.603   5.280  0.2040  0.1106 -0.2782
  548MOL0     N73895   2.993   1.322   5.506  0.0266 -0.0978 -0.8446
  548MOL0     N73896   3.054   1.397   5.594  0.0143 -1.2193  0.4151
  548MOL0     C73897   3.660   1.470   6.533  0.8185  0.4504 -0.1193
  548MOL0     C73898   3.639   1.543   6.652  0.1947  0.7897  0.3951
  548MOL0     C73899   3.850   1.737   6.819  0.6960 -0.4176  0.1943
  548MOL0     C73900   3.967   1.667   6.855  0.3440 -0.5791 -0.0952
  548MOL0     C73901   4.075   1.698   6.773 -0.1408  0.8160 -0.0882
  548MOL0     C73902   4.076   1.807   6.688 -0.6221 -1.0324  0.8156
  548MOL0     O73903   4.180   1.851   6.614  0.3823  0.1787  0.4965
  548MOL0     C73904   4.309   1.803   6.637 -0.5497 -0.2451  0.1991
  548MOL0     C73905   4.398   1.834   6.515 -1.1622 -0.5157  0.2383
  548MOL0     C73906   4.545   1.793   6.559 -0.4664 -0.4528 -0.6782
  548MOL0     C73907   4.630   1.774   6.446 -0.3333  0.4017 -0.1837
  548MOL0     C73908   4.590   1.664   6.362  0.2282  0.8504 -0.8828
  548MOL0     C73909   4.540   1.592   6.289  0.0945  0.8330  0.4577
  548MOL0     C73910   3.961   1.871   6.664  0.5820  0.2708 -0.4134
  548MOL0     C73911   3.847   1.832   6.718 -0.3242 -0.7176  0.2960
  548MOL0     C73912   3.714   1.902   6.680 -0.1543 -1.3078 -0.6958
  548MOL0     H73913   3.796   1.357   6.888 -0.4671 -2.1396  0.4586
  548MOL0     H73914   3.837   1.212   6.665 -1.7092 -0.5956 -0.1602
  548MOL0     H73915   3.560   1.296   6.350 -0.3792 -2.1480  3.0813
  548MOL0     H73916   3.703   1.380   6.275 -0.7245 -0.3209  0.5551
  548MOL0     H73917   3.664   1.083   6.291 -2.1457  1.1599 -0.5148
  548MOL0     H73918   3.793   1.160   6.201 -0.6871 -1.5132 -0.0674
  548MOL0     H73919   3.491   1.166   6.150 -0.3174 -0.9847 -0.0334
  548MOL0     H73920   3.606   1.074   6.060  1.7067 -0.0135  0.9148
  548MOL0     H73921   3.597   1.380   6.063 -0.2998  0.9302 -2.0559
  548MOL0     H73922   3.723   1.280   5.994  0.7881 -1.4375  3.8058
  548MOL0     H73923   3.547   1.177   5.848 -0.9723  0.9516 -0.3892
  548MOL0     H73924   3.413   1.239   5.941 -1.0892  2.2887  1.4590
  548MOL0     H73925   3.457   1.479   5.888 -0.3060 -0.0882 -0.6970
  548MOL0     H73926   3.592   1.441   5.794  0.7241 -2.2196  1.5659
  548MOL0     H73927   3.447   1.308   5.637 -3.2381 -0.5036 -2.1466
  548MOL0     H73928   3.393   1.480   5.646 -2.0044 -1.4706 -2.2974
  548MOL0     H73929   3.258   1.247   5.778  0.3029 -1.0635 -1.5475
  548MOL0     H73930   3.213   1.418   5.799  0.2074  0.4469  0.0325
  548MOL0     H73931   3.272   1.156   5.508  0.0733 -0.7092 -1.1209
  548MOL0     H73932   3.000   1.216   5.259  0.4566 -0.2751  0.1591
  548MOL0     H73933   3.135   1.097   5.284 -1.9283 -0.5229 -0.0992
  548MOL0     H73934   3.038   0.951   5.400  2.3221  2.6968 -0.3632
  548MOL0     H73935   2.884   1.041   5.430 -3.3350 -3.1293 -1.7878
  548MOL0     H73936   2.983   0.983   5.160  1.1063  0.9435  0.0383
  548MOL0     H73937   2.824   1.048   5.201  0.7319  0.1234  0.6937
  548MOL0     H73938   2.762   0.834   5.160 -0.2992 -1.7490 -0.2820
  548MOL0     H73939   2.786   0.816   5.334  1.4860 -3.3207 -0.1627
  548MOL0     H73940   2.909   0.752   5.474 -0.3187 -1.8687  1.1880
  548MOL0     H73941   3.044   0.678   5.647 -0.9989 -2.7853  0.7713
  548MOL0     H73942   3.595   0.387   5.639 -1.5572  0.8553 -0.6743
  548MOL0     H73943   3.686   0.183   5.755 -0.6658 -0.3476 -1.6172
  548MOL0     H73944   3.418   0.025   6.063 -0.2856 -1.2289 -0.0199
  548MOL0     H73945   3.440  -0.125   5.961  0.9506  0.5481 -2.5051
  548MOL0     H73946   3.611  -0.026   6.201  1.1838 -1.3503  0.3641
  548MOL0     H73947   3.520  -0.170   6.186 -4.7955  2.6428 -1.2666
  548MOL0     H73948   3.766  -0.122   6.007  0.2440 -1.0102 -0.9806
  548MOL0     H73949   3.765  -0.167   6.172 -1.4337  1.4022  0.1322
  548MOL0     H73950   3.623  -0.378   6.122  3.5355 -4.4598 -0.8149
  548MOL0     H73951   3.779  -0.385   6.046  0.2831 -0.3446 -2.6266
  548MOL0     H73952   3.644  -0.264   5.855 -1.3191 -2.0348 -3.8474
  548MOL0     H73953   3.501  -0.348   5.925 -0.1505  0.8678  3.3276
  548MOL0     H73954   3.584  -0.483   5.757 -1.3727  0.3462  0.8269
  548MOL0     H73955   3.741  -0.510   5.839 -0.5101 -0.4486 -1.8800
  548MOL0     H73956   3.456  -0.574   5.933  0.3506  0.3117 -0.4943
  548MOL0     H73957   3.591  -0.598   6.046 -3.9399 -1.8658  1.0765
  548MOL0     H73958   3.491  -0.792   5.905 -1.4018 -2.3196 -2.5932
  548MOL0     H73959   3.545  -0.725   5.761 -0.1758 -2.3700  0.0624
  548MOL0     H73960   3.296   0.075   5.877  1.7575 -0.9038  0.0694
  548MOL0     H73961   3.209   0.248   5.765  0.2900  3.2305 -0.0374
  548MOL0     H73962   3.283   0.474   5.365  1.2125  1.8993 -2.5922
  548MOL0     H73963   3.141   0.571   5.177  0.0479 -0.6652 -0.0631
  548MOL0     H73964   3.621   1.514   6.441 -2.0886  0.0316  0.8107
  548MOL0     H73965   3.585   1.637   6.656 -0.4305  0.4010  1.5290
  548MOL0     H73966   3.964   1.593   6.933 -0.9651  3.9701  4.7575
  548MOL0     H73967   4.169   1.644   6.785  1.1993  3.1454  0.6556
  548MOL0     H73968   4.333   1.701   6.669  2.1924  0.5909  1.1133
  548MOL0     H73969   4.338   1.861   6.725  0.5316 -0.4080 -0.0290
  548MOL0     H73970   4.391   1.942   6.498 -1.6662 -0.1538  2.4192
  548MOL0     H73971   4.350   1.771   6.440 -0.1522  0.9111 -1.6863
  548MOL0     H73972   4.559   1.702   6.619 -1.3666  0.2876  0.7096
  548MOL0     H73973   4.588   1.876   6.616  1.3480 -1.6195 -0.2654
  548MOL0     H73974   4.622   1.865   6.387 -1.9584  2.3217  2.7398
  548MOL0     H73975   4.732   1.740   6.468 -0.3809  1.2887  1.5452
  548MOL0     H73976   4.491   1.527   6.219  2.5713  2.8461 -3.5097
  548MOL0     H73977   3.966   1.953   6.592 -1.2840 -0.7135 -1.7275
  548MOL0     H73978   3.706   1.991   6.744  3.9344  0.4545 -2.3253
  548MOL0     H73979   3.728   1.952   6.584 -1.4556  0.0441 -0.2453
  548MOL0     H73980   3.627   1.837   6.693 -0.5076 -0.2646  4.0133
  549MOL0     O73981   5.442   4.433   3.072  0.9515 -0.8736  0.3788
  549MOL0     C73982   5.487   4.540   3.055 -1.0018  0.5749 -0.1886
  549MOL0     O73983   5.547   4.584   2.937 -0.1980  0.0272  0.3654
  549MOL0     C73984   5.558   4.505   2.832 -0.4432  0.3548  0.0770
  549MOL0     C73985   5.510   4.530   2.712  0.5955 -0.2307  0.6231
  549MOL0     C73986   5.517   4.448   2.605 -0.6739 -0.6836  0.4287
  549MOL0     C73987   5.585   4.326   2.623 -0.4364 -0.0806 -0.8325
  549MOL0     O73988   5.583   4.241   2.515  0.8377  0.0455  0.0958
  549MOL0     C73989   5.617   4.099   2.525  1.0822 -0.4082 -0.3763
  549MOL0     C73990   5.508   4.021   2.615 -0.2776  0.6212 -0.1536
  549MOL0     C73991   5.564   3.891   2.667 -0.5870  0.5890 -0.3600
  549MOL0     C73992   5.623   3.784   2.579 -0.0924  0.0580  1.2510
  549MOL0     C73993   5.642   3.646   2.638 -0.2753  0.2466 -0.8256
  549MOL0     C73994   5.674   3.538   2.534 -0.4169  0.1239  0.1101
  549MOL0     C73995   5.698   3.396   2.582 -1.0337  0.4252 -0.3179
  549MOL0     C73996   5.607   3.336   2.687  1.1012  0.3353 -0.7550
  549MOL0     N73997   5.473   3.302   2.631 -0.1301 -0.0231 -0.8324
  549MOL0     C73998   5.392   3.404   2.600  1.4383  0.2035 -0.3111
  549MOL0     C73999   5.279   3.353   2.543 -0.7316 -0.5633 -0.3736
  549MOL0     C74000   5.164   3.431   2.500  1.1562  0.0297  0.6880
  549MOL0     C74001   5.055   3.360   2.420  0.4999 -0.6739 -0.5545
  549MOL0     C74002   5.134   3.308   2.295 -0.1966 -0.2251  0.0543
  549MOL0     C74003   5.021   3.288   2.191  0.1737  0.6536  1.4851
  549MOL0     O74004   5.068   3.213   2.072 -0.3523  0.2322 -1.1078
  549MOL0     C74005   5.155   3.270   1.991 -0.1985  0.2245  0.7678
  549MOL0     C74006   5.205   3.405   1.991 -0.6418  0.0981 -0.3038
  549MOL0     C74007   5.311   3.437   1.910  0.3995  0.5771 -0.6315
  549MOL0     C74008   5.369   3.345   1.815  0.1008 -1.0112  0.3338
  549MOL0     C74009   5.473   3.395   1.721  0.8443  1.1278  0.1037
  549MOL0     O74010   5.556   3.489   1.767  0.2415  0.4804  0.2939
  549MOL0     C74011   5.644   3.545   1.672 -0.4993 -0.1587  0.6448
  549MOL0     C74012   5.780   3.559   1.708 -0.3602  0.6364  0.1614
  549MOL0     C74013   5.873   3.619   1.631  0.5841  0.4612  0.2543
  549MOL0     C74014   5.833   3.684   1.509  0.9685  0.8891 -0.6981
  549MOL0     O74015   5.934   3.748   1.438  0.0310  0.1013 -0.7274
  549MOL0     C74016   5.909   3.853   1.348 -0.3111 -0.4672 -0.1441
  549MOL0     C74017   5.980   3.981   1.393 -0.2527 -0.6680  0.9950
  549MOL0     C74018   5.904   4.110   1.358 -0.1237  0.1499  0.5405
  549MOL0     C74019   5.956   4.226   1.449  0.2376  0.5565  0.5298
  549MOL0     C74020   5.854   4.242   1.565 -0.7820  0.7207 -0.0787
  549MOL0     C74021   5.909   4.355   1.657 -0.4657  0.5988  1.0898
  549MOL0     C74022   6.011   4.305   1.757  0.2529  0.3565  1.0163
  549MOL0     C74023   6.020   4.394   1.878  0.8255  0.0681 -1.1528
  549MOL0    Cl74024   6.176   4.388   1.950 -0.0044  0.4010 -0.1573
  549MOL0     C74025   5.695   3.674   1.480  0.2966 -0.7952 -0.3061
  549MOL0     C74026   5.601   3.611   1.559  0.2768 -0.2560  0.1909
  549MOL0     O74027   5.487   3.327   1.621  0.1955  0.2702  0.2140
  549MOL0     C74028   5.312   3.220   1.815  0.3668 -0.4231 -0.9102
  549MOL0     C74029   5.211   3.179   1.902  0.9211  0.2423  0.7595
  549MOL0     N74030   5.307   3.221   2.529  0.0299 -0.4358 -0.4623
  549MOL0     N74031   5.416   3.185   2.589  0.7265  0.1187  0.1757
  549MOL0     C74032   5.647   4.294   2.746  0.3804  0.1907  0.2250
  549MOL0     C74033   5.641   4.392   2.843  0.6371 -0.0455  0.4652
  549MOL0     C74034   5.505   4.629   3.165  0.4072 -0.2563 -0.7200
  549MOL0     C74035   5.423   4.749   3.169 -0.1661 -0.0279  0.3129
  549MOL0     C74036   5.412   4.814   3.289  0.4060 -0.3044  1.4162
  549MOL0     C74037   5.492   4.784   3.396 -0.1575 -0.2375 -0.2347
  549MOL0     O74038   5.496   4.871   3.503  0.9778 -0.4174  0.3313
  549MOL0     C74039   5.584   4.834   3.611  1.2830 -0.0916 -0.3412
  549MOL0     C74040   5.572   4.953   3.706  0.7509 -0.6867 -0.0029
  549MOL0     C74041   5.671   4.939   3.821 -0.2366 -0.5730 -0.2362
  549MOL0     C74042   5.764   5.066   3.830  0.5574 -0.6154  0.4726
  549MOL0     C74043   5.866   5.038   3.931  0.9824  0.1259 -0.4014
  549MOL0     C74044   5.961   4.989   3.995  0.3320  1.1262 -0.9199
  549MOL0     C74045   5.585   4.676   3.389  0.9616 -0.6607 -0.2981
  549MOL0     C74046   5.588   4.594   3.273 -0.2748  0.0772 -0.3537
  549MOL0     C74047   5.690   4.480   3.264  0.3942  0.2813 -0.1953
  549MOL0     H74048   5.477   4.632   2.696 -0.0913  0.1605  3.7900
  549MOL0     H74049   5.481   4.481   2.508  2.5645 -0.5228 -0.8482
  549MOL0     H74050   5.620   4.057   2.424 -0.1764 -2.4135  0.3527
  549MOL0     H74051   5.719   4.078   2.557  1.2257 -1.4624 -1.4253
  549MOL0     H74052   5.430   3.992   2.544 -2.1154  0.3367  1.8862
  549MOL0     H74053   5.467   4.092   2.687  1.7408  0.5837  1.1131
  549MOL0     H74054   5.481   3.853   2.728 -0.0220 -0.7670 -0.3926
  549MOL0     H74055   5.646   3.905   2.737  0.4038 -0.4214 -1.2809
  549MOL0     H74056   5.555   3.769   2.495 -1.6857  0.4883  2.4179
  549MOL0     H74057   5.719   3.822   2.543 -1.0636  0.5118 -1.0415
  549MOL0     H74058   5.718   3.657   2.716 -2.5069  0.3677  1.5047
  549MOL0     H74059   5.554   3.603   2.688  1.6197 -0.8575  1.7748
  549MOL0     H74060   5.589   3.528   2.466  1.2840 -1.6397 -1.8772
  549MOL0     H74061   5.764   3.562   2.477 -0.3486 -1.0594 -0.3117
  549MOL0     H74062   5.795   3.385   2.631 -1.5407  3.4071  1.6391
  549MOL0     H74063   5.706   3.343   2.487  0.7507  1.1722 -0.6316
  549MOL0     H74064   5.647   3.243   2.728 -1.3276  0.0998  1.3364
  549MOL0     H74065   5.594   3.408   2.768  0.3363 -0.9650  0.3223
  549MOL0     H74066   5.415   3.509   2.615 -0.8635  0.8266 -0.7482
  549MOL0     H74067   5.119   3.473   2.590  3.9117 -1.9641  3.1580
  549MOL0     H74068   5.202   3.519   2.448 -3.4114  1.9366  0.1038
  549MOL0     H74069   5.000   3.273   2.457  1.4162 -1.3571 -0.7774
  549MOL0     H74070   4.983   3.441   2.404  0.6690  0.0937  2.0554
  549MOL0     H74071   5.184   3.217   2.327  0.6384 -0.4272 -1.7307
  549MOL0     H74072   5.212   3.378   2.263 -1.7815  3.1390  2.8571
  549MOL0     H74073   4.982   3.385   2.159 -1.6811  0.5676  3.2752
  549MOL0     H74074   4.944   3.222   2.232 -0.1946 -0.1797 -0.4356
  549MOL0     H74075   5.145   3.468   2.056 -4.6104 -4.2067  0.7570
  549MOL0     H74076   5.358   3.534   1.922  0.7882  0.5485 -1.8129
  549MOL0     H74077   5.816   3.510   1.798 -2.8785 -1.5945  0.0858
  549MOL0     H74078   5.977   3.615   1.662  0.8670  3.9518  0.0587
  549MOL0     H74079   5.940   3.819   1.249  1.8976 -0.8302  0.6210
  549MOL0     H74080   5.808   3.893   1.338  0.3696  1.6087  0.7371
  549MOL0     H74081   6.002   3.971   1.500  1.6608  2.6178  1.0308
  549MOL0     H74082   6.072   3.968   1.337 -1.1932 -1.6283 -0.4016
  549MOL0     H74083   5.901   4.133   1.251 -1.3016 -3.1429 -0.2539
  549MOL0     H74084   5.798   4.093   1.379  0.2607 -1.3591  1.3755
  549MOL0     H74085   5.967   4.317   1.390 -0.4161 -0.5843 -1.4540
  549MOL0     H74086   6.051   4.191   1.493  0.0243  0.1867  0.7063
  549MOL0     H74087   5.843   4.150   1.623  7.1033 -0.1472  1.1295
  549MOL0     H74088   5.755   4.258   1.520  0.2722  2.8738 -1.8525
  549MOL0     H74089   5.962   4.423   1.590  1.2635 -2.8571 -1.3558
  549MOL0     H74090   5.821   4.396   1.709 -3.9326 -0.6817 -3.1025
  549MOL0     H74091   6.112   4.312   1.718 -0.2821  3.6773 -0.1523
  549MOL0     H74092   5.993   4.201   1.785  4.6619 -0.8001  0.2204
  549MOL0     H74093   6.010   4.501   1.860  0.6815  1.0050  3.3302
  549MOL0     H74094   5.941   4.378   1.951 -0.9161  2.1367 -2.4940
  549MOL0     H74095   5.661   3.728   1.392  0.7454  0.7274  0.4215
  549MOL0     H74096   5.502   3.621   1.516  0.4993 -1.7852 -0.7694
  549MOL0     H74097   5.354   3.154   1.740  2.2863 -0.5966  0.2591
  549MOL0     H74098   5.187   3.073   1.895  0.6376  0.0399  3.6981
  549MOL0     H74099   5.705   4.206   2.772 -0.2722  0.4548  2.8700
  549MOL0     H74100   5.706   4.387   2.930  0.3565 -2.5228  0.6178
  549MOL0     H74101   5.367   4.778   3.080 -0.2697  2.9204  1.2197
  549MOL0     H74102   5.355   4.906   3.298  0.4639  0.0200 -0.9708
  549MOL0     H74103   5.692   4.825   3.594  1.3206 -0.9014  0.2424
  549MOL0     H74104   5.547   4.748   3.668  0.2173 -0.9821 -2.3067
  549MOL0     H74105   5.472   4.956   3.749  0.8414  0.8501  0.1406
  549MOL0     H74106   5.586   5.051   3.660 -2.7530 -0.6020 -1.1967
  549MOL0     H74107   5.730   4.848   3.803 -1.7879 -1.0674 -3.4663
  549MOL0     H74108   5.616   4.933   3.916  0.9082 -2.7600  0.3608
  549MOL0     H74109   5.793   5.090   3.727 -2.1520 -2.2481 -0.7739
  549MOL0     H74110   5.701   5.147   3.869  2.8899  0.8598  1.3830
  549MOL0     H74111   6.030   4.927   4.048 -3.6435  0.0897  3.7563
  549MOL0     H74112   5.641   4.648   3.477 -0.3244 -1.2775  0.3605
  549MOL0     H74113   5.653   4.389   3.313  2.8116  0.1108  1.5238
  549MOL0     H74114   5.721   4.464   3.161  2.3466 -0.8661  0.5199
  549MOL0     H74115   5.784   4.493   3.318 -0.4048  0.6471  1.1631
  550MOL0     O74116   8.242   2.111   1.943 -0.8111  0.5102  0.5981
  550MOL0     C74117   8.362   2.099   1.908 -0.6335  0.0501  0.0871
  550MOL0     O74118   8.406   2.025   1.801  0.3096 -0.7474 -0.3525
  550MOL0     C74119   8.307   1.957   1.736  0.5446  0.5668 -0.7870
  550MOL0     C74120   8.296   1.816   1.746 -0.4662 -0.2505  0.4346
  550MOL0     C74121   8.207   1.750   1.666  0.1223  0.6115  0.1594
  550MOL0     C74122   8.119   1.823   1.575  0.8244 -0.0172  0.4113
  550MOL0     O74123   8.033   1.752   1.500 -0.9045  0.6377 -0.0049
  550MOL0     C74124   7.899   1.762   1.548 -0.1237  0.1242  0.1203
  550MOL0     C74125   7.859   1.642   1.610  0.4404  0.8219  1.0811
  550MOL0     C74126   7.852   1.519   1.522  0.1296  0.2390 -1.5972
  550MOL0     C74127   7.794   1.400   1.609 -0.0202 -0.2022  0.0861
  550MOL0     C74128   7.798   1.266   1.522  0.1223  0.0449  0.2650
  550MOL0     C74129   7.674   1.187   1.558 -0.0452 -0.7371 -0.1348
  550MOL0     C74130   7.696   1.042   1.519 -0.2996 -0.6992  0.1568
  550MOL0     C74131   7.801   0.958   1.598 -0.5896  0.4862  0.2738
  550MOL0     N74132   7.767   0.928   1.740 -0.5451 -0.2535  0.9331
  550MOL0     C74133   7.691   0.825   1.775  0.9217  0.3376  0.6219
  550MOL0     C74134   7.699   0.821   1.911 -0.9296 -0.1896 -0.2709
  550MOL0     C74135   7.639   0.729   2.014  0.2612  0.1083 -0.0019
  550MOL0     C74136   7.494   0.703   1.980  0.2899  0.7251  0.0946
  550MOL0     C74137   7.408   0.746   2.099 -0.3514  1.0499  0.2781
  550MOL0     C74138   7.414   0.669   2.233 -0.2725 -0.2050 -0.8771
  550MOL0     O74139   7.336   0.548   2.214  0.3281 -1.1804 -0.1195
  550MOL0     C74140   7.193   0.550   2.220  0.0939  0.4212 -1.7465
  550MOL0     C74141   7.110   0.655   2.263  0.6893 -0.5339 -0.4623
  550MOL0     C74142   6.972   0.651   2.268  0.3922 -0.2223  0.3480
  550MOL0     C74143   6.899   0.533   2.242 -0.1659 -0.0600 -0.9854
  550MOL0     C74144   6.760   0.523   2.273 -0.6445  0.4062 -0.0619
  550MOL0     O74145   6.705   0.393   2.272  0.0964  0.3269 -0.3894
  550MOL0     C74146   6.566   0.390   2.293 -0.1023 -0.5222  0.2025
  550MOL0     C74147   6.494   0.450   2.398 -0.5864 -0.1696 -0.7799
  550MOL0     C74148   6.360   0.421   2.411  0.2691 -0.1879 -0.3236
  550MOL0     C74149   6.290   0.331   2.326  0.0453 -0.4861 -0.3471
  550MOL0     O74150   6.159   0.296   2.328  0.6166 -0.2145 -0.4545
  550MOL0     C74151   6.054   0.369   2.407  0.3865  0.3201  0.3546
  550MOL0     C74152   5.909   0.327   2.369 -0.7911  0.7348  0.0883
  550MOL0     C74153   5.876   0.374   2.227 -0.6952 -0.0248 -0.5723
  550MOL0     C74154   5.747   0.303   2.170  0.7410 -0.2560 -0.2547
  550MOL0     C74155   5.629   0.297   2.269  1.3978  0.1324  0.4406
  550MOL0     C74156   5.575   0.435   2.288  0.8320  0.1326 -1.3179
  550MOL0     C74157   5.432   0.432   2.355  0.3087 -0.0611  0.1034
  550MOL0     C74158   5.330   0.543   2.297  0.0276 -0.5821 -0.4792
  550MOL0    Cl74159   5.177   0.514   2.386 -0.3499  0.0585  0.0008
  550MOL0     C74160   6.372   0.271   2.226 -0.0801 -0.9402  0.1374
  550MOL0     C74161   6.506   0.298   2.209  0.8175 -0.4376 -0.6152
  550MOL0     O74162   6.708   0.630   2.303  0.2165  0.6424  0.2759
  550MOL0     C74163   6.981   0.435   2.187 -0.3263  0.7954  0.3769
  550MOL0     C74164   7.115   0.438   2.187 -0.4375 -0.3947 -0.0360
  550MOL0     N74165   7.790   0.922   1.948 -0.8100  0.0048 -0.3141
  550MOL0     N74166   7.837   0.977   1.841 -0.4297 -0.4413  0.0545
  550MOL0     C74167   8.136   1.958   1.558 -0.6493 -0.0645  0.2076
  550MOL0     C74168   8.230   2.026   1.642  0.0998 -0.1035 -0.7669
  550MOL0     C74169   8.464   2.170   1.988  0.1080 -0.1614 -0.8468
  550MOL0     C74170   8.598   2.120   1.979  0.3952  0.1802 -0.6161
  550MOL0     C74171   8.704   2.167   2.055  0.2918 -0.1738  0.1993
  550MOL0     C74172   8.678   2.265   2.144  0.3936  0.5880  0.1692
  550MOL0     O74173   8.787   2.308   2.219 -0.5321  0.6463  0.7681
  550MOL0     C74174   8.770   2.368   2.344 -0.4843  0.8290  0.3299
  550MOL0     C74175   8.753   2.524   2.337 -0.3794  1.0777  1.0288
  550MOL0     C74176   8.728   2.560   2.487 -0.6560 -0.1558 -0.7156
  550MOL0     C74177   8.611   2.499   2.558 -0.4323 -0.1821 -0.6174
  550MOL0     C74178   8.477   2.523   2.488  0.0823  0.0291 -0.3852
  550MOL0     C74179   8.361   2.551   2.468  0.6095 -0.0426 -0.3140
  550MOL0     C74180   8.546   2.324   2.157 -0.8756  0.5200 -0.0797
  550MOL0     C74181   8.448   2.284   2.072 -0.1705 -0.2997  0.7087
  550MOL0     C74182   8.315   2.362   2.078 -0.2407  0.7973 -0.7777
  550MOL0     H74183   8.348   1.752   1.816 -0.4578 -0.2640  0.4159
  550MOL0     H74184   8.185   1.644   1.677 -0.3818  0.6944 -0.0666
  550MOL0     H74185   7.881   1.849   1.612 -1.6157  0.6878 -1.0099
  550MOL0     H74186   7.835   1.777   1.461  0.3491 -1.3601 -0.5071
  550MOL0     H74187   7.756   1.658   1.644 -1.2909 -0.5768 -2.8329
  550MOL0     H74188   7.933   1.634   1.691  1.6350 -2.7397 -0.1549
  550MOL0     H74189   7.950   1.491   1.484  0.4238 -1.7993  0.4190
  550MOL0     H74190   7.785   1.547   1.440 -0.5884 -0.7063 -1.3513
  550MOL0     H74191   7.852   1.394   1.701  0.1260 -1.7535 -0.0821
  550MOL0     H74192   7.689   1.419   1.635 -0.3005 -1.2193 -0.2280
  550MOL0     H74193   7.797   1.296   1.417  1.4160  1.5851  0.6493
  550MOL0     H74194   7.886   1.203   1.537 -0.7460 -2.2038 -3.0325
  550MOL0     H74195   7.664   1.196   1.666  3.5847 -2.3338  0.4756
  550MOL0     H74196   7.588   1.225   1.501 -1.2677 -3.1285 -0.0070
  550MOL0     H74197   7.735   1.028   1.418  3.8855  0.0701  1.4376
  550MOL0     H74198   7.594   1.005   1.525 -0.7167  0.2685 -0.6179
  550MOL0     H74199   7.816   0.866   1.541  3.0324  1.8189 -1.2141
  550MOL0     H74200   7.895   1.014   1.591 -0.7510  0.8795  1.1170
  550MOL0     H74201   7.629   0.773   1.703  1.0957 -3.0245  2.6857
  550MOL0     H74202   7.691   0.635   1.998  0.6078  0.1704  0.7487
  550MOL0     H74203   7.642   0.767   2.116 -0.8684 -1.9915  0.8592
  550MOL0     H74204   7.455   0.769   1.902  0.1100  2.7931  1.8464
  550MOL0     H74205   7.486   0.595   1.962  3.2937  0.7753 -2.5882
  550MOL0     H74206   7.305   0.752   2.062  0.1852 -0.8980 -1.7379
  550MOL0     H74207   7.439   0.849   2.118 -0.0355  0.3063  4.8341
  550MOL0     H74208   7.377   0.735   2.313  1.7691 -2.8556  2.5634
  550MOL0     H74209   7.516   0.652   2.268 -0.5358  0.4849  0.3162
  550MOL0     H74210   7.157   0.745   2.301  2.0432 -1.2878 -0.2860
  550MOL0     H74211   6.914   0.734   2.308  1.1458 -0.6834  2.5396
  550MOL0     H74212   6.561   0.513   2.455  0.6263 -1.3494 -0.8445
  550MOL0     H74213   6.312   0.483   2.486  1.0267  1.3285 -1.0315
  550MOL0     H74214   6.080   0.348   2.511 -1.1877 -1.7907  0.3897
  550MOL0     H74215   6.057   0.477   2.394 -1.1687  0.6302  2.2539
  550MOL0     H74216   5.916   0.218   2.379  2.3624  0.7503 -0.8961
  550MOL0     H74217   5.840   0.371   2.441 -2.2517 -1.0753 -0.1238
  550MOL0     H74218   5.849   0.481   2.225 -0.1699  0.1034 -2.2610
  550MOL0     H74219   5.958   0.361   2.157 -0.0369  2.0444 -0.2653
  550MOL0     H74220   5.778   0.201   2.144 -0.6343 -0.8363  0.2864
  550MOL0     H74221   5.708   0.351   2.080 -0.3392 -2.2126 -0.8959
  550MOL0     H74222   5.654   0.241   2.359 -0.9502 -0.7333  0.6197
  550MOL0     H74223   5.561   0.240   2.205  3.5120 -1.1883 -0.7548
  550MOL0     H74224   5.645   0.497   2.345 -0.2761  2.4306 -2.3237
  550MOL0     H74225   5.562   0.489   2.194 -0.8094 -0.3686 -1.4041
  550MOL0     H74226   5.448   0.460   2.460  2.4666 -1.3640  0.1718
  550MOL0     H74227   5.385   0.333   2.352 -1.5120  0.6898 -4.4031
  550MOL0     H74228   5.358   0.642   2.335  1.4112 -1.6545  1.4634
  550MOL0     H74229   5.309   0.535   2.190  0.7675 -3.3236 -0.4921
  550MOL0     H74230   6.323   0.199   2.161  0.8944  0.2999 -2.0845
  550MOL0     H74231   6.571   0.250   2.136  1.0315  0.5313 -1.0786
  550MOL0     H74232   6.942   0.342   2.146  0.7164  0.4347  0.1748
  550MOL0     H74233   7.172   0.350   2.160 -0.3119 -1.3309  2.9294
  550MOL0     H74234   8.081   2.018   1.486  0.7267  2.9373  1.4874
  550MOL0     H74235   8.231   2.135   1.643 -4.1159  0.1439 -1.7269
  550MOL0     H74236   8.603   2.037   1.909 -2.8171  0.9690 -1.9583
  550MOL0     H74237   8.801   2.118   2.060 -0.0987 -0.9209  0.7330
  550MOL0     H74238   8.851   2.354   2.416 -0.6319  1.4976  0.6346
  550MOL0     H74239   8.676   2.327   2.382  0.1162  0.1215  1.0568
  550MOL0     H74240   8.666   2.555   2.278 -0.0476 -0.8017 -0.5793
  550MOL0     H74241   8.849   2.567   2.308  0.6874 -1.7599 -0.0257
  550MOL0     H74242   8.710   2.668   2.488 -1.6838 -0.3106 -0.9043
  550MOL0     H74243   8.819   2.543   2.546 -2.1497 -3.0859  0.9583
  550MOL0     H74244   8.633   2.392   2.563 -2.7250 -0.7096 -0.7769
  550MOL0     H74245   8.601   2.548   2.655 -3.4922  0.6115 -1.2219
  550MOL0     H74246   8.274   2.592   2.421 -1.3335 -3.0287  0.4152
  550MOL0     H74247   8.527   2.405   2.226 -1.6334  3.2099 -3.2039
  550MOL0     H74248   8.285   2.354   1.973  2.3875 -3.3635 -1.4273
  550MOL0     H74249   8.239   2.307   2.132  0.4834 -0.9574 -1.4745
  550MOL0     H74250   8.318   2.459   2.128 -2.1814  0.6322 -0.2982
  551MOL0     O74251   0.424   6.774   5.483  0.4845  0.0631  0.5021
  551MOL0     C74252   0.513   6.711   5.427 -0.1435 -0.1890  0.8119
  551MOL0     O74253   0.629   6.763   5.381 -0.0271 -0.8569 -1.1775
  551MOL0     C74254   0.644   6.900   5.404 -0.3078  0.6303  0.0197
  551MOL0     C74255   0.596   6.993   5.307 -0.1452 -0.1457  0.4432
  551MOL0     C74256   0.617   7.130   5.324  0.8636  0.0133 -0.2461
  551MOL0     C74257   0.673   7.170   5.448 -0.1195 -0.7960  0.3886
  551MOL0     O74258   0.700   7.300   5.469 -0.6332 -0.7136 -0.2746
  551MOL0     C74259   0.706   7.351   5.601  0.4213 -0.1688 -0.3550
  551MOL0     C74260   0.684   7.503   5.619  0.4504  0.8189  0.9234
  551MOL0     C74261   0.554   7.533   5.537  0.8745  0.0475  0.1376
  551MOL0     C74262   0.508   7.672   5.557  0.4315 -0.0343 -0.0909
  551MOL0     C74263   0.378   7.696   5.483 -0.3941 -0.7074 -0.6553
  551MOL0     C74264   0.344   7.855   5.482  0.4471 -0.7921  1.0770
  551MOL0     C74265   0.245   7.892   5.365  0.9875  0.0749 -0.5170
  551MOL0     C74266   0.320   7.899   5.228 -0.3647  0.9548 -1.0207
  551MOL0     N74267   0.290   7.789   5.130 -0.2304  0.0448 -0.0688
  551MOL0     C74268   0.389   7.705   5.086  0.0112 -0.2755  0.5965
  551MOL0     C74269   0.331   7.615   4.997  0.3837  0.3359  0.1347
  551MOL0     C74270   0.370   7.493   4.916 -0.5619 -0.4619 -0.2066
  551MOL0     C74271   0.512   7.524   4.856  0.7436  0.4875  0.2027
  551MOL0     C74272   0.536   7.423   4.753 -0.0392  0.9233 -0.2736
  551MOL0     C74273   0.670   7.457   4.676 -0.4952 -0.0400 -0.0155
  551MOL0     O74274   0.792   7.405   4.727  0.3873  0.5399 -0.2319
  551MOL0     C74275   0.810   7.270   4.695  0.6742  0.5594 -0.7216
  551MOL0     C74276   0.915   7.204   4.759 -0.4983 -0.0383  0.1753
  551MOL0     C74277   0.971   7.087   4.703  0.0756  0.6671 -0.4996
  551MOL0     C74278   0.918   7.024   4.588  0.2906 -0.6102  0.2872
  551MOL0     C74279   0.965   6.910   4.512 -0.6343  0.3483  0.5874
  551MOL0     O74280   0.909   6.876   4.388 -0.0998  0.7189  0.5877
  551MOL0     C74281   0.990   6.803   4.306 -0.4780 -0.0388  0.2530
  551MOL0     C74282   1.113   6.853   4.250  0.2393  0.2283 -0.4141
  551MOL0     C74283   1.213   6.761   4.201  0.3885 -0.4839 -0.3079
  551MOL0     C74284   1.178   6.625   4.193 -0.5512 -0.6518 -0.0533
  551MOL0     O74285   1.283   6.552   4.158 -0.3473  0.9353 -0.1615
  551MOL0     C74286   1.260   6.413   4.158  0.2130  0.1777  1.3019
  551MOL0     C74287   1.392   6.343   4.135 -0.2584 -0.4658  0.4374
  551MOL0     C74288   1.375   6.192   4.159  0.9192 -0.6058 -0.9286
  551MOL0     C74289   1.506   6.125   4.151 -0.2334  0.2140  0.3424
  551MOL0     C74290   1.502   5.977   4.188 -0.2395 -0.7887 -0.7207
  551MOL0     C74291   1.478   5.900   4.055  0.5016 -0.4618  0.1815
  551MOL0     C74292   1.490   5.751   4.068  0.5987 -0.3870 -1.0543
  551MOL0     C74293   1.631   5.713   4.104  0.8706  0.1807 -1.0615
  551MOL0    Cl74294   1.659   5.543   4.079  0.0798  0.5872  0.3216
  551MOL0     C74295   1.046   6.579   4.230  0.2829 -0.5247 -0.0415
  551MOL0     C74296   0.955   6.667   4.284 -0.7719  0.3461 -0.3489
  551MOL0     O74297   1.055   6.847   4.567  0.5948  0.4758 -0.3033
  551MOL0     C74298   0.791   7.081   4.548 -0.5111  0.0436  0.1768
  551MOL0     C74299   0.741   7.201   4.588  0.6771  0.0651  0.0911
  551MOL0     N74300   0.194   7.653   5.002  0.2808 -0.8876 -0.5372
  551MOL0     N74301   0.172   7.751   5.084  0.7164 -0.5209  0.2371
  551MOL0     C74302   0.711   7.080   5.542 -0.2018 -0.2232 -0.1970
  551MOL0     C74303   0.702   6.944   5.519  0.0946  0.2486 -0.2137
  551MOL0     C74304   0.503   6.561   5.437 -0.0251 -1.4697  0.7166
  551MOL0     C74305   0.388   6.507   5.487 -0.4131  0.0943 -0.4538
  551MOL0     C74306   0.371   6.367   5.487  0.5161  0.2562 -0.7657
  551MOL0     C74307   0.466   6.284   5.440 -0.4665  0.6659  0.0432
  551MOL0     O74308   0.453   6.147   5.425 -0.0300 -0.9287 -0.3066
  551MOL0     C74309   0.319   6.100   5.440 -0.0236  0.1860  0.1922
  551MOL0     C74310   0.304   5.955   5.381 -0.5976 -0.3872 -0.5111
  551MOL0     C74311   0.380   5.857   5.473  0.7862  0.0939  0.3585
  551MOL0     C74312   0.350   5.715   5.427 -0.3853  0.8532 -0.5123
  551MOL0     C74313   0.481   5.639   5.451 -0.7463  0.2648 -0.0210
  551MOL0     C74314   0.596   5.584   5.465 -0.4153 -1.4182 -0.1055
  551MOL0     C74315   0.579   6.337   5.393 -0.6990  0.4997  0.2329
  551MOL0     C74316   0.613   6.471   5.395  0.5737 -0.7950 -1.2026
  551MOL0     C74317   0.748   6.513   5.345 -0.0429  1.0007 -0.0264
  551MOL0     H74318   0.543   6.958   5.220  4.0797  1.2861 -3.0715
  551MOL0     H74319   0.581   7.196   5.245 -2.5191 -3.3422 -1.7878
  551MOL0     H74320   0.625   7.298   5.652 -0.3179  0.8683 -0.4243
  551MOL0     H74321   0.800   7.322   5.649 -0.5768 -1.6583  0.7859
  551MOL0     H74322   0.761   7.571   5.583  1.7776 -0.2197  1.7184
  551MOL0     H74323   0.673   7.523   5.726 -2.0534 -2.1437  1.3627
  551MOL0     H74324   0.472   7.469   5.570 -0.0177  1.7120  1.3078
  551MOL0     H74325   0.564   7.519   5.429  0.6469  0.9675 -0.0069
  551MOL0     H74326   0.498   7.678   5.666  2.2358  0.3586  0.0861
  551MOL0     H74327   0.583   7.743   5.520  0.1740  1.7113  2.4373
  551MOL0     H74328   0.386   7.664   5.378 -0.5020 -1.7184 -0.3626
  551MOL0     H74329   0.296   7.639   5.526  0.6727 -2.2813 -0.6111
  551MOL0     H74330   0.292   7.876   5.576 -2.0036  1.0652 -0.5585
  551MOL0     H74331   0.427   7.926   5.482 -1.8219  2.1626 -1.5162
  551MOL0     H74332   0.190   7.984   5.386  3.2729  0.9856  2.1601
  551MOL0     H74333   0.166   7.817   5.356  2.7604 -1.7373 -2.0232
  551MOL0     H74334   0.307   7.997   5.182  1.0238  2.2035  1.0738
  551MOL0     H74335   0.426   7.880   5.247 -0.7183 -1.4045 -1.0555
  551MOL0     H74336   0.497   7.714   5.098  0.0694  2.2661 -1.0342
  551MOL0     H74337   0.374   7.402   4.976 -2.9623 -2.7882 -3.2500
  551MOL0     H74338   0.299   7.476   4.835  1.5616  0.6213 -2.4227
  551MOL0     H74339   0.518   7.625   4.813 -0.2197 -0.1150 -1.4339
  551MOL0     H74340   0.581   7.517   4.940 -0.1179 -0.8405  0.8339
  551MOL0     H74341   0.453   7.417   4.681 -1.9661 -1.0267  1.9096
  551MOL0     H74342   0.542   7.321   4.792 -2.9505  1.6495  2.4536
  551MOL0     H74343   0.691   7.564   4.673  1.2511 -0.3511 -3.2305
  551MOL0     H74344   0.666   7.436   4.569  0.2430 -0.2886 -0.0007
  551MOL0     H74345   0.942   7.255   4.851 -2.2409  2.1940 -0.4537
  551MOL0     H74346   1.059   7.043   4.748 -0.3249 -0.5305 -0.8402
  551MOL0     H74347   1.139   6.957   4.265 -4.1092  1.2881  1.0957
  551MOL0     H74348   1.314   6.798   4.185  1.3785 -2.6173  0.6583
  551MOL0     H74349   1.222   6.378   4.254 -2.4061 -0.3919  0.1340
  551MOL0     H74350   1.199   6.391   4.070  0.9504  0.7465  0.6302
  551MOL0     H74351   1.428   6.361   4.033  1.2599 -1.3911  0.7828
  551MOL0     H74352   1.478   6.379   4.191  0.9386 -1.2542 -0.8315
  551MOL0     H74353   1.326   6.168   4.254  1.7527  2.5460  0.4129
  551MOL0     H74354   1.307   6.153   4.082 -2.0700  0.0610  1.1772
  551MOL0     H74355   1.579   6.179   4.211  1.0621 -1.4178  0.2873
  551MOL0     H74356   1.548   6.142   4.051  1.8716  0.6655  1.2632
  551MOL0     H74357   1.436   5.950   4.272 -1.3378 -0.2178 -1.3711
  551MOL0     H74358   1.600   5.949   4.228 -2.0586 -3.5910  2.2928
  551MOL0     H74359   1.379   5.919   4.013  0.4419  0.2272  0.6024
  551MOL0     H74360   1.547   5.931   3.976  3.4808 -3.6930  1.2323
  551MOL0     H74361   1.468   5.701   3.973 -0.2058 -3.3954  0.5528
  551MOL0     H74362   1.415   5.711   4.137 -1.4828  1.6300 -2.0347
  551MOL0     H74363   1.704   5.770   4.046  3.4352 -2.8182 -1.0705
  551MOL0     H74364   1.647   5.728   4.212 -2.0587 -4.2762  0.2896
  551MOL0     H74365   1.013   6.475   4.229  1.5509 -0.9746  1.2324
  551MOL0     H74366   0.863   6.624   4.323 -0.8238 -0.1540 -0.9952
  551MOL0     H74367   0.745   7.044   4.457  0.4103  0.2823 -0.4007
  551MOL0     H74368   0.657   7.242   4.534  1.2090 -0.9586 -1.5614
  551MOL0     H74369   0.766   7.106   5.632 -0.5204  4.6338 -1.1448
  551MOL0     H74370   0.747   6.883   5.597  1.9558  0.3605 -1.1636
  551MOL0     H74371   0.307   6.570   5.521  2.0650  2.0226  2.4269
  551MOL0     H74372   0.276   6.319   5.512  1.6959 -2.0247 -0.4191
  551MOL0     H74373   0.254   6.157   5.373  0.2800  1.9531  1.3319
  551MOL0     H74374   0.286   6.098   5.544 -1.7330 -1.0340 -0.3255
  551MOL0     H74375   0.354   5.947   5.284 -0.3558  0.7474 -0.4876
  551MOL0     H74376   0.198   5.926   5.385 -0.2146 -1.7691  0.1657
  551MOL0     H74377   0.330   5.860   5.570  0.7742  1.6116  0.3264
  551MOL0     H74378   0.481   5.888   5.498  0.6945 -0.7556  1.8935
  551MOL0     H74379   0.273   5.672   5.491  1.5366  0.0514  1.3974
  551MOL0     H74380   0.311   5.713   5.325 -0.4493  1.5096 -0.5105
  551MOL0     H74381   0.688   5.529   5.466 -0.5355 -1.6232 -0.1958
  551MOL0     H74382   0.657   6.266   5.367 -1.4738 -0.2934  0.0389
  551MOL0     H74383   0.793   6.549   5.438 -1.8207  1.0027  0.8705
  551MOL0     H74384   0.799   6.428   5.298  2.2843  1.2612  1.8528
  551MOL0     H74385   0.736   6.594   5.272 -0.9951  0.7647 -0.1456
  552MOL0     O74386   6.566   1.189   1.874 -0.5803 -0.3892 -0.2101
  552MOL0     C74387   6.624   1.136   1.970 -0.5199  0.3831 -0.1674
  552MOL0     O74388   6.757   1.097   1.967  0.8849  1.0287 -0.4928
  552MOL0     C74389   6.838   1.150   1.872  0.3685  0.7720 -0.2219
  552MOL0     C74390   6.900   1.274   1.901  0.2197  0.1666  0.3461
  552MOL0     C74391   6.967   1.342   1.792  0.7258 -0.1089 -0.0503
  552MOL0     C74392   6.972   1.295   1.662 -0.6430 -0.2544 -1.1391
  552MOL0     O74393   7.030   1.364   1.559 -0.0121 -0.2353 -0.3683
  552MOL0     C74394   7.059   1.500   1.581 -0.9775 -0.8204 -0.1275
  552MOL0     C74395   7.054   1.588   1.445 -0.1355 -0.2567 -0.8741
  552MOL0     C74396   7.134   1.536   1.330 -0.8494 -0.3862 -0.3374
  552MOL0     C74397   7.290   1.532   1.349  0.4298  0.6036  0.0170
  552MOL0     C74398   7.355   1.460   1.231  0.2775  0.1033  0.1092
  552MOL0     C74399   7.393   1.545   1.123 -0.0933 -0.9759 -0.1473
  552MOL0     C74400   7.402   1.464   0.995 -0.6600  0.6934 -0.1489
  552MOL0     C74401   7.515   1.358   0.974 -0.7011  0.9160  0.5469
  552MOL0     N74402   7.635   1.403   1.023 -0.0038  0.0591  0.3356
  552MOL0     C74403   7.703   1.513   0.973 -0.8377 -1.1720 -0.5758
  552MOL0     C74404   7.832   1.486   1.006 -0.3237 -0.2709 -0.6356
  552MOL0     C74405   7.954   1.577   0.972  0.1607  0.5350 -0.2091
  552MOL0     C74406   7.961   1.683   1.087  0.4499  0.1984  0.3145
  552MOL0     C74407   8.099   1.761   1.106 -0.3592 -0.7699  1.0414
  552MOL0     C74408   8.120   1.876   1.004 -0.7897 -0.8218  0.1305
  552MOL0     O74409   8.155   1.828   0.872 -0.0210  0.1903 -0.8972
  552MOL0     C74410   8.190   1.922   0.782  0.8503 -0.2033 -0.8612
  552MOL0     C74411   8.083   1.982   0.709 -0.5626 -0.2014 -0.0903
  552MOL0     C74412   8.117   2.075   0.609 -0.2860 -0.8404 -0.6509
  552MOL0     C74413   8.257   2.110   0.586  0.1315  0.3883 -0.5294
  552MOL0     C74414   8.281   2.207   0.477  0.4478 -0.4377  0.0182
  552MOL0     O74415   8.173   2.268   0.423 -0.0518  0.6994  0.7526
  552MOL0     C74416   8.190   2.339   0.311  0.6380 -0.9365 -0.0887
  552MOL0     C74417   8.132   2.281   0.193 -0.7657  1.1629  0.1884
  552MOL0     C74418   8.139   2.350   0.070  0.3341 -0.5146  0.7763
  552MOL0     C74419   8.211   2.469   0.062  0.2119 -0.7730  0.3570
  552MOL0     O74420   8.246   2.528  -0.052  1.0069 -0.4586 -0.4481
  552MOL0     C74421   8.150   2.624  -0.102  0.2049  0.0146 -0.0921
  552MOL0     C74422   8.153   2.645  -0.255  0.4186 -0.8454 -0.2167
  552MOL0     C74423   8.287   2.708  -0.309  0.6390 -0.2239 -0.5900
  552MOL0     C74424   8.376   2.614  -0.379  0.5830  0.0658  0.0153
  552MOL0     C74425   8.520   2.669  -0.417  0.4105  0.1726  0.1720
  552MOL0     C74426   8.522   2.804  -0.491  0.1485  0.1829  0.2640
  552MOL0     C74427   8.420   2.824  -0.604 -0.1241 -0.3862  0.2910
  552MOL0     C74428   8.424   2.968  -0.662 -0.6309 -0.2738 -0.6789
  552MOL0    Cl74429   8.361   3.065  -0.515  0.0293  0.5044  0.1360
  552MOL0     C74430   8.273   2.524   0.176  1.0374 -0.4568  0.0911
  552MOL0     C74431   8.272   2.457   0.298  0.0324  0.7877 -0.3772
  552MOL0     O74432   8.399   2.221   0.450  0.0118 -0.5047 -0.0640
  552MOL0     C74433   8.356   2.046   0.656 -0.1083  0.0423  0.3873
  552MOL0     C74434   8.322   1.955   0.761  0.4116 -0.1541 -0.1082
  552MOL0     N74435   7.849   1.358   1.058  0.0221  0.0829 -0.0190
  552MOL0     N74436   7.731   1.314   1.064  0.7472  0.0672 -0.0757
  552MOL0     C74437   6.910   1.169   1.638  0.7730  0.1753 -0.7109
  552MOL0     C74438   6.852   1.094   1.740 -0.1457 -0.4583  0.4221
  552MOL0     C74439   6.549   1.096   2.088 -0.9025 -0.1833 -0.3951
  552MOL0     C74440   6.578   0.968   2.140 -0.8375  0.0115 -0.1712
  552MOL0     C74441   6.530   0.928   2.259  0.2630 -0.4344  0.5674
  552MOL0     C74442   6.430   1.006   2.319  0.1261  0.6991 -0.5159
  552MOL0     O74443   6.376   0.956   2.443 -0.6012 -0.0680  0.3166
  552MOL0     C74444   6.264   1.018   2.510 -0.1901  0.5743 -0.3906
  552MOL0     C74445   6.213   0.939   2.627  0.1685 -1.0039  0.4844
  552MOL0     C74446   6.118   0.826   2.591 -0.7765  0.6610  0.3219
  552MOL0     C74447   6.127   0.716   2.687  0.1815  1.8902  0.3494
  552MOL0     C74448   6.006   0.633   2.675  0.2470  0.3156 -0.6940
  552MOL0     C74449   5.912   0.563   2.639 -0.2482  0.3199  0.4830
  552MOL0     C74450   6.382   1.126   2.259  0.3781  0.3832  0.4972
  552MOL0     C74451   6.450   1.175   2.146  1.0464  0.1841  1.0712
  552MOL0     C74452   6.402   1.310   2.099  0.4814  0.4341  0.6366
  552MOL0     H74453   6.897   1.303   2.005 -0.7496 -5.1658  2.0663
  552MOL0     H74454   7.025   1.434   1.804  2.4336 -1.0322 -0.8582
  552MOL0     H74455   6.988   1.537   1.655  1.0291 -1.4804  2.2930
  552MOL0     H74456   7.157   1.526   1.622 -0.6272  2.4275 -2.6154
  552MOL0     H74457   7.079   1.693   1.462  1.0182 -0.5216 -0.9067
  552MOL0     H74458   6.949   1.594   1.412 -1.2403 -1.5657  2.0142
  552MOL0     H74459   7.107   1.592   1.239 -0.1293  0.4002 -0.0789
  552MOL0     H74460   7.092   1.437   1.310 -2.7673 -0.3537  2.9101
  552MOL0     H74461   7.332   1.632   1.367  1.2692  1.0102 -3.4987
  552MOL0     H74462   7.307   1.471   1.438 -1.5049  2.3834  1.7186
  552MOL0     H74463   7.442   1.407   1.271  1.1332  0.4922 -1.1709
  552MOL0     H74464   7.282   1.388   1.195  1.5463 -1.6109  0.8424
  552MOL0     H74465   7.316   1.620   1.102 -0.5330 -1.3444  0.1203
  552MOL0     H74466   7.487   1.594   1.151 -1.1351  1.4953 -0.6779
  552MOL0     H74467   7.414   1.542   0.919  0.3879  2.1830  1.4648
  552MOL0     H74468   7.316   1.402   0.967  1.9426 -2.7661 -1.2555
  552MOL0     H74469   7.502   1.260   1.021 -3.1369  1.0152  0.2010
  552MOL0     H74470   7.544   1.348   0.869  2.7908  1.8640  1.2873
  552MOL0     H74471   7.674   1.604   0.923  0.6452 -0.6522 -0.5362
  552MOL0     H74472   8.044   1.515   0.963 -0.9650 -0.9338 -2.6175
  552MOL0     H74473   7.945   1.625   0.874 -1.9436  0.1790 -0.2394
  552MOL0     H74474   7.874   1.748   1.075 -0.2476 -0.8010 -0.1449
  552MOL0     H74475   7.937   1.618   1.171 -0.8059  0.0422 -0.1491
  552MOL0     H74476   8.177   1.685   1.111  1.3097  0.9603  3.1171
  552MOL0     H74477   8.092   1.812   1.203  1.5387 -1.0718  1.3699
  552MOL0     H74478   8.199   1.946   1.031 -0.3866 -0.4157 -1.9486
  552MOL0     H74479   8.034   1.942   1.001  1.3793  2.1633 -0.4232
  552MOL0     H74480   7.980   1.953   0.723 -0.3369  0.4481  4.2332
  552MOL0     H74481   8.032   2.128   0.566 -1.2936 -1.9010 -0.0153
  552MOL0     H74482   8.095   2.180   0.178  1.6953  0.5336 -2.7617
  552MOL0     H74483   8.098   2.305  -0.020  1.0941  1.2708 -0.5137
  552MOL0     H74484   8.049   2.585  -0.085 -0.0767  0.9684  0.4655
  552MOL0     H74485   8.155   2.725  -0.061  1.2701  2.0901 -4.7080
  552MOL0     H74486   8.132   2.551  -0.307  2.5922 -1.6313  0.1934
  552MOL0     H74487   8.076   2.715  -0.287 -0.3130 -0.9371  1.2609
  552MOL0     H74488   8.256   2.786  -0.379  1.8509  2.1453  1.3162
  552MOL0     H74489   8.356   2.757  -0.240 -1.3520  2.7176 -0.4958
  552MOL0     H74490   8.331   2.580  -0.473  0.7955 -0.1832  0.0006
  552MOL0     H74491   8.381   2.534  -0.305  1.1236  0.2685  0.2010
  552MOL0     H74492   8.579   2.593  -0.469  0.4201  0.3851 -0.1277
  552MOL0     H74493   8.575   2.682  -0.323  0.7536  0.5473 -0.0805
  552MOL0     H74494   8.498   2.877  -0.413 -1.1267  1.8638 -1.6149
  552MOL0     H74495   8.624   2.824  -0.523 -0.0129 -0.2651 -0.5452
  552MOL0     H74496   8.317   2.810  -0.570 -0.2844  1.2271  0.5413
  552MOL0     H74497   8.445   2.756  -0.686  0.1420  0.7094 -0.5552
  552MOL0     H74498   8.528   2.992  -0.683 -0.4889  1.0065  1.2736
  552MOL0     H74499   8.362   2.991  -0.749 -2.7122 -0.7531  0.5825
  552MOL0     H74500   8.322   2.620   0.166  1.1587 -0.2368  2.3005
  552MOL0     H74501   8.311   2.501   0.389 -0.7803 -2.7901  1.9332
  552MOL0     H74502   8.457   2.085   0.648 -0.3048  0.3686 -0.6877
  552MOL0     H74503   8.402   1.917   0.825 -0.8286  1.5915  2.6699
  552MOL0     H74504   6.918   1.141   1.533  3.2387  2.7449 -1.3139
  552MOL0     H74505   6.815   0.999   1.701  0.3595 -0.5432  0.1505
  552MOL0     H74506   6.644   0.905   2.081 -0.2648  3.3373 -3.5103
  552MOL0     H74507   6.556   0.827   2.287  1.5795  0.4361  2.7908
  552MOL0     H74508   6.187   1.027   2.432  0.9862  4.2143 -1.3293
  552MOL0     H74509   6.290   1.121   2.538  0.8819 -0.2166  1.6882
  552MOL0     H74510   6.160   1.015   2.686  0.4969 -1.3001  1.1735
  552MOL0     H74511   6.292   0.902   2.693  1.4898 -0.9562 -1.0113
  552MOL0     H74512   6.142   0.793   2.489 -4.3077 -3.7850  0.6410
  552MOL0     H74513   6.013   0.858   2.584 -1.3919 -1.5368 -1.8163
  552MOL0     H74514   6.212   0.649   2.676  1.9031  3.7037  1.8048
  552MOL0     H74515   6.138   0.762   2.786 -0.0215 -2.5013  2.6725
  552MOL0     H74516   5.827   0.515   2.595 -0.4514  2.8297 -2.1659
  552MOL0     H74517   6.299   1.182   2.302 -0.6187 -0.0290 -0.8523
  552MOL0     H74518   6.483   1.362   2.047  0.0611  0.7702  0.3100
  552MOL0     H74519   6.319   1.297   2.029  0.1287  0.9997  0.9405
  552MOL0     H74520   6.365   1.378   2.176 -2.0219  0.9242 -0.8726
  553MOL0     O74521   4.591   7.943   3.598 -0.5130 -0.5457  0.7068
  553MOL0     C74522   4.626   8.059   3.629 -2.0353 -0.1956  0.1063
  553MOL0     O74523   4.726   8.090   3.719 -0.4630 -0.2150  0.1878
  553MOL0     C74524   4.792   7.996   3.794 -0.0825  1.0676 -0.1642
  553MOL0     C74525   4.927   8.026   3.813 -0.2974  0.3951  0.4533
  553MOL0     C74526   5.002   7.937   3.894  0.0773  0.5133  0.4331
  553MOL0     C74527   4.948   7.817   3.939 -0.5201 -0.1391 -0.4158
  553MOL0     O74528   5.024   7.717   4.001  0.0129 -0.3191  0.0394
  553MOL0     C74529   5.152   7.744   4.050 -0.3687  0.2927  0.9864
  553MOL0     C74530   5.162   7.843   4.171 -0.3569  0.5031  0.1528
  553MOL0     C74531   5.311   7.876   4.207 -0.3040 -0.1811 -0.5780
  553MOL0     C74532   5.371   7.967   4.098 -0.3792 -0.2989 -0.3354
  553MOL0     C74533   5.493   8.065   4.152  0.2504 -0.0760  0.2391
  553MOL0     C74534   5.602   7.989   4.228  0.0360  0.2082 -0.0796
  553MOL0     C74535   5.718   8.076   4.255 -0.0538 -0.0904  0.8588
  553MOL0     C74536   5.721   8.132   4.402 -0.4247 -1.2659  0.2012
  553MOL0     N74537   5.827   8.225   4.426 -0.4141  0.8564 -0.0145
  553MOL0     C74538   5.926   8.259   4.334  0.3861  0.4015  0.1793
  553MOL0     C74539   6.002   8.352   4.399 -0.6162  0.3968 -0.0057
  553MOL0     C74540   6.108   8.436   4.338 -0.3062 -0.0146 -0.2825
  553MOL0     C74541   6.198   8.369   4.238  0.0199 -0.5603 -0.5146
  553MOL0     C74542   6.306   8.469   4.180 -0.4171  0.2425  1.1405
  553MOL0     C74543   6.403   8.400   4.086 -0.3669  0.1280  0.8317
  553MOL0     O74544   6.476   8.495   4.007 -0.3174 -0.6340 -0.0863
  553MOL0     C74545   6.592   8.549   4.059 -0.2874  0.5000  0.1391
  553MOL0     C74546   6.687   8.479   4.136 -1.3922  0.2055 -0.1001
  553MOL0     C74547   6.806   8.551   4.173  0.1491 -0.2616 -0.2268
  553MOL0     C74548   6.824   8.683   4.127 -0.5509 -0.2388 -0.2471
  553MOL0     C74549   6.948   8.754   4.169  0.0483 -0.2403  0.9314
  553MOL0     O74550   6.945   8.892   4.169  0.5030 -0.0875  0.3185
  553MOL0     C74551   7.058   8.963   4.189  0.1053 -0.1647  0.3145
  553MOL0     C74552   7.050   9.096   4.150  0.1674 -0.3627  0.7758
  553MOL0     C74553   7.150   9.191   4.172 -0.5772 -0.2850 -0.5913
  553MOL0     C74554   7.251   9.160   4.258  0.3296 -0.8494 -0.2749
  553MOL0     O74555   7.326   9.271   4.290 -0.0704 -0.0791 -0.0351
  553MOL0     C74556   7.399   9.277   4.408 -0.0891  0.1880 -0.8497
  553MOL0     C74557   7.432   9.433   4.432 -0.2094 -0.0746 -0.6333
  553MOL0     C74558   7.515   9.501   4.319 -0.5403  0.4322 -0.5223
  553MOL0     C74559   7.565   9.649   4.348  0.3559  0.0623 -0.0143
  553MOL0     C74560   7.653   9.719   4.243 -0.1645  0.3147 -0.2773
  553MOL0     C74561   7.665   9.869   4.275 -0.3771 -0.0073  1.4332
  553MOL0     C74562   7.725   9.944   4.158  0.2476  0.5711 -0.0450
  553MOL0     C74563   7.701  10.093   4.176  0.0529  0.8594  1.5420
  553MOL0    Cl74564   7.833  10.187   4.103 -0.4507 -0.1056  0.1861
  553MOL0     C74565   7.244   9.033   4.325 -0.5627 -0.1786 -0.5565
  553MOL0     C74566   7.158   8.930   4.278 -0.1396  0.4079  0.2432
  553MOL0     O74567   7.050   8.680   4.183  0.8322  0.2548 -0.4043
  553MOL0     C74568   6.746   8.739   4.034  0.1327  0.0338  0.8006
  553MOL0     C74569   6.621   8.675   4.010  0.2808 -0.2178 -0.0771
  553MOL0     N74570   5.952   8.369   4.528 -0.8713 -0.3699 -0.1358
  553MOL0     N74571   5.845   8.290   4.540  0.3108 -0.4979  0.1221
  553MOL0     C74572   4.816   7.793   3.923 -0.2921 -0.0989  0.3914
  553MOL0     C74573   4.730   7.882   3.851 -0.0256  0.8182 -0.3924
  553MOL0     C74574   4.576   8.170   3.546  0.4649 -0.6062  0.5839
  553MOL0     C74575   4.573   8.292   3.605  1.5544  0.1255  0.1010
  553MOL0     C74576   4.517   8.404   3.542 -0.5839 -0.3801 -0.9481
  553MOL0     C74577   4.470   8.397   3.412  0.5593  1.2195  0.0811
  553MOL0     O74578   4.428   8.515   3.347  0.4593 -0.4804  0.9572
  553MOL0     C74579   4.365   8.611   3.434  0.3907 -0.4787 -0.3619
  553MOL0     C74580   4.249   8.661   3.354 -0.9358  0.5229 -0.0191
  553MOL0     C74581   4.302   8.721   3.226  0.1042 -0.6709 -0.5699
  553MOL0     C74582   4.392   8.853   3.241 -0.2108  0.6451 -0.0963
  553MOL0     C74583   4.370   8.937   3.128 -0.3762  0.1039  0.6732
  553MOL0     C74584   4.326   9.002   3.040 -0.4538 -0.8539 -0.9675
  553MOL0     C74585   4.470   8.268   3.351 -0.2746  0.1933  0.2254
  553MOL0     C74586   4.528   8.159   3.412 -0.1553 -0.1930  0.0208
  553MOL0     C74587   4.522   8.025   3.341 -0.3379 -0.6626  0.2463
  553MOL0     H74588   4.985   8.104   3.764 -0.3971 -0.2843 -0.7864
  553MOL0     H74589   5.109   7.949   3.908  0.5755  0.9671 -2.9299
  553MOL0     H74590   5.200   7.652   4.086  0.1940  0.0746 -0.2927
  553MOL0     H74591   5.212   7.773   3.964 -0.1686  0.2556  1.1116
  553MOL0     H74592   5.121   7.787   4.255  2.5474 -1.3319  0.5094
  553MOL0     H74593   5.104   7.934   4.156 -3.0144 -1.4042 -2.2835
  553MOL0     H74594   5.365   7.783   4.226 -1.9281 -0.9583  0.4261
  553MOL0     H74595   5.321   7.930   4.302  0.5039  0.2081 -0.8749
  553MOL0     H74596   5.408   7.906   4.015  0.8787  0.9327 -0.7231
  553MOL0     H74597   5.301   8.046   4.066  1.5693  0.8969 -1.9071
  553MOL0     H74598   5.537   8.111   4.063 -0.6713 -2.0559 -1.3272
  553MOL0     H74599   5.447   8.138   4.219  1.5945 -0.2967  1.4431
  553MOL0     H74600   5.565   7.938   4.318  2.4732 -1.3264  0.1334
  553MOL0     H74601   5.624   7.900   4.168 -0.7858 -0.1969  0.2023
  553MOL0     H74602   5.700   8.173   4.208 -1.7269  0.2400  2.1152
  553MOL0     H74603   5.811   8.026   4.228  1.6220  3.8394 -1.5704
  553MOL0     H74604   5.637   8.196   4.429  1.2938  0.3664  1.9885
  553MOL0     H74605   5.719   8.053   4.478  0.2139  0.1768  1.7785
  553MOL0     H74606   5.948   8.228   4.233  2.7673 -1.5639  1.2052
  553MOL0     H74607   6.046   8.509   4.284  0.4158  0.4726 -0.4693
  553MOL0     H74608   6.161   8.485   4.420 -3.6992  4.6056 -0.4556
  553MOL0     H74609   6.243   8.290   4.300 -0.1389 -0.8996 -0.8281
  553MOL0     H74610   6.132   8.330   4.161  0.8606  1.0227 -2.0922
  553MOL0     H74611   6.360   8.513   4.264  0.9450 -1.8089  1.4053
  553MOL0     H74612   6.252   8.547   4.126 -0.5642 -1.3112 -1.0655
  553MOL0     H74613   6.353   8.334   4.014  3.1177  0.9312 -2.6534
  553MOL0     H74614   6.468   8.336   4.147  2.7927  2.1256 -0.1940
  553MOL0     H74615   6.689   8.381   4.183  5.3242  0.2354  0.6209
  553MOL0     H74616   6.877   8.505   4.241  2.0374  1.4521 -0.9578
  553MOL0     H74617   6.977   9.128   4.075 -0.5243 -0.9670  1.1828
  553MOL0     H74618   7.156   9.292   4.133  2.8342 -0.8793 -1.9917
  553MOL0     H74619   7.339   9.239   4.492  0.6751  0.4077 -0.1987
  553MOL0     H74620   7.491   9.218   4.401 -2.9259 -4.6851 -3.0121
  553MOL0     H74621   7.335   9.482   4.441 -0.0557 -0.0191  0.9833
  553MOL0     H74622   7.476   9.443   4.532 -2.9858 -1.4484  0.8686
  553MOL0     H74623   7.608   9.451   4.291 -1.5054  0.0274 -3.2527
  553MOL0     H74624   7.455   9.493   4.228  0.1861  3.7072 -1.4094
  553MOL0     H74625   7.627   9.645   4.437 -0.5375 -2.4981  0.5627
  553MOL0     H74626   7.475   9.706   4.374 -2.2107 -3.4508 -0.5438
  553MOL0     H74627   7.611   9.708   4.142 -0.7881  1.4232 -0.1505
  553MOL0     H74628   7.754   9.677   4.248 -0.3323  0.0777  2.3246
  553MOL0     H74629   7.571   9.912   4.309  0.5232  1.2028  2.4814
  553MOL0     H74630   7.735   9.885   4.357  0.4070 -0.3581  0.8558
  553MOL0     H74631   7.685   9.902   4.066  0.5110 -4.0667  1.6819
  553MOL0     H74632   7.834   9.932   4.156  0.1237 -1.0532  0.9426
  553MOL0     H74633   7.604  10.114   4.129  0.7835 -2.3630 -1.8697
  553MOL0     H74634   7.696  10.116   4.283 -4.5089  3.6775  0.9824
  553MOL0     H74635   7.307   9.010   4.411 -0.2634 -1.4166 -1.0906
  553MOL0     H74636   7.152   8.831   4.320 -2.7807  0.2883 -0.2671
  553MOL0     H74637   6.769   8.836   3.991  0.2119 -0.1252  0.4873
  553MOL0     H74638   6.542   8.730   3.959 -0.0124 -0.7314 -0.1852
  553MOL0     H74639   4.773   7.705   3.970 -0.5893  1.0416  2.3982
  553MOL0     H74640   4.626   7.854   3.839 -0.1336 -1.1640  3.4756
  553MOL0     H74641   4.627   8.321   3.695 -0.1559  1.3342  0.7863
  553MOL0     H74642   4.537   8.499   3.591 -4.9069 -0.9232  2.5414
  553MOL0     H74643   4.425   8.696   3.468  3.0449 -3.3715  2.8254
  553MOL0     H74644   4.323   8.564   3.524  2.4888 -1.4972  0.1448
  553MOL0     H74645   4.178   8.729   3.402  0.6761  0.4006  2.7327
  553MOL0     H74646   4.180   8.576   3.344  0.0105 -0.3805  0.9176
  553MOL0     H74647   4.209   8.749   3.176 -0.0461 -2.6391 -1.4718
  553MOL0     H74648   4.356   8.654   3.159 -1.8115 -1.7936 -1.0752
  553MOL0     H74649   4.370   8.915   3.329  1.8622  2.6160 -0.8778
  553MOL0     H74650   4.496   8.821   3.259 -0.2620 -1.6355 -3.0746
  553MOL0     H74651   4.287   9.067   2.964 -2.1179 -1.1479 -0.4089
  553MOL0     H74652   4.431   8.251   3.251  1.5332 -1.5319 -0.2490
  553MOL0     H74653   4.618   7.973   3.343 -1.0871 -2.4741 -3.2140
  553MOL0     H74654   4.451   7.966   3.400 -0.9737  0.7899  0.9953
  553MOL0     H74655   4.495   8.026   3.235 -4.8028  0.7361  1.1868
  554MOL0     O74656   7.680   0.825  10.205 -0.9147  0.5374  0.5007
  554MOL0     C74657   7.743   0.880  10.112  0.2702  0.0982  0.1320
  554MOL0     O74658   7.689   0.987  10.049 -0.4168  0.5026 -0.0670
  554MOL0     C74659   7.567   1.032  10.086  0.3511 -0.0572  0.4548
  554MOL0     C74660   7.564   1.168  10.093  0.0960 -0.2050 -0.1625
  554MOL0     C74661   7.446   1.232  10.148 -0.0847 -0.3302  0.0444
  554MOL0     C74662   7.342   1.156  10.192 -0.3714  0.5997 -0.2197
  554MOL0     O74663   7.222   1.205  10.256 -0.2107 -0.3268  0.6177
  554MOL0     C74664   7.131   1.268  10.160  0.4463  0.0671  0.8638
  554MOL0     C74665   7.033   1.366  10.234  0.3842  0.4950 -1.2163
  554MOL0     C74666   6.928   1.427  10.141 -0.9439  0.0170 -0.5827
  554MOL0     C74667   6.792   1.467  10.200  0.2705  0.6241 -0.4232
  554MOL0     C74668   6.703   1.521  10.088  0.3185 -0.6580  0.6480
  554MOL0     C74669   6.554   1.526  10.125  0.2792 -0.2040  0.2783
  554MOL0     C74670   6.526   1.577  10.274 -0.0614 -0.7046  0.8914
  554MOL0     C74671   6.585   1.723  10.297  0.8064 -1.4079  1.1165
  554MOL0     N74672   6.605   1.756  10.427  0.5651  0.5619 -0.0409
  554MOL0     C74673   6.700   1.710  10.511  0.3646  0.0339 -0.4306
  554MOL0     C74674   6.682   1.782  10.621  0.0856  1.0677 -1.2298
  554MOL0     C74675   6.771   1.779  10.747 -0.8087  0.0490  0.7507
  554MOL0     C74676   6.696   1.753  10.879  0.6473  1.0755 -0.9538
  554MOL0     C74677   6.692   1.603  10.916 -0.2386  0.0433  0.0528
  554MOL0     C74678   6.593   1.529  10.829 -0.4261  0.3217 -0.1318
  554MOL0     O74679   6.473   1.601  10.854 -0.1899  0.4019 -0.2488
  554MOL0     C74680   6.368   1.580  10.769 -0.3350 -0.5667  0.4319
  554MOL0     C74681   6.367   1.515  10.651  0.2311  0.3455  0.5086
  554MOL0     C74682   6.260   1.529  10.564  0.7532  0.3533  0.0597
  554MOL0     C74683   6.143   1.601  10.600  0.1587  0.4477  0.6530
  554MOL0     C74684   6.038   1.607  10.497  0.4016 -0.9413 -0.5586
  554MOL0     O74685   5.975   1.727  10.491 -0.9379  0.1709 -0.1015
  554MOL0     C74686   5.867   1.738  10.395 -0.3174 -0.3452 -0.7914
  554MOL0     C74687   5.883   1.706  10.260 -0.4601  0.0812  0.5003
  554MOL0     C74688   5.776   1.741  10.171 -0.1512  0.1365  0.0203
  554MOL0     C74689   5.650   1.790  10.216 -0.6013 -0.2108  0.7752
  554MOL0     O74690   5.544   1.806  10.134  0.0212  0.3506 -0.3646
  554MOL0     C74691   5.563   1.899  10.029  1.0235  1.2824 -0.3439
  554MOL0     C74692   5.441   1.883   9.929 -0.4317  0.3103 -0.2579
  554MOL0     C74693   5.456   1.754   9.852 -1.1713 -0.1815 -0.5785
  554MOL0     C74694   5.342   1.735   9.749 -1.0253 -0.4081 -0.4154
  554MOL0     C74695   5.387   1.784   9.608  0.3250 -0.1682  0.1833
  554MOL0     C74696   5.279   1.799   9.494  0.6342 -0.6758 -0.0291
  554MOL0     C74697   5.232   1.655   9.462 -0.0561 -0.1448  0.1397
  554MOL0     C74698   5.115   1.662   9.370  0.8550  0.6817 -0.9474
  554MOL0    Cl74699   5.058   1.490   9.369 -0.1698  0.3779  0.0426
  554MOL0     C74700   5.642   1.805  10.349  0.7846  0.0814  0.5634
  554MOL0     C74701   5.748   1.784  10.435 -0.4795 -0.0767  0.5829
  554MOL0     O74702   6.017   1.509  10.429  0.9261  0.3553 -0.4692
  554MOL0     C74703   6.149   1.675  10.717  0.2427 -0.1578  0.2894
  554MOL0     C74704   6.253   1.658  10.802  0.4095  0.9975  0.1832
  554MOL0     N74705   6.587   1.872  10.599 -0.0049  0.3368  0.8540
  554MOL0     N74706   6.528   1.846  10.485 -0.0915  0.3054 -0.3955
  554MOL0     C74707   7.342   1.021  10.156  0.4490 -0.6327 -0.3278
  554MOL0     C74708   7.454   0.954  10.109  0.3750 -0.5756 -0.8542
  554MOL0     C74709   7.876   0.825  10.061  0.6851  0.3477  0.4233
  554MOL0     C74710   7.933   0.899   9.954 -0.1570 -0.2889 -0.1646
  554MOL0     C74711   8.056   0.852   9.901 -0.1182  0.0662  0.4141
  554MOL0     C74712   8.124   0.753   9.968  0.0636 -1.0320  0.5604
  554MOL0     O74713   8.252   0.714   9.934 -0.4575  0.1456  0.2861
  554MOL0     C74714   8.326   0.804   9.854  0.5657 -0.0680 -0.3741
  554MOL0     C74715   8.467   0.746   9.852 -0.7806  0.1699  0.5887
  554MOL0     C74716   8.521   0.746   9.997  0.3984  0.1472 -0.0009
  554MOL0     C74717   8.515   0.879  10.070 -0.3922  0.6834 -0.5294
  554MOL0     C74718   8.618   0.887  10.177 -0.4694 -0.2144 -0.0590
  554MOL0     C74719   8.707   0.870  10.248 -0.1406 -0.0433  0.1698
  554MOL0     C74720   8.067   0.677  10.064  0.0796 -0.3565 -0.2390
  554MOL0     C74721   7.940   0.705  10.114 -0.4142  0.1611 -1.0126
  554MOL0     C74722   7.872   0.615  10.215  0.4940 -0.4240  0.3141
  554MOL0     H74723   7.645   1.234  10.063  1.0940 -0.0151  2.6452
  554MOL0     H74724   7.451   1.340  10.159  1.8999 -0.1556 -1.8047
  554MOL0     H74725   7.183   1.328  10.085 -2.2364  1.5194  0.0179
  554MOL0     H74726   7.090   1.186  10.101 -1.5805  3.0727 -2.2557
  554MOL0     H74727   7.096   1.443  10.278  0.0542 -0.1221  0.4265
  554MOL0     H74728   6.981   1.308  10.311  0.8854 -0.9870 -1.9582
  554MOL0     H74729   6.915   1.365  10.051  1.0848  1.3502 -1.8896
  554MOL0     H74730   6.974   1.516  10.097  0.8191 -0.4607  0.2008
  554MOL0     H74731   6.749   1.378  10.246 -2.0182  1.8091 -0.1322
  554MOL0     H74732   6.807   1.561  10.255  0.5635  1.3004 -1.6130
  554MOL0     H74733   6.730   1.619  10.047 -1.9312 -0.1424  0.2637
  554MOL0     H74734   6.728   1.462  10.000  1.0865 -0.1380  0.5006
  554MOL0     H74735   6.503   1.590  10.052 -2.5171 -1.4129  1.0444
  554MOL0     H74736   6.523   1.423  10.105 -0.6795  0.0662  0.3248
  554MOL0     H74737   6.569   1.511  10.349  4.2175  0.3486 -0.3467
  554MOL0     H74738   6.418   1.585  10.289 -1.0506 -1.9835 -3.8547
  554MOL0     H74739   6.671   1.745  10.232 -2.6594  1.9806 -2.9001
  554MOL0     H74740   6.508   1.791  10.259  1.3265 -0.0327  2.3831
  554MOL0     H74741   6.779   1.636  10.504  1.1859  0.9832 -1.4769
  554MOL0     H74742   6.855   1.710  10.735 -1.7096 -0.9062 -0.3149
  554MOL0     H74743   6.809   1.881  10.741 -2.1788  0.6263  1.2577
  554MOL0     H74744   6.754   1.803  10.957  0.4800  1.4005 -1.0376
  554MOL0     H74745   6.599   1.802  10.888  0.2864  0.6698 -2.4137
  554MOL0     H74746   6.664   1.579  11.019 -0.5913 -1.4217 -0.3567
  554MOL0     H74747   6.792   1.566  10.892 -0.3717  0.2949 -0.9473
  554MOL0     H74748   6.580   1.431  10.875  1.2910  1.5411  3.2521
  554MOL0     H74749   6.633   1.533  10.727 -1.2998  0.5717 -0.4807
  554MOL0     H74750   6.456   1.457  10.627 -0.6202 -1.3665  1.3105
  554MOL0     H74751   6.263   1.486  10.465  0.5231  0.0691  0.1751
  554MOL0     H74752   5.974   1.664  10.220 -0.7702 -3.5148  3.0190
  554MOL0     H74753   5.788   1.723  10.065 -0.1913  2.3233 -0.4003
  554MOL0     H74754   5.569   2.001  10.070  1.4098  0.9221  0.5328
  554MOL0     H74755   5.658   1.883   9.976  1.8535 -1.3502  1.6887
  554MOL0     H74756   5.356   1.879   9.998 -2.2068  1.6899 -2.2339
  554MOL0     H74757   5.433   1.972   9.865  0.8227  1.7337  1.4432
  554MOL0     H74758   5.550   1.759   9.796 -1.6648  1.2828 -1.3101
  554MOL0     H74759   5.446   1.661   9.909 -0.0274  1.2429  2.1218
  554MOL0     H74760   5.251   1.782   9.785  0.2219  3.6769 -2.0307
  554MOL0     H74761   5.320   1.628   9.745  2.9231 -1.3755 -0.5527
  554MOL0     H74762   5.474   1.732   9.568  1.3892  1.0882  0.7926
  554MOL0     H74763   5.417   1.885   9.637 -0.3509 -0.7116  3.1629
  554MOL0     H74764   5.197   1.854   9.540  0.5022 -1.8342  1.1914
  554MOL0     H74765   5.319   1.848   9.405 -3.1739 -0.7929 -2.0253
  554MOL0     H74766   5.200   1.594   9.547 -2.6022  1.0018  0.1253
  554MOL0     H74767   5.313   1.607   9.407 -1.2010 -0.4037 -1.3892
  554MOL0     H74768   5.042   1.725   9.420  1.9619  0.4888  1.0285
  554MOL0     H74769   5.136   1.688   9.266  0.8736  0.0296 -1.1108
  554MOL0     H74770   5.556   1.841  10.406  1.1274  0.7114  0.6960
  554MOL0     H74771   5.734   1.824  10.535 -0.1632 -0.5506  0.8211
  554MOL0     H74772   6.077   1.752  10.743  2.4699  1.4906  2.0670
  554MOL0     H74773   6.248   1.698  10.902 -1.7523 -1.8108  1.3230
  554MOL0     H74774   7.254   0.960  10.174 -0.8896  0.3938 -2.9110
  554MOL0     H74775   7.460   0.846  10.100 -2.6535 -0.7385 -1.8866
  554MOL0     H74776   7.878   0.977   9.902  0.1295  0.7212  1.0092
  554MOL0     H74777   8.104   0.895   9.813  2.3514 -1.3456  0.9637
  554MOL0     H74778   8.329   0.903   9.900 -0.8998  0.2588 -0.9491
  554MOL0     H74779   8.291   0.805   9.750 -0.3253  0.9412 -0.0791
  554MOL0     H74780   8.527   0.809   9.787 -1.2039  0.7513  0.7567
  554MOL0     H74781   8.468   0.645   9.809 -0.6951  0.6561 -0.5585
  554MOL0     H74782   8.621   0.702  10.000  0.4219  0.2361  0.6497
  554MOL0     H74783   8.456   0.682  10.056 -2.3640  1.6307 -1.2129
  554MOL0     H74784   8.536   0.966  10.007 -2.6996  0.7131 -1.3426
  554MOL0     H74785   8.411   0.900  10.098 -1.4088 -1.2324 -2.5895
  554MOL0     H74786   8.787   0.862  10.319  0.2760 -0.6588 -0.3578
  554MOL0     H74787   8.142   0.603  10.090  2.3131  0.9591 -2.5034
  554MOL0     H74788   7.933   0.527  10.239  0.3314 -0.5267  0.3527
  554MOL0     H74789   7.867   0.661  10.315  2.4689 -2.6985  1.5889
  554MOL0     H74790   7.777   0.583  10.173 -0.9682  0.3681  2.7676
  555MOL0     O74791  11.147  11.158   8.547 -0.0523 -0.5817  1.0915
  555MOL0     C74792  11.081  11.191   8.644 -0.0778 -0.5917  0.1359
  555MOL0     O74793  11.118  11.199   8.779  0.2177 -0.1435 -0.0586
  555MOL0     C74794  11.252  11.192   8.801  0.3634  0.7559 -0.8481
  555MOL0     C74795  11.334  11.287   8.744  0.0923  0.5862  0.8521
  555MOL0     C74796  11.475  11.272   8.752  0.6798  0.4166 -0.5400
  555MOL0     C74797  11.526  11.162   8.835  0.5090 -0.4208  0.2145
  555MOL0     O74798  11.657  11.153   8.866  0.3114  0.0978 -0.8142
  555MOL0     C74799  11.740  11.075   8.772 -0.1622  0.9485  0.1116
  555MOL0     C74800  11.755  10.927   8.818 -0.3972 -0.1206  0.0266
  555MOL0     C74801  11.836  10.914   8.958  0.0353  0.5527  0.4636
  555MOL0     C74802  11.795  10.994   9.077 -0.0771 -0.6578  0.3709
  555MOL0     C74803  11.864  10.963   9.215  0.0322  0.9292  0.3573
  555MOL0     C74804  11.931  11.089   9.282 -0.1293 -0.3850  0.4259
  555MOL0     C74805  12.066  11.121   9.211  0.6303  0.0158 -1.0814
  555MOL0     C74806  12.185  11.030   9.261 -0.0494 -1.1806  0.4603
  555MOL0     N74807  12.289  11.043   9.159  0.0771  0.6683 -0.0245
  555MOL0     C74808  12.378  11.146   9.160  0.0654 -0.3890  0.0797
  555MOL0     C74809  12.474  11.105   9.072  0.5271 -0.0023 -0.0156
  555MOL0     C74810  12.592  11.180   9.034  0.4775 -0.7444  0.0210
  555MOL0     C74811  12.681  11.207   9.161 -0.7406 -0.1356  0.2633
  555MOL0     C74812  12.793  11.309   9.136  1.6506  0.5000 -1.0455
  555MOL0     C74813  12.754  11.451   9.097 -0.0082 -0.4399 -0.0975
  555MOL0     O74814  12.735  11.456   8.950  0.4428  0.2644 -0.1867
  555MOL0     C74815  12.677  11.569   8.896  0.3512  0.2815 -0.3834
  555MOL0     C74816  12.664  11.686   8.975  0.7954 -0.0344 -0.0840
  555MOL0     C74817  12.602  11.791   8.912 -1.1135  0.0252 -1.1878
  555MOL0     C74818  12.540  11.787   8.786  0.4494  0.0812  0.1980
  555MOL0     C74819  12.468  11.901   8.729 -0.4237 -0.5042  0.5452
  555MOL0     O74820  12.392  11.886   8.614 -0.2486  0.4726 -0.2947
  555MOL0     C74821  12.325  11.994   8.556 -0.1502  0.0104 -0.6647
  555MOL0     C74822  12.204  12.047   8.614 -0.5461  0.4872 -0.8733
  555MOL0     C74823  12.140  12.147   8.539 -0.6133 -0.4255  0.0401
  555MOL0     C74824  12.205  12.201   8.431  0.5097  0.6336  0.2744
  555MOL0     O74825  12.147  12.299   8.354 -0.5066  0.1685  0.6318
  555MOL0     C74826  12.068  12.395   8.424 -0.3992 -0.4255 -0.4034
  555MOL0     C74827  12.049  12.520   8.328  1.4827  0.2351 -1.0540
  555MOL0     C74828  11.987  12.479   8.191 -0.1912  0.5008 -0.1898
  555MOL0     C74829  11.908  12.605   8.149  0.2225 -0.3359 -0.3420
  555MOL0     C74830  11.846  12.590   8.015  0.1078  0.2232  0.4716
  555MOL0     C74831  11.768  12.717   7.989  0.3273 -1.5686  0.7000
  555MOL0     C74832  11.720  12.717   7.849  0.4125 -0.2176  0.1525
  555MOL0     C74833  11.638  12.846   7.833  0.1929  0.4861  0.4967
  555MOL0    Cl74834  11.534  12.845   7.700 -0.1439 -0.1355 -0.1264
  555MOL0     C74835  12.330  12.159   8.392 -0.1777 -1.5379  1.3376
  555MOL0     C74836  12.388  12.045   8.446  0.1963 -0.5344 -0.5958
  555MOL0     O74837  12.468  12.003   8.800 -0.1784 -0.5895  0.6365
  555MOL0     C74838  12.562  11.672   8.713  0.2489  1.8340 -0.0418
  555MOL0     C74839  12.624  11.565   8.770  0.0472  0.5013  0.3629
  555MOL0     N74840  12.437  10.986   9.007 -0.6605 -0.0109  0.3954
  555MOL0     N74841  12.329  10.948   9.069 -0.2432  0.2648 -0.6526
  555MOL0     C74842  11.438  11.072   8.896 -0.0487  0.4139  0.1159
  555MOL0     C74843  11.304  11.084   8.873 -0.4209  0.6043 -0.7072
  555MOL0     C74844  10.944  11.230   8.610  0.2261 -0.1509  0.3502
  555MOL0     C74845  10.917  11.341   8.529 -0.3531  0.3016 -1.1156
  555MOL0     C74846  10.795  11.393   8.510 -0.1836 -0.4087  0.1346
  555MOL0     C74847  10.687  11.337   8.579 -0.2953 -0.0161  0.7206
  555MOL0     O74848  10.558  11.372   8.570 -0.0663 -0.3004  0.3944
  555MOL0     C74849  10.501  11.464   8.474 -0.1953  0.3702  0.0228
  555MOL0     C74850  10.397  11.382   8.382 -0.3710 -0.2173 -0.9113
  555MOL0     C74851  10.255  11.374   8.446 -0.1410  0.0199 -0.7657
  555MOL0     C74852  10.243  11.293   8.581  0.5128  0.8994 -0.6071
  555MOL0     C74853  10.226  11.152   8.545  0.8761 -0.5631 -0.1155
  555MOL0     C74854  10.233  11.035   8.530  0.2824 -0.1958  0.3648
  555MOL0     C74855  10.710  11.214   8.642  0.2228  0.5250 -0.3206
  555MOL0     C74856  10.838  11.163   8.666  0.6647  0.7633  0.8704
  555MOL0     C74857  10.846  11.036   8.747  0.9289 -0.6597 -0.4076
  555MOL0     H74858  11.282  11.367   8.692 -0.6136 -0.3766  0.0510
  555MOL0     H74859  11.539  11.346   8.706  2.3290  1.2809  2.8407
  555MOL0     H74860  11.702  11.081   8.669  0.0171  0.1710 -0.0055
  555MOL0     H74861  11.838  11.123   8.781  0.6972 -1.0334  2.2995
  555MOL0     H74862  11.808  10.866   8.745 -3.5353 -2.9875 -0.1064
  555MOL0     H74863  11.654  10.883   8.820 -0.9513  1.0906 -0.3121
  555MOL0     H74864  11.940  10.944   8.944 -0.4651  2.5220  0.7388
  555MOL0     H74865  11.838  10.810   8.993  1.0867  0.1246 -0.7628
  555MOL0     H74866  11.815  11.100   9.057  0.7898 -0.0965  3.6344
  555MOL0     H74867  11.686  10.997   9.089  0.0818  0.4395  1.7688
  555MOL0     H74868  11.796  10.912   9.285  1.9980  3.0379  4.0615
  555MOL0     H74869  11.938  10.885   9.195 -0.7025  0.1594  0.5553
  555MOL0     H74870  11.846  11.159   9.279 -0.1647 -0.4098  0.8081
  555MOL0     H74871  11.958  11.076   9.387 -0.8005 -0.8428  0.5489
  555MOL0     H74872  12.091  11.225   9.233 -1.9060  0.4190  0.2828
  555MOL0     H74873  12.062  11.115   9.102  0.9829  0.6955 -1.1389
  555MOL0     H74874  12.219  11.064   9.359  3.0250 -0.3249 -0.7940
  555MOL0     H74875  12.156  10.924   9.258 -0.1315 -1.2011  1.4855
  555MOL0     H74876  12.378  11.222   9.238  0.9827 -3.0360  2.8798
  555MOL0     H74877  12.643  11.127   8.952 -2.8979  0.3374 -3.0154
  555MOL0     H74878  12.547  11.272   8.997  1.7292 -0.5050 -1.0004
  555MOL0     H74879  12.617  11.260   9.233  2.0146  3.8622  0.0935
  555MOL0     H74880  12.726  11.116   9.202  3.7682  2.4441  1.7600
  555MOL0     H74881  12.866  11.269   9.066  1.2933 -2.9140  0.3363
  555MOL0     H74882  12.830  11.315   9.238 -3.2718  1.3778  0.9855
  555MOL0     H74883  12.842  11.512   9.121  1.7303 -1.8269 -2.4565
  555MOL0     H74884  12.666  11.484   9.153 -1.0606 -3.2668  0.0825
  555MOL0     H74885  12.704  11.700   9.075  2.2429 -0.3192 -0.5913
  555MOL0     H74886  12.604  11.887   8.964  2.2619  2.7491 -5.5663
  555MOL0     H74887  12.166  12.012   8.710 -1.5055  3.1204 -0.2344
  555MOL0     H74888  12.039  12.182   8.560  0.2336  1.2732  1.5742
  555MOL0     H74889  11.972  12.344   8.431 -1.3843  1.2858 -0.8396
  555MOL0     H74890  12.122  12.424   8.516  1.7873 -0.1278 -1.6953
  555MOL0     H74891  11.983  12.585   8.386  0.5903 -1.1746 -0.4252
  555MOL0     H74892  12.140  12.578   8.311  0.7707  1.3735 -1.1187
  555MOL0     H74893  12.058  12.449   8.114  0.3371  0.3643  0.3435
  555MOL0     H74894  11.917  12.395   8.201  2.0635 -1.6557 -1.4357
  555MOL0     H74895  11.982  12.685   8.136 -2.7705  3.0684  1.8537
  555MOL0     H74896  11.843  12.646   8.226 -3.8067  0.3091 -3.7139
  555MOL0     H74897  11.781  12.502   8.012  0.1334  0.0445  2.8148
  555MOL0     H74898  11.915  12.568   7.934 -0.9709 -3.9795  0.4493
  555MOL0     H74899  11.687  12.732   8.062  0.0564  0.5985  0.0209
  555MOL0     H74900  11.828  12.806   8.009  1.0999 -2.4644  2.5716
  555MOL0     H74901  11.652  12.632   7.843 -1.5638  1.3159 -0.3135
  555MOL0     H74902  11.797  12.709   7.773  1.1456  2.0533  0.5728
  555MOL0     H74903  11.577  12.854   7.924 -0.4161  1.5232  0.0183
  555MOL0     H74904  11.699  12.935   7.819 -1.5201  1.4775 -1.0476
  555MOL0     H74905  12.365  12.207   8.301 -0.5654 -1.6984  1.1002
  555MOL0     H74906  12.480  12.010   8.399  2.0292  3.7042 -0.6227
  555MOL0     H74907  12.517  11.664   8.614  1.3532  0.7867 -0.4834
  555MOL0     H74908  12.655  11.474   8.719  1.9234  0.5484  1.3229
  555MOL0     H74909  11.473  10.994   8.962 -0.3436  1.5510  1.6883
  555MOL0     H74910  11.224  11.019   8.908  0.7157 -1.6856 -2.1304
  555MOL0     H74911  11.002  11.390   8.483  0.2853 -1.7526 -2.2622
  555MOL0     H74912  10.793  11.486   8.454  3.1560  1.3138  2.5205
  555MOL0     H74913  10.577  11.488   8.398 -1.6760  0.4071 -1.5048
  555MOL0     H74914  10.451  11.549   8.521 -0.0036  0.7359 -0.4215
  555MOL0     H74915  10.440  11.282   8.366 -0.8638 -0.9188  1.6041
  555MOL0     H74916  10.385  11.430   8.285 -2.3590  2.3951  0.5045
  555MOL0     H74917  10.181  11.340   8.374  1.0821  3.3818 -3.9530
  555MOL0     H74918  10.215  11.473   8.470 -1.2639 -1.2277  3.4909
  555MOL0     H74919  10.330  11.310   8.645  0.1365 -0.7661  0.4151
  555MOL0     H74920  10.148  11.322   8.628  1.4823  0.4682  1.7389
  555MOL0     H74921  10.258  10.932   8.540  1.5558  0.2160  1.7189
  555MOL0     H74922  10.622  11.156   8.669  2.0105 -2.4403 -0.4974
  555MOL0     H74923  10.882  11.065   8.846  0.1168  2.1752 -0.8349
  555MOL0     H74924  10.748  10.989   8.760  0.9973 -0.5063  0.7500
  555MOL0     H74925  10.915  10.964   8.702  0.0236 -0.9402 -1.3947
  556MOL0     O74926   4.020   7.739   3.414  0.5023 -0.2925  0.4303
  556MOL0     C74927   4.129   7.778   3.458 -0.0779  0.6573 -0.0833
  556MOL0     O74928   4.196   7.895   3.435  0.5759 -0.6793 -0.2396
  556MOL0     C74929   4.136   7.984   3.344 -0.9848 -0.1068  0.7150
  556MOL0     C74930   4.086   7.939   3.219  0.2958 -0.8033 -0.2458
  556MOL0     C74931   4.029   8.028   3.131 -0.2253 -0.0677 -0.2254
  556MOL0     C74932   4.026   8.169   3.161  0.2926  0.5528  0.4983
  556MOL0     O74933   3.994   8.259   3.067 -0.4153 -0.2993 -0.0686
  556MOL0     C74934   3.864   8.245   3.002 -1.0972  0.4583 -0.6624
  556MOL0     C74935   3.813   8.384   2.975 -0.4105 -0.5084 -0.1953
  556MOL0     C74936   3.675   8.376   2.902  0.8156  0.9655  0.4826
  556MOL0     C74937   3.656   8.507   2.837  0.3432 -0.9625 -0.3367
  556MOL0     C74938   3.530   8.493   2.746  0.2770  0.0076  0.1414
  556MOL0     C74939   3.469   8.621   2.691 -0.0876  0.3572  0.1094
  556MOL0     C74940   3.573   8.687   2.585  0.6424  0.6713 -1.0715
  556MOL0     C74941   3.511   8.819   2.525 -0.7378 -0.1492  0.0152
  556MOL0     N74942   3.610   8.864   2.427 -0.4581 -0.8209  0.4986
  556MOL0     C74943   3.719   8.938   2.446 -0.7290  0.2334 -0.3704
  556MOL0     C74944   3.773   8.958   2.324  0.6752 -0.4237  0.7587
  556MOL0     C74945   3.901   9.029   2.293  0.3677 -0.9131  0.2594
  556MOL0     C74946   3.992   9.015   2.419  0.0509  0.7921  0.1435
  556MOL0     C74947   4.140   9.042   2.382 -0.6346 -0.9003  0.4220
  556MOL0     C74948   4.174   9.187   2.373 -0.3721 -0.7791 -0.0860
  556MOL0     O74949   4.305   9.194   2.307 -0.7259  0.5382  0.0177
  556MOL0     C74950   4.385   9.309   2.306 -0.1113 -0.2926  0.0536
  556MOL0     C74951   4.509   9.306   2.227  0.2234 -0.1608  0.2744
  556MOL0     C74952   4.583   9.425   2.215 -0.0147  0.3886  0.6998
  556MOL0     C74953   4.541   9.548   2.260  0.6700  0.0603 -0.3137
  556MOL0     C74954   4.610   9.680   2.246  0.2001 -0.2636  0.7516
  556MOL0     O74955   4.738   9.671   2.196  0.7842  0.1864  0.0517
  556MOL0     C74956   4.808   9.793   2.191  0.7446  0.2957 -0.3890
  556MOL0     C74957   4.872   9.830   2.075 -0.5223  0.2476  0.4737
  556MOL0     C74958   4.958   9.948   2.085 -0.2135 -0.2006 -0.7096
  556MOL0     C74959   4.955  10.033   2.195 -1.3473  0.2875 -1.0509
  556MOL0     O74960   5.026  10.157   2.198 -0.6312 -0.0718  0.1900
  556MOL0     C74961   5.056  10.226   2.323  0.2315  0.5552  0.3848
  556MOL0     C74962   4.980  10.360   2.320 -0.2068 -0.8316 -0.0581
  556MOL0     C74963   5.034  10.459   2.213 -0.1266  0.8181 -1.2541
  556MOL0     C74964   5.016  10.401   2.067  0.4026  0.6160 -0.9619
  556MOL0     C74965   5.036  10.504   1.971  0.6143 -0.3913 -0.8570
  556MOL0     C74966   5.003  10.458   1.832 -0.6377  0.1839 -0.0494
  556MOL0     C74967   5.040  10.562   1.726 -0.6787  0.3044 -0.1743
  556MOL0     C74968   4.973  10.538   1.591  0.6131  0.1830 -0.2166
  556MOL0    Cl74969   5.049  10.407   1.499 -0.0443  0.1058 -0.2293
  556MOL0     C74970   4.882   9.981   2.308  0.1034  0.7255  0.0674
  556MOL0     C74971   4.821   9.863   2.305  0.7132 -0.4927  0.1859
  556MOL0     O74972   4.552   9.789   2.278  0.7208  0.6099  0.1132
  556MOL0     C74973   4.421   9.548   2.325  0.0436  0.4935  0.5973
  556MOL0     C74974   4.352   9.434   2.354  1.1456  0.1425  0.3776
  556MOL0     N74975   3.691   8.895   2.230 -0.0993  0.2066  0.0741
  556MOL0     N74976   3.595   8.837   2.296  0.3608 -0.3507 -0.7592
  556MOL0     C74977   4.091   8.207   3.275 -1.1831 -0.3731  0.4153
  556MOL0     C74978   4.143   8.121   3.360 -0.0578  0.6886  0.0430
  556MOL0     C74979   4.201   7.705   3.571 -0.0223  0.5051  0.5035
  556MOL0     C74980   4.336   7.673   3.569 -0.2895  0.5868  0.6876
  556MOL0     C74981   4.398   7.614   3.682 -1.1562  0.7293  0.2426
  556MOL0     C74982   4.326   7.580   3.796  0.8361  1.3404  0.0274
  556MOL0     O74983   4.406   7.533   3.897 -0.6118 -0.5025  0.3592
  556MOL0     C74984   4.355   7.520   4.033 -0.1076  0.7322 -0.1962
  556MOL0     C74985   4.494   7.507   4.105  0.6008 -0.7420  0.0335
  556MOL0     C74986   4.501   7.589   4.236  0.2777  0.4135 -0.3681
  556MOL0     C74987   4.626   7.557   4.321 -0.1169  0.0205  0.5915
  556MOL0     C74988   4.754   7.535   4.242 -0.9816 -0.9923 -0.1913
  556MOL0     C74989   4.868   7.518   4.198  0.6685 -0.7952 -0.0364
  556MOL0     C74990   4.191   7.612   3.806  0.3663  0.1646 -0.1265
  556MOL0     C74991   4.129   7.659   3.689  0.0486 -1.6848 -0.3858
  556MOL0     C74992   3.992   7.710   3.711  0.6603 -0.8949  0.0391
  556MOL0     H74993   4.081   7.831   3.206  1.5174 -0.8305 -0.6146
  556MOL0     H74994   3.985   7.984   3.042  2.8796 -1.6105 -1.1652
  556MOL0     H74995   3.895   8.194   2.910  1.7859 -0.4952  0.7323
  556MOL0     H74996   3.791   8.195   3.066 -0.3220 -0.2426 -0.3142
  556MOL0     H74997   3.889   8.430   2.911 -1.4729 -0.7190 -1.6594
  556MOL0     H74998   3.807   8.448   3.063 -0.3199 -3.4811  2.1668
  556MOL0     H74999   3.584   8.356   2.959  0.0472  1.7769 -0.4200
  556MOL0     H75000   3.687   8.290   2.836  0.9202  0.9766  0.4874
  556MOL0     H75001   3.638   8.585   2.912 -2.0626 -1.5938 -0.1793
  556MOL0     H75002   3.737   8.543   2.773 -0.6969 -1.4930 -1.9887
  556MOL0     H75003   3.561   8.436   2.657  0.6555  2.2000 -1.2094
  556MOL0     H75004   3.453   8.427   2.788 -0.2874 -0.2828 -1.2930
  556MOL0     H75005   3.371   8.598   2.650  0.6398 -0.9262 -0.9934
  556MOL0     H75006   3.460   8.679   2.783  0.5379  0.3115  0.2047
  556MOL0     H75007   3.587   8.619   2.500 -0.0704 -1.2072  0.2396
  556MOL0     H75008   3.664   8.693   2.646 -0.0329  0.2409  0.0065
  556MOL0     H75009   3.417   8.793   2.476 -0.2986 -0.9422 -0.4286
  556MOL0     H75010   3.483   8.896   2.597 -1.9035 -1.8538  1.4912
  556MOL0     H75011   3.759   8.974   2.540 -0.5879  3.1481 -1.4609
  556MOL0     H75012   3.935   8.973   2.205 -1.9311  1.8265 -2.5723
  556MOL0     H75013   3.875   9.132   2.270  0.9902 -0.6927  0.5158
  556MOL0     H75014   3.960   9.068   2.510 -1.2968  2.6308 -1.3186
  556MOL0     H75015   3.994   8.917   2.467  0.0044  1.8909  2.5651
  556MOL0     H75016   4.170   8.988   2.292  1.3081 -1.0573  1.1157
  556MOL0     H75017   4.208   9.015   2.463  1.3268  0.6508 -0.6322
  556MOL0     H75018   4.179   9.225   2.476  3.0801  2.2927 -1.1513
  556MOL0     H75019   4.100   9.237   2.311 -0.3908  1.0413  1.3177
  556MOL0     H75020   4.559   9.216   2.194  0.6214 -0.9159  2.7670
  556MOL0     H75021   4.677   9.426   2.162 -1.0815 -4.1118 -1.8294
  556MOL0     H75022   4.873   9.766   1.987  0.0736  3.9435 -2.4750
  556MOL0     H75023   4.998   9.990   1.994  5.0470 -0.6148  1.0634
  556MOL0     H75024   5.043  10.165   2.414  1.2058  2.4752  1.8934
  556MOL0     H75025   5.161  10.255   2.329 -0.0969  1.6066  1.6151
  556MOL0     H75026   4.873  10.340   2.307 -1.3109  3.5292  0.6291
  556MOL0     H75027   4.983  10.410   2.417  1.0805 -1.2584  0.1454
  556MOL0     H75028   4.991  10.558   2.228  0.2938  0.5561  2.8662
  556MOL0     H75029   5.143  10.456   2.228 -0.1866 -4.5383  0.0436
  556MOL0     H75030   4.916  10.359   2.064  0.1748  1.1023 -0.3066
  556MOL0     H75031   5.081  10.316   2.043  3.0593  2.9316 -2.6746
  556MOL0     H75032   5.140  10.539   1.971  0.7862 -0.6451  1.9038
  556MOL0     H75033   4.964  10.585   1.989 -2.5479 -2.8142 -1.8837
  556MOL0     H75034   5.058  10.366   1.811  0.5267  0.7674  0.3336
  556MOL0     H75035   4.895  10.443   1.823 -1.1890  0.8209  3.8064
  556MOL0     H75036   5.149  10.576   1.723 -0.1585 -2.4994  1.9037
  556MOL0     H75037   5.016  10.663   1.760 -0.1907  0.1462  0.6717
  556MOL0     H75038   4.866  10.526   1.608  0.6089  1.2818  0.6070
  556MOL0     H75039   4.984  10.616   1.515  2.7950  1.5519  1.4037
  556MOL0     H75040   4.881  10.039   2.400  0.2466 -1.5512  1.6044
  556MOL0     H75041   4.775   9.825   2.396  3.6271 -4.6977  0.1890
  556MOL0     H75042   4.376   9.636   2.371 -1.3548  0.1642 -0.0788
  556MOL0     H75043   4.257   9.438   2.408  1.0425  2.0392  0.1106
  556MOL0     H75044   4.096   8.313   3.297 -1.1494 -0.4541  0.8072
  556MOL0     H75045   4.178   8.159   3.455 -0.9428  1.1147  0.2095
  556MOL0     H75046   4.381   7.703   3.476 -3.0797  2.4630 -0.1862
  556MOL0     H75047   4.502   7.590   3.664 -0.9601  2.1544 -0.7601
  556MOL0     H75048   4.303   7.425   4.048 -0.9328  1.1333 -0.4271
  556MOL0     H75049   4.301   7.606   4.073 -0.1115 -0.9688  3.9667
  556MOL0     H75050   4.571   7.549   4.039  0.1848  1.5099  0.8861
  556MOL0     H75051   4.516   7.403   4.131  0.0265 -1.3306 -1.7083
  556MOL0     H75052   4.413   7.544   4.283  1.3690  1.7980  3.3590
  556MOL0     H75053   4.476   7.694   4.221 -1.5884 -0.0542 -0.9235
  556MOL0     H75054   4.625   7.636   4.397 -6.0317 -0.4952  1.5230
  556MOL0     H75055   4.606   7.460   4.367  2.5577 -1.0661 -0.3359
  556MOL0     H75056   4.962   7.486   4.159  0.4775  0.6339 -1.8072
  556MOL0     H75057   4.133   7.610   3.897  0.8533 -1.8039  0.1888
  556MOL0     H75058   3.926   7.677   3.629  1.8668 -0.2819 -1.2128
  556MOL0     H75059   3.943   7.674   3.802 -1.9335 -0.2945 -1.0111
  556MOL0     H75060   3.985   7.819   3.703 -1.4571 -0.9596  0.2282
  557MOL0     O75061   1.632   0.377  11.052  0.1119  0.8283  1.0589
  557MOL0     C75062   1.522   0.440  11.053 -0.5451 -0.7666  0.5144
  557MOL0     O75063   1.461   0.471  10.940  1.2558 -0.0771  0.2564
  557MOL0     C75064   1.482   0.383  10.835 -0.5301 -0.3348 -1.2833
  557MOL0     C75065   1.505   0.453  10.716  0.2162 -0.1884 -0.0714
  557MOL0     C75066   1.540   0.384  10.601 -0.4602  0.1110  0.4706
  557MOL0     C75067   1.532   0.240  10.594  0.8546 -0.5114  1.1953
  557MOL0     O75068   1.556   0.179  10.475  0.1607 -0.0526 -0.9653
  557MOL0     C75069   1.647   0.064  10.497  0.1240 -0.2234 -0.2352
  557MOL0     C75070   1.746   0.053  10.388  0.0084  0.3317  0.4530
  557MOL0     C75071   1.807  -0.089  10.365 -0.1605  0.4931  0.2085
  557MOL0     C75072   1.899  -0.127  10.475  0.2022  0.6651  0.4468
  557MOL0     C75073   2.000  -0.232  10.423  0.2141 -0.4262  0.5843
  557MOL0     C75074   1.942  -0.373  10.403  0.1336 -0.6879 -0.6518
  557MOL0     C75075   2.049  -0.481  10.365 -0.2264  0.0970  0.2471
  557MOL0     C75076   2.128  -0.470  10.236 -0.4072  0.0749  0.5779
  557MOL0     N75077   2.224  -0.579  10.224  0.0140 -0.3704 -0.1484
  557MOL0     C75078   2.216  -0.706  10.170 -0.0417  0.2667 -0.3738
  557MOL0     C75079   2.341  -0.758  10.203  0.2978 -0.8425  0.2561
  557MOL0     C75080   2.387  -0.896  10.164  0.0984 -0.2379  0.4541
  557MOL0     C75081   2.467  -0.865  10.026  0.4529  0.7600  0.1469
  557MOL0     C75082   2.522  -0.992   9.960 -0.7900 -0.5992  1.0423
  557MOL0     C75083   2.577  -0.983   9.817  0.3040 -0.6967  0.3267
  557MOL0     O75084   2.474  -0.926   9.733  0.2690 -0.6381  0.4458
  557MOL0     C75085   2.501  -0.807   9.671 -0.7596  0.4182  0.3243
  557MOL0     C75086   2.431  -0.771   9.553 -0.2636  0.1005 -0.0518
  557MOL0     C75087   2.447  -0.645   9.496 -0.2463  0.2410  0.9664
  557MOL0     C75088   2.522  -0.542   9.551 -0.0094  0.0827 -0.1707
  557MOL0     C75089   2.551  -0.397   9.500 -0.7376  0.1180 -0.2350
  557MOL0     O75090   2.671  -0.344   9.524  0.3220  0.3856  0.1491
  557MOL0     C75091   2.686  -0.209   9.507 -0.7467  0.1030 -0.1300
  557MOL0     C75092   2.819  -0.173   9.525  0.1200 -0.4511 -0.0519
  557MOL0     C75093   2.852  -0.033   9.515 -1.3279 -0.0126  0.1720
  557MOL0     C75094   2.763   0.065   9.466  0.1205  0.5002  0.4356
  557MOL0     O75095   2.806   0.189   9.434 -0.6009 -0.5013  0.1804
  557MOL0     C75096   2.900   0.198   9.332 -0.3505  0.0736 -0.7824
  557MOL0     C75097   2.859   0.188   9.183  0.3704  0.2656  0.6969
  557MOL0     C75098   2.826   0.049   9.126  0.5002  1.5199  0.3005
  557MOL0     C75099   2.952  -0.033   9.103  0.0845  0.2426 -0.8436
  557MOL0     C75100   2.924  -0.157   9.027 -0.8111 -0.0043  0.5886
  557MOL0     C75101   2.791  -0.234   9.047  1.2921  0.6452  0.1320
  557MOL0     C75102   2.788  -0.377   8.991 -0.5107 -0.0789  0.2516
  557MOL0     C75103   2.745  -0.369   8.844 -0.7100  0.5474  0.6627
  557MOL0    Cl75104   2.780  -0.526   8.757 -0.3158 -0.1000  0.1357
  557MOL0     C75105   2.626   0.026   9.452  0.2071  0.4661  0.9260
  557MOL0     C75106   2.591  -0.109   9.482  0.5452  0.4177 -0.6266
  557MOL0     O75107   2.456  -0.343   9.437 -0.0505  0.3591 -0.4184
  557MOL0     C75108   2.585  -0.574   9.670  0.7430  0.9680  0.1102
  557MOL0     C75109   2.573  -0.701   9.728  0.3723 -0.6297 -0.6360
  557MOL0     N75110   2.407  -0.669  10.270 -1.0025 -1.2368 -0.6660
  557MOL0     N75111   2.345  -0.560  10.283  0.9337  0.5721 -0.0333
  557MOL0     C75112   1.500   0.176  10.705 -0.8659  0.0002 -0.9404
  557MOL0     C75113   1.465   0.247  10.828  0.3912 -0.1794  0.1193
  557MOL0     C75114   1.472   0.506  11.175  0.0554 -0.3421  0.4218
  557MOL0     C75115   1.339   0.556  11.181 -0.9909  0.0276  0.6013
  557MOL0     C75116   1.289   0.613  11.294 -0.5725 -0.4215 -1.2113
  557MOL0     C75117   1.364   0.630  11.411 -1.2124 -1.1094  0.9295
  557MOL0     O75118   1.319   0.682  11.523 -0.0640 -0.1063 -0.5196
  557MOL0     C75119   1.392   0.732  11.633  0.1457 -0.0287 -0.1108
  557MOL0     C75120   1.295   0.761  11.742  0.6367 -0.4445 -0.2785
  557MOL0     C75121   1.215   0.894  11.735 -0.4295 -0.2361  0.1972
  557MOL0     C75122   1.100   0.898  11.623 -0.2201  0.7201  0.9581
  557MOL0     C75123   1.012   1.002  11.663  0.5495  0.4372 -0.2475
  557MOL0     C75124   0.956   1.095  11.712 -0.2795  0.0168 -0.3450
  557MOL0     C75125   1.494   0.592  11.402 -0.0152 -0.1653 -0.6353
  557MOL0     C75126   1.546   0.530  11.293 -1.1957 -0.2538  0.1527
  557MOL0     C75127   1.694   0.484  11.296  0.6131 -0.3126  0.2217
  557MOL0     H75128   1.505   0.562  10.709  1.6985  0.1154  2.9539
  557MOL0     H75129   1.576   0.433  10.511 -1.9489  0.0422 -0.1945
  557MOL0     H75130   1.705   0.077  10.589  0.4556  0.2966 -0.5091
  557MOL0     H75131   1.590  -0.028  10.505  0.2897 -0.8434 -4.1004
  557MOL0     H75132   1.826   0.127  10.399 -0.6526  1.1346 -0.0198
  557MOL0     H75133   1.693   0.070  10.293 -1.7006 -0.4643  1.2160
  557MOL0     H75134   1.859  -0.091  10.269 -0.4184 -2.8909  0.0012
  557MOL0     H75135   1.726  -0.163  10.360 -1.1938  1.6762 -2.8869
  557MOL0     H75136   1.960  -0.040  10.501 -0.2143  1.2835 -0.5761
  557MOL0     H75137   1.851  -0.164  10.566  1.9074 -0.2385  1.0113
  557MOL0     H75138   2.028  -0.188  10.327  0.7827  1.8319  1.7108
  557MOL0     H75139   2.085  -0.244  10.491  0.6389 -3.4133 -0.3251
  557MOL0     H75140   1.894  -0.398  10.498  0.9467  3.3675  1.0321
  557MOL0     H75141   1.860  -0.367  10.331 -0.9750  0.9856  0.6447
  557MOL0     H75142   2.002  -0.580  10.369  0.2058 -0.0971  0.7510
  557MOL0     H75143   2.124  -0.493  10.444 -0.3053 -2.8777 -0.0326
  557MOL0     H75144   2.050  -0.466  10.160 -0.0632 -1.5239  0.1057
  557MOL0     H75145   2.182  -0.375  10.238 -1.6554  0.9115 -1.7238
  557MOL0     H75146   2.136  -0.746  10.109  0.5767 -0.8611 -0.4626
  557MOL0     H75147   2.458  -0.919  10.243  1.4333  1.2686 -0.2428
  557MOL0     H75148   2.308  -0.971  10.163  0.4840 -0.6610  1.3570
  557MOL0     H75149   2.389  -0.821   9.964  0.9063 -0.9687 -1.7445
  557MOL0     H75150   2.547  -0.793  10.046  1.3294 -1.1496  5.0626
  557MOL0     H75151   2.438  -1.062   9.966 -0.1330 -1.3989  1.0287
  557MOL0     H75152   2.595  -1.035  10.029  1.8512 -1.1901 -1.9056
  557MOL0     H75153   2.606  -1.081   9.777 -1.5201 -1.4222  0.6952
  557MOL0     H75154   2.671  -0.928   9.818 -0.2895  0.4120 -1.0046
  557MOL0     H75155   2.385  -0.853   9.499  1.7771 -0.2568 -1.3242
  557MOL0     H75156   2.395  -0.630   9.402  1.0680 -0.2437  0.1353
  557MOL0     H75157   2.894  -0.248   9.549  1.3528  0.8947  0.4285
  557MOL0     H75158   2.957  -0.007   9.529 -0.7806 -1.9310 -0.0222
  557MOL0     H75159   2.951   0.293   9.351 -0.2593 -0.0267 -0.5235
  557MOL0     H75160   2.978   0.124   9.352 -0.3247  0.6040  1.3466
  557MOL0     H75161   2.768   0.244   9.161  0.7655  0.1514 -1.4546
  557MOL0     H75162   2.940   0.231   9.123 -1.2974 -0.1402 -2.0305
  557MOL0     H75163   2.759  -0.004   9.194  1.5109 -1.7450 -1.0420
  557MOL0     H75164   2.782   0.073   9.029 -2.3589 -0.9077  0.8770
  557MOL0     H75165   3.005  -0.061   9.195  0.9469 -2.9331 -2.1857
  557MOL0     H75166   3.026   0.022   9.045  2.4148 -2.8117 -0.9582
  557MOL0     H75167   3.004  -0.228   9.050  0.2949  1.4160  1.3167
  557MOL0     H75168   2.947  -0.136   8.922 -0.3587 -1.3475  0.4026
  557MOL0     H75169   2.765  -0.235   9.153 -0.6461  0.7377 -0.3056
  557MOL0     H75170   2.712  -0.170   9.005  1.2982  2.6687  2.9130
  557MOL0     H75171   2.728  -0.445   9.051 -1.1044  1.5191  1.5495
  557MOL0     H75172   2.883  -0.432   8.983 -1.8750 -3.0433  2.5477
  557MOL0     H75173   2.638  -0.344   8.838 -0.7533  0.5255  1.3027
  557MOL0     H75174   2.806  -0.295   8.791 -2.6933  0.9021 -1.2764
  557MOL0     H75175   2.554   0.103   9.428  1.6677  2.0145  1.3311
  557MOL0     H75176   2.485  -0.129   9.486  0.4636  0.9814  0.8032
  557MOL0     H75177   2.646  -0.494   9.712  1.0522  0.5387  0.4904
  557MOL0     H75178   2.630  -0.721   9.818  0.4292 -0.1399 -0.5617
  557MOL0     H75179   1.492   0.068  10.707 -0.2570 -0.0488  1.1346
  557MOL0     H75180   1.440   0.180  10.910  0.2951 -1.3946 -0.8727
  557MOL0     H75181   1.282   0.557  11.088  1.0955 -1.2300 -0.8000
  557MOL0     H75182   1.197   0.671  11.286 -0.7012 -0.8363 -3.4773
  557MOL0     H75183   1.430   0.831  11.605 -2.4293  0.8424 -0.8314
  557MOL0     H75184   1.464   0.664  11.681  1.4604  2.1597  1.1811
  557MOL0     H75185   1.346   0.781  11.836 -1.4799  2.9326  0.2897
  557MOL0     H75186   1.244   0.667  11.765 -2.9554  1.4043  0.0391
  557MOL0     H75187   1.283   0.979  11.731 -0.8821  0.1139 -0.1116
  557MOL0     H75188   1.165   0.894  11.833 -1.5243 -2.8775 -0.2796
  557MOL0     H75189   1.138   0.913  11.521 -4.4585  1.0301 -0.7618
  557MOL0     H75190   1.051   0.800  11.622  1.4464 -0.1597  1.5987
  557MOL0     H75191   0.920   1.191  11.742 -2.6084 -0.0916 -2.4779
  557MOL0     H75192   1.554   0.609  11.491 -1.5947  0.2867  0.3757
  557MOL0     H75193   1.743   0.502  11.392  0.6298  1.9735 -0.1759
  557MOL0     H75194   1.698   0.375  11.285 -1.1469 -0.5888  1.7164
  557MOL0     H75195   1.758   0.533  11.222  0.2162  2.2764  1.5040
  558MOL0     O75196   1.154   4.986   4.312  0.5600 -0.2762 -1.3627
  558MOL0     C75197   1.075   5.031   4.229 -0.9503  0.5926 -0.5223
  558MOL0     O75198   1.030   5.151   4.248  1.1976 -0.6897 -0.4779
  558MOL0     C75199   1.065   5.244   4.348 -0.0997 -0.0249 -0.8883
  558MOL0     C75200   1.191   5.297   4.371  0.5505 -0.2861  1.1608
  558MOL0     C75201   1.201   5.414   4.445  0.4822 -0.4579 -0.7430
  558MOL0     C75202   1.091   5.471   4.524 -0.0655  0.8737 -0.0401
  558MOL0     O75203   1.108   5.582   4.613 -0.2094 -0.2500 -0.5798
  558MOL0     C75204   1.242   5.607   4.659 -0.1911 -0.3547  0.3223
  558MOL0     C75205   1.303   5.722   4.572 -0.9407 -0.2828 -0.4839
  558MOL0     C75206   1.424   5.798   4.639 -0.7171  0.3876  1.0331
  558MOL0     C75207   1.443   5.929   4.562  0.2975  0.1990  0.3660
  558MOL0     C75208   1.508   6.032   4.660  1.0362  0.5082  0.6834
  558MOL0     C75209   1.587   6.146   4.580 -0.0851 -0.6201 -0.9536
  558MOL0     C75210   1.664   6.250   4.661 -0.2299 -0.6126 -0.2270
  558MOL0     C75211   1.600   6.289   4.786 -0.0677 -0.3940  0.4015
  558MOL0     N75212   1.662   6.414   4.831  0.3808 -0.1356 -0.2739
  558MOL0     C75213   1.669   6.537   4.778  0.4502 -0.2250 -0.8188
  558MOL0     C75214   1.769   6.604   4.843 -0.7558 -0.9863  0.0833
  558MOL0     C75215   1.832   6.729   4.792 -0.8119 -0.4276  0.3050
  558MOL0     C75216   1.963   6.706   4.711  0.2428  0.1593  0.1755
  558MOL0     C75217   1.960   6.695   4.553 -0.6951  0.9851 -0.3187
  558MOL0     C75218   1.915   6.568   4.493 -0.2641 -0.0488  0.3914
  558MOL0     O75219   2.015   6.474   4.497  0.1512  0.3118  0.5851
  558MOL0     C75220   1.984   6.354   4.417 -0.1418 -0.5300  0.2689
  558MOL0     C75221   1.874   6.324   4.335  0.9391 -0.5674 -0.4061
  558MOL0     C75222   1.880   6.220   4.246  0.5333 -0.0197  0.1077
  558MOL0     C75223   1.982   6.122   4.260  0.8195 -0.7260  0.6892
  558MOL0     C75224   1.978   6.010   4.171  0.0794  0.3886 -0.5224
  558MOL0     O75225   1.905   6.006   4.059  0.1242 -0.1876  0.0454
  558MOL0     C75226   1.928   5.919   3.959 -0.2855  0.6921  0.3532
  558MOL0     C75227   1.919   5.953   3.825 -0.1872  0.5707  0.0749
  558MOL0     C75228   1.933   5.854   3.725 -1.0333 -0.4944  0.6024
  558MOL0     C75229   1.965   5.722   3.754 -0.2127 -0.6904 -0.4568
  558MOL0     O75230   2.001   5.625   3.671  0.1116  1.3119 -0.0406
  558MOL0     C75231   2.052   5.651   3.534  0.7195 -0.4430 -0.1877
  558MOL0     C75232   2.063   5.514   3.475 -0.1277  0.6532  0.3731
  558MOL0     C75233   2.185   5.441   3.529 -0.2429  0.7818 -0.4899
  558MOL0     C75234   2.189   5.287   3.493 -0.3054 -0.1912  0.5112
  558MOL0     C75235   2.332   5.216   3.503  0.0933 -0.3164  0.2276
  558MOL0     C75236   2.352   5.159   3.647  0.4666  0.4080  0.4889
  558MOL0     C75237   2.498   5.125   3.665 -0.3069  0.5737 -0.9418
  558MOL0     C75238   2.521   5.045   3.793 -0.2546 -0.3418  0.0810
  558MOL0    Cl75239   2.456   4.882   3.803  0.2029  0.0047  0.2002
  558MOL0     C75240   1.966   5.689   3.887  0.3377  0.8102 -1.1934
  558MOL0     C75241   1.941   5.780   3.990 -0.5563  0.2543  0.1195
  558MOL0     O75242   2.043   5.908   4.218  0.0443 -0.1747  1.0635
  558MOL0     C75243   2.085   6.141   4.361 -0.9612 -0.1037  0.6656
  558MOL0     C75244   2.087   6.261   4.424  0.4521  0.3722 -0.2934
  558MOL0     N75245   1.819   6.512   4.935 -0.4071 -0.1931 -0.1579
  558MOL0     N75246   1.753   6.405   4.933 -0.6477  0.5729 -0.1970
  558MOL0     C75247   0.972   5.407   4.508  0.8150  0.4210 -1.7644
  558MOL0     C75248   0.961   5.295   4.432 -0.3519 -0.2595  0.9337
  558MOL0     C75249   1.053   4.963   4.102 -0.2577  0.3523 -0.0130
  558MOL0     C75250   1.016   5.038   3.992 -0.1682 -0.7622 -0.0672
  558MOL0     C75251   0.989   4.990   3.864 -1.1946 -0.8947  0.4350
  558MOL0     C75252   1.013   4.850   3.842 -0.5318  0.1823  0.0838
  558MOL0     O75253   1.009   4.796   3.716  0.1678 -0.7063 -0.4311
  558MOL0     C75254   1.072   4.869   3.613 -0.7869 -1.2961  0.2682
  558MOL0     C75255   1.220   4.827   3.599 -0.6730  0.3215 -1.0834
  558MOL0     C75256   1.285   4.865   3.461  0.0799  0.1094 -0.4494
  558MOL0     C75257   1.429   4.825   3.459 -0.5018 -0.0511  0.5860
  558MOL0     C75258   1.502   4.878   3.343 -0.9931  0.6601  0.6338
  558MOL0     C75259   1.567   4.906   3.237 -0.1963 -0.0536 -0.1776
  558MOL0     C75260   1.042   4.769   3.955 -1.5347 -0.7639  0.3430
  558MOL0     C75261   1.062   4.818   4.091  0.5091 -0.3652  0.0052
  558MOL0     C75262   1.080   4.726   4.209  0.3306  0.0520 -0.8235
  558MOL0     H75263   1.278   5.263   4.316 -1.5766  0.4877 -3.1404
  558MOL0     H75264   1.300   5.458   4.444 -0.1736  1.3477 -4.4407
  558MOL0     H75265   1.234   5.640   4.763 -0.7411 -0.5908  0.3570
  558MOL0     H75266   1.312   5.522   4.664  0.9718  0.6305  1.3643
  558MOL0     H75267   1.226   5.800   4.570  1.1550  2.0099  0.9976
  558MOL0     H75268   1.323   5.682   4.473 -3.3603  0.9474 -1.5582
  558MOL0     H75269   1.521   5.746   4.645  0.5417  2.2288 -1.4234
  558MOL0     H75270   1.396   5.822   4.742 -1.7171  2.6230  0.3002
  558MOL0     H75271   1.513   5.920   4.479 -0.4828  1.5246 -0.4758
  558MOL0     H75272   1.351   5.972   4.521 -0.1080  3.9848  4.5495
  558MOL0     H75273   1.425   6.065   4.724  0.7811 -2.4708  2.0478
  558MOL0     H75274   1.567   5.977   4.733 -0.1576 -1.4825  0.2337
  558MOL0     H75275   1.663   6.099   4.517  0.8732 -1.3564  0.6778
  558MOL0     H75276   1.513   6.189   4.511 -1.0559 -0.8982 -0.1169
  558MOL0     H75277   1.674   6.336   4.594 -1.0070 -0.7672 -0.5444
  558MOL0     H75278   1.763   6.206   4.679 -0.0303 -0.3281 -0.6136
  558MOL0     H75279   1.494   6.312   4.771  0.2762  3.6662  2.6883
  558MOL0     H75280   1.608   6.208   4.859  2.1361  0.8203  1.6112
  558MOL0     H75281   1.620   6.585   4.693 -1.2821  1.8054  1.1752
  558MOL0     H75282   1.771   6.778   4.716  0.6967  1.7231  0.4130
  558MOL0     H75283   1.846   6.794   4.879 -2.1860  0.1096  0.1551
  558MOL0     H75284   2.025   6.790   4.744  5.2221 -3.5009  1.2237
  558MOL0     H75285   2.024   6.625   4.751  1.3398  0.7400 -0.2849
  558MOL0     H75286   2.064   6.714   4.528 -0.4522  0.6316  0.3971
  558MOL0     H75287   1.896   6.775   4.515 -0.3610  0.0410 -3.0498
  558MOL0     H75288   1.880   6.584   4.391  0.1181 -1.2298  0.0610
  558MOL0     H75289   1.836   6.533   4.560 -1.7803 -0.2096 -1.4110
  558MOL0     H75290   1.800   6.404   4.337  3.4282  1.8520  0.2203
  558MOL0     H75291   1.812   6.205   4.162  0.9190 -4.7360  0.3441
  558MOL0     H75292   1.912   6.053   3.785 -1.4847 -1.6553 -6.5697
  558MOL0     H75293   1.945   5.878   3.619 -0.3150 -1.1127  0.5391
  558MOL0     H75294   1.975   5.712   3.486 -0.3621 -0.5972  1.2711
  558MOL0     H75295   2.147   5.704   3.542  0.0126  0.5799  3.2064
  558MOL0     H75296   1.977   5.455   3.508  1.3116 -0.7382  1.7817
  558MOL0     H75297   2.064   5.522   3.366 -2.3387 -2.9811 -0.0760
  558MOL0     H75298   2.279   5.491   3.503  1.2626 -1.4507  0.3292
  558MOL0     H75299   2.179   5.456   3.638  2.9752 -1.5801  0.1716
  558MOL0     H75300   2.157   5.275   3.389  1.2784  0.0089 -0.0233
  558MOL0     H75301   2.117   5.239   3.560 -0.5637  1.8115  1.7313
  558MOL0     H75302   2.404   5.295   3.480  1.3631 -0.6599  2.7007
  558MOL0     H75303   2.350   5.132   3.436 -4.4224 -0.1888 -1.5197
  558MOL0     H75304   2.310   5.230   3.719 -1.9962  0.3215 -0.7505
  558MOL0     H75305   2.288   5.073   3.667 -3.2245  3.0441  1.1557
  558MOL0     H75306   2.549   5.221   3.671  1.8259 -0.4185 -1.9250
  558MOL0     H75307   2.531   5.078   3.571  2.0192  0.5823 -0.1737
  558MOL0     H75308   2.629   5.036   3.807  0.0332  2.4190  0.1173
  558MOL0     H75309   2.478   5.103   3.875  0.4090 -2.7489  2.2792
  558MOL0     H75310   1.971   5.586   3.919  2.0975  1.4107  0.6173
  558MOL0     H75311   1.921   5.735   4.086 -0.1092 -0.2852 -0.0308
  558MOL0     H75312   2.156   6.061   4.379  1.5256  1.6397 -0.7885
  558MOL0     H75313   2.169   6.280   4.493  3.6103  0.3531 -3.6976
  558MOL0     H75314   0.883   5.446   4.557  1.2006 -0.5812 -0.1936
  558MOL0     H75315   0.867   5.242   4.425 -0.2453 -0.7426  2.7180
  558MOL0     H75316   0.992   5.144   3.988 -1.4437 -1.0197  0.2273
  558MOL0     H75317   0.963   5.058   3.784  1.6710 -0.1627  0.0136
  558MOL0     H75318   1.075   4.977   3.631 -0.2323 -1.5199  1.7078
  558MOL0     H75319   1.017   4.845   3.522  0.6560 -1.5920 -0.5557
  558MOL0     H75320   1.228   4.720   3.618  0.7773  0.7484  1.0427
  558MOL0     H75321   1.285   4.876   3.672 -0.6103  0.9071 -1.5152
  558MOL0     H75322   1.280   4.974   3.463  2.7346  0.3337  3.4342
  558MOL0     H75323   1.230   4.810   3.384 -1.3865  2.0823 -0.8808
  558MOL0     H75324   1.472   4.871   3.549 -1.4909  0.9918  0.5541
  558MOL0     H75325   1.439   4.716   3.462 -0.0463 -0.0117  3.3956
  558MOL0     H75326   1.606   4.926   3.140  1.2910 -2.8131 -0.2746
  558MOL0     H75327   1.053   4.664   3.930  2.1680 -0.6043  0.6537
  558MOL0     H75328   1.047   4.632   4.162 -3.4557  1.1908 -0.7725
  558MOL0     H75329   1.186   4.735   4.236 -0.1361  2.4684  0.4263
  558MOL0     H75330   1.013   4.758   4.289 -2.3899  1.4467 -3.4483
  559MOL0     O75331   8.016   8.006   2.117 -0.1603 -1.3951  0.1212
  559MOL0     C75332   8.030   7.919   2.031  0.0327 -0.4795 -0.4083
  559MOL0     O75333   7.946   7.811   2.023  0.0261 -0.2055  0.3341
  559MOL0     C75334   7.847   7.819   2.113 -0.0928  0.3291 -0.1910
  559MOL0     C75335   7.719   7.832   2.061  1.0339 -0.3308 -0.8934
  559MOL0     C75336   7.608   7.863   2.144 -0.1358 -0.6631  0.4643
  559MOL0     C75337   7.627   7.859   2.283 -1.1398 -1.1051 -0.2734
  559MOL0     O75338   7.529   7.905   2.369  0.5860 -0.1456 -0.6519
  559MOL0     C75339   7.408   7.962   2.321  1.4504 -0.1121 -0.7758
  559MOL0     C75340   7.336   8.030   2.430  0.1485 -0.8109 -0.1731
  559MOL0     C75341   7.409   8.152   2.495  0.0838 -0.9661 -0.0746
  559MOL0     C75342   7.404   8.278   2.402 -0.3284  0.3723 -0.0725
  559MOL0     C75343   7.484   8.396   2.471  0.9362 -0.8384 -0.1249
  559MOL0     C75344   7.492   8.525   2.376  0.6400  0.7042 -0.8943
  559MOL0     C75345   7.352   8.579   2.335 -0.3373  0.1058  0.9016
  559MOL0     C75346   7.363   8.689   2.229 -0.4998 -1.2193  0.6707
  559MOL0     N75347   7.235   8.736   2.163  0.3376 -0.4424 -0.3819
  559MOL0     C75348   7.186   8.695   2.043 -0.0293 -0.1364 -1.0624
  559MOL0     C75349   7.087   8.773   2.009 -0.1982 -0.0693  0.7977
  559MOL0     C75350   7.002   8.776   1.889 -0.2161 -0.0486 -0.0987
  559MOL0     C75351   6.925   8.648   1.857 -0.4277 -0.2908 -0.5802
  559MOL0     C75352   7.026   8.554   1.780  0.6089  0.3602  0.1239
  559MOL0     C75353   6.937   8.434   1.752 -1.0093 -0.5893  0.8597
  559MOL0     O75354   6.995   8.347   1.649 -0.0872  0.3582  0.4706
  559MOL0     C75355   7.090   8.253   1.680  0.0793 -0.0809  0.1503
  559MOL0     C75356   7.209   8.276   1.598  0.2515  0.2706 -1.2624
  559MOL0     C75357   7.316   8.196   1.612 -0.2483  0.6081 -0.3640
  559MOL0     C75358   7.316   8.092   1.706 -0.5002  0.3530  0.8279
  559MOL0     C75359   7.421   7.985   1.703 -0.7548  0.2447  0.2752
  559MOL0     O75360   7.504   7.987   1.602 -0.7193 -0.1375  0.0470
  559MOL0     C75361   7.611   7.899   1.590  0.5423  0.4054  1.2351
  559MOL0     C75362   7.726   7.956   1.544 -0.4839 -0.0392  0.2759
  559MOL0     C75363   7.830   7.885   1.490  0.1390 -0.1983 -0.2948
  559MOL0     C75364   7.827   7.743   1.496  0.4291  0.1718  0.9783
  559MOL0     O75365   7.934   7.682   1.432 -0.1126  0.2333 -0.1299
  559MOL0     C75366   8.007   7.584   1.513 -0.0043  0.1103  0.3867
  559MOL0     C75367   8.071   7.479   1.410  0.7393 -0.1008 -0.5442
  559MOL0     C75368   8.080   7.327   1.461 -0.5120 -1.3207  0.3869
  559MOL0     C75369   8.151   7.226   1.366  0.2564 -1.0458 -0.0327
  559MOL0     C75370   8.183   7.090   1.434  0.9859 -0.6704  0.2066
  559MOL0     C75371   8.073   7.031   1.521  0.2219 -0.8062 -0.5652
  559MOL0     C75372   8.080   6.875   1.541 -0.1466  0.0530 -0.8811
  559MOL0     C75373   7.946   6.804   1.549  0.2936  1.1984 -0.1634
  559MOL0    Cl75374   7.904   6.710   1.402  0.0428 -0.6280 -0.0689
  559MOL0     C75375   7.705   7.681   1.545  0.8219  0.1890 -0.5100
  559MOL0     C75376   7.594   7.758   1.596 -0.2673  0.3215 -0.1505
  559MOL0     O75377   7.434   7.918   1.803  0.1295  0.7597 -0.4427
  559MOL0     C75378   7.200   8.078   1.791 -0.3944  0.1676  0.4174
  559MOL0     C75379   7.094   8.167   1.781  0.3097 -0.2865 -0.4682
  559MOL0     N75380   7.076   8.866   2.111  0.4994  0.0081  0.1788
  559MOL0     N75381   7.146   8.828   2.216  0.9668 -0.6489  0.0925
  559MOL0     C75382   7.753   7.829   2.341  0.0569 -1.5153  0.3763
  559MOL0     C75383   7.861   7.820   2.250 -0.5207  0.2062 -0.0789
  559MOL0     C75384   8.156   7.922   1.954  0.4809 -0.2396  0.0236
  559MOL0     C75385   8.174   7.821   1.855  1.1076 -0.2325 -0.6962
  559MOL0     C75386   8.291   7.810   1.779 -0.1107 -0.4192 -0.4932
  559MOL0     C75387   8.402   7.891   1.806 -0.2436  0.0284 -0.6595
  559MOL0     O75388   8.522   7.889   1.739 -0.4380 -0.4879 -0.0687
  559MOL0     C75389   8.531   7.799   1.625 -0.4500  0.1186  0.4289
  559MOL0     C75390   8.656   7.831   1.545  0.2233  0.4340 -0.3194
  559MOL0     C75391   8.664   7.745   1.422 -0.2140  0.8645  0.1425
  559MOL0     C75392   8.706   7.605   1.451 -0.1087  0.5518  0.1301
  559MOL0     C75393   8.590   7.512   1.456 -0.7787 -0.2103  0.2025
  559MOL0     C75394   8.505   7.422   1.463 -0.0928 -0.1684  0.1764
  559MOL0     C75395   8.386   7.976   1.918 -0.1700  0.1588 -0.2396
  559MOL0     C75396   8.265   8.004   1.988  0.1381 -0.1131 -0.0436
  559MOL0     C75397   8.271   8.112   2.089 -0.7778 -0.1481 -0.7275
  559MOL0     H75398   7.716   7.844   1.953  0.8942 -1.0262 -0.9735
  559MOL0     H75399   7.506   7.882   2.111 -0.6466 -1.9928  1.1943
  559MOL0     H75400   7.423   8.036   2.242  0.6717  0.1418 -0.6991
  559MOL0     H75401   7.343   7.881   2.288  3.0006 -1.5340 -0.4683
  559MOL0     H75402   7.325   7.969   2.520 -0.5358  3.3379  2.8416
  559MOL0     H75403   7.240   8.072   2.398 -0.3352  0.9559  3.1427
  559MOL0     H75404   7.515   8.126   2.508  0.6452  1.7533  1.3031
  559MOL0     H75405   7.361   8.160   2.593 -1.3556 -0.7279 -0.7775
  559MOL0     H75406   7.457   8.242   2.314 -0.1112  0.0530  0.1858
  559MOL0     H75407   7.300   8.304   2.380 -1.6851 -2.2539  2.4467
  559MOL0     H75408   7.436   8.421   2.566  0.8693 -1.2168 -0.0596
  559MOL0     H75409   7.590   8.375   2.489  2.6926  1.9742 -5.1158
  559MOL0     H75410   7.536   8.604   2.438  1.1051  0.5803 -1.0602
  559MOL0     H75411   7.554   8.500   2.289 -0.2849  1.8037 -1.9117
  559MOL0     H75412   7.315   8.626   2.426  2.4034  2.0296  1.1686
  559MOL0     H75413   7.292   8.500   2.289  1.0911 -1.3179  1.3914
  559MOL0     H75414   7.410   8.777   2.273 -4.7200  0.7298  1.8027
  559MOL0     H75415   7.429   8.659   2.146 -2.6918 -0.5027 -1.4403
  559MOL0     H75416   7.238   8.614   1.992 -0.6471 -2.1013  1.2404
  559MOL0     H75417   6.927   8.851   1.916 -0.5788 -0.8676  1.2860
  559MOL0     H75418   7.048   8.816   1.799  0.7383 -5.3698 -2.3663
  559MOL0     H75419   6.898   8.601   1.952  0.3820  0.2218 -0.0830
  559MOL0     H75420   6.846   8.689   1.794  0.1726  3.0516  0.6137
  559MOL0     H75421   7.109   8.522   1.843 -1.0986 -0.8629  1.8851
  559MOL0     H75422   7.056   8.596   1.683 -0.2785  0.7764  0.0173
  559MOL0     H75423   6.848   8.481   1.711 -1.2998  0.0203  2.1439
  559MOL0     H75424   6.918   8.376   1.843 -1.3409 -0.9763  0.5470
  559MOL0     H75425   7.206   8.358   1.526  0.6763  1.7277  0.3006
  559MOL0     H75426   7.402   8.198   1.545 -2.0010 -0.0544 -2.7702
  559MOL0     H75427   7.740   8.062   1.529  0.8476 -0.4841 -2.1656
  559MOL0     H75428   7.920   7.927   1.446  1.2818 -0.8127  1.3386
  559MOL0     H75429   8.093   7.619   1.571 -0.3511 -0.6570  1.4043
  559MOL0     H75430   7.937   7.531   1.578  1.1521 -2.1026 -0.0775
  559MOL0     H75431   8.010   7.487   1.320 -0.3922  0.1887  0.2354
  559MOL0     H75432   8.172   7.510   1.380  0.6448  0.8733  0.0909
  559MOL0     H75433   8.146   7.332   1.548  0.4699 -1.7781 -0.3180
  559MOL0     H75434   7.981   7.292   1.491 -1.0915 -0.2192 -0.1730
  559MOL0     H75435   8.238   7.270   1.316 -1.2847  1.2369 -0.8838
  559MOL0     H75436   8.078   7.194   1.291 -1.8890 -2.3443  2.4495
  559MOL0     H75437   8.273   7.111   1.493 -0.0342  3.0458  0.6866
  559MOL0     H75438   8.201   7.021   1.351 -0.4473  0.1214 -0.7955
  559MOL0     H75439   8.078   7.089   1.613 -0.7263  0.9615 -1.5818
  559MOL0     H75440   7.975   7.053   1.478  0.5267 -1.4224 -1.6261
  559MOL0     H75441   8.130   6.867   1.638 -0.5814 -0.2090 -0.6754
  559MOL0     H75442   8.139   6.825   1.464 -0.4935 -2.3428  0.3301
  559MOL0     H75443   7.928   6.747   1.641 -0.2138  0.2550 -0.8325
  559MOL0     H75444   7.866   6.874   1.573  1.2842  1.8795  1.2847
  559MOL0     H75445   7.685   7.575   1.531  1.2830 -0.0154  0.3054
  559MOL0     H75446   7.499   7.714   1.623 -0.3078  1.4531  1.7260
  559MOL0     H75447   7.188   8.008   1.873 -2.5518 -1.5034 -1.2248
  559MOL0     H75448   7.013   8.160   1.853  0.4888  1.0630 -0.1037
  559MOL0     H75449   7.767   7.842   2.448  3.3243  2.5756 -0.2724
  559MOL0     H75450   7.965   7.818   2.280 -0.0733  0.7644 -1.4792
  559MOL0     H75451   8.086   7.762   1.830 -2.4096  2.9513  2.9217
  559MOL0     H75452   8.286   7.738   1.698  0.7451 -3.2862  1.8284
  559MOL0     H75453   8.443   7.807   1.560  0.2198 -1.7386 -0.7695
  559MOL0     H75454   8.540   7.695   1.658  1.5832 -0.3651 -1.4705
  559MOL0     H75455   8.743   7.834   1.611 -0.2286  0.8872  0.2670
  559MOL0     H75456   8.641   7.936   1.517  0.3917  0.9526  1.4597
  559MOL0     H75457   8.721   7.792   1.341 -1.6921  0.3495 -1.2477
  559MOL0     H75458   8.563   7.735   1.381  0.3661  1.5120 -1.5624
  559MOL0     H75459   8.769   7.571   1.368  0.2272  2.5145 -0.4670
  559MOL0     H75460   8.764   7.593   1.543 -0.3450 -0.3634  0.1705
  559MOL0     H75461   8.441   7.337   1.474 -0.6604  0.0406 -1.2387
  559MOL0     H75462   8.471   8.038   1.945  0.2296 -0.2260 -0.5968
  559MOL0     H75463   8.186   8.180   2.097  0.1964  0.9231  1.2879
  559MOL0     H75464   8.272   8.083   2.194  1.4593  0.8141 -0.4321
  559MOL0     H75465   8.349   8.182   2.057  1.1242 -0.6844  2.3609
  560MOL0     O75466   6.505   9.345   0.864  0.4325  0.6910 -0.7097
  560MOL0     C75467   6.458   9.307   0.756 -0.2506 -0.6465  0.1611
  560MOL0     O75468   6.506   9.210   0.681 -0.1283  0.5264 -0.6655
  560MOL0     C75469   6.593   9.112   0.735 -0.0491 -0.3887 -0.1496
  560MOL0     C75470   6.693   9.081   0.656  0.1957  0.1428 -0.3016
  560MOL0     C75471   6.783   8.978   0.678  0.6064 -0.3045  0.6980
  560MOL0     C75472   6.795   8.908   0.795 -0.6404 -0.4678 -1.0307
  560MOL0     O75473   6.877   8.800   0.832 -0.3740  0.0912 -0.4158
  560MOL0     C75474   6.990   8.760   0.748 -0.2445  1.3898  0.3166
  560MOL0     C75475   7.059   8.626   0.799 -0.3087  0.4183 -0.2988
  560MOL0     C75476   7.167   8.585   0.699 -0.1115 -0.1384  0.1582
  560MOL0     C75477   7.204   8.444   0.728 -0.0485 -1.2693 -0.0879
  560MOL0     C75478   7.320   8.406   0.634 -0.2552 -0.7241  0.0986
  560MOL0     C75479   7.291   8.411   0.481  0.4831 -0.5681 -0.1949
  560MOL0     C75480   7.193   8.304   0.435  1.5084 -0.5416 -0.4460
  560MOL0     C75481   7.192   8.288   0.287  0.1535  0.0500  0.5356
  560MOL0     N75482   7.109   8.178   0.243  0.2238  0.3348  0.0250
  560MOL0     C75483   7.144   8.077   0.154  0.2433  0.8294 -0.6853
  560MOL0     C75484   7.022   8.020   0.131  0.5624 -0.1773 -0.0333
  560MOL0     C75485   7.006   7.895   0.047  0.2819  0.3778 -0.7401
  560MOL0     C75486   6.890   7.803   0.107 -0.5236 -0.6552  0.1873
  560MOL0     C75487   6.924   7.655   0.080  0.9296  0.4726  0.0495
  560MOL0     C75488   6.802   7.568   0.109 -0.8355  0.2172 -0.1639
  560MOL0     O75489   6.821   7.426   0.136  0.3422 -0.6268  0.0833
  560MOL0     C75490   6.728   7.355   0.206  0.1136 -0.1202 -1.1426
  560MOL0     C75491   6.689   7.404   0.331  0.4036 -0.8852  0.3100
  560MOL0     C75492   6.610   7.318   0.417  0.4182  0.4218  0.2633
  560MOL0     C75493   6.579   7.194   0.368  0.6163  0.9609 -0.9048
  560MOL0     C75494   6.507   7.097   0.450  0.2946  0.4076  0.7439
  560MOL0     O75495   6.541   6.964   0.438 -0.1855  0.1981  0.3867
  560MOL0     C75496   6.487   6.860   0.509  0.2433 -0.3932 -0.2891
  560MOL0     C75497   6.443   6.748   0.432 -0.0706 -0.1549  0.7150
  560MOL0     C75498   6.391   6.636   0.503  0.3234  1.1396  0.0608
  560MOL0     C75499   6.352   6.637   0.643  0.6089 -0.7509  0.0675
  560MOL0     O75500   6.280   6.544   0.714 -0.5364  0.2963 -0.3442
  560MOL0     C75501   6.196   6.440   0.672  0.0699  0.0320  0.0854
  560MOL0     C75502   6.067   6.434   0.758  0.0554  0.1455 -0.4842
  560MOL0     C75503   5.970   6.318   0.717 -0.1937  0.5668  0.3002
  560MOL0     C75504   5.857   6.334   0.815  0.5014 -1.0465 -0.1467
  560MOL0     C75505   5.756   6.220   0.797 -1.0742  0.6013  0.2180
  560MOL0     C75506   5.808   6.074   0.835 -0.2960 -0.3014  0.1353
  560MOL0     C75507   5.685   5.989   0.845  0.5753  0.0359  0.9848
  560MOL0     C75508   5.723   5.838   0.839 -1.5979 -0.3193 -0.3543
  560MOL0    Cl75509   5.884   5.780   0.902  0.5073  0.0040  0.1781
  560MOL0     C75510   6.405   6.749   0.713 -0.6401  0.4302 -0.4653
  560MOL0     C75511   6.467   6.854   0.645  0.2770 -0.2978  0.0364
  560MOL0     O75512   6.429   7.141   0.530 -0.1637 -0.4303 -0.5584
  560MOL0     C75513   6.595   7.158   0.227  0.5003 -0.3914 -0.5339
  560MOL0     C75514   6.687   7.233   0.154 -0.9151 -0.4695  0.0764
  560MOL0     N75515   6.918   8.092   0.197 -0.1220  0.2809  0.2424
  560MOL0     N75516   6.975   8.174   0.270  0.4353  0.0148  0.0473
  560MOL0     C75517   6.682   8.932   0.882 -0.6283  0.4391 -0.4277
  560MOL0     C75518   6.594   9.038   0.858  0.3334 -0.2299  0.4432
  560MOL0     C75519   6.351   9.386   0.682  0.6891  0.2134 -0.2814
  560MOL0     C75520   6.295   9.333   0.561  0.3973 -0.2296  0.2197
  560MOL0     C75521   6.211   9.403   0.476  0.2379 -0.6716  0.3473
  560MOL0     C75522   6.184   9.536   0.495 -0.0768  0.3187 -0.3519
  560MOL0     O75523   6.094   9.617   0.425  0.3091  0.5232  0.6918
  560MOL0     C75524   6.074   9.590   0.288  0.1744 -0.1320  0.1276
  560MOL0     C75525   5.979   9.695   0.227  0.5144 -0.6101  0.3987
  560MOL0     C75526   6.060   9.785   0.127 -0.6769  0.2777 -0.7006
  560MOL0     C75527   6.105   9.709   0.004  0.3702 -0.7830 -0.0769
  560MOL0     C75528   6.002   9.628  -0.066  0.2832  0.6361 -0.5536
  560MOL0     C75529   5.937   9.540  -0.102  0.6502  0.0541  0.5170
  560MOL0     C75530   6.219   9.588   0.620  0.7446  0.2242 -0.2258
  560MOL0     C75531   6.299   9.519   0.712  0.1203 -0.4620  0.9314
  560MOL0     C75532   6.329   9.588   0.843 -0.1405  0.2097 -0.8932
  560MOL0     H75533   6.704   9.136   0.563  2.0004 -2.8579 -2.0751
  560MOL0     H75534   6.840   8.943   0.593  0.8053 -0.8767  1.0644
  560MOL0     H75535   6.963   8.733   0.646 -1.3086  0.0039  0.9293
  560MOL0     H75536   7.058   8.846   0.748 -0.6545  1.7685  2.4786
  560MOL0     H75537   6.983   8.547   0.806 -4.1883  3.9407  1.7645
  560MOL0     H75538   7.105   8.630   0.898  0.3436  0.6345 -0.6066
  560MOL0     H75539   7.249   8.656   0.714 -0.7354  0.5287  0.4840
  560MOL0     H75540   7.138   8.602   0.595  1.7100  2.4188 -0.0431
  560MOL0     H75541   7.259   8.453   0.822  3.4690  1.0817 -2.1305
  560MOL0     H75542   7.121   8.373   0.726 -1.1938 -0.4513  4.9246
  560MOL0     H75543   7.398   8.477   0.660 -0.7309  0.8416 -2.3324
  560MOL0     H75544   7.352   8.305   0.661  1.4474  0.0476  1.1244
  560MOL0     H75545   7.256   8.511   0.452 -1.1658 -0.8553  0.6350
  560MOL0     H75546   7.384   8.378   0.435  0.8592 -0.5964  0.5725
  560MOL0     H75547   7.096   8.328   0.479  0.9443 -1.6338 -1.0657
  560MOL0     H75548   7.214   8.206   0.479  2.8040  0.1102  0.4511
  560MOL0     H75549   7.145   8.378   0.248 -0.8738 -0.7503 -0.1305
  560MOL0     H75550   7.294   8.287   0.245  0.8314  2.7434  1.9044
  560MOL0     H75551   7.242   8.044   0.122  0.3145  0.2906  0.0483
  560MOL0     H75552   6.974   7.915  -0.056 -2.4251 -0.7888 -0.2076
  560MOL0     H75553   7.094   7.830   0.045  2.3983  3.0205  0.5325
  560MOL0     H75554   6.897   7.810   0.216  3.4002  0.1811  0.0407
  560MOL0     H75555   6.791   7.836   0.073 -0.3244 -0.0981  0.1339
  560MOL0     H75556   7.012   7.615   0.131  0.4778 -1.2276 -0.4650
  560MOL0     H75557   6.947   7.637  -0.025  0.2086 -1.5478  0.2144
  560MOL0     H75558   6.730   7.584   0.028 -0.6379  0.3621 -0.3117
  560MOL0     H75559   6.752   7.617   0.193  1.8537  0.3517  1.4544
  560MOL0     H75560   6.723   7.500   0.370 -1.4096  0.6218 -1.5591
  560MOL0     H75561   6.591   7.354   0.518  2.4701  1.7726  0.2188
  560MOL0     H75562   6.455   6.751   0.324 -4.8033 -2.2033 -0.1029
  560MOL0     H75563   6.363   6.551   0.442 -0.8443  1.5040  0.0515
  560MOL0     H75564   6.178   6.466   0.568  0.1732  1.2521  0.3609
  560MOL0     H75565   6.235   6.339   0.687 -1.7022 -0.5559  1.0139
  560MOL0     H75566   6.107   6.428   0.860  0.0464 -0.5764 -0.5151
  560MOL0     H75567   6.008   6.526   0.750  0.8485  0.5946 -1.3241
  560MOL0     H75568   5.943   6.341   0.614  1.2080 -1.4123 -0.5596
  560MOL0     H75569   6.007   6.215   0.724 -3.8050 -0.8434  1.2668
  560MOL0     H75570   5.806   6.430   0.800 -0.1752 -0.8528  2.8986
  560MOL0     H75571   5.909   6.347   0.910  4.0586 -0.4401 -1.9809
  560MOL0     H75572   5.718   6.227   0.694  0.3180 -0.5135 -0.4043
  560MOL0     H75573   5.677   6.236   0.870 -4.1662 -1.7675 -2.3014
  560MOL0     H75574   5.874   6.028   0.762 -2.4314 -4.2944  0.4575
  560MOL0     H75575   5.851   6.090   0.934 -1.8661  0.3937  0.7502
  560MOL0     H75576   5.618   6.009   0.761 -0.8677 -1.4873  1.7341
  560MOL0     H75577   5.629   6.019   0.933  0.9949  0.2047  1.1973
  560MOL0     H75578   5.644   5.789   0.897 -1.0347  1.3309  1.9641
  560MOL0     H75579   5.718   5.806   0.735  0.7151 -1.4490 -0.1813
  560MOL0     H75580   6.392   6.759   0.821  1.8806 -1.3512  0.0876
  560MOL0     H75581   6.492   6.932   0.715 -0.4046  1.1865 -1.3170
  560MOL0     H75582   6.549   7.077   0.171 -2.0595 -0.4935  1.5150
  560MOL0     H75583   6.715   7.216   0.050 -3.3154 -0.2996 -0.6641
  560MOL0     H75584   6.689   8.870   0.972  3.3933  1.3902  0.1079
  560MOL0     H75585   6.519   9.059   0.933 -0.9218  1.9696 -1.3247
  560MOL0     H75586   6.310   9.228   0.538 -1.9581 -0.0190 -2.9808
  560MOL0     H75587   6.173   9.357   0.385  2.0721  0.7111 -1.2115
  560MOL0     H75588   6.026   9.495   0.266 -0.1184 -0.5811  2.4416
  560MOL0     H75589   6.177   9.596   0.249  0.4022 -0.7322  0.6253
  560MOL0     H75590   5.933   9.751   0.309 -2.4517 -0.0533 -1.4438
  560MOL0     H75591   5.900   9.643   0.171  2.3952 -2.0924 -0.9887
  560MOL0     H75592   6.158   9.809   0.170  1.7588 -3.4104 -3.5626
  560MOL0     H75593   6.007   9.875   0.095 -0.6921  0.2234 -0.8257
  560MOL0     H75594   6.135   9.785  -0.070 -1.2703 -0.3516 -0.3299
  560MOL0     H75595   6.191   9.649   0.034  0.1311 -0.2881  1.7181
  560MOL0     H75596   5.883   9.456  -0.142 -1.1256  1.1854  0.4481
  560MOL0     H75597   6.184   9.687   0.648 -0.1065  0.1884 -1.1046
  560MOL0     H75598   6.323   9.519   0.928  1.9147  0.1993 -0.7102
  560MOL0     H75599   6.430   9.628   0.855  0.1579 -0.7971  0.0942
  560MOL0     H75600   6.261   9.672   0.862 -0.5110 -0.8543  3.7259
  561MOL0     O75601   1.994   0.235   5.468  1.0405 -0.9432 -0.3051
  561MOL0     C75602   1.984   0.353   5.505  0.2360 -0.1508  0.4713
  561MOL0     O75603   1.916   0.454   5.445 -0.0303 -0.5708 -0.6098
  561MOL0     C75604   1.869   0.418   5.314  1.2912 -0.7304 -0.2382
  561MOL0     C75605   1.952   0.341   5.222 -0.0494 -0.3986 -0.4167
  561MOL0     C75606   1.895   0.304   5.102 -0.3384 -0.1056 -0.6873
  561MOL0     C75607   1.769   0.345   5.071  0.4664 -0.1973 -0.5008
  561MOL0     O75608   1.726   0.326   4.940 -0.7988  0.6797  0.2595
  561MOL0     C75609   1.596   0.368   4.895  0.1266 -0.9140 -0.0483
  561MOL0     C75610   1.567   0.324   4.755 -0.5507 -0.7410 -0.0138
  561MOL0     C75611   1.419   0.345   4.726  0.0610 -0.8926 -0.1979
  561MOL0     C75612   1.386   0.501   4.739 -0.4473  0.4807  0.3542
  561MOL0     C75613   1.228   0.510   4.740 -0.0728  0.5507 -0.8383
  561MOL0     C75614   1.184   0.630   4.660 -0.5427  0.5489  0.7924
  561MOL0     C75615   1.042   0.651   4.648  0.7830  0.6563  0.3634
  561MOL0     C75616   0.978   0.562   4.537  0.1953  0.9893  0.3329
  561MOL0     N75617   0.834   0.597   4.523 -1.0754  0.0154  0.5750
  561MOL0     C75618   0.772   0.632   4.401  0.3682 -0.0705 -0.1664
  561MOL0     C75619   0.637   0.627   4.426  0.8849  0.3098 -0.7798
  561MOL0     C75620   0.521   0.656   4.345 -0.8630  0.0619  0.6509
  561MOL0     C75621   0.456   0.789   4.389 -0.7752  0.2179  0.1732
  561MOL0     C75622   0.558   0.903   4.361 -0.0248 -0.0366  0.7702
  561MOL0     C75623   0.566   1.002   4.476 -0.4250  0.4425 -0.3906
  561MOL0     O75624   0.457   1.095   4.468 -0.3292 -0.1896  0.2381
  561MOL0     C75625   0.406   1.128   4.590 -0.4368  0.6791 -0.4063
  561MOL0     C75626   0.310   1.225   4.595  0.2784 -0.2877  0.0181
  561MOL0     C75627   0.262   1.292   4.708  0.1451  0.2057  0.3531
  561MOL0     C75628   0.319   1.251   4.830  0.6442 -0.1692  0.2236
  561MOL0     C75629   0.273   1.309   4.956  0.1326 -0.6917 -0.1192
  561MOL0     O75630   0.161   1.389   4.951  0.1094 -0.2657 -0.3222
  561MOL0     C75631   0.094   1.426   5.066  0.3367 -1.2744 -0.8408
  561MOL0     C75632   0.003   1.339   5.136 -0.5252 -0.0683  0.0922
  561MOL0     C75633  -0.052   1.379   5.262 -0.3935  0.3219 -0.7297
  561MOL0     C75634  -0.024   1.512   5.308 -0.5589  0.9355 -0.6130
  561MOL0     O75635  -0.067   1.563   5.428 -0.2454 -0.1772  0.0348
  561MOL0     C75636  -0.214   1.545   5.447 -0.5727  0.0854 -0.3950
  561MOL0     C75637  -0.293   1.629   5.350  1.0162 -1.5403  0.1725
  561MOL0     C75638  -0.304   1.771   5.391 -0.0971 -0.5277 -0.6845
  561MOL0     C75639  -0.305   1.869   5.278  0.2471  0.2256 -0.4198
  561MOL0     C75640  -0.162   1.890   5.235  0.1786 -0.3961  0.0530
  561MOL0     C75641  -0.148   2.011   5.148  0.6304 -0.0994 -0.1404
  561MOL0     C75642   0.003   2.009   5.097  0.1014 -0.6395 -0.1271
  561MOL0     C75643   0.016   2.124   4.994  1.1869 -0.3656  0.6750
  561MOL0    Cl75644   0.046   2.283   5.045 -0.1924  0.4048  0.7203
  561MOL0     C75645   0.040   1.600   5.224  0.2799  0.5796 -0.7222
  561MOL0     C75646   0.109   1.562   5.105  1.3406 -0.1058  1.1877
  561MOL0     O75647   0.332   1.293   5.055  0.5007 -0.1950  0.6522
  561MOL0     C75648   0.409   1.150   4.835  0.1846 -1.0394  0.8771
  561MOL0     C75649   0.462   1.103   4.720  0.1478 -0.3769  0.1181
  561MOL0     N75650   0.619   0.578   4.555  0.7574 -0.7216 -0.1062
  561MOL0     N75651   0.731   0.570   4.608  0.2028  0.3435  0.4662
  561MOL0     C75652   1.688   0.423   5.165 -0.2160  0.0006  0.2430
  561MOL0     C75653   1.740   0.451   5.288 -0.5389 -0.7331 -1.5515
  561MOL0     C75654   2.061   0.389   5.630  0.5265  0.3652 -0.0377
  561MOL0     C75655   2.064   0.299   5.732 -0.0855 -0.0665  0.2927
  561MOL0     C75656   2.131   0.327   5.865 -0.7955  0.3772  0.8588
  561MOL0     C75657   2.183   0.456   5.890  0.2327 -0.2550 -0.0803
  561MOL0     O75658   2.237   0.501   6.009 -0.2872  0.1166  0.9816
  561MOL0     C75659   2.230   0.630   6.061 -0.3244 -0.1354 -0.1347
  561MOL0     C75660   2.358   0.708   6.045 -0.8867 -0.3088  0.1952
  561MOL0     C75661   2.457   0.704   6.158  0.3742  0.5732  0.1643
  561MOL0     C75662   2.575   0.797   6.132  0.3572 -0.1682 -0.2162
  561MOL0     C75663   2.540   0.938   6.102  0.0891  0.2622 -0.5481
  561MOL0     C75664   2.535   1.053   6.097  0.2513 -0.6410  0.8429
  561MOL0     C75665   2.175   0.547   5.779  0.0770 -0.1926 -0.2740
  561MOL0     C75666   2.119   0.515   5.654  0.1877  0.8305 -0.0004
  561MOL0     C75667   2.147   0.607   5.531  0.1268 -0.3578 -0.6519
  561MOL0     H75668   2.056   0.319   5.245 -0.1227  0.1297  0.4520
  561MOL0     H75669   1.943   0.243   5.026 -0.6194 -2.2233  0.7594
  561MOL0     H75670   1.524   0.319   4.961  3.0465 -0.9448  3.4192
  561MOL0     H75671   1.587   0.474   4.919  0.5180 -1.2461  1.7315
  561MOL0     H75672   1.587   0.217   4.745  0.6905 -0.4263 -1.3752
  561MOL0     H75673   1.637   0.375   4.687  3.0980 -2.6875  1.9351
  561MOL0     H75674   1.372   0.282   4.802  1.5972  0.3895  1.8972
  561MOL0     H75675   1.389   0.305   4.629  2.3987 -1.8814 -0.5590
  561MOL0     H75676   1.414   0.526   4.841 -1.3279  0.4216  0.6178
  561MOL0     H75677   1.438   0.557   4.660 -0.5362 -1.0148 -0.7979
  561MOL0     H75678   1.185   0.425   4.687 -4.6834  2.6430 -0.9344
  561MOL0     H75679   1.182   0.508   4.839  0.0234 -0.4919 -0.8057
  561MOL0     H75680   1.231   0.712   4.715  0.6965  0.3241  0.0932
  561MOL0     H75681   1.222   0.637   4.558 -1.9543  1.8847  0.3027
  561MOL0     H75682   1.020   0.757   4.636  0.8129  1.1492  3.6614
  561MOL0     H75683   0.987   0.625   4.739 -0.8732  0.7657 -0.5577
  561MOL0     H75684   1.022   0.597   4.443  2.8137 -1.9363  0.3055
  561MOL0     H75685   0.987   0.455   4.557 -1.8658  0.9238  1.1607
  561MOL0     H75686   0.825   0.664   4.312 -1.3563  0.3790 -1.0676
  561MOL0     H75687   0.562   0.662   4.244  1.1019  0.6925  1.4432
  561MOL0     H75688   0.445   0.577   4.343 -1.1536  0.3548 -1.3229
  561MOL0     H75689   0.363   0.810   4.334 -2.6215 -2.1553  2.1832
  561MOL0     H75690   0.437   0.786   4.496  1.1523 -2.0074  0.5241
  561MOL0     H75691   0.529   0.949   4.266  2.0091 -3.8932 -2.0307
  561MOL0     H75692   0.654   0.859   4.333 -0.3052 -2.2193  2.8689
  561MOL0     H75693   0.662   1.055   4.465  0.2068 -0.5810  0.0705
  561MOL0     H75694   0.587   0.943   4.565  1.2101  1.4926 -0.0229
  561MOL0     H75695   0.258   1.245   4.501  0.5171  0.1356 -0.0277
  561MOL0     H75696   0.184   1.367   4.707 -1.1617 -1.0535 -2.1195
  561MOL0     H75697  -0.009   1.241   5.090  1.1457  0.9033 -2.6276
  561MOL0     H75698  -0.104   1.310   5.327  0.3699  0.7577  0.3660
  561MOL0     H75699  -0.242   1.441   5.429  0.7328 -0.4642  0.5575
  561MOL0     H75700  -0.236   1.572   5.551 -1.2077 -0.3415 -0.4091
  561MOL0     H75701  -0.251   1.625   5.249  1.8632  2.7217  0.1728
  561MOL0     H75702  -0.394   1.587   5.348 -1.0047  2.8452 -0.5033
  561MOL0     H75703  -0.394   1.788   5.450  0.0422  0.7647 -0.8114
  561MOL0     H75704  -0.225   1.803   5.460 -2.2460  3.5641  0.2021
  561MOL0     H75705  -0.346   1.962   5.319  2.9327  0.5818  1.7637
  561MOL0     H75706  -0.367   1.830   5.197 -1.5916 -0.0863  1.0884
  561MOL0     H75707  -0.123   1.798   5.191  0.6710 -0.9061  1.5139
  561MOL0     H75708  -0.096   1.907   5.320 -0.2819  2.6312 -0.0725
  561MOL0     H75709  -0.215   1.995   5.063  0.9988  1.5914 -0.7821
  561MOL0     H75710  -0.163   2.106   5.199  0.5540  0.6941 -1.5913
  561MOL0     H75711   0.026   1.920   5.038 -2.6480 -0.9177 -0.8838
  561MOL0     H75712   0.070   2.011   5.184  1.0855 -0.9880 -0.8522
  561MOL0     H75713   0.079   2.098   4.909 -0.5633 -0.1117 -0.7739
  561MOL0     H75714  -0.079   2.118   4.939  0.1397 -0.0690  2.3650
  561MOL0     H75715   0.046   1.700   5.267 -2.7887  1.1389 -1.3477
  561MOL0     H75716   0.179   1.627   5.054 -0.4775  0.4309 -0.7482
  561MOL0     H75717   0.480   1.139   4.916  4.4212  2.0809 -2.0032
  561MOL0     H75718   0.552   1.042   4.729  0.8154  0.8853  6.3653
  561MOL0     H75719   1.589   0.464   5.148 -0.0637  1.4013  2.3108
  561MOL0     H75720   1.685   0.505   5.364  0.7170 -2.3687  0.6376
  561MOL0     H75721   2.012   0.204   5.724 -0.6777  0.3716 -1.9248
  561MOL0     H75722   2.141   0.250   5.942 -3.5982 -1.8265 -0.7961
  561MOL0     H75723   2.206   0.618   6.167 -0.1903 -2.5516 -0.3190
  561MOL0     H75724   2.139   0.669   6.014 -0.0964  2.3869  1.3329
  561MOL0     H75725   2.326   0.811   6.032  0.6056  0.1328 -0.1866
  561MOL0     H75726   2.401   0.681   5.948 -4.1922  0.8632 -1.7561
  561MOL0     H75727   2.490   0.601   6.170 -3.3830 -1.1062 -2.2349
  561MOL0     H75728   2.397   0.725   6.246 -2.6404 -1.7053 -1.1980
  561MOL0     H75729   2.640   0.795   6.221  0.8651  1.5307 -0.5169
  561MOL0     H75730   2.638   0.775   6.045  1.9806  1.3274  0.5151
  561MOL0     H75731   2.514   1.157   6.084  3.2427 -0.0080  0.3276
  561MOL0     H75732   2.227   0.642   5.782  0.9156 -0.6350 -0.5175
  561MOL0     H75733   2.180   0.549   5.444 -0.3449 -2.0951  0.2759
  561MOL0     H75734   2.049   0.653   5.516 -0.5862 -0.2832  3.2952
  561MOL0     H75735   2.227   0.678   5.554  1.0218 -1.2040 -1.0875
  562MOL0     O75736   8.091   5.186   8.231 -0.6908 -0.9468 -1.1894
  562MOL0     C75737   7.983   5.156   8.277  0.2360  0.3493  0.5401
  562MOL0     O75738   7.929   5.201   8.391 -0.5926 -0.1807  0.7307
  562MOL0     C75739   8.005   5.292   8.457  0.3733  0.4220  0.5545
  562MOL0     C75740   8.007   5.424   8.428  0.3194 -0.5790  0.1865
  562MOL0     C75741   8.092   5.518   8.479 -0.1668 -0.3197  0.2478
  562MOL0     C75742   8.187   5.472   8.573 -1.1420  0.2873  0.6339
  562MOL0     O75743   8.272   5.572   8.617  0.0681  0.3448  0.4275
  562MOL0     C75744   8.368   5.530   8.718  0.3515 -0.7323  0.5044
  562MOL0     C75745   8.440   5.651   8.799 -0.7393 -0.3207 -0.4765
  562MOL0     C75746   8.447   5.780   8.725 -0.2035  0.8892  0.2177
  562MOL0     C75747   8.524   5.881   8.815  0.5265 -0.0620 -0.5719
  562MOL0     C75748   8.432   5.989   8.877 -0.1116 -0.1235 -0.2375
  562MOL0     C75749   8.459   6.018   9.024  0.7379  0.7230  0.1470
  562MOL0     C75750   8.364   6.125   9.077 -2.4961  0.8099  0.4391
  562MOL0     C75751   8.383   6.151   9.227  0.6023  0.5810  0.3702
  562MOL0     N75752   8.288   6.245   9.284  0.8296  0.5352 -0.5000
  562MOL0     C75753   8.180   6.295   9.223 -0.3610  0.7966 -0.7018
  562MOL0     C75754   8.101   6.338   9.318  0.5411 -0.4380  0.4636
  562MOL0     C75755   7.961   6.395   9.288 -0.2025 -0.0171  0.0241
  562MOL0     C75756   7.929   6.544   9.329  0.0440  0.6361  0.3591
  562MOL0     C75757   7.815   6.616   9.248 -0.1930  0.6283 -0.3011
  562MOL0     C75758   7.679   6.543   9.277 -0.0317 -0.9734 -0.1825
  562MOL0     O75759   7.644   6.548   9.418 -0.0307 -0.0939 -0.4810
  562MOL0     C75760   7.603   6.661   9.483  0.2907  0.3912  0.2662
  562MOL0     C75761   7.572   6.775   9.401  0.1795  0.2417 -0.2237
  562MOL0     C75762   7.522   6.891   9.467 -0.2536 -0.3853  0.2367
  562MOL0     C75763   7.514   6.893   9.605  0.6944  0.8715  0.2312
  562MOL0     C75764   7.471   7.021   9.671 -0.3089 -0.4221 -0.1227
  562MOL0     O75765   7.459   7.138   9.592  0.0396 -0.4060  0.4267
  562MOL0     C75766   7.424   7.261   9.646  0.3853 -0.7306 -0.5721
  562MOL0     C75767   7.494   7.375   9.600 -0.0632 -0.0298  0.2897
  562MOL0     C75768   7.448   7.504   9.639  0.7079  0.4256 -0.0895
  562MOL0     C75769   7.325   7.526   9.707  0.6415 -0.2649  0.1377
  562MOL0     O75770   7.280   7.657   9.730 -0.5716  0.6862 -0.3400
  562MOL0     C75771   7.138   7.678   9.709  0.8317  0.2615  0.1618
  562MOL0     C75772   7.096   7.817   9.741  0.5465  0.4172 -0.5794
  562MOL0     C75773   7.165   7.926   9.651 -0.1329 -0.4073 -0.1675
  562MOL0     C75774   7.102   8.062   9.679  1.1632  0.2135  1.1504
  562MOL0     C75775   7.149   8.175   9.589  1.0151 -0.0972 -0.3102
  562MOL0     C75776   7.285   8.224   9.619  0.1383 -0.6287  1.0537
  562MOL0     C75777   7.316   8.359   9.563 -0.3605  0.0681 -0.5482
  562MOL0     C75778   7.424   8.424   9.664  1.4336 -0.1765 -0.0197
  562MOL0    Cl75779   7.501   8.559   9.605  0.3808 -0.3477  0.2159
  562MOL0     C75780   7.252   7.410   9.740  0.0505 -1.0680 -0.1355
  562MOL0     C75781   7.302   7.279   9.713  0.2978 -0.7827  0.0232
  562MOL0     O75782   7.456   7.021   9.796 -0.5922  0.6248  0.5646
  562MOL0     C75783   7.544   6.776   9.682  0.4060 -0.6573 -1.0209
  562MOL0     C75784   7.601   6.665   9.625 -0.3956  0.2915  0.4744
  562MOL0     N75785   8.174   6.331   9.439  0.3847 -0.3508  0.3711
  562MOL0     N75786   8.280   6.266   9.421  0.2890 -1.2779  0.4380
  562MOL0     C75787   8.187   5.338   8.604 -0.5544  0.2694 -0.5207
  562MOL0     C75788   8.088   5.252   8.561  0.1741  0.8243  0.8445
  562MOL0     C75789   7.904   5.060   8.195 -0.1346  1.0158 -0.2077
  562MOL0     C75790   7.768   5.060   8.212  0.3105  0.8825 -0.4512
  562MOL0     C75791   7.687   4.977   8.140 -0.0511  0.5721 -0.8533
  562MOL0     C75792   7.735   4.872   8.069  0.7496 -0.7713 -0.0784
  562MOL0     O75793   7.648   4.800   7.997 -0.1899  1.1713 -0.2023
  562MOL0     C75794   7.687   4.683   7.918 -0.1256 -0.0089 -0.3477
  562MOL0     C75795   7.702   4.730   7.786 -0.3554 -0.5591 -0.3346
  562MOL0     C75796   7.565   4.774   7.726  0.3375 -0.4344 -0.2563
  562MOL0     C75797   7.584   4.841   7.588 -0.4363  0.9904  0.6781
  562MOL0     C75798   7.643   4.740   7.498 -0.0427  0.0875 -0.4152
  562MOL0     C75799   7.712   4.682   7.421 -0.0074  0.1431  1.5665
  562MOL0     C75800   7.872   4.867   8.060 -0.2826  0.8741  0.2981
  562MOL0     C75801   7.956   4.952   8.125  0.6134  0.5961  0.0875
  562MOL0     C75802   8.109   4.926   8.109  1.8579 -0.4041 -0.3768
  562MOL0     H75803   7.931   5.459   8.358  1.8440  0.4123 -1.0395
  562MOL0     H75804   8.088   5.622   8.448 -2.6804 -0.6212 -0.7396
  562MOL0     H75805   8.311   5.475   8.794  0.1992 -1.4732 -0.1282
  562MOL0     H75806   8.449   5.471   8.674  1.9898  1.1106  0.9452
  562MOL0     H75807   8.529   5.607   8.846 -0.9076 -0.1903 -0.0282
  562MOL0     H75808   8.379   5.682   8.884  1.1999  4.3447 -0.4797
  562MOL0     H75809   8.346   5.799   8.690 -1.2612 -3.6638  0.1114
  562MOL0     H75810   8.516   5.762   8.641 -2.2397  1.0814 -1.5905
  562MOL0     H75811   8.573   5.834   8.901 -0.3678 -0.0334 -0.0337
  562MOL0     H75812   8.605   5.921   8.752 -1.2143 -0.5899 -3.3303
  562MOL0     H75813   8.458   6.087   8.837 -0.0275  0.0877  0.3245
  562MOL0     H75814   8.328   5.965   8.851 -1.0993  2.8388  0.5966
  562MOL0     H75815   8.434   5.928   9.080 -1.0114  0.2541 -1.2835
  562MOL0     H75816   8.564   6.044   9.042  1.2464  0.1618 -1.7555
  562MOL0     H75817   8.259   6.096   9.069 -2.0225 -0.8241 -0.2963
  562MOL0     H75818   8.367   6.215   9.013  0.3820  0.4536 -0.0592
  562MOL0     H75819   8.367   6.055   9.278 -0.7559  1.4068  1.5661
  562MOL0     H75820   8.483   6.186   9.254  0.5237  0.1508  1.2532
  562MOL0     H75821   8.155   6.298   9.118  2.3274  0.0519 -1.4403
  562MOL0     H75822   7.960   6.385   9.179  0.9747 -0.5311  0.0463
  562MOL0     H75823   7.888   6.329   9.336 -1.7731 -0.1752 -2.3797
  562MOL0     H75824   7.900   6.540   9.434 -0.9210 -0.4743  0.0688
  562MOL0     H75825   8.024   6.598   9.319  2.0181 -2.8508 -2.1590
  562MOL0     H75826   7.843   6.602   9.143  0.4278  1.8466 -0.3036
  562MOL0     H75827   7.803   6.720   9.278  0.9405  0.1805  1.9618
  562MOL0     H75828   7.687   6.438   9.246 -1.6522 -1.0117 -0.5655
  562MOL0     H75829   7.598   6.577   9.211  1.7195 -1.7196 -2.9013
  562MOL0     H75830   7.580   6.769   9.293  4.0109  0.0122 -0.0677
  562MOL0     H75831   7.502   6.977   9.403 -4.3185  1.7403  3.8216
  562MOL0     H75832   7.583   7.366   9.540 -0.0081 -3.2324  0.7231
  562MOL0     H75833   7.502   7.591   9.605  0.7939  0.4591  0.1335
  562MOL0     H75834   7.114   7.662   9.604  0.7412  0.5070  0.1433
  562MOL0     H75835   7.073   7.606   9.760 -2.2915 -0.7528 -4.6552
  562MOL0     H75836   6.989   7.840   9.735  0.6200  0.8783 -0.2391
  562MOL0     H75837   7.133   7.849   9.839 -0.4852 -0.2447  0.0489
  562MOL0     H75838   7.272   7.939   9.672 -0.0072 -0.3356 -0.8302
  562MOL0     H75839   7.163   7.886   9.550  1.3618 -1.4892  0.1897
  562MOL0     H75840   7.118   8.085   9.785  1.0963  0.0774  1.1899
  562MOL0     H75841   7.001   8.036   9.647  1.6789  1.4466 -1.7744
  562MOL0     H75842   7.077   8.254   9.612 -4.0279 -4.6965  1.8992
  562MOL0     H75843   7.133   8.153   9.483 -0.4755  0.7568 -0.2989
  562MOL0     H75844   7.306   8.234   9.726  1.1094 -1.9384  1.0027
  562MOL0     H75845   7.355   8.153   9.576 -1.2847 -1.4770  0.0355
  562MOL0     H75846   7.225   8.416   9.546 -1.1663 -1.7616 -2.8929
  562MOL0     H75847   7.362   8.342   9.465  0.4385 -1.3885  0.0335
  562MOL0     H75848   7.370   8.447   9.756  0.1011  0.1124 -0.8411
  562MOL0     H75849   7.502   8.353   9.692 -0.5813 -2.5773 -0.1718
  562MOL0     H75850   7.152   7.424   9.780  0.2242  2.5693 -0.5633
  562MOL0     H75851   7.236   7.192   9.717  1.2962 -1.5099  3.2086
  562MOL0     H75852   7.541   6.789   9.790  1.4256  0.5437 -1.1056
  562MOL0     H75853   7.636   6.574   9.672  3.8535  1.6113  0.2962
  562MOL0     H75854   8.256   5.298   8.677 -1.2238  0.8657  0.4624
  562MOL0     H75855   8.084   5.149   8.596  1.3149  0.8687  1.1547
  562MOL0     H75856   7.727   5.136   8.278  1.2471  1.3429 -0.3793
  562MOL0     H75857   7.579   4.984   8.146 -0.2636 -2.2403  0.1369
  562MOL0     H75858   7.611   4.605   7.912  0.5466 -0.6018 -1.4031
  562MOL0     H75859   7.780   4.636   7.949 -1.3532 -1.8382  0.7477
  562MOL0     H75860   7.751   4.658   7.720  1.6180  1.7734 -1.5503
  562MOL0     H75861   7.754   4.825   7.798 -2.2334  0.4007  0.4977
  562MOL0     H75862   7.519   4.852   7.788 -2.2221 -2.9304  1.2145
  562MOL0     H75863   7.490   4.695   7.717  0.7304 -0.7153 -1.1493
  562MOL0     H75864   7.489   4.883   7.553 -1.6371 -1.1284  1.1913
  562MOL0     H75865   7.650   4.927   7.599 -0.0717  1.5736 -3.9766
  562MOL0     H75866   7.776   4.625   7.357  0.4655 -1.0768  3.0620
  562MOL0     H75867   7.907   4.786   7.996  1.4241  2.0765 -0.3516
  562MOL0     H75868   8.138   4.837   8.053  1.8752 -1.5929  1.4475
  562MOL0     H75869   8.154   5.014   8.063  1.5441  0.3742  0.7487
  562MOL0     H75870   8.139   4.910   8.213 -1.6855  0.6281  0.9636
  563MOL0     O75871   3.804   5.657   7.530  0.3913 -0.5766 -0.6937
  563MOL0     C75872   3.701   5.647   7.469 -0.8710  0.5658 -0.6947
  563MOL0     O75873   3.689   5.574   7.354  0.4424 -0.3138  0.3964
  563MOL0     C75874   3.805   5.531   7.294  0.5903 -1.0283 -0.3698
  563MOL0     C75875   3.891   5.430   7.347  0.1823  0.6617  0.7700
  563MOL0     C75876   4.007   5.384   7.271  0.4141  0.5916  0.2983
  563MOL0     C75877   4.032   5.429   7.142 -0.7410 -0.0109 -0.3027
  563MOL0     O75878   4.138   5.380   7.077 -0.6583 -0.5135  0.6021
  563MOL0     C75879   4.201   5.453   6.967 -0.3569  0.1426  0.1079
  563MOL0     C75880   4.172   5.389   6.829  0.8240  0.3354  1.5786
  563MOL0     C75881   4.033   5.320   6.821 -0.0602 -0.0428  0.0926
  563MOL0     C75882   4.013   5.226   6.699 -0.2814  0.4255 -0.3696
  563MOL0     C75883   4.117   5.119   6.681 -0.0486  0.0749 -0.6675
  563MOL0     C75884   4.139   5.030   6.801 -0.6217 -0.5222 -0.0325
  563MOL0     C75885   4.243   4.918   6.763 -0.5666  0.1961 -0.3976
  563MOL0     C75886   4.396   4.947   6.766  1.2736  0.0507 -0.0782
  563MOL0     N75887   4.452   5.005   6.890 -0.2736  0.0700 -0.1917
  563MOL0     C75888   4.522   4.937   6.992 -0.7226 -0.2237 -0.0527
  563MOL0     C75889   4.512   5.022   7.098 -0.3155 -0.2427  0.1186
  563MOL0     C75890   4.562   5.006   7.235  0.1877  0.1364  0.3783
  563MOL0     C75891   4.611   4.868   7.279 -1.1442  0.1943 -0.0464
  563MOL0     C75892   4.502   4.767   7.283 -0.1911 -1.2364  0.5705
  563MOL0     C75893   4.542   4.661   7.377  0.2668  0.4062  0.0225
  563MOL0     O75894   4.651   4.566   7.327  0.1984 -0.4122  0.1885
  563MOL0     C75895   4.628   4.465   7.235 -0.2625  0.8717 -0.0137
  563MOL0     C75896   4.749   4.420   7.177 -0.3783 -0.3698  0.2352
  563MOL0     C75897   4.748   4.334   7.066  0.2002 -0.0252 -0.8154
  563MOL0     C75898   4.627   4.273   7.026  0.2648  0.5301 -0.1762
  563MOL0     C75899   4.636   4.147   6.930  0.3036  0.1673  0.0635
  563MOL0     O75900   4.520   4.076   6.908 -0.8256  0.0296 -0.7860
  563MOL0     C75901   4.504   3.961   6.825  0.0267  0.2711 -0.2252
  563MOL0     C75902   4.378   3.935   6.781  0.6633  0.6997 -0.2412
  563MOL0     C75903   4.344   3.820   6.695  0.5623  0.3388  0.3895
  563MOL0     C75904   4.445   3.734   6.649 -0.0851  0.1355  1.7896
  563MOL0     O75905   4.414   3.630   6.567 -0.3136 -0.0592 -0.0890
  563MOL0     C75906   4.491   3.515   6.602 -0.5362  0.7537 -0.0814
  563MOL0     C75907   4.602   3.492   6.496 -0.4459  0.2428 -0.6685
  563MOL0     C75908   4.552   3.411   6.375  0.3573  0.4877 -0.5598
  563MOL0     C75909   4.558   3.263   6.400 -0.6295  0.4031  0.5047
  563MOL0     C75910   4.689   3.196   6.353  0.8039  0.1107  0.6895
  563MOL0     C75911   4.817   3.258   6.431 -1.2040  0.7263  0.0278
  563MOL0     C75912   4.939   3.169   6.412 -1.4044 -0.9692 -0.5459
  563MOL0     C75913   5.061   3.243   6.477 -1.7663 -0.1420 -0.3006
  563MOL0    Cl75914   5.221   3.162   6.455 -0.6170  0.0882 -0.3506
  563MOL0     C75915   4.572   3.766   6.692 -0.6305 -0.4345 -0.2818
  563MOL0     C75916   4.602   3.873   6.784 -0.0525  0.4236 -0.2332
  563MOL0     O75917   4.740   4.129   6.871  0.2344 -0.2935  0.3011
  563MOL0     C75918   4.506   4.308   7.094  0.8025 -0.4229 -0.0621
  563MOL0     C75919   4.507   4.408   7.190  0.4712  0.9756  0.3626
  563MOL0     N75920   4.441   5.134   7.059  0.6365 -0.2564 -0.6229
  563MOL0     N75921   4.413   5.128   6.935  0.2192 -0.4385  0.3722
  563MOL0     C75922   3.949   5.535   7.097 -0.8543 -0.1257 -0.6405
  563MOL0     C75923   3.835   5.584   7.166 -0.2316  0.6766  1.3594
  563MOL0     C75924   3.574   5.702   7.532  0.2414 -0.7541  1.0777
  563MOL0     C75925   3.452   5.661   7.481  0.0649  0.4397  0.4164
  563MOL0     C75926   3.332   5.719   7.522 -0.9071 -0.5520 -0.4463
  563MOL0     C75927   3.328   5.827   7.600 -0.3240 -0.0901 -1.1073
  563MOL0     O75928   3.208   5.893   7.619  0.5993  0.2155 -0.9629
  563MOL0     C75929   3.211   6.019   7.679  0.6067  0.6035 -1.0948
  563MOL0     C75930   3.073   6.062   7.709 -0.4119  0.8900 -0.2573
  563MOL0     C75931   3.011   6.001   7.844  0.1191 -0.4219  1.1816
  563MOL0     C75932   2.862   6.047   7.847 -0.3300 -0.2504 -0.2952
  563MOL0     C75933   2.772   5.983   7.746 -0.1232  0.0228 -0.8055
  563MOL0     C75934   2.708   5.942   7.651 -0.3583 -0.1429 -0.4791
  563MOL0     C75935   3.452   5.872   7.650  0.0133 -0.3252  0.5985
  563MOL0     C75936   3.572   5.806   7.623  1.1630  0.9742  0.3621
  563MOL0     C75937   3.701   5.862   7.689  1.0359 -0.2662  0.2353
  563MOL0     H75938   3.873   5.386   7.444  0.1749 -1.2136 -0.0245
  563MOL0     H75939   4.076   5.311   7.311 -1.0562 -0.9190  0.1711
  563MOL0     H75940   4.165   5.555   6.949 -3.7851 -0.6074  1.9845
  563MOL0     H75941   4.308   5.461   6.987 -0.0167  1.7307 -1.9365
  563MOL0     H75942   4.250   5.314   6.809 -2.5747 -2.3973 -3.7110
  563MOL0     H75943   4.177   5.467   6.753 -0.8436  0.4454  1.5600
  563MOL0     H75944   3.948   5.389   6.821 -1.2458 -1.4504  0.9509
  563MOL0     H75945   4.020   5.263   6.913 -1.1999 -0.0480 -0.0533
  563MOL0     H75946   3.913   5.183   6.700 -0.9616  1.9464 -0.2543
  563MOL0     H75947   4.005   5.285   6.608  1.1140  0.3492 -0.5746
  563MOL0     H75948   4.095   5.070   6.585  1.5887 -0.0958 -0.9927
  563MOL0     H75949   4.210   5.173   6.661  0.1611  0.2025  0.5989
  563MOL0     H75950   4.183   5.081   6.888 -0.3685 -5.1142  2.8590
  563MOL0     H75951   4.043   4.986   6.831 -1.9343  0.0777 -2.9647
  563MOL0     H75952   4.221   4.863   6.671 -1.6472 -1.4301  0.7652
  563MOL0     H75953   4.233   4.854   6.852  3.3356  0.8111  0.6753
  563MOL0     H75954   4.448   4.852   6.751 -0.2727 -0.6215 -1.4659
  563MOL0     H75955   4.424   5.005   6.677 -1.0627 -1.7521 -2.0992
  563MOL0     H75956   4.570   4.839   6.986 -1.7094 -0.7993  0.9589
  563MOL0     H75957   4.637   5.084   7.250  0.7888 -0.3463 -0.0871
  563MOL0     H75958   4.474   5.026   7.298 -0.0189  0.3656  0.0238
  563MOL0     H75959   4.701   4.830   7.230 -3.0298 -2.5057 -1.7052
  563MOL0     H75960   4.638   4.884   7.383 -0.9400  0.7574 -0.1809
  563MOL0     H75961   4.474   4.739   7.181 -2.0189 -1.9178  1.2124
  563MOL0     H75962   4.418   4.825   7.324 -0.8187 -0.4816 -1.6252
  563MOL0     H75963   4.453   4.602   7.399  1.5253 -2.2649 -1.5192
  563MOL0     H75964   4.579   4.703   7.471 -2.8204 -0.1546  1.5876
  563MOL0     H75965   4.841   4.473   7.200 -2.4837  4.9111 -1.8420
  563MOL0     H75966   4.841   4.299   7.023  1.1486  2.5914 -1.0867
  563MOL0     H75967   4.297   4.002   6.809 -1.0953 -1.0080 -0.9640
  563MOL0     H75968   4.238   3.802   6.681  0.1111  2.9122  0.0630
  563MOL0     H75969   4.520   3.518   6.708  2.2441 -0.6910 -0.6994
  563MOL0     H75970   4.425   3.427   6.600 -0.8386  0.9946 -1.0949
  563MOL0     H75971   4.647   3.585   6.462 -0.4084  0.0061 -1.2817
  563MOL0     H75972   4.688   3.443   6.543 -0.8094 -0.5750 -0.8361
  563MOL0     H75973   4.444   3.430   6.366  0.0534 -0.7385  0.2274
  563MOL0     H75974   4.609   3.450   6.290 -1.7029  1.6246 -1.4957
  563MOL0     H75975   4.484   3.219   6.333  0.5802  2.1080 -2.1570
  563MOL0     H75976   4.536   3.236   6.503  1.9754  0.4379  1.1480
  563MOL0     H75977   4.703   3.220   6.247  2.6999 -0.1312  0.8581
  563MOL0     H75978   4.679   3.089   6.371 -2.0955 -0.3044 -2.3373
  563MOL0     H75979   4.840   3.361   6.401  0.6373  0.4629  0.4396
  563MOL0     H75980   4.801   3.262   6.540  1.6493  1.2608  0.4898
  563MOL0     H75981   4.949   3.146   6.306 -3.7071 -1.7604 -0.6532
  563MOL0     H75982   4.933   3.078   6.472 -0.6165  0.7790  2.3968
  563MOL0     H75983   5.071   3.344   6.436  0.2776 -1.3081 -2.9982
  563MOL0     H75984   5.028   3.262   6.579 -4.2042 -0.8236 -0.8903
  563MOL0     H75985   4.657   3.701   6.673 -2.0466 -3.0993  1.8512
  563MOL0     H75986   4.709   3.887   6.792  0.1468 -0.8270 -0.4358
  563MOL0     H75987   4.414   4.259   7.062  1.5154 -3.8114  2.5202
  563MOL0     H75988   4.412   4.435   7.234 -1.9982  0.1114 -3.8338
  563MOL0     H75989   3.956   5.574   6.996 -0.0461 -0.0565 -0.5636
  563MOL0     H75990   3.777   5.665   7.123 -0.7239  0.1822  1.0896
  563MOL0     H75991   3.434   5.577   7.415 -1.3856  1.1468 -0.1286
  563MOL0     H75992   3.235   5.701   7.475 -2.3311  0.6146  1.8370
  563MOL0     H75993   3.260   6.088   7.610  2.6740 -1.0603 -1.3833
  563MOL0     H75994   3.255   6.006   7.778 -0.5680  0.1783 -0.6033
  563MOL0     H75995   3.017   6.028   7.621  0.4688  0.4688 -0.6817
  563MOL0     H75996   3.068   6.171   7.711  1.6945  1.1513 -3.0588
  563MOL0     H75997   3.062   6.041   7.932  0.1484 -1.7912  1.8177
  563MOL0     H75998   3.002   5.893   7.859  1.7525 -0.5072  1.8655
  563MOL0     H75999   2.825   6.008   7.942  1.2505  0.1229  0.5152
  563MOL0     H76000   2.860   6.156   7.848 -1.7879 -0.2416  2.1847
  563MOL0     H76001   2.658   5.902   7.566  1.2920 -0.9955 -1.0946
  563MOL0     H76002   3.451   5.961   7.711  1.4602  0.3386 -0.2844
  563MOL0     H76003   3.670   5.957   7.732 -1.9386  0.8800 -3.8786
  563MOL0     H76004   3.730   5.782   7.758  1.2040 -1.2463 -0.9416
  563MOL0     H76005   3.792   5.870   7.629  1.1981 -2.4244  0.0950
  564MOL0     O76006   8.742   8.845   7.816  0.2235 -0.1178  0.3065
  564MOL0     C76007   8.704   8.762   7.730 -0.3978  0.0335  0.2242
  564MOL0     O76008   8.665   8.637   7.756  0.0994 -0.1536  0.2801
  564MOL0     C76009   8.628   8.604   7.889 -0.9921 -0.3643  0.7385
  564MOL0     C76010   8.503   8.558   7.908  0.8454  0.9342 -0.1398
  564MOL0     C76011   8.475   8.514   8.041  0.6901 -1.0467 -0.5354
  564MOL0     C76012   8.576   8.503   8.142 -0.3561 -0.0276  0.0182
  564MOL0     O76013   8.553   8.465   8.271 -0.0248 -0.6619  0.2269
  564MOL0     C76014   8.441   8.385   8.312  0.3817 -0.2148  0.6289
  564MOL0     C76015   8.461   8.332   8.452  0.2666  1.8635 -0.6756
  564MOL0     C76016   8.474   8.444   8.557 -0.2347  0.1105 -0.0043
  564MOL0     C76017   8.590   8.414   8.653  0.0262  0.3565  0.0339
  564MOL0     C76018   8.618   8.533   8.750 -0.8134  0.0502  0.1275
  564MOL0     C76019   8.496   8.585   8.833  0.4554  0.1834  0.4064
  564MOL0     C76020   8.522   8.707   8.906  0.0282  0.4965 -0.3514
  564MOL0     C76021   8.532   8.830   8.816 -1.1939  0.3099  0.5132
  564MOL0     N76022   8.546   8.949   8.900  0.1280 -0.0702  0.7824
  564MOL0     C76023   8.652   8.992   8.971 -0.4146  0.8771  0.1246
  564MOL0     C76024   8.628   9.120   8.993 -0.1415 -0.4366 -0.1314
  564MOL0     C76025   8.725   9.210   9.071 -0.4959 -0.4406  0.1134
  564MOL0     C76026   8.825   9.280   8.978  0.1279 -1.0904 -0.1110
  564MOL0     C76027   8.894   9.179   8.879  0.4839  0.1406  0.5445
  564MOL0     C76028   8.818   9.180   8.737  0.5829 -0.2151 -0.1298
  564MOL0     O76029   8.861   9.094   8.636 -0.4891  0.4332  0.1743
  564MOL0     C76030   8.964   9.136   8.559  0.7131 -0.1965 -0.0934
  564MOL0     C76031   9.024   9.031   8.486 -0.4132  0.2690 -0.2281
  564MOL0     C76032   9.138   9.054   8.413 -0.4047 -0.7370  0.1088
  564MOL0     C76033   9.206   9.176   8.415 -0.1252 -0.5887 -0.2443
  564MOL0     C76034   9.336   9.198   8.341  0.0363 -0.2629 -0.5525
  564MOL0     O76035   9.383   9.323   8.339  0.9486  0.0068 -0.6824
  564MOL0     C76036   9.501   9.346   8.279  0.2605  0.6057  1.1266
  564MOL0     C76037   9.507   9.351   8.138 -0.4083  0.5170 -0.2252
  564MOL0     C76038   9.637   9.373   8.079  0.0097 -0.2872 -0.6570
  564MOL0     C76039   9.752   9.385   8.158  0.8128 -0.5466 -0.3356
  564MOL0     O76040   9.867   9.412   8.086 -0.1159  0.0636  0.5657
  564MOL0     C76041   9.989   9.405   8.160  0.1594  0.5279 -0.3231
  564MOL0     C76042  10.019   9.525   8.248  0.0295 -0.3634 -0.3784
  564MOL0     C76043   9.991   9.659   8.179 -0.4829  0.3610 -1.4709
  564MOL0     C76044  10.079   9.691   8.056  0.7349  0.4817  0.2089
  564MOL0     C76045  10.079   9.836   8.003  0.2167 -0.2575 -0.0246
  564MOL0     C76046  10.166   9.867   7.880 -0.0528  1.6519 -0.1971
  564MOL0     C76047  10.161  10.012   7.844 -0.1024  0.2449  0.0287
  564MOL0     C76048  10.288  10.075   7.775 -0.0225  1.2784 -0.3449
  564MOL0    Cl76049  10.429  10.052   7.872  0.0931 -0.1095  0.0896
  564MOL0     C76050   9.738   9.372   8.299 -1.1190 -0.5706 -0.2259
  564MOL0     C76051   9.614   9.357   8.357 -0.5494  0.1695 -0.4111
  564MOL0     O76052   9.389   9.095   8.288 -0.3411 -0.0368 -0.7315
  564MOL0     C76053   9.146   9.286   8.484  0.2095  0.3353  0.7646
  564MOL0     C76054   9.036   9.252   8.561  0.1101 -0.4713 -0.7991
  564MOL0     N76055   8.506   9.152   8.947  0.3911 -0.2494  0.1053
  564MOL0     N76056   8.461   9.046   8.895 -0.2451 -0.0323 -0.2429
  564MOL0     C76057   8.705   8.556   8.119 -0.9454  0.3852  0.0869
  564MOL0     C76058   8.724   8.612   7.987 -0.9799 -0.4651 -0.2764
  564MOL0     C76059   8.696   8.811   7.593  0.3061  1.2167  0.2589
  564MOL0     C76060   8.593   8.758   7.512 -0.1038  0.0679  0.4669
  564MOL0     C76061   8.577   8.798   7.381 -0.0377 -0.2342  0.1661
  564MOL0     C76062   8.654   8.910   7.326  1.5701  1.2154 -0.8295
  564MOL0     O76063   8.642   8.978   7.203  0.2146  0.2408  0.2382
  564MOL0     C76064   8.514   8.972   7.143  0.9944 -0.3041 -0.6204
  564MOL0     C76065   8.507   9.031   7.000 -0.0436  0.0812  0.8604
  564MOL0     C76066   8.591   8.963   6.904 -0.0080 -0.2008  0.2579
  564MOL0     C76067   8.566   9.021   6.770  0.0467 -0.4298 -0.1197
  564MOL0     C76068   8.620   9.156   6.750 -0.5064 -0.7425 -0.7973
  564MOL0     C76069   8.675   9.259   6.729 -0.3417  0.2826  0.4703
  564MOL0     C76070   8.746   8.966   7.414  0.5922 -0.5020 -0.5538
  564MOL0     C76071   8.772   8.915   7.541  0.2590 -0.2277  0.0934
  564MOL0     C76072   8.886   8.983   7.616  0.5873  0.0934 -0.3881
  564MOL0     H76073   8.436   8.554   7.822  1.1719  0.0309 -0.3620
  564MOL0     H76074   8.375   8.488   8.072  0.4613  0.3736 -0.0221
  564MOL0     H76075   8.343   8.434   8.310  0.7300  0.4775 -0.4899
  564MOL0     H76076   8.433   8.305   8.238  1.9176 -0.6672  0.9305
  564MOL0     H76077   8.546   8.264   8.465 -1.5458 -0.5350 -0.5792
  564MOL0     H76078   8.374   8.269   8.472 -0.2516  2.1193 -2.0297
  564MOL0     H76079   8.384   8.445   8.619 -0.9719 -0.9863 -1.0099
  564MOL0     H76080   8.490   8.545   8.516  1.2808  1.7708  4.1847
  564MOL0     H76081   8.562   8.328   8.714 -1.8175 -0.8341 -2.3255
  564MOL0     H76082   8.674   8.384   8.590 -1.6927  0.3810 -2.4267
  564MOL0     H76083   8.701   8.508   8.817 -1.4609 -1.2884  0.4710
  564MOL0     H76084   8.652   8.618   8.691 -0.6925  0.0097  0.1395
  564MOL0     H76085   8.408   8.599   8.769  1.1961 -0.4188 -0.7659
  564MOL0     H76086   8.465   8.511   8.908 -0.3162 -0.8933 -0.9378
  564MOL0     H76087   8.621   8.694   8.951 -0.5640  0.9752  1.1679
  564MOL0     H76088   8.443   8.730   8.979 -0.1367 -0.3246 -0.2605
  564MOL0     H76089   8.625   8.823   8.759 -1.4782 -1.8259  0.2622
  564MOL0     H76090   8.440   8.833   8.757  0.0284  1.2589 -1.4502
  564MOL0     H76091   8.748   8.945   8.992  0.6170  1.0414 -3.4825
  564MOL0     H76092   8.657   9.280   9.120 -0.8414  0.6931 -1.8721
  564MOL0     H76093   8.770   9.151   9.151 -2.1096 -3.5974 -1.1225
  564MOL0     H76094   8.770   9.355   8.920 -1.5885 -2.5446 -0.4490
  564MOL0     H76095   8.904   9.325   9.039  0.3046  0.4225 -1.3930
  564MOL0     H76096   8.888   9.077   8.918 -1.6793  0.1528  0.3659
  564MOL0     H76097   9.001   9.196   8.864  0.1074  0.8992 -1.6310
  564MOL0     H76098   8.831   9.288   8.720 -0.6323 -0.0111  0.1457
  564MOL0     H76099   8.713   9.154   8.752  1.0578 -3.2807 -1.3698
  564MOL0     H76100   8.981   8.932   8.485 -0.4717  0.2902  0.0899
  564MOL0     H76101   9.194   8.978   8.359  0.1200  1.5196 -2.7286
  564MOL0     H76102   9.419   9.339   8.076  0.7537 -1.1617 -1.6401
  564MOL0     H76103   9.647   9.381   7.971 -1.1159  1.4428 -0.6744
  564MOL0     H76104   9.984   9.317   8.225 -1.8560 -0.2540 -1.4435
  564MOL0     H76105  10.069   9.393   8.087  1.3135  3.4275  0.3492
  564MOL0     H76106   9.974   9.515   8.347 -1.4205  0.1719 -0.9565
  564MOL0     H76107  10.127   9.510   8.258  0.7498  2.5413 -2.4004
  564MOL0     H76108   9.885   9.664   8.149 -0.2766  0.9721 -2.1257
  564MOL0     H76109  10.015   9.738   8.250 -1.7672 -1.5283  1.2084
  564MOL0     H76110  10.060   9.615   7.980  1.6160  0.3886  0.0761
  564MOL0     H76111  10.173   9.667   8.105 -0.0915 -1.2898  1.0338
  564MOL0     H76112  10.112   9.906   8.081  1.2898  2.0192 -2.3723
  564MOL0     H76113   9.975   9.861   7.982 -0.3391 -2.1718  0.2410
  564MOL0     H76114  10.268   9.829   7.889 -0.0180  1.7823 -0.0244
  564MOL0     H76115  10.116   9.810   7.801  1.3130  1.9640 -1.3293
  564MOL0     H76116  10.145  10.074   7.933  0.4167  3.1103 -1.7651
  564MOL0     H76117  10.072  10.025   7.781  1.2364  2.1657 -1.6044
  564MOL0     H76118  10.306  10.022   7.680 -1.8934 -1.8437  0.8954
  564MOL0     H76119  10.267  10.182   7.765 -1.1342  0.9752 -1.6508
  564MOL0     H76120   9.828   9.388   8.358 -0.1826 -0.8379 -1.5407
  564MOL0     H76121   9.606   9.347   8.465 -1.8404  1.4833 -0.3528
  564MOL0     H76122   9.197   9.382   8.487  1.6932 -0.1094 -3.3267
  564MOL0     H76123   9.006   9.333   8.626 -2.1261 -2.8126  1.3366
  564MOL0     H76124   8.785   8.555   8.191 -0.5162 -1.6830 -0.3637
  564MOL0     H76125   8.821   8.654   7.965 -1.8262  0.8781 -1.6365
  564MOL0     H76126   8.525   8.691   7.563 -1.4347  2.8812  2.6910
  564MOL0     H76127   8.496   8.758   7.320 -1.3326  1.4496  0.6984
  564MOL0     H76128   8.459   9.041   7.208  0.6906 -0.4363 -0.7372
  564MOL0     H76129   8.476   8.871   7.160 -1.3990  0.8634  1.8832
  564MOL0     H76130   8.522   9.139   7.016 -2.5310  0.8972 -1.5685
  564MOL0     H76131   8.404   9.013   6.968  1.5583 -2.8209 -3.6305
  564MOL0     H76132   8.580   8.854   6.900 -4.1524  0.0913 -0.5779
  564MOL0     H76133   8.695   8.978   6.934  0.0478 -0.7042  0.3313
  564MOL0     H76134   8.606   8.949   6.698 -0.7658 -1.3779  0.3506
  564MOL0     H76135   8.461   9.029   6.740  1.0757  3.5269 -3.6247
  564MOL0     H76136   8.729   9.351   6.714 -1.8615  0.8278 -2.3466
  564MOL0     H76137   8.800   9.053   7.380 -0.7294  1.2194  1.4851
  564MOL0     H76138   8.939   9.057   7.556 -3.0435  4.2979  1.0432
  564MOL0     H76139   8.847   9.049   7.694  1.8216 -0.1707  0.4989
  564MOL0     H76140   8.954   8.913   7.666  2.3856  3.3985  2.2038
  565MOL0     O76141   7.159   0.401   1.422 -0.4607  0.6475 -0.0497
  565MOL0     C76142   7.186   0.347   1.310 -0.2677 -0.8325 -0.0969
  565MOL0     O76143   7.131   0.380   1.188  0.3201  0.0806  0.2452
  565MOL0     C76144   7.036   0.477   1.188 -0.1152 -0.3184  0.2488
  565MOL0     C76145   7.068   0.611   1.229  0.6882  0.0284 -1.1230
  565MOL0     C76146   6.977   0.726   1.224  0.0803  0.2191 -0.2355
  565MOL0     C76147   6.848   0.699   1.189 -0.2599  0.2153 -0.0882
  565MOL0     O76148   6.745   0.783   1.191 -0.7335  0.9573 -0.1423
  565MOL0     C76149   6.720   0.851   1.311  0.2531 -0.1678  0.0440
  565MOL0     C76150   6.661   0.991   1.275 -0.0495 -0.5328 -0.4348
  565MOL0     C76151   6.524   0.974   1.199 -0.8748 -0.0349  0.6785
  565MOL0     C76152   6.449   1.101   1.202  0.4625 -0.6077 -1.1205
  565MOL0     C76153   6.307   1.093   1.149 -0.6454  0.9116 -0.8328
  565MOL0     C76154   6.218   0.993   1.225  0.5557  0.0741  0.3451
  565MOL0     C76155   6.075   1.020   1.178  0.2182 -0.6144  1.0323
  565MOL0     C76156   5.980   0.901   1.222 -0.0563  0.4075  0.1095
  565MOL0     N76157   5.834   0.914   1.179 -1.2652  0.1785  0.5941
  565MOL0     C76158   5.786   0.992   1.079  0.0567 -0.1059  0.5737
  565MOL0     C76159   5.657   0.964   1.065 -0.4205 -0.6960 -0.8894
  565MOL0     C76160   5.570   1.021   0.957 -0.3659 -0.3121 -1.3049
  565MOL0     C76161   5.586   0.948   0.821  0.1620  0.0687  0.5980
  565MOL0     C76162   5.487   0.996   0.712 -0.7402  0.1567 -0.1417
  565MOL0     C76163   5.482   1.151   0.692 -0.2499  0.6290 -0.9480
  565MOL0     O76164   5.617   1.190   0.654 -0.2133 -0.5130  0.0433
  565MOL0     C76165   5.640   1.224   0.525 -0.6001  1.3311  0.9625
  565MOL0     C76166   5.549   1.259   0.429 -0.8965  0.2365 -0.1303
  565MOL0     C76167   5.580   1.277   0.291  0.1328 -0.5467 -0.1696
  565MOL0     C76168   5.715   1.262   0.251 -0.4257 -0.8995  0.8342
  565MOL0     C76169   5.751   1.268   0.110  0.6270 -0.5645  0.3128
  565MOL0     O76170   5.884   1.265   0.076 -0.2515 -0.1358  0.5380
  565MOL0     C76171   5.918   1.284  -0.057 -0.7815  0.1587  0.4001
  565MOL0     C76172   5.900   1.187  -0.151  0.8316  0.3436  0.2253
  565MOL0     C76173   5.911   1.207  -0.292  0.1841 -0.2646 -0.2445
  565MOL0     C76174   5.993   1.314  -0.335  0.2437 -0.4359  0.5045
  565MOL0     O76175   6.022   1.317  -0.471 -0.1895 -0.0126 -0.1349
  565MOL0     C76176   6.143   1.377  -0.525 -0.8822 -0.8532 -0.0115
  565MOL0     C76177   6.282   1.304  -0.494  0.7136 -0.0641  0.4479
  565MOL0     C76178   6.330   1.265  -0.345  0.1362 -0.4074  0.3571
  565MOL0     C76179   6.456   1.178  -0.336 -0.0133  0.1054  0.2542
  565MOL0     C76180   6.507   1.159  -0.199  0.5538  0.3729  1.0274
  565MOL0     C76181   6.627   1.063  -0.196 -0.8890 -0.2574  0.0492
  565MOL0     C76182   6.667   1.015  -0.062  0.0102 -0.2801  0.5318
  565MOL0     C76183   6.760   0.899  -0.080 -0.1919 -0.0440 -0.2404
  565MOL0    Cl76184   6.798   0.852   0.081  0.4859 -0.3052 -0.0364
  565MOL0     C76185   6.039   1.405  -0.241 -0.7887 -0.5731 -0.5040
  565MOL0     C76186   5.986   1.393  -0.108 -0.5822  0.1448 -0.4639
  565MOL0     O76187   5.662   1.292   0.030  0.2897 -0.2766 -1.0464
  565MOL0     C76188   5.814   1.237   0.346 -0.4917 -0.0673  0.4758
  565MOL0     C76189   5.777   1.219   0.485  0.4082 -0.9226 -0.3098
  565MOL0     N76190   5.624   0.877   1.169 -0.0505  0.2624  0.1486
  565MOL0     N76191   5.732   0.847   1.237 -0.4717  0.2002  0.5561
  565MOL0     C76192   6.811   0.572   1.148  0.4417 -0.2545 -0.2009
  565MOL0     C76193   6.901   0.463   1.153  1.2953  0.4767  0.0465
  565MOL0     C76194   7.302   0.250   1.298  0.0058  0.3741  0.6977
  565MOL0     C76195   7.329   0.203   1.162  0.4458  0.0406  0.6538
  565MOL0     C76196   7.420   0.103   1.135 -0.4285 -0.2109  0.2746
  565MOL0     C76197   7.503   0.050   1.231  0.6849  0.0536  0.2964
  565MOL0     O76198   7.607  -0.027   1.189  0.4957 -0.1713  0.0870
  565MOL0     C76199   7.734   0.047   1.170 -0.5232 -0.2210  0.3837
  565MOL0     C76200   7.752   0.105   1.024  0.0587  0.5458 -0.1612
  565MOL0     C76201   7.837   0.237   1.012  0.5812  0.4282  0.0465
  565MOL0     C76202   7.857   0.284   0.871  0.7177  0.1494 -0.7497
  565MOL0     C76203   7.740   0.356   0.829 -0.4680 -0.0416 -0.2545
  565MOL0     C76204   7.649   0.397   0.769  0.9112 -0.5437  0.5284
  565MOL0     C76205   7.482   0.094   1.362 -0.0589 -0.2387  0.3661
  565MOL0     C76206   7.387   0.191   1.398 -0.5188 -0.9799  0.8660
  565MOL0     C76207   7.374   0.235   1.537 -0.2178  0.3996 -0.3203
  565MOL0     H76208   7.167   0.616   1.274 -0.1050 -2.5855  1.1084
  565MOL0     H76209   7.006   0.826   1.256  1.7586 -0.7333  1.4058
  565MOL0     H76210   6.652   0.791   1.372 -0.0189 -2.3228 -2.2246
  565MOL0     H76211   6.814   0.862   1.366 -0.2345  2.3233  0.4957
  565MOL0     H76212   6.740   1.039   1.218 -0.6958  0.5027 -0.4855
  565MOL0     H76213   6.660   1.047   1.369 -1.9433  1.9322 -1.7989
  565MOL0     H76214   6.451   0.902   1.237 -2.6287 -0.2936 -2.7783
  565MOL0     H76215   6.540   0.943   1.096 -1.5596 -0.1242  0.5935
  565MOL0     H76216   6.436   1.138   1.304 -1.3589  0.3333 -1.6568
  565MOL0     H76217   6.499   1.178   1.142  0.5741  2.3930  2.4999
  565MOL0     H76218   6.264   1.193   1.144 -2.6246  0.2647  1.3372
  565MOL0     H76219   6.315   1.048   1.050 -1.2122  1.3869 -1.0967
  565MOL0     H76220   6.250   0.893   1.193 -0.2219 -0.3433  0.8373
  565MOL0     H76221   6.237   1.005   1.332 -1.7127  0.5083  0.7404
  565MOL0     H76222   6.062   1.008   1.070  0.8561 -0.3357  0.9213
  565MOL0     H76223   6.050   1.123   1.204 -0.5067  0.1389 -2.2732
  565MOL0     H76224   6.027   0.808   1.188 -0.1723  1.3235 -2.8924
  565MOL0     H76225   5.973   0.911   1.330  3.4056  0.7259  0.4243
  565MOL0     H76226   5.838   1.064   1.015  0.1147  1.7500  2.5901
  565MOL0     H76227   5.463   1.012   0.976  0.0598 -1.1530  1.0990
  565MOL0     H76228   5.598   1.127   0.955 -0.1745 -0.1309  2.7337
  565MOL0     H76229   5.683   0.966   0.773 -0.7330  3.1029 -0.3027
  565MOL0     H76230   5.564   0.842   0.836 -1.7739  0.2032 -0.9174
  565MOL0     H76231   5.391   0.974   0.759 -0.3183 -1.1298  0.1557
  565MOL0     H76232   5.509   0.941   0.620  0.9488 -0.0285  0.3379
  565MOL0     H76233   5.452   1.196   0.788  0.9037 -2.9686  1.2735
  565MOL0     H76234   5.404   1.182   0.621 -2.3295  0.9917  1.3169
  565MOL0     H76235   5.450   1.289   0.460 -0.4942  1.3744  0.0993
  565MOL0     H76236   5.499   1.301   0.223 -1.4386 -1.0271  1.4618
  565MOL0     H76237   5.855   1.095  -0.116  0.0349  1.0556  1.1138
  565MOL0     H76238   5.882   1.133  -0.366 -0.4825 -0.7906  0.5201
  565MOL0     H76239   6.123   1.381  -0.632 -2.3914  1.2303  0.2916
  565MOL0     H76240   6.136   1.483  -0.498  0.5058  0.5097 -4.3356
  565MOL0     H76241   6.259   1.205  -0.534  0.9103 -1.2762  3.1470
  565MOL0     H76242   6.358   1.371  -0.536 -0.1184  1.6630  1.5400
  565MOL0     H76243   6.338   1.359  -0.289  0.4129  0.2809 -0.7953
  565MOL0     H76244   6.254   1.205  -0.294  0.5438  1.4138  3.3504
  565MOL0     H76245   6.533   1.230  -0.393  1.4240 -2.9830 -0.7956
  565MOL0     H76246   6.448   1.080  -0.384  0.0590 -1.1403  2.6376
  565MOL0     H76247   6.425   1.127  -0.134  2.0742  0.5397  3.1071
  565MOL0     H76248   6.541   1.253  -0.155  1.0091 -0.3686  2.3125
  565MOL0     H76249   6.611   0.974  -0.258  1.3891  0.3336 -1.5597
  565MOL0     H76250   6.710   1.116  -0.246  0.6593  0.9511  3.6041
  565MOL0     H76251   6.582   0.974  -0.007 -0.4919  0.5582  0.3848
  565MOL0     H76252   6.717   1.092  -0.003  1.1599 -0.3292 -0.3349
  565MOL0     H76253   6.713   0.812  -0.126  1.2516 -1.5587  1.0279
  565MOL0     H76254   6.848   0.927  -0.138 -0.2118 -2.0430 -1.3127
  565MOL0     H76255   6.106   1.487  -0.262 -0.3598 -0.1137  2.2483
  565MOL0     H76256   6.018   1.459  -0.028 -0.8041 -0.4314  0.1041
  565MOL0     H76257   5.918   1.225   0.316 -0.3198  0.1216  0.9855
  565MOL0     H76258   5.851   1.176   0.553  2.4064  1.7595 -0.6228
  565MOL0     H76259   6.711   0.566   1.107  0.8465 -1.5170 -1.0846
  565MOL0     H76260   6.872   0.364   1.119  0.8848  0.6730 -0.1742
  565MOL0     H76261   7.270   0.236   1.077 -1.4383  0.6553  2.1173
  565MOL0     H76262   7.435   0.088   1.029 -2.8740  3.0882 -0.7270
  565MOL0     H76263   7.820  -0.019   1.186 -0.8049 -1.0937 -1.3766
  565MOL0     H76264   7.731   0.136   1.232 -2.3863  1.2516 -1.6467
  565MOL0     H76265   7.656   0.132   0.979 -0.0441  1.1989  0.4339
  565MOL0     H76266   7.798   0.023   0.968  0.5229 -0.2759  1.3807
  565MOL0     H76267   7.936   0.214   1.052  0.5870  2.1630  1.1012
  565MOL0     H76268   7.800   0.316   1.077 -1.1283 -0.3232  0.0382
  565MOL0     H76269   7.936   0.359   0.864  1.0129 -0.3047 -5.1106
  565MOL0     H76270   7.879   0.198   0.807  2.6799  1.7530 -2.3450
  565MOL0     H76271   7.569   0.433   0.708  1.4454  2.4560  1.4516
  565MOL0     H76272   7.552   0.057   1.436 -1.0527 -2.9008  0.0643
  565MOL0     H76273   7.299   0.183   1.597  0.0944  1.7868  1.3585
  565MOL0     H76274   7.469   0.202   1.580  0.7249 -1.0168 -3.2837
  565MOL0     H76275   7.364   0.344   1.534 -2.6911  0.2037 -1.8538
  566MOL0     O76276   5.385   6.238   8.834  0.9101  0.7979 -0.1015
  566MOL0     C76277   5.310   6.181   8.919  0.0235 -0.0896 -0.3309
  566MOL0     O76278   5.215   6.088   8.899 -0.1861  0.2376 -0.4376
  566MOL0     C76279   5.212   6.013   8.785 -0.4407  0.5220 -0.1667
  566MOL0     C76280   5.314   5.934   8.746 -0.4002 -0.8931  0.8454
  566MOL0     C76281   5.315   5.887   8.616 -0.1474  0.6735  0.2679
  566MOL0     C76282   5.205   5.877   8.535 -0.6692 -0.1082 -0.9226
  566MOL0     O76283   5.225   5.823   8.417  0.4950  0.5229  0.7543
  566MOL0     C76284   5.119   5.842   8.320  0.6266  1.2143  0.9876
  566MOL0     C76285   5.147   5.751   8.195 -0.3757  0.6740 -0.4059
  566MOL0     C76286   5.283   5.797   8.137 -0.4701  0.3399  0.0435
  566MOL0     C76287   5.383   5.683   8.102  0.0414  0.4579  0.4693
  566MOL0     C76288   5.531   5.725   8.119  0.0619  0.0790 -0.0978
  566MOL0     C76289   5.619   5.612   8.099 -1.0117  0.6055 -0.5862
  566MOL0     C76290   5.760   5.663   8.061  0.7325  0.0251  0.0915
  566MOL0     C76291   5.863   5.550   8.071 -0.9814 -0.0072  2.1850
  566MOL0     N76292   5.885   5.479   8.199  0.3091 -0.1090 -0.3329
  566MOL0     C76293   5.909   5.525   8.322  0.1694  0.7743  0.8209
  566MOL0     C76294   5.867   5.429   8.413 -0.0020 -0.1961 -0.1143
  566MOL0     C76295   5.847   5.462   8.559  0.1417  0.8352 -1.1225
  566MOL0     C76296   5.709   5.453   8.614  0.9889  0.0296 -0.6961
  566MOL0     C76297   5.628   5.579   8.596  0.0594 -0.1583  1.0550
  566MOL0     C76298   5.679   5.700   8.667 -0.4854  0.3350 -0.2869
  566MOL0     O76299   5.768   5.776   8.583  0.1999 -0.0820  0.2821
  566MOL0     C76300   5.749   5.908   8.565 -0.0016  0.4597 -0.0455
  566MOL0     C76301   5.786   5.962   8.444 -0.3824  0.2773 -0.2674
  566MOL0     C76302   5.755   6.094   8.413  0.3213 -0.2601 -0.6108
  566MOL0     C76303   5.707   6.182   8.506 -0.7914  0.3622 -0.3118
  566MOL0     C76304   5.694   6.327   8.469 -0.3174 -0.5733  0.8147
  566MOL0     O76305   5.730   6.342   8.336 -0.7152  0.4931 -0.8789
  566MOL0     C76306   5.749   6.467   8.286  0.0172 -0.5917  0.3208
  566MOL0     C76307   5.631   6.541   8.252 -0.7348  0.1065  0.4304
  566MOL0     C76308   5.642   6.671   8.192 -0.1159  0.1449  0.3423
  566MOL0     C76309   5.773   6.731   8.176  0.0637  0.5364 -0.1595
  566MOL0     O76310   5.801   6.846   8.105 -0.4091  0.3039  0.3363
  566MOL0     C76311   5.699   6.924   8.040 -0.4735  0.5032 -0.0558
  566MOL0     C76312   5.756   7.030   7.961 -0.5090  0.1158  0.3718
  566MOL0     C76313   5.878   7.000   7.873  0.3368  0.8383 -0.0326
  566MOL0     C76314   5.913   7.116   7.782  0.3397 -0.4552  0.2022
  566MOL0     C76315   6.031   7.090   7.695 -0.3495 -0.9562  0.5994
  566MOL0     C76316   6.036   7.164   7.557 -1.5669  0.3696 -0.2053
  566MOL0     C76317   6.035   7.318   7.564 -0.0076  0.2135  0.2045
  566MOL0     C76318   6.131   7.383   7.668  0.3549 -0.7578  0.1281
  566MOL0    Cl76319   6.292   7.326   7.621  0.4901 -0.0692 -0.4077
  566MOL0     C76320   5.884   6.654   8.208 -0.8017  0.3106  0.9603
  566MOL0     C76321   5.877   6.529   8.271  0.5281  0.4470 -0.2251
  566MOL0     O76322   5.649   6.408   8.545  0.2683  0.3832  0.2188
  566MOL0     C76323   5.693   6.132   8.635  0.3193 -0.4760 -0.3691
  566MOL0     C76324   5.710   5.999   8.669 -0.2659 -0.7126  0.0357
  566MOL0     N76325   5.823   5.324   8.331  0.1031 -0.6633 -0.1318
  566MOL0     N76326   5.837   5.356   8.208  0.9435  0.0552 -0.6127
  566MOL0     C76327   5.100   5.950   8.579 -0.5403 -0.0857 -0.7242
  566MOL0     C76328   5.102   6.020   8.706  0.1652 -0.9965  0.0833
  566MOL0     C76329   5.322   6.237   9.060  0.9367  0.7844 -0.6898
  566MOL0     C76330   5.204   6.269   9.126 -0.5344 -0.7494  0.9319
  566MOL0     C76331   5.202   6.338   9.242 -0.4491  0.0649 -0.3323
  566MOL0     C76332   5.321   6.351   9.319  0.3626 -0.2531 -0.7338
  566MOL0     O76333   5.305   6.379   9.457  0.0484  0.6629  0.3421
  566MOL0     C76334   5.416   6.439   9.520 -0.2510 -0.9885  0.0611
  566MOL0     C76335   5.392   6.591   9.521  0.1893  0.0632 -0.4807
  566MOL0     C76336   5.272   6.617   9.613 -0.1105 -0.5867  0.2738
  566MOL0     C76337   5.278   6.762   9.671  0.4312  0.8649  0.1951
  566MOL0     C76338   5.166   6.773   9.774 -1.5168 -0.2909  0.0809
  566MOL0     C76339   5.077   6.774   9.857  0.2397  0.4003  0.5013
  566MOL0     C76340   5.437   6.302   9.263  0.2162 -0.8726  0.3674
  566MOL0     C76341   5.444   6.271   9.131 -0.4044  0.3289  0.7274
  566MOL0     C76342   5.587   6.234   9.077 -0.6869  0.5404  0.2911
  566MOL0     H76343   5.408   5.914   8.798  0.9606  0.6067 -0.8902
  566MOL0     H76344   5.406   5.836   8.584 -0.0092 -0.4700  2.2827
  566MOL0     H76345   5.019   5.811   8.348  0.5204  0.2520 -0.3844
  566MOL0     H76346   5.102   5.945   8.287 -0.8641  0.1662 -1.8530
  566MOL0     H76347   5.078   5.762   8.111  1.3128 -0.1641 -1.9584
  566MOL0     H76348   5.149   5.645   8.221  1.2325  1.0297  1.1054
  566MOL0     H76349   5.335   5.854   8.214 -0.9328 -4.3034  4.3817
  566MOL0     H76350   5.263   5.859   8.050  0.7114 -0.0191 -0.5056
  566MOL0     H76351   5.375   5.600   8.173 -0.9092 -2.7323 -3.0684
  566MOL0     H76352   5.354   5.648   8.003 -2.0099  3.5344 -0.1375
  566MOL0     H76353   5.543   5.805   8.045 -0.3361  1.3934  1.2165
  566MOL0     H76354   5.535   5.768   8.219 -2.2536 -2.4012  1.2064
  566MOL0     H76355   5.622   5.564   8.197  0.5780  3.0172  0.6245
  566MOL0     H76356   5.589   5.538   8.023  2.5766 -0.6719 -0.9412
  566MOL0     H76357   5.796   5.748   8.119 -0.3201  2.1566 -2.2093
  566MOL0     H76358   5.752   5.695   7.957 -0.1094 -0.0158  0.1385
  566MOL0     H76359   5.863   5.477   7.990 -0.6286 -1.3748  3.3794
  566MOL0     H76360   5.953   5.608   8.047 -2.4048  0.8076 -1.8963
  566MOL0     H76361   5.923   5.629   8.350  0.9573  0.5857  1.1359
  566MOL0     H76362   5.911   5.403   8.624  1.3197  1.3330 -1.8081
  566MOL0     H76363   5.892   5.558   8.585  0.8264  0.2691 -0.1815
  566MOL0     H76364   5.656   5.364   8.579  0.7301  0.5262 -1.6091
  566MOL0     H76365   5.721   5.445   8.722  0.4193 -1.9015 -0.7449
  566MOL0     H76366   5.528   5.556   8.633  0.4850 -1.4114  1.4592
  566MOL0     H76367   5.599   5.596   8.492 -1.2848 -2.1291  1.0474
  566MOL0     H76368   5.743   5.674   8.752  1.6419  1.5517 -1.4128
  566MOL0     H76369   5.596   5.768   8.687 -2.8465 -1.8784 -2.0648
  566MOL0     H76370   5.822   5.890   8.372 -5.8107 -1.9684 -1.2810
  566MOL0     H76371   5.771   6.127   8.310 -0.7092  0.0383 -0.6816
  566MOL0     H76372   5.536   6.493   8.270 -0.4057 -0.0597  1.8966
  566MOL0     H76373   5.559   6.726   8.148  1.4580  1.2907 -1.3787
  566MOL0     H76374   5.637   6.860   7.976  0.5337 -1.3970  0.7709
  566MOL0     H76375   5.636   6.958   8.123 -0.6487  0.2738 -0.0934
  566MOL0     H76376   5.683   7.069   7.888  3.2825 -0.8231 -4.4229
  566MOL0     H76377   5.790   7.112   8.025  2.5026 -0.4482 -0.3683
  566MOL0     H76378   5.964   6.956   7.926 -1.3656 -2.9175 -0.0350
  566MOL0     H76379   5.855   6.918   7.804  2.6058 -0.2896  0.4665
  566MOL0     H76380   5.927   7.205   7.844 -1.4903  1.8616 -2.4916
  566MOL0     H76381   5.826   7.127   7.717 -0.5892 -0.8396  1.3418
  566MOL0     H76382   6.026   6.988   7.657  4.2602 -0.2453 -2.6720
  566MOL0     H76383   6.118   7.116   7.756 -0.2945 -1.4723  0.7431
  566MOL0     H76384   6.129   7.123   7.517  0.2013  2.9067  1.0929
  566MOL0     H76385   5.950   7.115   7.510 -2.2268 -1.2466  2.4852
  566MOL0     H76386   5.936   7.358   7.589  0.8851  0.6990  3.4023
  566MOL0     H76387   6.053   7.353   7.462  1.5465  0.8305  0.6522
  566MOL0     H76388   6.115   7.491   7.674 -1.5793 -1.0535  1.0730
  566MOL0     H76389   6.109   7.348   7.769  2.7716 -1.7380  0.3759
  566MOL0     H76390   5.986   6.679   8.183 -1.2528  0.3304 -1.0556
  566MOL0     H76391   5.967   6.474   8.297  0.0071 -0.1902  0.2755
  566MOL0     H76392   5.669   6.215   8.701  0.5428 -0.7111  0.0129
  566MOL0     H76393   5.702   5.980   8.776  4.9585  2.1990  1.2813
  566MOL0     H76394   5.010   5.959   8.518  1.3423 -0.4109 -3.7679
  566MOL0     H76395   5.018   6.077   8.743  1.8443  2.1278 -0.5320
  566MOL0     H76396   5.102   6.256   9.088 -0.0235  1.2191 -1.3309
  566MOL0     H76397   5.110   6.386   9.273  0.7865  2.1653  0.3105
  566MOL0     H76398   5.506   6.418   9.461 -1.7089  0.2553 -2.7901
  566MOL0     H76399   5.433   6.397   9.620  2.4691  1.7136  0.8892
  566MOL0     H76400   5.356   6.610   9.419 -2.7032  0.7280  0.5842
  566MOL0     H76401   5.490   6.627   9.553  0.0620 -2.4760  3.3570
  566MOL0     H76402   5.275   6.554   9.703  0.5546  2.0433  2.2282
  566MOL0     H76403   5.182   6.599   9.552  0.5979 -1.5288 -0.5127
  566MOL0     H76404   5.374   6.768   9.724  0.1915  0.4767  0.6729
  566MOL0     H76405   5.271   6.828   9.584  1.9839 -0.8340 -1.2888
  566MOL0     H76406   5.019   6.774   9.947  1.2482  2.2870  1.2192
  566MOL0     H76407   5.528   6.302   9.323 -0.1322 -0.0243  0.9306
  566MOL0     H76408   5.636   6.318   9.027  1.5805  0.8626  2.8048
  566MOL0     H76409   5.653   6.207   9.160 -0.3645  1.7063  0.4204
  566MOL0     H76410   5.583   6.145   9.013 -1.3199 -1.1880  2.6033
  567MOL0     O76411  11.341   8.914   9.037 -0.0270 -0.1940  0.6870
  567MOL0     C76412  11.355   8.983   8.935 -0.8467  0.4432  0.6884
  567MOL0     O76413  11.280   8.967   8.826 -0.3761 -0.3979  0.9999
  567MOL0     C76414  11.183   8.861   8.818 -0.5446 -0.9666 -0.3763
  567MOL0     C76415  11.219   8.748   8.754 -0.2280 -0.3824 -0.7418
  567MOL0     C76416  11.128   8.642   8.715  0.1879 -0.4440  0.2174
  567MOL0     C76417  10.995   8.668   8.748  0.3109 -0.1712  0.8917
  567MOL0     O76418  10.902   8.574   8.710 -1.6093  0.3007 -0.2563
  567MOL0     C76419  10.788   8.562   8.798  0.0694 -0.0203  0.2569
  567MOL0     C76420  10.717   8.432   8.768 -0.3328 -0.2802  0.2525
  567MOL0     C76421  10.811   8.310   8.787  1.0592  0.4608 -0.1915
  567MOL0     C76422  10.859   8.267   8.656  0.4193  0.1955  0.1809
  567MOL0     C76423  10.997   8.210   8.652 -0.0469  0.4382  0.3020
  567MOL0     C76424  11.057   8.201   8.520  0.0016  0.9928  0.3223
  567MOL0     C76425  11.185   8.126   8.547 -0.1083 -0.2576  1.1851
  567MOL0     C76426  11.290   8.148   8.428 -0.1880  0.0145 -0.7775
  567MOL0     N76427  11.243   8.102   8.298 -0.2241 -0.8382  1.1117
  567MOL0     C76428  11.244   7.978   8.250 -0.2014 -0.5122  0.4317
  567MOL0     C76429  11.176   7.979   8.134 -0.2088  0.2561 -0.4099
  567MOL0     C76430  11.152   7.863   8.047 -0.2874 -0.2534  0.0613
  567MOL0     C76431  11.023   7.800   8.110  0.3348 -1.0529  0.3095
  567MOL0     C76432  10.995   7.656   8.074  0.9535  0.3905  0.9371
  567MOL0     C76433  10.860   7.621   8.123  0.4911  0.4985  0.0957
  567MOL0     O76434  10.840   7.602   8.266  0.7937  0.3445  0.0621
  567MOL0     C76435  10.709   7.563   8.308 -0.8520 -1.0691 -0.3364
  567MOL0     C76436  10.603   7.538   8.219  0.0893 -1.2445  0.4643
  567MOL0     C76437  10.485   7.484   8.269 -1.0359  0.7601  0.3379
  567MOL0     C76438  10.467   7.463   8.407  0.3404 -0.1325  0.2451
  567MOL0     C76439  10.351   7.396   8.463  0.4656 -0.5289  0.4775
  567MOL0     O76440  10.315   7.426   8.591 -0.4736 -0.5078  0.2496
  567MOL0     C76441  10.195   7.379   8.645  0.1334  0.4092  0.0515
  567MOL0     C76442  10.074   7.371   8.569 -0.0895  0.7818  0.2930
  567MOL0     C76443   9.946   7.347   8.629  0.1409  0.5450  0.3279
  567MOL0     C76444   9.940   7.335   8.767 -0.1638  0.5042 -0.5588
  567MOL0     O76445   9.817   7.332   8.839 -0.0197  0.0669  0.1975
  567MOL0     C76446   9.723   7.236   8.793  0.5335  0.0739 -0.1897
  567MOL0     C76447   9.577   7.297   8.785  0.7500 -0.2074  0.5191
  567MOL0     C76448   9.534   7.335   8.925 -0.3017 -0.0954 -0.0708
  567MOL0     C76449   9.377   7.358   8.935 -1.2987 -0.9793 -0.3253
  567MOL0     C76450   9.304   7.222   8.939 -0.1063  0.0016 -0.5187
  567MOL0     C76451   9.157   7.255   8.951  0.6413  0.4358 -0.0311
  567MOL0     C76452   9.117   7.364   9.052 -0.4049  0.6051 -1.8111
  567MOL0     C76453   9.142   7.320   9.201  0.2283 -0.2119  0.0853
  567MOL0    Cl76454   9.052   7.168   9.242 -0.1949  0.0189 -0.3921
  567MOL0     C76455  10.055   7.360   8.846  0.7477  0.8392 -0.3054
  567MOL0     C76456  10.180   7.383   8.787 -0.4012 -0.5159  0.3698
  567MOL0     O76457  10.297   7.305   8.395 -0.6396  0.2447 -0.2713
  567MOL0     C76458  10.572   7.489   8.499 -0.1769 -0.2382  0.5714
  567MOL0     C76459  10.693   7.550   8.442 -0.2598 -0.2309  0.4983
  567MOL0     N76460  11.148   8.111   8.108  0.9058  0.2912  0.8948
  567MOL0     N76461  11.196   8.179   8.202  0.3007 -0.7643  0.0065
  567MOL0     C76462  10.954   8.780   8.820 -0.0378  0.2771 -0.4734
  567MOL0     C76463  11.051   8.875   8.855  0.0389 -0.0425  0.8788
  567MOL0     C76464  11.469   9.081   8.934  0.4799  0.1058  1.0164
  567MOL0     C76465  11.522   9.115   8.804  0.1177  0.7211 -0.1237
  567MOL0     C76466  11.614   9.212   8.778  0.1566  0.8381 -0.2568
  567MOL0     C76467  11.670   9.280   8.890  0.0638 -0.9648 -0.0222
  567MOL0     O76468  11.764   9.383   8.875 -0.3144  0.6950  0.3509
  567MOL0     C76469  11.896   9.359   8.919  0.3213 -0.1811  0.3237
  567MOL0     C76470  11.985   9.358   8.799 -0.6083 -1.0400 -0.6484
  567MOL0     C76471  12.123   9.292   8.818 -0.0429  0.1919  0.1687
  567MOL0     C76472  12.227   9.366   8.904  0.3038 -0.3127 -0.2709
  567MOL0     C76473  12.185   9.350   9.044 -0.5125  0.3367 -0.3579
  567MOL0     C76474  12.172   9.351   9.164 -0.2267  1.1960  0.3538
  567MOL0     C76475  11.616   9.252   9.019 -0.2985 -0.3978  0.4512
  567MOL0     C76476  11.519   9.153   9.042  0.4698 -0.4417  0.4520
  567MOL0     C76477  11.461   9.125   9.181 -0.1612 -0.0118  0.5992
  567MOL0     H76478  11.324   8.727   8.739 -0.8407 -3.5029 -1.2138
  567MOL0     H76479  11.152   8.545   8.674  1.1732  0.3170 -1.0845
  567MOL0     H76480  10.815   8.548   8.902  0.7243 -1.5475 -0.0944
  567MOL0     H76481  10.724   8.651   8.785  2.5442  2.1131  1.7653
  567MOL0     H76482  10.679   8.451   8.667  0.1383 -0.5308  0.0260
  567MOL0     H76483  10.629   8.413   8.830 -1.9457 -4.2270 -2.8178
  567MOL0     H76484  10.751   8.236   8.841 -0.9751  2.6366  0.7250
  567MOL0     H76485  10.894   8.339   8.852 -0.6885  1.4955  1.7225
  567MOL0     H76486  10.790   8.189   8.622  2.0290 -1.8697  1.3962
  567MOL0     H76487  10.857   8.351   8.586  3.6423  0.4607  0.2515
  567MOL0     H76488  11.064   8.257   8.724 -0.8870 -1.8413  2.7776
  567MOL0     H76489  10.978   8.110   8.695 -0.3620  1.0727  1.7157
  567MOL0     H76490  10.986   8.148   8.455  1.4797  0.7657 -1.1764
  567MOL0     H76491  11.080   8.297   8.473 -0.6972  1.5180  1.0217
  567MOL0     H76492  11.177   8.017   8.540  4.5196 -0.7272 -3.0923
  567MOL0     H76493  11.239   8.147   8.640  1.3312 -0.5499  0.4454
  567MOL0     H76494  11.313   8.254   8.415  2.8586 -0.7734 -3.2570
  567MOL0     H76495  11.381   8.094   8.457 -1.8059 -1.5972  1.7270
  567MOL0     H76496  11.277   7.887   8.300  0.5616  0.4525  1.7128
  567MOL0     H76497  11.138   7.903   7.946 -0.9470 -0.5466  0.0282
  567MOL0     H76498  11.240   7.798   8.048  0.4846  0.7568  1.4655
  567MOL0     H76499  11.041   7.798   8.218 -2.0566 -0.9072  0.7603
  567MOL0     H76500  10.943   7.865   8.075  2.0772  1.4138  0.6905
  567MOL0     H76501  11.066   7.585   8.119  0.9481 -1.2813 -1.4963
  567MOL0     H76502  11.001   7.646   7.965 -2.4949 -0.8785  0.7335
  567MOL0     H76503  10.833   7.523   8.083  2.8586 -0.4823  0.7116
  567MOL0     H76504  10.793   7.702   8.092  2.2937  2.3061  0.6868
  567MOL0     H76505  10.614   7.547   8.111  1.9648 -0.4961  0.6928
  567MOL0     H76506  10.410   7.449   8.199 -0.6464 -3.7874  1.8233
  567MOL0     H76507  10.085   7.387   8.463 -1.0911 -1.5076 -0.2415
  567MOL0     H76508   9.860   7.334   8.564  1.6706  0.5759 -1.8197
  567MOL0     H76509   9.726   7.194   8.692 -4.2634 -3.4930  0.7673
  567MOL0     H76510   9.724   7.153   8.864  0.9515 -0.0014 -0.2843
  567MOL0     H76511   9.573   7.385   8.721 -0.6344  1.2525  2.4647
  567MOL0     H76512   9.511   7.218   8.747  0.1517  0.3429  0.4122
  567MOL0     H76513   9.566   7.253   8.989  1.4054  0.0232 -0.7085
  567MOL0     H76514   9.594   7.420   8.959  2.4053 -1.7153 -0.5551
  567MOL0     H76515   9.350   7.415   8.846 -2.2972  0.5495  0.8939
  567MOL0     H76516   9.362   7.406   9.032 -0.3678 -2.4391  0.5693
  567MOL0     H76517   9.330   7.176   9.035 -2.2498 -0.3570 -0.0452
  567MOL0     H76518   9.338   7.173   8.848  2.4389  0.1678  0.2825
  567MOL0     H76519   9.120   7.297   8.857 -4.3067 -1.2370  0.8929
  567MOL0     H76520   9.097   7.164   8.962 -0.9249  1.4625  0.3119
  567MOL0     H76521   9.009   7.368   9.037 -1.2417 -4.4572  0.7205
  567MOL0     H76522   9.163   7.460   9.027  2.8637 -0.2439  0.2432
  567MOL0     H76523   9.249   7.305   9.217 -0.1819 -1.6936  1.7488
  567MOL0     H76524   9.113   7.395   9.275 -1.4761 -1.1695  0.4416
  567MOL0     H76525  10.045   7.355   8.954 -4.3031 -0.9006 -0.6299
  567MOL0     H76526  10.259   7.399   8.860 -0.3764  1.5779 -0.0618
  567MOL0     H76527  10.560   7.464   8.604  0.5429  1.4142  1.0668
  567MOL0     H76528  10.773   7.582   8.508 -0.3369  1.2136 -0.0859
  567MOL0     H76529  10.851   8.802   8.848 -0.7631 -0.6081 -2.2496
  567MOL0     H76530  11.031   8.964   8.912 -2.0393 -0.4143  0.8221
  567MOL0     H76531  11.478   9.063   8.719 -0.9654  2.7043 -0.8497
  567MOL0     H76532  11.639   9.222   8.673  1.4907  1.3338  0.0788
  567MOL0     H76533  11.904   9.264   8.972  3.3860 -1.6928 -2.4429
  567MOL0     H76534  11.920   9.440   8.988 -2.2319  0.3015  0.7517
  567MOL0     H76535  11.984   9.458   8.755 -2.1376  0.3527  2.3087
  567MOL0     H76536  11.938   9.292   8.726 -1.9195 -0.4894 -0.3168
  567MOL0     H76537  12.170   9.266   8.723 -0.2811 -1.6909  0.5336
  567MOL0     H76538  12.098   9.195   8.861 -1.2263 -0.3031 -1.5342
  567MOL0     H76539  12.320   9.312   8.885  1.8479  0.8477  3.0837
  567MOL0     H76540  12.242   9.471   8.876  0.5743 -0.2361  0.1467
  567MOL0     H76541  12.167   9.357   9.271  1.3525  2.6245  0.3873
  567MOL0     H76542  11.656   9.326   9.088 -0.7574  0.0150  0.2751
  567MOL0     H76543  11.498   9.198   9.254 -1.0107  2.9426 -1.7287
  567MOL0     H76544  11.356   9.144   9.157  0.4343  1.1220 -1.3098
  567MOL0     H76545  11.475   9.025   9.225  0.5377  0.2254  0.9296
  568MOL0     O76546  11.007  11.479   7.012 -0.0630  0.8902 -0.1386
  568MOL0     C76547  10.903  11.506   7.079 -0.7087  0.1805 -0.5786
  568MOL0     O76548  10.907  11.556   7.201 -0.4379 -0.2814 -0.4670
  568MOL0     C76549  11.028  11.605   7.245 -0.1073 -0.8651  0.1292
  568MOL0     C76550  11.096  11.710   7.180  0.2574  0.2048  0.1700
  568MOL0     C76551  11.217  11.751   7.239 -0.0792  0.6662 -0.7821
  568MOL0     C76552  11.274  11.692   7.349  0.7706 -0.1696  0.3218
  568MOL0     O76553  11.401  11.721   7.403 -0.1926 -0.8135  0.6718
  568MOL0     C76554  11.466  11.837   7.349 -0.2309  0.5263 -0.2749
  568MOL0     C76555  11.599  11.825   7.434  0.4660 -0.7997  0.1582
  568MOL0     C76556  11.706  11.928   7.408  0.0544 -0.5179  0.0962
  568MOL0     C76557  11.786  11.943   7.535 -0.3277 -0.9190  0.3920
  568MOL0     C76558  11.917  12.028   7.512 -0.4104 -0.4042  0.1606
  568MOL0     C76559  11.888  12.176   7.462 -0.2633  0.1890 -0.4211
  568MOL0     C76560  12.010  12.270   7.472  0.9918  0.4458 -0.3249
  568MOL0     C76561  12.000  12.392   7.389 -0.1860  0.1368 -0.1779
  568MOL0     N76562  12.118  12.481   7.437 -0.2465  0.1225  0.5774
  568MOL0     C76563  12.244  12.471   7.391  0.2199  0.6908 -0.0295
  568MOL0     C76564  12.314  12.567   7.455 -0.6593  0.4578  0.8635
  568MOL0     C76565  12.456  12.589   7.424 -0.1179 -0.8634  0.2090
  568MOL0     C76566  12.476  12.729   7.362  0.7180  0.5273  0.4937
  568MOL0     C76567  12.447  12.846   7.466 -0.2210 -0.3736 -0.2235
  568MOL0     C76568  12.527  12.971   7.422 -0.1363 -0.6500 -0.4101
  568MOL0     O76569  12.523  12.996   7.282  0.2113  0.2702 -0.8846
  568MOL0     C76570  12.412  13.045   7.231 -0.9373 -0.1980 -0.0162
  568MOL0     C76571  12.421  13.074   7.094 -0.0110 -0.4577  0.1479
  568MOL0     C76572  12.313  13.146   7.038  0.6265 -0.0065 -0.2620
  568MOL0     C76573  12.202  13.195   7.107 -0.3961 -0.1967 -0.5695
  568MOL0     C76574  12.084  13.239   7.041  0.6021 -0.8488 -0.0925
  568MOL0     O76575  12.103  13.274   6.908  0.1041  0.0845  0.3981
  568MOL0     C76576  12.006  13.343   6.835  0.2451  0.9738  0.5462
  568MOL0     C76577  12.026  13.337   6.692  0.2718 -0.5525  0.5474
  568MOL0     C76578  11.940  13.403   6.604 -0.8393 -0.1663  0.0720
  568MOL0     C76579  11.838  13.471   6.653 -0.2466 -0.6316 -0.1910
  568MOL0     O76580  11.771  13.546   6.564 -0.3181  0.0336  0.4684
  568MOL0     C76581  11.690  13.664   6.598 -0.4904 -0.0962 -0.2730
  568MOL0     C76582  11.653  13.725   6.462  0.1804 -0.5553  0.7861
  568MOL0     C76583  11.582  13.617   6.371 -0.4200  0.3656  0.1034
  568MOL0     C76584  11.478  13.685   6.273 -0.1274  0.0988  1.7412
  568MOL0     C76585  11.531  13.705   6.125 -0.8880  0.1657 -0.5330
  568MOL0     C76586  11.634  13.824   6.120  0.3180 -0.1211 -0.1551
  568MOL0     C76587  11.682  13.900   5.991 -0.8302 -0.4461  0.7411
  568MOL0     C76588  11.763  13.804   5.893  0.6753 -0.1866 -0.0397
  568MOL0    Cl76589  11.917  13.731   5.952  0.5768 -0.0952 -0.5930
  568MOL0     C76590  11.811  13.469   6.794  0.4454 -0.0260 -0.3450
  568MOL0     C76591  11.901  13.418   6.887  0.3594  0.9441  0.7964
  568MOL0     O76592  11.974  13.238   7.096  0.6855 -0.0235 -0.1014
  568MOL0     C76593  12.199  13.173   7.243 -0.5603  0.3769 -0.3289
  568MOL0     C76594  12.302  13.093   7.311 -0.4053 -0.5180 -0.5279
  568MOL0     N76595  12.237  12.629   7.553  0.5633  0.6097 -0.2178
  568MOL0     N76596  12.120  12.577   7.544  0.0836 -0.4684 -0.2448
  568MOL0     C76597  11.203  11.584   7.408 -0.7020  0.2261  0.3742
  568MOL0     C76598  11.076  11.545   7.364 -0.3435 -0.0990 -0.3439
  568MOL0     C76599  10.763  11.480   7.024  0.5477 -0.5991 -0.7941
  568MOL0     C76600  10.652  11.526   7.103  0.3253 -0.5670  0.4602
  568MOL0     C76601  10.518  11.526   7.046  1.0176  0.7450 -0.0998
  568MOL0     C76602  10.492  11.443   6.936 -1.1387 -1.7548  1.0765
  568MOL0     O76603  10.363  11.418   6.893 -0.3228 -0.5988 -0.7053
  568MOL0     C76604  10.344  11.376   6.760  1.3020 -0.2978 -0.3146
  568MOL0     C76605  10.197  11.408   6.729  0.4911 -0.0123 -0.5328
  568MOL0     C76606  10.090  11.335   6.816  0.5165 -0.0439  0.6914
  568MOL0     C76607   9.948  11.375   6.760  0.4393  0.7842 -0.8066
  568MOL0     C76608   9.880  11.478   6.835 -0.1016 -0.9325  0.7258
  568MOL0     C76609   9.805  11.556   6.904 -0.3767  0.0530 -0.3437
  568MOL0     C76610  10.606  11.392   6.859 -0.7789  0.5261 -0.6908
  568MOL0     C76611  10.735  11.409   6.902 -0.4085 -0.4267 -0.0664
  568MOL0     C76612  10.848  11.356   6.808 -0.1853 -0.1051  0.3169
  568MOL0     H76613  11.046  11.753   7.093 -0.3115 -1.7776 -0.5552
  568MOL0     H76614  11.267  11.832   7.187 -1.2708  1.9289 -0.0248
  568MOL0     H76615  11.493  11.846   7.244 -0.2860 -0.3495 -0.3690
  568MOL0     H76616  11.406  11.925   7.372 -1.5332 -0.2477 -0.5661
  568MOL0     H76617  11.644  11.729   7.405  1.0995 -0.1137 -1.2256
  568MOL0     H76618  11.579  11.818   7.541  3.4306 -1.9036  0.7275
  568MOL0     H76619  11.667  12.023   7.370 -0.7440 -1.2408 -0.9299
  568MOL0     H76620  11.764  11.896   7.321 -0.3462 -1.5087  0.1895
  568MOL0     H76621  11.720  11.978   7.614  0.1375  1.4283 -0.1638
  568MOL0     H76622  11.818  11.848   7.578 -0.6803 -1.3000 -0.1653
  568MOL0     H76623  11.962  12.047   7.610  1.5298 -0.2266 -0.7105
  568MOL0     H76624  11.984  11.965   7.452 -1.0598 -1.2656  0.3177
  568MOL0     H76625  11.858  12.175   7.357  0.4710 -3.9845 -0.7489
  568MOL0     H76626  11.802  12.215   7.519 -0.3080  1.4834 -1.3254
  568MOL0     H76627  12.095  12.206   7.446  0.2919 -0.3883 -0.6440
  568MOL0     H76628  12.014  12.301   7.576  1.1086 -0.4802 -0.0391
  568MOL0     H76629  12.012  12.364   7.284 -0.8967 -1.2671  0.0978
  568MOL0     H76630  11.907  12.444   7.413 -0.3003 -0.0093 -0.3015
  568MOL0     H76631  12.285  12.407   7.315 -1.2241  1.0217 -1.1249
  568MOL0     H76632  12.517  12.587   7.515 -0.0599  3.1079  0.4168
  568MOL0     H76633  12.489  12.510   7.356  0.7976  1.2847 -1.9910
  568MOL0     H76634  12.582  12.732   7.336  1.2610  0.9272  2.5994
  568MOL0     H76635  12.413  12.750   7.275 -0.6057  2.6811  1.8723
  568MOL0     H76636  12.488  12.823   7.565 -0.8045 -0.4864 -0.0075
  568MOL0     H76637  12.340  12.866   7.475 -0.0035  1.4914 -1.3782
  568MOL0     H76638  12.631  12.967   7.454 -0.9386  1.9933  3.2196
  568MOL0     H76639  12.496  13.052   7.489  1.5021  1.9570 -2.5940
  568MOL0     H76640  12.503  13.025   7.041 -2.1889 -1.9170 -2.1614
  568MOL0     H76641  12.320  13.152   6.930  2.8518 -2.5368 -0.3836
  568MOL0     H76642  12.113  13.282   6.657  0.0612 -0.9724  0.6745
  568MOL0     H76643  11.946  13.407   6.496 -4.1754  1.0651 -0.2096
  568MOL0     H76644  11.600  13.631   6.651 -0.8018  2.3241  0.8617
  568MOL0     H76645  11.746  13.725   6.669 -1.5137  1.4670 -0.7683
  568MOL0     H76646  11.592  13.815   6.473  1.8501  0.6718  0.3671
  568MOL0     H76647  11.753  13.749   6.425 -0.8661  0.5013 -1.5402
  568MOL0     H76648  11.656  13.557   6.318  1.6414  0.6576  2.4786
  568MOL0     H76649  11.526  13.543   6.429  1.7343 -0.2646  1.5040
  568MOL0     H76650  11.433  13.775   6.314  1.3907  1.3866  0.7324
  568MOL0     H76651  11.399  13.611   6.257 -2.0055  2.4652 -1.0906
  568MOL0     H76652  11.455  13.738   6.053  0.7679  1.0370 -1.9533
  568MOL0     H76653  11.573  13.612   6.084 -2.3391 -0.8450  0.1763
  568MOL0     H76654  11.587  13.906   6.174 -4.7890 -1.1331 -2.3962
  568MOL0     H76655  11.728  13.792   6.164  1.0573  0.9043 -0.9493
  568MOL0     H76656  11.726  14.000   6.005 -0.6738 -0.7096  2.3229
  568MOL0     H76657  11.598  13.925   5.925  0.8934 -0.6825 -1.6295
  568MOL0     H76658  11.701  13.715   5.874 -1.1588  0.7651  1.1442
  568MOL0     H76659  11.775  13.857   5.798  0.2462 -0.2355 -0.1234
  568MOL0     H76660  11.719  13.520   6.817 -0.5653  0.5558 -4.7837
  568MOL0     H76661  11.867  13.427   6.989 -2.3056  1.8258 -0.1044
  568MOL0     H76662  12.117  13.210   7.303 -0.5536 -0.8297  0.4672
  568MOL0     H76663  12.272  13.078   7.415  0.6851  0.5548 -0.0394
  568MOL0     H76664  11.263  11.540   7.486  1.2974  0.7812 -0.7642
  568MOL0     H76665  11.032  11.461   7.417  0.4140  0.2252  0.8212
  568MOL0     H76666  10.659  11.572   7.201  1.2924 -2.3079  1.2583
  568MOL0     H76667  10.442  11.578   7.102 -0.6461 -0.8300 -0.7828
  568MOL0     H76668  10.347  11.267   6.745 -1.9985 -0.5400  0.1686
  568MOL0     H76669  10.416  11.427   6.695  2.4245 -0.4186  0.7888
  568MOL0     H76670  10.180  11.406   6.621  1.0073 -1.3011 -0.6045
  568MOL0     H76671  10.191  11.515   6.753  0.3069  0.6795 -3.3075
  568MOL0     H76672  10.094  11.348   6.925  0.4866 -0.0470  0.6930
  568MOL0     H76673  10.108  11.229   6.799 -0.8175  0.1914 -3.1463
  568MOL0     H76674   9.944  11.406   6.655 -0.8611 -0.5974 -1.2167
  568MOL0     H76675   9.888  11.285   6.741  2.6642 -0.9563  0.0165
  568MOL0     H76676   9.742  11.613   6.969  0.8635  0.1696  0.7957
  568MOL0     H76677  10.599  11.338   6.765  2.6748 -2.4912  0.5648
  568MOL0     H76678  10.906  11.278   6.858 -1.7365  0.2004  2.7628
  568MOL0     H76679  10.804  11.309   6.719  1.6489  0.3674 -0.9103
  568MOL0     H76680  10.920  11.428   6.767  2.5035 -1.5051  2.2427
  569MOL0     O76681   5.158   6.991   3.703  0.2798 -0.4763  0.2253
  569MOL0     C76682   5.253   6.954   3.625 -0.3362  0.2818  0.0696
  569MOL0     O76683   5.378   6.926   3.664  0.0226 -0.2034  0.8790
  569MOL0     C76684   5.442   6.934   3.794  1.0248 -1.0330  0.9101
  569MOL0     C76685   5.373   6.966   3.903 -0.1134  0.3298 -0.4962
  569MOL0     C76686   5.426   6.941   4.029  0.7042  0.2688  0.0488
  569MOL0     C76687   5.560   6.901   4.042  0.2297 -0.3129  0.0142
  569MOL0     O76688   5.630   6.866   4.154 -0.2913  0.1307  0.5330
  569MOL0     C76689   5.581   6.900   4.282  0.3324 -0.9619 -0.2697
  569MOL0     C76690   5.605   7.049   4.327 -0.1858 -0.3946  0.1788
  569MOL0     C76691   5.585   7.071   4.473  0.3433 -0.8190 -1.0088
  569MOL0     C76692   5.588   7.224   4.502 -0.0153  0.5779 -0.8515
  569MOL0     C76693   5.575   7.263   4.650  0.4978  0.2639 -0.9523
  569MOL0     C76694   5.647   7.390   4.684  0.3716 -0.6979 -0.0317
  569MOL0     C76695   5.580   7.518   4.629 -0.3259 -1.4447 -0.3849
  569MOL0     C76696   5.659   7.645   4.648  0.2341 -0.4054 -0.0521
  569MOL0     N76697   5.594   7.777   4.615 -0.5673  0.3859 -0.5803
  569MOL0     C76698   5.598   7.878   4.709 -0.3490 -0.6021 -0.2864
  569MOL0     C76699   5.518   7.979   4.665 -0.6898 -0.1761 -0.1933
  569MOL0     C76700   5.500   8.103   4.743  0.0971 -0.6694 -0.0764
  569MOL0     C76701   5.603   8.210   4.701 -0.2871  0.0990 -0.6317
  569MOL0     C76702   5.617   8.316   4.820  1.0321  0.4171  0.0192
  569MOL0     C76703   5.705   8.432   4.788  0.0838 -0.9594 -0.4711
  569MOL0     O76704   5.717   8.515   4.905 -0.6329  0.1203  0.2532
  569MOL0     C76705   5.645   8.625   4.912 -0.7312 -0.0420  0.1254
  569MOL0     C76706   5.536   8.674   4.833  0.6155  0.4864 -0.0863
  569MOL0     C76707   5.485   8.811   4.856  0.8950  0.8954  0.0605
  569MOL0     C76708   5.552   8.900   4.940  0.8870  0.1447  0.1119
  569MOL0     C76709   5.502   9.030   4.966 -0.1319 -0.9303 -0.4789
  569MOL0     O76710   5.568   9.096   5.069 -0.3977  0.5098  0.2403
  569MOL0     C76711   5.525   9.224   5.088  1.0809  0.5083  0.6028
  569MOL0     C76712   5.601   9.323   5.038 -0.5781  0.8023  0.5810
  569MOL0     C76713   5.566   9.452   5.062  0.8268  0.1520  0.0035
  569MOL0     C76714   5.446   9.489   5.128 -0.9444  0.8788 -0.2280
  569MOL0     O76715   5.430   9.623   5.134  0.5493 -0.3379  0.1786
  569MOL0     C76716   5.308   9.674   5.188 -0.5892  0.3817  0.7784
  569MOL0     C76717   5.331   9.815   5.242 -1.2771  0.2237 -0.7232
  569MOL0     C76718   5.201   9.893   5.255 -0.6310  0.6358 -0.8898
  569MOL0     C76719   5.241  10.034   5.312 -0.6363  0.3358 -0.3244
  569MOL0     C76720   5.106  10.113   5.327  1.1539 -0.4040  0.5236
  569MOL0     C76721   5.139  10.261   5.358  0.6578 -1.0510  0.5087
  569MOL0     C76722   5.026  10.360   5.323  0.8965 -0.6519 -1.6458
  569MOL0     C76723   4.893  10.345   5.396  0.6668  0.8707 -0.7002
  569MOL0    Cl76724   4.918  10.334   5.569  0.0283 -0.9145  0.0831
  569MOL0     C76725   5.361   9.381   5.178  0.1709 -1.4141 -1.1534
  569MOL0     C76726   5.409   9.251   5.164 -0.0604 -1.3103 -1.4802
  569MOL0     O76727   5.411   9.080   4.898  0.4065 -0.1201 -0.0439
  569MOL0     C76728   5.646   8.844   5.027  0.3689  0.6969 -0.4231
  569MOL0     C76729   5.699   8.718   5.010  0.2171  0.0318  0.2503
  569MOL0     N76730   5.440   7.913   4.572 -0.7836 -0.6051 -1.0259
  569MOL0     N76731   5.487   7.800   4.534  0.2743 -0.0639 -0.3699
  569MOL0     C76732   5.634   6.867   3.932 -0.3013 -0.6995  1.1092
  569MOL0     C76733   5.579   6.892   3.802 -0.2853  0.8526 -0.3272
  569MOL0     C76734   5.219   6.969   3.478  0.5613  0.2720  0.0649
  569MOL0     C76735   5.102   7.038   3.445  0.4498 -0.3906 -0.4533
  569MOL0     C76736   5.069   7.059   3.311 -0.2022  0.0729  0.3537
  569MOL0     C76737   5.148   7.017   3.206  0.8472  1.2706  0.3604
  569MOL0     O76738   5.116   7.055   3.085  0.4577 -0.3166  0.1837
  569MOL0     C76739   5.221   7.082   2.988 -0.5574  0.4859  0.4454
  569MOL0     C76740   5.181   7.070   2.840  0.2912 -0.0471 -0.0400
  569MOL0     C76741   5.061   7.172   2.818 -0.5861 -0.2704  1.3216
  569MOL0     C76742   5.034   7.193   2.667 -0.2654 -0.6521 -0.0933
  569MOL0     C76743   4.956   7.072   2.613  0.6442  0.3320  0.1476
  569MOL0     C76744   4.906   6.974   2.577 -0.1753  0.5990 -0.4456
  569MOL0     C76745   5.254   6.928   3.240 -0.4715 -0.1559  0.5647
  569MOL0     C76746   5.295   6.912   3.374  0.0728  0.6572 -0.2479
  569MOL0     C76747   5.402   6.818   3.407  0.5921 -0.2432  0.1109
  569MOL0     H76748   5.271   7.003   3.906 -0.6376 -1.1024  0.3388
  569MOL0     H76749   5.366   6.963   4.117  0.8220  0.9365 -0.0320
  569MOL0     H76750   5.477   6.867   4.283  0.9697 -3.1476 -0.9484
  569MOL0     H76751   5.628   6.834   4.356  2.2198  1.8240  1.1925
  569MOL0     H76752   5.537   7.113   4.270 -0.0708 -1.6202 -1.4321
  569MOL0     H76753   5.701   7.086   4.291 -0.8530  1.0226 -0.2283
  569MOL0     H76754   5.668   7.020   4.524 -0.1863 -0.9136 -0.2262
  569MOL0     H76755   5.487   7.034   4.504  0.4937  0.3600  1.0533
  569MOL0     H76756   5.678   7.273   4.464 -0.4329  1.9575 -0.1264
  569MOL0     H76757   5.510   7.267   4.440 -1.2774 -0.1357  0.1784
  569MOL0     H76758   5.471   7.270   4.683  0.1459 -0.3424 -1.8940
  569MOL0     H76759   5.633   7.190   4.707 -0.0218 -0.4842 -1.3654
  569MOL0     H76760   5.640   7.405   4.792  0.5667  0.2806 -0.1478
  569MOL0     H76761   5.752   7.388   4.655  0.1546 -0.5800 -0.8398
  569MOL0     H76762   5.484   7.522   4.682  0.2652  0.0479  0.6360
  569MOL0     H76763   5.548   7.505   4.525 -3.8366  3.2212 -0.2144
  569MOL0     H76764   5.682   7.647   4.755  0.9115 -0.3266 -0.1984
  569MOL0     H76765   5.757   7.633   4.602  2.5216  4.8940  2.6322
  569MOL0     H76766   5.664   7.886   4.795 -0.1377 -0.6452 -0.4436
  569MOL0     H76767   5.398   8.142   4.732  0.1973  0.4570  2.3843
  569MOL0     H76768   5.499   8.097   4.852 -0.7870  3.2598  0.2888
  569MOL0     H76769   5.698   8.161   4.678 -0.8927 -1.1016 -0.6319
  569MOL0     H76770   5.559   8.264   4.617 -0.4597  2.4339  0.8657
  569MOL0     H76771   5.650   8.268   4.913 -0.8024 -0.9614  0.0271
  569MOL0     H76772   5.518   8.359   4.837  1.1975  0.7509  0.1287
  569MOL0     H76773   5.673   8.497   4.705  0.4998  1.2563  0.9993
  569MOL0     H76774   5.800   8.383   4.766  0.4862 -0.8832  1.0351
  569MOL0     H76775   5.477   8.601   4.777 -1.0026 -0.2341  2.3736
  569MOL0     H76776   5.406   8.855   4.797  0.4639 -1.5520 -1.3393
  569MOL0     H76777   5.684   9.290   4.976  0.0055  1.2502  1.1069
  569MOL0     H76778   5.631   9.528   5.019  0.6023  1.1760  1.4269
  569MOL0     H76779   5.231   9.690   5.112  2.6856  2.5066 -2.4096
  569MOL0     H76780   5.268   9.611   5.268 -1.0120 -0.3057  0.0417
  569MOL0     H76781   5.384   9.811   5.338 -1.6805 -5.2149 -0.4129
  569MOL0     H76782   5.403   9.868   5.179 -0.0924 -2.1730 -1.5291
  569MOL0     H76783   5.148   9.900   5.160 -1.8908 -0.6984 -0.3213
  569MOL0     H76784   5.130   9.845   5.323 -0.7492 -0.1472 -1.5481
  569MOL0     H76785   5.319  10.086   5.256  0.1066 -2.5321 -2.1397
  569MOL0     H76786   5.285  10.024   5.411 -1.1119 -3.2717 -0.3435
  569MOL0     H76787   5.039  10.068   5.401 -0.7352  1.1181 -0.1891
  569MOL0     H76788   5.048  10.109   5.234  0.7978  2.0144  0.5885
  569MOL0     H76789   5.176  10.286   5.458  1.4371  0.8565 -0.2152
  569MOL0     H76790   5.221  10.294   5.295  1.3836 -2.1202  0.8583
  569MOL0     H76791   5.011  10.349   5.216 -2.4835 -1.4375 -1.2116
  569MOL0     H76792   5.046  10.465   5.347  0.5722 -0.9985  0.3822
  569MOL0     H76793   4.826  10.426   5.365 -2.8014 -2.0946 -1.6796
  569MOL0     H76794   4.842  10.253   5.364 -2.1296  1.9316  0.3792
  569MOL0     H76795   5.261   9.398   5.216  0.7657 -1.6822  0.6371
  569MOL0     H76796   5.360   9.170   5.217  1.5002 -3.4943 -3.2001
  569MOL0     H76797   5.696   8.897   5.108 -0.8073  1.3448 -0.0978
  569MOL0     H76798   5.785   8.694   5.072 -0.5466 -0.5068  1.1308
  569MOL0     H76799   5.723   6.808   3.955  1.0527  1.0897  0.6989
  569MOL0     H76800   5.623   6.844   3.715 -1.0260 -2.8348  1.1559
  569MOL0     H76801   5.034   7.078   3.519 -0.0445  0.2980 -1.2604
  569MOL0     H76802   4.974   7.106   3.288 -0.6026 -1.6582 -1.9015
  569MOL0     H76803   5.300   7.005   2.987  2.4585  3.3235  1.7701
  569MOL0     H76804   5.266   7.179   3.009 -0.5350  0.4112  0.7427
  569MOL0     H76805   5.148   6.968   2.818  1.5474 -0.8532  1.6016
  569MOL0     H76806   5.263   7.089   2.769 -1.1221 -1.9145 -2.3457
  569MOL0     H76807   5.101   7.261   2.867  1.2402  0.7982 -1.7985
  569MOL0     H76808   4.962   7.143   2.856 -2.4165  2.2121 -1.1068
  569MOL0     H76809   4.968   7.280   2.662  2.4296  1.4831 -2.2298
  569MOL0     H76810   5.123   7.212   2.606 -1.8879  1.3680 -1.9800
  569MOL0     H76811   4.853   6.887   2.545 -1.4281  1.5142 -0.9187
  569MOL0     H76812   5.300   6.870   3.160 -2.7528  0.0891 -1.0381
  569MOL0     H76813   5.495   6.874   3.418  0.0695  0.0764  4.0994
  569MOL0     H76814   5.379   6.764   3.499 -1.8573  0.2561 -0.1243
  569MOL0     H76815   5.419   6.751   3.322  0.2973  2.0620 -1.8797
  570MOL0     O76816   7.166   4.496   0.354  0.1392 -0.1118  0.0424
  570MOL0     C76817   7.097   4.570   0.289  0.0392  0.3231  0.2775
  570MOL0     O76818   7.134   4.702   0.256 -0.0613 -0.2327 -0.6254
  570MOL0     C76819   7.269   4.729   0.242  0.0830 -0.0618  0.0783
  570MOL0     C76820   7.340   4.799   0.328 -0.8433  0.3528 -1.9065
  570MOL0     C76821   7.477   4.813   0.321  0.2550  0.3332 -0.5385
  570MOL0     C76822   7.551   4.768   0.215  0.3320 -1.0665 -0.2902
  570MOL0     O76823   7.688   4.776   0.212  0.0127  0.5955 -0.1663
  570MOL0     C76824   7.766   4.701   0.117  0.9594 -0.1184  0.0111
  570MOL0     C76825   7.787   4.559   0.158  0.1419  0.3787 -1.4355
  570MOL0     C76826   7.888   4.560   0.280 -0.0108 -0.4600  0.7912
  570MOL0     C76827   7.892   4.421   0.347  0.3506 -0.0973 -0.3079
  570MOL0     C76828   8.000   4.423   0.451 -0.3199  0.1242  0.0860
  570MOL0     C76829   8.134   4.442   0.377  0.1593  0.0900 -0.0532
  570MOL0     C76830   8.256   4.427   0.466 -0.6572 -0.1950 -0.2013
  570MOL0     C76831   8.243   4.505   0.602  0.2868  0.4836 -1.4066
  570MOL0     N76832   8.366   4.528   0.677 -0.8416  0.5977 -0.1625
  570MOL0     C76833   8.472   4.444   0.677 -0.7156  0.2363  0.4889
  570MOL0     C76834   8.561   4.506   0.750  0.2746 -0.3719  0.1101
  570MOL0     C76835   8.688   4.446   0.807  0.2864 -0.2640  0.6290
  570MOL0     C76836   8.683   4.435   0.959  0.0686 -0.4622  0.0298
  570MOL0     C76837   8.795   4.333   1.011 -0.4883  0.3665  0.2039
  570MOL0     C76838   8.810   4.308   1.159 -0.0439  0.1409 -0.7279
  570MOL0     O76839   8.762   4.421   1.239  0.3563  0.3647 -0.5009
  570MOL0     C76840   8.745   4.404   1.379  0.5610 -1.2003  0.1616
  570MOL0     C76841   8.840   4.341   1.456 -1.0095  0.0987  0.4762
  570MOL0     C76842   8.826   4.330   1.598 -0.2853  0.1443 -0.2613
  570MOL0     C76843   8.706   4.389   1.662  0.5758 -0.0141  0.6975
  570MOL0     C76844   8.677   4.365   1.804 -0.3607 -0.2921 -0.9470
  570MOL0     O76845   8.560   4.407   1.858 -0.2884 -0.6037  0.0977
  570MOL0     C76846   8.515   4.403   1.986  0.3459  0.8252  0.0295
  570MOL0     C76847   8.377   4.410   2.000 -0.2330 -0.6094  0.1537
  570MOL0     C76848   8.316   4.380   2.123 -0.1692  0.2278 -0.0025
  570MOL0     C76849   8.387   4.369   2.233  0.0756  0.3645  0.3457
  570MOL0     O76850   8.326   4.337   2.350  0.3312 -1.0538  0.0232
  570MOL0     C76851   8.379   4.387   2.471 -0.3374  0.9924 -0.5328
  570MOL0     C76852   8.381   4.539   2.472 -0.7308  0.2380  0.0304
  570MOL0     C76853   8.407   4.602   2.613  0.4544 -0.5029 -0.4829
  570MOL0     C76854   8.388   4.752   2.610 -0.2415 -0.0670 -0.5469
  570MOL0     C76855   8.245   4.806   2.635  0.0961  0.5120 -0.2470
  570MOL0     C76856   8.242   4.951   2.591 -0.5569 -0.8795 -0.6353
  570MOL0     C76857   8.317   5.038   2.699  0.1381 -0.9812  0.4388
  570MOL0     C76858   8.289   5.182   2.685 -0.3152  0.0217 -0.0107
  570MOL0    Cl76859   8.313   5.247   2.529 -0.2599 -0.0593  0.2317
  570MOL0     C76860   8.527   4.370   2.227 -0.6375 -0.6797  0.0623
  570MOL0     C76861   8.592   4.379   2.102 -0.6874 -0.5246 -0.3155
  570MOL0     O76862   8.758   4.305   1.864 -0.8034  0.5798  0.1336
  570MOL0     C76863   8.621   4.455   1.581  0.6871 -0.1712  0.1152
  570MOL0     C76864   8.642   4.472   1.438 -0.2573  0.2400 -1.5464
  570MOL0     N76865   8.521   4.637   0.773  0.2833  0.4024  0.4541
  570MOL0     N76866   8.393   4.642   0.739  0.4457  0.0047  0.9107
  570MOL0     C76867   7.479   4.700   0.114  0.2210  0.4949 -0.6941
  570MOL0     C76868   7.340   4.672   0.133  0.5312 -0.7366 -0.1350
  570MOL0     C76869   6.970   4.516   0.252  0.4633  0.0702 -0.1972
  570MOL0     C76870   6.860   4.606   0.273  0.7398 -0.1352  0.1148
  570MOL0     C76871   6.725   4.569   0.252  0.2442  0.5589 -1.3497
  570MOL0     C76872   6.695   4.431   0.237  0.2337 -1.0037  0.2458
  570MOL0     O76873   6.567   4.387   0.241 -0.1760  0.2359  0.5065
  570MOL0     C76874   6.457   4.479   0.225 -0.3959  0.4585 -0.0620
  570MOL0     C76875   6.314   4.416   0.212 -0.3800  0.2157  0.1019
  570MOL0     C76876   6.290   4.303   0.119 -0.0523 -1.1176 -0.7430
  570MOL0     C76877   6.136   4.282   0.112 -0.4670 -0.7795  0.2663
  570MOL0     C76878   6.100   4.156   0.052 -0.0044  0.6869 -0.7112
  570MOL0     C76879   6.065   4.039   0.038  0.6717  0.0975  0.3566
  570MOL0     C76880   6.801   4.339   0.232  0.1497  0.6204 -0.6085
  570MOL0     C76881   6.938   4.378   0.238 -0.3119 -0.1489  0.6881
  570MOL0     C76882   7.043   4.275   0.202  0.1455 -0.0727  1.4991
  570MOL0     H76883   7.307   4.839   0.423  1.2234 -1.1292 -0.4660
  570MOL0     H76884   7.527   4.880   0.390  2.1606  1.0348 -2.4645
  570MOL0     H76885   7.728   4.714   0.016 -0.4187 -2.8022  0.0712
  570MOL0     H76886   7.859   4.758   0.125  0.6020  0.3842  0.6567
  570MOL0     H76887   7.817   4.499   0.072  0.4700  0.4236 -1.3546
  570MOL0     H76888   7.692   4.515   0.189 -1.4819  4.6461  0.3876
  570MOL0     H76889   7.864   4.626   0.364  2.4814  0.0385  1.1739
  570MOL0     H76890   7.980   4.588   0.227 -1.9180 -0.3924 -2.8092
  570MOL0     H76891   7.795   4.411   0.397  1.3168  1.9376  2.1894
  570MOL0     H76892   7.907   4.343   0.272  3.2648 -0.1676  0.2399
  570MOL0     H76893   7.986   4.513   0.512  1.5222  1.4721 -1.3608
  570MOL0     H76894   7.993   4.336   0.516  2.0977 -0.6695 -0.6150
  570MOL0     H76895   8.145   4.372   0.293 -0.6144 -1.7447  1.3149
  570MOL0     H76896   8.139   4.543   0.336  0.7314  0.1476  0.1500
  570MOL0     H76897   8.346   4.465   0.417 -2.2744  4.2542 -0.1622
  570MOL0     H76898   8.262   4.323   0.498 -1.2122  0.0823  0.8613
  570MOL0     H76899   8.194   4.600   0.579  1.2352  0.9360 -1.5982
  570MOL0     H76900   8.174   4.447   0.665  2.3165  0.0022  0.4925
  570MOL0     H76901   8.484   4.337   0.662  0.4990 -0.1191  3.4158
  570MOL0     H76902   8.710   4.348   0.765  0.4393 -0.7133  1.7389
  570MOL0     H76903   8.778   4.507   0.791  0.8660 -1.6417 -1.8770
  570MOL0     H76904   8.691   4.534   1.005  1.7568 -1.1491  1.3227
  570MOL0     H76905   8.582   4.396   0.976  0.7880 -3.1157 -1.3244
  570MOL0     H76906   8.887   4.380   0.975 -1.2787  1.9293  0.1231
  570MOL0     H76907   8.771   4.240   0.959  0.9228  1.5468 -2.8136
  570MOL0     H76908   8.913   4.287   1.189 -0.2729 -1.1131 -0.7774
  570MOL0     H76909   8.752   4.222   1.194 -0.9632  0.8951 -0.3415
  570MOL0     H76910   8.929   4.307   1.403 -1.5970  0.5637 -0.8547
  570MOL0     H76911   8.906   4.280   1.651 -1.1100 -2.2162 -1.1380
  570MOL0     H76912   8.319   4.431   1.910 -0.1859 -1.1921 -0.0160
  570MOL0     H76913   8.209   4.391   2.137 -0.3420  0.5534 -1.3644
  570MOL0     H76914   8.317   4.354   2.555 -0.8772  1.4428 -0.7425
  570MOL0     H76915   8.479   4.355   2.501 -1.0019 -0.2098  0.5109
  570MOL0     H76916   8.462   4.568   2.404  1.7735 -1.4786  2.1097
  570MOL0     H76917   8.287   4.568   2.423  0.5022  1.7523 -1.5522
  570MOL0     H76918   8.355   4.569   2.703 -1.7981 -1.5212 -2.0706
  570MOL0     H76919   8.514   4.594   2.630  0.3455 -0.9585 -0.0100
  570MOL0     H76920   8.414   4.783   2.509  1.3013 -1.3721 -0.5949
  570MOL0     H76921   8.458   4.796   2.682  0.3628  0.0925 -1.2242
  570MOL0     H76922   8.215   4.807   2.740  1.2725 -0.3110  0.1178
  570MOL0     H76923   8.187   4.746   2.564  5.6383 -1.7138 -3.5273
  570MOL0     H76924   8.286   4.965   2.492 -0.5352  1.6916 -0.3392
  570MOL0     H76925   8.138   4.983   2.579  0.5573  4.8671  1.5391
  570MOL0     H76926   8.424   5.027   2.677  0.0191  0.2397 -0.9278
  570MOL0     H76927   8.283   5.003   2.797 -2.3910  1.7528  0.6871
  570MOL0     H76928   8.185   5.201   2.715  0.3766  3.7261  0.5470
  570MOL0     H76929   8.357   5.232   2.754  0.0525  1.3045 -1.2525
  570MOL0     H76930   8.594   4.343   2.308 -0.7258  0.7512  0.6311
  570MOL0     H76931   8.699   4.364   2.114 -0.6529  0.3817  0.6394
  570MOL0     H76932   8.526   4.493   1.616  1.4787 -0.5576  2.8599
  570MOL0     H76933   8.573   4.530   1.376 -0.4912  1.5409 -0.1215
  570MOL0     H76934   7.520   4.664   0.021 -1.9069  0.5142 -1.6879
  570MOL0     H76935   7.287   4.624   0.051 -1.9473 -0.6322  1.3033
  570MOL0     H76936   6.878   4.711   0.294 -3.5549  0.4229  1.9452
  570MOL0     H76937   6.643   4.638   0.235  0.7936  0.8113 -3.2917
  570MOL0     H76938   6.479   4.541   0.137  2.9666  1.2661  1.1986
  570MOL0     H76939   6.459   4.536   0.318 -0.0862 -1.4604  1.1763
  570MOL0     H76940   6.252   4.502   0.183  0.6451  1.0301  0.2934
  570MOL0     H76941   6.279   4.372   0.306  0.3360  0.3670  0.4456
  570MOL0     H76942   6.336   4.217   0.168 -1.0069 -0.7671  0.8223
  570MOL0     H76943   6.327   4.320   0.017  0.3460  0.5150 -0.3576
  570MOL0     H76944   6.091   4.277   0.212  2.3849 -1.3264  1.6008
  570MOL0     H76945   6.094   4.367   0.056  2.1195  0.4057  0.0111
  570MOL0     H76946   6.023   3.940   0.032 -0.3891  0.5417  0.3221
  570MOL0     H76947   6.778   4.233   0.232 -2.1814  1.0652  0.5763
  570MOL0     H76948   7.013   4.177   0.165  1.2232  0.0872  0.1156
  570MOL0     H76949   7.115   4.320   0.132  1.2484 -0.4526  2.3606
  570MOL0     H76950   7.107   4.250   0.287  0.7528  1.9418  1.6978
  571MOL0     O76951   0.557  10.813   6.711  0.3400  0.1584 -0.9677
  571MOL0     C76952   0.607  10.922   6.736 -0.5387  0.2652  1.0139
  571MOL0     O76953   0.576  11.014   6.825 -0.3101 -0.0277 -0.0046
  571MOL0     C76954   0.456  11.004   6.886 -0.5699  0.6330  0.7562
  571MOL0     C76955   0.468  10.972   7.021  0.0327  0.4134  0.0668
  571MOL0     C76956   0.348  10.934   7.090 -0.4817 -1.8185 -0.1241
  571MOL0     C76957   0.227  10.931   7.022 -1.2931  0.0033 -1.5902
  571MOL0     O76958   0.131  10.862   7.082  0.0599  0.2654 -0.6722
  571MOL0     C76959   0.038  10.956   7.149 -0.1485  0.7629  0.5562
  571MOL0     C76960  -0.096  10.968   7.089 -0.3241  0.3216  0.3745
  571MOL0     C76961  -0.195  11.036   7.182 -0.3925 -0.4158 -0.7170
  571MOL0     C76962  -0.333  11.040   7.115  1.0313 -0.1328 -0.6446
  571MOL0     C76963  -0.430  11.087   7.222 -0.6229  0.4720  0.7225
  571MOL0     C76964  -0.575  11.092   7.168 -0.2842  0.2811 -0.6129
  571MOL0     C76965  -0.669  11.127   7.280 -0.5800  0.1401 -0.2075
  571MOL0     C76966  -0.802  11.171   7.223 -0.8105 -0.0007  0.7726
  571MOL0     N76967  -0.876  11.059   7.164 -0.0316  0.6626 -0.8814
  571MOL0     C76968  -0.945  11.061   7.044 -0.4506 -0.3309 -0.5607
  571MOL0     C76969  -0.981  10.925   7.024  0.0048 -0.8376  0.3173
  571MOL0     C76970  -1.058  10.876   6.900 -0.2121  0.3994  0.1623
  571MOL0     C76971  -1.203  10.911   6.918 -0.2559 -0.1272  0.2781
  571MOL0     C76972  -1.282  10.779   6.927  1.2690  0.9044 -1.4433
  571MOL0     C76973  -1.248  10.674   7.041 -0.1205 -0.0475  0.2603
  571MOL0     O76974  -1.343  10.569   7.039  0.6024 -0.3611  1.0168
  571MOL0     C76975  -1.336  10.460   7.124  0.0978 -0.6986 -0.4964
  571MOL0     C76976  -1.251  10.423   7.229  0.6403 -0.4261 -1.3673
  571MOL0     C76977  -1.267  10.318   7.306 -0.5911  0.0278  0.0953
  571MOL0     C76978  -1.373  10.229   7.273 -0.0921  0.5613  0.6004
  571MOL0     C76979  -1.391  10.097   7.357 -0.8098  0.2088  0.4140
  571MOL0     O76980  -1.489  10.016   7.308 -0.1571  0.5742  0.0606
  571MOL0     C76981  -1.530   9.903   7.379 -0.1177 -1.7270 -0.1272
  571MOL0     C76982  -1.550   9.781   7.312 -0.3263  0.3324 -0.6633
  571MOL0     C76983  -1.570   9.669   7.381 -0.6749  0.5403  0.4129
  571MOL0     C76984  -1.592   9.666   7.517 -0.7268  0.0866  0.0619
  571MOL0     O76985  -1.622   9.535   7.560  0.2781 -0.2219  0.2121
  571MOL0     C76986  -1.613   9.513   7.700 -1.4059 -0.1280  0.7778
  571MOL0     C76987  -1.536   9.393   7.739 -0.8943 -0.1412  0.0071
  571MOL0     C76988  -1.546   9.280   7.635  0.2211  0.9081 -0.1860
  571MOL0     C76989  -1.530   9.151   7.720 -0.2782  0.2693 -0.3551
  571MOL0     C76990  -1.490   9.043   7.641 -0.1505  0.9378  0.3787
  571MOL0     C76991  -1.460   8.916   7.732 -0.4371 -0.5729  0.6855
  571MOL0     C76992  -1.449   8.796   7.638  0.2772 -0.3475  0.8366
  571MOL0     C76993  -1.395   8.684   7.724 -0.1274  0.6044 -0.4499
  571MOL0    Cl76994  -1.441   8.535   7.641  0.2381 -0.3599  0.6936
  571MOL0     C76995  -1.583   9.781   7.589  0.6362 -0.5824  1.1807
  571MOL0     C76996  -1.547   9.899   7.520  0.1026 -0.1884  0.2924
  571MOL0     O76997  -1.309  10.074   7.446 -0.2969  0.1823 -0.2328
  571MOL0     C76998  -1.462  10.258   7.158 -0.8411  1.6216 -1.0977
  571MOL0     C76999  -1.438  10.375   7.089 -0.5188  0.0385  1.0657
  571MOL0     N77000  -0.954  10.854   7.141 -0.2202 -0.0103 -0.7297
  571MOL0     N77001  -0.875  10.932   7.214 -0.1579 -0.0182 -0.1033
  571MOL0     C77002   0.216  10.974   6.886  0.8080  0.0765 -1.0739
  571MOL0     C77003   0.329  11.002   6.822 -0.4640  1.2026  0.7079
  571MOL0     C77004   0.724  10.956   6.646  0.5107  0.4656 -0.2516
  571MOL0     C77005   0.822  11.038   6.712  0.3216  0.3498  0.1564
  571MOL0     C77006   0.937  11.086   6.643  0.0087 -1.2939  0.1776
  571MOL0     C77007   0.959  11.047   6.512  0.2817  0.3951 -0.0288
  571MOL0     O77008   1.075  11.089   6.459  0.2472  0.3056  0.2209
  571MOL0     C77009   1.148  11.013   6.356  0.5642  0.0937 -0.0685
  571MOL0     C77010   1.285  11.078   6.342 -0.0898  0.1020 -0.8717
  571MOL0     C77011   1.275  11.214   6.277 -0.6991 -0.0670 -0.4264
  571MOL0     C77012   1.415  11.275   6.279  0.1143  0.0344 -0.3593
  571MOL0     C77013   1.403  11.403   6.216  0.3138 -0.8658  0.6718
  571MOL0     C77014   1.383  11.512   6.160  1.0329  0.1546 -0.1797
  571MOL0     C77015   0.869  10.959   6.451  0.8944 -0.4299  0.5959
  571MOL0     C77016   0.756  10.912   6.518  0.3839  0.1785  1.3760
  571MOL0     C77017   0.660  10.838   6.426  0.3203  0.0315 -0.2325
  571MOL0     H77018   0.567  10.979   7.063  0.0155  0.5774  0.0819
  571MOL0     H77019   0.358  10.902   7.193  0.3624  1.9922  1.1511
  571MOL0     H77020   0.027  10.910   7.248  0.4733 -1.6034 -0.4052
  571MOL0     H77021   0.075  11.058   7.161 -0.8420  1.0662  0.1922
  571MOL0     H77022  -0.129  10.869   7.056 -1.9272  0.9930 -0.1598
  571MOL0     H77023  -0.087  11.029   6.999  4.1373 -0.1811  0.2860
  571MOL0     H77024  -0.175  11.139   7.214  0.3296 -0.0625 -2.1903
  571MOL0     H77025  -0.199  10.984   7.278 -0.3324  2.8736  1.2039
  571MOL0     H77026  -0.339  11.106   7.029 -1.5609  1.5012  0.6742
  571MOL0     H77027  -0.367  10.942   7.080 -1.3643  0.1100  0.7701
  571MOL0     H77028  -0.427  11.018   7.307  3.7900 -0.5510 -0.0454
  571MOL0     H77029  -0.401  11.190   7.247 -0.7051  0.9654 -1.1198
  571MOL0     H77030  -0.575  11.156   7.080 -2.2724 -1.1014 -1.6739
  571MOL0     H77031  -0.594  10.990   7.134  1.9432 -0.6289  0.6273
  571MOL0     H77032  -0.628  11.211   7.338  0.7921 -1.3750  1.1392
  571MOL0     H77033  -0.688  11.048   7.354 -1.9747 -1.3755 -2.0619
  571MOL0     H77034  -0.858  11.220   7.303 -0.9725  1.4395 -0.1814
  571MOL0     H77035  -0.797  11.246   7.144  1.6502  0.3280  1.1553
  571MOL0     H77036  -0.945  11.143   6.973 -0.5452  1.1938  1.1198
  571MOL0     H77037  -1.037  10.939   6.813 -1.5828 -0.3157 -0.7219
  571MOL0     H77038  -1.048  10.770   6.873  0.3078  0.4131  0.2953
  571MOL0     H77039  -1.228  10.981   6.998  0.4422  1.3881 -0.7772
  571MOL0     H77040  -1.254  10.949   6.829 -0.1409 -4.3160 -1.7774
  571MOL0     H77041  -1.275  10.725   6.832 -0.1995 -0.3914 -0.8632
  571MOL0     H77042  -1.388  10.801   6.946  1.3640 -0.5568  1.2707
  571MOL0     H77043  -1.256  10.732   7.134  0.6004 -1.7872  1.4690
  571MOL0     H77044  -1.145  10.639   7.036 -0.3817 -0.6578 -2.6050
  571MOL0     H77045  -1.162  10.479   7.255  0.7463 -1.0664 -0.2989
  571MOL0     H77046  -1.193  10.289   7.381 -3.1952 -0.8065  2.5399
  571MOL0     H77047  -1.538   9.769   7.205  1.6411 -2.5477 -0.2334
  571MOL0     H77048  -1.593   9.580   7.322  0.9462  0.2348  0.2019
  571MOL0     H77049  -1.572   9.598   7.756  0.9651 -1.0208  0.4936
  571MOL0     H77050  -1.713   9.505   7.743 -2.0313  2.9327  0.1268
  571MOL0     H77051  -1.431   9.424   7.732 -1.1153  0.3158 -1.8170
  571MOL0     H77052  -1.553   9.357   7.841  4.0609 -1.6219  0.5724
  571MOL0     H77053  -1.648   9.279   7.596 -0.3286 -0.6803  1.1967
  571MOL0     H77054  -1.472   9.288   7.555 -0.0475 -0.6506 -0.6304
  571MOL0     H77055  -1.627   9.130   7.766  0.0986 -0.9700 -0.0938
  571MOL0     H77056  -1.449   9.167   7.790 -0.4670  2.2736 -0.5215
  571MOL0     H77057  -1.397   9.059   7.586 -0.1347 -2.3081 -0.7643
  571MOL0     H77058  -1.570   9.016   7.571  1.3634 -1.1540 -0.6468
  571MOL0     H77059  -1.361   8.937   7.773  1.1369 -0.7725 -2.6415
  571MOL0     H77060  -1.543   8.901   7.801 -1.5041 -2.5727 -0.9247
  571MOL0     H77061  -1.374   8.819   7.561 -2.3479  0.1521 -1.7420
  571MOL0     H77062  -1.540   8.760   7.589 -2.6939  0.6804  5.0363
  571MOL0     H77063  -1.287   8.699   7.737  0.3489 -0.3960 -2.8142
  571MOL0     H77064  -1.440   8.685   7.824  1.6797 -2.9318  0.5540
  571MOL0     H77065  -1.599   9.794   7.695  1.2764  0.4229  1.1724
  571MOL0     H77066  -1.534   9.990   7.577  0.6254  0.8537 -1.4238
  571MOL0     H77067  -1.533  10.192   7.110  1.5304 -2.0250  0.0101
  571MOL0     H77068  -1.503  10.403   7.007  2.8914  1.7627 -1.2794
  571MOL0     H77069   0.117  10.962   6.842 -0.1317  0.1911  0.9151
  571MOL0     H77070   0.316  11.018   6.715 -3.0155  1.9935  1.0616
  571MOL0     H77071   0.810  11.082   6.811  1.7625 -0.0697  0.5558
  571MOL0     H77072   1.008  11.138   6.707  0.8009 -1.4622 -0.5424
  571MOL0     H77073   1.094  11.014   6.261  1.8336 -1.8523 -0.8784
  571MOL0     H77074   1.162  10.911   6.393 -1.0922  0.0821  0.6268
  571MOL0     H77075   1.353  11.018   6.281  2.1753 -0.7805  2.2718
  571MOL0     H77076   1.330  11.087   6.442  1.5859  4.6140 -1.7907
  571MOL0     H77077   1.216  11.281   6.340  0.2624  0.3430  0.0684
  571MOL0     H77078   1.233  11.210   6.176 -2.4946  0.1007  0.2909
  571MOL0     H77079   1.463  11.267   6.377  0.2073 -5.1047 -0.5524
  571MOL0     H77080   1.483  11.205   6.229  4.0767  1.5758  2.3067
  571MOL0     H77081   1.359  11.602   6.107  1.1172  1.3219  1.6818
  571MOL0     H77082   0.904  10.921   6.356  0.9532  0.8083  0.1049
  571MOL0     H77083   0.633  10.888   6.333 -4.6387 -1.2091  0.2411
  571MOL0     H77084   0.692  10.737   6.399 -0.0895 -0.0615 -0.3753
  571MOL0     H77085   0.557  10.836   6.464  0.1202 -1.4400 -0.8120
  572MOL0     O77086   3.092   7.117  11.331  0.3675  0.1994  0.7727
  572MOL0     C77087   3.143   7.011  11.296 -1.1083  0.1858  0.8829
  572MOL0     O77088   3.160   6.970  11.167 -0.2983  0.5931  0.5235
  572MOL0     C77089   3.098   7.047  11.074  0.4151 -0.0975  0.3094
  572MOL0     C77090   3.174   7.129  10.993 -0.3654  0.3040 -0.1552
  572MOL0     C77091   3.109   7.204  10.893 -0.4087  0.8230 -0.4501
  572MOL0     C77092   2.963   7.198  10.878  0.0429 -0.6129 -0.2063
  572MOL0     O77093   2.895   7.279  10.791 -0.0393 -1.0222 -0.6874
  572MOL0     C77094   2.907   7.232  10.662 -0.2196 -0.6788  0.8295
  572MOL0     C77095   2.909   7.354  10.567 -0.3817  0.6049 -0.1966
  572MOL0     C77096   2.777   7.416  10.544  0.9385 -0.3984  0.5812
  572MOL0     C77097   2.661   7.331  10.484  0.3104 -1.4022  0.0580
  572MOL0     C77098   2.536   7.422  10.495 -0.0855  0.7972 -0.3947
  572MOL0     C77099   2.394   7.352  10.496  0.1452  0.6680 -0.9190
  572MOL0     C77100   2.278   7.438  10.551  1.2312  0.0373  0.6076
  572MOL0     C77101   2.159   7.340  10.536 -0.7692  0.3152 -1.0767
  572MOL0     N77102   2.040   7.419  10.499  0.0313  0.0599 -0.1184
  572MOL0     C77103   1.926   7.425  10.573 -0.2412 -0.1715  0.0391
  572MOL0     C77104   1.835   7.485  10.499 -0.5867 -0.2184 -0.2877
  572MOL0     C77105   1.700   7.534  10.557 -0.2364 -0.3475  0.0937
  572MOL0     C77106   1.613   7.547  10.440  0.5091 -1.0201  0.1271
  572MOL0     C77107   1.581   7.414  10.370 -1.1971  0.1239 -0.2834
  572MOL0     C77108   1.521   7.313  10.464  0.4421 -0.4725  0.1928
  572MOL0     O77109   1.395   7.363  10.530 -0.6622  0.4109  0.8494
  572MOL0     C77110   1.303   7.264  10.517  0.6024 -0.1355  0.1066
  572MOL0     C77111   1.244   7.239  10.392 -1.1237 -0.5518  0.1459
  572MOL0     C77112   1.161   7.124  10.374 -0.8596 -0.0617  0.4462
  572MOL0     C77113   1.139   7.041  10.485 -0.4919 -0.2883 -0.2520
  572MOL0     C77114   1.045   6.919  10.475 -0.6453 -0.3616  0.9532
  572MOL0     O77115   0.986   6.901  10.350 -0.1877 -0.1293 -0.5722
  572MOL0     C77116   0.891   6.806  10.337 -0.0714 -0.0823  0.5695
  572MOL0     C77117   0.907   6.674  10.386 -0.1982 -0.6812 -0.5594
  572MOL0     C77118   0.809   6.588  10.359  1.0997  0.5139 -0.6033
  572MOL0     C77119   0.701   6.627  10.285  0.3555 -0.6687  0.2706
  572MOL0     O77120   0.603   6.547  10.234 -0.6410  0.0616  0.3249
  572MOL0     C77121   0.630   6.401  10.237 -0.9435 -0.2030 -0.6886
  572MOL0     C77122   0.599   6.331  10.373  0.8490  0.3170  1.0663
  572MOL0     C77123   0.551   6.185  10.347  0.6465 -0.4780 -1.0324
  572MOL0     C77124   0.477   6.124  10.471  0.2966  1.4848  0.7732
  572MOL0     C77125   0.409   5.988  10.445  0.1221  0.5874 -0.3630
  572MOL0     C77126   0.300   5.927  10.528 -0.3510 -0.1868 -0.2615
  572MOL0     C77127   0.273   5.781  10.508 -0.2247  0.5724 -0.5360
  572MOL0     C77128   0.133   5.739  10.565 -0.3812 -0.4174 -0.1271
  572MOL0    Cl77129   0.092   5.577  10.499  0.3282  0.1305 -0.0892
  572MOL0     C77130   0.679   6.760  10.253  0.1689  0.6748  0.8273
  572MOL0     C77131   0.784   6.841  10.264  1.0686  1.3971 -0.9367
  572MOL0     O77132   1.034   6.839  10.575 -0.6017  0.3990  0.3235
  572MOL0     C77133   1.199   7.066  10.610 -0.4702  0.7664 -0.3979
  572MOL0     C77134   1.287   7.177  10.623  0.5864  0.8331  0.1625
  572MOL0     N77135   1.901   7.531  10.384  0.9802  0.5493 -0.3544
  572MOL0     N77136   2.010   7.483  10.380  0.4600  1.1733  0.2414
  572MOL0     C77137   2.895   7.101  10.956  0.4473 -0.1966 -0.5571
  572MOL0     C77138   2.959   7.028  11.054 -0.7036 -0.6002  0.2106
  572MOL0     C77139   3.195   6.916  11.393 -0.1825  0.0357  0.1135
  572MOL0     C77140   3.143   6.923  11.518  0.2598  0.0412  0.8598
  572MOL0     C77141   3.202   6.852  11.619 -0.6434  0.1234 -0.1851
  572MOL0     C77142   3.306   6.753  11.591  0.7808 -0.9473  0.3086
  572MOL0     O77143   3.355   6.671  11.683 -0.4100 -0.0984 -0.1112
  572MOL0     C77144   3.343   6.712  11.824  0.4531  0.3387 -0.5417
  572MOL0     C77145   3.417   6.619  11.917 -0.2124  0.2145  0.1145
  572MOL0     C77146   3.358   6.622  12.062 -0.3385  0.2773 -0.3925
  572MOL0     C77147   3.420   6.752  12.128 -1.4780 -0.3143  0.4794
  572MOL0     C77148   3.574   6.757  12.150  0.0571 -0.3148  0.0369
  572MOL0     C77149   3.690   6.753  12.190 -0.0551 -0.5504  0.7654
  572MOL0     C77150   3.344   6.742  11.458 -0.2577  0.7259 -0.0562
  572MOL0     C77151   3.301   6.818  11.354  0.2913 -0.6924 -0.4139
  572MOL0     C77152   3.350   6.791  11.217 -0.8411 -0.5167 -0.4748
  572MOL0     H77153   3.276   7.136  11.030 -0.6104 -1.5184  1.0458
  572MOL0     H77154   3.168   7.266  10.826 -0.7847 -0.2601 -1.8444
  572MOL0     H77155   3.004   7.187  10.639  1.8419  4.4104 -2.1629
  572MOL0     H77156   2.825   7.163  10.640 -0.6500 -0.6469  2.2415
  572MOL0     H77157   2.946   7.312  10.474  2.2297  2.2597  0.0016
  572MOL0     H77158   2.982   7.425  10.609  1.2242 -0.9059 -0.3259
  572MOL0     H77159   2.796   7.498  10.474  1.9391  0.0140  1.3166
  572MOL0     H77160   2.748   7.467  10.637  2.2492  0.1891  0.6879
  572MOL0     H77161   2.675   7.322  10.376  1.9667  2.8610 -0.3203
  572MOL0     H77162   2.649   7.232  10.527  0.3320 -2.6986 -2.7341
  572MOL0     H77163   2.537   7.476  10.590  0.7219 -4.0790  2.7059
  572MOL0     H77164   2.549   7.498  10.417  0.8968  0.5976 -0.4319
  572MOL0     H77165   2.382   7.295  10.403  1.8796 -1.3709  0.0302
  572MOL0     H77166   2.405   7.277  10.574 -1.1589  0.3922 -0.9793
  572MOL0     H77167   2.276   7.520  10.480  3.0047  0.7753  1.3546
  572MOL0     H77168   2.280   7.488  10.648 -1.1697  2.0981 -0.2790
  572MOL0     H77169   2.169   7.267  10.455 -1.3159 -1.7410  0.6429
  572MOL0     H77170   2.146   7.284  10.629  1.5346  0.9833 -0.2729
  572MOL0     H77171   1.906   7.391  10.674 -3.1034  1.3073  0.0632
  572MOL0     H77172   1.674   7.459  10.631 -0.4923 -0.7306 -0.3793
  572MOL0     H77173   1.718   7.631  10.605 -1.3809  0.7139 -1.5374
  572MOL0     H77174   1.518   7.592  10.471  1.4302  1.1153  0.0461
  572MOL0     H77175   1.656   7.622  10.373  0.5900  1.1894  2.4855
  572MOL0     H77176   1.672   7.382  10.318 -1.4385  0.3460 -0.8532
  572MOL0     H77177   1.501   7.434  10.298 -2.0478  0.8680  0.8463
  572MOL0     H77178   1.600   7.277  10.530 -0.0915  2.1295  2.4504
  572MOL0     H77179   1.498   7.231  10.396 -0.9487  2.6146 -3.3997
  572MOL0     H77180   1.273   7.310  10.315  1.8651 -2.2340 -0.4198
  572MOL0     H77181   1.108   7.109  10.281 -0.2355 -3.5662  0.4959
  572MOL0     H77182   0.990   6.642  10.448 -4.0241 -1.1202  5.0286
  572MOL0     H77183   0.822   6.486  10.393 -0.6062  1.0933  2.0651
  572MOL0     H77184   0.580   6.356  10.151 -0.6184  0.4245 -1.2221
  572MOL0     H77185   0.737   6.393  10.219 -0.0641  1.0853  3.0681
  572MOL0     H77186   0.690   6.332  10.433  0.2047 -1.8205  2.1847
  572MOL0     H77187   0.511   6.389  10.403  0.1016  1.5012 -2.7854
  572MOL0     H77188   0.471   6.200  10.274  0.3035  2.9157 -0.1175
  572MOL0     H77189   0.636   6.122  10.317 -1.6276 -3.2788 -2.1003
  572MOL0     H77190   0.406   6.200  10.504 -0.7126  0.9221 -0.0545
  572MOL0     H77191   0.545   6.101  10.554  1.5892 -0.1140 -0.6639
  572MOL0     H77192   0.497   5.923  10.446 -0.5956 -0.4530  2.1268
  572MOL0     H77193   0.360   5.987  10.347 -2.1820  0.1900  0.7299
  572MOL0     H77194   0.356   5.932  10.622 -0.4649  1.3766 -0.2411
  572MOL0     H77195   0.206   5.982  10.535  0.5255  1.1040  2.7045
  572MOL0     H77196   0.347   5.713  10.551 -2.8172  0.2163  4.0594
  572MOL0     H77197   0.263   5.762  10.401 -1.4406  4.2488 -1.2208
  572MOL0     H77198   0.136   5.731  10.674 -1.0773  1.2610  0.0437
  572MOL0     H77199   0.053   5.810  10.542 -2.0040 -2.4458 -1.1462
  572MOL0     H77200   0.588   6.782  10.197 -0.5813 -0.7557  1.4242
  572MOL0     H77201   0.773   6.947  10.241  0.6200  1.2776 -1.2896
  572MOL0     H77202   1.196   7.003  10.698  0.5951  2.1947  0.7337
  572MOL0     H77203   1.340   7.195  10.716  1.7970  0.9781 -0.5316
  572MOL0     H77204   2.789   7.097  10.936 -0.4612 -1.1452  3.5740
  572MOL0     H77205   2.909   6.953  11.114 -0.1520 -0.7320  0.5086
  572MOL0     H77206   3.052   6.976  11.542 -0.5772 -0.1648 -1.5421
  572MOL0     H77207   3.164   6.849  11.721  1.1236 -1.5531  0.4872
  572MOL0     H77208   3.239   6.690  11.851  0.3932 -1.1877 -1.8528
  572MOL0     H77209   3.370   6.815  11.850 -0.7892  0.2970  1.1098
  572MOL0     H77210   3.526   6.630  11.914 -0.0060 -1.6226 -1.2399
  572MOL0     H77211   3.407   6.517  11.879  0.4466  0.1131  0.1989
  572MOL0     H77212   3.388   6.526  12.107 -0.5667 -1.2210 -3.2161
  572MOL0     H77213   3.249   6.611  12.058 -0.3371 -4.0192  2.9608
  572MOL0     H77214   3.381   6.842  12.079  1.1601 -0.6809 -2.5484
  572MOL0     H77215   3.378   6.762  12.229 -1.8468 -0.3140  0.3294
  572MOL0     H77216   3.792   6.761  12.223  0.1251  0.2330  0.0667
  572MOL0     H77217   3.409   6.660  11.427 -1.8992 -1.5116  2.0214
  572MOL0     H77218   3.443   6.734  11.208  0.1132  1.3054 -4.5980
  572MOL0     H77219   3.275   6.751  11.149  1.8377 -2.0550 -2.7245
  572MOL0     H77220   3.378   6.885  11.168 -0.7470  0.8502  2.0221
  573MOL0     O77221   3.471  10.410   5.151 -0.9346 -0.3721  0.4800
  573MOL0     C77222   3.377  10.337   5.179  0.2980 -0.4569 -0.2596
  573MOL0     O77223   3.362  10.204   5.168 -0.3674  0.5507 -0.4349
  573MOL0     C77224   3.459  10.146   5.089  0.0563 -0.6644 -0.9999
  573MOL0     C77225   3.420  10.113   4.966  0.2716  1.0569 -0.0891
  573MOL0     C77226   3.514  10.057   4.866  0.6260  0.3977 -0.1113
  573MOL0     C77227   3.634  10.005   4.914  0.4953 -1.6545  0.3353
  573MOL0     O77228   3.717   9.940   4.834 -0.6048  0.1882 -0.1488
  573MOL0     C77229   3.733   9.988   4.705  0.7184 -0.4106 -0.7123
  573MOL0     C77230   3.878   9.949   4.682  0.4696  0.1696 -0.2489
  573MOL0     C77231   3.980  10.028   4.751 -1.2774 -0.4037  0.6779
  573MOL0     C77232   4.015  10.165   4.679 -0.6023  0.0697 -0.1339
  573MOL0     C77233   4.098  10.266   4.755  0.1194  0.0332  0.0277
  573MOL0     C77234   4.226  10.202   4.796  0.3609 -0.4403 -0.5570
  573MOL0     C77235   4.339  10.298   4.846 -0.2809  0.2239  0.7254
  573MOL0     C77236   4.462  10.240   4.921  0.1588 -0.4004 -0.2943
  573MOL0     N77237   4.440  10.237   5.064 -0.6402 -0.5025 -0.1060
  573MOL0     C77238   4.348  10.145   5.124  0.4669  0.7890  0.3212
  573MOL0     C77239   4.341  10.180   5.257  0.0198 -0.0455  1.1708
  573MOL0     C77240   4.262  10.110   5.363  0.0091  0.2961 -0.0146
  573MOL0     C77241   4.118  10.100   5.336  0.8368 -0.0402 -0.1921
  573MOL0     C77242   4.047  10.237   5.356  0.8569 -0.5923 -0.7494
  573MOL0     C77243   3.916  10.235   5.278  1.3196  0.2612 -0.9282
  573MOL0     O77244   3.848  10.360   5.305  0.0523  0.3211  0.5678
  573MOL0     C77245   3.757  10.385   5.410 -0.8116 -0.6077  0.4998
  573MOL0     C77246   3.728  10.294   5.513  0.1045  0.2820  0.0668
  573MOL0     C77247   3.646  10.323   5.621  0.2974  0.2265 -0.0420
  573MOL0     C77248   3.563  10.437   5.607 -0.7601  0.0113 -0.2590
  573MOL0     C77249   3.452  10.448   5.703 -0.0468  0.2101  0.6947
  573MOL0     O77250   3.448  10.382   5.826  0.1499 -0.7849  0.1646
  573MOL0     C77251   3.343  10.414   5.913  0.1927 -0.3542 -0.7006
  573MOL0     C77252   3.219  10.397   5.873  0.3892  1.1441  0.6033
  573MOL0     C77253   3.109  10.425   5.951  0.8227  0.0875 -0.6516
  573MOL0     C77254   3.135  10.487   6.080 -1.4988 -0.4669  0.7512
  573MOL0     O77255   3.044  10.518   6.176 -0.1288  0.3739 -0.0276
  573MOL0     C77256   2.905  10.480   6.157 -0.4631  0.2005 -0.1105
  573MOL0     C77257   2.816  10.532   6.275 -0.0431  0.5828 -0.1850
  573MOL0     C77258   2.806  10.687   6.296 -0.2991 -0.0361  0.0134
  573MOL0     C77259   2.766  10.709   6.443  0.3267  0.1926 -1.1229
  573MOL0     C77260   2.762  10.864   6.469  0.3199  0.4521 -0.2331
  573MOL0     C77261   2.738  10.899   6.618 -0.7537 -0.2755  0.6622
  573MOL0     C77262   2.751  11.058   6.633 -0.0946 -0.9548  0.2748
  573MOL0     C77263   2.744  11.092   6.780  0.2515  0.5242 -0.3689
  573MOL0    Cl77264   2.600  11.056   6.861  0.2952 -0.2094 -0.3909
  573MOL0     C77265   3.272  10.515   6.121  0.5248 -0.0273 -0.7145
  573MOL0     C77266   3.375  10.478   6.044  0.2790 -0.2356  0.7020
  573MOL0     O77267   3.377  10.535   5.667  0.1685 -0.6692  0.4876
  573MOL0     C77268   3.582  10.532   5.505  1.0219 -0.8207 -0.0317
  573MOL0     C77269   3.689  10.509   5.411  0.2708  0.1391 -0.4682
  573MOL0     N77270   4.433  10.278   5.274  0.1664  0.5229 -0.7791
  573MOL0     N77271   4.484  10.314   5.164 -0.1928 -0.1228  0.3272
  573MOL0     C77272   3.667  10.047   5.046  0.5534  0.0360 -0.4189
  573MOL0     C77273   3.592  10.117   5.132  0.3693  0.6629  0.4187
  573MOL0     C77274   3.261  10.410   5.231 -0.4213 -0.5303  0.4694
  573MOL0     C77275   3.246  10.426   5.368 -1.2635 -0.1598 -0.3352
  573MOL0     C77276   3.140  10.498   5.424  0.1674  1.1805 -0.0086
  573MOL0     C77277   3.051  10.558   5.338  0.7562  0.5751 -0.2768
  573MOL0     O77278   2.950  10.624   5.400  0.8470 -0.7045 -0.1102
  573MOL0     C77279   2.841  10.675   5.323  0.5222  1.1727  0.0771
  573MOL0     C77280   2.736  10.564   5.298 -0.4283  0.8725 -0.4741
  573MOL0     C77281   2.698  10.500   5.430 -0.1515  0.5480  0.1639
  573MOL0     C77282   2.575  10.403   5.419  0.6010  0.2811 -0.2322
  573MOL0     C77283   2.437  10.451   5.380  1.0742 -0.8884 -0.4305
  573MOL0     C77284   2.340  10.516   5.345  0.0449  0.6267  0.2517
  573MOL0     C77285   3.067  10.548   5.201 -0.6211 -0.1354  0.6660
  573MOL0     C77286   3.171  10.471   5.143  0.3928  0.4886 -0.4343
  573MOL0     C77287   3.189  10.470   4.995 -0.2984 -0.1519  0.2306
  573MOL0     H77288   3.327  10.160   4.937 -0.5445 -0.4431  0.0065
  573MOL0     H77289   3.490  10.060   4.760  1.7127  1.7900 -0.3615
  573MOL0     H77290   3.663   9.943   4.635 -1.2291  0.5169  0.5515
  573MOL0     H77291   3.715  10.096   4.695 -1.3606 -0.7258 -0.7923
  573MOL0     H77292   3.898   9.949   4.575  0.3428 -0.0732 -0.2748
  573MOL0     H77293   3.893   9.846   4.719  0.5744  0.6371  1.0826
  573MOL0     H77294   4.073   9.970   4.756 -1.7288 -1.1921  0.1675
  573MOL0     H77295   3.946  10.036   4.854 -0.0247 -2.3031  1.3133
  573MOL0     H77296   4.068  10.150   4.584 -1.7562  2.5551 -1.2810
  573MOL0     H77297   3.918  10.203   4.646 -1.1578 -3.6577 -3.6288
  573MOL0     H77298   4.103  10.358   4.696 -0.8529  0.5875  0.7773
  573MOL0     H77299   4.037  10.293   4.842 -0.9658  2.4457 -1.3570
  573MOL0     H77300   4.215  10.117   4.864  2.2028 -0.2054  0.0879
  573MOL0     H77301   4.262  10.158   4.702 -0.3709 -1.5960 -0.3165
  573MOL0     H77302   4.288  10.377   4.901 -1.1117  1.0071 -1.0881
  573MOL0     H77303   4.388  10.336   4.755  1.6770  2.2198  2.4812
  573MOL0     H77304   4.491  10.141   4.886  4.6549  0.7043 -0.3570
  573MOL0     H77305   4.546  10.309   4.904  0.4043 -0.8498 -0.9615
  573MOL0     H77306   4.290  10.072   5.069 -0.7737  3.4921 -2.2613
  573MOL0     H77307   4.315  10.017   5.389  0.6037  0.8811  0.9128
  573MOL0     H77308   4.280  10.168   5.454 -2.8235  1.3019 -0.0062
  573MOL0     H77309   4.105  10.063   5.234  1.4357  3.5594 -1.7240
  573MOL0     H77310   4.063  10.037   5.406 -0.1147  1.9475  0.9312
  573MOL0     H77311   4.101  10.321   5.311 -1.3426  1.3833  0.1327
  573MOL0     H77312   4.032  10.247   5.464  0.4346  1.2180 -0.9491
  573MOL0     H77313   3.855  10.152   5.316  1.0441  1.2242  0.8866
  573MOL0     H77314   3.933  10.219   5.171  2.0054 -0.0296 -0.7781
  573MOL0     H77315   3.770  10.194   5.517 -1.0640 -0.4784 -3.4580
  573MOL0     H77316   3.614  10.248   5.692  1.1956 -0.6346 -0.5298
  573MOL0     H77317   3.190  10.365   5.774 -3.0592 -0.8922  2.0836
  573MOL0     H77318   3.007  10.407   5.919  1.3236  0.7199 -2.7942
  573MOL0     H77319   2.876  10.531   6.065  0.7870 -0.6981 -1.0406
  573MOL0     H77320   2.906  10.371   6.145  0.8275  0.1454  0.3405
  573MOL0     H77321   2.714  10.493   6.267  0.0308  0.1311  0.8757
  573MOL0     H77322   2.855  10.482   6.364 -0.2158 -1.3018 -1.1269
  573MOL0     H77323   2.911  10.718   6.288 -0.0971 -0.1569  1.9087
  573MOL0     H77324   2.735  10.740   6.232  0.7826 -1.5292 -2.5939
  573MOL0     H77325   2.841  10.670   6.513  2.0652  2.7714 -1.4030
  573MOL0     H77326   2.675  10.650   6.460  1.5999 -1.4424  0.3504
  573MOL0     H77327   2.676  10.906   6.418  0.2799 -0.0321 -0.5762
  573MOL0     H77328   2.853  10.917   6.441  0.7747  0.3290  0.9503
  573MOL0     H77329   2.638  10.866   6.648  0.0761 -1.0082  2.7869
  573MOL0     H77330   2.814  10.839   6.668 -1.3632 -2.0519 -0.4537
  573MOL0     H77331   2.663  11.098   6.582 -0.2256 -0.5338  0.8309
  573MOL0     H77332   2.841  11.099   6.586 -0.7061 -0.2930 -0.3325
  573MOL0     H77333   2.826  11.042   6.832  0.1845  0.0465 -0.7205
  573MOL0     H77334   2.763  11.200   6.788  1.1592  0.2410  1.6543
  573MOL0     H77335   3.286  10.567   6.215 -0.1264  2.1848 -1.7773
  573MOL0     H77336   3.480  10.496   6.065  1.0539 -1.6571 -1.6338
  573MOL0     H77337   3.531  10.628   5.504  2.7052  0.1096 -0.4897
  573MOL0     H77338   3.696  10.577   5.326  0.8084  0.3595 -0.2548
  573MOL0     H77339   3.766  10.012   5.072  0.5069  2.2385  3.4639
  573MOL0     H77340   3.619  10.134   5.235  2.3580 -1.6707  0.3772
  573MOL0     H77341   3.320  10.368   5.423 -1.8232 -1.3893 -0.8450
  573MOL0     H77342   3.137  10.510   5.532  1.6228  0.2669  0.1618
  573MOL0     H77343   2.865  10.732   5.233 -0.0782  1.2800 -0.0225
  573MOL0     H77344   2.801  10.755   5.386  2.6541  1.0193  1.7308
  573MOL0     H77345   2.779  10.484   5.237  1.1520  0.9194  0.5214
  573MOL0     H77346   2.655  10.592   5.230 -0.9913 -2.0070 -1.1376
  573MOL0     H77347   2.678  10.581   5.501  0.4794  1.1025 -0.2745
  573MOL0     H77348   2.779  10.444   5.477  1.5662  0.7497 -2.3432
  573MOL0     H77349   2.600  10.323   5.348  1.0820 -0.0641  0.3191
  573MOL0     H77350   2.573  10.365   5.521 -1.7377 -0.4700 -0.4913
  573MOL0     H77351   2.267  10.589   5.316  2.6108  3.5605  0.6532
  573MOL0     H77352   3.001  10.591   5.126 -2.4142 -0.7752  1.8130
  573MOL0     H77353   3.092  10.476   4.946 -0.1233  0.2251 -0.0776
  573MOL0     H77354   3.248  10.559   4.969  2.1853 -2.2302 -1.7823
  573MOL0     H77355   3.249  10.388   4.955 -0.3891 -0.4168  0.6373
  574MOL0     O77356   3.190   4.322   6.696 -0.0534  0.1660 -0.6291
  574MOL0     C77357   3.184   4.241   6.789 -0.8062 -0.8408  0.1639
  574MOL0     O77358   3.288   4.233   6.878  0.4890  0.6692  0.2862
  574MOL0     C77359   3.383   4.324   6.868 -0.1087  0.6205 -0.1932
  574MOL0     C77360   3.475   4.310   6.762  0.6407 -0.2659  0.0499
  574MOL0     C77361   3.571   4.412   6.750 -0.8368 -0.2137  0.0125
  574MOL0     C77362   3.592   4.512   6.850  0.4992  0.2279  0.5833
  574MOL0     O77363   3.679   4.611   6.843  0.4879 -0.7606 -0.1533
  574MOL0     C77364   3.797   4.611   6.931  1.0961 -0.1143 -0.0240
  574MOL0     C77365   3.874   4.746   6.913  0.4766 -0.6909 -0.6165
  574MOL0     C77366   3.778   4.847   6.977 -0.6268 -1.1347 -0.2502
  574MOL0     C77367   3.849   4.979   7.020 -0.3823  0.0609  0.1815
  574MOL0     C77368   3.764   5.075   7.111 -0.4580 -0.4969  0.4835
  574MOL0     C77369   3.629   5.117   7.049  0.2748 -0.7924 -0.3603
  574MOL0     C77370   3.546   5.196   7.146  0.2975  0.0950  0.3145
  574MOL0     C77371   3.433   5.258   7.061 -0.0490 -0.2231  0.2194
  574MOL0     N77372   3.333   5.319   7.156  0.0957 -0.2664  0.8882
  574MOL0     C77373   3.295   5.274   7.277  0.2805 -0.1013  0.1323
  574MOL0     C77374   3.232   5.369   7.345 -0.2691 -0.2438 -0.5134
  574MOL0     C77375   3.189   5.356   7.488 -0.1366  0.2912  0.0010
  574MOL0     C77376   3.098   5.242   7.527  0.4192  0.3176 -1.0114
  574MOL0     C77377   3.056   5.251   7.678 -0.2444  0.0547  0.0321
  574MOL0     C77378   2.949   5.149   7.712 -0.0792 -0.3600  1.0326
  574MOL0     O77379   2.995   5.012   7.685  0.7244  0.6697 -0.1800
  574MOL0     C77380   2.903   4.919   7.676 -0.8748  0.2167  0.4184
  574MOL0     C77381   2.930   4.828   7.569  0.9742 -0.0663 -0.1621
  574MOL0     C77382   2.851   4.719   7.557  0.6208  0.6140  0.2108
  574MOL0     C77383   2.750   4.685   7.654 -1.3113 -0.7499  0.1820
  574MOL0     C77384   2.664   4.574   7.639  0.8402  0.2502 -0.8507
  574MOL0     O77385   2.559   4.563   7.731 -0.1291  0.9258 -0.2085
  574MOL0     C77386   2.455   4.473   7.727 -0.2405 -0.3030  0.8037
  574MOL0     C77387   2.316   4.493   7.745 -0.8061 -0.1841  0.2261
  574MOL0     C77388   2.223   4.392   7.734 -0.3674  0.2533 -0.8523
  574MOL0     C77389   2.270   4.262   7.723  1.1720  0.3256  0.5058
  574MOL0     O77390   2.172   4.158   7.702 -0.1011 -0.1538 -0.4240
  574MOL0     C77391   2.209   4.036   7.765 -0.8566  0.5410 -0.5875
  574MOL0     C77392   2.090   3.964   7.832  0.8416  0.0449 -0.7540
  574MOL0     C77393   1.994   3.913   7.725 -0.7960 -0.1057  0.7736
  574MOL0     C77394   1.875   3.854   7.802  0.1993 -0.2519 -0.2551
  574MOL0     C77395   1.768   3.795   7.715 -0.0826 -0.8182  0.2084
  574MOL0     C77396   1.804   3.658   7.664  0.3449  0.4543  0.2829
  574MOL0     C77397   1.739   3.616   7.534 -0.5069 -0.1382 -0.9333
  574MOL0     C77398   1.760   3.467   7.489 -0.2502 -0.4162 -0.5925
  574MOL0    Cl77399   1.685   3.359   7.614  0.0270 -0.2828 -0.3269
  574MOL0     C77400   2.399   4.232   7.724 -0.8068 -0.1862  0.0844
  574MOL0     C77401   2.490   4.341   7.726 -0.1030  0.5918  0.1551
  574MOL0     O77402   2.688   4.483   7.556  0.0568  0.0258  0.1543
  574MOL0     C77403   2.732   4.774   7.764  0.0370 -0.0092 -0.2862
  574MOL0     C77404   2.809   4.883   7.768 -0.1967  0.3213 -0.2596
  574MOL0     N77405   3.230   5.481   7.264 -0.1672 -0.1181 -0.3015
  574MOL0     N77406   3.291   5.446   7.155  0.2892  0.4124 -0.2940
  574MOL0     C77407   3.494   4.526   6.953 -1.0992  0.2756 -0.2403
  574MOL0     C77408   3.392   4.428   6.962  0.4442 -0.2001 -0.2093
  574MOL0     C77409   3.074   4.150   6.789  0.8604  1.0467  0.4462
  574MOL0     C77410   3.108   4.015   6.803  0.0974 -0.6576  0.2396
  574MOL0     C77411   3.003   3.916   6.795  0.1543  0.3096  0.5969
  574MOL0     C77412   2.875   3.948   6.763  0.4942  0.2763  0.0045
  574MOL0     O77413   2.769   3.861   6.765 -0.0663 -1.0954 -0.1996
  574MOL0     C77414   2.781   3.723   6.802 -0.6187 -0.1041 -0.9225
  574MOL0     C77415   2.655   3.653   6.823 -0.1742  0.1975 -0.3235
  574MOL0     C77416   2.656   3.504   6.865 -0.8788 -0.6145  0.8517
  574MOL0     C77417   2.515   3.438   6.867  0.3764 -0.6168  0.2257
  574MOL0     C77418   2.490   3.392   6.734 -0.3768  1.0764  0.6829
  574MOL0     C77419   2.466   3.359   6.618 -0.4237 -0.1645  0.2728
  574MOL0     C77420   2.841   4.083   6.750 -1.2272  0.5486 -0.0466
  574MOL0     C77421   2.942   4.177   6.758  0.7210 -0.7691 -0.0515
  574MOL0     C77422   2.892   4.322   6.742  0.1678  0.4405 -0.6249
  574MOL0     H77423   3.463   4.235   6.685 -0.8070  0.9318 -0.9544
  574MOL0     H77424   3.626   4.413   6.656 -0.7579 -1.1721  0.0471
  574MOL0     H77425   3.762   4.598   7.033  1.8979 -0.7194  0.1829
  574MOL0     H77426   3.862   4.529   6.898  0.9683  0.0516 -0.7037
  574MOL0     H77427   3.891   4.776   6.809  4.0585 -2.9753 -0.8792
  574MOL0     H77428   3.975   4.753   6.956  1.4195 -2.2832 -2.3717
  574MOL0     H77429   3.729   4.803   7.064  0.1712  0.6935  1.1928
  574MOL0     H77430   3.698   4.857   6.903 -0.4084 -0.7866 -0.4387
  574MOL0     H77431   3.947   4.961   7.064  0.9142  1.1901 -2.0597
  574MOL0     H77432   3.867   5.025   6.922 -0.6333  1.2610  0.6718
  574MOL0     H77433   3.749   5.022   7.205  0.3539 -1.7385 -0.0681
  574MOL0     H77434   3.823   5.166   7.129  5.0665 -2.6823 -3.7588
  574MOL0     H77435   3.651   5.178   6.961  1.1362 -0.6147 -0.0268
  574MOL0     H77436   3.577   5.030   7.006 -1.3278 -0.1881  0.2722
  574MOL0     H77437   3.600   5.284   7.184  2.3545 -1.2625  0.7210
  574MOL0     H77438   3.508   5.138   7.230  0.5095 -1.6617 -0.7583
  574MOL0     H77439   3.460   5.330   6.983 -2.9196  1.5432  0.7055
  574MOL0     H77440   3.385   5.171   7.016  1.2878  0.0203 -1.8664
  574MOL0     H77441   3.304   5.173   7.315  1.9052  0.5810  1.7064
  574MOL0     H77442   3.278   5.349   7.551  0.7226  0.6953 -1.1303
  574MOL0     H77443   3.151   5.453   7.521 -1.2391 -0.1077 -0.0454
  574MOL0     H77444   3.014   5.238   7.457  0.0661  1.8520 -0.6985
  574MOL0     H77445   3.154   5.148   7.520  0.5563  0.4836 -2.5296
  574MOL0     H77446   3.015   5.350   7.700 -0.3454 -0.0222  0.1992
  574MOL0     H77447   3.141   5.219   7.739 -0.4381 -1.0126 -0.2422
  574MOL0     H77448   2.851   5.170   7.669  0.0792 -0.3909  0.6483
  574MOL0     H77449   2.939   5.172   7.819  0.8626  3.6634  0.4141
  574MOL0     H77450   3.015   4.844   7.503  1.7424  4.0303  1.5109
  574MOL0     H77451   2.858   4.655   7.470 -0.0846 -0.1329  0.6911
  574MOL0     H77452   2.301   4.596   7.776  3.7874  0.6067  0.5717
  574MOL0     H77453   2.121   4.428   7.746  0.0352  0.7365  1.9630
  574MOL0     H77454   2.257   3.976   7.687  2.2485 -0.3816  1.7925
  574MOL0     H77455   2.282   4.037   7.847 -1.6311  1.7306  0.1235
  574MOL0     H77456   2.132   3.883   7.892  0.5678  2.5299  3.0957
  574MOL0     H77457   2.045   4.037   7.900 -0.8051 -0.3423 -1.3867
  574MOL0     H77458   1.955   3.991   7.659  0.7226  1.8515  2.0614
  574MOL0     H77459   2.052   3.839   7.670 -0.1576  1.4929 -0.8197
  574MOL0     H77460   1.824   3.936   7.852  2.0359  1.3767 -0.9258
  574MOL0     H77461   1.903   3.801   7.894 -0.4909  2.8362  1.8873
  574MOL0     H77462   1.760   3.851   7.622  1.0494 -0.1895  0.4654
  574MOL0     H77463   1.668   3.794   7.760 -0.1940  2.0096  0.1878
  574MOL0     H77464   1.912   3.655   7.647  0.4337  0.9070  0.7414
  574MOL0     H77465   1.786   3.580   7.738 -0.0612 -1.5519 -1.8057
  574MOL0     H77466   1.780   3.679   7.455 -0.1884  0.3902 -0.3540
  574MOL0     H77467   1.631   3.634   7.541 -0.2991  1.1814 -0.8485
  574MOL0     H77468   1.725   3.452   7.387  0.2934 -2.3223 -0.5550
  574MOL0     H77469   1.866   3.440   7.480 -0.0901 -0.0667  0.1919
  574MOL0     H77470   2.428   4.128   7.717  0.6026  0.2686 -2.8940
  574MOL0     H77471   2.594   4.316   7.707 -0.0859 -0.5348  1.6157
  574MOL0     H77472   2.650   4.750   7.831  1.2646  0.0745  1.2926
  574MOL0     H77473   2.801   4.940   7.860  1.9438 -2.4073  1.7728
  574MOL0     H77474   3.500   4.606   7.026 -0.8551 -0.6545  0.7906
  574MOL0     H77475   3.320   4.443   7.042 -1.9793 -0.6310 -2.1819
  574MOL0     H77476   3.204   3.977   6.837  0.3730 -1.6235 -1.5440
  574MOL0     H77477   3.036   3.816   6.821 -3.2512 -0.7264  1.3742
  574MOL0     H77478   2.840   3.702   6.891 -1.1789 -2.4797 -1.0451
  574MOL0     H77479   2.833   3.671   6.721 -0.1460  0.1508 -0.7853
  574MOL0     H77480   2.612   3.661   6.722  1.6964 -1.0314 -1.2661
  574MOL0     H77481   2.595   3.721   6.884  1.4106  0.4640  0.9899
  574MOL0     H77482   2.699   3.498   6.965  0.2924 -1.3660  0.3253
  574MOL0     H77483   2.731   3.451   6.805  0.9390  0.2374  2.2648
  574MOL0     H77484   2.503   3.358   6.940 -1.0802 -1.4780 -0.8893
  574MOL0     H77485   2.447   3.521   6.892  2.5347  0.5327  2.6962
  574MOL0     H77486   2.465   3.308   6.523  0.5985  4.1808 -2.3300
  574MOL0     H77487   2.739   4.116   6.734 -1.4540  0.7266  1.6878
  574MOL0     H77488   2.785   4.314   6.765  0.4888  0.4334  0.9856
  574MOL0     H77489   2.953   4.382   6.809  2.4135 -3.6244  1.3381
  574MOL0     H77490   2.910   4.355   6.639 -0.2813  1.9941 -0.2254
  575MOL0     O77491   5.996   6.257   1.487 -0.4517 -0.2554 -0.7547
  575MOL0     C77492   5.965   6.152   1.439  0.7846  1.0552 -0.0724
  575MOL0     O77493   6.055   6.056   1.405  0.0698  0.5412 -0.1437
  575MOL0     C77494   6.156   6.025   1.492  0.1272  0.1212 -1.3717
  575MOL0     C77495   6.248   5.935   1.438 -0.5923  0.2046  1.4732
  575MOL0     C77496   6.360   5.884   1.507 -0.8760  0.0960  0.0579
  575MOL0     C77497   6.379   5.916   1.642 -0.0790  0.1075  0.2647
  575MOL0     O77498   6.472   5.850   1.715 -0.1129  0.5393 -0.1336
  575MOL0     C77499   6.485   5.893   1.855 -0.3427  0.2983  0.6805
  575MOL0     C77500   6.603   5.832   1.931 -0.2823  0.0338 -0.4641
  575MOL0     C77501   6.584   5.685   1.950  0.2976  0.6205  0.0417
  575MOL0     C77502   6.719   5.624   1.974 -0.3810 -0.0406 -0.3846
  575MOL0     C77503   6.699   5.486   2.033  0.8546 -0.4344  0.4758
  575MOL0     C77504   6.828   5.413   2.047  0.1508  0.4826  0.2561
  575MOL0     C77505   6.809   5.274   2.123  0.0449 -0.6899 -0.0477
  575MOL0     C77506   6.741   5.166   2.051 -0.5390  0.4642  0.5414
  575MOL0     N77507   6.593   5.187   2.035 -0.3831  0.1020 -0.6856
  575MOL0     C77508   6.515   5.187   2.152  0.3415 -0.5816  0.3072
  575MOL0     C77509   6.388   5.180   2.099 -0.0268 -0.0751  0.1119
  575MOL0     C77510   6.259   5.189   2.183 -0.2525  0.2145 -0.4163
  575MOL0     C77511   6.229   5.339   2.204  0.4813 -0.6833 -0.2452
  575MOL0     C77512   6.345   5.433   2.242 -0.4686  0.2028 -0.1543
  575MOL0     C77513   6.287   5.554   2.321 -0.5476 -0.0233 -0.0055
  575MOL0     O77514   6.381   5.654   2.308 -1.1283 -0.1168  0.7242
  575MOL0     C77515   6.483   5.671   2.404 -0.4642  0.0174  0.2436
  575MOL0     C77516   6.483   5.606   2.532  0.1383 -0.0493 -0.1713
  575MOL0     C77517   6.575   5.643   2.623 -0.1884  0.1842  0.0373
  575MOL0     C77518   6.672   5.739   2.603 -0.4579 -0.6609  0.5002
  575MOL0     C77519   6.769   5.783   2.710 -0.0229  0.7140 -0.6542
  575MOL0     O77520   6.746   5.736   2.835 -0.2081  0.0682  0.2913
  575MOL0     C77521   6.842   5.771   2.926  0.1696 -0.0633 -0.0401
  575MOL0     C77522   6.913   5.662   2.982  0.3671  0.1803 -0.5193
  575MOL0     C77523   7.015   5.675   3.078 -0.0945 -1.1039  0.2535
  575MOL0     C77524   7.052   5.806   3.117  0.2314 -0.9224 -0.4593
  575MOL0     O77525   7.153   5.818   3.216 -0.0481 -0.0750  0.6215
  575MOL0     C77526   7.145   5.735   3.334  0.1805  0.0876 -1.1896
  575MOL0     C77527   7.170   5.812   3.463 -0.3522  0.2548  0.5239
  575MOL0     C77528   7.028   5.836   3.528 -0.1708 -0.1664 -0.6191
  575MOL0     C77529   6.945   5.943   3.442  1.0228  0.2853 -0.0505
  575MOL0     C77530   6.865   6.027   3.528  1.4112 -0.3565  1.1327
  575MOL0     C77531   6.789   6.136   3.451  0.7231 -0.5658 -0.6569
  575MOL0     C77532   6.667   6.072   3.373 -0.0719  0.7603 -0.7640
  575MOL0     C77533   6.560   6.172   3.327 -0.4730  0.2682 -0.2885
  575MOL0    Cl77534   6.423   6.068   3.279 -0.4589  0.0645  0.2983
  575MOL0     C77535   6.988   5.918   3.053  0.2280  0.0004  0.0512
  575MOL0     C77536   6.876   5.902   2.972 -0.4418 -0.1625 -0.2094
  575MOL0     O77537   6.844   5.876   2.679  0.0885 -0.0825 -0.3872
  575MOL0     C77538   6.681   5.791   2.469  0.0073  0.2902  0.6216
  575MOL0     C77539   6.582   5.767   2.382 -0.1133 -0.1818  0.2851
  575MOL0     N77540   6.392   5.159   1.962 -0.1060  0.0340 -0.0807
  575MOL0     N77541   6.516   5.167   1.925 -0.1831 -0.2435  0.9066
  575MOL0     C77542   6.292   6.010   1.698  0.3585  0.0708 -0.6152
  575MOL0     C77543   6.173   6.068   1.628 -0.3317  0.8076  0.3585
  575MOL0     C77544   5.828   6.149   1.370  0.1320 -0.5161  0.1552
  575MOL0     C77545   5.730   6.239   1.419  0.2415 -0.1301 -1.4630
  575MOL0     C77546   5.599   6.237   1.379  0.0216  0.4483  0.8060
  575MOL0     C77547   5.564   6.145   1.277 -0.1448 -0.4135  0.1433
  575MOL0     O77548   5.436   6.127   1.231  0.1442 -0.7028 -0.6238
  575MOL0     C77549   5.330   6.236   1.251 -0.4151 -0.5582 -0.1160
  575MOL0     C77550   5.197   6.180   1.191 -0.0225  0.3956 -0.8174
  575MOL0     C77551   5.129   6.283   1.094  0.1490  0.9971  0.6737
  575MOL0     C77552   5.085   6.426   1.152 -0.2548 -0.4799  0.9211
  575MOL0     C77553   5.027   6.413   1.286  0.2635 -0.2424 -0.5379
  575MOL0     C77554   5.003   6.389   1.403 -0.2686  0.9515 -0.2530
  575MOL0     C77555   5.653   6.042   1.250 -0.4089  0.7927 -0.2730
  575MOL0     C77556   5.791   6.057   1.271 -0.1304 -0.7320 -1.1251
  575MOL0     C77557   5.887   5.968   1.199 -0.7534 -0.8334  1.0813
  575MOL0     H77558   6.213   5.892   1.344 -3.9004 -2.5763  3.7458
  575MOL0     H77559   6.419   5.806   1.460 -1.1506 -0.8989  1.2893
  575MOL0     H77560   6.513   5.998   1.853 -0.2208  0.2527 -0.4236
  575MOL0     H77561   6.392   5.879   1.912 -1.0401 -0.5302 -0.5991
  575MOL0     H77562   6.631   5.884   2.023 -0.2827  3.0894 -2.0717
  575MOL0     H77563   6.692   5.845   1.868 -2.1115 -0.0180 -3.2472
  575MOL0     H77564   6.545   5.634   1.861  1.7424 -0.7580  0.1652
  575MOL0     H77565   6.508   5.658   2.025  1.1933 -0.8658  0.4459
  575MOL0     H77566   6.772   5.610   1.879  0.1542 -2.5827  0.2001
  575MOL0     H77567   6.781   5.680   2.043 -2.9917 -0.3814  2.4678
  575MOL0     H77568   6.651   5.490   2.131 -0.6453  1.0810 -0.2749
  575MOL0     H77569   6.633   5.425   1.971  1.6861 -0.5507 -0.3113
  575MOL0     H77570   6.878   5.406   1.950  1.1588  0.1766  0.7853
  575MOL0     H77571   6.889   5.484   2.103 -1.5324  1.9147  0.3816
  575MOL0     H77572   6.762   5.287   2.221 -1.0963 -0.0218 -0.6681
  575MOL0     H77573   6.908   5.236   2.150 -0.8482 -3.3611 -0.2721
  575MOL0     H77574   6.798   5.153   1.958 -0.7057  0.6788  0.4091
  575MOL0     H77575   6.740   5.068   2.100 -0.2583  0.4446  0.5097
  575MOL0     H77576   6.536   5.206   2.257 -1.4274  0.3402  0.5286
  575MOL0     H77577   6.171   5.157   2.126  0.1770 -0.0143 -0.9541
  575MOL0     H77578   6.270   5.129   2.274  2.1842  1.3948  0.1257
  575MOL0     H77579   6.194   5.375   2.107 -0.5184 -2.5364 -0.6230
  575MOL0     H77580   6.149   5.339   2.278 -1.0493  1.1109 -1.7931
  575MOL0     H77581   6.395   5.464   2.150  2.3949 -3.3572 -0.0595
  575MOL0     H77582   6.415   5.381   2.308 -2.6458  1.8135  3.7926
  575MOL0     H77583   6.241   5.529   2.417 -0.3786 -0.6392 -0.0800
  575MOL0     H77584   6.203   5.584   2.257  0.5196  0.5532 -1.1610
  575MOL0     H77585   6.409   5.528   2.546 -0.4101  0.2422 -1.2733
  575MOL0     H77586   6.576   5.581   2.712 -1.6091 -3.3391 -2.1781
  575MOL0     H77587   6.910   5.561   2.942  1.6941 -1.3010  2.6701
  575MOL0     H77588   7.081   5.595   3.110  2.2445  0.3572 -0.7190
  575MOL0     H77589   7.050   5.680   3.334 -0.0721  0.1583  3.5862
  575MOL0     H77590   7.221   5.657   3.333  0.1576 -0.1463  2.4710
  575MOL0     H77591   7.230   5.746   3.525  2.4988 -1.0708 -3.2581
  575MOL0     H77592   7.228   5.904   3.447  0.0230  0.0949  0.9416
  575MOL0     H77593   6.974   5.743   3.547  1.4422 -0.9131  0.5429
  575MOL0     H77594   7.058   5.876   3.625 -0.8636 -1.3450  0.0958
  575MOL0     H77595   6.893   5.878   3.371  1.3634  1.3714 -1.3179
  575MOL0     H77596   7.007   6.013   3.386  1.5430 -1.0489 -1.2272
  575MOL0     H77597   6.934   6.079   3.596  0.3516  1.3732  0.9441
  575MOL0     H77598   6.797   5.968   3.591  2.6253 -1.7904  1.1583
  575MOL0     H77599   6.747   6.209   3.520  0.8291 -0.1933 -0.9868
  575MOL0     H77600   6.847   6.202   3.386 -0.6616  4.3027  2.5231
  575MOL0     H77601   6.612   6.009   3.443 -0.0067  0.5384 -0.9144
  575MOL0     H77602   6.695   6.009   3.288  0.0171 -1.8372  1.0755
  575MOL0     H77603   6.522   6.240   3.404  2.1096  0.6442  0.7466
  575MOL0     H77604   6.602   6.236   3.249  0.8906 -0.5480 -0.2454
  575MOL0     H77605   7.012   6.016   3.094 -1.8940 -0.7882  3.5168
  575MOL0     H77606   6.818   5.991   2.951 -0.0085  0.8042  2.3235
  575MOL0     H77607   6.753   5.867   2.441 -0.2575 -0.1312 -1.2901
  575MOL0     H77608   6.593   5.821   2.288  0.6489  0.5323  0.7762
  575MOL0     H77609   6.286   6.048   1.799 -3.7448 -1.0369 -0.2665
  575MOL0     H77610   6.110   6.145   1.671 -2.5893 -1.5374  1.4452
  575MOL0     H77611   5.752   6.310   1.498 -0.4826 -0.8457 -0.5908
  575MOL0     H77612   5.527   6.312   1.408  1.9535  1.8965  2.1500
  575MOL0     H77613   5.358   6.333   1.208  2.3921  0.8626  4.2035
  575MOL0     H77614   5.332   6.258   1.358 -0.2916 -0.5680 -0.1165
  575MOL0     H77615   5.127   6.135   1.263 -1.7388 -1.4634 -3.4500
  575MOL0     H77616   5.225   6.094   1.130  1.0445  1.4320 -1.8312
  575MOL0     H77617   5.035   6.244   1.053  1.3745 -0.5418 -0.7984
  575MOL0     H77618   5.202   6.313   1.018  2.1862  2.1521  2.9373
  575MOL0     H77619   5.172   6.490   1.167 -2.4573  2.0931  3.9136
  575MOL0     H77620   5.020   6.479   1.082  1.5034 -0.1991 -0.5806
  575MOL0     H77621   4.967   6.380   1.503  1.6703  1.1496  0.5148
  575MOL0     H77622   5.622   5.955   1.193 -1.3484 -1.5398  3.4593
  575MOL0     H77623   5.974   6.033   1.183 -3.0217  1.6083 -3.0905
  575MOL0     H77624   5.899   5.874   1.253  0.4742 -0.7357  1.0259
  575MOL0     H77625   5.846   5.925   1.108  2.4812 -1.3753 -0.2524
  576MOL0     O77626  10.432   5.650   2.007 -0.5240 -0.3388 -0.5144
  576MOL0     C77627  10.551   5.658   2.042  0.1627 -0.2478 -0.3993
  576MOL0     O77628  10.634   5.757   2.007 -0.5400  1.1752  0.3629
  576MOL0     C77629  10.580   5.872   1.957 -0.7780  0.0552 -0.4250
  576MOL0     C77630  10.480   5.939   2.025 -0.5937  0.3367  0.1892
  576MOL0     C77631  10.435   6.065   1.976 -1.1613 -0.9087 -0.0573
  576MOL0     C77632  10.496   6.125   1.861  0.5901 -0.2363 -0.3601
  576MOL0     O77633  10.451   6.249   1.813 -0.3477  0.7762 -0.6295
  576MOL0     C77634  10.440   6.269   1.676  0.2633 -0.5920 -0.0866
  576MOL0     C77635  10.303   6.335   1.657 -0.1147 -0.0558 -0.4191
  576MOL0     C77636  10.185   6.268   1.738  0.7096 -0.1762 -0.2541
  576MOL0     C77637  10.049   6.296   1.675  0.5114 -0.2327  0.1649
  576MOL0     C77638   9.980   6.159   1.664  0.0996  0.6822 -0.3640
  576MOL0     C77639   9.836   6.190   1.622 -0.5987  0.0766 -0.5561
  576MOL0     C77640   9.746   6.066   1.628 -0.7316  0.6940  0.3261
  576MOL0     C77641   9.771   5.970   1.513 -0.4023 -0.3162 -0.0209
  576MOL0     N77642   9.707   5.840   1.531  0.6056  0.9987  0.7250
  576MOL0     C77643   9.771   5.719   1.540  0.4675  0.4572 -0.1278
  576MOL0     C77644   9.677   5.622   1.558 -0.6755 -0.0789  0.2172
  576MOL0     C77645   9.719   5.471   1.584  0.2614  0.5919  0.5009
  576MOL0     C77646   9.711   5.401   1.439  0.5463  0.8535 -0.2002
  576MOL0     C77647   9.820   5.448   1.342 -0.3958  0.2694 -0.4891
  576MOL0     C77648   9.970   5.433   1.393  0.3136 -0.4348 -0.5574
  576MOL0     O77649   9.984   5.298   1.439 -0.3730  0.4902  0.1240
  576MOL0     C77650  10.096   5.278   1.523 -0.0026 -0.6921 -0.4386
  576MOL0     C77651  10.090   5.251   1.663  0.5278 -0.2228  1.2700
  576MOL0     C77652  10.203   5.215   1.723  0.1666  1.0595  0.5411
  576MOL0     C77653  10.331   5.232   1.666 -0.7796  0.2634  0.1708
  576MOL0     C77654  10.459   5.201   1.741  0.8667 -0.3997  0.1988
  576MOL0     O77655  10.580   5.232   1.674  0.1725  0.1177 -0.1625
  576MOL0     C77656  10.700   5.210   1.736 -0.2726  0.2302  0.2804
  576MOL0     C77657  10.797   5.314   1.714  0.3072 -0.5534  1.5067
  576MOL0     C77658  10.918   5.319   1.777  0.0388  0.6941 -0.4678
  576MOL0     C77659  10.957   5.214   1.857  0.0551 -0.4796 -0.4515
  576MOL0     O77660  11.081   5.199   1.898  0.1887  0.5778 -0.1508
  576MOL0     C77661  11.189   5.271   1.837 -0.7465 -0.8969  0.8353
  576MOL0     C77662  11.315   5.193   1.870  0.4883 -0.1713 -0.2302
  576MOL0     C77663  11.317   5.052   1.828  0.6984 -0.1473  0.8264
  576MOL0     C77664  11.464   5.000   1.833 -0.5551 -0.1490  0.4114
  576MOL0     C77665  11.500   4.860   1.771  0.9874 -0.0845 -0.0155
  576MOL0     C77666  11.391   4.746   1.818 -0.2278 -0.7094  1.0546
  576MOL0     C77667  11.413   4.602   1.765  0.3241  0.6352  0.8061
  576MOL0     C77668  11.333   4.496   1.840  0.1792  0.2286  0.0357
  576MOL0    Cl77669  11.390   4.481   2.009 -0.3724  0.2237 -0.1656
  576MOL0     C77670  10.866   5.120   1.890 -0.5697  0.2181 -0.0515
  576MOL0     C77671  10.739   5.116   1.835  0.5479 -0.6350 -0.0125
  576MOL0     O77672  10.453   5.161   1.854  0.5897 -0.3870  0.1534
  576MOL0     C77673  10.340   5.255   1.533  0.4926 -1.1311 -0.0447
  576MOL0     C77674  10.225   5.270   1.463  0.1443  0.3525  0.3560
  576MOL0     N77675   9.552   5.684   1.546  0.1600 -0.1614  0.0853
  576MOL0     N77676   9.572   5.813   1.534 -0.6985  0.5821 -0.1436
  576MOL0     C77677  10.603   6.055   1.800 -0.6594  0.0936 -0.1764
  576MOL0     C77678  10.647   5.937   1.853 -0.2674 -0.1272 -0.4159
  576MOL0     C77679  10.594   5.547   2.129 -0.6443  0.8806 -0.0761
  576MOL0     C77680  10.501   5.500   2.219 -0.3715  0.1058  0.6753
  576MOL0     C77681  10.527   5.398   2.303 -0.7270 -0.3345  0.4463
  576MOL0     C77682  10.645   5.330   2.289  0.1618  0.5041  0.3038
  576MOL0     O77683  10.679   5.206   2.342  0.3371  1.3128 -0.1028
  576MOL0     C77684  10.598   5.132   2.429  0.5404 -0.2227  0.7400
  576MOL0     C77685  10.586   4.993   2.374 -0.1988  0.0670  0.4790
  576MOL0     C77686  10.479   4.980   2.259  0.4302 -0.2387  0.3164
  576MOL0     C77687  10.336   5.018   2.292  0.1940 -0.1102 -0.1041
  576MOL0     C77688  10.281   4.932   2.388 -0.0242  0.5764 -0.4868
  576MOL0     C77689  10.239   4.854   2.474  0.8179 -0.4736  0.0013
  576MOL0     C77690  10.742   5.369   2.195  0.0384  0.6124 -0.1335
  576MOL0     C77691  10.723   5.485   2.119  0.5503 -0.2118 -0.3531
  576MOL0     C77692  10.839   5.537   2.042  0.8449  0.6828 -0.1441
  576MOL0     H77693  10.419   5.896   2.104 -0.2180 -0.4827  0.0362
  576MOL0     H77694  10.352   6.108   2.030 -0.1864  2.1820 -0.8219
  576MOL0     H77695  10.533   6.321   1.656  1.0657 -0.5318  3.2440
  576MOL0     H77696  10.434   6.184   1.608 -1.0646  0.1506 -0.9540
  576MOL0     H77697  10.273   6.351   1.553 -4.0582  2.4563  0.8589
  576MOL0     H77698  10.313   6.435   1.699 -1.4240 -0.5879  1.2624
  576MOL0     H77699  10.182   6.290   1.845 -1.8262 -0.0105 -0.3023
  576MOL0     H77700  10.211   6.162   1.726  0.8628 -0.2636  0.7104
  576MOL0     H77701  10.007   6.380   1.731  1.9471  0.8878 -0.3615
  576MOL0     H77702  10.063   6.329   1.572  2.0634  1.1956  0.7898
  576MOL0     H77703  10.029   6.082   1.604  1.3582 -1.2707  2.9179
  576MOL0     H77704   9.982   6.115   1.764 -1.7168  0.4366 -0.3972
  576MOL0     H77705   9.781   6.268   1.676 -2.3506 -0.5792 -1.3260
  576MOL0     H77706   9.844   6.231   1.521 -1.2302  1.0767 -0.2161
  576MOL0     H77707   9.639   6.089   1.625 -0.4524  2.1192 -3.4189
  576MOL0     H77708   9.779   6.022   1.723 -1.7883 -1.4749 -0.2379
  576MOL0     H77709   9.734   6.015   1.421 -2.1674 -3.0154 -0.7692
  576MOL0     H77710   9.880   5.955   1.505 -0.1550 -1.4337  3.4741
  576MOL0     H77711   9.876   5.702   1.561 -0.2479 -1.3392  2.6661
  576MOL0     H77712   9.811   5.471   1.643 -0.0773 -1.2236  1.0989
  576MOL0     H77713   9.639   5.423   1.641  2.1216 -2.6234  0.6411
  576MOL0     H77714   9.734   5.296   1.458  1.0982  1.0504  0.2574
  576MOL0     H77715   9.612   5.403   1.393  1.1204 -0.9759 -1.6220
  576MOL0     H77716   9.801   5.553   1.316 -2.2531  0.7348  2.3523
  576MOL0     H77717   9.814   5.383   1.254  0.1281  0.1555 -0.4429
  576MOL0     H77718   9.992   5.506   1.471  0.5756 -3.2013  2.1309
  576MOL0     H77719  10.042   5.439   1.311  2.4047 -1.7480  1.0960
  576MOL0     H77720   9.991   5.243   1.707  0.3419 -3.0316  0.5209
  576MOL0     H77721  10.198   5.163   1.819 -0.8651  0.3986  0.1432
  576MOL0     H77722  10.764   5.387   1.640 -1.3413  0.7829  3.4502
  576MOL0     H77723  10.990   5.394   1.744  1.3279 -0.0590  0.5699
  576MOL0     H77724  11.185   5.289   1.729 -1.3124 -0.1679  0.9661
  576MOL0     H77725  11.193   5.368   1.888  0.5903 -0.0662 -0.7589
  576MOL0     H77726  11.405   5.250   1.845 -0.7539  2.1855  0.3736
  576MOL0     H77727  11.315   5.194   1.980  1.6600  2.8433 -0.1743
  576MOL0     H77728  11.246   4.992   1.885 -1.0743 -0.1986 -1.3270
  576MOL0     H77729  11.293   5.061   1.722 -0.8039  4.3278  1.3203
  576MOL0     H77730  11.504   4.991   1.934 -2.8324 -2.8736  1.1958
  576MOL0     H77731  11.524   5.075   1.780  0.8862 -0.8873  0.9351
  576MOL0     H77732  11.606   4.839   1.788  1.8361  3.4601 -0.2050
  576MOL0     H77733  11.486   4.865   1.663  1.9260  2.4610 -0.0818
  576MOL0     H77734  11.385   4.745   1.927  3.7606 -1.2181  1.3997
  576MOL0     H77735  11.295   4.772   1.771  1.3257  0.5726 -1.5957
  576MOL0     H77736  11.514   4.560   1.765  0.0349 -0.1076 -0.5641
  576MOL0     H77737  11.402   4.605   1.657  2.8778 -0.0799  0.4662
  576MOL0     H77738  11.225   4.514   1.835  0.0897 -0.4741 -0.9064
  576MOL0     H77739  11.333   4.400   1.787  0.0031  0.5165 -0.5000
  576MOL0     H77740  10.890   5.039   1.958  0.0913 -1.1024 -1.7655
  576MOL0     H77741  10.670   5.040   1.869  0.7653 -1.5154 -1.4914
  576MOL0     H77742  10.433   5.257   1.478  0.5517 -0.7719  0.0706
  576MOL0     H77743  10.227   5.279   1.355  0.5200 -0.1461  0.3132
  576MOL0     H77744  10.654   6.104   1.718 -1.8439  3.3526  0.8679
  576MOL0     H77745  10.721   5.890   1.790 -1.7123  1.3691 -3.4750
  576MOL0     H77746  10.399   5.539   2.222 -1.0642 -1.5577 -0.0881
  576MOL0     H77747  10.453   5.357   2.371 -2.2727  2.4961  0.6146
  576MOL0     H77748  10.499   5.178   2.437  0.1820 -1.0830  1.3315
  576MOL0     H77749  10.647   5.124   2.526 -0.8671 -0.8065  1.4207
  576MOL0     H77750  10.561   4.927   2.458 -2.4045 -0.1491 -0.2731
  576MOL0     H77751  10.687   4.973   2.338 -0.0601 -1.1364  1.4695
  576MOL0     H77752  10.482   4.885   2.204  1.5057 -0.4421  0.7072
  576MOL0     H77753  10.515   5.060   2.193  1.1426 -0.9398 -0.1543
  576MOL0     H77754  10.333   5.121   2.329  1.7549  0.5563 -1.6726
  576MOL0     H77755  10.274   5.010   2.202 -1.9365  2.1666  1.0312
  576MOL0     H77756  10.201   4.790   2.551 -1.8208  1.0168  0.0677
  576MOL0     H77757  10.833   5.312   2.181  1.3406  2.8274 -1.2047
  576MOL0     H77758  10.814   5.590   1.949  1.8552  0.5608 -0.4909
  576MOL0     H77759  10.892   5.605   2.110  1.8117 -2.7017  2.7521
  576MOL0     H77760  10.903   5.453   2.016 -0.5621 -0.3151 -0.4910
  577MOL0     O77761   3.555   5.153   8.810 -0.2171 -0.4627 -0.1373
  577MOL0     C77762   3.601   5.101   8.908  0.3388  0.2728  0.4775
  577MOL0     O77763   3.608   4.972   8.927  0.7047  0.8448 -0.1171
  577MOL0     C77764   3.536   4.901   8.836 -0.0655  1.0727  0.8532
  577MOL0     C77765   3.544   4.905   8.696 -0.6371 -0.1260  0.7547
  577MOL0     C77766   3.451   4.837   8.614  0.2855  0.3810 -0.1202
  577MOL0     C77767   3.336   4.762   8.658  0.6406  0.3813  0.0390
  577MOL0     O77768   3.242   4.697   8.590 -0.0579  0.0633  0.7855
  577MOL0     C77769   3.247   4.693   8.443  0.1619  0.2739 -0.8357
  577MOL0     C77770   3.132   4.602   8.405  0.4643 -0.1678  0.2097
  577MOL0     C77771   3.122   4.570   8.256 -0.4638 -0.1333  0.2697
  577MOL0     C77772   3.240   4.499   8.194  0.4449  0.1811  0.7596
  577MOL0     C77773   3.199   4.360   8.137 -0.2914  0.0271 -0.1236
  577MOL0     C77774   3.294   4.292   8.048 -0.4370  0.4449  0.2530
  577MOL0     C77775   3.253   4.148   8.014  0.4864  0.3046  0.1707
  577MOL0     C77776   3.336   4.086   7.897 -0.4546 -0.6157 -0.4572
  577MOL0     N77777   3.266   3.965   7.887 -0.1339 -0.1262 -0.4994
  577MOL0     C77778   3.170   3.937   7.794  0.3581 -0.4886  0.1888
  577MOL0     C77779   3.174   3.800   7.789  0.7625  0.8305  0.3650
  577MOL0     C77780   3.118   3.707   7.683  0.6435 -0.0036 -0.8134
  577MOL0     C77781   3.004   3.774   7.609 -0.0562  0.4810  0.6405
  577MOL0     C77782   2.949   3.697   7.486  0.5114 -0.2385 -0.2251
  577MOL0     C77783   2.929   3.790   7.369  0.3894 -0.7532 -0.2526
  577MOL0     O77784   3.030   3.814   7.270  0.5071 -0.4244 -0.9004
  577MOL0     C77785   3.125   3.904   7.323  0.7448  0.1572  0.4262
  577MOL0     C77786   3.242   3.853   7.371 -0.0880 -0.1859  0.5052
  577MOL0     C77787   3.334   3.938   7.441  0.0439  0.2575  0.6428
  577MOL0     C77788   3.311   4.072   7.461  0.4926  0.7082 -0.0357
  577MOL0     C77789   3.400   4.158   7.541  0.8901 -0.7152 -0.9391
  577MOL0     O77790   3.519   4.105   7.582  0.3926  0.5227  0.0873
  577MOL0     C77791   3.615   4.190   7.632  0.3547 -0.9562  0.2297
  577MOL0     C77792   3.748   4.177   7.586 -0.6181 -0.6101 -0.4932
  577MOL0     C77793   3.853   4.269   7.623  0.3443  1.5179  0.0685
  577MOL0     C77794   3.824   4.371   7.718  0.4016  0.2651 -0.0927
  577MOL0     O77795   3.913   4.459   7.766  0.3992  0.1961 -0.1494
  577MOL0     C77796   3.915   4.577   7.686 -1.0259  0.0720 -0.3492
  577MOL0     C77797   3.849   4.690   7.774 -0.1986 -0.5415  1.0698
  577MOL0     C77798   3.914   4.699   7.908  0.3219 -0.0654  0.2883
  577MOL0     C77799   3.869   4.834   7.972 -0.2266 -0.7188  1.3640
  577MOL0     C77800   3.712   4.842   7.993 -0.6837  0.1049  0.8038
  577MOL0     C77801   3.683   4.941   8.107  0.0936  0.5467  0.6683
  577MOL0     C77802   3.558   4.904   8.190 -0.1316  0.8576 -1.0401
  577MOL0     C77803   3.417   4.942   8.145  0.4930  0.4248 -0.4904
  577MOL0    Cl77804   3.382   5.099   8.222  0.1118  0.3074  0.5146
  577MOL0     C77805   3.697   4.374   7.768  1.2226  0.3497 -0.2189
  577MOL0     C77806   3.594   4.288   7.731  0.3954 -0.5327  0.2804
  577MOL0     O77807   3.363   4.278   7.556 -0.9093 -0.2668 -0.5560
  577MOL0     C77808   3.190   4.124   7.408 -0.4761 -0.8190  0.2392
  577MOL0     C77809   3.103   4.044   7.340  0.2567  1.4217 -0.7949
  577MOL0     N77810   3.261   3.751   7.882 -0.3145  0.0952 -0.5956
  577MOL0     N77811   3.318   3.852   7.941 -0.2449  0.0794  0.7969
  577MOL0     C77812   3.327   4.762   8.795  0.1973 -0.2325 -0.1777
  577MOL0     C77813   3.429   4.815   8.878 -0.4043  0.1460 -0.0045
  577MOL0     C77814   3.681   5.191   8.998  0.8843  0.3226 -0.3121
  577MOL0     C77815   3.678   5.160   9.130 -0.6480 -0.2374 -1.0194
  577MOL0     C77816   3.746   5.233   9.220 -0.2289 -0.4360 -0.3029
  577MOL0     C77817   3.832   5.333   9.180 -0.0896 -0.0011 -0.8840
  577MOL0     O77818   3.910   5.408   9.261  0.1701  0.8002  0.3070
  577MOL0     C77819   3.915   5.367   9.399 -0.1439 -0.2459  0.0902
  577MOL0     C77820   4.054   5.416   9.455  0.0013  0.6462  0.6087
  577MOL0     C77821   4.063   5.573   9.449  0.1452  0.1958 -0.1448
  577MOL0     C77822   4.197   5.625   9.501  0.7605  0.0518  0.3998
  577MOL0     C77823   4.184   5.769   9.532 -0.7831 -0.8617  0.8806
  577MOL0     C77824   4.177   5.890   9.550  0.9046  0.2417 -0.2609
  577MOL0     C77825   3.828   5.377   9.049  0.3834  0.5655  0.3783
  577MOL0     C77826   3.756   5.302   8.958  0.9164  0.0920  0.0611
  577MOL0     C77827   3.752   5.353   8.818 -0.1015 -0.9240 -0.4334
  577MOL0     H77828   3.635   4.947   8.653 -0.9055  0.7099  0.9811
  577MOL0     H77829   3.478   4.818   8.511  1.8511 -1.0116  0.4933
  577MOL0     H77830   3.238   4.795   8.404 -0.9532 -0.2284 -1.9286
  577MOL0     H77831   3.347   4.655   8.421 -0.3809 -0.4054 -2.2632
  577MOL0     H77832   3.035   4.633   8.446 -0.2447 -2.0115  0.0207
  577MOL0     H77833   3.153   4.508   8.455 -1.4979 -1.7351 -1.6847
  577MOL0     H77834   3.120   4.662   8.196 -0.2252  0.3209  0.9492
  577MOL0     H77835   3.032   4.516   8.225  0.3146 -0.2665 -1.9659
  577MOL0     H77836   3.294   4.562   8.123  5.6443 -3.5228  0.8387
  577MOL0     H77837   3.315   4.469   8.268  0.0009  0.3069  1.2716
  577MOL0     H77838   3.194   4.296   8.226 -0.4794 -0.7701 -0.7038
  577MOL0     H77839   3.104   4.368   8.083  0.7502 -0.8113 -2.1714
  577MOL0     H77840   3.299   4.356   7.959  0.4180 -0.4427 -0.3606
  577MOL0     H77841   3.391   4.296   8.097 -0.4109  1.2436  0.1388
  577MOL0     H77842   3.149   4.153   7.981  0.5701 -3.0275 -0.9229
  577MOL0     H77843   3.246   4.084   8.102 -1.8484  0.6003  0.2450
  577MOL0     H77844   3.326   4.147   7.807  1.5831  0.6968  0.1426
  577MOL0     H77845   3.442   4.086   7.921 -0.2983  0.4940 -1.0907
  577MOL0     H77846   3.124   4.018   7.738  3.2583 -0.7920 -2.9774
  577MOL0     H77847   3.202   3.691   7.615  0.2838 -4.4725 -0.4966
  577MOL0     H77848   3.077   3.616   7.727 -1.4898  1.8665  1.3597
  577MOL0     H77849   2.929   3.801   7.684 -0.9753  0.1655 -0.1325
  577MOL0     H77850   3.043   3.869   7.571 -0.8217  0.1614 -1.0487
  577MOL0     H77851   2.853   3.658   7.521  0.5303 -0.9083 -0.8994
  577MOL0     H77852   3.015   3.614   7.459  0.8888 -0.4929  1.4209
  577MOL0     H77853   2.888   3.888   7.396  2.5263  0.7369 -2.0770
  577MOL0     H77854   2.845   3.746   7.314 -0.2401 -0.4473  0.4583
  577MOL0     H77855   3.252   3.745   7.364 -0.7384 -0.4186  2.6907
  577MOL0     H77856   3.429   3.899   7.478  2.3397  2.4650 -2.4465
  577MOL0     H77857   3.778   4.094   7.523  3.6927 -0.2080  0.7546
  577MOL0     H77858   3.953   4.245   7.587  1.4628 -2.1219  4.6141
  577MOL0     H77859   4.015   4.613   7.663 -1.4640  2.5222  1.0717
  577MOL0     H77860   3.851   4.574   7.597 -4.0055 -2.5096  1.6583
  577MOL0     H77861   3.834   4.779   7.713 -0.1047 -0.9114  0.4920
  577MOL0     H77862   3.743   4.664   7.774 -0.6016  0.9562  2.1035
  577MOL0     H77863   3.878   4.611   7.961  2.1812 -0.0218  1.7255
  577MOL0     H77864   4.021   4.688   7.891  0.3658  0.8045 -0.0557
  577MOL0     H77865   3.904   4.912   7.905  0.8824 -0.6738  1.9625
  577MOL0     H77866   3.933   4.859   8.057  2.1139  0.8056 -0.7192
  577MOL0     H77867   3.685   4.741   8.025 -1.4852 -0.4696 -1.4766
  577MOL0     H77868   3.657   4.863   7.901  1.3465 -0.2892 -0.5521
  577MOL0     H77869   3.766   4.965   8.175  0.8559 -2.2290  0.8457
  577MOL0     H77870   3.663   5.035   8.056  1.8000 -0.5472 -2.2557
  577MOL0     H77871   3.576   4.951   8.287  1.2291 -1.2987 -0.1749
  577MOL0     H77872   3.564   4.797   8.209  1.0688  0.8679 -1.2734
  577MOL0     H77873   3.416   4.954   8.037  2.5642  2.4423 -0.3580
  577MOL0     H77874   3.340   4.871   8.176 -1.2554  2.0756 -0.8117
  577MOL0     H77875   3.666   4.445   7.844 -2.1471 -2.5802  1.4757
  577MOL0     H77876   3.498   4.324   7.766  2.3368  2.8299  2.6793
  577MOL0     H77877   3.161   4.227   7.396 -0.2743 -0.8796 -0.8256
  577MOL0     H77878   3.013   4.089   7.299 -0.5777  0.8204  0.3261
  577MOL0     H77879   3.242   4.704   8.831 -0.2350 -0.2567 -1.2032
  577MOL0     H77880   3.423   4.816   8.986  3.0066 -3.1654  0.4128
  577MOL0     H77881   3.620   5.078   9.171  4.7118 -3.5290  1.1562
  577MOL0     H77882   3.736   5.207   9.325  3.9063  2.4486  1.0535
  577MOL0     H77883   3.927   5.260   9.413  2.8969 -0.2640 -1.6215
  577MOL0     H77884   3.828   5.409   9.449 -1.8897 -2.6505 -0.7916
  577MOL0     H77885   4.136   5.373   9.396  1.6972  0.7912  2.7271
  577MOL0     H77886   4.082   5.381   9.555  1.6588 -1.4869 -0.5162
  577MOL0     H77887   3.979   5.621   9.500  0.9596  3.0299 -1.2679
  577MOL0     H77888   4.045   5.606   9.347 -1.4397  0.2470  0.1216
  577MOL0     H77889   4.224   5.577   9.595 -0.5770 -5.2613 -1.5851
  577MOL0     H77890   4.280   5.592   9.438  0.2535 -1.8407  0.6526
  577MOL0     H77891   4.165   5.996   9.565 -0.7316  0.0331  0.1842
  577MOL0     H77892   3.870   5.473   9.021 -0.0465  0.6756  0.0896
  577MOL0     H77893   3.768   5.272   8.746  0.9758 -0.6326 -0.5303
  577MOL0     H77894   3.656   5.405   8.807  0.6735  0.6621  0.0501
  577MOL0     H77895   3.838   5.419   8.803  1.6182 -2.1884  2.9210
  578MOL0     O77896   1.481   4.255   8.454  0.1968  0.5956 -0.5650
  578MOL0     C77897   1.407   4.333   8.526 -0.6701  1.1156 -0.8020
  578MOL0     O77898   1.384   4.468   8.504  0.7740 -0.2227 -0.1041
  578MOL0     C77899   1.397   4.521   8.377  0.3986  0.4235 -0.3167
  578MOL0     C77900   1.281   4.560   8.323  0.3468 -0.3720  0.2313
  578MOL0     C77901   1.269   4.599   8.190  0.6291  0.4525 -0.4487
  578MOL0     C77902   1.383   4.616   8.107  0.9028  1.0501  0.6339
  578MOL0     O77903   1.364   4.672   7.978 -0.1944 -0.4666  0.4838
  578MOL0     C77904   1.476   4.707   7.899 -0.4280 -0.7088  0.1326
  578MOL0     C77905   1.433   4.732   7.752 -0.3900 -0.0740  0.5916
  578MOL0     C77906   1.541   4.715   7.639  0.7766  0.7794  0.4441
  578MOL0     C77907   1.670   4.798   7.658 -0.9506  0.5624 -0.3575
  578MOL0     C77908   1.752   4.807   7.530 -1.1997 -0.5041 -0.0972
  578MOL0     C77909   1.885   4.894   7.559  0.7721  0.8256  0.0248
  578MOL0     C77910   1.955   4.925   7.412  0.2759 -0.1208 -0.0307
  578MOL0     C77911   2.016   4.795   7.344 -0.0101 -0.5163 -0.7192
  578MOL0     N77912   2.045   4.817   7.198 -0.4731 -0.2568 -0.3882
  578MOL0     C77913   2.078   4.704   7.119 -0.0414 -1.0262 -0.1855
  578MOL0     C77914   2.041   4.742   6.998  1.0817 -0.2311 -0.8294
  578MOL0     C77915   2.067   4.671   6.877 -0.4650  0.0812 -0.1289
  578MOL0     C77916   2.167   4.767   6.797  1.5921  0.5002  0.4922
  578MOL0     C77917   2.219   4.700   6.670 -0.3304 -0.3824  0.0871
  578MOL0     C77918   2.300   4.812   6.589 -0.3163  0.0118  0.4140
  578MOL0     O77919   2.359   4.751   6.476  0.6534  1.1297 -0.0482
  578MOL0     C77920   2.419   4.829   6.384 -0.4738 -0.0183  0.4146
  578MOL0     C77921   2.448   4.773   6.257 -0.3083  0.4250 -0.8476
  578MOL0     C77922   2.537   4.831   6.169  0.1358 -0.9514 -0.1084
  578MOL0     C77923   2.597   4.954   6.202 -0.5764 -1.3602 -0.0630
  578MOL0     C77924   2.697   5.015   6.102 -0.0596  0.6173  0.3964
  578MOL0     O77925   2.705   4.939   5.988  0.1582 -0.5896  0.6642
  578MOL0     C77926   2.792   4.949   5.882 -0.7254  0.5518 -0.8298
  578MOL0     C77927   2.753   4.885   5.780 -0.5961  0.8091 -0.3169
  578MOL0     C77928   2.834   4.879   5.662 -1.5529  0.9819  0.2542
  578MOL0     C77929   2.946   4.965   5.652 -0.7933  0.5187  1.0656
  578MOL0     O77930   3.031   4.969   5.548  0.3204 -0.7094 -1.0236
  578MOL0     C77931   3.033   4.860   5.451  0.4910  1.0959  0.5822
  578MOL0     C77932   3.143   4.892   5.338 -0.3402  0.1916 -0.3409
  578MOL0     C77933   3.186   4.771   5.244 -0.0442 -0.8971 -0.3624
  578MOL0     C77934   3.169   4.811   5.096  0.1911 -0.0712 -0.1638
  578MOL0     C77935   3.272   4.735   5.004  0.1264 -0.0694 -0.5964
  578MOL0     C77936   3.243   4.580   4.994  1.1065 -0.7466  0.3012
  578MOL0     C77937   3.334   4.517   4.888  0.2471 -0.2978  0.0164
  578MOL0     C77938   3.349   4.371   4.930 -0.2155 -0.2743 -0.1789
  578MOL0    Cl77939   3.471   4.305   4.818 -0.2436  0.1905 -0.3027
  578MOL0     C77940   2.979   5.041   5.763 -0.1456 -0.0019  0.3494
  578MOL0     C77941   2.904   5.031   5.881  0.2144  0.9157 -0.1639
  578MOL0     O77942   2.770   5.104   6.138  0.2446  0.1862  0.0104
  578MOL0     C77943   2.570   5.012   6.333  0.0732 -0.0741 -0.3441
  578MOL0     C77944   2.477   4.953   6.417  0.2769  0.4139 -0.8869
  578MOL0     N77945   1.971   4.858   7.011 -0.0759 -0.3021 -0.2308
  578MOL0     N77946   1.970   4.905   7.124  0.3200 -0.6070 -0.1861
  578MOL0     C77947   1.504   4.586   8.168  0.2972  0.1430  0.2733
  578MOL0     C77948   1.513   4.534   8.295  0.0800  0.4418 -0.6422
  578MOL0     C77949   1.330   4.282   8.652 -0.6958 -0.3826  1.0420
  578MOL0     C77950   1.206   4.341   8.673  0.6692  0.0214 -0.6095
  578MOL0     C77951   1.139   4.324   8.798  0.4848  0.2218 -0.5599
  578MOL0     C77952   1.190   4.225   8.895 -0.2876 -0.9773 -0.3741
  578MOL0     O77953   1.114   4.202   9.012 -0.0974 -0.3592  1.2077
  578MOL0     C77954   1.151   4.090   9.090  0.4680 -0.0903 -0.5924
  578MOL0     C77955   1.032   4.050   9.183  0.1105  0.8426  0.3414
  578MOL0     C77956   0.911   4.003   9.098  0.3963 -0.4885 -0.2874
  578MOL0     C77957   0.772   4.010   9.160 -0.7923 -0.3899  0.7633
  578MOL0     C77958   0.742   4.118   9.261  0.0687 -0.6332 -0.8083
  578MOL0     C77959   0.743   4.213   9.338 -0.5165  0.6706 -0.7934
  578MOL0     C77960   1.309   4.162   8.867 -1.0000 -0.3029  0.0544
  578MOL0     C77961   1.377   4.186   8.744 -0.0096  0.2591 -0.6444
  578MOL0     C77962   1.511   4.112   8.727  0.5523  0.9272  0.1490
  578MOL0     H77963   1.191   4.550   8.382 -1.0591 -0.5376 -1.8462
  578MOL0     H77964   1.173   4.634   8.152  0.6666  0.7496 -0.2711
  578MOL0     H77965   1.528   4.797   7.934  1.6993 -2.2498  1.2208
  578MOL0     H77966   1.545   4.622   7.901 -0.0445 -0.5431 -2.6716
  578MOL0     H77967   1.383   4.829   7.745 -0.5616 -0.1823  0.2720
  578MOL0     H77968   1.355   4.658   7.730 -0.9687  0.1944  1.6564
  578MOL0     H77969   1.485   4.745   7.550  2.0808 -1.4484 -1.2272
  578MOL0     H77970   1.559   4.608   7.630  1.7849  0.9267  0.6044
  578MOL0     H77971   1.636   4.900   7.677 -2.2564  0.5024 -2.2174
  578MOL0     H77972   1.735   4.760   7.739  0.1819 -1.4510 -2.1095
  578MOL0     H77973   1.774   4.707   7.491 -0.2551 -0.5709  0.5566
  578MOL0     H77974   1.699   4.863   7.453  3.0223 -0.9136 -3.6820
  578MOL0     H77975   1.853   4.983   7.612 -1.3679  0.7211 -1.0153
  578MOL0     H77976   1.950   4.842   7.631 -0.0400  0.7780  0.7338
  578MOL0     H77977   2.026   5.007   7.431 -1.5195  1.0241  2.1496
  578MOL0     H77978   1.869   4.957   7.352  0.1376 -1.0049 -0.3057
  578MOL0     H77979   2.113   4.765   7.384 -0.5015 -1.9194 -0.5100
  578MOL0     H77980   1.945   4.714   7.364 -1.6844  1.5617  2.5997
  578MOL0     H77981   2.128   4.611   7.145  1.1685 -0.8471 -1.7239
  578MOL0     H77982   2.112   4.573   6.893 -4.0224 -2.7134 -4.7318
  578MOL0     H77983   1.971   4.657   6.826 -1.9341  2.0667  1.9352
  578MOL0     H77984   2.108   4.856   6.772  1.6014  0.3512 -0.0663
  578MOL0     H77985   2.257   4.786   6.856  3.1071 -1.1795 -1.1379
  578MOL0     H77986   2.132   4.670   6.611  0.0370  0.4329 -0.8951
  578MOL0     H77987   2.282   4.615   6.699  0.1650 -0.5323 -1.3280
  578MOL0     H77988   2.381   4.854   6.649  0.0551  2.3794 -1.5975
  578MOL0     H77989   2.234   4.891   6.551  1.6545  0.4190 -2.5070
  578MOL0     H77990   2.411   4.673   6.240 -2.6938  0.7618  1.6477
  578MOL0     H77991   2.570   4.783   6.077  1.2060 -1.6660  0.6242
  578MOL0     H77992   2.658   4.832   5.779 -0.8080  1.1201  1.1631
  578MOL0     H77993   2.802   4.815   5.581 -1.6677 -0.0041  1.0643
  578MOL0     H77994   3.060   4.772   5.511 -3.7816 -0.3486  0.7459
  578MOL0     H77995   2.938   4.835   5.403  2.9144 -0.2909 -4.1624
  578MOL0     H77996   3.101   4.977   5.283 -0.6882  0.7559  0.7649
  578MOL0     H77997   3.239   4.917   5.383  0.8291 -1.3528 -1.8262
  578MOL0     H77998   3.292   4.753   5.259  0.0625 -0.5245 -0.6612
  578MOL0     H77999   3.123   4.684   5.266  1.9516 -2.6400 -1.2395
  578MOL0     H78000   3.204   4.914   5.094  2.9137 -0.9349 -0.1937
  578MOL0     H78001   3.064   4.800   5.065  0.7673 -1.9815 -1.6193
  578MOL0     H78002   3.370   4.767   5.038 -0.5356  2.4175 -0.8488
  578MOL0     H78003   3.270   4.771   4.901 -0.9532  1.9375  0.0843
  578MOL0     H78004   3.275   4.549   5.094 -0.8463  1.2006  1.6219
  578MOL0     H78005   3.140   4.553   4.973  1.0682  0.3983 -1.1253
  578MOL0     H78006   3.432   4.557   4.914 -0.9160  2.6065  0.3642
  578MOL0     H78007   3.299   4.544   4.788 -0.4030 -2.3802 -0.3531
  578MOL0     H78008   3.364   4.356   5.037  1.2903  1.9962  0.0153
  578MOL0     H78009   3.259   4.315   4.905 -0.2649 -0.1660 -0.2456
  578MOL0     H78010   3.063   5.110   5.771 -1.1344  1.1994  0.7862
  578MOL0     H78011   2.920   5.090   5.970 -2.5188 -0.6160  1.4829
  578MOL0     H78012   2.630   5.097   6.360  0.1910 -0.8996  2.2542
  578MOL0     H78013   2.461   4.997   6.515 -1.4766  2.1452 -1.8892
  578MOL0     H78014   1.599   4.601   8.117  1.2084 -0.6206  1.6962
  578MOL0     H78015   1.603   4.503   8.347 -1.8544  0.8424  3.3394
  578MOL0     H78016   1.153   4.411   8.610 -3.6250 -3.9725 -2.0035
  578MOL0     H78017   1.046   4.363   8.837  2.5515  3.2367  1.8518
  578MOL0     H78018   1.233   4.116   9.157 -1.6778  1.6723  1.5590
  578MOL0     H78019   1.175   4.004   9.026  0.8286  1.0246 -2.0074
  578MOL0     H78020   0.998   4.127   9.253 -0.2505 -0.7638  2.0165
  578MOL0     H78021   1.072   3.967   9.242  2.7924  1.8259  0.0114
  578MOL0     H78022   0.928   3.898   9.069  0.2379 -1.3558  2.4804
  578MOL0     H78023   0.909   4.065   9.007 -2.5088  0.0386  0.0551
  578MOL0     H78024   0.705   4.035   9.077 -1.2518 -0.8172  0.9988
  578MOL0     H78025   0.754   3.909   9.197 -0.7098  0.0694  2.1182
  578MOL0     H78026   0.759   4.295   9.406 -3.1819  2.4026 -2.0997
  578MOL0     H78027   1.350   4.096   8.942  1.1029 -1.5882 -2.0610
  578MOL0     H78028   1.587   4.190   8.726  1.4356  0.0932 -1.2890
  578MOL0     H78029   1.530   4.047   8.813  3.3245  0.3398 -0.8056
  578MOL0     H78030   1.511   4.058   8.632  0.5306 -1.7619  1.5826
  579MOL0     O78031   4.763   8.546   6.922  0.2950 -0.3225  0.2426
  579MOL0     C78032   4.773   8.469   6.824 -0.3491  0.3864  0.2284
  579MOL0     O78033   4.829   8.339   6.825 -0.0559 -0.0323  0.1786
  579MOL0     C78034   4.902   8.315   6.938 -0.1457 -0.8872  0.3545
  579MOL0     C78035   5.024   8.377   6.963  1.1643 -0.5372 -0.8166
  579MOL0     C78036   5.093   8.347   7.077 -0.5617  0.8210 -0.8370
  579MOL0     C78037   5.068   8.238   7.149  0.2232 -0.2976 -0.3060
  579MOL0     O78038   5.148   8.220   7.258  0.6519  0.6933  0.3653
  579MOL0     C78039   5.148   8.098   7.324  1.7915 -0.3291  0.0234
  579MOL0     C78040   5.190   7.983   7.238 -0.0162  0.2295  0.9702
  579MOL0     C78041   5.328   8.001   7.194 -0.6117 -0.6258  1.0137
  579MOL0     C78042   5.374   7.900   7.091 -0.0528  0.0048 -0.7345
  579MOL0     C78043   5.510   7.934   7.037  0.8597 -0.8335  0.1082
  579MOL0     C78044   5.569   7.819   6.957 -0.7665 -0.4690 -0.0098
  579MOL0     C78045   5.719   7.837   6.953 -0.9387  0.2367 -0.1587
  579MOL0     C78046   5.795   7.714   6.887  0.1337 -0.6314 -0.1704
  579MOL0     N78047   5.710   7.631   6.793  0.2506  0.3724 -1.3126
  579MOL0     C78048   5.704   7.662   6.662  0.2384  0.0182 -0.2496
  579MOL0     C78049   5.594   7.595   6.624  0.5143 -0.6579  0.2329
  579MOL0     C78050   5.523   7.618   6.492 -0.4569 -0.8787 -0.6719
  579MOL0     C78051   5.576   7.507   6.404 -1.1616 -0.3130  0.6192
  579MOL0     C78052   5.719   7.536   6.345 -0.6307  0.4098 -0.1046
  579MOL0     C78053   5.751   7.419   6.268  0.7298 -0.0071 -0.1190
  579MOL0     O78054   5.894   7.424   6.238  0.1957 -1.0610 -0.2965
  579MOL0     C78055   5.943   7.309   6.179  0.6788  0.1230  0.5156
  579MOL0     C78056   6.078   7.293   6.176 -0.4007  1.0595 -0.5212
  579MOL0     C78057   6.141   7.182   6.119  0.4310  0.7894 -0.6741
  579MOL0     C78058   6.063   7.083   6.046  0.7283 -0.1979 -0.8245
  579MOL0     C78059   6.120   6.962   5.984  0.8796 -0.3870  0.1805
  579MOL0     O78060   6.249   6.946   6.003  0.6057  0.7110 -0.1840
  579MOL0     C78061   6.337   6.860   5.934  1.2322  0.2671  0.6699
  579MOL0     C78062   6.350   6.868   5.796  0.8680  0.4876 -0.0065
  579MOL0     C78063   6.435   6.773   5.727 -0.0455 -0.5320  0.3498
  579MOL0     C78064   6.514   6.681   5.802 -0.2786  0.8767  0.5815
  579MOL0     O78065   6.607   6.585   5.750  0.1377 -0.0404 -0.6404
  579MOL0     C78066   6.593   6.548   5.612 -0.3734 -0.8668 -0.0681
  579MOL0     C78067   6.690   6.442   5.590 -1.2000 -0.6716 -0.1105
  579MOL0     C78068   6.725   6.425   5.440  0.9213 -0.9127  0.5468
  579MOL0     C78069   6.604   6.350   5.368  0.0728  0.0462  0.2672
  579MOL0     C78070   6.630   6.298   5.225  0.5109  0.1336  0.5827
  579MOL0     C78071   6.651   6.401   5.113 -0.7146 -0.5032 -1.2975
  579MOL0     C78072   6.534   6.495   5.095 -0.1571  0.3664  1.1456
  579MOL0     C78073   6.416   6.418   5.011  0.2641 -0.1572 -0.1258
  579MOL0    Cl78074   6.470   6.343   4.856 -0.3695  0.1177  0.0139
  579MOL0     C78075   6.517   6.694   5.936 -0.8769 -0.2231 -0.1708
  579MOL0     C78076   6.427   6.780   6.000 -0.5643  0.1717 -0.2301
  579MOL0     O78077   6.050   6.897   5.902 -0.3309  0.6050  0.4321
  579MOL0     C78078   5.923   7.098   6.050  0.0555  0.8163  0.1461
  579MOL0     C78079   5.867   7.209   6.117 -0.0778 -0.1195  0.4153
  579MOL0     N78080   5.563   7.504   6.719  0.0189 -0.8210  0.6039
  579MOL0     N78081   5.624   7.535   6.829  0.4079 -0.1319  0.1407
  579MOL0     C78082   4.952   8.167   7.119 -0.4870  0.2366  0.2982
  579MOL0     C78083   4.866   8.202   7.011 -0.0952 -0.6438  0.1248
  579MOL0     C78084   4.699   8.499   6.691 -0.1316 -0.1223 -0.3525
  579MOL0     C78085   4.761   8.469   6.577 -0.0461  0.5488 -0.2639
  579MOL0     C78086   4.708   8.490   6.445 -0.4065  0.0804  0.6661
  579MOL0     C78087   4.577   8.562   6.435 -0.5832  0.2223 -0.5303
  579MOL0     O78088   4.507   8.597   6.323  0.3927 -0.0567  0.0073
  579MOL0     C78089   4.445   8.490   6.241 -0.6175  0.0646 -0.2581
  579MOL0     C78090   4.310   8.444   6.307 -0.3406 -0.3370  0.4072
  579MOL0     C78091   4.268   8.304   6.269 -0.5571  0.2765  0.3493
  579MOL0     C78092   4.116   8.256   6.307 -0.4910  0.0220 -0.5233
  579MOL0     C78093   4.086   8.309   6.442  0.1482 -0.3783  0.6772
  579MOL0     C78094   4.090   8.345   6.557 -0.2115  0.0391  0.4575
  579MOL0     C78095   4.523   8.596   6.559  0.1321  0.4071  0.9316
  579MOL0     C78096   4.584   8.576   6.686  1.0906  0.0969  0.3552
  579MOL0     C78097   4.509   8.638   6.798  0.2420 -0.3200 -0.1464
  579MOL0     H78098   5.061   8.449   6.891  1.1424  0.4739  0.1618
  579MOL0     H78099   5.182   8.406   7.096  1.8561 -3.0810  1.3884
  579MOL0     H78100   5.202   8.105   7.419  0.9376  4.3951  0.4244
  579MOL0     H78101   5.042   8.078   7.343  1.1142 -0.4593 -3.2645
  579MOL0     H78102   5.126   7.962   7.151  2.5459 -0.3745 -0.8982
  579MOL0     H78103   5.184   7.892   7.298 -4.0751 -1.5724 -1.6991
  579MOL0     H78104   5.393   7.983   7.281  0.8982  3.6699  1.0010
  579MOL0     H78105   5.358   8.103   7.168 -0.9415 -0.4142  1.4368
  579MOL0     H78106   5.363   7.800   7.134 -1.5586  0.1611 -0.7249
  579MOL0     H78107   5.308   7.904   7.004  0.6416  0.2692 -1.2636
  579MOL0     H78108   5.504   8.030   6.984 -0.8876 -1.2996 -0.6283
  579MOL0     H78109   5.577   7.959   7.119  0.8989  2.8792 -0.8474
  579MOL0     H78110   5.543   7.723   7.002  0.0524 -1.9603 -2.5562
  579MOL0     H78111   5.520   7.817   6.860 -0.1562  1.6428 -0.4204
  579MOL0     H78112   5.748   7.855   7.057 -3.4664 -1.2794  0.9078
  579MOL0     H78113   5.741   7.931   6.901 -0.9458  0.3423  0.0289
  579MOL0     H78114   5.878   7.764   6.836 -2.8105  4.5799 -0.5942
  579MOL0     H78115   5.834   7.644   6.962 -0.9351 -0.3215  0.7007
  579MOL0     H78116   5.745   7.742   6.602  0.9557  0.5128  0.8734
  579MOL0     H78117   5.420   7.598   6.522  0.4336 -1.6364  2.1341
  579MOL0     H78118   5.531   7.719   6.450  0.5128  0.6443  2.7952
  579MOL0     H78119   5.580   7.411   6.456  0.4198 -1.2236 -1.0512
  579MOL0     H78120   5.502   7.492   6.325 -1.1454 -0.8480  0.7037
  579MOL0     H78121   5.787   7.545   6.430  0.4525 -1.1819 -0.7442
  579MOL0     H78122   5.713   7.623   6.279 -1.3529 -0.3266 -1.0380
  579MOL0     H78123   5.700   7.425   6.172  0.4626  0.2457  0.0383
  579MOL0     H78124   5.718   7.338   6.334 -3.0651  1.8223  0.5002
  579MOL0     H78125   6.142   7.359   6.233  0.0279 -0.6430  1.0588
  579MOL0     H78126   6.249   7.176   6.129  0.3273 -0.1913 -0.0793
  579MOL0     H78127   6.279   6.927   5.739  0.1465 -1.4702 -1.2532
  579MOL0     H78128   6.444   6.782   5.619  2.4389  1.3253  0.6207
  579MOL0     H78129   6.491   6.517   5.588 -1.4261  2.4436 -0.2922
  579MOL0     H78130   6.608   6.635   5.548  0.6187 -0.0944  1.1796
  579MOL0     H78131   6.780   6.452   5.651 -0.2854  1.9497 -1.7171
  579MOL0     H78132   6.651   6.345   5.622 -2.9897  0.3832  1.1078
  579MOL0     H78133   6.734   6.528   5.406 -2.3582 -0.3583  1.0455
  579MOL0     H78134   6.820   6.375   5.421  2.3088  0.6460  2.8017
  579MOL0     H78135   6.511   6.406   5.378 -0.6419 -0.6653 -1.9396
  579MOL0     H78136   6.595   6.259   5.429 -2.7535 -0.9832 -1.4929
  579MOL0     H78137   6.547   6.230   5.204 -1.3240  2.1954  0.6393
  579MOL0     H78138   6.725   6.245   5.230  0.7844  0.7176  3.5395
  579MOL0     H78139   6.745   6.453   5.133 -0.7365 -0.0009 -2.4184
  579MOL0     H78140   6.679   6.355   5.018 -1.4306 -1.7159 -0.9489
  579MOL0     H78141   6.564   6.583   5.037  0.8639 -1.8689 -1.9900
  579MOL0     H78142   6.491   6.528   5.190 -0.6347  0.0343  1.0473
  579MOL0     H78143   6.361   6.342   5.068  0.9556 -0.7823 -0.2665
  579MOL0     H78144   6.344   6.498   4.992  2.2486  2.1404  1.4225
  579MOL0     H78145   6.582   6.632   5.997 -0.2452  1.2595  0.7155
  579MOL0     H78146   6.436   6.801   6.106  0.6588  4.8350 -1.0215
  579MOL0     H78147   5.859   7.030   5.994 -3.5171  3.6173  0.4483
  579MOL0     H78148   5.759   7.220   6.128 -0.3940 -4.0245  3.4979
  579MOL0     H78149   4.919   8.084   7.181 -1.4473  1.2524  1.1835
  579MOL0     H78150   4.773   8.147   7.001  0.4588 -2.0757  2.2048
  579MOL0     H78151   4.860   8.426   6.591  0.8668  2.6635  0.2529
  579MOL0     H78152   4.748   8.460   6.349 -4.5844 -0.5873 -1.0831
  579MOL0     H78153   4.511   8.408   6.214  0.6507  0.4613  1.4783
  579MOL0     H78154   4.419   8.541   6.147  3.2508  6.4301  1.4942
  579MOL0     H78155   4.246   8.529   6.281  1.6387  1.6186  1.6027
  579MOL0     H78156   4.323   8.446   6.416  0.2294 -0.1910  0.3423
  579MOL0     H78157   4.339   8.236   6.317  2.5343  3.4956  0.7934
  579MOL0     H78158   4.287   8.279   6.165 -0.7573  1.1794  0.0899
  579MOL0     H78159   4.046   8.287   6.229 -0.3668 -0.9855 -1.0529
  579MOL0     H78160   4.114   8.148   6.322 -1.1759  0.1829  0.6759
  579MOL0     H78161   4.098   8.382   6.657 -2.2862 -0.3908  0.8257
  579MOL0     H78162   4.420   8.630   6.558  0.0966  0.8095 -3.5201
  579MOL0     H78163   4.407   8.663   6.768  0.3377 -0.9272 -1.0047
  579MOL0     H78164   4.498   8.567   6.880 -3.4235  1.2537  0.9154
  579MOL0     H78165   4.549   8.738   6.821  2.1272 -1.4009  1.6783
  580MOL0     O78166   4.661   2.640  11.319  0.0064 -0.2890 -0.4580
  580MOL0     C78167   4.781   2.657  11.310 -0.1090  0.2812  0.0734
  580MOL0     O78168   4.871   2.647  11.407 -0.0941  0.4065 -0.0029
  580MOL0     C78169   4.838   2.626  11.542 -0.7327  0.2088  1.2343
  580MOL0     C78170   4.934   2.661  11.635 -0.1303 -0.0146 -0.0514
  580MOL0     C78171   4.906   2.647  11.770  0.3379 -0.7022 -0.1228
  580MOL0     C78172   4.788   2.598  11.823  0.3724 -0.3318  0.0484
  580MOL0     O78173   4.769   2.562  11.948 -0.4140 -0.6021 -0.6002
  580MOL0     C78174   4.846   2.634  12.050  0.4139  0.3775 -0.3681
  580MOL0     C78175   4.782   2.582  12.184 -0.0600  0.8960  0.1381
  580MOL0     C78176   4.841   2.657  12.297 -0.3172 -1.0430  0.6485
  580MOL0     C78177   4.849   2.588  12.443 -0.8250  0.5884  0.3430
  580MOL0     C78178   4.883   2.687  12.566 -0.3634 -0.5778  0.3639
  580MOL0     C78179   5.018   2.757  12.580 -0.6248  0.5219 -0.3443
  580MOL0     C78180   5.018   2.878  12.673  0.2776  0.2985  0.5231
  580MOL0     C78181   4.956   2.858  12.806 -0.3170  0.2481 -0.5027
  580MOL0     N78182   5.027   2.754  12.887 -0.6975  0.7198  0.0736
  580MOL0     C78183   5.159   2.768  12.922 -0.0364 -0.2051 -0.3152
  580MOL0     C78184   5.189   2.640  12.969  0.1030 -0.2607  1.1367
  580MOL0     C78185   5.335   2.597  13.008  1.1301 -0.0184  0.2080
  580MOL0     C78186   5.381   2.647  13.142 -0.1420  0.2887 -0.3929
  580MOL0     C78187   5.289   2.590  13.254 -1.0090  0.1315 -0.2996
  580MOL0     C78188   5.353   2.591  13.398 -0.7093 -0.4381 -0.3811
  580MOL0     O78189   5.347   2.715  13.481 -0.5539 -0.4767  0.0044
  580MOL0     C78190   5.231   2.741  13.556  0.3960 -0.5586  0.4663
  580MOL0     C78191   5.223   2.857  13.642  0.8438  0.2400  0.4686
  580MOL0     C78192   5.110   2.906  13.705  0.1229 -0.0231  0.1588
  580MOL0     C78193   4.996   2.819  13.709 -0.3272 -0.2845  0.3620
  580MOL0     C78194   4.865   2.850  13.776 -0.4382 -1.3870 -0.2505
  580MOL0     O78195   4.872   2.952  13.867  0.1552 -0.0949 -0.5500
  580MOL0     C78196   4.764   3.018  13.924  0.4855 -0.3545  0.2755
  580MOL0     C78197   4.790   3.087  14.047 -0.2018  0.2242 -0.9419
  580MOL0     C78198   4.691   3.171  14.088  0.2626 -0.4809  0.0869
  580MOL0     C78199   4.572   3.186  14.017  0.0180 -0.2484  0.3964
  580MOL0     O78200   4.474   3.273  14.051 -0.2352 -0.4227 -0.9270
  580MOL0     C78201   4.471   3.328  14.186 -0.0204 -0.1709 -0.6646
  580MOL0     C78202   4.358   3.423  14.195  0.1182  0.1447 -0.4539
  580MOL0     C78203   4.313   3.431  14.340  0.4742 -0.4438  1.1042
  580MOL0     C78204   4.193   3.530  14.338 -0.3231 -0.2423  0.0701
  580MOL0     C78205   4.160   3.543  14.487 -0.1163  0.2756  0.8697
  580MOL0     C78206   4.059   3.643  14.534  0.2341  0.0017 -0.6737
  580MOL0     C78207   4.094   3.788  14.499  0.2600 -0.9932 -0.9012
  580MOL0     C78208   4.059   3.889  14.614 -0.2500 -0.5793  0.1433
  580MOL0    Cl78209   4.174   3.864  14.743 -0.2769 -0.1627 -0.6265
  580MOL0     C78210   4.559   3.138  13.899  0.0478  0.9379  1.0112
  580MOL0     C78211   4.644   3.045  13.850 -0.3024 -1.0994 -0.9670
  580MOL0     O78212   4.762   2.790  13.753 -0.3700  0.3154 -0.0116
  580MOL0     C78213   5.002   2.696  13.631 -0.3343  0.2329  0.1069
  580MOL0     C78214   5.110   2.658  13.556  0.3140 -0.3434  0.5420
  580MOL0     N78215   5.073   2.558  12.957 -0.3199 -0.3624 -0.2068
  580MOL0     N78216   4.980   2.628  12.917  0.3100  0.4068  0.3997
  580MOL0     C78217   4.697   2.566  11.727 -0.6802  0.5204 -1.1490
  580MOL0     C78218   4.719   2.574  11.585  0.0391 -0.6762  0.1077
  580MOL0     C78219   4.840   2.651  11.171  0.9453 -0.0737  0.7604
  580MOL0     C78220   4.886   2.531  11.121 -0.4673  0.5034 -0.1693
  580MOL0     C78221   4.909   2.515  10.982 -0.1435 -0.2586  0.0658
  580MOL0     C78222   4.878   2.623  10.895 -0.5611  0.4859 -0.4890
  580MOL0     O78223   4.903   2.619  10.760 -0.2161 -0.2431  0.9671
  580MOL0     C78224   4.829   2.525  10.680 -0.3051  0.5135  0.7847
  580MOL0     C78225   4.682   2.553  10.654  0.6922 -0.6222 -0.9785
  580MOL0     C78226   4.660   2.695  10.600 -0.1266  0.3527 -0.5476
  580MOL0     C78227   4.532   2.761  10.635  0.1880  0.0653 -0.5635
  580MOL0     C78228   4.496   2.790  10.771  0.7626  0.0243  0.5986
  580MOL0     C78229   4.478   2.810  10.889 -0.9031  0.6087  0.7966
  580MOL0     C78230   4.829   2.742  10.948 -0.7026 -0.8693  0.6031
  580MOL0     C78231   4.810   2.761  11.085  0.7564  0.5109  0.3275
  580MOL0     C78232   4.750   2.889  11.142 -0.6667  0.3040  0.0735
  580MOL0     H78233   5.033   2.693  11.605  0.0847 -0.5500  0.0747
  580MOL0     H78234   4.984   2.684  11.836  0.9393 -0.5633 -0.9043
  580MOL0     H78235   4.954   2.616  12.048 -0.1004 -4.4052  1.8877
  580MOL0     H78236   4.819   2.740  12.040  1.5555  0.6030 -1.2673
  580MOL0     H78237   4.794   2.473  12.191 -1.4109  0.7777  0.8655
  580MOL0     H78238   4.673   2.586  12.192 -0.1917  0.3108 -1.0337
  580MOL0     H78239   4.779   2.745  12.315  4.1672  1.8556  4.6077
  580MOL0     H78240   4.941   2.699  12.279 -0.5417  0.5791  2.6936
  580MOL0     H78241   4.757   2.534  12.465 -0.4649 -1.1629 -2.0350
  580MOL0     H78242   4.928   2.513  12.450  1.2065  2.5258 -0.1973
  580MOL0     H78243   4.805   2.764  12.561  1.8424  1.8439  1.0755
  580MOL0     H78244   4.871   2.633  12.660  0.1675  2.1364  2.1074
  580MOL0     H78245   5.090   2.682  12.614 -1.4184  0.3819  1.0866
  580MOL0     H78246   5.048   2.782  12.478 -1.6841 -1.6108 -1.2521
  580MOL0     H78247   4.982   2.975  12.637  3.1728  1.2329 -0.1457
  580MOL0     H78248   5.122   2.909  12.688  0.3838  0.3293 -0.2085
  580MOL0     H78249   4.941   2.953  12.860  1.3447 -1.6107  3.6853
  580MOL0     H78250   4.852   2.824  12.808 -0.2495 -0.0561  2.1642
  580MOL0     H78251   5.229   2.850  12.920 -0.2011 -0.0090  0.8612
  580MOL0     H78252   5.344   2.488  13.003 -3.9889 -0.6314 -2.1909
  580MOL0     H78253   5.416   2.632  12.943  0.8421 -0.4326 -0.3794
  580MOL0     H78254   5.483   2.611  13.155 -0.5166 -0.4735  0.5635
  580MOL0     H78255   5.391   2.755  13.156  0.3543  0.1622  0.3162
  580MOL0     H78256   5.281   2.484  13.228  2.0257  0.6762 -4.4846
  580MOL0     H78257   5.200   2.652  13.261 -0.7727  0.3021  3.2136
  580MOL0     H78258   5.462   2.586  13.399 -0.3801  3.4889  0.2930
  580MOL0     H78259   5.320   2.507  13.459  3.7714 -1.0212  1.6076
  580MOL0     H78260   5.317   2.911  13.650  1.2179 -0.6250  2.5098
  580MOL0     H78261   5.111   2.995  13.766 -0.9914  0.6759 -0.8184
  580MOL0     H78262   4.880   3.062  14.103  0.6808 -0.6553 -2.6674
  580MOL0     H78263   4.709   3.227  14.179  0.0372 -0.2469 -0.0102
  580MOL0     H78264   4.469   3.250  14.262  0.3768  0.6426  0.2097
  580MOL0     H78265   4.559   3.389  14.208  1.0996 -2.5547  1.9752
  580MOL0     H78266   4.391   3.518  14.152  2.5037 -0.0489  0.7442
  580MOL0     H78267   4.275   3.376  14.142 -0.6379 -2.2069  2.5098
  580MOL0     H78268   4.261   3.339  14.369 -3.1583  0.8163 -0.7987
  580MOL0     H78269   4.390   3.464  14.410  1.1608  0.0163  0.1506
  580MOL0     H78270   4.104   3.485  14.292 -1.8003  1.3878  1.1552
  580MOL0     H78271   4.212   3.629  14.296  0.0323 -0.2849  0.1346
  580MOL0     H78272   4.250   3.584  14.535  0.5115  1.3467 -1.0810
  580MOL0     H78273   4.135   3.445  14.529 -1.9050  0.4529  0.2914
  580MOL0     H78274   3.974   3.614  14.472 -0.5882 -1.1613  0.9119
  580MOL0     H78275   4.028   3.630  14.639  1.3799  1.3518 -0.1349
  580MOL0     H78276   4.043   3.819  14.407  1.0296  0.5068 -0.8609
  580MOL0     H78277   4.200   3.795  14.475  0.9390 -2.0810  1.4720
  580MOL0     H78278   4.070   3.991  14.577  0.7969  0.1065  2.1876
  580MOL0     H78279   3.951   3.882  14.635 -0.5906 -2.0558 -1.8170
  580MOL0     H78280   4.469   3.166  13.846  1.9465  1.7175 -1.9837
  580MOL0     H78281   4.622   3.025  13.745  0.4291  1.0276 -1.5693
  580MOL0     H78282   4.920   2.626  13.626  0.2215 -0.5595  1.5088
  580MOL0     H78283   5.101   2.564  13.503 -3.2418 -1.1292  2.2259
  580MOL0     H78284   4.596   2.528  11.738 -0.1992 -1.2766 -2.5404
  580MOL0     H78285   4.630   2.539  11.534 -1.3660  0.6365  1.5491
  580MOL0     H78286   4.900   2.450  11.191 -1.6376  0.2241 -0.2402
  580MOL0     H78287   4.936   2.420  10.937 -4.1227 -1.8862  0.7121
  580MOL0     H78288   4.835   2.427  10.729 -6.7449 -0.9048 -0.3487
  580MOL0     H78289   4.887   2.519  10.587 -2.9469  1.6920 -1.0450
  580MOL0     H78290   4.634   2.547  10.753  0.4082  0.6169 -1.0153
  580MOL0     H78291   4.632   2.483  10.588 -2.4171 -1.0798  1.5916
  580MOL0     H78292   4.674   2.691  10.492 -1.0711 -2.0465 -0.6426
  580MOL0     H78293   4.738   2.754  10.648  0.3402 -1.5626  1.1882
  580MOL0     H78294   4.524   2.856  10.582  1.4054  2.4507  3.0933
  580MOL0     H78295   4.449   2.700  10.598 -1.4872 -0.1977  3.1642
  580MOL0     H78296   4.468   2.837  10.993 -1.2110  0.1310  0.8974
  580MOL0     H78297   4.809   2.827  10.884  0.5829  0.0660  1.4018
  580MOL0     H78298   4.753   2.973  11.072 -0.9140 -1.1799 -1.7937
  580MOL0     H78299   4.647   2.874  11.174 -0.1230 -1.6730  1.0778
  580MOL0     H78300   4.812   2.920  11.227  1.0679 -0.2484 -0.9277
  581MOL0     O78301   3.644   9.310   0.423  0.3292 -0.5890  0.1218
  581MOL0     C78302   3.709   9.406   0.467 -0.1173 -0.8461  0.8983
  581MOL0     O78303   3.649   9.523   0.522  1.0741 -0.8628 -0.3295
  581MOL0     C78304   3.513   9.537   0.514 -0.4304  1.3274  0.4613
  581MOL0     C78305   3.441   9.547   0.631 -0.4016  0.1697 -0.2938
  581MOL0     C78306   3.307   9.568   0.631  0.1070 -1.1430  0.4798
  581MOL0     C78307   3.238   9.587   0.511 -0.0583  0.3641 -0.2640
  581MOL0     O78308   3.103   9.597   0.520  0.4415 -0.5186  0.2987
  581MOL0     C78309   3.021   9.693   0.435  0.2026  0.9861 -0.2753
  581MOL0     C78310   3.068   9.833   0.477 -0.0509 -0.1875 -0.5529
  581MOL0     C78311   2.988   9.940   0.406 -0.5975  0.1125 -0.3539
  581MOL0     C78312   3.055  10.083   0.417 -0.0787  0.0032  0.1655
  581MOL0     C78313   3.183  10.079   0.334 -0.1585 -0.6104  0.4573
  581MOL0     C78314   3.234  10.222   0.302 -0.7423 -0.1942 -0.3651
  581MOL0     C78315   3.147  10.308   0.216  0.1576  0.2686 -0.1795
  581MOL0     C78316   3.227  10.423   0.167  0.0745 -0.1275  0.2945
  581MOL0     N78317   3.226  10.529   0.267  0.3715 -1.4712  0.5693
  581MOL0     C78318   3.264  10.533   0.400  0.0527  0.2695  0.4425
  581MOL0     C78319   3.258  10.652   0.441  0.3760 -0.6176 -0.3006
  581MOL0     C78320   3.271  10.694   0.589 -0.1162 -0.4999 -0.2528
  581MOL0     C78321   3.413  10.668   0.645  0.2003 -0.9886  0.7322
  581MOL0     C78322   3.520  10.742   0.561 -0.3296 -0.4680  0.1417
  581MOL0     C78323   3.579  10.663   0.440  0.3396  0.6264  0.7842
  581MOL0     O78324   3.631  10.535   0.474 -0.1218 -0.2381 -0.6677
  581MOL0     C78325   3.643  10.431   0.381  0.9590 -0.4662  0.3676
  581MOL0     C78326   3.607  10.441   0.242 -0.2883  0.5696 -0.4232
  581MOL0     C78327   3.613  10.325   0.160 -0.0265  0.3460 -0.6020
  581MOL0     C78328   3.639  10.198   0.221  0.3413 -0.5828 -0.5877
  581MOL0     C78329   3.642  10.072   0.143 -1.2785 -0.2431  0.1962
  581MOL0     O78330   3.602   9.956   0.208 -0.1131  0.1471  0.4206
  581MOL0     C78331   3.609   9.838   0.132  0.5330  0.5504 -0.4423
  581MOL0     C78332   3.514   9.799   0.038  0.9137  0.2885 -0.2692
  581MOL0     C78333   3.513   9.687  -0.042  0.2383 -0.8232  0.4019
  581MOL0     C78334   3.625   9.601  -0.036  0.8410 -0.3509 -0.8330
  581MOL0     O78335   3.647   9.488  -0.114 -0.0094 -1.0111 -0.2542
  581MOL0     C78336   3.534   9.419  -0.152  0.4613  0.2915 -0.3194
  581MOL0     C78337   3.442   9.363  -0.034  0.4005  0.3401 -0.5908
  581MOL0     C78338   3.474   9.214   0.013  0.2401  0.4691  0.5746
  581MOL0     C78339   3.392   9.161   0.127  0.2974 -0.4127 -1.2447
  581MOL0     C78340   3.422   9.016   0.160 -0.3179  0.4326 -0.3555
  581MOL0     C78341   3.575   8.977   0.137 -0.3408  0.3049 -0.1650
  581MOL0     C78342   3.595   8.850   0.222  0.1950 -0.1024 -0.1171
  581MOL0     C78343   3.712   8.751   0.175 -0.1532 -0.1593  0.4025
  581MOL0    Cl78344   3.852   8.858   0.118  0.0157 -0.1575 -0.1995
  581MOL0     C78345   3.723   9.630   0.050  0.4498  1.1605 -0.5688
  581MOL0     C78346   3.723   9.751   0.130  0.1226 -0.3905  0.1544
  581MOL0     O78347   3.665  10.088   0.022  0.0333 -0.2373 -0.4343
  581MOL0     C78348   3.665  10.190   0.363 -0.2353 -0.3236  0.0787
  581MOL0     C78349   3.672  10.311   0.432 -0.2629  0.8935 -0.4603
  581MOL0     N78350   3.217  10.734   0.335  0.2273 -0.0605 -0.1221
  581MOL0     N78351   3.198  10.660   0.235 -0.9260  0.3906 -0.1351
  581MOL0     C78352   3.311   9.582   0.391  0.1699 -0.5463  0.1577
  581MOL0     C78353   3.445   9.548   0.389  0.0795  0.2751 -0.2327
  581MOL0     C78354   3.854   9.401   0.470  0.3901  0.8452 -0.0918
  581MOL0     C78355   3.914   9.464   0.576 -0.1866  0.8253 -0.4995
  581MOL0     C78356   4.051   9.476   0.598 -0.3517  0.8154  0.2955
  581MOL0     C78357   4.132   9.409   0.500 -0.2554 -0.4907  0.4841
  581MOL0     O78358   4.271   9.413   0.496 -0.2391 -0.2920  0.0122
  581MOL0     C78359   4.331   9.464   0.605 -1.0347  0.3142 -1.4906
  581MOL0     C78360   4.326   9.366   0.724 -0.3617  0.0937 -0.6810
  581MOL0     C78361   4.399   9.229   0.698  0.8711 -1.0927 -0.5157
  581MOL0     C78362   4.455   9.166   0.819  0.7707  0.2906  0.2748
  581MOL0     C78363   4.501   9.025   0.804  0.3742 -0.4295  0.3194
  581MOL0     C78364   4.528   8.910   0.813 -0.3907  0.3146 -0.8451
  581MOL0     C78365   4.069   9.346   0.383 -0.4045 -0.4333  0.0657
  581MOL0     C78366   3.930   9.347   0.362  0.7688 -0.0246  0.1943
  581MOL0     C78367   3.870   9.294   0.226 -0.9518  0.6222  0.2380
  581MOL0     H78368   3.506   9.557   0.718  0.8968  2.8557 -1.4601
  581MOL0     H78369   3.262   9.573   0.730  2.5313  1.4659  1.5878
  581MOL0     H78370   3.045   9.659   0.334  0.1662 -2.5593  0.7770
  581MOL0     H78371   2.915   9.686   0.458  0.4871  0.5233  0.9935
  581MOL0     H78372   3.177   9.843   0.469 -0.1275  0.5957 -0.7205
  581MOL0     H78373   3.054   9.852   0.584  1.3676  0.8668 -0.5288
  581MOL0     H78374   2.890   9.942   0.455 -0.3138  0.7119  0.2040
  581MOL0     H78375   2.961   9.924   0.302  1.0180  1.3343 -0.9898
  581MOL0     H78376   2.978  10.145   0.370  1.9740  0.0162 -3.5440
  581MOL0     H78377   3.076  10.108   0.522 -1.4273  1.0608  0.2161
  581MOL0     H78378   3.262  10.025   0.388 -1.2236 -0.3373  2.4025
  581MOL0     H78379   3.170  10.023   0.242  0.7331 -0.3787  0.1759
  581MOL0     H78380   3.257  10.274   0.395  1.8458  0.5294 -1.3206
  581MOL0     H78381   3.334  10.215   0.259 -1.3453  0.4405 -1.9702
  581MOL0     H78382   3.054  10.339   0.265  1.7744  1.5437  2.2887
  581MOL0     H78383   3.109  10.247   0.134 -2.1653 -2.3346  2.5771
  581MOL0     H78384   3.331  10.392   0.160 -0.0667 -1.4162  2.7474
  581MOL0     H78385   3.194  10.474   0.076 -0.7852 -2.8306 -1.0090
  581MOL0     H78386   3.306  10.452   0.459  1.5706  0.7024 -0.0216
  581MOL0     H78387   3.243  10.798   0.608  1.1412 -0.2988  0.5959
  581MOL0     H78388   3.197  10.638   0.648 -0.2665 -3.3287 -2.8698
  581MOL0     H78389   3.403  10.715   0.743 -0.4232  0.6576 -0.0933
  581MOL0     H78390   3.432  10.562   0.667 -3.2182 -1.8867 -0.0264
  581MOL0     H78391   3.595  10.774   0.634  0.6444 -1.6043 -0.3130
  581MOL0     H78392   3.473  10.832   0.520  1.3061 -0.2778 -1.4225
  581MOL0     H78393   3.652  10.726   0.390  1.0162 -0.8145 -0.1188
  581MOL0     H78394   3.503  10.656   0.361  1.2722 -0.1151 -0.0774
  581MOL0     H78395   3.574  10.537   0.206 -1.6767 -0.2031 -1.2988
  581MOL0     H78396   3.600  10.348   0.055 -0.0344  0.6690 -0.5330
  581MOL0     H78397   3.432   9.871   0.035  3.2290  3.1108  0.2469
  581MOL0     H78398   3.430   9.669  -0.110  0.5022  0.0579 -0.1624
  581MOL0     H78399   3.482   9.478  -0.229  1.3131  2.0183  0.3680
  581MOL0     H78400   3.564   9.333  -0.214 -1.5758  1.5852 -3.3653
  581MOL0     H78401   3.440   9.431   0.052  2.2260  0.1167 -0.3220
  581MOL0     H78402   3.345   9.352  -0.083  0.6700  1.1055 -1.3084
  581MOL0     H78403   3.460   9.156  -0.079 -1.6091  1.3117  0.2758
  581MOL0     H78404   3.577   9.206   0.048  0.5916  0.3817 -0.4558
  581MOL0     H78405   3.288   9.173   0.095  0.4703  2.3237 -0.9746
  581MOL0     H78406   3.407   9.222   0.216  1.3045 -0.4917 -1.3494
  581MOL0     H78407   3.363   8.945   0.102  0.8389  0.0399 -1.0739
  581MOL0     H78408   3.397   9.001   0.266  1.3341  1.4235  0.2107
  581MOL0     H78409   3.602   8.973   0.031  1.2576  1.2194  0.1747
  581MOL0     H78410   3.641   9.057   0.172  1.6970  0.3999 -3.8077
  581MOL0     H78411   3.508   8.791   0.250 -0.9152  1.5327  0.0110
  581MOL0     H78412   3.628   8.885   0.320 -1.6511  1.3862  0.0312
  581MOL0     H78413   3.727   8.676   0.253 -2.7953 -2.2152 -0.9045
  581MOL0     H78414   3.675   8.698   0.086  0.1887  0.6964 -0.2711
  581MOL0     H78415   3.800   9.555   0.065 -1.0320 -0.1040  1.2461
  581MOL0     H78416   3.809   9.766   0.194 -0.0605 -1.1625  0.5912
  581MOL0     H78417   3.675  10.096   0.416 -2.0967 -0.0352  1.0096
  581MOL0     H78418   3.718  10.318   0.530  0.6173 -2.5796 -0.4914
  581MOL0     H78419   3.261   9.608   0.298  1.9805  2.0771 -0.1924
  581MOL0     H78420   3.493   9.527   0.294 -0.9033  1.2518 -0.9690
  581MOL0     H78421   3.850   9.497   0.657  0.8099 -2.5096  1.8698
  581MOL0     H78422   4.088   9.536   0.680  1.9520 -1.1013  0.7736
  581MOL0     H78423   4.285   9.554   0.646  0.7404  0.9124 -0.6930
  581MOL0     H78424   4.436   9.481   0.577 -0.7609  1.8461  0.2813
  581MOL0     H78425   4.221   9.337   0.737  0.6285 -4.0977 -0.5651
  581MOL0     H78426   4.356   9.427   0.809 -2.4905 -1.2870  1.1692
  581MOL0     H78427   4.491   9.252   0.643  0.2105 -1.9559 -2.0721
  581MOL0     H78428   4.338   9.155   0.645 -1.0343  1.7814 -2.6857
  581MOL0     H78429   4.535   9.228   0.861  0.5553  1.4126 -0.8832
  581MOL0     H78430   4.385   9.168   0.902  3.0553  0.8360  2.2935
  581MOL0     H78431   4.572   8.813   0.819 -0.3178  0.3244 -1.2278
  581MOL0     H78432   4.143   9.305   0.315  1.0243 -0.0511  1.3335
  581MOL0     H78433   3.853   9.186   0.220  3.5851 -0.2113 -0.9714
  581MOL0     H78434   3.776   9.342   0.196 -1.1718 -0.7103 -1.3106
  581MOL0     H78435   3.953   9.315   0.159 -0.2453  1.3842  1.3098
  582MOL0     O78436   9.516   6.295   5.404 -0.2339 -0.4462 -0.2719
  582MOL0     C78437   9.464   6.205   5.475  0.2676  0.1233 -0.3695
  582MOL0     O78438   9.335   6.185   5.502 -0.1848  0.1491  0.2138
  582MOL0     C78439   9.254   6.268   5.436 -0.2981 -0.2835 -0.1443
  582MOL0     C78440   9.213   6.393   5.494  0.1399  0.6970  0.2001
  582MOL0     C78441   9.153   6.496   5.420 -0.1837  0.2939 -0.8234
  582MOL0     C78442   9.118   6.464   5.286  0.1193  0.2221 -0.8963
  582MOL0     O78443   9.052   6.546   5.209  0.3529 -0.9382  0.3075
  582MOL0     C78444   9.124   6.634   5.129  1.0010  0.8511  0.1145
  582MOL0     C78445   9.032   6.723   5.043  0.0954 -0.9733 -0.2686
  582MOL0     C78446   9.110   6.856   5.003  0.4104  1.3331  0.1674
  582MOL0     C78447   9.233   6.826   4.916  1.4572  0.3421  0.2585
  582MOL0     C78448   9.318   6.948   4.896  1.2806  0.5999  0.5799
  582MOL0     C78449   9.443   6.905   4.803 -0.7458  0.3964 -0.0039
  582MOL0     C78450   9.548   7.017   4.806 -0.0621  0.6895  0.3136
  582MOL0     C78451   9.626   7.040   4.938  0.4941  0.0430 -0.4448
  582MOL0     N78452   9.747   7.122   4.920 -0.1831 -0.0518  0.1990
  582MOL0     C78453   9.750   7.244   4.873  0.0947 -0.6280  0.4817
  582MOL0     C78454   9.881   7.265   4.839 -0.2934 -0.6738  0.1652
  582MOL0     C78455   9.932   7.397   4.783  0.1459  0.3211 -0.8521
  582MOL0     C78456   9.933   7.389   4.627  0.5057 -0.4054 -0.4724
  582MOL0     C78457  10.014   7.514   4.571  0.6806  0.9587 -0.4942
  582MOL0     C78458  10.042   7.513   4.421  0.8448 -0.8641  0.6690
  582MOL0     O78459   9.936   7.454   4.351  1.2355 -0.1851  0.2384
  582MOL0     C78460   9.869   7.531   4.264  0.1052  0.1996 -0.9157
  582MOL0     C78461   9.842   7.671   4.283  0.0660 -0.4788 -0.1841
  582MOL0     C78462   9.745   7.739   4.205  1.3413 -0.3980  0.3189
  582MOL0     C78463   9.681   7.685   4.093  0.4069  0.4786 -0.1062
  582MOL0     C78464   9.586   7.753   4.004  0.2648 -0.6744 -0.1749
  582MOL0     O78465   9.569   7.888   4.026  0.2870  0.4356 -0.0012
  582MOL0     C78466   9.515   7.954   3.927  0.1184 -0.7195 -0.7349
  582MOL0     C78467   9.428   8.052   3.960  0.8269 -0.8220  0.4986
  582MOL0     C78468   9.370   8.138   3.864  0.5003  1.0179 -0.1581
  582MOL0     C78469   9.399   8.135   3.725  0.1443 -0.2987  0.9581
  582MOL0     O78470   9.335   8.221   3.636 -0.1298  1.2927 -0.8175
  582MOL0     C78471   9.415   8.273   3.526 -0.2757  0.0093 -0.0046
  582MOL0     C78472   9.385   8.417   3.492 -0.0943 -0.5945  0.5347
  582MOL0     C78473   9.411   8.505   3.623 -0.6624 -0.2016  0.2404
  582MOL0     C78474   9.383   8.655   3.602 -0.5191  0.0995 -0.4748
  582MOL0     C78475   9.393   8.731   3.730  0.2446  0.2337  0.5266
  582MOL0     C78476   9.386   8.877   3.698  0.4611 -0.3910  0.5402
  582MOL0     C78477   9.355   8.961   3.821 -0.9585  0.5348  0.2711
  582MOL0     C78478   9.349   9.114   3.812 -0.2655 -0.1034  0.2952
  582MOL0    Cl78479   9.286   9.184   3.964 -0.2266  0.1493  0.3275
  582MOL0     C78480   9.498   8.038   3.687  0.3916 -0.7103 -0.2852
  582MOL0     C78481   9.557   7.948   3.789  0.6341 -0.7576  0.4876
  582MOL0     O78482   9.533   7.680   3.920 -0.6828 -0.5219 -0.1737
  582MOL0     C78483   9.708   7.546   4.078 -0.1825 -0.3533  0.5642
  582MOL0     C78484   9.796   7.473   4.161  0.6646 -0.0009  0.7542
  582MOL0     N78485   9.957   7.155   4.878  0.4683  0.5657 -0.9020
  582MOL0     N78486   9.872   7.077   4.937 -0.7750  0.6715 -0.7198
  582MOL0     C78487   9.141   6.335   5.237  0.1268  0.9113 -0.6605
  582MOL0     C78488   9.206   6.239   5.310 -0.3109  1.0400  0.3018
  582MOL0     C78489   9.550   6.096   5.523 -0.8413 -0.4067 -0.1272
  582MOL0     C78490   9.491   5.966   5.523 -0.8833 -0.7738 -0.7198
  582MOL0     C78491   9.562   5.853   5.561  0.2623 -0.5973 -0.1557
  582MOL0     C78492   9.694   5.873   5.608  0.1724 -0.5879  0.1649
  582MOL0     O78493   9.778   5.769   5.639  0.4131  0.6917 -0.6720
  582MOL0     C78494   9.727   5.644   5.702 -0.4585  0.4260 -0.5466
  582MOL0     C78495   9.799   5.631   5.840  0.6262  0.2886  0.3944
  582MOL0     C78496   9.949   5.628   5.850  0.5413 -0.1382 -0.9359
  582MOL0     C78497  10.008   5.485   5.813  0.6750  0.3126 -0.3404
  582MOL0     C78498   9.975   5.381   5.918 -0.2956 -0.7503 -0.0801
  582MOL0     C78499   9.911   5.309   5.993  0.1722  0.5892 -0.0138
  582MOL0     C78500   9.750   6.000   5.614 -0.2270 -0.2067 -0.1911
  582MOL0     C78501   9.682   6.112   5.572  0.1199  0.5487  1.0040
  582MOL0     C78502   9.752   6.252   5.580  0.2994  0.4615 -0.0970
  582MOL0     H78503   9.243   6.404   5.597  2.3636 -1.7134 -0.0832
  582MOL0     H78504   9.130   6.587   5.473 -1.0891 -0.0579 -0.5966
  582MOL0     H78505   9.175   6.705   5.195  0.3305  1.2373  0.2271
  582MOL0     H78506   9.187   6.572   5.064 -0.6256 -2.7571  1.6871
  582MOL0     H78507   8.948   6.756   5.105  0.2645  0.9390 -1.0127
  582MOL0     H78508   9.012   6.673   4.948 -1.2511  0.2642 -0.6753
  582MOL0     H78509   9.131   6.911   5.096  0.7782  0.6416  0.5031
  582MOL0     H78510   9.060   6.930   4.940  0.0178  1.7779  0.9854
  582MOL0     H78511   9.289   6.744   4.963 -0.9869 -3.1889 -2.4641
  582MOL0     H78512   9.193   6.795   4.819  0.8094  1.7750  0.0406
  582MOL0     H78513   9.261   7.026   4.845  1.3459  1.0254  1.1525
  582MOL0     H78514   9.358   6.988   4.989  3.9171 -1.4328  0.4369
  582MOL0     H78515   9.486   6.807   4.822  0.1678  1.0299  1.3485
  582MOL0     H78516   9.397   6.915   4.705 -1.6291  1.5711  0.5077
  582MOL0     H78517   9.496   7.106   4.769 -2.2589 -1.3671 -2.0076
  582MOL0     H78518   9.625   6.996   4.732  0.1320  1.1051  0.3943
  582MOL0     H78519   9.562   7.087   5.013 -2.3243 -2.7715 -0.8488
  582MOL0     H78520   9.656   6.944   4.980  0.6752 -0.5529 -1.8846
  582MOL0     H78521   9.673   7.318   4.851 -0.6254 -1.1114  1.3405
  582MOL0     H78522   9.875   7.482   4.821  0.7773  2.2436 -3.9042
  582MOL0     H78523  10.038   7.407   4.807  0.6598 -0.7134 -2.5598
  582MOL0     H78524   9.983   7.296   4.598  1.6255 -0.1066  0.3843
  582MOL0     H78525   9.830   7.390   4.592  0.4139 -0.3083 -0.2016
  582MOL0     H78526  10.096   7.519   4.643 -0.1330 -0.6726  0.6288
  582MOL0     H78527   9.953   7.601   4.598  1.8325  1.1306  1.7397
  582MOL0     H78528  10.138   7.459   4.422  1.4631 -0.0092 -2.6386
  582MOL0     H78529  10.077   7.601   4.367 -3.7252  1.4857  1.0804
  582MOL0     H78530   9.880   7.709   4.377 -2.6948 -0.5424  1.0521
  582MOL0     H78531   9.733   7.841   4.241  1.1667 -0.8280  1.5308
  582MOL0     H78532   9.381   8.047   4.058 -1.9972  0.2373 -0.6909
  582MOL0     H78533   9.291   8.206   3.897 -0.5037 -0.0720 -0.2388
  582MOL0     H78534   9.523   8.261   3.540 -0.2387  0.5534  0.2087
  582MOL0     H78535   9.378   8.210   3.445  0.3623 -1.2329  0.6522
  582MOL0     H78536   9.447   8.455   3.410  0.7377  4.1662  3.0178
  582MOL0     H78537   9.282   8.436   3.463  0.1346 -0.1434 -0.0037
  582MOL0     H78538   9.345   8.473   3.705 -0.5702  2.4019  1.4334
  582MOL0     H78539   9.512   8.497   3.665 -0.0641  0.0587 -1.1124
  582MOL0     H78540   9.282   8.665   3.561 -0.5831 -0.3731 -0.4386
  582MOL0     H78541   9.451   8.696   3.527  2.4342  0.0676  1.9897
  582MOL0     H78542   9.488   8.704   3.777  1.7907 -2.2303 -3.4779
  582MOL0     H78543   9.314   8.716   3.804  1.3370 -0.6424  1.5441
  582MOL0     H78544   9.477   8.910   3.647  0.6935 -1.8067  0.0063
  582MOL0     H78545   9.314   8.887   3.617  1.8478 -0.7728 -0.7734
  582MOL0     H78546   9.418   8.915   3.898  1.0969  1.4342 -0.8204
  582MOL0     H78547   9.249   8.933   3.824 -0.3824 -1.7679  0.7343
  582MOL0     H78548   9.447   9.154   3.781  1.5460 -2.9907  1.8503
  582MOL0     H78549   9.282   9.134   3.728 -1.1509 -5.4464 -0.6510
  582MOL0     H78550   9.535   8.025   3.585 -0.4681 -3.0561 -0.3604
  582MOL0     H78551   9.625   7.869   3.760  0.7265 -0.3044 -0.6041
  582MOL0     H78552   9.675   7.486   3.994  2.2854 -1.0699  0.0007
  582MOL0     H78553   9.794   7.368   4.136  1.7797 -0.1339  1.1305
  582MOL0     H78554   9.102   6.303   5.141  0.5208 -1.7775 -0.0003
  582MOL0     H78555   9.228   6.145   5.262 -1.3226  0.9079  0.0781
  582MOL0     H78556   9.388   5.958   5.491 -2.1234  1.3073  2.3362
  582MOL0     H78557   9.503   5.762   5.567 -2.7660  1.2907  0.9109
  582MOL0     H78558   9.760   5.559   5.641  1.1943 -0.2114  1.1329
  582MOL0     H78559   9.619   5.649   5.718  0.0430  0.0830  4.1895
  582MOL0     H78560   9.750   5.546   5.888 -0.3325  2.1014  2.8680
  582MOL0     H78561   9.762   5.726   5.882  0.0936  0.8006 -1.1855
  582MOL0     H78562   9.979   5.649   5.953 -2.3100  0.4415 -0.1357
  582MOL0     H78563   9.996   5.701   5.783  1.5484  0.4044  0.3289
  582MOL0     H78564   9.961   5.448   5.722  2.9569 -1.8982 -0.7212
  582MOL0     H78565  10.116   5.492   5.794  0.7868 -0.1345  0.0849
  582MOL0     H78566   9.875   5.224   6.047  3.8533 -0.4161  1.1352
  582MOL0     H78567   9.855   6.001   5.639  0.7614  2.1665 -3.7042
  582MOL0     H78568   9.804   6.286   5.489 -1.4509  4.2590  0.1073
  582MOL0     H78569   9.678   6.333   5.576  1.0334  1.1648  0.3908
  582MOL0     H78570   9.809   6.254   5.673  1.3398 -1.4446 -0.6583
  583MOL0     O78571   2.896   5.273   2.137  0.0208 -0.1449  0.5982
  583MOL0     C78572   2.968   5.343   2.062  0.4055  0.5767 -0.2240
  583MOL0     O78573   3.099   5.328   2.056  0.0908 -0.1665  0.6394
  583MOL0     C78574   3.152   5.221   2.125  0.4584  0.0728  0.3637
  583MOL0     C78575   3.122   5.085   2.089  0.1515 -0.6170  0.3419
  583MOL0     C78576   3.174   4.982   2.158 -0.1982 -0.2499 -0.1396
  583MOL0     C78577   3.281   5.004   2.243  0.4107 -0.9685  0.7246
  583MOL0     O78578   3.352   4.910   2.308 -0.2179 -0.5166 -0.4154
  583MOL0     C78579   3.346   4.774   2.259 -0.1132  0.1983 -0.4233
  583MOL0     C78580   3.465   4.686   2.307 -0.1998 -1.0186 -0.5536
  583MOL0     C78581   3.474   4.553   2.232  0.4253 -0.1363 -0.1562
  583MOL0     C78582   3.596   4.485   2.297  0.5418  0.3979  0.4417
  583MOL0     C78583   3.628   4.345   2.246 -0.6128 -1.1566  0.0304
  583MOL0     C78584   3.732   4.282   2.335  0.6731  0.3681  0.4639
  583MOL0     C78585   3.879   4.347   2.317  0.1046  0.3060 -0.4358
  583MOL0     C78586   3.979   4.261   2.406 -1.0031 -0.1567  0.3530
  583MOL0     N78587   3.987   4.326   2.541  0.2172  0.7444 -0.0969
  583MOL0     C78588   3.902   4.299   2.645 -0.1283 -0.4040  1.1001
  583MOL0     C78589   3.960   4.368   2.744  0.6674 -0.3018 -0.0561
  583MOL0     C78590   3.909   4.396   2.877 -1.1330 -0.4974 -0.0174
  583MOL0     C78591   3.952   4.272   2.974  0.1065 -0.9246 -0.3671
  583MOL0     C78592   3.896   4.284   3.118  0.0946  1.0836  0.6458
  583MOL0     C78593   3.960   4.385   3.208 -0.5188  0.5250  0.4310
  583MOL0     O78594   3.907   4.369   3.336  0.7898  0.1410  0.0917
  583MOL0     C78595   3.974   4.435   3.437 -0.5032  1.0043 -0.0485
  583MOL0     C78596   4.097   4.508   3.442 -0.8919  0.4476 -0.2036
  583MOL0     C78597   4.152   4.561   3.556 -0.4104 -1.0897 -1.2364
  583MOL0     C78598   4.071   4.559   3.673 -0.3387  1.1892  0.6501
  583MOL0     C78599   4.126   4.608   3.798  0.2917 -0.4087 -0.3835
  583MOL0     O78600   4.260   4.622   3.803  0.1376  0.5426 -0.2072
  583MOL0     C78601   4.322   4.660   3.914  0.4657  0.2176  0.4609
  583MOL0     C78602   4.359   4.565   4.003 -0.3720 -0.3740 -0.2986
  583MOL0     C78603   4.425   4.598   4.126 -0.8311 -0.8385 -0.5415
  583MOL0     C78604   4.478   4.729   4.142  0.2118 -0.1739 -0.6956
  583MOL0     O78605   4.541   4.761   4.256  0.3767  0.5932 -0.1996
  583MOL0     C78606   4.600   4.887   4.263 -0.4956 -0.3698 -0.4038
  583MOL0     C78607   4.665   4.908   4.405  0.4169 -1.0894  0.2637
  583MOL0     C78608   4.810   4.858   4.418  0.5642 -0.5833 -0.7612
  583MOL0     C78609   4.878   4.877   4.553  0.2254  0.3127  0.1606
  583MOL0     C78610   5.029   4.854   4.554  0.7712 -0.0337 -0.5271
  583MOL0     C78611   5.090   4.868   4.697  0.5523 -0.2246 -0.1338
  583MOL0     C78612   5.211   4.775   4.710 -0.2802  0.2122  0.1132
  583MOL0     C78613   5.252   4.746   4.852 -0.0535 -0.2117 -0.4367
  583MOL0    Cl78614   5.272   4.903   4.947  0.2648  0.0091  0.2353
  583MOL0     C78615   4.443   4.819   4.047 -0.7933 -0.4646 -0.0191
  583MOL0     C78616   4.358   4.791   3.939  0.0446  0.3377  1.0667
  583MOL0     O78617   4.044   4.635   3.891  0.5505 -0.1428  0.2382
  583MOL0     C78618   3.941   4.514   3.666 -0.6710  0.5692  0.0347
  583MOL0     C78619   3.901   4.436   3.554 -0.1351 -0.7173  0.0304
  583MOL0     N78620   4.071   4.434   2.705 -0.4426 -0.4466  0.5417
  583MOL0     N78621   4.091   4.397   2.584  0.7611 -0.3999  0.8749
  583MOL0     C78622   3.324   5.135   2.259 -0.6155 -0.1576 -0.2900
  583MOL0     C78623   3.269   5.244   2.197 -0.5171  0.8527 -0.0705
  583MOL0     C78624   2.910   5.457   1.988  0.7823 -0.3839  0.3510
  583MOL0     C78625   2.970   5.499   1.867 -0.9994 -0.9083 -0.7960
  583MOL0     C78626   2.893   5.566   1.774 -1.6177 -0.6101 -0.2835
  583MOL0     C78627   2.766   5.622   1.807  0.2087 -0.0739  0.3528
  583MOL0     O78628   2.696   5.696   1.718 -0.2780  0.3915  0.5560
  583MOL0     C78629   2.570   5.636   1.689 -0.1699  0.6701  1.3085
  583MOL0     C78630   2.535   5.652   1.541  0.0051  0.0718  0.9706
  583MOL0     C78631   2.608   5.558   1.437 -0.6533 -0.2646 -0.1418
  583MOL0     C78632   2.542   5.576   1.301  0.0174  0.4755  0.6091
  583MOL0     C78633   2.443   5.473   1.291  0.1425 -0.1064 -0.6655
  583MOL0     C78634   2.343   5.404   1.281  0.2328 -0.4433  0.0909
  583MOL0     C78635   2.718   5.610   1.937  0.4447  0.6928  0.1504
  583MOL0     C78636   2.785   5.516   2.025  0.2052 -0.2222 -0.0893
  583MOL0     C78637   2.730   5.504   2.171 -0.1575  0.8031 -0.3358
  583MOL0     H78638   3.035   5.072   2.025 -2.6114 -1.3039  3.8697
  583MOL0     H78639   3.146   4.882   2.127 -1.8089  0.1129  0.0462
  583MOL0     H78640   3.258   4.733   2.309  1.1344  1.6146  3.3332
  583MOL0     H78641   3.344   4.771   2.150  0.1833 -3.2950 -0.4406
  583MOL0     H78642   3.443   4.679   2.414 -1.0376  0.1196 -0.6336
  583MOL0     H78643   3.564   4.730   2.297  1.0898 -3.7379 -0.8492
  583MOL0     H78644   3.494   4.569   2.126 -0.9586  2.2958 -0.1006
  583MOL0     H78645   3.381   4.498   2.251 -0.6021  0.9374 -1.8621
  583MOL0     H78646   3.680   4.550   2.270  0.0284  1.0409  0.3637
  583MOL0     H78647   3.578   4.475   2.405  0.9463 -4.3176  0.3065
  583MOL0     H78648   3.539   4.284   2.264 -1.4815 -0.0422 -0.4230
  583MOL0     H78649   3.662   4.342   2.142  0.7868  0.4602  0.4033
  583MOL0     H78650   3.697   4.291   2.438  0.4704  0.1078  0.4185
  583MOL0     H78651   3.736   4.177   2.305  0.4640 -0.1555  2.1734
  583MOL0     H78652   3.883   4.453   2.346  2.8674  0.0419  0.3549
  583MOL0     H78653   3.904   4.338   2.211  2.4613  1.7416 -0.0758
  583MOL0     H78654   3.952   4.155   2.407 -1.3165 -0.0884 -0.2368
  583MOL0     H78655   4.072   4.274   2.350 -2.4582  2.7264 -1.6960
  583MOL0     H78656   3.806   4.250   2.637 -0.2903  0.2074 -2.4351
  583MOL0     H78657   3.940   4.495   2.913  0.3418 -0.7183 -0.5897
  583MOL0     H78658   3.800   4.408   2.875 -1.1096 -0.3244 -1.8350
  583MOL0     H78659   3.918   4.175   2.936 -3.0893 -0.4358  0.9486
  583MOL0     H78660   4.060   4.260   2.979  0.0267 -1.1884  2.5278
  583MOL0     H78661   3.909   4.193   3.177 -0.2193  0.9974  0.5818
  583MOL0     H78662   3.788   4.297   3.118 -0.0571  0.0667  2.1647
  583MOL0     H78663   3.930   4.480   3.164 -0.3092  0.1121 -0.6368
  583MOL0     H78664   4.068   4.387   3.196 -0.7072 -1.0601 -2.5269
  583MOL0     H78665   4.160   4.503   3.354 -0.6669 -1.2703  0.0171
  583MOL0     H78666   4.252   4.602   3.553 -0.4905 -0.8051 -0.3864
  583MOL0     H78667   4.301   4.473   3.995 -1.1576 -0.0704  1.3034
  583MOL0     H78668   4.439   4.533   4.211  1.9870  1.4583  0.9617
  583MOL0     H78669   4.679   4.885   4.188  0.9843 -2.2994  1.1259
  583MOL0     H78670   4.517   4.958   4.253 -1.8471 -1.5964  1.4546
  583MOL0     H78671   4.663   5.017   4.419  0.1392 -1.4455  4.0654
  583MOL0     H78672   4.606   4.875   4.490 -1.3188  1.0606 -0.0085
  583MOL0     H78673   4.807   4.749   4.410  1.2937 -0.5035 -2.6326
  583MOL0     H78674   4.873   4.895   4.337  1.3689 -0.2424  0.0091
  583MOL0     H78675   4.835   4.808   4.626  0.2164  0.4579  0.2935
  583MOL0     H78676   4.864   4.981   4.584  0.5439  0.0528  1.2082
  583MOL0     H78677   5.088   4.916   4.487 -1.7828  1.5614 -1.4637
  583MOL0     H78678   5.046   4.752   4.518  3.0690  0.6032 -1.3970
  583MOL0     H78679   5.119   4.971   4.720  0.7915 -0.0769 -1.0387
  583MOL0     H78680   5.011   4.831   4.762  0.8438  0.3764  0.5864
  583MOL0     H78681   5.298   4.822   4.664 -0.6355 -1.5676 -2.5997
  583MOL0     H78682   5.182   4.687   4.651  2.3079  1.3639 -3.1759
  583MOL0     H78683   5.175   4.677   4.887 -1.5961  1.3233 -0.7060
  583MOL0     H78684   5.344   4.687   4.855 -0.0706 -0.2691 -1.0309
  583MOL0     H78685   4.480   4.921   4.052  3.5009 -1.8704  2.0052
  583MOL0     H78686   4.323   4.856   3.860 -2.0251 -2.1024 -0.1714
  583MOL0     H78687   3.876   4.511   3.753 -0.3319 -3.6602  0.3317
  583MOL0     H78688   3.803   4.389   3.543 -0.7789  0.4051  0.7477
  583MOL0     H78689   3.421   5.148   2.307 -0.4546 -2.0925 -0.0317
  583MOL0     H78690   3.307   5.345   2.207  0.4255  0.4389  0.6738
  583MOL0     H78691   3.069   5.468   1.833 -0.9601 -2.0659  0.3337
  583MOL0     H78692   2.923   5.578   1.671  0.3247  1.4649  0.4233
  583MOL0     H78693   2.478   5.667   1.741 -1.8099 -0.0571 -0.9685
  583MOL0     H78694   2.575   5.531   1.718 -1.6075  0.0744 -0.3909
  583MOL0     H78695   2.541   5.758   1.513  0.7758  0.9398  4.1030
  583MOL0     H78696   2.428   5.629   1.534  0.0819  0.2246 -2.1043
  583MOL0     H78697   2.604   5.458   1.480  0.6237  0.0530  0.7939
  583MOL0     H78698   2.716   5.578   1.432 -0.3697 -0.2477  3.5272
  583MOL0     H78699   2.506   5.679   1.307 -0.3536  0.2969  1.6251
  583MOL0     H78700   2.620   5.572   1.223 -1.6283  0.2427 -1.0928
  583MOL0     H78701   2.257   5.342   1.266 -0.7462  0.4067  1.9010
  583MOL0     H78702   2.629   5.669   1.958 -1.2962  0.1860 -4.7451
  583MOL0     H78703   2.806   5.549   2.235 -0.6520 -0.4272  1.1881
  583MOL0     H78704   2.649   5.577   2.187 -0.5967 -0.4715  7.0514
  583MOL0     H78705   2.697   5.403   2.199 -3.4823  1.8699  0.1258
  584MOL0     O78706   2.446   2.414   4.317  0.7878  0.2794  0.6402
  584MOL0     C78707   2.502   2.522   4.335 -0.7284  0.1919  0.4259
  584MOL0     O78708   2.602   2.553   4.418 -0.1434  0.4729  0.3722
  584MOL0     C78709   2.638   2.485   4.529 -0.3414  0.1582 -0.3822
  584MOL0     C78710   2.605   2.357   4.573  0.6312  0.0716 -0.4340
  584MOL0     C78711   2.640   2.314   4.702  0.8019 -0.4942 -1.2129
  584MOL0     C78712   2.705   2.387   4.799  0.7490 -1.0811  0.2824
  584MOL0     O78713   2.736   2.354   4.922  0.0273 -0.0780 -0.4684
  584MOL0     C78714   2.698   2.228   4.978  0.4393  0.0679  0.6867
  584MOL0     C78715   2.551   2.226   5.031 -0.1949 -0.5966  0.1698
  584MOL0     C78716   2.532   2.098   5.118  0.0805  0.0305  0.3979
  584MOL0     C78717   2.411   2.129   5.212 -0.8637  0.2013  0.4633
  584MOL0     C78718   2.367   2.011   5.296  0.7422  0.0491  0.0411
  584MOL0     C78719   2.431   2.009   5.437  0.1037 -0.4850  1.6582
  584MOL0     C78720   2.573   1.970   5.447  0.5109 -0.1396  0.7499
  584MOL0     C78721   2.627   1.998   5.600  0.4322 -0.6605 -0.7865
  584MOL0     N78722   2.776   1.989   5.612 -0.4456 -0.5895  0.2510
  584MOL0     C78723   2.833   1.861   5.624 -0.6286 -0.6204  0.7680
  584MOL0     C78724   2.955   1.893   5.658  0.5948 -1.0023 -0.2570
  584MOL0     C78725   3.051   1.781   5.685  0.6935 -0.2673 -0.3523
  584MOL0     C78726   3.189   1.851   5.699  0.3580 -0.6346  0.1630
  584MOL0     C78727   3.318   1.770   5.699 -0.2549  0.5034 -0.0924
  584MOL0     C78728   3.444   1.859   5.729 -0.0386  0.1692 -0.8207
  584MOL0     O78729   3.562   1.788   5.704 -0.6010 -0.2852  0.3305
  584MOL0     C78730   3.676   1.855   5.745 -0.0914  0.7348 -0.8504
  584MOL0     C78731   3.788   1.780   5.735 -0.0803 -0.7443  0.3156
  584MOL0     C78732   3.915   1.830   5.757  0.3294  0.3211 -0.2835
  584MOL0     C78733   3.927   1.970   5.769 -0.0073 -0.1425 -0.0435
  584MOL0     C78734   4.056   2.038   5.780 -0.1549  0.3611 -0.1507
  584MOL0     O78735   4.067   2.175   5.754  0.0443  0.1232  0.5657
  584MOL0     C78736   4.171   2.255   5.792 -0.0177 -0.7251 -1.0946
  584MOL0     C78737   4.276   2.220   5.893  1.6211 -0.3550  0.6450
  584MOL0     C78738   4.371   2.316   5.924 -0.7242  0.5865 -0.0032
  584MOL0     C78739   4.368   2.442   5.873  0.5140 -0.2460 -0.2126
  584MOL0     O78740   4.453   2.535   5.924 -0.3591  0.5289 -0.0987
  584MOL0     C78741   4.390   2.661   5.973  0.5492 -0.0971  0.0242
  584MOL0     C78742   4.469   2.714   6.096 -0.6829 -0.7703  0.2764
  584MOL0     C78743   4.613   2.762   6.058  0.7973 -0.5072  0.1994
  584MOL0     C78744   4.683   2.849   6.174 -0.6734  0.2553  0.1396
  584MOL0     C78745   4.832   2.886   6.143 -0.3053  0.1453  0.8549
  584MOL0     C78746   4.843   2.996   6.039 -1.6121 -0.1810  0.3150
  584MOL0     C78747   4.969   2.993   5.948  0.0484  0.3422  0.4741
  584MOL0     C78748   4.987   3.138   5.903 -0.1261  1.0196  0.8212
  584MOL0    Cl78749   4.844   3.199   5.828  0.1641 -0.2698  0.2808
  584MOL0     C78750   4.266   2.484   5.782  0.1371 -0.0614  0.0941
  584MOL0     C78751   4.170   2.386   5.737  0.4984  0.3734  0.4378
  584MOL0     O78752   4.146   1.964   5.839  0.4120 -0.3071 -0.0704
  584MOL0     C78753   3.809   2.050   5.770  0.1527 -0.1785  0.7069
  584MOL0     C78754   3.683   1.992   5.762 -0.8626 -0.7843  0.1749
  584MOL0     N78755   2.966   2.025   5.671 -0.3404 -1.5216  0.1352
  584MOL0     N78756   2.865   2.089   5.636  0.4950  0.1436 -0.4302
  584MOL0     C78757   2.736   2.518   4.756  1.2736  0.4428 -0.8063
  584MOL0     C78758   2.708   2.562   4.625 -0.1000 -0.3296 -0.1930
  584MOL0     C78759   2.472   2.623   4.236  0.1374  0.1000  0.1342
  584MOL0     C78760   2.441   2.747   4.280  0.2751  0.2345 -0.9486
  584MOL0     C78761   2.414   2.852   4.189  0.3071  0.5776 -0.1690
  584MOL0     C78762   2.410   2.824   4.055  0.3498  0.9488 -0.6152
  584MOL0     O78763   2.390   2.932   3.966  0.0559  0.1987 -0.3061
  584MOL0     C78764   2.326   2.911   3.835  0.7460  0.1815  0.3083
  584MOL0     C78765   2.429   2.933   3.734 -0.8122 -0.4178  0.1479
  584MOL0     C78766   2.379   2.923   3.588 -0.1227  0.4323 -0.7176
  584MOL0     C78767   2.491   2.915   3.475 -1.0440  0.4631  0.2615
  584MOL0     C78768   2.428   2.863   3.350 -0.6398  0.0557 -0.2884
  584MOL0     C78769   2.367   2.814   3.260 -0.7938  0.1084 -0.2129
  584MOL0     C78770   2.453   2.699   4.014  1.5085 -0.8435  0.6842
  584MOL0     C78771   2.471   2.600   4.099  0.3795 -0.1484  0.3097
  584MOL0     C78772   2.503   2.465   4.044  0.1882 -0.1749  0.1228
  584MOL0     H78773   2.550   2.284   4.514  1.3822 -1.4553  0.6897
  584MOL0     H78774   2.604   2.214   4.723 -0.4961 -0.1404 -1.6359
  584MOL0     H78775   2.720   2.145   4.910  4.7461 -0.3191  2.2723
  584MOL0     H78776   2.768   2.220   5.062 -0.9568 -1.9396  1.7276
  584MOL0     H78777   2.486   2.225   4.942  1.7777  1.1191 -1.3925
  584MOL0     H78778   2.533   2.312   5.096 -0.8032 -0.8024  0.2857
  584MOL0     H78779   2.625   2.074   5.171  0.0388 -2.2345 -0.4640
  584MOL0     H78780   2.509   2.010   5.058 -0.7086 -2.1256  3.6266
  584MOL0     H78781   2.437   2.219   5.269  2.0958 -0.2818  0.0100
  584MOL0     H78782   2.326   2.151   5.147  1.4698  1.5442 -2.3972
  584MOL0     H78783   2.261   2.025   5.318  0.0748  1.5313 -3.4418
  584MOL0     H78784   2.381   1.921   5.235  2.5088 -0.5952  1.3338
  584MOL0     H78785   2.414   2.108   5.479  0.9413 -0.3483  1.6958
  584MOL0     H78786   2.382   1.930   5.496  3.6605 -3.5396  0.9235
  584MOL0     H78787   2.641   2.010   5.372 -0.1191 -1.8182 -0.7718
  584MOL0     H78788   2.563   1.863   5.428  1.0926 -0.1977  0.7595
  584MOL0     H78789   2.610   2.105   5.616  1.6819 -0.8338  2.4643
  584MOL0     H78790   2.572   1.945   5.677 -0.1605  0.8199 -0.1543
  584MOL0     H78791   2.791   1.762   5.610  1.4276 -1.7037  1.7450
  584MOL0     H78792   3.034   1.712   5.769  2.6264 -0.3522  0.0258
  584MOL0     H78793   3.056   1.709   5.603  2.2687  0.3893 -0.8826
  584MOL0     H78794   3.205   1.909   5.608 -2.8515  0.0391 -0.1163
  584MOL0     H78795   3.192   1.917   5.786  0.7264 -0.9124  0.3612
  584MOL0     H78796   3.335   1.712   5.609  1.3282 -1.7539  1.5495
  584MOL0     H78797   3.295   1.703   5.783 -5.6701  3.5411  1.3420
  584MOL0     H78798   3.438   1.879   5.836 -0.7938 -0.5401 -0.7150
  584MOL0     H78799   3.435   1.956   5.679  1.8583  1.3568  0.9960
  584MOL0     H78800   3.785   1.673   5.716  1.6270 -0.5850 -1.1242
  584MOL0     H78801   4.005   1.771   5.747 -1.2564 -1.9505 -2.3759
  584MOL0     H78802   4.286   2.128   5.950 -2.0009 -1.3128 -0.0234
  584MOL0     H78803   4.457   2.300   5.988 -1.0641 -0.1624  0.2793
  584MOL0     H78804   4.398   2.729   5.888  1.1972 -1.7263 -1.2851
  584MOL0     H78805   4.284   2.662   6.001  0.7139  0.1729  0.6347
  584MOL0     H78806   4.410   2.788   6.151  1.2308  3.0961 -2.3956
  584MOL0     H78807   4.486   2.630   6.163 -0.3107 -2.5640 -1.9341
  584MOL0     H78808   4.677   2.674   6.045  2.5863  0.4080  2.1917
  584MOL0     H78809   4.603   2.820   5.966  0.0343  1.4934  1.4751
  584MOL0     H78810   4.678   2.802   6.273 -2.0852  1.3246  0.6040
  584MOL0     H78811   4.621   2.939   6.181  0.0929  0.7062  1.7238
  584MOL0     H78812   4.873   2.796   6.096  0.2577  0.3784  0.8946
  584MOL0     H78813   4.885   2.908   6.236  2.2864 -1.2478 -0.1853
  584MOL0     H78814   4.763   2.961   5.974 -0.9977 -4.6251  1.6015
  584MOL0     H78815   4.825   3.093   6.087  1.2014 -0.4206  2.1456
  584MOL0     H78816   4.951   2.935   5.857 -4.4314  1.8848  0.1233
  584MOL0     H78817   5.062   2.954   5.991 -0.8281  1.7617  4.0110
  584MOL0     H78818   5.016   3.203   5.986  1.9501  0.6625  0.4249
  584MOL0     H78819   5.068   3.144   5.830 -1.3391 -2.0006 -0.9383
  584MOL0     H78820   4.267   2.583   5.738  3.1587 -0.5326 -1.1031
  584MOL0     H78821   4.098   2.435   5.672  0.7708  0.6160  0.3149
  584MOL0     H78822   3.811   2.158   5.784  1.1769 -0.2899  1.4721
  584MOL0     H78823   3.598   2.059   5.765  0.0151  0.3555  2.0239
  584MOL0     H78824   2.777   2.597   4.818 -1.5323  0.8545  0.6970
  584MOL0     H78825   2.746   2.662   4.604  0.6616 -0.1177  1.9459
  584MOL0     H78826   2.433   2.759   4.387  0.7517  1.5662 -1.0450
  584MOL0     H78827   2.381   2.947   4.229  1.1610  0.0592  1.8684
  584MOL0     H78828   2.246   2.985   3.829  1.0159  0.4288 -0.2981
  584MOL0     H78829   2.281   2.811   3.822  1.4993 -0.1013 -0.2233
  584MOL0     H78830   2.508   2.861   3.756 -1.3989 -1.4403 -0.9689
  584MOL0     H78831   2.464   3.037   3.738  2.2408 -1.3074 -0.4401
  584MOL0     H78832   2.317   3.009   3.561  0.6867 -0.0128 -4.6066
  584MOL0     H78833   2.311   2.837   3.585 -1.2202  1.2818 -0.7383
  584MOL0     H78834   2.515   3.020   3.460 -2.2276  0.5645 -1.1665
  584MOL0     H78835   2.574   2.853   3.510 -0.6147  0.0676 -1.3604
  584MOL0     H78836   2.297   2.756   3.203 -0.3276  0.0201 -0.7047
  584MOL0     H78837   2.451   2.689   3.906 -0.3924 -1.6958  0.7592
  584MOL0     H78838   2.420   2.396   4.063  2.1101 -2.4453  0.6558
  584MOL0     H78839   2.542   2.459   3.942  2.5662 -1.3562  1.0362
  584MOL0     H78840   2.591   2.420   4.091 -0.0814 -1.1150 -0.2579
  585MOL0     O78841   4.964  11.337  10.342  0.6305 -0.4795  0.7990
  585MOL0     C78842   5.062  11.331  10.274 -0.5000 -1.0322  0.0435
  585MOL0     O78843   5.185  11.322  10.326  0.8602 -0.0597 -0.3301
  585MOL0     C78844   5.202  11.259  10.451 -0.0808  0.1257  0.4208
  585MOL0     C78845   5.314  11.276  10.528  0.7757  0.2483 -0.0322
  585MOL0     C78846   5.338  11.212  10.648  0.0071  0.1009 -0.4381
  585MOL0     C78847   5.239  11.125  10.701  0.4811  0.0386  0.3239
  585MOL0     O78848   5.232  11.064  10.822 -0.7875  0.0916 -0.3975
  585MOL0     C78849   5.347  11.064  10.905  0.2323 -0.4667 -0.1115
  585MOL0     C78850   5.328  10.947  10.999 -0.1570 -0.6878  0.5623
  585MOL0     C78851   5.392  10.987  11.135  0.6975  0.1746  0.0108
  585MOL0     C78852   5.333  10.892  11.244 -0.4227  0.2575 -0.5706
  585MOL0     C78853   5.394  10.927  11.378 -0.1813  0.4816  0.2516
  585MOL0     C78854   5.340  10.831  11.478  0.3705  0.2441 -0.2399
  585MOL0     C78855   5.396  10.689  11.492 -0.8886  0.3225  0.2793
  585MOL0     C78856   5.325  10.608  11.607 -0.1483  0.3225  0.4649
  585MOL0     N78857   5.340  10.679  11.733  0.9473 -0.0364  0.4664
  585MOL0     C78858   5.458  10.733  11.785 -0.0012 -0.2623  0.8745
  585MOL0     C78859   5.434  10.766  11.916  0.2752  0.1497 -0.3996
  585MOL0     C78860   5.527  10.811  12.024 -0.7970 -1.5510  0.2012
  585MOL0     C78861   5.581  10.692  12.113 -0.3009 -0.1293 -0.8479
  585MOL0     C78862   5.488  10.631  12.207  0.8322  0.0404  0.7256
  585MOL0     C78863   5.412  10.738  12.291 -0.3808  0.1484  0.3804
  585MOL0     O78864   5.500  10.833  12.342  0.9866  0.3061  0.6648
  585MOL0     C78865   5.469  10.916  12.444  1.0127 -0.0560  0.5916
  585MOL0     C78866   5.559  10.935  12.544 -0.1983 -0.4073  0.3749
  585MOL0     C78867   5.536  11.013  12.656  1.0475  0.4452 -0.0793
  585MOL0     C78868   5.420  11.086  12.664  0.0705  0.4729  0.2781
  585MOL0     C78869   5.399  11.184  12.772  0.7813 -0.1569 -0.5272
  585MOL0     O78870   5.282  11.265  12.750 -0.6285 -0.4842  0.0924
  585MOL0     C78871   5.243  11.361  12.837  0.3017  0.1417 -0.7078
  585MOL0     C78872   5.212  11.480  12.782 -0.3343 -0.1967  0.2761
  585MOL0     C78873   5.136  11.580  12.850  0.1136 -0.4294  0.4059
  585MOL0     C78874   5.129  11.569  12.988  0.9272 -0.9721  0.2418
  585MOL0     O78875   5.076  11.674  13.059  0.0056 -0.5244 -0.3628
  585MOL0     C78876   5.074  11.681  13.200 -1.0980 -0.3261  0.2114
  585MOL0     C78877   4.994  11.814  13.233  0.3496 -0.0266 -0.5249
  585MOL0     C78878   5.101  11.924  13.246  0.3643  0.2686  0.0055
  585MOL0     C78879   5.041  12.054  13.302 -0.4339 -0.2203 -0.0110
  585MOL0     C78880   5.017  12.052  13.454  0.3230 -1.4952 -0.5504
  585MOL0     C78881   4.947  12.176  13.502  1.5102 -0.4778 -0.0769
  585MOL0     C78882   4.957  12.207  13.645  0.4246 -0.5329  0.0173
  585MOL0     C78883   4.871  12.311  13.704 -0.3549 -0.3323  0.1337
  585MOL0    Cl78884   4.697  12.252  13.681  0.2313  0.0644 -0.5528
  585MOL0     C78885   5.177  11.453  13.048 -0.1514  0.2711 -0.9092
  585MOL0     C78886   5.230  11.348  12.978 -0.7149 -0.0548  0.4111
  585MOL0     O78887   5.474  11.184  12.878  0.6427 -0.1963  0.4106
  585MOL0     C78888   5.319  11.074  12.563 -0.2708 -0.4467  0.3402
  585MOL0     C78889   5.344  10.988  12.449 -0.1371  0.3498 -0.4842
  585MOL0     N78890   5.297  10.766  11.936 -0.5801 -1.0245  0.1575
  585MOL0     N78891   5.246  10.714  11.826  0.2800  0.1736 -0.2477
  585MOL0     C78892   5.125  11.102  10.621  0.4654 -0.9526 -0.1684
  585MOL0     C78893   5.102  11.173  10.504 -0.8468  0.2583 -0.7241
  585MOL0     C78894   5.065  11.357  10.125  1.0118 -0.3566 -0.0672
  585MOL0     C78895   5.185  11.343  10.053  0.8086  0.2465  0.1551
  585MOL0     C78896   5.197  11.378   9.920 -0.1999 -0.8948  0.2266
  585MOL0     C78897   5.099  11.436   9.847  0.2252  0.4532  0.5501
  585MOL0     O78898   5.131  11.460   9.713 -0.5629  0.1475  0.2740
  585MOL0     C78899   5.043  11.545   9.651 -0.6947 -0.0698 -0.3179
  585MOL0     C78900   4.961  11.485   9.538 -0.0302  1.1795  0.1926
  585MOL0     C78901   5.013  11.344   9.493  0.6855 -0.2331 -0.0034
  585MOL0     C78902   4.937  11.292   9.369  0.0195 -0.4660 -0.3025
  585MOL0     C78903   4.938  11.376   9.249 -0.0525 -0.6028  0.9878
  585MOL0     C78904   4.952  11.435   9.145 -0.0677  0.1861  0.4026
  585MOL0     C78905   4.974  11.441   9.920 -0.4641  0.7145 -0.2267
  585MOL0     C78906   4.955  11.410  10.052  0.3155  0.2582 -0.4878
  585MOL0     C78907   4.818  11.440  10.108 -0.1442  0.4220 -0.6811
  585MOL0     H78908   5.393  11.338  10.487  0.8733  0.3103  0.2479
  585MOL0     H78909   5.434  11.234  10.693 -0.7440  0.7087  0.9179
  585MOL0     H78910   5.444  11.061  10.855 -0.9379  0.0495 -2.6155
  585MOL0     H78911   5.350  11.159  10.960 -0.8660 -0.0688 -0.6928
  585MOL0     H78912   5.382  10.864  10.954 -1.7488 -2.0289  1.0301
  585MOL0     H78913   5.222  10.924  11.016  0.1015 -2.3080  0.0885
  585MOL0     H78914   5.370  11.091  11.159 -1.2763  0.2690 -1.8419
  585MOL0     H78915   5.500  10.972  11.130  0.3966 -1.7783 -2.3037
  585MOL0     H78916   5.224  10.886  11.245 -0.3531 -2.5117  0.3803
  585MOL0     H78917   5.358  10.792  11.207 -3.1469 -0.6061 -0.2859
  585MOL0     H78918   5.503  10.916  11.380 -0.3111 -2.6585  4.5165
  585MOL0     H78919   5.367  11.029  11.408  1.6968  0.2691  3.0646
  585MOL0     H78920   5.325  10.882  11.574 -3.6404 -0.7177 -0.1967
  585MOL0     H78921   5.233  10.810  11.466  0.1431  0.8305  0.6238
  585MOL0     H78922   5.504  10.703  11.503 -0.6355 -0.0066 -1.5124
  585MOL0     H78923   5.386  10.636  11.397  0.8528  0.4204 -0.0009
  585MOL0     H78924   5.216  10.607  11.595 -0.0954  1.4320 -0.2149
  585MOL0     H78925   5.371  10.509  11.605 -1.6349 -0.3830 -1.1080
  585MOL0     H78926   5.550  10.740  11.729  0.8138 -0.3055  2.1613
  585MOL0     H78927   5.614  10.859  11.979 -1.3664 -0.8059 -0.1363
  585MOL0     H78928   5.474  10.878  12.092  0.1027  0.1226 -0.6838
  585MOL0     H78929   5.622  10.623  12.039  0.3163  0.4324 -1.0370
  585MOL0     H78930   5.662  10.738  12.170 -0.8378  0.6276 -0.6707
  585MOL0     H78931   5.537  10.557  12.271  0.1753 -0.7218  0.3675
  585MOL0     H78932   5.420  10.576  12.141 -0.9009  1.1567  1.4871
  585MOL0     H78933   5.364  10.686  12.374 -1.3906  0.0787 -0.2360
  585MOL0     H78934   5.345  10.786  12.219  1.9511 -2.0199 -3.5815
  585MOL0     H78935   5.659  10.895  12.530 -0.4380 -1.5276  1.6799
  585MOL0     H78936   5.595  11.025  12.746  1.4348 -0.7773 -0.1427
  585MOL0     H78937   5.225  11.487  12.675 -3.1529 -2.4417 -0.3349
  585MOL0     H78938   5.088  11.662  12.798  0.4989  0.7462  1.8596
  585MOL0     H78939   5.024  11.592  13.240 -1.0561  0.9402  3.3467
  585MOL0     H78940   5.175  11.689  13.240 -1.9745 -0.3299  2.5661
  585MOL0     H78941   4.921  11.841  13.157 -3.1449  1.5438  3.0553
  585MOL0     H78942   4.941  11.805  13.328  1.3573 -1.5305 -0.0762
  585MOL0     H78943   5.180  11.882  13.310 -0.8741  0.7918  1.9741
  585MOL0     H78944   5.144  11.937  13.146 -0.1556 -2.5399 -0.6922
  585MOL0     H78945   4.954  12.083  13.243 -0.5016 -1.6499 -0.6572
  585MOL0     H78946   5.120  12.128  13.284  1.6802 -1.6844  2.5231
  585MOL0     H78947   5.113  12.052  13.506  0.4489  1.1213 -0.6271
  585MOL0     H78948   4.958  11.964  13.482  1.8663 -2.5109 -0.3866
  585MOL0     H78949   4.976  12.258  13.436  0.1862 -1.3178 -1.7975
  585MOL0     H78950   4.843  12.148  13.481  1.2517 -0.0351  0.5611
  585MOL0     H78951   5.064  12.217  13.665  0.5050 -4.4741  2.6300
  585MOL0     H78952   4.940  12.114  13.702  0.6595 -1.7747 -1.8693
  585MOL0     H78953   4.910  12.319  13.806 -0.1103  0.8836 -0.0446
  585MOL0     H78954   4.879  12.406  13.651 -1.6151 -0.8556 -1.0665
  585MOL0     H78955   5.187  11.445  13.156  3.6625  2.1365 -0.9531
  585MOL0     H78956   5.269  11.267  13.039 -4.2981  0.0399  3.1290
  585MOL0     H78957   5.228  11.133  12.560  0.1534  0.1999 -0.9990
  585MOL0     H78958   5.270  10.992  12.369 -0.0170 -2.1953 -0.8208
  585MOL0     H78959   5.054  11.037  10.671  2.0616 -1.1406  1.9771
  585MOL0     H78960   5.002  11.154  10.466 -1.3865 -0.8241  1.1100
  585MOL0     H78961   5.269  11.295  10.103  0.2789 -0.6048  0.2446
  585MOL0     H78962   5.291  11.358   9.869  0.9413 -0.3616  2.0331
  585MOL0     H78963   5.123  11.610   9.613 -2.2127  0.9204 -1.9611
  585MOL0     H78964   4.976  11.606   9.712 -2.3553 -1.3082 -0.8361
  585MOL0     H78965   4.965  11.545   9.447 -1.2112  0.9720 -0.0112
  585MOL0     H78966   4.860  11.476   9.579 -0.4004  1.8338 -0.5486
  585MOL0     H78967   5.011  11.274   9.577 -0.5203 -0.4885 -0.2160
  585MOL0     H78968   5.114  11.362   9.455 -0.7283  1.0355 -3.5868
  585MOL0     H78969   4.983  11.194   9.352  0.5824 -0.1927 -0.3777
  585MOL0     H78970   4.832  11.291   9.400 -0.5122  1.2507 -1.8071
  585MOL0     H78971   4.975  11.496   9.061 -1.4635 -0.2122 -0.3007
  585MOL0     H78972   4.888  11.482   9.868 -1.3262 -1.1608 -0.3643
  585MOL0     H78973   4.738  11.471  10.041 -1.6546  1.1319  1.3807
  585MOL0     H78974   4.771  11.356  10.159 -0.2159  0.1983 -1.1139
  585MOL0     H78975   4.833  11.523  10.178 -1.7297 -1.5484  2.1828
  586MOL0     O78976   9.213  11.433   2.878  0.2914  0.7600 -0.1689
  586MOL0     C78977   9.142  11.370   2.953  2.0241 -0.5652 -0.0324
  586MOL0     O78978   9.034  11.426   3.010 -0.5310  0.1644  0.2495
  586MOL0     C78979   8.981  11.541   2.958  0.7989 -0.3742  0.2322
  586MOL0     C78980   8.909  11.601   3.054  1.3509  0.0189 -0.4509
  586MOL0     C78981   8.835  11.716   3.020 -0.5018 -0.2219 -0.4788
  586MOL0     C78982   8.852  11.783   2.900  0.1600 -1.3723  0.3191
  586MOL0     O78983   8.790  11.908   2.891 -0.8363 -0.0256 -0.0334
  586MOL0     C78984   8.877  12.016   2.891  0.1228 -0.6322  0.2220
  586MOL0     C78985   8.812  12.154   2.867 -0.0757  0.1487 -0.0552
  586MOL0     C78986   8.685  12.181   2.955 -0.0610 -0.1232 -0.8347
  586MOL0     C78987   8.618  12.325   2.926 -0.3603  0.0373  0.0181
  586MOL0     C78988   8.521  12.362   3.037  0.3483  0.4080 -1.4107
  586MOL0     C78989   8.449  12.499   3.029 -0.3775  0.0606  0.3526
  586MOL0     C78990   8.542  12.617   3.070 -0.7125  0.0589  0.3740
  586MOL0     C78991   8.535  12.744   2.986  0.0012  0.4822 -0.2950
  586MOL0     N78992   8.388  12.778   2.953  1.1410 -0.0839 -0.2335
  586MOL0     C78993   8.358  12.811   2.829  0.3122  0.1569 -0.6469
  586MOL0     C78994   8.222  12.836   2.837  0.7421 -0.1630  0.5444
  586MOL0     C78995   8.146  12.903   2.721 -0.4596 -1.0244  0.6444
  586MOL0     C78996   8.162  12.839   2.580  0.0754  0.0615 -0.1186
  586MOL0     C78997   8.055  12.890   2.482 -0.4812 -0.3904 -0.1556
  586MOL0     C78998   8.055  12.834   2.343  0.7107  1.3966 -0.3066
  586MOL0     O78999   8.185  12.843   2.290  0.8120  0.2886 -0.4865
  586MOL0     C79000   8.190  12.819   2.155  0.3308  0.7554  1.5427
  586MOL0     C79001   8.280  12.885   2.077  0.1258  0.2222  0.4587
  586MOL0     C79002   8.284  12.869   1.941 -0.3056 -0.6920  0.4378
  586MOL0     C79003   8.199  12.786   1.870  0.0663 -0.2552  0.3011
  586MOL0     C79004   8.205  12.760   1.726  0.2201 -0.1038 -0.5291
  586MOL0     O79005   8.305  12.815   1.656  0.5631 -0.0875 -0.1068
  586MOL0     C79006   8.326  12.802   1.518  0.4465  0.2023  0.3209
  586MOL0     C79007   8.216  12.820   1.434 -0.0107  0.0869  0.2885
  586MOL0     C79008   8.235  12.818   1.299 -0.1289  0.3882 -0.0656
  586MOL0     C79009   8.370  12.825   1.244  0.9374  1.2836 -0.4056
  586MOL0     O79010   8.399  12.839   1.109  0.9479  0.4060 -0.0929
  586MOL0     C79011   8.310  12.907   1.021 -0.0065  0.4093 -1.0790
  586MOL0     C79012   8.359  12.914   0.875 -0.4248  0.3104 -0.1406
  586MOL0     C79013   8.505  12.967   0.868  0.3784  0.3297  0.4247
  586MOL0     C79014   8.534  13.116   0.901 -0.7886  0.2326  0.2611
  586MOL0     C79015   8.689  13.130   0.882  0.0919 -0.5664 -0.7046
  586MOL0     C79016   8.709  13.281   0.859 -0.4209 -0.6565  0.3164
  586MOL0     C79017   8.857  13.300   0.805  0.5836  0.3750  0.0963
  586MOL0     C79018   8.868  13.447   0.744 -0.9139 -1.1285 -0.7644
  586MOL0    Cl79019   8.816  13.557   0.878  0.2638 -0.2114  0.1033
  586MOL0     C79020   8.476  12.815   1.329  1.2283  0.8396 -0.4195
  586MOL0     C79021   8.450  12.800   1.466  0.8431  0.0719  0.0190
  586MOL0     O79022   8.124  12.689   1.673  0.1987  0.2431 -0.3340
  586MOL0     C79023   8.114  12.707   1.945  0.3433 -0.5930 -0.7291
  586MOL0     C79024   8.109  12.731   2.085  0.4667  0.8308  0.0991
  586MOL0     N79025   8.175  12.823   2.970 -0.2210  1.1201  0.0142
  586MOL0     N79026   8.273  12.779   3.031  0.2978 -1.0016 -0.2244
  586MOL0     C79027   8.931  11.727   2.804 -0.2168  0.8332  0.1718
  586MOL0     C79028   8.991  11.602   2.830 -0.2170  0.3899 -0.2137
  586MOL0     C79029   9.186  11.231   3.008  0.0887  0.1720  0.6182
  586MOL0     C79030   9.097  11.155   3.092 -0.2904  0.2079 -0.1656
  586MOL0     C79031   9.146  11.038   3.158 -0.1133  0.5789  0.5171
  586MOL0     C79032   9.267  10.981   3.128 -0.1663  0.3309 -0.0350
  586MOL0     O79033   9.303  10.865   3.187 -0.5259  1.0760  0.7941
  586MOL0     C79034   9.374  10.757   3.109  0.0931 -0.2937 -0.9939
  586MOL0     C79035   9.270  10.669   3.050  0.1442  0.3727  0.4288
  586MOL0     C79036   9.192  10.585   3.157 -0.3760 -0.7262  0.9620
  586MOL0     C79037   9.074  10.511   3.108  0.0690  0.1345  0.7753
  586MOL0     C79038   9.100  10.381   3.056 -0.4697 -0.4638 -0.0898
  586MOL0     C79039   9.132  10.269   3.023  0.3377  0.0120  0.5093
  586MOL0     C79040   9.344  11.053   3.036 -0.3679  0.2766  0.9001
  586MOL0     C79041   9.311  11.171   2.975  0.5583 -1.1741  0.0090
  586MOL0     C79042   9.405  11.235   2.877  0.3380  0.2789  0.8546
  586MOL0     H79043   8.910  11.554   3.152  0.0954 -0.4414 -0.6384
  586MOL0     H79044   8.781  11.770   3.098  3.5177  2.8537  0.5304
  586MOL0     H79045   8.928  12.024   2.987  0.4839  0.4231 -0.0382
  586MOL0     H79046   8.959  11.997   2.821  1.3076 -2.4161  2.0088
  586MOL0     H79047   8.783  12.161   2.762 -0.4713 -0.0624  0.0375
  586MOL0     H79048   8.878  12.239   2.888  1.3276 -0.2448 -2.4427
  586MOL0     H79049   8.698  12.180   3.064 -0.6003 -0.7006 -0.7703
  586MOL0     H79050   8.613  12.106   2.922  0.9652 -1.3194 -0.4606
  586MOL0     H79051   8.703  12.394   2.931  0.8587 -1.4839  1.6410
  586MOL0     H79052   8.571  12.326   2.827  0.1683 -1.7082 -0.2880
  586MOL0     H79053   8.459  12.274   3.057  0.8713  0.6426  1.8649
  586MOL0     H79054   8.571  12.370   3.134 -3.7013 -0.4329  1.0227
  586MOL0     H79055   8.426  12.512   2.923  1.0936 -1.9194 -0.2574
  586MOL0     H79056   8.358  12.501   3.090 -0.1331  2.8047  0.7704
  586MOL0     H79057   8.645  12.580   3.062 -1.1876 -0.9268 -4.9656
  586MOL0     H79058   8.517  12.654   3.170 -1.6448 -2.5379  1.1703
  586MOL0     H79059   8.582  12.828   3.037 -1.5842  1.1189  0.1905
  586MOL0     H79060   8.577  12.736   2.885 -3.2369 -0.5735 -1.7153
  586MOL0     H79061   8.420  12.833   2.742 -1.9439  0.8206 -2.1828
  586MOL0     H79062   8.042  12.921   2.750 -1.2887 -1.8553 -1.6054
  586MOL0     H79063   8.187  13.004   2.712  4.0798 -2.7984 -1.8471
  586MOL0     H79064   8.262  12.857   2.538 -1.2005  2.4331 -2.4446
  586MOL0     H79065   8.144  12.731   2.585  0.5135 -0.0112 -0.0307
  586MOL0     H79066   8.081  12.996   2.468 -1.2657  0.2336  2.5022
  586MOL0     H79067   7.953  12.897   2.521 -1.0292 -1.8311 -1.2388
  586MOL0     H79068   7.986  12.892   2.281 -0.3667 -0.7362 -1.2083
  586MOL0     H79069   8.026  12.729   2.348  1.1650  1.3180  3.0992
  586MOL0     H79070   8.360  12.947   2.118 -1.1895  2.1400  0.2230
  586MOL0     H79071   8.356  12.918   1.876  1.4843 -3.2980  0.3349
  586MOL0     H79072   8.116  12.824   1.475 -1.1233  1.0632 -2.2999
  586MOL0     H79073   8.153  12.818   1.229 -1.2568 -3.9860  0.9191
  586MOL0     H79074   8.213  12.855   1.021 -0.3026  0.8470 -3.5772
  586MOL0     H79075   8.302  13.008   1.062 -0.2788 -0.3814  0.9758
  586MOL0     H79076   8.364  12.811   0.837  1.7320  0.5322 -0.5563
  586MOL0     H79077   8.290  12.976   0.817 -3.8644 -4.4469 -1.7846
  586MOL0     H79078   8.560  12.906   0.941 -0.9645 -1.7569 -0.2377
  586MOL0     H79079   8.543  12.947   0.768  0.2057  1.6394  0.0774
  586MOL0     H79080   8.497  13.154   0.997  0.4582  0.1668  0.7862
  586MOL0     H79081   8.477  13.181   0.835 -3.3180  1.1078  3.0733
  586MOL0     H79082   8.719  13.069   0.796 -0.7628 -0.8561 -0.8114
  586MOL0     H79083   8.746  13.089   0.965 -1.7486 -1.8832 -0.0314
  586MOL0     H79084   8.631  13.331   0.801  2.5910  1.3097 -2.3388
  586MOL0     H79085   8.700  13.340   0.951 -0.7485  1.9231 -1.2736
  586MOL0     H79086   8.875  13.210   0.745 -0.7388  0.1960 -0.0810
  586MOL0     H79087   8.935  13.274   0.877  1.0081  0.0827 -0.4537
  586MOL0     H79088   8.972  13.476   0.723 -1.5112  0.9614 -1.0812
  586MOL0     H79089   8.803  13.458   0.657 -2.9624  1.1657  0.9412
  586MOL0     H79090   8.574  12.824   1.284  1.6014  1.3487  0.4863
  586MOL0     H79091   8.532  12.807   1.536  1.4471  5.7080 -0.8463
  586MOL0     H79092   8.055  12.629   1.897 -3.2787  1.8522 -0.6893
  586MOL0     H79093   8.047  12.664   2.144  0.4931  1.3960  0.7842
  586MOL0     H79094   8.954  11.774   2.709 -1.0164 -1.9113 -1.4862
  586MOL0     H79095   9.050  11.564   2.747  2.0897  4.7218 -0.8664
  586MOL0     H79096   9.001  11.201   3.114 -0.6541 -1.0292  0.9924
  586MOL0     H79097   9.087  11.002   3.242  1.2639 -1.9845  0.4748
  586MOL0     H79098   9.434  10.694   3.175 -0.9373  0.4457  0.6927
  586MOL0     H79099   9.437  10.805   3.034  1.0809 -0.3044 -0.1856
  586MOL0     H79100   9.320  10.600   2.981 -0.2920 -1.1472  1.5988
  586MOL0     H79101   9.210  10.734   2.985  0.2426 -1.4251 -1.5683
  586MOL0     H79102   9.155  10.659   3.228  1.7689  3.0782 -1.4743
  586MOL0     H79103   9.269  10.529   3.212 -1.4623 -3.4449 -0.1119
  586MOL0     H79104   9.005  10.496   3.192 -3.5466 -1.0756 -2.1653
  586MOL0     H79105   9.024  10.581   3.040  0.5445 -0.0787  0.2009
  586MOL0     H79106   9.193  10.184   2.999  0.8832  1.1793 -2.7351
  586MOL0     H79107   9.436  11.000   3.009 -2.4067 -3.4639  0.5951
  586MOL0     H79108   9.459  11.321   2.918  2.7399 -1.7266  2.2213
  586MOL0     H79109   9.488  11.164   2.863  1.8678  1.2795  3.8585
  586MOL0     H79110   9.346  11.249   2.786  2.8086  0.0202 -0.9252
  587MOL0     O79111   7.997   0.381   8.050 -0.8016  0.2026 -0.1111
  587MOL0     C79112   8.064   0.362   8.152  0.8774 -0.8174  0.0413
  587MOL0     O79113   8.012   0.372   8.278 -0.4514  0.0165  1.2169
  587MOL0     C79114   7.877   0.404   8.302  0.5790  0.1338 -0.1776
  587MOL0     C79115   7.800   0.328   8.392  0.6775  0.2264  1.0367
  587MOL0     C79116   7.686   0.388   8.445  0.0827 -0.0991  0.6887
  587MOL0     C79117   7.638   0.513   8.400 -0.0553 -0.0770  0.4440
  587MOL0     O79118   7.518   0.569   8.434 -0.0500  0.8078 -0.1220
  587MOL0     C79119   7.487   0.565   8.572 -0.4352  1.0315 -0.4737
  587MOL0     C79120   7.363   0.657   8.607  0.0006 -0.7022 -0.4585
  587MOL0     C79121   7.394   0.806   8.636 -0.2121  0.6405 -1.0287
  587MOL0     C79122   7.303   0.876   8.731  0.2800  0.9180  0.2213
  587MOL0     C79123   7.373   1.009   8.772  0.6163 -0.6484 -0.0596
  587MOL0     C79124   7.268   1.121   8.806 -0.6291  0.0773 -0.4813
  587MOL0     C79125   7.181   1.073   8.930 -0.5427 -0.1130 -0.2960
  587MOL0     C79126   7.254   1.058   9.059 -1.2936 -0.6743  0.4941
  587MOL0     N79127   7.162   1.025   9.162 -0.1541 -1.0467 -0.0430
  587MOL0     C79128   7.060   0.933   9.148 -0.9150 -0.6400  0.3019
  587MOL0     C79129   6.994   0.929   9.261  0.2282 -0.3551  0.3223
  587MOL0     C79130   6.865   0.853   9.287 -0.3326  0.1086 -0.0060
  587MOL0     C79131   6.881   0.777   9.422 -0.1613  0.4946  0.5218
  587MOL0     C79132   6.756   0.715   9.481 -0.4393 -0.5652  0.5327
  587MOL0     C79133   6.778   0.709   9.630  0.3557 -0.0720 -0.2813
  587MOL0     O79134   6.903   0.643   9.659 -0.0952 -0.3750  0.2591
  587MOL0     C79135   6.969   0.673   9.778  0.4372  0.1779 -0.0300
  587MOL0     C79136   7.103   0.639   9.768 -0.6686  0.3952 -0.0302
  587MOL0     C79137   7.180   0.644   9.896 -0.4379 -1.2552 -0.6134
  587MOL0     C79138   7.118   0.684  10.021  0.5975 -0.2672 -0.6504
  587MOL0     C79139   7.194   0.672  10.154  0.7520  0.2317 -0.0411
  587MOL0     O79140   7.113   0.688  10.269  1.2216 -0.6091  0.2995
  587MOL0     C79141   7.186   0.693  10.384 -0.6741 -1.3524 -0.1007
  587MOL0     C79142   7.181   0.580  10.470 -0.0562 -0.9845 -0.8576
  587MOL0     C79143   7.252   0.584  10.589 -0.4304 -0.4753 -0.6052
  587MOL0     C79144   7.323   0.699  10.634 -0.0272 -0.0776  0.1211
  587MOL0     O79145   7.399   0.713  10.746 -0.5739  0.2988  0.0673
  587MOL0     C79146   7.374   0.647  10.876 -0.0862 -0.5754  0.1818
  587MOL0     C79147   7.406   0.755  10.972 -0.5438 -0.2794  0.0673
  587MOL0     C79148   7.304   0.874  10.978  0.2152  0.7948  0.6336
  587MOL0     C79149   7.190   0.841  11.080  0.2912  0.0890  0.1083
  587MOL0     C79150   7.084   0.955  11.091  0.0003  0.6492 -0.4983
  587MOL0     C79151   7.141   1.081  11.152 -0.4652 -0.8849  0.2789
  587MOL0     C79152   7.037   1.184  11.183 -0.9151  0.5608 -0.0508
  587MOL0     C79153   6.977   1.240  11.049 -0.5917 -0.4682 -0.4342
  587MOL0    Cl79154   6.826   1.311  11.082  0.4467  0.2701  0.4073
  587MOL0     C79155   7.317   0.810  10.547 -0.4601 -0.4544 -0.8268
  587MOL0     C79156   7.238   0.813  10.433 -0.2568 -0.8885 -0.5309
  587MOL0     O79157   7.320   0.670  10.153 -0.2509 -0.4474 -0.3215
  587MOL0     C79158   6.985   0.719  10.014  0.8809 -0.6662 -0.8199
  587MOL0     C79159   6.918   0.725   9.899  0.4024 -0.4370  1.1936
  587MOL0     N79160   7.055   1.023   9.347 -0.8916 -0.6727  0.0918
  587MOL0     N79161   7.161   1.068   9.291 -0.1269  0.0606 -0.4061
  587MOL0     C79162   7.702   0.575   8.294  0.2689 -0.5854 -0.6809
  587MOL0     C79163   7.825   0.527   8.257  0.5569  0.0484 -0.3256
  587MOL0     C79164   8.209   0.358   8.128 -0.4115  0.0009 -0.3284
  587MOL0     C79165   8.257   0.419   8.011 -0.3487 -0.9922  0.1368
  587MOL0     C79166   8.398   0.422   7.987  0.8381  0.4237  0.8093
  587MOL0     C79167   8.491   0.358   8.064 -0.0237  0.1250 -0.2522
  587MOL0     O79168   8.618   0.354   8.032 -0.1202 -0.2321 -0.1936
  587MOL0     C79169   8.658   0.350   7.893 -0.1453 -0.3234  0.9678
  587MOL0     C79170   8.793   0.284   7.881 -0.5930  0.7441 -0.0045
  587MOL0     C79171   8.778   0.127   7.894  0.3257  0.1291 -0.3755
  587MOL0     C79172   8.916   0.047   7.914 -0.7980  0.2458  0.0128
  587MOL0     C79173   9.008   0.100   8.012  0.2756  0.3508 -0.2151
  587MOL0     C79174   9.063   0.149   8.102 -0.6609 -0.2819  0.0297
  587MOL0     C79175   8.444   0.305   8.179 -0.9037 -0.4289 -0.3971
  587MOL0     C79176   8.308   0.295   8.208  0.2045 -0.3956 -1.1151
  587MOL0     C79177   8.285   0.228   8.342  0.5432 -0.6502 -0.5742
  587MOL0     H79178   7.846   0.233   8.417  3.3816  0.2028 -3.0737
  587MOL0     H79179   7.620   0.330   8.509 -0.0009 -0.6267  0.1335
  587MOL0     H79180   7.474   0.463   8.609  1.9026  0.7886 -0.2041
  587MOL0     H79181   7.578   0.607   8.616  0.8475 -1.0297 -1.0452
  587MOL0     H79182   7.323   0.603   8.693 -0.5365 -2.9196 -2.0078
  587MOL0     H79183   7.281   0.652   8.534 -0.4193  0.3885 -0.0834
  587MOL0     H79184   7.396   0.859   8.540  0.0321 -1.1524 -2.0505
  587MOL0     H79185   7.497   0.804   8.673 -0.2322  0.7401 -0.9655
  587MOL0     H79186   7.203   0.893   8.691 -0.6616  1.1410  2.5468
  587MOL0     H79187   7.291   0.814   8.820 -0.0571 -0.5722 -0.8184
  587MOL0     H79188   7.435   0.980   8.857 -0.5655 -2.3240  0.2650
  587MOL0     H79189   7.451   1.045   8.704  1.1736 -0.6999  0.5372
  587MOL0     H79190   7.328   1.206   8.839  0.4316  0.0165 -2.1804
  587MOL0     H79191   7.213   1.161   8.721  0.9341  1.5314 -0.8679
  587MOL0     H79192   7.127   0.979   8.915  0.6732 -1.3623  2.3956
  587MOL0     H79193   7.103   1.146   8.949  0.0800 -0.1083  2.8016
  587MOL0     H79194   7.328   0.978   9.053 -0.7560 -0.2902  1.6228
  587MOL0     H79195   7.311   1.148   9.082 -0.6276 -0.6226 -1.2229
  587MOL0     H79196   7.029   0.871   9.065  1.0905 -0.4852 -0.6313
  587MOL0     H79197   6.779   0.919   9.306  0.1253 -0.0745  3.3592
  587MOL0     H79198   6.854   0.792   9.197 -1.6821 -0.0698  0.2530
  587MOL0     H79199   6.953   0.698   9.399  3.8426  3.4495  1.7938
  587MOL0     H79200   6.910   0.853   9.495  0.7883  1.3981 -0.7501
  587MOL0     H79201   6.747   0.612   9.444  1.1361  0.1014 -1.8873
  587MOL0     H79202   6.669   0.767   9.441 -0.1748 -1.5593 -1.4592
  587MOL0     H79203   6.695   0.660   9.681  0.9995 -1.8227 -0.8445
  587MOL0     H79204   6.786   0.811   9.670  0.4727 -0.2296  0.0994
  587MOL0     H79205   7.150   0.599   9.679 -1.6234 -1.6611  0.3409
  587MOL0     H79206   7.285   0.617   9.895 -0.2225 -0.6553  1.2969
  587MOL0     H79207   7.125   0.493  10.436  3.4493 -3.2677 -1.3559
  587MOL0     H79208   7.263   0.511  10.669 -1.3638 -1.5829 -1.4626
  587MOL0     H79209   7.270   0.617  10.888 -0.0418 -0.6349  0.4244
  587MOL0     H79210   7.449   0.568  10.887  2.6203  1.9952  1.7897
  587MOL0     H79211   7.440   0.711  11.066  1.4241 -0.5538 -0.7221
  587MOL0     H79212   7.496   0.806  10.935 -0.2793  4.1006  5.3737
  587MOL0     H79213   7.357   0.963  11.015  0.7540  1.1981 -0.9903
  587MOL0     H79214   7.263   0.897  10.879  0.3522  0.1264  0.4194
  587MOL0     H79215   7.248   0.830  11.172  1.0289 -1.2173 -0.4838
  587MOL0     H79216   7.143   0.747  11.048 -0.9005  0.5015  0.6098
  587MOL0     H79217   7.003   0.910  11.149  0.9820 -1.1302 -0.4238
  587MOL0     H79218   7.044   0.979  10.992 -0.8317  0.1949 -0.2860
  587MOL0     H79219   7.198   1.049  11.239  1.4954 -1.3529 -1.0979
  587MOL0     H79220   7.225   1.125  11.097 -0.6590  0.0787  0.7454
  587MOL0     H79221   7.067   1.264  11.252 -2.3284  0.7098  0.4221
  587MOL0     H79222   6.956   1.129  11.231  0.4984 -1.8703 -0.2964
  587MOL0     H79223   7.049   1.312  11.011 -0.6703  0.3625  0.9429
  587MOL0     H79224   6.965   1.167  10.968  0.6309 -0.0775 -1.0005
  587MOL0     H79225   7.356   0.908  10.573  0.2962 -0.3094 -2.4273
  587MOL0     H79226   7.224   0.900  10.370  4.4019  2.2465  2.1530
  587MOL0     H79227   6.918   0.736  10.097  4.1032  0.3994  1.7874
  587MOL0     H79228   6.814   0.755   9.894  0.9892  1.6787  0.5893
  587MOL0     H79229   7.652   0.659   8.246  1.2048 -0.7032 -1.9130
  587MOL0     H79230   7.882   0.584   8.185  2.6929 -0.9284  0.4956
  587MOL0     H79231   8.194   0.475   7.943 -1.3496 -1.8640  0.3336
  587MOL0     H79232   8.430   0.460   7.890  0.6614 -0.8905  0.2029
  587MOL0     H79233   8.657   0.453   7.857 -2.2698 -1.2602 -2.1109
  587MOL0     H79234   8.580   0.310   7.827 -1.3276  0.8273  1.6317
  587MOL0     H79235   8.849   0.326   7.965 -2.5153 -0.5004  2.0063
  587MOL0     H79236   8.854   0.303   7.792 -1.0169  0.1485 -0.4246
  587MOL0     H79237   8.745   0.091   7.796  0.8235  0.7344 -0.7737
  587MOL0     H79238   8.701   0.102   7.968  1.5293 -2.0578  0.2386
  587MOL0     H79239   8.886  -0.054   7.943 -0.4894  0.7032  2.1354
  587MOL0     H79240   8.970   0.060   7.820 -1.6799  5.7712 -0.1036
  587MOL0     H79241   9.124   0.209   8.167 -2.1152  0.3562  0.8396
  587MOL0     H79242   8.506   0.249   8.248 -0.2285  0.4396 -0.2702
  587MOL0     H79243   8.182   0.232   8.378  1.7484 -4.2037  4.4902
  587MOL0     H79244   8.305   0.120   8.335 -0.6658 -0.8221 -2.1002
  587MOL0     H79245   8.349   0.270   8.420  1.3784  1.5586 -2.3640
  588MOL0     O79246   8.956   9.990   0.456 -0.3044 -0.2890 -0.0400
  588MOL0     C79247   8.893   9.913   0.382  0.6058 -1.0447 -0.4990
  588MOL0     O79248   8.838   9.792   0.420  0.0005  0.0366 -0.3010
  588MOL0     C79249   8.856   9.754   0.552 -0.2102  0.9438 -0.4057
  588MOL0     C79250   8.762   9.767   0.659 -0.3969 -0.9783  0.5599
  588MOL0     C79251   8.791   9.714   0.787  0.3868 -1.0664 -0.1735
  588MOL0     C79252   8.914   9.657   0.818  0.5003  0.6022  0.3037
  588MOL0     O79253   8.938   9.607   0.941 -0.5060 -0.7354  0.3046
  588MOL0     C79254   9.000   9.710   1.022  0.0752  0.0939 -0.4060
  588MOL0     C79255   9.145   9.691   1.058 -0.2632 -0.1269  0.0399
  588MOL0     C79256   9.178   9.580   1.152  0.6084  1.1525  0.2991
  588MOL0     C79257   9.167   9.442   1.087  0.5698  0.0126 -0.5651
  588MOL0     C79258   9.224   9.345   1.192  0.8317  0.5861 -0.9058
  588MOL0     C79259   9.246   9.204   1.126 -0.4073 -0.1159  0.5236
  588MOL0     C79260   9.305   9.114   1.235 -0.2050  0.1725  0.3127
  588MOL0     C79261   9.261   8.968   1.201 -0.0180 -0.2458  0.0385
  588MOL0     N79262   9.329   8.905   1.085  0.4056  0.1791  0.9756
  588MOL0     C79263   9.444   8.832   1.082 -0.4328 -0.3906  0.4095
  588MOL0     C79264   9.470   8.807   0.948 -0.4672 -0.2510 -0.5117
  588MOL0     C79265   9.580   8.731   0.880 -0.1407  0.0526  0.2020
  588MOL0     C79266   9.534   8.584   0.848  0.4639  0.0578  0.0233
  588MOL0     C79267   9.634   8.502   0.769 -0.3113  0.2823 -0.5362
  588MOL0     C79268   9.628   8.534   0.616  0.6051  0.3671  1.0500
  588MOL0     O79269   9.714   8.448   0.549  0.3055  0.2182  0.3122
  588MOL0     C79270   9.726   8.442   0.419 -0.5999  0.2543  1.2332
  588MOL0     C79271   9.633   8.506   0.334 -0.3363 -0.1099 -0.0397
  588MOL0     C79272   9.648   8.498   0.195  0.2937 -0.5663 -0.3952
  588MOL0     C79273   9.760   8.437   0.140 -0.1780 -0.1265 -0.2844
  588MOL0     C79274   9.794   8.448  -0.003 -0.1667 -0.0828  0.3286
  588MOL0     O79275   9.694   8.477  -0.083 -0.2134 -0.4542 -0.2209
  588MOL0     C79276   9.691   8.436  -0.219 -0.5154  0.2659  0.2627
  588MOL0     C79277   9.799   8.375  -0.297 -0.7858 -0.2610  0.3068
  588MOL0     C79278   9.765   8.337  -0.425  0.0757  0.5975  0.9496
  588MOL0     C79279   9.635   8.362  -0.484 -0.0617  0.5415  0.9261
  588MOL0     O79280   9.625   8.331  -0.621  0.0432 -0.0964  0.0064
  588MOL0     C79281   9.505   8.370  -0.687  0.4989 -0.8530 -0.1228
  588MOL0     C79282   9.512   8.304  -0.819  0.1969  0.5830 -0.7890
  588MOL0     C79283   9.380   8.332  -0.903 -0.3268 -0.4693 -0.3931
  588MOL0     C79284   9.367   8.269  -1.044 -0.1290  0.4309  0.1732
  588MOL0     C79285   9.489   8.301  -1.133  0.2457 -0.4552  0.2516
  588MOL0     C79286   9.483   8.228  -1.267 -0.0272 -0.1248  1.4666
  588MOL0     C79287   9.352   8.257  -1.352  0.0672  0.0200 -0.6988
  588MOL0     C79288   9.372   8.224  -1.494  0.2717  0.2781  1.3069
  588MOL0    Cl79289   9.496   8.336  -1.567  0.2000  0.1615  0.1174
  588MOL0     C79290   9.543   8.426  -0.398 -0.1640  0.5113  0.2751
  588MOL0     C79291   9.562   8.456  -0.270 -1.1579 -0.9738 -1.3761
  588MOL0     O79292   9.907   8.424  -0.041 -0.0055  0.3801  0.3867
  588MOL0     C79293   9.836   8.351   0.217  0.0529 -0.4954  0.0035
  588MOL0     C79294   9.823   8.359   0.357 -0.1907 -0.0893  0.7884
  588MOL0     N79295   9.365   8.848   0.878 -0.8314 -0.3478  0.4140
  588MOL0     N79296   9.279   8.910   0.953  0.2250  0.0452  0.1304
  588MOL0     C79297   9.003   9.643   0.712 -1.2891  0.3129  1.4084
  588MOL0     C79298   8.973   9.685   0.577 -0.2066 -0.0730 -0.3661
  588MOL0     C79299   8.876   9.950   0.236 -0.5964 -0.1396  0.1313
  588MOL0     C79300   8.990   9.961   0.154  0.3305 -0.7225 -0.0601
  588MOL0     C79301   8.978  10.006   0.025  0.5092  0.5297  0.0296
  588MOL0     C79302   8.851  10.038  -0.033  0.6381  0.3557 -0.2654
  588MOL0     O79303   8.840  10.114  -0.148 -0.1912 -0.4993  0.2028
  588MOL0     C79304   8.929  10.226  -0.171 -0.5608 -0.0768 -0.3351
  588MOL0     C79305   8.955  10.316  -0.048  0.8863 -0.3776 -0.0667
  588MOL0     C79306   8.825  10.389  -0.009 -0.2503 -0.4955  0.2320
  588MOL0     C79307   8.807  10.509  -0.103 -0.0820  0.2043  0.0521
  588MOL0     C79308   8.674  10.560  -0.092 -0.4640  0.3528  0.4049
  588MOL0     C79309   8.569  10.613  -0.104  0.2840  0.5007 -0.7023
  588MOL0     C79310   8.739  10.017   0.045  0.3072  0.1755  0.0166
  588MOL0     C79311   8.747   9.972   0.184  0.1286 -0.1987 -0.0325
  588MOL0     C79312   8.612   9.950   0.258 -0.0492  0.5475  0.0898
  588MOL0     H79313   8.666   9.814   0.638  0.9601  1.0303 -1.5827
  588MOL0     H79314   8.710   9.709   0.859  0.5496  0.1884  0.1147
  588MOL0     H79315   8.989   9.810   0.979  0.5952 -0.2870 -1.4579
  588MOL0     H79316   8.938   9.701   1.112  0.0829  0.7387 -0.3339
  588MOL0     H79317   9.186   9.784   1.100  2.3372 -1.1923  0.1036
  588MOL0     H79318   9.202   9.676   0.965  3.4307  0.8266  1.9382
  588MOL0     H79319   9.131   9.580   1.251  1.0507  0.9060  0.5111
  588MOL0     H79320   9.281   9.610   1.174  0.6397  0.6081  0.9245
  588MOL0     H79321   9.068   9.421   1.045 -0.1839 -0.8366  1.4947
  588MOL0     H79322   9.240   9.426   1.008 -1.3584  0.3822 -2.5060
  588MOL0     H79323   9.318   9.385   1.231  0.4517 -1.1306  1.9921
  588MOL0     H79324   9.148   9.340   1.270 -1.1049 -1.4055 -2.7591
  588MOL0     H79325   9.150   9.166   1.092 -0.5139 -2.2570  2.9376
  588MOL0     H79326   9.305   9.211   1.034 -0.8074  0.8334  0.3276
  588MOL0     H79327   9.275   9.149   1.334  2.7930 -0.0246  1.3855
  588MOL0     H79328   9.414   9.122   1.236  0.0672 -0.2372 -4.2940
  588MOL0     H79329   9.278   8.906   1.290 -1.4601  1.1068  1.3248
  588MOL0     H79330   9.155   8.976   1.177  0.3312  5.3696 -1.2160
  588MOL0     H79331   9.503   8.797   1.166 -0.0140 -0.0309  0.2690
  588MOL0     H79332   9.602   8.788   0.789 -0.9566  1.2096  0.7059
  588MOL0     H79333   9.673   8.735   0.937 -1.8103 -0.1875  3.1538
  588MOL0     H79334   9.516   8.529   0.941 -0.2284 -0.3891 -0.3619
  588MOL0     H79335   9.444   8.601   0.788  1.1479  0.5316 -0.8690
  588MOL0     H79336   9.602   8.398   0.779 -0.1128  0.2185 -0.5536
  588MOL0     H79337   9.739   8.519   0.795 -1.0591 -0.3434  3.5982
  588MOL0     H79338   9.651   8.639   0.599 -0.7631  0.4706 -0.4848
  588MOL0     H79339   9.525   8.517   0.583 -0.2155  2.4833  2.3218
  588MOL0     H79340   9.553   8.562   0.380 -0.1041  0.5485 -0.4301
  588MOL0     H79341   9.571   8.560   0.151 -1.2415 -0.5821  2.0801
  588MOL0     H79342   9.903   8.363  -0.269 -0.6657  0.5215  0.2380
  588MOL0     H79343   9.838   8.291  -0.490 -0.5179 -0.8279  1.2453
  588MOL0     H79344   9.420   8.347  -0.622  0.9084  3.3593  2.2470
  588MOL0     H79345   9.503   8.476  -0.713 -0.7976 -0.3714  1.6902
  588MOL0     H79346   9.594   8.349  -0.876  1.0308  0.9816  0.6666
  588MOL0     H79347   9.535   8.198  -0.808 -1.5715  0.1581 -0.8995
  588MOL0     H79348   9.296   8.300  -0.841  0.4467  1.6750  1.9204
  588MOL0     H79349   9.380   8.440  -0.913  2.5564 -0.4786 -1.3969
  588MOL0     H79350   9.281   8.307  -1.100 -0.3107  0.8951  0.7613
  588MOL0     H79351   9.363   8.160  -1.034  2.0490  0.2124 -0.6034
  588MOL0     H79352   9.584   8.277  -1.083 -0.5696 -1.2576  1.4633
  588MOL0     H79353   9.483   8.409  -1.150  2.2663 -0.3064  0.1756
  588MOL0     H79354   9.579   8.235  -1.319 -0.0961 -1.0656  1.1917
  588MOL0     H79355   9.473   8.123  -1.238 -1.4450  0.1831  2.2172
  588MOL0     H79356   9.329   8.363  -1.339 -1.4611 -0.4343  0.6460
  588MOL0     H79357   9.271   8.196  -1.312  0.2581  0.7784  0.9371
  588MOL0     H79358   9.408   8.121  -1.506 -1.5434 -0.2642  0.0438
  588MOL0     H79359   9.286   8.231  -1.561  1.8309  2.5067 -0.6096
  588MOL0     H79360   9.447   8.456  -0.438 -0.0261 -0.0332 -0.4752
  588MOL0     H79361   9.495   8.513  -0.207 -0.3190 -0.0518 -1.2954
  588MOL0     H79362   9.912   8.289   0.171  0.8766 -0.7920  1.7156
  588MOL0     H79363   9.893   8.307   0.421 -1.7771 -0.7375  2.0545
  588MOL0     H79364   9.091   9.582   0.729 -1.7623 -1.2657 -1.2235
  588MOL0     H79365   9.038   9.669   0.492  1.2819 -0.1655  0.7550
  588MOL0     H79366   9.081   9.921   0.196  1.6323  0.7579 -1.3366
  588MOL0     H79367   9.059  10.041  -0.038 -2.4924  2.8780 -2.8599
  588MOL0     H79368   8.887  10.295  -0.245 -1.4655 -0.1806  0.0755
  588MOL0     H79369   9.025  10.186  -0.206 -0.0882  1.5713 -1.0755
  588MOL0     H79370   9.031  10.395  -0.056 -1.1984  1.7235 -0.0650
  588MOL0     H79371   8.983  10.249   0.034 -1.1175 -1.3080 -0.1093
  588MOL0     H79372   8.842  10.432   0.090  3.1032 -1.0094 -0.0071
  588MOL0     H79373   8.738  10.322  -0.012 -0.1355 -0.7025  1.1434
  588MOL0     H79374   8.875  10.588  -0.070 -3.6103  4.3867 -1.6484
  588MOL0     H79375   8.831  10.500  -0.209 -0.0941 -0.5832  0.1109
  588MOL0     H79376   8.465  10.631  -0.123 -0.4625 -3.6162 -1.4596
  588MOL0     H79377   8.636  10.033   0.015  0.1469  2.2652  1.4736
  588MOL0     H79378   8.523  10.005   0.226 -0.3881  0.5214  0.9463
  588MOL0     H79379   8.585   9.845   0.267 -0.4631  0.6583  0.1446
  588MOL0     H79380   8.626   9.995   0.357  0.6861 -0.7784  0.6141
  589MOL0     O79381  10.896   9.700   4.583 -0.2509  0.5076 -0.3920
  589MOL0     C79382  10.930   9.595   4.517  0.5038  0.1730  0.6238
  589MOL0     O79383  10.912   9.467   4.550  0.1353 -0.4827  0.5160
  589MOL0     C79384  10.836   9.426   4.653 -0.0565 -0.1824  0.3798
  589MOL0     C79385  10.701   9.388   4.640 -0.5379 -0.6302  0.3272
  589MOL0     C79386  10.637   9.315   4.744 -0.0078 -0.1483 -0.2314
  589MOL0     C79387  10.703   9.314   4.867 -0.5552  1.0914 -0.8559
  589MOL0     O79388  10.645   9.264   4.988 -0.3046 -0.8244 -0.7840
  589MOL0     C79389  10.593   9.128   4.996 -0.7050  0.8460 -0.3984
  589MOL0     C79390  10.709   9.022   5.017 -0.5749 -0.8011 -0.2148
  589MOL0     C79391  10.645   8.882   5.043 -0.6098  0.2983  0.2701
  589MOL0     C79392  10.753   8.776   5.053  0.7744 -0.4733  0.4405
  589MOL0     C79393  10.726   8.646   4.994 -0.4204  0.7896 -0.4716
  589MOL0     C79394  10.834   8.544   5.037  0.1859 -0.1826  0.4577
  589MOL0     C79395  10.769   8.402   5.015  0.4545 -0.0533  0.6600
  589MOL0     C79396  10.859   8.280   5.019  0.2337  1.0761 -0.2794
  589MOL0     N79397  10.941   8.255   4.906 -0.3783  0.3962 -0.3910
  589MOL0     C79398  10.901   8.189   4.800 -0.5433  0.8427  0.0102
  589MOL0     C79399  11.002   8.210   4.706  0.3705 -0.1863 -0.8459
  589MOL0     C79400  11.009   8.134   4.579  0.1514  0.9041  0.9784
  589MOL0     C79401  10.894   8.085   4.496 -0.7304  0.2979 -0.4369
  589MOL0     C79402  10.823   8.209   4.450  0.7922  0.6717 -0.3114
  589MOL0     C79403  10.700   8.200   4.371 -0.0006 -0.5106  0.2789
  589MOL0     O79404  10.736   8.186   4.233  0.4810  0.3835  0.3116
  589MOL0     C79405  10.737   8.303   4.160 -1.5477 -0.2315  0.3281
  589MOL0     C79406  10.750   8.438   4.215  0.3955  0.8696  0.7306
  589MOL0     C79407  10.738   8.546   4.133  0.0439  0.3217 -0.3537
  589MOL0     C79408  10.741   8.536   3.991  0.1150  0.2471  0.5300
  589MOL0     C79409  10.747   8.652   3.905 -0.0681  0.7347  0.8150
  589MOL0     O79410  10.796   8.623   3.782  0.4501  0.1361  0.1266
  589MOL0     C79411  10.836   8.725   3.704  0.2755  0.1701 -0.1389
  589MOL0     C79412  10.893   8.690   3.589 -0.8773  0.9731 -0.3698
  589MOL0     C79413  10.930   8.778   3.486 -0.4850  0.7010 -0.8758
  589MOL0     C79414  10.908   8.909   3.502  0.5512 -0.2215  0.7554
  589MOL0     O79415  10.938   8.995   3.397  0.4267  0.4611  0.4773
  589MOL0     C79416  10.871   8.965   3.274  0.0599 -0.1428 -0.0847
  589MOL0     C79417  10.812   9.103   3.217 -0.1863 -0.0650 -0.3574
  589MOL0     C79418  10.684   9.077   3.140  0.5041 -0.3229 -0.2861
  589MOL0     C79419  10.642   9.197   3.047 -0.0278  1.0378  0.6058
  589MOL0     C79420  10.512   9.166   2.972 -0.5094  0.2784  0.5093
  589MOL0     C79421  10.443   9.295   2.922  0.4873 -0.5313  0.2698
  589MOL0     C79422  10.344   9.246   2.812  0.3222 -0.6995 -0.0213
  589MOL0     C79423  10.238   9.342   2.763 -0.7080  0.9373 -1.0992
  589MOL0    Cl79424  10.072   9.283   2.823  0.0259  0.3666  0.3625
  589MOL0     C79425  10.864   8.957   3.625 -0.3905  0.0316  0.7552
  589MOL0     C79426  10.820   8.866   3.719  0.3642  0.4491 -0.5119
  589MOL0     O79427  10.710   8.757   3.953  0.1070 -0.4975 -0.6222
  589MOL0     C79428  10.747   8.398   3.940  0.5774 -0.8673 -0.6798
  589MOL0     C79429  10.739   8.289   4.022  0.0140 -0.5207 -0.1688
  589MOL0     N79430  11.092   8.301   4.761 -0.3631  0.3612 -0.3022
  589MOL0     N79431  11.052   8.325   4.884 -0.8919  0.1109  0.1392
  589MOL0     C79432  10.831   9.363   4.887  0.3797  0.5292  0.0754
  589MOL0     C79433  10.901   9.415   4.778 -0.1763  0.4732  0.0253
  589MOL0     C79434  11.029   9.633   4.411  0.2736  0.1175  0.6260
  589MOL0     C79435  11.112   9.750   4.430 -0.4754  0.0881  0.5221
  589MOL0     C79436  11.217   9.785   4.341  0.3275  0.6612  0.3079
  589MOL0     C79437  11.239   9.704   4.226  0.7339 -0.6752 -0.6794
  589MOL0     O79438  11.338   9.750   4.149 -0.6966 -0.5848  0.1956
  589MOL0     C79439  11.382   9.662   4.047  0.0217 -0.4939  0.5356
  589MOL0     C79440  11.517   9.707   3.990 -0.1428  0.0851 -0.1715
  589MOL0     C79441  11.509   9.823   3.887  0.6434 -0.9066  0.0029
  589MOL0     C79442  11.647   9.871   3.827  0.4486 -0.0864  0.3802
  589MOL0     C79443  11.706   9.761   3.746 -0.4655 -1.3001 -0.4381
  589MOL0     C79444  11.742   9.661   3.684  0.2244 -0.6545 -0.1148
  589MOL0     C79445  11.153   9.593   4.202  0.7372  0.5947  0.1094
  589MOL0     C79446  11.049   9.554   4.289 -0.2850 -0.1568 -0.2141
  589MOL0     C79447  10.975   9.425   4.266 -0.2136 -0.2300 -0.3211
  589MOL0     H79448  10.657   9.407   4.543 -0.1661 -0.1551  0.2438
  589MOL0     H79449  10.537   9.278   4.726 -0.3361  1.0453 -1.0043
  589MOL0     H79450  10.522   9.127   5.080 -0.8852  1.4271 -0.5368
  589MOL0     H79451  10.540   9.116   4.901  2.5842 -2.2160 -2.0539
  589MOL0     H79452  10.770   9.052   5.103  1.2549  2.9186 -2.5233
  589MOL0     H79453  10.778   9.034   4.933  2.9525 -1.4189  2.3797
  589MOL0     H79454  10.572   8.858   4.964 -1.5866 -1.1566  1.5638
  589MOL0     H79455  10.588   8.879   5.136 -0.5736  0.1598  0.2870
  589MOL0     H79456  10.842   8.817   5.003  0.4959  0.0113  0.3394
  589MOL0     H79457  10.772   8.757   5.159  0.2712 -1.2961  0.3877
  589MOL0     H79458  10.630   8.602   5.019  0.5329 -1.8305 -1.1593
  589MOL0     H79459  10.730   8.644   4.885 -1.5739  0.2319 -0.5160
  589MOL0     H79460  10.925   8.558   4.978 -0.2660 -1.8406 -0.7149
  589MOL0     H79461  10.851   8.541   5.146 -2.3270 -2.5787  0.8996
  589MOL0     H79462  10.723   8.404   4.915  1.2648  0.2981  0.2862
  589MOL0     H79463  10.693   8.385   5.092 -1.9165 -1.3394 -1.7460
  589MOL0     H79464  10.906   8.272   5.118 -1.1063  0.0515  0.3153
  589MOL0     H79465  10.796   8.191   5.025 -0.3886  1.5030 -0.3646
  589MOL0     H79466  10.818   8.119   4.795  1.3028 -1.9721  3.4358
  589MOL0     H79467  11.063   8.193   4.505 -2.2603  0.1861 -1.5169
  589MOL0     H79468  11.072   8.049   4.603 -1.0743  0.0721  1.3662
  589MOL0     H79469  10.924   8.021   4.413 -4.2718 -0.8992 -0.9665
  589MOL0     H79470  10.828   8.029   4.563 -2.7605 -0.1479 -2.6540
  589MOL0     H79471  10.893   8.271   4.394  0.8925  0.3113 -0.5845
  589MOL0     H79472  10.812   8.272   4.539  0.1666 -1.4849  1.2066
  589MOL0     H79473  10.642   8.291   4.391 -1.2291 -1.3162  0.4181
  589MOL0     H79474  10.638   8.117   4.405 -4.7575  3.0930  1.4608
  589MOL0     H79475  10.755   8.448   4.323  1.7599  1.1983  0.6535
  589MOL0     H79476  10.743   8.640   4.187  1.4312 -0.9170  1.8666
  589MOL0     H79477  10.914   8.586   3.567 -0.4343  0.7391  1.0235
  589MOL0     H79478  10.957   8.742   3.387 -1.5307 -0.1733 -0.8565
  589MOL0     H79479  10.938   8.913   3.204 -2.7240 -1.0451 -2.2725
  589MOL0     H79480  10.787   8.896   3.284 -0.9692  1.2514  1.2878
  589MOL0     H79481  10.789   9.177   3.293  2.3631  0.1134  0.3150
  589MOL0     H79482  10.892   9.155   3.164 -0.0718  1.7752  1.5403
  589MOL0     H79483  10.690   8.992   3.071  0.1078  1.4946 -2.7010
  589MOL0     H79484  10.599   9.071   3.208 -0.8946  2.9431 -1.5560
  589MOL0     H79485  10.717   9.229   2.974  0.9396 -0.0212  1.1202
  589MOL0     H79486  10.618   9.282   3.112 -1.8017 -1.3783  3.3182
  589MOL0     H79487  10.442   9.116   3.040  0.2992 -0.8835  0.5258
  589MOL0     H79488  10.533   9.099   2.888  1.4203 -0.5102  1.5561
  589MOL0     H79489  10.394   9.337   3.010 -0.4416  0.1245 -0.5395
  589MOL0     H79490  10.512   9.366   2.875  0.7613  0.0494  1.5026
  589MOL0     H79491  10.306   9.151   2.850 -1.7201 -0.0374 -0.2758
  589MOL0     H79492  10.406   9.221   2.725 -1.7644  0.4895 -1.9646
  589MOL0     H79493  10.263   9.441   2.802 -3.3872 -0.2200  4.4596
  589MOL0     H79494  10.234   9.343   2.653 -0.8952  1.0822 -1.0910
  589MOL0     H79495  10.855   9.063   3.642 -5.6859 -0.3860  2.2405
  589MOL0     H79496  10.780   8.917   3.807 -1.0674 -1.9937  0.3399
  589MOL0     H79497  10.744   8.384   3.832  2.3181 -0.9272 -0.7398
  589MOL0     H79498  10.721   8.191   3.978  0.9244 -0.0277 -1.7187
  589MOL0     H79499  10.867   9.358   4.989  2.5111  0.4958 -0.6303
  589MOL0     H79500  11.003   9.444   4.800 -0.5308  0.7723  1.3486
  589MOL0     H79501  11.095   9.801   4.524  1.7172 -1.8680  2.0726
  589MOL0     H79502  11.279   9.874   4.344  1.0941  0.1936 -0.8865
  589MOL0     H79503  11.310   9.663   3.966  4.0220  2.0082 -3.4407
  589MOL0     H79504  11.398   9.565   4.096 -0.2462 -0.2305  1.1594
  589MOL0     H79505  11.580   9.626   3.953  1.4096  0.3970  1.6718
  589MOL0     H79506  11.575   9.739   4.077 -2.4766  2.9056  0.5097
  589MOL0     H79507  11.463   9.901   3.949  1.9214 -0.8012  0.8598
  589MOL0     H79508  11.437   9.811   3.805  1.2920  1.4968 -1.0319
  589MOL0     H79509  11.626   9.969   3.782 -1.5364  0.2560  1.9187
  589MOL0     H79510  11.713   9.894   3.912 -0.5836  0.7207  0.9875
  589MOL0     H79511  11.778   9.577   3.629 -2.5553 -0.8985 -1.7493
  589MOL0     H79512  11.162   9.532   4.112 -2.8909 -1.7777  1.1387
  589MOL0     H79513  10.867   9.441   4.257 -0.2946 -0.9197 -0.5754
  589MOL0     H79514  11.006   9.381   4.172  0.9991 -0.7468  0.2948
  589MOL0     H79515  11.004   9.352   4.342 -0.5296  1.5873  1.6498
  590MOL0     O79516   1.204   2.162   6.174 -0.4992  0.4754 -0.3179
  590MOL0     C79517   1.121   2.215   6.098 -1.2227 -0.2971  0.0902
  590MOL0     O79518   1.013   2.285   6.137 -0.0061  0.2789 -0.4098
  590MOL0     C79519   0.964   2.381   6.054  0.4625  0.0459  0.2593
  590MOL0     C79520   0.892   2.346   5.942 -0.7793 -0.0014  0.4107
  590MOL0     C79521   0.856   2.452   5.850  1.1461 -1.0218  0.4850
  590MOL0     C79522   0.877   2.584   5.874  0.4892 -0.1576 -0.1926
  590MOL0     O79523   0.857   2.668   5.767  0.3270  0.0455  0.4973
  590MOL0     C79524   0.948   2.772   5.753 -0.4618  0.3066 -0.3009
  590MOL0     C79525   0.951   2.829   5.612  1.3777  0.5101 -0.0850
  590MOL0     C79526   1.004   2.728   5.509  0.0768  0.2172  0.1659
  590MOL0     C79527   0.896   2.649   5.438  0.5667 -0.2464  0.0696
  590MOL0     C79528   0.960   2.564   5.332 -0.2239  1.9477  0.2694
  590MOL0     C79529   0.862   2.462   5.280 -0.6619 -0.0254 -0.1273
  590MOL0     C79530   0.897   2.372   5.161  0.1753 -0.6011 -0.3425
  590MOL0     C79531   0.907   2.230   5.209  0.2337 -0.2530  0.9331
  590MOL0     N79532   0.926   2.133   5.095 -0.4443 -0.0963 -0.0967
  590MOL0     C79533   0.836   2.099   5.001 -0.1405 -0.7791 -0.0472
  590MOL0     C79534   0.907   2.024   4.914 -0.3566  0.8585 -0.4211
  590MOL0     C79535   0.857   1.942   4.792  0.0967  0.1196 -0.7435
  590MOL0     C79536   0.826   2.022   4.667  0.0934 -0.1176  1.1652
  590MOL0     C79537   0.950   2.089   4.608  0.1160  0.1753  0.9104
  590MOL0     C79538   0.903   2.207   4.510 -0.0922 -0.5536  0.2698
  590MOL0     O79539   0.806   2.305   4.557  0.3745 -0.3523  0.4661
  590MOL0     C79540   0.842   2.387   4.657 -0.7875  0.1090 -0.6375
  590MOL0     C79541   0.965   2.437   4.700 -0.0772  0.4385  0.6449
  590MOL0     C79542   0.969   2.539   4.796  0.4052  0.2981 -0.0093
  590MOL0     C79543   0.858   2.600   4.849 -0.5264 -0.9586 -0.2364
  590MOL0     C79544   0.858   2.718   4.944  0.0863  0.4626  0.6950
  590MOL0     O79545   0.741   2.754   5.005  0.2561  0.0053  0.0434
  590MOL0     C79546   0.723   2.862   5.090  0.1105  0.7505  0.4871
  590MOL0     C79547   0.601   2.922   5.078  0.3049 -0.1987  0.3958
  590MOL0     C79548   0.572   3.037   5.157  0.5585  0.8018  0.3337
  590MOL0     C79549   0.662   3.091   5.248  0.6309 -0.9892 -0.0326
  590MOL0     O79550   0.641   3.188   5.339 -0.6373  0.2308 -0.3684
  590MOL0     C79551   0.656   3.156   5.473 -0.1384  1.2155  0.3293
  590MOL0     C79552   0.777   3.243   5.517 -0.8226 -0.5447 -0.2318
  590MOL0     C79553   0.823   3.213   5.662 -0.2304 -0.8025  0.5864
  590MOL0     C79554   0.974   3.224   5.691 -0.1787  0.1346 -0.7363
  590MOL0     C79555   1.017   3.169   5.829  0.3549 -0.0499 -0.6542
  590MOL0     C79556   0.948   3.232   5.952 -0.4143 -0.5612 -0.0715
  590MOL0     C79557   1.002   3.170   6.088 -0.1177 -0.4824  0.0873
  590MOL0     C79558   0.968   3.012   6.098 -0.4919  0.4512  0.2214
  590MOL0    Cl79559   0.799   2.983   6.072  0.1987  0.1698 -0.1013
  590MOL0     C79560   0.784   3.033   5.246 -1.1758  0.3430  0.6145
  590MOL0     C79561   0.815   2.916   5.173  0.0365  0.7207 -0.0495
  590MOL0     O79562   0.964   2.783   4.937 -0.0270 -0.4556 -0.6478
  590MOL0     C79563   0.738   2.554   4.813  0.1406 -0.2037 -0.2566
  590MOL0     C79564   0.734   2.446   4.725 -0.2339 -0.1389 -0.3929
  590MOL0     N79565   1.035   2.009   4.956 -0.3415 -0.0507 -0.3730
  590MOL0     N79566   1.048   2.073   5.066  0.5091  0.0465  0.6188
  590MOL0     C79567   0.924   2.616   5.998  0.3724 -0.3777 -0.4032
  590MOL0     C79568   0.973   2.520   6.085 -0.0621 -0.1105  0.0392
  590MOL0     C79569   1.164   2.204   5.958 -0.3746 -0.5404 -0.0156
  590MOL0     C79570   1.243   2.310   5.906  0.5150 -0.1942 -0.1095
  590MOL0     C79571   1.274   2.328   5.766 -0.6947  0.0468 -0.4894
  590MOL0     C79572   1.235   2.225   5.683  0.1537  0.6744 -0.3105
  590MOL0     O79573   1.277   2.240   5.553 -0.6764 -0.4124 -0.1150
  590MOL0     C79574   1.295   2.126   5.455 -0.0983  0.0619  0.1013
  590MOL0     C79575   1.314   2.167   5.310 -0.0525  0.7410 -0.4123
  590MOL0     C79576   1.425   2.278   5.293 -0.2286  0.5322 -0.7742
  590MOL0     C79577   1.449   2.348   5.154 -0.5024  0.4592 -0.4013
  590MOL0     C79578   1.335   2.437   5.121  0.0035 -0.3208 -0.8744
  590MOL0     C79579   1.245   2.520   5.085 -0.0787 -0.5068 -0.1360
  590MOL0     C79580   1.170   2.107   5.734 -0.9330 -1.1231  1.1232
  590MOL0     C79581   1.140   2.097   5.875 -0.2615 -0.1416 -0.0059
  590MOL0     C79582   1.080   1.965   5.920 -0.1566 -0.3784  0.6543
  590MOL0     H79583   0.860   2.243   5.934  2.6368 -1.2148  0.4424
  590MOL0     H79584   0.805   2.428   5.757 -1.4488  3.1577  0.5337
  590MOL0     H79585   0.918   2.856   5.815 -2.6333  2.1425 -3.5709
  590MOL0     H79586   1.051   2.740   5.770 -1.3539 -2.0660  1.1197
  590MOL0     H79587   1.007   2.923   5.618  1.8653  0.6641 -4.3401
  590MOL0     H79588   0.848   2.858   5.592  1.4076  1.7357  1.3489
  590MOL0     H79589   1.076   2.661   5.556  1.1476 -0.0565 -1.7442
  590MOL0     H79590   1.063   2.785   5.436  1.5862  1.6752  2.4154
  590MOL0     H79591   0.833   2.589   5.504  0.1305 -1.1587 -1.1669
  590MOL0     H79592   0.835   2.726   5.391  0.2940 -0.1991  0.4898
  590MOL0     H79593   1.008   2.626   5.256  2.2123  0.8662  0.8045
  590MOL0     H79594   1.042   2.519   5.389 -1.7523  0.9727  1.8109
  590MOL0     H79595   0.835   2.396   5.363  0.6646 -4.5272 -2.9602
  590MOL0     H79596   0.781   2.527   5.246 -1.2454 -0.4179  0.4800
  590MOL0     H79597   0.981   2.416   5.107 -1.2854  0.0612 -2.1947
  590MOL0     H79598   0.807   2.375   5.099 -2.3923  0.2083  3.1102
  590MOL0     H79599   0.984   2.215   5.286  1.0828  1.0003  0.3514
  590MOL0     H79600   0.812   2.204   5.256 -1.3405  0.5681 -1.6169
  590MOL0     H79601   0.727   2.103   4.999 -0.2161 -1.6098 -3.3945
  590MOL0     H79602   0.927   1.861   4.772  0.0221 -0.3724  0.8098
  590MOL0     H79603   0.769   1.890   4.831  1.3016 -0.5570  1.2372
  590MOL0     H79604   0.763   1.963   4.600 -0.5376 -1.9466  3.2602
  590MOL0     H79605   0.752   2.093   4.707 -0.7080 -1.6558  2.5800
  590MOL0     H79606   1.001   2.020   4.540 -0.2963  0.0678  0.7089
  590MOL0     H79607   1.030   2.108   4.681  0.2593 -3.3732  1.8549
  590MOL0     H79608   0.857   2.158   4.424  0.1297  0.9838 -0.7520
  590MOL0     H79609   0.991   2.259   4.471 -0.6652  0.6324  0.5097
  590MOL0     H79610   1.057   2.410   4.648 -0.8211  1.6258 -1.4208
  590MOL0     H79611   1.068   2.579   4.820 -0.7502  2.6504  1.2140
  590MOL0     H79612   0.533   2.890   5.000 -0.6797  2.3673  0.1242
  590MOL0     H79613   0.470   3.071   5.141 -0.3218 -2.2870 -1.2904
  590MOL0     H79614   0.572   3.170   5.541 -0.7707 -1.8851  0.3176
  590MOL0     H79615   0.682   3.050   5.473 -3.9187  0.1622  1.3886
  590MOL0     H79616   0.861   3.211   5.455 -1.7030  0.6559 -2.1609
  590MOL0     H79617   0.778   3.352   5.511  2.0198 -0.3955  1.4633
  590MOL0     H79618   0.769   3.282   5.727  1.0209  2.8410 -1.8856
  590MOL0     H79619   0.796   3.109   5.677  1.7710 -1.3941  0.4269
  590MOL0     H79620   1.009   3.327   5.679 -5.0316  2.0981 -0.2092
  590MOL0     H79621   1.032   3.175   5.613  0.4423  0.4130 -0.4640
  590MOL0     H79622   1.126   3.171   5.837  0.2288  0.2073  1.5898
  590MOL0     H79623   0.993   3.063   5.822 -3.2202  0.6352 -0.8839
  590MOL0     H79624   0.970   3.338   5.968 -2.4026 -0.6377  4.7940
  590MOL0     H79625   0.839   3.234   5.940 -0.3485  1.2801 -0.7778
  590MOL0     H79626   0.966   3.214   6.182  1.0160 -0.5911  0.5998
  590MOL0     H79627   1.107   3.198   6.101 -0.5307  2.3217 -1.7491
  590MOL0     H79628   1.039   2.957   6.036 -0.7130 -1.6193  1.7000
  590MOL0     H79629   0.978   2.976   6.201 -0.9736  2.0700  0.8712
  590MOL0     H79630   0.866   3.079   5.301 -1.4043  0.9817  0.4206
  590MOL0     H79631   0.917   2.880   5.175 -1.0875 -2.9156 -0.4366
  590MOL0     H79632   0.649   2.594   4.860  0.8716  1.3685 -0.1256
  590MOL0     H79633   0.636   2.416   4.688 -0.3030  0.4848 -0.7431
  590MOL0     H79634   0.925   2.721   6.026  4.0409 -0.1848 -0.8302
  590MOL0     H79635   1.027   2.566   6.168 -1.7500 -0.1696  1.2176
  590MOL0     H79636   1.264   2.385   5.982 -0.2295 -0.9816  0.8990
  590MOL0     H79637   1.333   2.409   5.725 -0.4243  0.4167  0.5925
  590MOL0     H79638   1.207   2.061   5.462  1.9277 -3.0346 -1.0629
  590MOL0     H79639   1.375   2.062   5.490  0.8642  0.4613 -1.2822
  590MOL0     H79640   1.217   2.208   5.279 -1.1924 -0.8751  0.8735
  590MOL0     H79641   1.344   2.089   5.239  0.0069  1.1183 -0.8123
  590MOL0     H79642   1.519   2.236   5.329  1.4563  3.0948 -1.8961
  590MOL0     H79643   1.398   2.355   5.365  0.4548  2.6683 -2.6591
  590MOL0     H79644   1.542   2.405   5.153 -0.3834  0.2957 -2.4486
  590MOL0     H79645   1.467   2.273   5.076 -1.2736 -0.4000  0.2221
  590MOL0     H79646   1.176   2.594   5.047  0.5071 -0.1242 -0.4791
  590MOL0     H79647   1.150   2.029   5.661 -0.4755  0.2491 -0.5280
  590MOL0     H79648   1.143   1.876   5.912  0.5503  0.2533 -1.3040
  590MOL0     H79649   1.049   1.975   6.025 -1.4707  0.0357  0.2360
  590MOL0     H79650   0.990   1.948   5.861 -0.6891  0.8728  1.0626
  591MOL0     O79651   0.605   1.738   7.567 -0.4973 -1.0678 -0.0785
  591MOL0     C79652   0.546   1.655   7.633 -0.1151  0.0726 -0.4728
  591MOL0     O79653   0.412   1.645   7.640 -0.1334 -0.8528  0.1242
  591MOL0     C79654   0.342   1.755   7.619  0.3296 -0.3379  0.1350
  591MOL0     C79655   0.352   1.875   7.697 -0.6496  0.3931  0.5874
  591MOL0     C79656   0.260   1.973   7.673  0.2660  0.3885 -0.7352
  591MOL0     C79657   0.175   1.962   7.562  0.1663  0.2627 -0.2413
  591MOL0     O79658   0.079   2.062   7.559 -0.0867  0.7747 -0.5219
  591MOL0     C79659  -0.048   2.026   7.504 -0.2808  0.3583  0.4441
  591MOL0     C79660  -0.170   2.108   7.536 -0.7105  0.7030 -0.1722
  591MOL0     C79661  -0.175   2.257   7.490  0.1753 -0.3177  0.7265
  591MOL0     C79662  -0.080   2.346   7.569 -0.3151  0.5401 -0.6556
  591MOL0     C79663  -0.068   2.485   7.499 -1.0352  0.6297  0.2654
  591MOL0     C79664   0.057   2.569   7.537 -1.0938 -0.4324 -0.0335
  591MOL0     C79665   0.072   2.696   7.443 -0.2968  0.8125 -0.9425
  591MOL0     C79666  -0.008   2.818   7.502 -0.0260 -0.0971 -0.3842
  591MOL0     N79667   0.012   2.848   7.653  0.7504  0.0974 -0.6731
  591MOL0     C79668   0.111   2.824   7.743  0.5956 -0.4894  0.3191
  591MOL0     C79669   0.075   2.874   7.858 -1.0653 -0.1233  0.7550
  591MOL0     C79670   0.129   2.859   7.995  0.1614 -0.1125 -0.7553
  591MOL0     C79671   0.066   2.976   8.091 -0.6078 -0.5530 -0.6303
  591MOL0     C79672   0.080   2.942   8.240  0.3140 -0.4750 -0.5162
  591MOL0     C79673   0.219   2.925   8.301  0.6692  0.2244 -1.1327
  591MOL0     O79674   0.192   2.876   8.436  0.1506  0.0264  0.3107
  591MOL0     C79675   0.289   2.829   8.514  0.3829  0.5114 -0.0511
  591MOL0     C79676   0.259   2.723   8.598 -0.0283 -0.3013  0.1637
  591MOL0     C79677   0.347   2.681   8.701 -1.1336 -0.3503 -1.0516
  591MOL0     C79678   0.477   2.739   8.707  0.1081 -0.0639 -0.6480
  591MOL0     C79679   0.575   2.692   8.809 -0.3941  0.9530 -0.1028
  591MOL0     O79680   0.550   2.568   8.859  0.5215 -1.1905  0.5640
  591MOL0     C79681   0.648   2.522   8.939 -0.3979  0.7521 -0.0388
  591MOL0     C79682   0.726   2.414   8.896  1.4914  1.0016 -0.7111
  591MOL0     C79683   0.796   2.338   8.995 -0.3442 -0.4210 -0.4816
  591MOL0     C79684   0.808   2.396   9.116 -0.3885  0.6385  0.3319
  591MOL0     O79685   0.874   2.352   9.215 -0.4361 -0.0441 -0.1680
  591MOL0     C79686   0.883   2.201   9.235 -0.4299 -0.4177 -0.4007
  591MOL0     C79687   0.949   2.180   9.372 -0.4202  0.4856  0.0559
  591MOL0     C79688   1.003   2.041   9.399  0.3381  0.8939  0.0449
  591MOL0     C79689   1.069   2.032   9.544 -0.5650  0.0785 -0.2528
  591MOL0     C79690   1.102   1.881   9.582  0.3008  0.1472 -0.1149
  591MOL0     C79691   1.245   1.852   9.552 -0.5783  0.4166  0.0467
  591MOL0     C79692   1.303   1.714   9.589 -0.2798  0.3856  0.2057
  591MOL0     C79693   1.457   1.713   9.571  0.7165  0.0512  1.1954
  591MOL0    Cl79694   1.498   1.697   9.395  0.6013 -0.0332 -0.0750
  591MOL0     C79695   0.745   2.510   9.156 -0.1586 -0.0607 -0.4143
  591MOL0     C79696   0.655   2.566   9.069 -0.7544 -0.0726 -0.6555
  591MOL0     O79697   0.661   2.767   8.851 -0.4385  0.6301  0.2296
  591MOL0     C79698   0.505   2.840   8.616 -0.6689  0.7949 -0.3785
  591MOL0     C79699   0.416   2.882   8.517  0.7595  0.2868  0.4628
  591MOL0     N79700  -0.050   2.932   7.837  0.4812 -0.2662 -0.7867
  591MOL0     N79701  -0.093   2.909   7.713  0.5120  0.5244  0.3472
  591MOL0     C79702   0.180   1.849   7.472 -0.5437  0.2798 -0.8437
  591MOL0     C79703   0.267   1.749   7.504  0.3708 -0.9648  0.3727
  591MOL0     C79704   0.622   1.553   7.708  0.8998  0.4447 -0.9417
  591MOL0     C79705   0.553   1.445   7.764 -0.0014  0.3519 -0.8548
  591MOL0     C79706   0.619   1.350   7.852  1.4711  0.0251  0.2730
  591MOL0     C79707   0.752   1.357   7.875 -0.6277 -1.7864  0.4474
  591MOL0     O79708   0.832   1.264   7.936 -0.1098  0.1395 -0.3416
  591MOL0     C79709   0.783   1.129   7.935 -0.7971 -0.9717  0.2574
  591MOL0     C79710   0.903   1.033   7.906  0.3574 -0.3136  0.2226
  591MOL0     C79711   0.853   0.896   7.871 -1.1221  0.5670  0.3976
  591MOL0     C79712   0.894   0.846   7.733  0.2838  0.7489 -0.1760
  591MOL0     C79713   0.810   0.725   7.702  0.4166  0.2759 -0.7875
  591MOL0     C79714   0.732   0.630   7.681 -0.2102  0.5963 -0.0053
  591MOL0     C79715   0.820   1.460   7.813 -1.2022  0.4582 -0.1127
  591MOL0     C79716   0.762   1.562   7.740  0.6484 -0.9238  0.2157
  591MOL0     C79717   0.842   1.686   7.708  0.0932 -0.4830 -0.1499
  591MOL0     H79718   0.431   1.885   7.771 -1.5480 -1.2173  1.8315
  591MOL0     H79719   0.242   2.061   7.734 -0.0310 -0.6996  0.7967
  591MOL0     H79720  -0.035   2.042   7.396 -0.1407 -0.4685  0.3307
  591MOL0     H79721  -0.075   1.921   7.515 -0.4312  0.2113 -1.1175
  591MOL0     H79722  -0.203   2.093   7.639 -1.4697  1.7710 -0.2395
  591MOL0     H79723  -0.249   2.071   7.470  0.6910 -3.4676  0.2365
  591MOL0     H79724  -0.276   2.298   7.497 -0.3863 -0.7387 -2.8991
  591MOL0     H79725  -0.154   2.263   7.383  0.2486 -0.7768  0.7109
  591MOL0     H79726  -0.107   2.349   7.675  0.2004 -0.9825 -0.4495
  591MOL0     H79727   0.018   2.298   7.579  0.1512  1.6399  0.1572
  591MOL0     H79728  -0.072   2.465   7.391 -1.9140 -0.6007  0.4985
  591MOL0     H79729  -0.154   2.540   7.538  0.1227  1.0288  2.4237
  591MOL0     H79730   0.057   2.596   7.643 -1.6466  0.4761 -0.2480
  591MOL0     H79731   0.146   2.507   7.526  0.1179  0.6280  2.8807
  591MOL0     H79732   0.024   2.656   7.353 -2.1849 -5.4234  2.2074
  591MOL0     H79733   0.171   2.733   7.416 -1.3272  4.8780  0.2182
  591MOL0     H79734   0.015   2.903   7.438 -1.9461  1.4465  0.8444
  591MOL0     H79735  -0.116   2.803   7.493  0.0065 -1.6287  1.2946
  591MOL0     H79736   0.197   2.763   7.716  0.6676 -0.3490  0.2296
  591MOL0     H79737   0.114   2.754   8.021  2.7857 -0.0037  1.6690
  591MOL0     H79738   0.236   2.879   7.992 -0.1794  3.8045  2.9607
  591MOL0     H79739   0.116   3.068   8.059 -1.9896 -0.4482 -2.6803
  591MOL0     H79740  -0.041   2.997   8.080 -0.2158  2.4379  0.3663
  591MOL0     H79741   0.027   2.847   8.251  2.9759 -2.2231 -1.5306
  591MOL0     H79742   0.019   3.019   8.287  0.6514  0.6038 -1.7777
  591MOL0     H79743   0.275   3.019   8.296 -1.5107  1.5391 -2.5330
  591MOL0     H79744   0.276   2.847   8.249  1.3040 -0.4475  0.4926
  591MOL0     H79745   0.156   2.690   8.588 -0.5208  0.3580  2.4346
  591MOL0     H79746   0.329   2.593   8.762  0.3183 -2.2027 -3.1008
  591MOL0     H79747   0.712   2.379   8.794 -0.1445  3.1430 -1.2981
  591MOL0     H79748   0.845   2.242   8.978  0.7405  0.2517 -1.2870
  591MOL0     H79749   0.788   2.147   9.233  0.4151 -1.9510 -2.0512
  591MOL0     H79750   0.950   2.162   9.158  0.0304  1.2698 -0.8795
  591MOL0     H79751   1.030   2.252   9.381 -0.7475  0.7175  1.4049
  591MOL0     H79752   0.871   2.201   9.446  1.1325  1.3737  1.4931
  591MOL0     H79753   0.927   1.965   9.376  1.6922 -0.8290  1.0356
  591MOL0     H79754   1.081   2.022   9.325 -0.8162 -0.5488 -0.8626
  591MOL0     H79755   0.990   2.062   9.613 -1.3772 -1.5050 -0.4308
  591MOL0     H79756   1.154   2.101   9.549  0.5105 -1.0968 -1.5492
  591MOL0     H79757   1.041   1.815   9.519  0.3078 -2.6175  2.5812
  591MOL0     H79758   1.079   1.850   9.684 -1.8785 -1.4128 -1.0029
  591MOL0     H79759   1.265   1.874   9.446 -2.8126  4.0099  0.1883
  591MOL0     H79760   1.295   1.929   9.612 -0.3434 -2.1812  3.4232
  591MOL0     H79761   1.267   1.626   9.535  1.8141  0.9482 -2.3173
  591MOL0     H79762   1.292   1.693   9.696 -0.1561 -1.7847 -0.1721
  591MOL0     H79763   1.514   1.803   9.594  0.8609  0.7489 -1.5974
  591MOL0     H79764   1.492   1.633   9.637 -0.9617 -1.7031  0.0649
  591MOL0     H79765   0.752   2.540   9.261  0.4796 -0.6656 -0.2784
  591MOL0     H79766   0.584   2.636   9.112 -0.1869 -0.3311  0.7396
  591MOL0     H79767   0.600   2.891   8.613 -0.9231  1.3220  0.2404
  591MOL0     H79768   0.453   2.960   8.451  1.7979 -0.8530 -0.3612
  591MOL0     H79769   0.123   1.822   7.383  3.5006 -6.8821 -2.0510
  591MOL0     H79770   0.266   1.652   7.455 -3.7962 -1.5332  1.2389
  591MOL0     H79771   0.447   1.439   7.738  0.7862 -0.1940 -4.4561
  591MOL0     H79772   0.558   1.274   7.899  0.1310  1.1343  0.3774
  591MOL0     H79773   0.701   1.103   7.867  0.7324 -1.3726 -1.5169
  591MOL0     H79774   0.753   1.108   8.039 -2.9212 -1.9308 -0.4943
  591MOL0     H79775   0.960   1.043   7.999 -0.8685  1.9368  0.8166
  591MOL0     H79776   0.971   1.071   7.829  0.7962  1.3456  1.3612
  591MOL0     H79777   0.744   0.892   7.876 -1.1285  0.5603  0.2726
  591MOL0     H79778   0.884   0.841   7.960 -0.9416  0.8975  0.5404
  591MOL0     H79779   0.864   0.914   7.654 -3.8915  1.4134  1.7157
  591MOL0     H79780   1.001   0.829   7.743  0.2683  0.5901 -0.2678
  591MOL0     H79781   0.681   0.537   7.669 -1.1009  1.0902 -0.1131
  591MOL0     H79782   0.921   1.468   7.853 -1.8573 -3.0714  2.8753
  591MOL0     H79783   0.857   1.697   7.600 -2.4511  1.2027 -0.4184
  591MOL0     H79784   0.781   1.771   7.739  0.2186  0.4173 -2.1941
  591MOL0     H79785   0.940   1.696   7.756 -0.5504  2.0029  0.8039
  592MOL0     O79786   4.854   0.073   1.882  0.7848  0.3031 -0.3705
  592MOL0     C79787   4.819   0.015   1.986  0.2298 -0.0541 -1.1438
  592MOL0     O79788   4.872  -0.104   2.032  0.3355  0.4146  0.3026
  592MOL0     C79789   4.956  -0.164   1.937  0.7784 -0.3399 -1.1663
  592MOL0     C79790   4.907  -0.224   1.820 -0.4553 -0.5819 -0.5693
  592MOL0     C79791   4.991  -0.303   1.746 -0.6479  0.3368 -0.5837
  592MOL0     C79792   5.131  -0.328   1.783 -0.4022 -0.4694 -0.4739
  592MOL0     O79793   5.219  -0.405   1.708  0.0094  0.3775 -0.3848
  592MOL0     C79794   5.161  -0.513   1.629 -1.0168 -0.1478  0.6759
  592MOL0     C79795   5.279  -0.585   1.551  0.2278  0.2268 -0.3020
  592MOL0     C79796   5.227  -0.646   1.420  0.3906 -0.4892 -0.1261
  592MOL0     C79797   5.324  -0.728   1.337  0.4004 -0.2763  0.3323
  592MOL0     C79798   5.379  -0.865   1.398  0.3813  0.3380  0.1609
  592MOL0     C79799   5.447  -0.951   1.289  0.2811  0.1776 -0.1642
  592MOL0     C79800   5.572  -0.877   1.224  0.4213  1.0992  0.5448
  592MOL0     C79801   5.622  -0.940   1.097  0.1002  0.7272  0.6579
  592MOL0     N79802   5.658  -1.076   1.136 -0.3383 -0.0241 -0.1620
  592MOL0     C79803   5.573  -1.181   1.144  0.2450 -0.0532 -1.1900
  592MOL0     C79804   5.640  -1.278   1.210 -0.7401 -0.1288  0.3557
  592MOL0     C79805   5.607  -1.416   1.261  1.0305  0.3805 -0.1525
  592MOL0     C79806   5.483  -1.496   1.207 -1.0517  0.1728  0.0825
  592MOL0     C79807   5.344  -1.416   1.240 -0.4081  0.4610  0.4680
  592MOL0     C79808   5.245  -1.478   1.151 -0.2954  0.6308 -0.3587
  592MOL0     O79809   5.111  -1.420   1.164  0.6660 -0.3834  0.4502
  592MOL0     C79810   5.040  -1.466   1.277  1.2446 -0.2987 -0.6257
  592MOL0     C79811   5.066  -1.427   1.411 -0.1425 -0.7056  0.3417
  592MOL0     C79812   4.986  -1.471   1.522 -0.4232 -0.9317  1.1392
  592MOL0     C79813   4.884  -1.569   1.505 -0.9317 -0.7604 -0.3993
  592MOL0     C79814   4.793  -1.612   1.610 -0.1951  0.5512  0.0544
  592MOL0     O79815   4.672  -1.663   1.575  0.2169  0.5209  0.8881
  592MOL0     C79816   4.577  -1.692   1.670 -0.4163  0.2107 -0.0823
  592MOL0     C79817   4.447  -1.643   1.652 -1.3297 -0.4635  0.5363
  592MOL0     C79818   4.351  -1.656   1.741 -1.1292 -0.2826  0.4009
  592MOL0     C79819   4.381  -1.703   1.872  0.1687 -0.7455 -0.6774
  592MOL0     O79820   4.271  -1.718   1.949  0.4045  0.6617 -0.5270
  592MOL0     C79821   4.272  -1.799   2.068  0.4158 -0.8583  0.3750
  592MOL0     C79822   4.134  -1.792   2.142  0.3491 -0.1144 -0.5680
  592MOL0     C79823   4.098  -1.639   2.169 -1.2475  0.0752 -0.8714
  592MOL0     C79824   3.998  -1.629   2.283 -0.7026 -0.2809  0.3485
  592MOL0     C79825   3.976  -1.473   2.303  0.8030 -0.7295 -0.0102
  592MOL0     C79826   3.889  -1.440   2.418  0.0086  0.5468 -0.6408
  592MOL0     C79827   3.903  -1.298   2.437  0.1449 -1.0996  0.2085
  592MOL0     C79828   3.805  -1.252   2.543  0.0160  0.6469 -0.3267
  592MOL0    Cl79829   3.758  -1.090   2.503 -0.0141 -0.1124 -0.0947
  592MOL0     C79830   4.511  -1.754   1.899  0.4852  0.3292 -0.2705
  592MOL0     C79831   4.606  -1.753   1.797 -0.9075  0.2754 -0.1553
  592MOL0     O79832   4.827  -1.599   1.725 -0.4892 -1.1947  0.2122
  592MOL0     C79833   4.866  -1.614   1.375  0.2812  0.7125 -0.1288
  592MOL0     C79834   4.936  -1.563   1.268 -0.1291 -0.8781  0.7941
  592MOL0     N79835   5.766  -1.227   1.236  0.1871 -0.4120 -0.4354
  592MOL0     N79836   5.771  -1.111   1.198 -0.1975  0.3791  0.5106
  592MOL0     C79837   5.171  -0.260   1.897  0.0778 -0.5592  0.5816
  592MOL0     C79838   5.087  -0.182   1.970 -0.1145 -0.8129 -0.0358
  592MOL0     C79839   4.701   0.062   2.066 -0.4330  0.5213  0.0678
  592MOL0     C79840   4.603  -0.035   2.086  0.0205  0.6441 -0.2463
  592MOL0     C79841   4.498  -0.021   2.177  0.0431 -0.2667 -0.9607
  592MOL0     C79842   4.482   0.100   2.246  0.9111 -0.1180  0.9849
  592MOL0     O79843   4.381   0.098   2.331 -0.1133 -0.0130 -0.0259
  592MOL0     C79844   4.396   0.185   2.446  0.6879  0.7329  0.5922
  592MOL0     C79845   4.258   0.209   2.497 -0.0940  0.0019  0.3943
  592MOL0     C79846   4.204   0.080   2.565  0.4696  0.2214 -0.0999
  592MOL0     C79847   4.075   0.118   2.639 -0.1961 -0.4431  0.1311
  592MOL0     C79848   4.093   0.181   2.774 -0.7584  0.0776 -0.5382
  592MOL0     C79849   4.104   0.232   2.882  1.3488  0.2057 -0.9456
  592MOL0     C79850   4.577   0.201   2.231 -0.5682 -0.4659  0.8049
  592MOL0     C79851   4.684   0.184   2.135 -0.2173  1.2135  0.6578
  592MOL0     C79852   4.775   0.296   2.110 -0.5071 -0.5048 -0.0103
  592MOL0     H79853   4.805  -0.209   1.787 -1.1295 -2.3604  0.5670
  592MOL0     H79854   4.946  -0.338   1.653 -0.8618 -0.5999 -0.1447
  592MOL0     H79855   5.105  -0.588   1.687 -1.7438 -0.2264 -0.1145
  592MOL0     H79856   5.096  -0.468   1.554  0.4028  1.0452  0.1089
  592MOL0     H79857   5.324  -0.659   1.619  0.4384  1.1535  0.5843
  592MOL0     H79858   5.359  -0.513   1.535  0.2019  0.1432 -0.8255
  592MOL0     H79859   5.189  -0.562   1.362  1.4186  0.6480  0.7724
  592MOL0     H79860   5.138  -0.708   1.437 -0.4061  0.5941 -0.2301
  592MOL0     H79861   5.287  -0.736   1.234  0.4846 -2.0783  0.4146
  592MOL0     H79862   5.414  -0.667   1.330 -0.8061  1.4474 -2.1836
  592MOL0     H79863   5.454  -0.847   1.475 -1.0696 -0.1010  1.7461
  592MOL0     H79864   5.290  -0.913   1.440 -0.1093 -0.3656 -1.6159
  592MOL0     H79865   5.471  -1.047   1.336  1.9795  1.0237  0.7852
  592MOL0     H79866   5.380  -0.973   1.206  0.1102  1.2855 -0.3321
  592MOL0     H79867   5.652  -0.862   1.296  0.0471 -0.4215  1.2959
  592MOL0     H79868   5.533  -0.777   1.201  3.2909  2.7344  2.2166
  592MOL0     H79869   5.541  -0.939   1.022  1.1329  0.5549 -0.4881
  592MOL0     H79870   5.714  -0.892   1.064  0.7314 -1.3119 -0.7277
  592MOL0     H79871   5.467  -1.182   1.118  0.0508  1.5553 -0.5737
  592MOL0     H79872   5.699  -1.471   1.237  0.1799 -1.1864  0.0395
  592MOL0     H79873   5.595  -1.416   1.369 -1.8077  2.5891 -0.3677
  592MOL0     H79874   5.502  -1.505   1.100 -0.8999  1.5772 -0.0153
  592MOL0     H79875   5.487  -1.599   1.246  0.0511  0.6404  1.2511
  592MOL0     H79876   5.350  -1.308   1.220  1.0903  0.3792  0.2965
  592MOL0     H79877   5.334  -1.436   1.347  2.9681 -0.8648  0.6830
  592MOL0     H79878   5.250  -1.587   1.158  0.0359  0.3576 -3.4325
  592MOL0     H79879   5.273  -1.448   1.050 -0.8895  2.6307  0.0205
  592MOL0     H79880   5.139  -1.348   1.421 -1.7409  0.7951  0.5706
  592MOL0     H79881   4.993  -1.425   1.620 -1.0581  1.0178  0.3214
  592MOL0     H79882   4.453  -1.576   1.567  0.6203 -0.4166  0.6717
  592MOL0     H79883   4.257  -1.606   1.721 -0.3588  1.2571  0.4699
  592MOL0     H79884   4.295  -1.904   2.046  1.0502 -0.2685 -2.0423
  592MOL0     H79885   4.348  -1.752   2.131  0.1829  1.6793 -1.1343
  592MOL0     H79886   4.049  -1.847   2.101 -0.6042 -1.6276  3.0510
  592MOL0     H79887   4.146  -1.840   2.239  1.0142  1.1434 -0.0089
  592MOL0     H79888   4.194  -1.595   2.197 -0.2867 -0.9246 -2.4518
  592MOL0     H79889   4.058  -1.581   2.085 -2.1496  3.0529  1.4293
  592MOL0     H79890   4.031  -1.681   2.373  0.0378 -2.5155 -1.1492
  592MOL0     H79891   3.905  -1.678   2.252 -1.5456 -1.0074  3.5963
  592MOL0     H79892   3.941  -1.424   2.212 -1.2691  0.0954  1.1635
  592MOL0     H79893   4.069  -1.424   2.333 -0.6461  1.7214  0.8509
  592MOL0     H79894   3.783  -1.460   2.398 -1.1341  2.0441  3.1386
  592MOL0     H79895   3.916  -1.499   2.506 -2.9573  0.2675  0.1784
  592MOL0     H79896   3.884  -1.247   2.342  0.0773  1.0319  1.3017
  592MOL0     H79897   3.999  -1.261   2.474  0.0057 -1.2289  0.7031
  592MOL0     H79898   3.710  -1.307   2.546  0.1472  0.4156 -0.3883
  592MOL0     H79899   3.857  -1.245   2.639  3.4953  0.7008 -2.0505
  592MOL0     H79900   4.536  -1.794   1.997  0.7012  1.2338  0.0570
  592MOL0     H79901   4.707  -1.791   1.807 -1.7026 -1.5210  1.6955
  592MOL0     H79902   4.781  -1.677   1.351  0.7725  0.2127 -0.5609
  592MOL0     H79903   4.924  -1.599   1.166  6.7105  1.8689 -1.5342
  592MOL0     H79904   5.273  -0.265   1.934 -0.5797 -2.8539  2.3660
  592MOL0     H79905   5.136  -0.138   2.056  2.7075 -2.8737 -0.4431
  592MOL0     H79906   4.622  -0.133   2.043  0.7352  0.1702  1.0797
  592MOL0     H79907   4.440  -0.106   2.212 -0.5552 -0.3557 -2.1112
  592MOL0     H79908   4.420   0.286   2.412 -1.4339  0.3921 -2.3034
  592MOL0     H79909   4.462   0.147   2.525 -2.8819 -3.0517  2.1148
  592MOL0     H79910   4.203   0.242   2.409  2.0841  2.4304 -0.1656
  592MOL0     H79911   4.260   0.293   2.568  2.1743  0.7275 -0.4431
  592MOL0     H79912   4.274   0.034   2.636 -1.3800 -1.4553  0.7334
  592MOL0     H79913   4.184   0.005   2.488  0.8133 -3.9596  3.4395
  592MOL0     H79914   4.026   0.190   2.572  3.0188  1.9403  0.0706
  592MOL0     H79915   4.010   0.032   2.651  1.7702 -2.4279 -2.2130
  592MOL0     H79916   4.100   0.280   2.978  2.1206 -0.3063 -0.6458
  592MOL0     H79917   4.563   0.300   2.274 -1.0300 -1.0996  2.1450
  592MOL0     H79918   4.787   0.311   2.002 -3.0404  0.1429 -0.2680
  592MOL0     H79919   4.730   0.388   2.148  0.6400 -1.0546  2.9866
  592MOL0     H79920   4.878   0.279   2.144 -0.4123 -4.2485 -1.6361
  593MOL0     O79921   7.288   3.867   9.027 -0.0759 -0.3393 -0.1368
  593MOL0     C79922   7.376   3.865   8.937 -0.6526  0.2178 -0.6641
  593MOL0     O79923   7.350   3.846   8.805 -0.4803 -0.9874 -0.5309
  593MOL0     C79924   7.222   3.824   8.767 -0.2340 -0.8144  0.3081
  593MOL0     C79925   7.163   3.698   8.773 -0.0841 -0.1868  0.2052
  593MOL0     C79926   7.043   3.671   8.708 -0.4338 -0.2532  0.4699
  593MOL0     C79927   6.966   3.772   8.651  0.4789 -0.3848 -0.8587
  593MOL0     O79928   6.837   3.761   8.616 -0.4053 -0.7959  0.2794
  593MOL0     C79929   6.784   3.629   8.596  0.2021 -0.0918  0.0086
  593MOL0     C79930   6.662   3.651   8.514  0.2582 -0.6166 -0.1556
  593MOL0     C79931   6.674   3.694   8.363  0.3804 -0.0388 -0.1293
  593MOL0     C79932   6.545   3.759   8.320 -0.2284 -0.2278  0.7421
  593MOL0     C79933   6.543   3.811   8.175 -0.1956 -0.3072  0.8352
  593MOL0     C79934   6.403   3.857   8.128  0.1194  0.8128  0.5603
  593MOL0     C79935   6.412   3.887   7.977  0.0944  0.0823  0.3143
  593MOL0     C79936   6.273   3.922   7.916 -0.6055  0.6976 -0.2465
  593MOL0     N79937   6.223   4.041   8.000 -0.6506  0.4420  0.7444
  593MOL0     C79938   6.106   4.055   8.065 -0.0205 -0.3687  0.9965
  593MOL0     C79939   6.106   4.171   8.132 -0.3140 -0.7076  0.0443
  593MOL0     C79940   5.983   4.217   8.214 -0.0605  0.8815  0.2366
  593MOL0     C79941   5.849   4.237   8.134 -0.7938  0.1361  0.5541
  593MOL0     C79942   5.802   4.373   8.158 -0.4317  0.1415  0.6262
  593MOL0     C79943   5.871   4.489   8.070  0.5618 -0.3873 -0.0566
  593MOL0     O79944   5.845   4.460   7.929 -0.7560  0.0083 -0.0033
  593MOL0     C79945   5.939   4.504   7.843  0.2484  0.7248 -0.8249
  593MOL0     C79946   5.893   4.494   7.711  0.0100 -0.3656 -0.1016
  593MOL0     C79947   5.981   4.542   7.609  0.0262 -0.0734  0.0379
  593MOL0     C79948   6.110   4.597   7.638 -0.2250  0.5842 -0.0101
  593MOL0     C79949   6.202   4.640   7.527  0.9194  0.0917 -0.0795
  593MOL0     O79950   6.259   4.769   7.549  0.4132  0.0458 -1.2744
  593MOL0     C79951   6.325   4.849   7.450  1.0767 -0.0462  0.7627
  593MOL0     C79952   6.362   4.973   7.495  1.2263  0.1406  0.1526
  593MOL0     C79953   6.433   5.063   7.412  0.7301  0.7598 -0.4797
  593MOL0     C79954   6.459   5.024   7.284 -0.6201  0.3950  0.1151
  593MOL0     O79955   6.523   5.108   7.201 -0.1893 -0.0004 -0.2715
  593MOL0     C79956   6.474   5.120   7.071  0.2020 -0.5772 -0.7080
  593MOL0     C79957   6.478   5.275   7.050  0.0872  0.1519 -0.0510
  593MOL0     C79958   6.473   5.314   6.910 -0.6031 -0.2251  0.2151
  593MOL0     C79959   6.341   5.280   6.839  0.4852 -0.2452  0.3678
  593MOL0     C79960   6.323   5.280   6.689  0.1374  0.6258  1.1090
  593MOL0     C79961   6.357   5.412   6.623  0.4486 -0.6434  0.0242
  593MOL0     C79962   6.270   5.443   6.500 -0.4065  0.5108  0.9319
  593MOL0     C79963   6.327   5.549   6.400  0.3522 -0.0697  0.5832
  593MOL0    Cl79964   6.446   5.495   6.281  0.5300 -0.0037 -0.2906
  593MOL0     C79965   6.425   4.896   7.233  0.3152  0.3715 -0.7807
  593MOL0     C79966   6.360   4.810   7.327  0.2156  0.3894  0.8364
  593MOL0     O79967   6.200   4.574   7.426  0.3345 -0.8472 -0.0353
  593MOL0     C79968   6.135   4.627   7.774  0.5303  1.2426 -0.3766
  593MOL0     C79969   6.047   4.581   7.867  0.2390  0.5020 -0.1601
  593MOL0     N79970   6.233   4.223   8.114 -0.0135  0.8769  0.3415
  593MOL0     N79971   6.298   4.152   8.020 -0.2777  0.5461 -0.7066
  593MOL0     C79972   7.031   3.892   8.629 -0.3477 -0.1722 -0.2626
  593MOL0     C79973   7.156   3.918   8.688  0.4995  0.1698 -0.4031
  593MOL0     C79974   7.518   3.880   8.983  0.8356  0.2147 -0.2991
  593MOL0     C79975   7.546   3.822   9.108  0.2283  0.2772 -0.5479
  593MOL0     C79976   7.677   3.790   9.141  0.6308  0.2587 -0.5389
  593MOL0     C79977   7.782   3.814   9.048 -0.5225 -0.2761  0.2189
  593MOL0     O79978   7.908   3.801   9.099 -0.3482 -0.5678 -0.2618
  593MOL0     C79979   8.012   3.777   9.010 -0.0817 -0.1242 -0.5591
  593MOL0     C79980   8.006   3.649   8.928 -0.0954  0.3328 -0.1286
  593MOL0     C79981   8.008   3.524   9.018  0.5782  0.6174  0.0029
  593MOL0     C79982   7.936   3.393   8.967 -0.6210 -0.4296  0.5552
  593MOL0     C79983   7.792   3.399   8.953 -0.1751  0.6496 -0.1994
  593MOL0     C79984   7.674   3.383   8.930 -0.1796  0.6649 -0.5830
  593MOL0     C79985   7.759   3.877   8.921 -0.0737 -0.6777 -0.2791
  593MOL0     C79986   7.624   3.902   8.897 -0.6168  0.2266 -0.2584
  593MOL0     C79987   7.589   3.964   8.766 -0.1497 -0.1977 -0.3529
  593MOL0     H79988   7.214   3.622   8.832  2.2618  1.9294  1.0495
  593MOL0     H79989   6.995   3.574   8.709 -0.2096 -0.3610  0.7164
  593MOL0     H79990   6.849   3.558   8.543 -0.5864 -1.4830  0.8488
  593MOL0     H79991   6.764   3.578   8.690 -1.0374  0.9683  0.3508
  593MOL0     H79992   6.611   3.731   8.568  1.1977 -1.0782  1.4891
  593MOL0     H79993   6.600   3.561   8.509 -0.7422  0.0686 -0.3613
  593MOL0     H79994   6.678   3.603   8.302  0.4088  0.8443 -1.4850
  593MOL0     H79995   6.766   3.751   8.347  1.7763 -1.7422  1.4548
  593MOL0     H79996   6.466   3.689   8.348  2.9329 -2.3617  5.6279
  593MOL0     H79997   6.519   3.838   8.391  1.7660  0.3188  0.9256
  593MOL0     H79998   6.614   3.893   8.159  0.4750 -1.0076  0.1520
  593MOL0     H79999   6.573   3.732   8.107 -4.2907  0.5935 -2.4090
  593MOL0     H80000   6.334   3.779   8.164 -0.2275  0.7141 -0.2910
  593MOL0     H80001   6.381   3.948   8.183  2.2762  0.5347  2.0100
  593MOL0     H80002   6.457   3.811   7.913  4.1879  4.4039 -2.5540
  593MOL0     H80003   6.474   3.977   7.977 -0.7353  0.6724  0.7122
  593MOL0     H80004   6.288   3.948   7.810 -2.1992  2.3529 -0.1215
  593MOL0     H80005   6.205   3.838   7.936 -0.4746  0.8671  0.9430
  593MOL0     H80006   6.017   3.994   8.070  0.8491 -1.7793 -0.2509
  593MOL0     H80007   5.963   4.135   8.283  0.4826 -0.1557 -0.7896
  593MOL0     H80008   5.997   4.305   8.276 -1.8188  0.0644  1.8833
  593MOL0     H80009   5.858   4.215   8.027 -0.6282  0.9796  0.3794
  593MOL0     H80010   5.785   4.157   8.172  0.4807 -0.5832  1.2759
  593MOL0     H80011   5.825   4.395   8.263  0.0419 -1.3499  0.8591
  593MOL0     H80012   5.693   4.383   8.158 -0.4072  0.6702  2.0270
  593MOL0     H80013   5.977   4.479   8.092  1.1578  3.0868 -0.7462
  593MOL0     H80014   5.837   4.582   8.116  1.2917 -0.0422 -0.2009
  593MOL0     H80015   5.796   4.450   7.692 -0.2670  0.5310 -0.8558
  593MOL0     H80016   5.944   4.542   7.507 -1.4327  3.1082  0.4500
  593MOL0     H80017   6.327   4.995   7.595 -1.7569 -0.4157 -0.6770
  593MOL0     H80018   6.473   5.156   7.451 -0.2672  0.0339  2.5047
  593MOL0     H80019   6.543   5.078   6.996  2.5604  1.4273  0.1948
  593MOL0     H80020   6.376   5.073   7.056  0.0582 -0.1590 -1.1185
  593MOL0     H80021   6.404   5.337   7.102 -0.9308 -0.0917 -1.1618
  593MOL0     H80022   6.575   5.307   7.091 -0.2021 -0.6279  1.2947
  593MOL0     H80023   6.497   5.421   6.911 -0.4478 -0.2457  1.8807
  593MOL0     H80024   6.560   5.269   6.859  1.8351  1.2639  2.7731
  593MOL0     H80025   6.262   5.339   6.885  1.1405 -0.9677  2.5701
  593MOL0     H80026   6.315   5.177   6.866 -2.4737  0.2276 -0.3106
  593MOL0     H80027   6.219   5.249   6.676  0.7557 -1.9705  1.7519
  593MOL0     H80028   6.393   5.207   6.647  1.5071  2.1894  0.5695
  593MOL0     H80029   6.322   5.499   6.679 -0.3771  0.0617 -1.5319
  593MOL0     H80030   6.464   5.421   6.602  1.0786  0.5905  3.1648
  593MOL0     H80031   6.171   5.474   6.535 -0.6107 -0.3774  1.1565
  593MOL0     H80032   6.258   5.349   6.446 -3.0058  0.3101  1.7169
  593MOL0     H80033   6.248   5.594   6.340 -0.3702  0.9243  2.2478
  593MOL0     H80034   6.365   5.629   6.464 -0.3211  2.3057 -1.8078
  593MOL0     H80035   6.446   4.867   7.130 -2.7258 -2.6911 -0.7281
  593MOL0     H80036   6.328   4.711   7.296  3.3311 -1.1205  2.0672
  593MOL0     H80037   6.225   4.676   7.810  1.7668 -1.1445 -0.0061
  593MOL0     H80038   6.075   4.609   7.968  1.1403 -0.3145 -0.1638
  593MOL0     H80039   6.980   3.957   8.559  0.4795 -0.9723 -1.6724
  593MOL0     H80040   7.201   4.016   8.680 -2.2184  1.3572 -3.2897
  593MOL0     H80041   7.472   3.791   9.181 -0.3597 -0.6740 -1.5163
  593MOL0     H80042   7.696   3.745   9.238  0.3820 -0.2527 -0.7240
  593MOL0     H80043   8.099   3.772   9.077 -0.6353 -1.1256  0.1117
  593MOL0     H80044   8.024   3.859   8.939 -0.7622  0.3939 -0.0958
  593MOL0     H80045   8.088   3.642   8.856 -2.5660 -3.3638 -2.9742
  593MOL0     H80046   7.919   3.656   8.860 -0.4497  0.9389  0.3688
  593MOL0     H80047   7.949   3.547   9.107  0.3520 -1.0254  0.3133
  593MOL0     H80048   8.111   3.501   9.044  1.1629 -1.1707 -3.3400
  593MOL0     H80049   7.979   3.373   8.868 -0.8722  1.7232 -0.0422
  593MOL0     H80050   7.960   3.320   9.046  0.0720  4.7219  5.7954
  593MOL0     H80051   7.568   3.373   8.916 -0.0157 -2.7054 -0.3542
  593MOL0     H80052   7.833   3.900   8.845 -1.4802  2.6235 -0.8598
  593MOL0     H80053   7.681   4.012   8.731 -1.0588  1.5675 -0.4287
  593MOL0     H80054   7.549   3.897   8.689 -3.0641  0.9671  0.0345
  593MOL0     H80055   7.526   4.050   8.788 -0.5934  0.2559 -3.0297
  594MOL0     O80056   8.450   4.516   8.509  0.3621  0.6968 -0.0627
  594MOL0     C80057   8.439   4.437   8.608  1.2886 -0.2514 -0.4250
  594MOL0     O80058   8.320   4.375   8.640  0.8930 -0.0278 -0.3844
  594MOL0     C80059   8.201   4.393   8.575 -1.1831 -0.3357  0.7616
  594MOL0     C80060   8.086   4.401   8.652  0.5100 -0.0725 -0.0346
  594MOL0     C80061   7.967   4.406   8.587 -0.8768 -1.3225  0.0681
  594MOL0     C80062   7.955   4.396   8.447  0.6875 -0.0970 -0.8871
  594MOL0     O80063   7.829   4.409   8.395  0.4000 -0.0126  0.3598
  594MOL0     C80064   7.804   4.425   8.250  0.7183 -0.4251 -0.0327
  594MOL0     C80065   7.660   4.402   8.200  0.3794 -0.5088 -0.2030
  594MOL0     C80066   7.580   4.532   8.222 -0.0802  0.9119 -0.8685
  594MOL0     C80067   7.449   4.487   8.300 -0.8448  0.6237 -0.7248
  594MOL0     C80068   7.358   4.606   8.305  0.7185 -0.4109  0.4030
  594MOL0     C80069   7.219   4.571   8.377  0.4548 -0.4054  0.2145
  594MOL0     C80070   7.098   4.651   8.323 -0.3924  0.0347 -0.1073
  594MOL0     C80071   7.102   4.804   8.340 -0.5337 -0.3804  0.1850
  594MOL0     N80072   7.092   4.861   8.480 -0.6106 -0.4898  0.3562
  594MOL0     C80073   7.197   4.903   8.558  0.0530  1.1465  0.0528
  594MOL0     C80074   7.141   4.949   8.677  0.3967  0.4189 -0.1036
  594MOL0     C80075   7.217   5.037   8.766  0.4640  0.3222 -0.6553
  594MOL0     C80076   7.137   5.089   8.895  0.3997  0.4621  0.1288
  594MOL0     C80077   7.023   5.189   8.864 -0.6135 -0.0938 -0.3264
  594MOL0     C80078   6.939   5.222   8.981 -0.0008 -0.1716 -0.1295
  594MOL0     O80079   7.012   5.278   9.096  0.2860 -0.0770  0.4736
  594MOL0     C80080   6.945   5.326   9.209 -0.0213  0.2596  0.0277
  594MOL0     C80081   6.806   5.336   9.222 -0.5764 -0.1875 -0.0947
  594MOL0     C80082   6.745   5.398   9.334  0.0690 -0.1365 -0.0868
  594MOL0     C80083   6.830   5.442   9.441 -0.9767 -0.6418 -0.0319
  594MOL0     C80084   6.762   5.503   9.554 -0.0829  0.5832 -1.1919
  594MOL0     O80085   6.843   5.547   9.656  0.3463  0.4070  0.2255
  594MOL0     C80086   6.788   5.609   9.763 -0.3242 -1.1523 -0.0547
  594MOL0     C80087   6.663   5.601   9.823 -0.0475 -0.1167 -1.1530
  594MOL0     C80088   6.630   5.652   9.948 -0.7329 -0.4456  0.5516
  594MOL0     C80089   6.735   5.701  10.032 -0.1318 -0.1414  0.5616
  594MOL0     O80090   6.719   5.754  10.163 -0.4561 -0.0673  0.1763
  594MOL0     C80091   6.587   5.778  10.201 -1.3704 -0.1266 -0.1139
  594MOL0     C80092   6.598   5.831  10.343  0.9824 -0.3153 -0.6929
  594MOL0     C80093   6.692   5.962  10.353  0.1301 -0.7801 -1.1478
  594MOL0     C80094   6.716   5.994  10.503 -1.2254  0.3961  0.2478
  594MOL0     C80095   6.639   6.117  10.538 -0.3109  0.1530  0.3468
  594MOL0     C80096   6.657   6.181  10.671  0.0611 -0.7028 -0.7382
  594MOL0     C80097   6.637   6.330  10.679  0.2053  0.1026  0.2708
  594MOL0     C80098   6.501   6.376  10.731  0.3882  0.7348 -0.1320
  594MOL0    Cl80099   6.371   6.305  10.650  0.0892 -0.3641 -0.2873
  594MOL0     C80100   6.865   5.706   9.983 -0.1038  0.9775 -1.1025
  594MOL0     C80101   6.885   5.674   9.848 -0.1900  0.2767 -0.5625
  594MOL0     O80102   6.641   5.519   9.555  0.1494  0.4476  0.1754
  594MOL0     C80103   6.973   5.447   9.413  0.5167 -0.5334  0.5782
  594MOL0     C80104   7.023   5.395   9.299 -0.4490  0.4565  0.1497
  594MOL0     N80105   7.009   4.913   8.668 -0.6736 -0.1730  0.6209
  594MOL0     N80106   6.984   4.861   8.551 -0.2436 -0.9190 -0.8033
  594MOL0     C80107   8.068   4.374   8.373  0.7750  0.2577 -0.3887
  594MOL0     C80108   8.194   4.369   8.444 -0.7708  0.5866  0.4013
  594MOL0     C80109   8.560   4.399   8.694 -0.2287 -0.4224  0.6979
  594MOL0     C80110   8.542   4.289   8.778 -0.3291  0.2361  0.4007
  594MOL0     C80111   8.660   4.234   8.848 -0.8265  0.1960  0.1553
  594MOL0     C80112   8.788   4.298   8.832  0.2216  0.1373 -0.3610
  594MOL0     O80113   8.902   4.256   8.904 -0.8176  0.2702  0.6756
  594MOL0     C80114   8.889   4.299   9.044  0.0689 -0.1485  0.2145
  594MOL0     C80115   8.888   4.186   9.140  0.2076  0.1813 -0.2182
  594MOL0     C80116   9.034   4.178   9.205  0.6204  0.8323  0.2622
  594MOL0     C80117   9.099   4.046   9.207  0.2651  0.2920 -0.3386
  594MOL0     C80118   9.131   3.984   9.080  0.0497  0.1477  0.4566
  594MOL0     C80119   9.159   3.925   8.975 -0.1860  0.8670 -0.2490
  594MOL0     C80120   8.800   4.412   8.752 -0.1402  1.1578 -0.8404
  594MOL0     C80121   8.691   4.468   8.690  0.1912 -0.7038 -0.4157
  594MOL0     C80122   8.724   4.609   8.632  0.3169  0.4735 -0.0942
  594MOL0     H80123   8.100   4.405   8.760  1.9369  1.4073 -0.2292
  594MOL0     H80124   7.878   4.422   8.647 -0.3423  1.7156  0.2204
  594MOL0     H80125   7.844   4.523   8.223  3.1187 -1.5114 -0.7330
  594MOL0     H80126   7.851   4.342   8.196 -0.4744 -0.7859 -0.5492
  594MOL0     H80127   7.623   4.309   8.243  4.8995 -2.5481 -0.2004
  594MOL0     H80128   7.673   4.398   8.091 -0.0091  2.1625 -0.4317
  594MOL0     H80129   7.526   4.570   8.135  0.2892 -0.7721 -1.8883
  594MOL0     H80130   7.634   4.605   8.283  0.0641 -0.0344  0.1802
  594MOL0     H80131   7.400   4.400   8.254 -0.2809 -0.2243  0.2468
  594MOL0     H80132   7.482   4.436   8.391  0.0421 -5.2444 -3.8198
  594MOL0     H80133   7.408   4.687   8.359 -0.6628  3.0866 -3.0616
  594MOL0     H80134   7.338   4.636   8.201  0.8515  0.7655  0.7029
  594MOL0     H80135   7.193   4.465   8.363  2.3526 -1.2534  2.3547
  594MOL0     H80136   7.224   4.581   8.486 -1.0336 -1.6037  0.4314
  594MOL0     H80137   7.010   4.633   8.385 -1.1183  1.5263 -0.6438
  594MOL0     H80138   7.085   4.626   8.218  0.8967 -0.9193 -0.0670
  594MOL0     H80139   7.195   4.832   8.290 -1.1136 -1.1887 -1.4105
  594MOL0     H80140   7.019   4.844   8.282 -0.3750  0.5252  0.5639
  594MOL0     H80141   7.297   4.923   8.520 -1.5848  4.1289 -3.3121
  594MOL0     H80142   7.293   4.966   8.799 -0.2387 -0.7017 -1.1615
  594MOL0     H80143   7.270   5.115   8.712 -1.8424  1.6046 -1.2112
  594MOL0     H80144   7.088   5.015   8.959  0.2253  2.8715  3.0753
  594MOL0     H80145   7.212   5.134   8.961  2.5584 -0.9056 -1.2859
  594MOL0     H80146   6.955   5.140   8.793 -1.7473 -0.6370  1.0900
  594MOL0     H80147   7.054   5.290   8.836  0.8039  0.2999  2.3867
  594MOL0     H80148   6.885   5.134   9.016 -1.0853  1.1694  1.7888
  594MOL0     H80149   6.860   5.295   8.962  2.9821  4.0239  1.8255
  594MOL0     H80150   6.740   5.297   9.146 -2.7811  2.4814  0.3002
  594MOL0     H80151   6.637   5.407   9.330 -0.0452 -1.4594 -0.6296
  594MOL0     H80152   6.590   5.542   9.768 -1.2272 -0.2342  0.4706
  594MOL0     H80153   6.526   5.661   9.977 -0.6101  0.3081  0.7924
  594MOL0     H80154   6.547   5.860  10.140  2.7077  2.9976  0.9411
  594MOL0     H80155   6.537   5.681  10.207  1.7883 -1.9194 -0.4609
  594MOL0     H80156   6.498   5.857  10.379  1.0405 -1.8743  0.7016
  594MOL0     H80157   6.633   5.742  10.397 -1.1958 -0.0203  1.4090
  594MOL0     H80158   6.790   5.963  10.305  3.0078  1.4391  3.9427
  594MOL0     H80159   6.635   6.046  10.313  0.4396  0.3953  0.7243
  594MOL0     H80160   6.822   6.020  10.506 -0.1767 -2.7471 -2.8704
  594MOL0     H80161   6.699   5.923  10.584 -0.6601  1.0357  0.9398
  594MOL0     H80162   6.531   6.105  10.522  0.0463 -1.7840 -1.0268
  594MOL0     H80163   6.678   6.195  10.472  1.1548  0.0953  1.1144
  594MOL0     H80164   6.604   6.140  10.757  3.0053 -0.3261  1.3888
  594MOL0     H80165   6.757   6.158  10.709 -0.6757 -1.3640  0.8877
  594MOL0     H80166   6.653   6.384  10.586 -1.8635 -0.7199 -0.6298
  594MOL0     H80167   6.707   6.368  10.754  1.0926 -1.0126  0.0323
  594MOL0     H80168   6.483   6.355  10.837  3.2249  2.2068  0.7444
  594MOL0     H80169   6.494   6.485  10.735  3.2483  0.9739  0.5277
  594MOL0     H80170   6.946   5.741  10.046  0.3260 -1.7887  0.0606
  594MOL0     H80171   6.983   5.692   9.805 -0.1492  2.6696  0.3789
  594MOL0     H80172   7.043   5.500   9.476 -1.7868  5.0161 -0.8690
  594MOL0     H80173   7.130   5.413   9.300 -0.3646  0.0607  1.7790
  594MOL0     H80174   8.049   4.352   8.268  3.4496  0.0298 -0.9038
  594MOL0     H80175   8.280   4.346   8.381 -0.8172 -1.2946  0.9628
  594MOL0     H80176   8.452   4.233   8.797  0.5217 -0.5781  2.1992
  594MOL0     H80177   8.652   4.145   8.909  1.8260 -2.3782 -2.9146
  594MOL0     H80178   8.800   4.362   9.057 -1.5678 -2.0584 -1.1661
  594MOL0     H80179   8.966   4.375   9.061 -0.5389  1.3148 -2.8229
  594MOL0     H80180   8.867   4.093   9.087  0.8834  0.1299 -0.4086
  594MOL0     H80181   8.817   4.203   9.221  1.1745  1.3602  0.4300
  594MOL0     H80182   9.034   4.225   9.304  0.7865 -1.8385  1.6138
  594MOL0     H80183   9.109   4.235   9.150  0.2587  1.1370  0.0745
  594MOL0     H80184   9.194   4.052   9.262  0.8647 -0.9910 -1.1903
  594MOL0     H80185   9.026   3.986   9.262 -0.8336  0.5038 -1.5397
  594MOL0     H80186   9.188   3.888   8.879  3.6667  1.7173  0.4077
  594MOL0     H80187   8.892   4.469   8.754  0.8969 -0.4265 -1.2978
  594MOL0     H80188   8.737   4.672   8.720  0.2383 -0.3215  0.4935
  594MOL0     H80189   8.813   4.597   8.570 -0.5745  1.7135 -1.7156
  594MOL0     H80190   8.642   4.648   8.570 -0.0101 -0.6394 -0.3857
  595MOL0     O80191   0.206   5.890   2.913 -0.1594  0.1815  0.0804
  595MOL0     C80192   0.241   5.978   2.833 -0.3408  0.0574 -0.7931
  595MOL0     O80193   0.354   5.987   2.767 -0.6969  0.1180 -0.2697
  595MOL0     C80194   0.466   5.915   2.801 -0.6056 -0.4693  0.4715
  595MOL0     C80195   0.501   5.900   2.939 -0.1092 -0.1947 -0.0746
  595MOL0     C80196   0.620   5.832   2.971  0.6400  1.1448 -0.7471
  595MOL0     C80197   0.710   5.778   2.878  0.8065  1.0911  0.4571
  595MOL0     O80198   0.803   5.688   2.922  0.2789 -0.7994 -0.1700
  595MOL0     C80199   0.905   5.656   2.835 -0.8058 -0.3309 -0.3193
  595MOL0     C80200   1.014   5.578   2.903  0.6874  0.2963 -0.5351
  595MOL0     C80201   1.057   5.652   3.031  0.0283 -0.6604 -1.0687
  595MOL0     C80202   1.087   5.810   3.028 -0.0418  0.0846 -0.7515
  595MOL0     C80203   1.111   5.867   3.177  0.4744  0.8713  0.3638
  595MOL0     C80204   0.981   5.907   3.239  0.6933  0.5859  0.1016
  595MOL0     C80205   0.999   5.945   3.388 -0.8129 -0.5076  0.6179
  595MOL0     C80206   0.882   6.032   3.430  0.0134 -0.7182 -0.4544
  595MOL0     N80207   0.896   6.179   3.374  0.4252  0.8391  0.7952
  595MOL0     C80208   0.798   6.244   3.303  0.2742  0.6738  0.4219
  595MOL0     C80209   0.856   6.364   3.263 -0.2356  0.8784  0.0089
  595MOL0     C80210   0.783   6.484   3.203 -0.2307  1.3638  0.2834
  595MOL0     C80211   0.705   6.562   3.299  0.4068 -0.5547  0.0384
  595MOL0     C80212   0.631   6.680   3.224  0.1786  0.0847 -0.5830
  595MOL0     C80213   0.493   6.737   3.276 -0.3626 -0.3648 -0.4553
  595MOL0     O80214   0.520   6.767   3.415 -0.1601  0.9256 -0.2745
  595MOL0     C80215   0.420   6.820   3.492  0.6024 -0.1405 -0.3906
  595MOL0     C80216   0.458   6.839   3.623  0.4279  0.0185  0.6531
  595MOL0     C80217   0.366   6.888   3.716 -0.1714  0.4951 -0.3440
  595MOL0     C80218   0.241   6.936   3.676  1.2498  0.2191  0.3925
  595MOL0     C80219   0.146   7.003   3.780 -0.8930  0.4938  0.3435
  595MOL0     O80220   0.027   7.045   3.725 -0.4353  0.5745 -0.1766
  595MOL0     C80221  -0.060   7.106   3.806 -0.3712  0.5840  0.4392
  595MOL0     C80222  -0.187   7.046   3.803 -0.0872 -0.7500 -0.1780
  595MOL0     C80223  -0.292   7.088   3.878 -0.2170 -0.3920  0.6473
  595MOL0     C80224  -0.278   7.194   3.972  0.1242 -0.2449  0.3499
  595MOL0     O80225  -0.384   7.244   4.040  0.3860 -0.4564  0.3595
  595MOL0     C80226  -0.501   7.170   4.055  0.5375 -0.4211  0.4184
  595MOL0     C80227  -0.606   7.254   4.120  0.6476 -0.1342 -0.2406
  595MOL0     C80228  -0.664   7.359   4.030  0.4766 -0.3386 -0.5643
  595MOL0     C80229  -0.774   7.443   4.105  0.2465  0.6369 -0.1711
  595MOL0     C80230  -0.863   7.529   4.015 -0.1093  0.2565  0.2683
  595MOL0     C80231  -0.815   7.660   3.967  0.5360 -0.5725  0.5563
  595MOL0     C80232  -0.776   7.739   4.087 -0.0962 -0.2988 -0.0637
  595MOL0     C80233  -0.778   7.888   4.078 -0.7907  0.1603  0.4179
  595MOL0    Cl80234  -0.650   7.930   3.963 -0.2041 -0.3095 -0.1546
  595MOL0     C80235  -0.156   7.264   3.970  1.1636  0.1900 -1.1766
  595MOL0     C80236  -0.049   7.214   3.899 -0.5990 -0.0773  1.0981
  595MOL0     O80237   0.182   7.036   3.885 -0.0275  0.2669 -0.1244
  595MOL0     C80238   0.197   6.917   3.540  0.2472 -0.0614  0.0195
  595MOL0     C80239   0.288   6.858   3.449 -0.7680 -0.4111 -0.8208
  595MOL0     N80240   0.987   6.362   3.306  0.1097  0.1800  0.7948
  595MOL0     N80241   1.010   6.248   3.368  0.3580 -0.6559 -0.5356
  595MOL0     C80242   0.658   5.781   2.744 -0.8651 -0.3320 -0.4183
  595MOL0     C80243   0.558   5.859   2.701 -0.4020  1.0123  0.3963
  595MOL0     C80244   0.147   6.084   2.801  0.3768  0.4774 -0.2024
  595MOL0     C80245   0.169   6.164   2.693 -0.9071 -0.0589  0.3105
  595MOL0     C80246   0.082   6.263   2.640 -0.5287  0.5011 -0.0202
  595MOL0     C80247  -0.044   6.261   2.696  0.2927 -0.6211 -0.4089
  595MOL0     O80248  -0.158   6.338   2.658  0.5662  0.2933 -0.3139
  595MOL0     C80249  -0.151   6.424   2.536  0.6918 -0.0980  0.5686
  595MOL0     C80250  -0.165   6.335   2.407  0.6191  0.4109  0.2910
  595MOL0     C80251  -0.182   6.425   2.271 -0.3253  0.6232  0.2094
  595MOL0     C80252  -0.203   6.316   2.157 -0.6631  0.3585 -0.0450
  595MOL0     C80253  -0.195   6.375   2.021  0.3393  0.8104 -0.4998
  595MOL0     C80254  -0.191   6.418   1.906  0.1746 -0.0431  0.5855
  595MOL0     C80255  -0.064   6.193   2.818 -0.1569  0.3336  0.1934
  595MOL0     C80256   0.026   6.106   2.875 -0.2571 -1.0213  0.4721
  595MOL0     C80257  -0.012   6.046   3.007 -0.5348 -0.1929  0.5492
  595MOL0     H80258   0.432   5.925   3.019 -0.5677 -0.3035 -0.4338
  595MOL0     H80259   0.640   5.810   3.076 -2.0020  1.4354 -0.1035
  595MOL0     H80260   0.866   5.592   2.755 -0.2800 -2.0375  0.7343
  595MOL0     H80261   0.936   5.752   2.793 -1.5884  0.7060  1.3600
  595MOL0     H80262   1.101   5.576   2.837  0.5353 -4.1262 -0.8990
  595MOL0     H80263   0.995   5.473   2.924  1.1607  0.4076  0.5087
  595MOL0     H80264   1.143   5.598   3.073 -1.7285 -1.2051  2.1941
  595MOL0     H80265   0.984   5.631   3.110  4.6859 -2.4502  3.3629
  595MOL0     H80266   1.182   5.820   2.975  0.7208 -0.4258  0.4751
  595MOL0     H80267   1.006   5.856   2.970 -1.5096 -0.8787  0.4845
  595MOL0     H80268   1.169   5.804   3.246  2.6359  2.5705  0.2082
  595MOL0     H80269   1.180   5.951   3.165  2.6602 -0.7111  1.1195
  595MOL0     H80270   0.953   6.004   3.196  1.8144  0.9466  0.1728
  595MOL0     H80271   0.908   5.827   3.223  0.3111  1.2033 -1.4239
  595MOL0     H80272   1.090   6.005   3.399 -2.1224  1.8179 -0.4988
  595MOL0     H80273   0.998   5.857   3.454 -1.0499  1.9684  4.2151
  595MOL0     H80274   0.798   5.975   3.390  0.4786 -1.5609 -0.2412
  595MOL0     H80275   0.874   6.032   3.539 -0.5305  0.6722 -0.4758
  595MOL0     H80276   0.696   6.209   3.289 -0.0070  1.8600 -0.7018
  595MOL0     H80277   0.859   6.551   3.162  1.6340 -1.1044 -0.5344
  595MOL0     H80278   0.725   6.457   3.114 -0.6646  2.9498  0.0408
  595MOL0     H80279   0.628   6.491   3.332  1.4982 -2.6386 -1.6406
  595MOL0     H80280   0.754   6.600   3.389 -0.0354  0.6332 -0.1941
  595MOL0     H80281   0.620   6.660   3.117  0.7834  1.0400 -0.8394
  595MOL0     H80282   0.703   6.762   3.215  0.6336 -0.4609 -2.2985
  595MOL0     H80283   0.410   6.667   3.264 -0.5522 -0.0064 -1.2704
  595MOL0     H80284   0.468   6.824   3.216  3.1400  1.5713  0.5865
  595MOL0     H80285   0.554   6.792   3.641  0.6072 -1.1242 -2.6045
  595MOL0     H80286   0.398   6.884   3.819 -1.5525  1.8600  0.1786
  595MOL0     H80287  -0.192   6.959   3.738  1.3306  0.5404 -2.1063
  595MOL0     H80288  -0.385   7.032   3.871  0.5417 -1.6313  0.2811
  595MOL0     H80289  -0.542   7.141   3.958  0.2316 -2.4543  1.1104
  595MOL0     H80290  -0.480   7.080   4.112 -1.2998 -0.3045  1.3545
  595MOL0     H80291  -0.681   7.181   4.151  0.7859 -0.3075 -0.3101
  595MOL0     H80292  -0.555   7.287   4.211  1.9371 -3.8277  0.5418
  595MOL0     H80293  -0.578   7.423   4.010  2.2173 -1.4240  2.7590
  595MOL0     H80294  -0.708   7.311   3.942 -0.6156  1.1375 -0.8653
  595MOL0     H80295  -0.736   7.503   4.189 -0.0708  0.0972  0.3679
  595MOL0     H80296  -0.836   7.364   4.149  2.9720 -1.7209 -0.3182
  595MOL0     H80297  -0.964   7.536   4.057  0.0813  0.0999  0.7599
  595MOL0     H80298  -0.872   7.467   3.926  0.3622  4.1275 -2.7260
  595MOL0     H80299  -0.723   7.645   3.909  0.3427 -3.9212  0.8960
  595MOL0     H80300  -0.895   7.709   3.913  2.5401  0.3614 -1.7421
  595MOL0     H80301  -0.683   7.698   4.127 -0.9533 -0.9959  1.2941
  595MOL0     H80302  -0.851   7.724   4.165  0.5030  1.1036  0.8264
  595MOL0     H80303  -0.877   7.919   4.042 -0.5181 -2.2224 -2.7359
  595MOL0     H80304  -0.750   7.929   4.175 -1.6407  1.7319  0.0390
  595MOL0     H80305  -0.130   7.350   4.031 -1.5894  0.8390 -0.8179
  595MOL0     H80306   0.048   7.261   3.911 -0.7262  0.5807 -0.2363
  595MOL0     H80307   0.109   6.964   3.496 -0.8684 -0.3507  1.8501
  595MOL0     H80308   0.258   6.871   3.346  0.8401  5.7386 -0.9027
  595MOL0     H80309   0.715   5.724   2.671  1.5910  3.2107 -1.5450
  595MOL0     H80310   0.525   5.874   2.599 -1.4412  0.9934  0.7065
  595MOL0     H80311   0.256   6.155   2.629 -2.8691  0.2841 -2.6479
  595MOL0     H80312   0.121   6.333   2.568  0.0751  2.0051  1.7000
  595MOL0     H80313  -0.061   6.486   2.529  0.8798 -0.5407 -1.4866
  595MOL0     H80314  -0.231   6.498   2.544  1.8986  1.3264  0.0020
  595MOL0     H80315  -0.249   6.265   2.421  0.0016  1.0215 -0.2531
  595MOL0     H80316  -0.077   6.272   2.391  1.1686  1.3880 -0.6244
  595MOL0     H80317  -0.092   6.485   2.258  1.7648 -1.7440  2.5244
  595MOL0     H80318  -0.277   6.479   2.267 -1.1430 -0.4038  2.9669
  595MOL0     H80319  -0.112   6.254   2.158 -0.7716  0.2031  0.5108
  595MOL0     H80320  -0.292   6.254   2.167 -1.0238  0.9388  0.3761
  595MOL0     H80321  -0.217   6.465   1.813 -3.6347  1.6998  2.3223
  595MOL0     H80322  -0.167   6.189   2.852 -0.1331 -1.2989  0.1514
  595MOL0     H80323   0.076   6.028   3.068  2.0645  0.3804 -2.7585
  595MOL0     H80324  -0.066   6.118   3.069  2.1152  0.6454  2.0080
  595MOL0     H80325  -0.073   5.957   2.988  0.8385 -1.9395  3.4954
  596MOL0     O80326   0.796   6.502   8.488  0.3268  0.6675  1.1316
  596MOL0     C80327   0.863   6.424   8.555 -0.7056  0.7332 -0.6430
  596MOL0     O80328   0.943   6.320   8.509 -0.2173 -0.0612 -0.4751
  596MOL0     C80329   0.928   6.281   8.378  0.5563  0.7160  0.0679
  596MOL0     C80330   0.918   6.136   8.352 -0.4401 -0.6631 -0.8019
  596MOL0     C80331   0.909   6.079   8.223  0.6725  0.4142  0.5461
  596MOL0     C80332   0.896   6.176   8.108  0.2464  0.1830 -0.1209
  596MOL0     O80333   0.881   6.144   7.973 -0.0505 -0.4456  0.4941
  596MOL0     C80334   0.911   6.011   7.926 -0.1384  0.5885  0.0761
  596MOL0     C80335   0.863   6.017   7.778 -0.4885 -0.5764 -0.2296
  596MOL0     C80336   0.913   6.146   7.709 -0.2524 -0.2265  0.6909
  596MOL0     C80337   0.890   6.143   7.558  0.7407  0.4400 -0.4595
  596MOL0     C80338   0.958   6.030   7.473 -0.0060  0.2945 -0.0694
  596MOL0     C80339   0.908   6.037   7.323 -0.5948 -0.4182  0.3895
  596MOL0     C80340   0.765   6.027   7.308  0.5256  0.8450  0.0096
  596MOL0     C80341   0.715   6.157   7.243  0.2486 -1.3416  0.1965
  596MOL0     N80342   0.564   6.170   7.243 -0.0745  0.3024  0.3200
  596MOL0     C80343   0.483   6.181   7.354  0.6675 -0.7749  0.2083
  596MOL0     C80344   0.356   6.187   7.309 -1.0701  0.1129 -0.8086
  596MOL0     C80345   0.236   6.180   7.388  0.5657 -0.4407 -0.8924
  596MOL0     C80346   0.150   6.314   7.382  0.0353 -0.3185  0.1071
  596MOL0     C80347   0.031   6.322   7.481  0.3698  0.6331  0.4487
  596MOL0     C80348  -0.079   6.218   7.452 -0.9114 -0.6967  0.1558
  596MOL0     O80349  -0.198   6.235   7.536  0.4186  0.2815 -0.1117
  596MOL0     C80350  -0.199   6.164   7.654 -0.0404 -0.4608  0.8334
  596MOL0     C80351  -0.192   6.220   7.778  0.3044 -0.2184 -0.8640
  596MOL0     C80352  -0.216   6.149   7.901 -0.8399  0.0951  0.6350
  596MOL0     C80353  -0.241   6.011   7.901 -0.1209  0.0132 -0.6216
  596MOL0     C80354  -0.273   5.936   8.026 -1.2230 -0.4717  0.5289
  596MOL0     O80355  -0.238   5.998   8.144  0.6412  0.2783 -0.3887
  596MOL0     C80356  -0.276   5.952   8.267  0.2411 -0.4291  0.7597
  596MOL0     C80357  -0.380   5.866   8.314 -0.0494  0.2735  0.3585
  596MOL0     C80358  -0.392   5.845   8.454 -0.3586 -0.7250 -0.7432
  596MOL0     C80359  -0.317   5.909   8.544 -0.3217 -0.6969  0.0000
  596MOL0     O80360  -0.327   5.891   8.685 -0.6870 -0.2166  0.3332
  596MOL0     C80361  -0.404   5.786   8.745  0.2080  0.2730 -0.4352
  596MOL0     C80362  -0.386   5.789   8.899  0.0293  0.0225  0.3192
  596MOL0     C80363  -0.243   5.762   8.946 -0.4039  0.5169  1.2859
  596MOL0     C80364  -0.195   5.627   8.910  0.1682  0.3842 -1.5909
  596MOL0     C80365  -0.068   5.582   8.984 -0.9797  0.6566 -0.2860
  596MOL0     C80366   0.079   5.640   8.946 -0.1270  0.1871  1.0353
  596MOL0     C80367   0.191   5.569   9.017 -0.1804  0.1993 -0.0277
  596MOL0     C80368   0.318   5.655   9.019  0.1096 -0.0687 -0.9994
  596MOL0    Cl80369   0.441   5.592   9.129 -0.1587  0.0953 -0.3979
  596MOL0     C80370  -0.216   5.988   8.497 -0.1564 -0.8250  0.9347
  596MOL0     C80371  -0.198   6.014   8.365 -0.0654 -0.1085  0.3351
  596MOL0     O80372  -0.325   5.828   8.012 -0.0785  0.0531  0.6023
  596MOL0     C80373  -0.236   5.950   7.771 -0.0854  0.7219 -0.2330
  596MOL0     C80374  -0.226   6.029   7.652  0.0296 -0.3244 -0.5545
  596MOL0     N80375   0.364   6.177   7.174 -0.4843 -0.3164  0.8257
  596MOL0     N80376   0.485   6.172   7.131  0.5936 -0.2546 -0.6881
  596MOL0     C80377   0.900   6.313   8.132 -0.1140 -0.1979  0.0202
  596MOL0     C80378   0.925   6.363   8.262 -0.5866  1.1755 -0.0793
  596MOL0     C80379   0.894   6.462   8.691 -0.4215  1.1644  0.8329
  596MOL0     C80380   1.015   6.402   8.745 -0.4107  0.2111 -0.0010
  596MOL0     C80381   1.068   6.437   8.867 -0.3551 -0.8739 -0.7160
  596MOL0     C80382   0.998   6.528   8.943 -0.1325  0.4439  0.3708
  596MOL0     O80383   1.057   6.547   9.072  0.7368 -0.5689  0.6444
  596MOL0     C80384   0.980   6.634   9.159  0.4266 -0.2152  0.6238
  596MOL0     C80385   1.004   6.780   9.120 -0.2195 -0.2781  0.7284
  596MOL0     C80386   1.159   6.815   9.136 -1.1905  0.3687  0.3707
  596MOL0     C80387   1.172   6.970   9.129  0.6745 -0.6508 -0.0754
  596MOL0     C80388   1.318   7.003   9.137  0.0467  0.1153 -0.3411
  596MOL0     C80389   1.429   7.048   9.117  0.4101 -0.3409  0.0100
  596MOL0     C80390   0.870   6.578   8.905 -0.4950  0.1177  0.9087
  596MOL0     C80391   0.820   6.555   8.767 -0.8456  0.0873 -0.2188
  596MOL0     C80392   0.686   6.608   8.727  0.2758  0.1615  0.2109
  596MOL0     H80393   0.923   6.062   8.431 -2.0994 -0.9511 -0.9309
  596MOL0     H80394   0.920   5.971   8.209  3.9769  0.8869 -1.6543
  596MOL0     H80395   1.015   5.980   7.937 -0.3893 -0.0916  0.6247
  596MOL0     H80396   0.849   5.936   7.977 -1.4444 -0.3217 -2.6659
  596MOL0     H80397   0.754   6.017   7.782 -0.4850 -0.5328 -0.1384
  596MOL0     H80398   0.888   5.921   7.731 -0.3074 -0.7385  0.1849
  596MOL0     H80399   1.023   6.144   7.714 -0.0013 -2.2977 -2.5347
  596MOL0     H80400   0.865   6.233   7.755 -1.6017 -1.6139  2.0088
  596MOL0     H80401   0.781   6.130   7.556  1.0189 -3.1365 -0.5274
  596MOL0     H80402   0.934   6.237   7.524  1.5459  0.1258 -0.2923
  596MOL0     H80403   1.066   6.044   7.475  0.0123  0.2091 -0.5056
  596MOL0     H80404   0.933   5.934   7.518 -3.4343  1.5959  1.1889
  596MOL0     H80405   0.952   6.131   7.287 -1.5044 -0.8980 -2.1670
  596MOL0     H80406   0.953   5.968   7.252  0.8008  3.7285 -3.2037
  596MOL0     H80407   0.718   5.986   7.398  3.2954 -0.6946  0.8641
  596MOL0     H80408   0.748   5.960   7.224  2.6969  1.7735 -1.2503
  596MOL0     H80409   0.756   6.233   7.310 -1.8517 -1.4854  1.7260
  596MOL0     H80410   0.759   6.165   7.143  1.8963  1.6419  1.0273
  596MOL0     H80411   0.507   6.187   7.460 -1.5086  0.6021  0.6841
  596MOL0     H80412   0.169   6.104   7.349 -2.2746  1.3252  0.2406
  596MOL0     H80413   0.263   6.151   7.490  0.2840  4.7643  0.9658
  596MOL0     H80414   0.221   6.393   7.407 -0.2567  0.0304 -0.1592
  596MOL0     H80415   0.131   6.338   7.277  2.7072 -2.7002 -1.0560
  596MOL0     H80416  -0.023   6.416   7.472  1.0776  0.8688 -2.1429
  596MOL0     H80417   0.072   6.296   7.579 -0.3929 -2.5876  0.0190
  596MOL0     H80418  -0.040   6.116   7.459  1.5464  0.0059 -1.6853
  596MOL0     H80419  -0.111   6.226   7.348 -3.2555 -4.5128  0.3768
  596MOL0     H80420  -0.170   6.326   7.785  3.7296 -0.6590 -2.6835
  596MOL0     H80421  -0.213   6.214   7.988 -0.2419  1.1447 -0.1455
  596MOL0     H80422  -0.433   5.824   8.229  0.8439 -2.9594  1.2778
  596MOL0     H80423  -0.463   5.768   8.480 -2.2151  1.1148 -0.1234
  596MOL0     H80424  -0.506   5.782   8.705  0.5787  2.0797 -1.6974
  596MOL0     H80425  -0.362   5.691   8.708 -1.1069 -0.5755  0.1849
  596MOL0     H80426  -0.421   5.883   8.942 -0.3737 -0.6226  1.4427
  596MOL0     H80427  -0.454   5.723   8.953 -1.7023  3.4783  2.7056
  596MOL0     H80428  -0.169   5.826   8.897  0.9269 -1.7102  0.2169
  596MOL0     H80429  -0.228   5.780   9.053 -0.7540  4.9469  0.7494
  596MOL0     H80430  -0.150   5.622   8.810  0.7886  1.3581 -1.3741
  596MOL0     H80431  -0.276   5.554   8.923  2.2700 -1.7149  1.1594
  596MOL0     H80432  -0.069   5.475   8.958  2.3620  0.7687 -1.4277
  596MOL0     H80433  -0.073   5.590   9.093 -3.1652 -1.7123 -0.1155
  596MOL0     H80434   0.090   5.623   8.839 -0.2705 -0.9224  1.1895
  596MOL0     H80435   0.080   5.745   8.979  2.5793  0.7107 -0.4507
  596MOL0     H80436   0.206   5.470   8.973  1.2965  0.0707  0.6812
  596MOL0     H80437   0.154   5.542   9.116  0.5777 -0.9828 -0.0475
  596MOL0     H80438   0.351   5.649   8.915  2.1723  1.7769 -0.5449
  596MOL0     H80439   0.303   5.762   9.040  2.0508  0.1607 -0.5496
  596MOL0     H80440  -0.168   6.051   8.571 -3.2178  0.8239  1.6924
  596MOL0     H80441  -0.126   6.090   8.336 -1.5582  0.9938 -0.6125
  596MOL0     H80442  -0.245   5.843   7.762 -2.3187  0.8555 -0.0072
  596MOL0     H80443  -0.222   5.987   7.552  2.2299  1.8729 -1.5059
  596MOL0     H80444   0.887   6.384   8.050  3.2951 -1.1155 -1.5234
  596MOL0     H80445   0.912   6.470   8.277 -2.1266  1.0797 -0.5771
  596MOL0     H80446   1.077   6.337   8.684 -1.1329 -0.3174 -0.1901
  596MOL0     H80447   1.165   6.396   8.894 -0.1452  0.1187  0.0957
  596MOL0     H80448   1.014   6.614   9.261 -0.6050 -2.1104  0.6335
  596MOL0     H80449   0.875   6.605   9.160 -0.6996  3.3881  1.1675
  596MOL0     H80450   0.959   6.848   9.192 -1.2337 -0.9213  0.7155
  596MOL0     H80451   0.967   6.799   9.019  0.4885 -0.5287  0.4091
  596MOL0     H80452   1.221   6.775   9.055 -2.8010 -2.5726  0.4432
  596MOL0     H80453   1.196   6.782   9.234  2.2179  2.6852  0.0423
  596MOL0     H80454   1.138   7.003   9.031  0.0775 -0.7417  0.0960
  596MOL0     H80455   1.118   7.009   9.215  1.2987  1.0562 -0.4292
  596MOL0     H80456   1.527   7.087   9.100 -0.7826  2.4147 -1.0986
  596MOL0     H80457   0.824   6.654   8.968 -2.2486 -1.9994  2.3103
  596MOL0     H80458   0.680   6.653   8.627  1.1334 -3.0190 -1.4031
  596MOL0     H80459   0.598   6.544   8.733  1.0011 -0.8299  0.5249
  596MOL0     H80460   0.658   6.693   8.789 -2.0617  0.9858 -1.8162
  597MOL0     O80461   2.287   5.783  10.869  0.1308 -0.7433 -0.6091
  597MOL0     C80462   2.184   5.734  10.900 -0.6506  0.7156 -0.2124
  597MOL0     O80463   2.081   5.802  10.963 -0.3449  0.0995  0.0256
  597MOL0     C80464   2.126   5.908  11.034  0.2077 -0.2697 -0.1589
  597MOL0     C80465   2.163   5.891  11.162  0.4983 -0.5330  0.3116
  597MOL0     C80466   2.223   6.001  11.226  0.1691 -0.8688  0.2905
  597MOL0     C80467   2.249   6.126  11.164  0.1735 -0.3178 -0.6923
  597MOL0     O80468   2.309   6.226  11.237  0.1035  0.1089 -0.5025
  597MOL0     C80469   2.214   6.276  11.333  0.2941 -0.2486 -0.3028
  597MOL0     C80470   2.128   6.385  11.261  0.3055  0.6013 -0.1820
  597MOL0     C80471   2.192   6.511  11.193  0.3102  0.3331 -0.2343
  597MOL0     C80472   2.073   6.605  11.158 -0.4998  0.1828  0.1273
  597MOL0     C80473   2.098   6.748  11.114  1.0352 -0.2551 -0.3379
  597MOL0     C80474   2.153   6.751  10.973  0.8187 -0.0883  0.0729
  597MOL0     C80475   2.048   6.800  10.869 -0.1062  0.3163  0.4266
  597MOL0     C80476   1.927   6.706  10.841 -0.9886 -0.2625  0.9360
  597MOL0     N80477   1.959   6.580  10.775 -0.7411 -0.0370  0.0624
  597MOL0     C80478   1.945   6.545  10.642 -0.2492  0.9635  1.2005
  597MOL0     C80479   1.998   6.415  10.643 -0.1137 -1.2127  0.2052
  597MOL0     C80480   2.011   6.321  10.528 -0.5289 -0.7432 -0.3875
  597MOL0     C80481   1.880   6.305  10.450 -0.1826  0.5964  0.4405
  597MOL0     C80482   1.755   6.260  10.536  0.0339  0.2375 -0.3660
  597MOL0     C80483   1.626   6.238  10.449  0.1600 -0.3228 -0.6153
  597MOL0     O80484   1.639   6.112  10.378 -0.0606 -0.3010  0.3311
  597MOL0     C80485   1.555   6.084  10.269 -0.3026 -0.8673  0.4618
  597MOL0     C80486   1.423   6.120  10.262  0.1124  0.3404  1.0585
  597MOL0     C80487   1.343   6.092  10.150 -0.2701 -0.3306 -0.2953
  597MOL0     C80488   1.399   6.030  10.038  0.2078 -0.8150 -0.1621
  597MOL0     C80489   1.319   6.006   9.913  0.4996  0.0274  0.1499
  597MOL0     O80490   1.184   6.038   9.910 -0.1686 -1.3055 -0.3938
  597MOL0     C80491   1.117   6.025   9.799 -0.2197  0.4734  0.7152
  597MOL0     C80492   1.130   5.912   9.714  0.9549  0.8983 -0.2024
  597MOL0     C80493   1.054   5.897   9.593  0.1421 -0.6490 -0.3910
  597MOL0     C80494   0.959   5.994   9.560  0.0042  0.3859  0.9044
  597MOL0     O80495   0.870   5.987   9.450 -0.2054 -1.0459 -0.1857
  597MOL0     C80496   0.887   5.883   9.355 -0.0242  0.3861  0.2797
  597MOL0     C80497   0.813   5.751   9.395 -0.0934  0.3078  0.1278
  597MOL0     C80498   0.867   5.627   9.321  0.1731 -0.0899 -0.6430
  597MOL0     C80499   0.831   5.621   9.180  0.9812  0.5877  0.2003
  597MOL0     C80500   0.899   5.507   9.107  0.2716  0.3873  0.6282
  597MOL0     C80501   0.838   5.499   8.965  0.5618  0.4801  1.2500
  597MOL0     C80502   0.859   5.359   8.901 -0.3019 -0.4662  0.1840
  597MOL0     C80503   0.791   5.346   8.763  0.1780  0.4528 -1.0531
  597MOL0    Cl80504   0.618   5.343   8.790  0.5256  0.1563 -1.0104
  597MOL0     C80505   0.956   6.113   9.634  0.2057 -0.1036 -1.2120
  597MOL0     C80506   1.031   6.129   9.750  0.5079  0.5686  0.6037
  597MOL0     O80507   1.372   5.976   9.810 -0.1648  0.3592 -0.3664
  597MOL0     C80508   1.535   5.992  10.049 -0.5775  0.4363 -0.5325
  597MOL0     C80509   1.619   6.020  10.157 -0.4871 -0.6482  0.7683
  597MOL0     N80510   2.034   6.380  10.768  0.9872  0.1677 -0.3369
  597MOL0     N80511   2.007   6.473  10.846  0.5811 -1.1896  0.6632
  597MOL0     C80512   2.201   6.135  11.037  0.3879 -0.8777  0.3853
  597MOL0     C80513   2.145   6.030  10.971  0.7405 -0.5016 -0.2627
  597MOL0     C80514   2.149   5.594  10.867 -0.0055  0.3781  0.3213
  597MOL0     C80515   2.042   5.530  10.930 -0.0699  0.8102 -0.2809
  597MOL0     C80516   2.003   5.399  10.908 -0.2154 -0.7835  0.9927
  597MOL0     C80517   2.064   5.332  10.809 -0.4500  0.2362  0.0840
  597MOL0     O80518   2.023   5.203  10.784  0.3016  0.1596 -0.6128
  597MOL0     C80519   2.126   5.108  10.764 -0.6282 -0.0307 -0.2109
  597MOL0     C80520   2.054   4.979  10.815 -0.9580 -0.4595 -0.9764
  597MOL0     C80521   2.159   4.861  10.814  1.1308 -0.4443  0.2713
  597MOL0     C80522   2.096   4.725  10.778  0.5557  0.4298  0.4871
  597MOL0     C80523   2.189   4.628  10.721  0.3043  0.3600  0.0232
  597MOL0     C80524   2.284   4.553  10.690 -0.1090  0.5079  0.7721
  597MOL0     C80525   2.172   5.386  10.741  0.9773  0.4633  0.4762
  597MOL0     C80526   2.214   5.518  10.768 -0.6032 -0.5429  0.2274
  597MOL0     C80527   2.332   5.568  10.686 -0.4172 -0.1663 -0.1085
  597MOL0     H80528   2.153   5.793  11.207 -1.7105 -2.2023 -3.3818
  597MOL0     H80529   2.251   6.000  11.330 -1.3787  3.0386  0.9199
  597MOL0     H80530   2.144   6.207  11.381 -0.2731  2.1015  2.5402
  597MOL0     H80531   2.277   6.322  11.410 -0.1425 -0.9157  0.4642
  597MOL0     H80532   2.065   6.426  11.341 -2.4388  2.4929 -3.0470
  597MOL0     H80533   2.067   6.335  11.186  1.1080  0.1701 -0.5563
  597MOL0     H80534   2.249   6.474  11.107 -0.0226 -3.5621  1.0295
  597MOL0     H80535   2.248   6.569  11.267 -2.5090  0.7169  1.7700
  597MOL0     H80536   2.009   6.552  11.086 -1.5430  0.2938  0.9398
  597MOL0     H80537   2.022   6.606  11.255 -0.3034 -0.8636  0.2547
  597MOL0     H80538   2.002   6.801  11.117  2.2862  2.1539  0.1842
  597MOL0     H80539   2.171   6.783  11.188 -1.8479 -0.6713  2.9412
  597MOL0     H80540   2.235   6.822  10.963 -0.8085  2.1677  1.7667
  597MOL0     H80541   2.203   6.657  10.948  3.1181  1.1866 -0.3646
  597MOL0     H80542   2.103   6.817  10.776  2.1438 -3.3977  0.8646
  597MOL0     H80543   2.016   6.895  10.911 -0.2458 -0.7084  2.8012
  597MOL0     H80544   1.878   6.678  10.935 -0.6942  2.0080  1.8103
  597MOL0     H80545   1.860   6.765  10.778  2.3082  1.4806 -1.2030
  597MOL0     H80546   1.913   6.592  10.549 -0.4975  0.7950  1.1973
  597MOL0     H80547   2.086   6.364  10.461 -1.1926  0.6156 -0.2823
  597MOL0     H80548   2.046   6.225  10.570 -0.2746 -1.4038 -2.0249
  597MOL0     H80549   1.864   6.404  10.404  0.1926 -0.3706 -1.9418
  597MOL0     H80550   1.910   6.238  10.369  2.0729 -0.6293  2.1616
  597MOL0     H80551   1.735   6.326  10.620  0.2448 -1.6561  1.2312
  597MOL0     H80552   1.784   6.167  10.585 -1.0630  0.7772  1.3773
  597MOL0     H80553   1.611   6.321  10.380 -0.2327  1.1209  1.1445
  597MOL0     H80554   1.536   6.235  10.510  0.9719 -1.3585  0.5997
  597MOL0     H80555   1.379   6.171  10.347  0.0351  1.1862  0.5281
  597MOL0     H80556   1.242   6.131  10.149  0.2868  1.1657 -0.7993
  597MOL0     H80557   1.189   5.826   9.746 -3.1273 -1.3583  2.1769
  597MOL0     H80558   1.067   5.801   9.544 -3.2069 -2.6749  2.2129
  597MOL0     H80559   0.840   5.906   9.260  1.0471  3.4332  0.3645
  597MOL0     H80560   0.994   5.870   9.334  0.0272  1.4593 -0.2111
  597MOL0     H80561   0.826   5.740   9.503  0.0627  0.7627  0.1566
  597MOL0     H80562   0.704   5.750   9.381 -0.2222 -4.2000 -0.0515
  597MOL0     H80563   0.976   5.633   9.322  0.1439  0.4467  0.4701
  597MOL0     H80564   0.836   5.535   9.371  0.7884 -0.4515 -0.9172
  597MOL0     H80565   0.869   5.714   9.136 -1.7257  0.5666 -2.4591
  597MOL0     H80566   0.723   5.618   9.166  1.0722  0.7925 -0.6249
  597MOL0     H80567   0.881   5.410   9.155 -0.0577 -1.6166 -3.2077
  597MOL0     H80568   1.006   5.532   9.108  0.5130 -0.4659  2.5887
  597MOL0     H80569   0.732   5.527   8.959  0.9794  2.1157  1.2267
  597MOL0     H80570   0.894   5.566   8.899 -2.7946  1.2701 -1.1317
  597MOL0     H80571   0.812   5.284   8.966 -4.3605  0.3371 -1.5124
  597MOL0     H80572   0.965   5.341   8.885 -0.7184 -1.5181 -1.6619
  597MOL0     H80573   0.828   5.426   8.697  0.5852  0.5778 -0.6803
  597MOL0     H80574   0.819   5.250   8.718  3.1553  0.4097  0.6104
  597MOL0     H80575   0.881   6.188   9.610 -1.6995 -1.4315  0.2707
  597MOL0     H80576   1.013   6.227   9.792  1.0307  1.4067 -1.0371
  597MOL0     H80577   1.575   5.935   9.965  0.4811 -1.8902  1.4200
  597MOL0     H80578   1.718   5.977  10.166  0.4054  1.3820  1.1587
  597MOL0     H80579   2.222   6.226  10.982 -1.0681 -0.7332  0.0363
  597MOL0     H80580   2.130   6.043  10.864  3.7954  0.0659 -0.7072
  597MOL0     H80581   1.981   5.568  11.012  2.1351  0.9929  1.3718
  597MOL0     H80582   1.921   5.354  10.964 -0.1724 -0.0720  1.6514
  597MOL0     H80583   2.217   5.132  10.821 -0.0527  0.9761 -1.5037
  597MOL0     H80584   2.159   5.105  10.660  0.1027  0.2025  0.0091
  597MOL0     H80585   1.967   4.949  10.756 -2.5891  1.8360  0.1295
  597MOL0     H80586   2.024   4.996  10.918  1.6269 -0.2495 -0.1794
  597MOL0     H80587   2.203   4.851  10.914  1.1380  2.7924  0.6856
  597MOL0     H80588   2.236   4.896  10.746 -0.2609  2.1739 -0.0823
  597MOL0     H80589   2.047   4.674  10.860 -0.4032  0.4091 -0.0876
  597MOL0     H80590   2.022   4.746  10.700 -0.0921 -2.8676  0.0893
  597MOL0     H80591   2.360   4.479  10.678 -0.6668 -0.8421  4.3585
  597MOL0     H80592   2.217   5.322  10.666  0.7412 -0.6611  1.2652
  597MOL0     H80593   2.290   5.626  10.603  0.2926  0.9269  0.2877
  597MOL0     H80594   2.410   5.615  10.746  1.4401 -1.6849 -1.1872
  597MOL0     H80595   2.390   5.481  10.652  0.9317  0.0345  1.5299
  598MOL0     O80596   9.864   5.681   6.963  0.2729  0.0862 -0.0575
  598MOL0     C80597   9.901   5.567   6.929 -0.0322  0.4671  0.2723
  598MOL0     O80598   9.839   5.486   6.837 -0.3956  0.1754  0.4838
  598MOL0     C80599   9.713   5.506   6.794  0.1016  0.7880 -0.4675
  598MOL0     C80600   9.606   5.555   6.859 -0.3694 -0.1627  0.4561
  598MOL0     C80601   9.481   5.560   6.796  0.5358 -1.0814 -0.9034
  598MOL0     C80602   9.455   5.506   6.670 -0.8002 -0.1714  0.2084
  598MOL0     O80603   9.331   5.532   6.617 -1.0370 -0.1189  0.0836
  598MOL0     C80604   9.269   5.414   6.560 -0.9484  1.0688 -0.9003
  598MOL0     C80605   9.162   5.464   6.465 -0.3963 -0.7650 -0.6700
  598MOL0     C80606   9.032   5.524   6.531  0.5253  0.7113 -0.0894
  598MOL0     C80607   8.902   5.507   6.456  0.4645  0.4747 -0.0785
  598MOL0     C80608   8.783   5.598   6.501  0.9782 -0.4289 -0.5343
  598MOL0     C80609   8.737   5.573   6.643  0.0450  0.0861 -0.3113
  598MOL0     C80610   8.630   5.675   6.692 -0.0367 -0.8568  0.1657
  598MOL0     C80611   8.675   5.820   6.707 -0.3733 -0.3743  0.4630
  598MOL0     N80612   8.578   5.901   6.792 -0.6682 -0.3012  1.1688
  598MOL0     C80613   8.473   5.977   6.740  0.0945 -0.5999 -0.5893
  598MOL0     C80614   8.404   6.015   6.854 -0.1720 -0.8579 -0.4900
  598MOL0     C80615   8.290   6.110   6.839  0.3300  0.5881 -0.5636
  598MOL0     C80616   8.154   6.030   6.860 -0.0847 -0.3491  0.2013
  598MOL0     C80617   8.122   5.991   7.002 -0.4361 -0.5552  0.4351
  598MOL0     C80618   8.077   6.115   7.086  0.1081  0.2170  0.2130
  598MOL0     O80619   8.039   6.091   7.214  0.8968  0.0843 -0.5978
  598MOL0     C80620   8.018   6.201   7.295  0.5728  0.1558  0.0445
  598MOL0     C80621   7.984   6.322   7.249  0.4245 -0.1843 -0.8836
  598MOL0     C80622   7.944   6.425   7.340 -0.3639 -0.2631  0.4324
  598MOL0     C80623   7.952   6.410   7.487  0.0064 -0.1843 -0.0381
  598MOL0     C80624   7.924   6.526   7.578 -0.7144  0.2600  0.0540
  598MOL0     O80625   7.838   6.622   7.515 -0.1432  0.6605 -0.5095
  598MOL0     C80626   7.827   6.745   7.578 -0.0355 -0.9066 -0.3340
  598MOL0     C80627   7.719   6.805   7.645 -0.0917  0.2683 -0.9335
  598MOL0     C80628   7.736   6.929   7.707  0.2270 -0.3222 -0.1697
  598MOL0     C80629   7.861   6.998   7.711 -0.1105 -0.2852 -1.0372
  598MOL0     O80630   7.881   7.118   7.778  0.7075 -0.0649 -0.2859
  598MOL0     C80631   7.814   7.231   7.722 -0.7599 -0.5501  1.4439
  598MOL0     C80632   7.878   7.367   7.768  0.9297  0.3534  0.0499
  598MOL0     C80633   7.868   7.388   7.920 -0.4059  0.3694  0.0961
  598MOL0     C80634   7.777   7.503   7.956 -0.3414  0.2733  0.1478
  598MOL0     C80635   7.783   7.530   8.102  0.3177 -0.6197 -0.8666
  598MOL0     C80636   7.680   7.647   8.145 -0.6022  0.2419 -0.2577
  598MOL0     C80637   7.632   7.633   8.294 -0.8383 -0.4979 -0.8720
  598MOL0     C80638   7.545   7.744   8.334 -0.6072  1.0662  0.5136
  598MOL0    Cl80639   7.608   7.906   8.353  0.1771  0.6500 -0.0694
  598MOL0     C80640   7.965   6.946   7.641  0.0541  0.5781 -0.3357
  598MOL0     C80641   7.945   6.823   7.584 -0.4312  0.1834  0.3213
  598MOL0     O80642   7.944   6.518   7.702 -0.3111  0.2062  0.2232
  598MOL0     C80643   7.993   6.288   7.533 -0.2361  0.0919 -0.7384
  598MOL0     C80644   8.026   6.192   7.433  0.5901  0.5713  0.2511
  598MOL0     N80645   8.454   5.950   6.965 -0.0120  0.0684  0.4338
  598MOL0     N80646   8.563   5.884   6.925 -0.3229 -0.0073 -0.3134
  598MOL0     C80647   9.563   5.441   6.610 -1.0627  0.6958 -0.1664
  598MOL0     C80648   9.689   5.443   6.679  1.1469 -0.4043 -0.4386
  598MOL0     C80649  10.021   5.524   6.998  0.5594 -0.1410 -0.5790
  598MOL0     C80650  10.102   5.436   6.932 -1.5541 -0.0503  0.5459
  598MOL0     C80651  10.218   5.380   6.992  0.9885  0.7438  0.3467
  598MOL0     C80652  10.257   5.409   7.122  0.7031 -0.1882 -0.7329
  598MOL0     O80653  10.368   5.367   7.197 -0.2060  0.1266 -0.0947
  598MOL0     C80654  10.467   5.276   7.134 -0.0641  1.0736  0.2321
  598MOL0     C80655  10.505   5.153   7.219 -0.0466  0.1637 -0.0778
  598MOL0     C80656  10.612   5.179   7.327  1.0653  0.4139 -0.2786
  598MOL0     C80657  10.715   5.069   7.362  0.3496 -0.7246  0.4432
  598MOL0     C80658  10.812   5.053   7.257 -1.0010  0.3455 -0.6141
  598MOL0     C80659  10.891   5.023   7.174  0.2637  0.2578  0.1893
  598MOL0     C80660  10.176   5.505   7.190 -0.7088 -0.6606  0.1485
  598MOL0     C80661  10.057   5.561   7.139  0.7199 -0.1854  1.1882
  598MOL0     C80662   9.972   5.651   7.226 -0.1155 -0.4173  0.2789
  598MOL0     H80663   9.617   5.610   6.951 -1.3656  2.6689 -1.0222
  598MOL0     H80664   9.403   5.618   6.844 -0.3739 -0.9550 -2.4443
  598MOL0     H80665   9.334   5.346   6.505 -0.8069 -0.4046  1.0084
  598MOL0     H80666   9.231   5.359   6.646  2.1675  0.5002  0.2480
  598MOL0     H80667   9.135   5.392   6.387 -0.7339  0.3837 -1.6334
  598MOL0     H80668   9.199   5.544   6.401 -2.0512  0.0123 -0.6897
  598MOL0     H80669   9.046   5.632   6.545 -0.4295  0.5842  2.4252
  598MOL0     H80670   9.023   5.500   6.638  2.0708  1.8947  0.3481
  598MOL0     H80671   8.930   5.521   6.351 -1.4109  1.1208 -0.5352
  598MOL0     H80672   8.875   5.401   6.458  0.6808  0.4286  0.7809
  598MOL0     H80673   8.822   5.700   6.495  2.3086 -0.7533  1.4908
  598MOL0     H80674   8.697   5.589   6.434 -1.0464  2.7260  1.4123
  598MOL0     H80675   8.689   5.475   6.633 -0.2062 -0.1310  2.3039
  598MOL0     H80676   8.820   5.568   6.713  0.9549  1.3190 -1.2558
  598MOL0     H80677   8.598   5.633   6.788 -1.5645  2.6893  1.3740
  598MOL0     H80678   8.546   5.686   6.622  0.8617  3.8751 -0.5386
  598MOL0     H80679   8.776   5.815   6.750 -0.0446 -1.6393 -0.3917
  598MOL0     H80680   8.690   5.874   6.613  1.8294 -2.5736 -0.5663
  598MOL0     H80681   8.446   6.029   6.649 -3.5287 -0.4566  0.3853
  598MOL0     H80682   8.293   6.200   6.902 -0.6615 -0.0605  0.4354
  598MOL0     H80683   8.306   6.144   6.736  0.0636  0.3319 -0.6894
  598MOL0     H80684   8.069   6.082   6.814 -1.2480 -0.9540  1.6139
  598MOL0     H80685   8.157   5.940   6.797  1.1922 -0.6077  0.6007
  598MOL0     H80686   8.210   5.947   7.051 -0.4654  1.9520  3.0005
  598MOL0     H80687   8.039   5.920   7.004 -0.9028  0.0074  1.3986
  598MOL0     H80688   7.988   6.153   7.034  0.1883  3.3767  2.1060
  598MOL0     H80689   8.152   6.194   7.074 -1.5344  1.8084  0.0073
  598MOL0     H80690   7.978   6.336   7.141  0.3105 -0.4853 -0.9162
  598MOL0     H80691   7.920   6.518   7.289  0.1207 -0.6958 -0.6163
  598MOL0     H80692   7.623   6.755   7.648 -0.4148  0.9007 -0.5311
  598MOL0     H80693   7.657   6.983   7.758  0.8381  1.5195 -1.0843
  598MOL0     H80694   7.834   7.238   7.615  0.6888 -0.1763  1.7263
  598MOL0     H80695   7.707   7.215   7.742 -0.7132 -0.7563  1.5370
  598MOL0     H80696   7.981   7.358   7.734  0.4719 -3.6669 -0.7193
  598MOL0     H80697   7.832   7.452   7.716  0.1252  0.1375  0.3877
  598MOL0     H80698   7.847   7.297   7.976 -1.0293  0.4183 -0.0565
  598MOL0     H80699   7.966   7.416   7.960 -0.6652  1.1127  0.2328
  598MOL0     H80700   7.676   7.477   7.921 -0.8417  0.7746  1.1939
  598MOL0     H80701   7.804   7.598   7.909 -1.9374  0.4799 -0.4173
  598MOL0     H80702   7.877   7.562   8.146 -1.0895  0.0732  1.8542
  598MOL0     H80703   7.756   7.439   8.157 -0.2413  1.1202  1.9398
  598MOL0     H80704   7.723   7.747   8.141 -0.6004  0.2038 -2.6625
  598MOL0     H80705   7.590   7.640   8.083  0.4469 -1.0086 -1.7063
  598MOL0     H80706   7.723   7.641   8.355 -0.5281 -2.6934 -0.9519
  598MOL0     H80707   7.579   7.545   8.331  2.0123 -0.5892  3.8478
  598MOL0     H80708   7.455   7.745   8.271 -0.3275  0.3648  0.0872
  598MOL0     H80709   7.525   7.720   8.439  5.3718  0.9725  1.9609
  598MOL0     H80710   8.067   6.984   7.630  1.3246 -1.6019  2.5464
  598MOL0     H80711   8.032   6.784   7.533  0.2952 -1.0142  2.3592
  598MOL0     H80712   7.988   6.247   7.633  1.5363 -0.8896 -1.0171
  598MOL0     H80713   8.059   6.091   7.456 -0.4887  0.0538 -0.3999
  598MOL0     H80714   9.558   5.371   6.527  4.4220  1.2682 -1.3741
  598MOL0     H80715   9.769   5.386   6.632  1.5931  0.8061 -1.1980
  598MOL0     H80716  10.089   5.401   6.830 -0.2577 -1.9484  0.9802
  598MOL0     H80717  10.267   5.311   6.924  0.0286  2.3150 -2.0523
  598MOL0     H80718  10.551   5.346   7.122  1.3769 -0.4718  0.8983
  598MOL0     H80719  10.436   5.240   7.036  1.0440 -4.0440  1.4538
  598MOL0     H80720  10.553   5.078   7.155 -2.1926 -0.4899 -1.0281
  598MOL0     H80721  10.411   5.110   7.255 -0.3954  1.9761  1.3382
  598MOL0     H80722  10.559   5.200   7.420  3.4070 -0.1169  1.2724
  598MOL0     H80723  10.669   5.270   7.305 -0.9058  1.2753 -2.2869
  598MOL0     H80724  10.764   5.080   7.460 -1.0629  0.0218  1.1019
  598MOL0     H80725  10.650   4.982   7.378  0.6026 -0.8581  0.7608
  598MOL0     H80726  10.962   4.994   7.100  3.3133  2.5005  1.9933
  598MOL0     H80727  10.199   5.535   7.292 -3.4056  0.3250  0.5306
  598MOL0     H80728   9.962   5.752   7.185  1.0900 -0.1536  0.5995
  598MOL0     H80729   9.873   5.608   7.241 -1.7186  2.3483 -1.4139
  598MOL0     H80730  10.019   5.667   7.323  0.5018  0.2831 -0.1188
  599MOL0     O80731   7.510  10.820   5.496 -0.3212 -0.5880  0.3218
  599MOL0     C80732   7.452  10.787   5.598  0.3801 -0.5392  0.8381
  599MOL0     O80733   7.331  10.832   5.642  1.1560  0.2712 -0.6531
  599MOL0     C80734   7.280  10.948   5.616 -0.3121 -0.7435  0.2775
  599MOL0     C80735   7.148  10.961   5.655 -0.0002  0.5591 -0.2465
  599MOL0     C80736   7.084  11.085   5.635  0.2715  1.0846  0.1599
  599MOL0     C80737   7.148  11.198   5.584 -0.1136  0.0208 -0.6149
  599MOL0     O80738   7.082  11.316   5.584 -0.3973  0.5929 -0.1972
  599MOL0     C80739   7.159  11.436   5.585 -1.0036  0.0580 -1.4288
  599MOL0     C80740   7.087  11.575   5.588  0.6286  0.0065 -0.9772
  599MOL0     C80741   7.020  11.622   5.716 -0.8852 -0.0917 -0.2266
  599MOL0     C80742   7.130  11.675   5.822  0.2407 -0.0388  0.0841
  599MOL0     C80743   7.072  11.718   5.954  0.6464  1.0756 -0.7482
  599MOL0     C80744   6.995  11.600   6.030 -0.6305  0.1872 -0.7149
  599MOL0     C80745   7.098  11.484   6.050 -0.0916 -0.4002 -0.6121
  599MOL0     C80746   7.049  11.358   6.118 -0.0012  0.3158 -0.0009
  599MOL0     N80747   7.142  11.245   6.126  0.0052 -0.6057  0.2123
  599MOL0     C80748   7.158  11.142   6.032 -0.2966 -0.8298  0.4177
  599MOL0     C80749   7.282  11.096   6.056 -0.8195 -1.1036  0.5163
  599MOL0     C80750   7.360  10.989   5.981 -0.0428 -0.0544  0.8355
  599MOL0     C80751   7.365  10.844   6.036 -0.9212 -0.1519 -0.3360
  599MOL0     C80752   7.424  10.831   6.175  0.1007  0.1458  0.6128
  599MOL0     C80753   7.462  10.684   6.195 -0.0735 -0.3768  0.5762
  599MOL0     O80754   7.347  10.601   6.223  0.0667  0.0852  0.3452
  599MOL0     C80755   7.301  10.587   6.352 -0.8897  0.6693  0.8308
  599MOL0     C80756   7.167  10.542   6.370  1.0831 -0.5122  0.5499
  599MOL0     C80757   7.103  10.545   6.500 -0.8596  0.0752 -0.1377
  599MOL0     C80758   7.170  10.591   6.610  0.5195  0.1767  1.4787
  599MOL0     C80759   7.109  10.592   6.745 -0.6777 -0.3450 -0.4431
  599MOL0     O80760   6.988  10.549   6.765 -0.2508  0.0847 -0.1618
  599MOL0     C80761   6.939  10.564   6.893  0.0511 -0.4943  0.9338
  599MOL0     C80762   6.896  10.448   6.961 -0.3189 -0.4862 -0.2614
  599MOL0     C80763   6.826  10.452   7.088 -0.3249 -0.2320 -0.3032
  599MOL0     C80764   6.813  10.570   7.165  1.1531  0.1697  0.1402
  599MOL0     O80765   6.741  10.568   7.282 -0.2835  0.1850  0.2444
  599MOL0     C80766   6.784  10.457   7.364 -0.2956  0.3474 -0.1310
  599MOL0     C80767   6.732  10.485   7.510 -0.4115  0.3040  0.6093
  599MOL0     C80768   6.763  10.364   7.599  0.0712 -0.7529 -0.2927
  599MOL0     C80769   6.915  10.340   7.625  1.5219  0.3160  0.1996
  599MOL0     C80770   6.941  10.256   7.745 -0.1477 -0.0631 -0.1181
  599MOL0     C80771   6.894  10.116   7.740 -0.9193  0.7374  0.4971
  599MOL0     C80772   6.921  10.030   7.861  0.2259  0.0983 -0.1996
  599MOL0     C80773   6.943   9.885   7.811  0.0376  0.5047  0.3023
  599MOL0    Cl80774   6.785   9.824   7.767  0.1793  0.1276 -0.4884
  599MOL0     C80775   6.863  10.680   7.097 -0.2889 -0.2128  0.6557
  599MOL0     C80776   6.920  10.683   6.960  0.5575  0.4080  0.0377
  599MOL0     O80777   7.187  10.646   6.829 -0.3496 -0.2247 -0.2978
  599MOL0     C80778   7.308  10.628   6.593 -0.6719 -0.5872  0.3952
  599MOL0     C80779   7.375  10.629   6.473 -0.0967  0.2016 -0.1967
  599MOL0     N80780   7.331  11.152   6.173  0.0886  0.0214  0.2588
  599MOL0     N80781   7.242  11.235   6.213  0.0007 -0.5519  0.3434
  599MOL0     C80782   7.286  11.179   5.551 -0.1751  0.0983 -0.4237
  599MOL0     C80783   7.346  11.057   5.565  0.0514  0.0414 -1.1776
  599MOL0     C80784   7.501  10.673   5.681  0.7039  0.2905 -0.5304
  599MOL0     C80785   7.407  10.610   5.771 -0.0167 -0.1190  0.0049
  599MOL0     C80786   7.446  10.501   5.849 -0.6400  0.5834 -0.6990
  599MOL0     C80787   7.580  10.463   5.857 -0.4178 -1.2586 -0.2835
  599MOL0     O80788   7.625  10.360   5.936 -0.0075 -0.2077  0.2143
  599MOL0     C80789   7.735  10.395   6.030 -0.2333 -0.3826 -1.3125
  599MOL0     C80790   7.864  10.311   5.983  0.3195 -0.9310  0.2338
  599MOL0     C80791   7.936  10.250   6.101 -0.5092 -1.5270 -0.7367
  599MOL0     C80792   7.870  10.133   6.179  0.2293 -0.9475  0.0021
  599MOL0     C80793   7.976  10.085   6.267 -0.7294  0.9866  0.1992
  599MOL0     C80794   8.060  10.019   6.330  0.1332  0.4543  0.4421
  599MOL0     C80795   7.670  10.519   5.775 -0.2450 -0.4557  0.3903
  599MOL0     C80796   7.634  10.635   5.691 -0.4909  0.9644  0.5047
  599MOL0     C80797   7.756  10.695   5.623  0.8467 -0.3897 -1.0496
  599MOL0     H80798   7.091  10.884   5.706 -2.6634  1.0374 -2.2553
  599MOL0     H80799   6.982  11.096   5.672  0.7484  3.6243  0.9468
  599MOL0     H80800   7.235  11.435   5.663  0.3629  0.8968 -2.6957
  599MOL0     H80801   7.209  11.435   5.488 -1.3241 -2.8907 -1.6616
  599MOL0     H80802   7.008  11.569   5.512  0.6634  0.9171 -1.0999
  599MOL0     H80803   7.154  11.651   5.547  1.1246 -0.5764 -1.2647
  599MOL0     H80804   6.975  11.527   5.747  2.0658 -1.8953 -1.1250
  599MOL0     H80805   6.944  11.699   5.698 -0.2575  1.1850  2.1063
  599MOL0     H80806   7.218  11.612   5.834  1.1113  1.4756  2.2663
  599MOL0     H80807   7.167  11.771   5.783 -0.5241  0.0888 -0.3532
  599MOL0     H80808   7.161  11.754   6.007 -0.8199  2.3242  1.0031
  599MOL0     H80809   7.007  11.804   5.939 -3.0184 -1.7018 -2.2156
  599MOL0     H80810   6.952  11.636   6.124 -1.0367  1.3327 -1.3160
  599MOL0     H80811   6.913  11.563   5.968 -0.9229 -1.2301  0.4673
  599MOL0     H80812   7.175  11.540   6.104 -0.6476 -0.1593 -0.0594
  599MOL0     H80813   7.155  11.461   5.960 -0.4249 -2.5225 -0.3191
  599MOL0     H80814   7.045  11.380   6.225 -0.4605 -1.4423  0.3803
  599MOL0     H80815   6.948  11.324   6.093 -0.0085 -3.6776  4.0825
  599MOL0     H80816   7.096  11.116   5.947 -1.4432  0.4711  0.8290
  599MOL0     H80817   7.299  10.991   5.890  0.9534 -2.1579  0.0426
  599MOL0     H80818   7.459  11.027   5.959  0.0923 -1.0837 -0.4544
  599MOL0     H80819   7.268  10.795   6.047 -0.0537 -1.3875  3.2853
  599MOL0     H80820   7.423  10.798   5.955 -1.5189  0.3393 -1.0444
  599MOL0     H80821   7.337  10.853   6.239 -0.7727 -0.6905 -0.2598
  599MOL0     H80822   7.508  10.901   6.182 -0.9394  1.3173  2.4016
  599MOL0     H80823   7.533  10.681   6.278  0.0686 -3.1146  0.4213
  599MOL0     H80824   7.501  10.650   6.099 -1.6570 -0.5696 -0.0298
  599MOL0     H80825   7.109  10.502   6.287  1.4447 -0.4547  0.2678
  599MOL0     H80826   6.999  10.512   6.502 -1.4985  1.9175  2.0794
  599MOL0     H80827   6.916  10.352   6.914 -2.2606 -0.7091 -0.7346
  599MOL0     H80828   6.796  10.358   7.134  1.5451 -0.0880  1.3621
  599MOL0     H80829   6.730  10.368   7.330 -0.8139  0.1210  1.2413
  599MOL0     H80830   6.891  10.441   7.373 -0.4953 -1.0253 -0.0317
  599MOL0     H80831   6.789  10.574   7.541  1.4709 -0.3237 -0.8387
  599MOL0     H80832   6.625  10.507   7.505 -0.5094  0.2911 -5.4620
  599MOL0     H80833   6.715  10.379   7.696  1.1824  2.4408 -0.1015
  599MOL0     H80834   6.733  10.270   7.553  0.9846 -2.0399  1.5748
  599MOL0     H80835   6.967  10.436   7.625  2.4102 -0.0892 -2.0779
  599MOL0     H80836   6.951  10.279   7.542 -1.0758 -3.2317  1.4604
  599MOL0     H80837   6.893  10.301   7.832 -4.2121  1.3493 -2.7728
  599MOL0     H80838   7.048  10.253   7.764 -0.2429  1.7192  0.9507
  599MOL0     H80839   6.788  10.102   7.715 -1.8518 -0.0458  4.2641
  599MOL0     H80840   6.956  10.068   7.663 -1.7648 -5.0941  2.9028
  599MOL0     H80841   6.828  10.019   7.916  1.9390 -0.9154  2.7031
  599MOL0     H80842   6.996  10.061   7.935 -1.0063 -0.2867  1.2317
  599MOL0     H80843   7.013   9.877   7.727 -1.5747  3.0668 -1.4553
  599MOL0     H80844   6.972   9.823   7.896 -1.4259  0.9961  1.2029
  599MOL0     H80845   6.866  10.775   7.150 -2.4567 -0.6445  1.6626
  599MOL0     H80846   6.976  10.768   6.921  4.1029 -0.8164  1.9495
  599MOL0     H80847   7.376  10.651   6.674  0.4650  1.3295 -1.0190
  599MOL0     H80848   7.482  10.647   6.478  0.8417 -3.3779 -3.2063
  599MOL0     H80849   7.348  11.263   5.523 -0.9415  1.2596  1.1732
  599MOL0     H80850   7.453  11.049   5.546  1.1663  4.3091  1.6263
  599MOL0     H80851   7.301  10.630   5.753  0.3237  0.1893 -1.9329
  599MOL0     H80852   7.382  10.431   5.902  1.7353 -0.1667  1.3929
  599MOL0     H80853   7.709  10.356   6.129  2.3895 -2.4768 -1.3549
  599MOL0     H80854   7.743  10.504   6.033  1.7749 -0.2502 -5.1460
  599MOL0     H80855   7.938  10.373   5.932  0.4820 -0.8259  0.5987
  599MOL0     H80856   7.847  10.230   5.911  1.4681  0.1761 -1.3347
  599MOL0     H80857   7.962  10.330   6.171 -3.2482 -1.1550 -0.0010
  599MOL0     H80858   8.031  10.215   6.060 -0.2411  0.3508 -1.7982
  599MOL0     H80859   7.782  10.174   6.230  0.6474  0.5492 -0.4078
  599MOL0     H80860   7.840  10.055   6.109  1.7493 -0.3621 -1.3788
  599MOL0     H80861   8.122   9.947   6.380  0.1656 -1.5070 -2.2144
  599MOL0     H80862   7.771  10.480   5.784 -0.0267 -0.9196 -2.8780
  599MOL0     H80863   7.796  10.643   5.536  3.1675 -1.8797  0.7810
  599MOL0     H80864   7.737  10.799   5.592 -5.2035 -0.1913  1.9268
  599MOL0     H80865   7.831  10.679   5.701  1.3025  1.1403 -1.1353
  600MOL0     O80866  10.559   3.007   0.491 -0.5168 -0.2113  0.0762
  600MOL0     C80867  10.598   2.991   0.605  0.4930 -0.3590  0.1900
  600MOL0     O80868  10.582   2.882   0.682  1.3125 -0.3252 -0.1538
  600MOL0     C80869  10.525   2.767   0.633 -0.0298  0.1386  0.0239
  600MOL0     C80870  10.578   2.713   0.516  1.0412  0.6891 -0.7138
  600MOL0     C80871  10.532   2.593   0.471 -0.2699 -0.6564  0.1691
  600MOL0     C80872  10.429   2.522   0.532 -0.5098 -0.2995  0.5120
  600MOL0     O80873  10.376   2.408   0.482  0.2507 -0.3662  0.1017
  600MOL0     C80874  10.406   2.383   0.348 -1.4372 -0.0719  0.5298
  600MOL0     C80875  10.319   2.268   0.298  0.2641 -0.2022 -0.9111
  600MOL0     C80876  10.371   2.139   0.364 -0.3034 -0.0752 -0.1991
  600MOL0     C80877  10.253   2.049   0.401  0.7595  0.0122 -0.8162
  600MOL0     C80878  10.303   1.927   0.482 -0.0911 -0.1264  0.2160
  600MOL0     C80879  10.380   1.841   0.386  0.2825  0.3884 -1.0703
  600MOL0     C80880  10.396   1.709   0.459 -0.8425  0.2081 -0.3443
  600MOL0     C80881  10.493   1.615   0.389  0.0700 -0.3807  0.4699
  600MOL0     N80882  10.455   1.477   0.444  0.9859 -0.5285  0.5103
  600MOL0     C80883  10.353   1.392   0.396 -0.0391 -0.1151  0.4280
  600MOL0     C80884  10.365   1.292   0.484 -0.5590 -0.0613  1.4010
  600MOL0     C80885  10.284   1.165   0.467 -1.4045 -0.0476  0.4403
  600MOL0     C80886  10.145   1.188   0.523  0.2334 -0.3032 -0.1112
  600MOL0     C80887  10.132   1.213   0.672 -0.1668 -0.2040  0.7320
  600MOL0     C80888  10.146   1.102   0.766  0.6478  0.2375 -0.5963
  600MOL0     O80889  10.104   1.137   0.902 -0.1478  0.6802  0.4528
  600MOL0     C80890  10.080   1.040   0.991 -0.8748 -0.4709  0.1577
  600MOL0     C80891  10.136   0.909   0.982  0.5484 -0.2796 -0.4766
  600MOL0     C80892  10.120   0.816   1.089 -0.0001 -1.7943  0.1132
  600MOL0     C80893  10.049   0.848   1.199  1.0626  0.8682  0.0913
  600MOL0     C80894  10.025   0.737   1.296  0.0116  0.4779  0.1314
  600MOL0     O80895   9.925   0.757   1.376 -0.0182 -0.1691 -0.4229
  600MOL0     C80896   9.926   0.721   1.507 -0.4346  0.6861 -0.1498
  600MOL0     C80897   9.807   0.675   1.566  0.8441  0.2547 -0.2612
  600MOL0     C80898   9.808   0.640   1.706  0.3864  0.1142  0.7768
  600MOL0     C80899   9.923   0.655   1.786  0.5173  0.1751 -0.2693
  600MOL0     O80900   9.912   0.627   1.917  0.8916  0.9493  0.2543
  600MOL0     C80901  10.016   0.674   2.003 -0.2684 -0.4378  0.1115
  600MOL0     C80902   9.982   0.681   2.154 -0.8789  0.8093  1.1350
  600MOL0     C80903   9.860   0.780   2.176 -0.6762  0.2520  0.5241
  600MOL0     C80904   9.831   0.792   2.318  0.1717  0.9162 -0.0254
  600MOL0     C80905   9.695   0.859   2.344 -0.1507  0.3784  0.3393
  600MOL0     C80906   9.684   0.950   2.471 -0.8865 -0.2470  0.0881
  600MOL0     C80907   9.740   1.089   2.452 -0.4551 -0.3960 -0.5873
  600MOL0     C80908   9.642   1.173   2.376  1.3092  0.3740 -1.3047
  600MOL0    Cl80909   9.502   1.211   2.492 -0.0990 -0.1251  0.2064
  600MOL0     C80910  10.036   0.701   1.718  0.4343 -0.1406 -0.2281
  600MOL0     C80911  10.041   0.729   1.583 -0.5267  0.6468 -0.4839
  600MOL0     O80912  10.108   0.647   1.307 -0.1016 -0.3933 -0.0018
  600MOL0     C80913   9.982   0.976   1.201 -0.0352 -0.6731 -0.3424
  600MOL0     C80914   9.993   1.063   1.099 -0.7264  0.4378  0.7033
  600MOL0     N80915  10.470   1.313   0.576  0.4156 -0.5758 -0.3930
  600MOL0     N80916  10.528   1.422   0.539 -0.8171 -0.5119  0.2393
  600MOL0     C80917  10.366   2.583   0.652 -0.5037 -0.3572  0.4616
  600MOL0     C80918  10.423   2.705   0.696 -0.3624 -0.3450  0.1323
  600MOL0     C80919  10.684   3.095   0.659  0.2103  0.1133  0.5939
  600MOL0     C80920  10.793   3.050   0.721 -0.5521 -0.8181  0.1582
  600MOL0     C80921  10.886   3.135   0.779  0.5241 -0.1021  0.3777
  600MOL0     C80922  10.879   3.276   0.772  0.3883 -0.8041 -0.2649
  600MOL0     O80923  10.970   3.364   0.825  0.2754 -0.3038  0.1702
  600MOL0     C80924  11.097   3.323   0.788 -0.3320 -1.4430  0.0075
  600MOL0     C80925  11.186   3.461   0.774 -0.1902  0.4970  1.4606
  600MOL0     C80926  11.307   3.451   0.677  0.1802  0.2308  0.4613
  600MOL0     C80927  11.407   3.357   0.730 -0.8019 -0.0817 -0.2201
  600MOL0     C80928  11.369   3.215   0.719  0.1154 -0.5327 -0.9514
  600MOL0     C80929  11.343   3.108   0.676  0.3572 -0.2076 -0.7831
  600MOL0     C80930  10.766   3.326   0.707  1.2465  0.4004 -0.1844
  600MOL0     C80931  10.661   3.239   0.651 -0.9959  0.7004  0.9461
  600MOL0     C80932  10.544   3.297   0.590 -0.4909  0.0949 -0.7396
  600MOL0     H80933  10.658   2.763   0.461  0.0539  1.2706 -1.6468
  600MOL0     H80934  10.571   2.569   0.373  0.4205  0.6608  0.1139
  600MOL0     H80935  10.395   2.474   0.287  1.7272  1.1485  1.5760
  600MOL0     H80936  10.510   2.351   0.342 -1.1120  1.1099 -0.6903
  600MOL0     H80937  10.341   2.243   0.193 -1.1484  0.6635 -1.4411
  600MOL0     H80938  10.211   2.278   0.311  0.2116 -1.0079 -0.6818
  600MOL0     H80939  10.434   2.162   0.450 -0.2174  2.4959 -0.8648
  600MOL0     H80940  10.431   2.085   0.291 -4.1652 -1.8723 -2.3815
  600MOL0     H80941  10.177   2.106   0.457 -0.9790 -2.4964 -0.4385
  600MOL0     H80942  10.197   2.026   0.310  0.0940  1.4171 -0.8001
  600MOL0     H80943  10.360   1.966   0.567 -1.4023  1.4814  0.3929
  600MOL0     H80944  10.218   1.867   0.517 -0.8091 -0.0214 -1.2888
  600MOL0     H80945  10.333   1.837   0.288 -1.6281 -1.5156 -0.1610
  600MOL0     H80946  10.478   1.880   0.359  0.2475  1.3304  0.0593
  600MOL0     H80947  10.299   1.659   0.470 -0.3626 -0.4622  1.0269
  600MOL0     H80948  10.440   1.717   0.558  0.2259 -0.0349 -0.7857
  600MOL0     H80949  10.490   1.612   0.280  1.3154 -2.3423  0.4497
  600MOL0     H80950  10.595   1.640   0.419  1.4251 -0.8268 -3.2685
  600MOL0     H80951  10.276   1.401   0.320  1.1639  1.0360 -0.7077
  600MOL0     H80952  10.282   1.144   0.359  2.0404  2.1782 -0.2057
  600MOL0     H80953  10.330   1.082   0.520  0.5887  1.4478  1.1524
  600MOL0     H80954  10.095   1.265   0.463  2.0706  1.4487  0.4703
  600MOL0     H80955  10.093   1.092   0.515 -0.5703 -0.2426  3.1367
  600MOL0     H80956  10.029   1.248   0.681 -0.6798 -0.1767 -3.4369
  600MOL0     H80957  10.190   1.305   0.687 -2.5961  1.7403 -1.0607
  600MOL0     H80958  10.244   1.057   0.783 -1.1871 -2.4301  5.4626
  600MOL0     H80959  10.076   1.022   0.741 -0.2775  1.4793 -2.2398
  600MOL0     H80960  10.204   0.900   0.898 -0.6264 -4.3474 -1.1948
  600MOL0     H80961  10.177   0.724   1.089  2.5146 -0.3188 -0.0487
  600MOL0     H80962   9.721   0.661   1.502  1.6572  0.6442 -1.4618
  600MOL0     H80963   9.721   0.596   1.752 -0.0797  1.4399  1.2149
  600MOL0     H80964  10.108   0.614   1.993 -1.6221 -2.7593  0.7375
  600MOL0     H80965  10.044   0.776   1.976 -1.7904 -0.5332 -2.0255
  600MOL0     H80966   9.980   0.581   2.197  0.0578  0.6124  0.7375
  600MOL0     H80967  10.080   0.717   2.187 -1.4657  1.6084  2.0688
  600MOL0     H80968   9.886   0.879   2.139  1.8967  0.9716  3.8091
  600MOL0     H80969   9.775   0.736   2.123  0.0004 -1.9524  1.1318
  600MOL0     H80970   9.921   0.842   2.355  1.6544 -1.3002 -0.4436
  600MOL0     H80971   9.846   0.697   2.370 -1.4851  0.8362  0.3714
  600MOL0     H80972   9.631   0.771   2.355  0.3241 -0.3430 -2.1064
  600MOL0     H80973   9.666   0.922   2.259 -1.1450  1.3184  1.3425
  600MOL0     H80974   9.579   0.960   2.498 -1.0703 -0.4220 -0.5281
  600MOL0     H80975   9.723   0.914   2.566 -3.6155 -1.3152  0.8984
  600MOL0     H80976   9.840   1.091   2.409  0.8209 -0.1525  2.1761
  600MOL0     H80977   9.762   1.136   2.548 -0.3123 -0.8512 -0.3921
  600MOL0     H80978   9.707   1.260   2.365  0.5791  1.7367  3.0273
  600MOL0     H80979   9.618   1.129   2.279 -5.1443 -2.3551  0.9533
  600MOL0     H80980  10.134   0.708   1.764 -0.1733  2.1212  0.8869
  600MOL0     H80981  10.139   0.760   1.549  1.1174  0.0140  3.1234
  600MOL0     H80982   9.908   0.986   1.279 -1.3879 -0.5744 -1.5902
  600MOL0     H80983   9.934   1.153   1.090 -1.2355  0.0574  0.1556
  600MOL0     H80984  10.290   2.527   0.705 -1.5583 -1.4185 -2.0403
  600MOL0     H80985  10.402   2.744   0.795 -2.2718 -0.7097 -0.0984
  600MOL0     H80986  10.804   2.944   0.742  3.8253 -0.4835  0.5980
  600MOL0     H80987  10.970   3.075   0.812 -1.6269 -3.0129  1.0433
  600MOL0     H80988  11.103   3.280   0.688  2.6012 -2.6031  0.5554
  600MOL0     H80989  11.137   3.253   0.863  2.5097  0.6086  0.5807
  600MOL0     H80990  11.220   3.482   0.876 -0.3258  2.3302  1.1682
  600MOL0     H80991  11.131   3.542   0.725  0.2192 -0.0407  0.0685
  600MOL0     H80992  11.355   3.550   0.680 -0.6960  0.6568  0.8352
  600MOL0     H80993  11.267   3.431   0.577  0.2757  1.6471  0.1208
  600MOL0     H80994  11.500   3.360   0.673  0.6260 -0.9683  1.9332
  600MOL0     H80995  11.427   3.382   0.835 -1.6495 -3.6304  0.9428
  600MOL0     H80996  11.310   3.020   0.625 -1.2019  0.4284 -0.9455
  600MOL0     H80997  10.753   3.432   0.693 -0.5193  0.2282 -0.0844
  600MOL0     H80998  10.559   3.406   0.591  2.2671 -0.0772  3.2427
  600MOL0     H80999  10.537   3.262   0.487  2.6302  0.5184 -1.1928
  600MOL0     H81000  10.448   3.274   0.636 -0.7662  3.5701  0.7885
  601MOL0     O81001   0.125   7.863   3.091  0.2555  0.0420  0.7694
  601MOL0     C81002   0.010   7.839   3.138 -0.6650  0.2213  0.0146
  601MOL0     O81003  -0.083   7.760   3.070 -0.4557 -0.2609 -0.3266
  601MOL0     C81004  -0.026   7.674   2.984 -0.0198 -0.5920  0.0011
  601MOL0     C81005   0.025   7.547   3.024  0.1101 -0.1210  0.7101
  601MOL0     C81006   0.076   7.453   2.933  0.0834 -0.8488 -0.3081
  601MOL0     C81007   0.049   7.472   2.796 -0.0073 -0.4177 -0.0302
  601MOL0     O81008   0.068   7.376   2.698 -0.9007  0.7481  0.0904
  601MOL0     C81009   0.161   7.277   2.733  0.4781  1.1247 -0.0480
  601MOL0     C81010   0.192   7.188   2.610 -0.6776 -0.2335  0.2767
  601MOL0     C81011   0.312   7.097   2.630 -0.6582 -0.4838 -0.2081
  601MOL0     C81012   0.439   7.171   2.623 -0.3951 -0.6367  0.2961
  601MOL0     C81013   0.568   7.080   2.594  0.8952 -0.5387 -0.7731
  601MOL0     C81014   0.565   7.038   2.446 -0.3204 -0.4939  0.7667
  601MOL0     C81015   0.699   6.962   2.404  0.5626  0.7605  0.4654
  601MOL0     C81016   0.807   7.063   2.366  0.1975  0.5419 -0.3413
  601MOL0     N81017   0.942   7.025   2.419 -0.4841 -0.8744 -0.2350
  601MOL0     C81018   1.010   7.085   2.525  0.6283  0.0698 -0.4299
  601MOL0     C81019   1.139   7.062   2.495 -0.6393 -0.3719 -0.2177
  601MOL0     C81020   1.247   7.117   2.587 -0.3195 -0.3705  0.0834
  601MOL0     C81021   1.263   6.999   2.707  0.3308  0.3360 -0.6525
  601MOL0     C81022   1.412   6.965   2.704  0.6502 -0.6063 -0.1050
  601MOL0     C81023   1.451   6.879   2.820  0.2826  0.0498  0.0307
  601MOL0     O81024   1.588   6.891   2.833  0.4459 -0.4076 -0.8048
  601MOL0     C81025   1.651   6.825   2.932 -0.2903  0.6762  0.1960
  601MOL0     C81026   1.613   6.711   3.007 -0.1912  0.3972  0.0603
  601MOL0     C81027   1.711   6.663   3.096 -1.2850  1.3781  1.1951
  601MOL0     C81028   1.844   6.721   3.106 -0.0811  0.1188 -0.2013
  601MOL0     C81029   1.942   6.650   3.188  0.7206  0.1360  0.1460
  601MOL0     O81030   2.057   6.717   3.214  0.0973  0.2816 -0.1439
  601MOL0     C81031   2.144   6.648   3.299  0.8170 -0.0659  1.1047
  601MOL0     C81032   2.278   6.653   3.270 -0.0573  0.2302 -0.3669
  601MOL0     C81033   2.379   6.621   3.361 -0.7921  0.5949 -1.8193
  601MOL0     C81034   2.340   6.586   3.492 -0.5913 -0.3129  0.8596
  601MOL0     O81035   2.456   6.570   3.566 -0.5932 -0.3564  0.7208
  601MOL0     C81036   2.442   6.569   3.703 -0.4849 -0.8648 -0.3537
  601MOL0     C81037   2.431   6.713   3.772 -0.1313  0.0500 -0.1636
  601MOL0     C81038   2.579   6.776   3.785  0.1449 -0.3712 -0.1185
  601MOL0     C81039   2.571   6.916   3.844  0.3715 -0.0820 -0.0947
  601MOL0     C81040   2.665   7.010   3.763  0.3992  0.3403 -0.7569
  601MOL0     C81041   2.807   6.978   3.795 -0.9711 -0.1311 -0.1425
  601MOL0     C81042   2.910   7.080   3.727  1.1211  0.0804  0.0598
  601MOL0     C81043   3.044   7.095   3.779 -0.3928 -0.6490 -0.0869
  601MOL0    Cl81044   3.107   6.925   3.818  0.0722 -0.2671  0.4993
  601MOL0     C81045   2.209   6.586   3.531  0.5096  0.1020  0.3165
  601MOL0     C81046   2.113   6.610   3.428  0.3484  0.0389  0.0640
  601MOL0     O81047   1.907   6.547   3.241 -0.2158  0.9394 -0.3497
  601MOL0     C81048   1.882   6.825   3.027  1.0332 -0.0974  0.4364
  601MOL0     C81049   1.784   6.878   2.944  0.1718 -0.4505  0.7673
  601MOL0     N81050   1.158   6.969   2.390  0.7404 -0.5751 -0.6461
  601MOL0     N81051   1.032   6.952   2.347  0.2691 -0.1087  0.1692
  601MOL0     C81052  -0.015   7.589   2.758 -0.9158  1.0027 -0.1660
  601MOL0     C81053  -0.037   7.694   2.844  0.1176  0.4806 -0.0873
  601MOL0     C81054  -0.021   7.909   3.267 -0.0999  0.7632  0.6130
  601MOL0     C81055   0.048   8.028   3.295 -0.6014  0.1047  0.4983
  601MOL0     C81056   0.021   8.101   3.413 -0.2716  0.3919  0.0589
  601MOL0     C81057  -0.076   8.053   3.509  0.1951  0.1323 -0.4277
  601MOL0     O81058  -0.113   8.145   3.600 -0.1845 -0.0473  0.3143
  601MOL0     C81059  -0.203   8.117   3.694 -0.1109  1.0023  0.2132
  601MOL0     C81060  -0.136   8.050   3.816 -0.1861 -0.2594 -0.3777
  601MOL0     C81061  -0.245   8.009   3.918  0.4304 -0.9681 -0.1564
  601MOL0     C81062  -0.257   8.120   4.032 -0.0380 -0.1816  0.3385
  601MOL0     C81063  -0.302   8.251   3.977 -0.1879 -0.4762  0.2560
  601MOL0     C81064  -0.356   8.354   3.921 -0.9191  1.2822 -0.4197
  601MOL0     C81065  -0.129   7.926   3.491  0.4433  0.3669 -0.4389
  601MOL0     C81066  -0.105   7.857   3.367 -0.4618 -1.1610 -0.2227
  601MOL0     C81067  -0.168   7.719   3.364 -0.4409  0.8346  0.1559
  601MOL0     H81068   0.027   7.524   3.130 -0.6728  1.6569  1.1500
  601MOL0     H81069   0.124   7.373   2.986  0.2992 -0.8618 -0.5221
  601MOL0     H81070   0.253   7.325   2.768 -1.2994  3.0257  2.4299
  601MOL0     H81071   0.121   7.213   2.812  1.2015  1.5090  0.6430
  601MOL0     H81072   0.205   7.254   2.524  1.1841  1.7707  1.9618
  601MOL0     H81073   0.105   7.123   2.594  0.7808 -2.3196  0.3647
  601MOL0     H81074   0.315   7.018   2.555 -2.4648  0.8654 -1.7951
  601MOL0     H81075   0.306   7.059   2.733  1.5494 -2.5231 -0.7532
  601MOL0     H81076   0.426   7.253   2.552 -0.3216 -0.5650  0.3649
  601MOL0     H81077   0.457   7.213   2.723 -2.9251 -2.4416  1.6204
  601MOL0     H81078   0.657   7.139   2.620  0.6239  0.3768 -1.8788
  601MOL0     H81079   0.572   6.988   2.653  1.4172 -0.3345 -0.4839
  601MOL0     H81080   0.484   6.965   2.444  0.7485 -1.7234  1.2488
  601MOL0     H81081   0.545   7.115   2.371 -0.1538  0.5270  1.7420
  601MOL0     H81082   0.669   6.906   2.314  0.7908  2.8946 -1.0209
  601MOL0     H81083   0.734   6.893   2.481 -1.7133  0.5908  1.4091
  601MOL0     H81084   0.809   7.074   2.257 -2.0609  1.0759 -0.3816
  601MOL0     H81085   0.799   7.159   2.417  2.6693 -0.9930  3.2765
  601MOL0     H81086   0.976   7.147   2.607  0.0378 -1.9998  0.9545
  601MOL0     H81087   1.334   7.131   2.523  2.2771 -3.2715  2.6581
  601MOL0     H81088   1.224   7.216   2.627  3.9360  1.1534 -0.7444
  601MOL0     H81089   1.236   7.047   2.802 -0.4324 -0.0140 -0.6867
  601MOL0     H81090   1.195   6.914   2.703  1.3594 -0.4850 -0.8653
  601MOL0     H81091   1.469   7.058   2.695  1.1542 -0.9853 -0.8444
  601MOL0     H81092   1.437   6.910   2.613 -0.9182 -1.0759 -0.2775
  601MOL0     H81093   1.415   6.776   2.811  0.6652 -0.2320  1.4448
  601MOL0     H81094   1.408   6.920   2.912  1.6259  1.3122  0.1427
  601MOL0     H81095   1.515   6.664   3.000  0.1844 -0.2649 -0.9222
  601MOL0     H81096   1.683   6.572   3.148 -4.9934 -0.5071 -3.3758
  601MOL0     H81097   2.303   6.688   3.170  0.7326 -1.7997 -0.9148
  601MOL0     H81098   2.486   6.619   3.343  0.6980  2.4079  4.3313
  601MOL0     H81099   2.360   6.510   3.743 -1.8582  1.4469  0.4736
  601MOL0     H81100   2.531   6.527   3.751 -1.1183 -0.2794  1.4414
  601MOL0     H81101   2.366   6.775   3.711 -0.1566 -0.6377 -0.8540
  601MOL0     H81102   2.402   6.710   3.878 -0.3652  3.9361  0.0099
  601MOL0     H81103   2.640   6.714   3.852  0.2740 -0.8607 -0.6726
  601MOL0     H81104   2.632   6.761   3.690  2.4270  0.2153  0.9986
  601MOL0     H81105   2.588   6.908   3.952  0.3627  1.1801  0.0175
  601MOL0     H81106   2.468   6.952   3.831 -0.7518 -3.2745 -0.7698
  601MOL0     H81107   2.647   7.115   3.790 -3.7541  0.1958 -2.3384
  601MOL0     H81108   2.653   7.002   3.655  2.4263 -0.5476 -0.9733
  601MOL0     H81109   2.825   6.968   3.902  0.3709 -2.0775 -0.5087
  601MOL0     H81110   2.842   6.882   3.757 -0.3305  0.8176 -2.0725
  601MOL0     H81111   2.862   7.177   3.708  2.6869  0.3551 -3.2809
  601MOL0     H81112   2.931   7.045   3.626  0.1238 -1.9767  0.5058
  601MOL0     H81113   3.113   7.144   3.711  3.2869 -2.3908  2.0462
  601MOL0     H81114   3.029   7.149   3.873 -1.2999 -0.5731 -0.2656
  601MOL0     H81115   2.164   6.574   3.629 -0.2127  0.6433  0.0672
  601MOL0     H81116   2.007   6.619   3.450  0.2270 -0.1148 -0.4450
  601MOL0     H81117   1.978   6.877   3.023  0.2561  1.3309 -0.8564
  601MOL0     H81118   1.815   6.962   2.881  1.4395  0.1320  2.1231
  601MOL0     H81119  -0.039   7.620   2.656  0.2724  0.8334 -0.5137
  601MOL0     H81120  -0.082   7.784   2.804 -1.3096 -0.1273  0.0882
  601MOL0     H81121   0.110   8.076   3.220  0.0778  0.8528  1.5133
  601MOL0     H81122   0.070   8.197   3.425 -0.8599  0.8053 -0.8045
  601MOL0     H81123  -0.287   8.060   3.652 -0.1571  2.1999 -1.4263
  601MOL0     H81124  -0.251   8.214   3.714  0.8491  1.4801  0.2314
  601MOL0     H81125  -0.065   8.116   3.867 -1.1695 -0.8908  1.9013
  601MOL0     H81126  -0.068   7.969   3.788  3.9940  2.5584  0.5525
  601MOL0     H81127  -0.209   7.915   3.962  0.1648 -0.7402  0.5511
  601MOL0     H81128  -0.343   7.975   3.884  0.0750 -2.0860  1.8069
  601MOL0     H81129  -0.330   8.096   4.109  0.3375 -2.6311  0.0216
  601MOL0     H81130  -0.159   8.119   4.080  1.1225  0.0467 -1.8679
  601MOL0     H81131  -0.406   8.439   3.879 -3.4572  0.0247 -0.1225
  601MOL0     H81132  -0.204   7.880   3.554 -0.8595  0.4840 -1.8368
  601MOL0     H81133  -0.110   7.638   3.317 -0.1788  1.5432 -0.7819
  601MOL0     H81134  -0.190   7.691   3.467  1.4514 -0.2313  0.3221
  601MOL0     H81135  -0.267   7.722   3.318 -0.3769  0.0256 -0.0524
  602MOL0     O81136   2.338   4.598   4.391 -0.1391 -0.3726  0.0463
  602MOL0     C81137   2.313   4.496   4.335 -0.0581  0.8584  0.6356
  602MOL0     O81138   2.235   4.402   4.388 -0.1670  0.7753  0.1898
  602MOL0     C81139   2.171   4.402   4.505 -0.6277 -0.3217 -0.2809
  602MOL0     C81140   2.237   4.375   4.627 -0.2140  0.5146  0.1300
  602MOL0     C81141   2.155   4.369   4.744  0.7297 -0.6609  0.2180
  602MOL0     C81142   2.012   4.395   4.739  0.6003 -0.4976 -0.5330
  602MOL0     O81143   1.926   4.397   4.846  0.0550  0.0413  0.0236
  602MOL0     C81144   1.983   4.389   4.982 -0.4444  0.0998 -0.4222
  602MOL0     C81145   1.859   4.366   5.078  0.4188 -0.1883  0.2192
  602MOL0     C81146   1.902   4.410   5.211  0.2586 -0.5730 -0.4555
  602MOL0     C81147   1.796   4.372   5.320 -0.1249 -0.4550  0.3636
  602MOL0     C81148   1.833   4.431   5.460 -0.4891  0.0983  0.4655
  602MOL0     C81149   1.733   4.391   5.572 -0.3492 -0.2435  0.2245
  602MOL0     C81150   1.748   4.467   5.700  0.2732  0.2775 -0.4041
  602MOL0     C81151   1.650   4.410   5.808 -0.3217  0.4004  0.2809
  602MOL0     N81152   1.637   4.498   5.931  0.1298  0.0508 -0.2824
  602MOL0     C81153   1.636   4.455   6.059  0.1779  0.3026  0.7052
  602MOL0     C81154   1.610   4.570   6.126  0.1122 -0.1741 -0.4997
  602MOL0     C81155   1.591   4.567   6.271  0.3857  0.1607 -0.0144
  602MOL0     C81156   1.486   4.465   6.309 -0.1325  0.2823 -0.1253
  602MOL0     C81157   1.440   4.472   6.449  0.1610 -0.1272 -0.3078
  602MOL0     C81158   1.333   4.369   6.472 -0.5306  0.6090 -0.1268
  602MOL0     O81159   1.228   4.414   6.567 -0.5557 -0.3826  0.6963
  602MOL0     C81160   1.246   4.385   6.695 -0.0948 -0.1927 -0.1127
  602MOL0     C81161   1.369   4.358   6.761 -0.0374 -0.0082 -0.7666
  602MOL0     C81162   1.369   4.306   6.893 -0.1941 -0.5715 -0.5669
  602MOL0     C81163   1.250   4.272   6.959  0.7185  0.8060 -0.5192
  602MOL0     C81164   1.252   4.213   7.091  0.4836 -0.4163  0.2100
  602MOL0     O81165   1.362   4.244   7.171 -0.0218  0.2626 -0.1128
  602MOL0     C81166   1.358   4.198   7.302 -0.4052  1.3204 -0.2922
  602MOL0     C81167   1.447   4.091   7.341  0.0933 -1.2384 -0.3938
  602MOL0     C81168   1.431   4.050   7.474  0.4386  0.4480 -1.1556
  602MOL0     C81169   1.340   4.111   7.570  0.1250 -0.9189  0.4660
  602MOL0     O81170   1.343   4.065   7.697  0.1922  0.2466 -0.2653
  602MOL0     C81171   1.289   4.145   7.808 -0.3118  1.1559 -0.6352
  602MOL0     C81172   1.315   4.076   7.948  0.5333  0.4009 -1.2163
  602MOL0     C81173   1.234   4.145   8.066 -0.1452 -0.7733  0.1505
  602MOL0     C81174   1.207   4.044   8.183  0.0973  0.1186  0.5903
  602MOL0     C81175   1.136   4.119   8.298  0.8687  1.3107 -0.0231
  602MOL0     C81176   1.053   4.016   8.373  0.3558  0.0092 -0.3766
  602MOL0     C81177   1.036   4.064   8.523  0.3663 -0.6994  0.8447
  602MOL0     C81178   0.897   4.145   8.540 -0.2856 -0.8884 -0.1192
  602MOL0    Cl81179   0.850   4.237   8.391  0.0189 -0.0865  0.0184
  602MOL0     C81180   1.244   4.202   7.512 -0.1620  1.0847  0.0859
  602MOL0     C81181   1.257   4.248   7.384  0.5965  0.7247 -0.7278
  602MOL0     O81182   1.151   4.153   7.126 -0.2653  0.6866 -0.5902
  602MOL0     C81183   1.134   4.290   6.886  0.0945 -0.3303  0.8045
  602MOL0     C81184   1.134   4.351   6.759  1.1391  0.3708 -0.3033
  602MOL0     N81185   1.610   4.679   6.043 -0.4632 -0.6352  0.4414
  602MOL0     N81186   1.624   4.631   5.923 -0.3022  0.3716  0.4423
  602MOL0     C81187   1.959   4.429   4.623 -0.0582 -0.3197  0.3960
  602MOL0     C81188   2.037   4.425   4.503  0.1343  0.0128 -0.1424
  602MOL0     C81189   2.361   4.462   4.193  0.3271 -0.0400  0.0057
  602MOL0     C81190   2.373   4.332   4.154 -0.2325  1.2008 -0.0416
  602MOL0     C81191   2.428   4.307   4.027 -0.1904 -0.4796 -0.1460
  602MOL0     C81192   2.475   4.407   3.937 -0.1811  1.3813 -0.0779
  602MOL0     O81193   2.529   4.373   3.818 -0.4746 -0.6368  0.4083
  602MOL0     C81194   2.612   4.463   3.740 -0.1069  0.3933  0.4160
  602MOL0     C81195   2.658   4.410   3.608 -0.0928  0.2910  0.3682
  602MOL0     C81196   2.751   4.287   3.611  1.0152  0.3712  0.2527
  602MOL0     C81197   2.748   4.200   3.484  0.0258 -0.8509 -0.1520
  602MOL0     C81198   2.814   4.287   3.380 -0.8324 -0.2749 -0.1013
  602MOL0     C81199   2.858   4.366   3.297  0.2353 -0.4743 -0.0730
  602MOL0     C81200   2.478   4.535   3.983 -0.2267  0.2659 -0.5213
  602MOL0     C81201   2.423   4.564   4.112 -0.0685 -0.3436  0.2657
  602MOL0     C81202   2.437   4.712   4.151  0.8727 -1.0464  1.0846
  602MOL0     H81203   2.344   4.367   4.610 -0.6842 -0.9190 -2.8978
  602MOL0     H81204   2.199   4.366   4.843 -0.3632  1.1120  0.7930
  602MOL0     H81205   2.045   4.300   4.987 -0.6519  0.0121  0.9634
  602MOL0     H81206   2.047   4.478   4.990 -1.6243  1.1608 -1.9528
  602MOL0     H81207   1.830   4.261   5.071  2.4059 -0.7638  0.1835
  602MOL0     H81208   1.778   4.430   5.041 -0.2216 -0.2232  1.4905
  602MOL0     H81209   1.909   4.519   5.216  4.0421 -0.7115  0.5915
  602MOL0     H81210   2.000   4.366   5.233  0.6967  1.5678  2.5075
  602MOL0     H81211   1.702   4.413   5.283  0.4495 -2.7402 -4.4008
  602MOL0     H81212   1.782   4.264   5.322 -0.5877 -0.3881  1.6016
  602MOL0     H81213   1.932   4.396   5.489 -1.0246 -2.7106 -0.7904
  602MOL0     H81214   1.825   4.540   5.446  3.9932  0.4310 -1.1638
  602MOL0     H81215   1.629   4.394   5.538 -0.2452  0.3512 -0.0535
  602MOL0     H81216   1.743   4.283   5.589 -1.7000  0.1996  5.7710
  602MOL0     H81217   1.742   4.573   5.675  0.1502  0.4055  0.1631
  602MOL0     H81218   1.852   4.456   5.731 -0.1215 -0.6433  0.6609
  602MOL0     H81219   1.557   4.410   5.751  0.0692  3.7729 -0.5503
  602MOL0     H81220   1.686   4.316   5.851  2.6833  1.1521 -0.3347
  602MOL0     H81221   1.625   4.352   6.093 -2.8582  0.1693 -0.3953
  602MOL0     H81222   1.686   4.550   6.322  2.1745  1.3752 -2.7090
  602MOL0     H81223   1.546   4.661   6.302  3.5818  1.5341  0.8837
  602MOL0     H81224   1.401   4.478   6.241 -1.2914  1.1683  1.4219
  602MOL0     H81225   1.529   4.367   6.286 -2.0353 -0.0748 -2.6075
  602MOL0     H81226   1.398   4.568   6.481 -0.8231 -0.8463  0.6210
  602MOL0     H81227   1.525   4.452   6.516  1.5757 -2.4388 -2.6052
  602MOL0     H81228   1.376   4.272   6.502 -4.3130 -1.2002 -0.0098
  602MOL0     H81229   1.275   4.343   6.383 -2.2360 -0.6151  1.2752
  602MOL0     H81230   1.468   4.384   6.725  1.4615 -0.8076  2.4236
  602MOL0     H81231   1.458   4.314   6.954  0.0207  1.3964 -1.0636
  602MOL0     H81232   1.517   4.038   7.277  0.6434 -0.1960 -0.6854
  602MOL0     H81233   1.494   3.966   7.502 -0.6317  0.1729  0.5897
  602MOL0     H81234   1.328   4.246   7.822  1.2512  0.3170  1.7198
  602MOL0     H81235   1.180   4.149   7.798 -0.2309  3.1668 -0.9664
  602MOL0     H81236   1.276   3.974   7.940  0.7070  0.0364  1.6227
  602MOL0     H81237   1.421   4.085   7.973  0.0309  4.8006  0.0788
  602MOL0     H81238   1.290   4.230   8.105 -1.2422 -0.2410  0.5865
  602MOL0     H81239   1.136   4.180   8.034 -0.4584 -0.6824  1.1817
  602MOL0     H81240   1.307   4.012   8.213 -0.8491  0.8337  5.4332
  602MOL0     H81241   1.152   3.956   8.150 -0.2641  0.9537 -1.1417
  602MOL0     H81242   1.075   4.207   8.276 -0.9643 -0.0311 -0.5804
  602MOL0     H81243   1.213   4.170   8.356 -0.1734  1.6785  1.1076
  602MOL0     H81244   0.958   3.993   8.324  0.0272 -0.0615  0.2892
  602MOL0     H81245   1.116   3.926   8.377  0.7866 -0.1902 -5.2722
  602MOL0     H81246   1.119   4.128   8.552 -2.5142  2.6141  2.5502
  602MOL0     H81247   1.038   3.980   8.594  0.0738  0.1385  1.8628
  602MOL0     H81248   0.815   4.078   8.568 -0.7798  0.4764  1.8812
  602MOL0     H81249   0.906   4.215   8.623 -5.9169 -0.3599  0.4822
  602MOL0     H81250   1.167   4.250   7.572 -1.6224  0.0131 -0.8585
  602MOL0     H81251   1.196   4.331   7.350  1.4104  1.3155 -0.8022
  602MOL0     H81252   1.041   4.250   6.926  0.6894 -0.8944  1.6653
  602MOL0     H81253   1.041   4.338   6.704  0.9150  3.4966 -0.8296
  602MOL0     H81254   1.853   4.449   4.629 -0.3935 -1.0693 -1.9406
  602MOL0     H81255   2.007   4.466   4.407 -0.5404  2.4000  0.9950
  602MOL0     H81256   2.353   4.245   4.216 -2.2457 -0.7752 -3.1974
  602MOL0     H81257   2.441   4.202   4.003 -1.2491 -0.4808 -0.7448
  602MOL0     H81258   2.695   4.507   3.796 -1.2023  1.5727  1.1669
  602MOL0     H81259   2.547   4.547   3.713  1.4142  0.4505 -3.7785
  602MOL0     H81260   2.712   4.483   3.548  0.5055 -0.2767  0.2016
  602MOL0     H81261   2.567   4.379   3.555  1.3937  0.0518 -2.2123
  602MOL0     H81262   2.739   4.231   3.704  1.0731 -0.6205 -0.3275
  602MOL0     H81263   2.856   4.319   3.618  2.8122 -4.3965 -0.8677
  602MOL0     H81264   2.817   4.118   3.506  3.6169  2.1009  0.6223
  602MOL0     H81265   2.646   4.172   3.455  1.3633 -5.4116 -1.3552
  602MOL0     H81266   2.901   4.432   3.225  1.1592  1.1968  1.8922
  602MOL0     H81267   2.524   4.609   3.918  2.3956 -0.4025  0.4101
  602MOL0     H81268   2.336   4.736   4.186  0.6363  0.6004 -0.5646
  602MOL0     H81269   2.508   4.730   4.233  2.1347 -0.6299 -0.0688
  602MOL0     H81270   2.465   4.778   4.069  0.4650 -0.9779  0.9957
  603MOL0     O81271   6.470   0.816   9.631 -0.4380  0.4422 -0.1925
  603MOL0     C81272   6.395   0.910   9.615  0.0838 -0.7094 -0.1850
  603MOL0     O81273   6.428   1.040   9.641 -0.4958 -0.0270  0.2529
  603MOL0     C81274   6.554   1.057   9.693  0.7391  0.0783  0.1843
  603MOL0     C81275   6.574   1.093   9.823 -0.8762  0.6107 -0.7362
  603MOL0     C81276   6.698   1.137   9.861 -0.3045 -1.0863 -0.2845
  603MOL0     C81277   6.809   1.123   9.774  0.2652 -0.8368 -0.0390
  603MOL0     O81278   6.928   1.166   9.825  0.0614  0.4665 -0.6387
  603MOL0     C81279   7.038   1.081   9.806  0.1523 -0.2321  1.1517
  603MOL0     C81280   7.161   1.172   9.799  0.1283 -0.2101  0.0853
  603MOL0     C81281   7.293   1.100   9.799 -0.9636  0.6877 -0.0160
  603MOL0     C81282   7.314   1.015   9.671  0.8693 -0.4716 -0.1177
  603MOL0     C81283   7.418   0.896   9.703  0.6512 -0.1779  0.6069
  603MOL0     C81284   7.462   0.834   9.565  0.2125  0.4142 -0.3255
  603MOL0     C81285   7.351   0.784   9.471  1.0677  0.0777  0.8337
  603MOL0     C81286   7.414   0.700   9.354 -0.6105  0.5081 -0.2645
  603MOL0     N81287   7.329   0.607   9.281  0.2229 -0.5313 -0.3444
  603MOL0     C81288   7.216   0.539   9.322  0.1387 -0.4400 -0.5602
  603MOL0     C81289   7.167   0.478   9.212 -0.5274  0.2828  0.0708
  603MOL0     C81290   7.050   0.382   9.190  0.7754  0.0965  0.1937
  603MOL0     C81291   7.071   0.247   9.239 -0.8134  0.7918  0.1056
  603MOL0     C81292   6.959   0.152   9.207 -0.2160  0.0543 -0.1013
  603MOL0     C81293   6.994   0.011   9.259 -0.4149  1.1794  0.0018
  603MOL0     O81294   6.878  -0.060   9.298  0.1267  0.3546 -1.2021
  603MOL0     C81295   6.868  -0.189   9.246 -0.7717 -0.1828  0.2868
  603MOL0     C81296   6.865  -0.210   9.110  0.1139  0.3298 -1.0754
  603MOL0     C81297   6.854  -0.345   9.070  1.1324 -0.1425  0.7974
  603MOL0     C81298   6.840  -0.453   9.153  0.2975 -0.5180  0.2038
  603MOL0     C81299   6.824  -0.592   9.100 -0.0410  0.1298  0.1821
  603MOL0     O81300   6.819  -0.611   8.963 -0.1698 -0.5379 -0.5780
  603MOL0     C81301   6.780  -0.739   8.928 -0.0219  0.6443 -0.0960
  603MOL0     C81302   6.870  -0.847   8.939  0.5551  0.0247 -0.3703
  603MOL0     C81303   6.822  -0.970   8.882 -0.7841  0.0747  0.2713
  603MOL0     C81304   6.690  -0.989   8.835  0.8499 -0.6893  0.3641
  603MOL0     O81305   6.668  -1.116   8.776  0.2709 -0.2271 -0.0574
  603MOL0     C81306   6.536  -1.169   8.762  0.5304 -0.0327 -0.3377
  603MOL0     C81307   6.529  -1.300   8.672 -0.5801 -0.3941 -0.1109
  603MOL0     C81308   6.617  -1.414   8.720 -0.9751 -0.9412 -0.4223
  603MOL0     C81309   6.589  -1.543   8.653 -0.5429  0.5204  0.1869
  603MOL0     C81310   6.640  -1.525   8.504 -0.4074  0.1988  1.1052
  603MOL0     C81311   6.631  -1.671   8.451 -0.1058  0.4667 -0.2516
  603MOL0     C81312   6.661  -1.679   8.299  0.9182  0.4830 -0.6239
  603MOL0     C81313   6.614  -1.813   8.250  0.1896 -0.4726  0.4692
  603MOL0    Cl81314   6.679  -1.824   8.086  0.0729 -0.2660  0.4486
  603MOL0     C81315   6.600  -0.878   8.843 -0.4059  0.1819  0.7425
  603MOL0     C81316   6.644  -0.758   8.897  0.3924 -0.3401  0.9389
  603MOL0     O81317   6.818  -0.683   9.182 -0.4834 -0.2141 -0.0315
  603MOL0     C81318   6.848  -0.426   9.289  0.2969 -0.8902  0.8149
  603MOL0     C81319   6.865  -0.294   9.336  0.9144  0.0599  1.1123
  603MOL0     N81320   7.258   0.497   9.111  0.4926 -0.6158 -0.7769
  603MOL0     N81321   7.359   0.568   9.157 -0.0573 -0.4595 -0.1857
  603MOL0     C81322   6.789   1.077   9.644  0.8470 -0.9457  0.5767
  603MOL0     C81323   6.656   1.051   9.595 -0.1680  0.1756  0.1650
  603MOL0     C81324   6.257   0.899   9.549 -0.7045  0.0990  1.0490
  603MOL0     C81325   6.176   1.012   9.538 -0.7076  0.4157 -0.5032
  603MOL0     C81326   6.063   1.011   9.462  0.0603  1.1361  0.7073
  603MOL0     C81327   6.016   0.893   9.401 -0.7111 -1.2569  0.3971
  603MOL0     O81328   5.901   0.897   9.323 -0.0846  0.3961 -0.6159
  603MOL0     C81329   5.841   1.017   9.291  0.9458 -0.2252  0.2319
  603MOL0     C81330   5.732   0.981   9.195  0.5670  0.4822 -0.6512
  603MOL0     C81331   5.709   1.085   9.084  1.9378 -0.5766 -0.0764
  603MOL0     C81332   5.799   1.081   8.964  0.6761 -0.0738  0.1903
  603MOL0     C81333   5.813   0.948   8.908 -0.6959  0.2695  0.3052
  603MOL0     C81334   5.825   0.833   8.864 -0.3454 -0.7096 -0.4713
  603MOL0     C81335   6.090   0.781   9.418 -1.0113 -0.1685 -0.4136
  603MOL0     C81336   6.215   0.777   9.491  0.8349 -0.1102  0.0062
  603MOL0     C81337   6.283   0.647   9.488 -0.0258 -0.7102  0.6133
  603MOL0     H81338   6.490   1.110   9.890 -1.1563  0.8782 -1.1476
  603MOL0     H81339   6.716   1.185   9.956 -0.4148 -0.6925 -0.4623
  603MOL0     H81340   7.046   1.009   9.888  0.1523 -0.1648  1.2111
  603MOL0     H81341   7.034   1.025   9.712  1.1102  2.9521 -0.9263
  603MOL0     H81342   7.166   1.234   9.889  1.2639 -0.3121  0.1048
  603MOL0     H81343   7.148   1.235   9.711 -2.4741  1.8861  1.8109
  603MOL0     H81344   7.276   1.038   9.888  2.5570 -1.5902 -0.7432
  603MOL0     H81345   7.371   1.170   9.827 -0.3828  0.4045 -0.8851
  603MOL0     H81346   7.226   0.983   9.615  0.4877 -2.5870  1.5392
  603MOL0     H81347   7.375   1.073   9.601  0.6026  0.4965  0.4357
  603MOL0     H81348   7.503   0.928   9.764 -0.3781  1.8300  1.0971
  603MOL0     H81349   7.368   0.818   9.760 -1.1800  0.6759  0.2245
  603MOL0     H81350   7.515   0.917   9.518 -0.2126  4.0595  4.8321
  603MOL0     H81351   7.533   0.756   9.594 -1.6739 -0.2527  2.9377
  603MOL0     H81352   7.288   0.863   9.429  1.9881  2.3185  3.3621
  603MOL0     H81353   7.282   0.724   9.532  2.7287  1.8905  4.8710
  603MOL0     H81354   7.479   0.759   9.289 -2.1006  1.7051 -0.7275
  603MOL0     H81355   7.493   0.640   9.400 -1.0654 -0.8319 -1.1968
  603MOL0     H81356   7.173   0.553   9.421 -0.9758  1.9250 -1.2987
  603MOL0     H81357   6.965   0.422   9.246  2.0391  1.8616  0.9539
  603MOL0     H81358   7.021   0.374   9.085 -1.6601 -0.3626  0.8446
  603MOL0     H81359   7.152   0.210   9.175 -2.4073 -2.3043 -0.2500
  603MOL0     H81360   7.108   0.234   9.341  0.7124 -3.4043 -0.7795
  603MOL0     H81361   6.949   0.168   9.099  0.3149  3.1171  0.2198
  603MOL0     H81362   6.871   0.171   9.269  1.2065 -0.8989  2.3465
  603MOL0     H81363   7.053   0.011   9.350 -0.4031 -0.5102  0.0161
  603MOL0     H81364   7.061  -0.043   9.191 -0.5511  1.1598 -0.1193
  603MOL0     H81365   6.861  -0.125   9.043 -0.9837 -0.5112 -2.1347
  603MOL0     H81366   6.839  -0.362   8.963  1.9883  0.6197  0.5454
  603MOL0     H81367   6.968  -0.843   8.986  0.8578 -0.9130 -0.9155
  603MOL0     H81368   6.893  -1.052   8.874 -2.2338 -1.0213 -2.5277
  603MOL0     H81369   6.494  -1.198   8.859 -0.6606 -0.9143 -1.0877
  603MOL0     H81370   6.466  -1.093   8.724 -0.3578  0.5494  2.2284
  603MOL0     H81371   6.427  -1.338   8.662 -0.8467 -0.1899  1.5318
  603MOL0     H81372   6.547  -1.270   8.569 -2.0649 -1.8014 -0.8312
  603MOL0     H81373   6.722  -1.387   8.705 -0.3542 -1.7867  1.9394
  603MOL0     H81374   6.587  -1.421   8.825 -2.7939  1.8414 -0.6329
  603MOL0     H81375   6.483  -1.567   8.648 -0.6306  0.9165  0.1160
  603MOL0     H81376   6.644  -1.621   8.707 -1.5639 -0.7563 -0.5512
  603MOL0     H81377   6.747  -1.501   8.501 -0.8037  2.0165  0.5911
  603MOL0     H81378   6.579  -1.466   8.435 -1.0840 -3.5895 -1.8953
  603MOL0     H81379   6.700  -1.738   8.503 -0.4830 -1.5084 -2.1598
  603MOL0     H81380   6.527  -1.697   8.470  0.1750 -0.2996  0.2431
  603MOL0     H81381   6.769  -1.667   8.285  0.9094  1.7811  0.2596
  603MOL0     H81382   6.608  -1.597   8.249  0.9845 -0.6007 -2.5797
  603MOL0     H81383   6.661  -1.888   8.314 -0.0927  0.2345  1.5182
  603MOL0     H81384   6.505  -1.825   8.251  0.1028 -0.0740 -1.0865
  603MOL0     H81385   6.497  -0.885   8.810 -0.3436  1.8504  0.0824
  603MOL0     H81386   6.579  -0.671   8.900 -0.4705 -0.9716  0.7412
  603MOL0     H81387   6.852  -0.510   9.358  1.6094 -0.3723  1.3942
  603MOL0     H81388   6.863  -0.274   9.443  0.0921 -1.6573  1.4558
  603MOL0     H81389   6.871   1.072   9.573  0.2543  2.2398 -0.5229
  603MOL0     H81390   6.631   1.019   9.495 -0.9289 -1.5163  0.8610
  603MOL0     H81391   6.207   1.111   9.571  0.0884 -0.4231  1.4476
  603MOL0     H81392   6.005   1.102   9.462  0.4922  1.4616 -1.4666
  603MOL0     H81393   5.904   1.102   9.263 -0.6183  2.1056  3.2174
  603MOL0     H81394   5.793   1.057   9.381 -1.6358 -1.5390 -0.4602
  603MOL0     H81395   5.645   0.968   9.260  3.1326 -3.6371  2.4555
  603MOL0     H81396   5.750   0.884   9.146 -0.2420  0.0055 -0.0224
  603MOL0     H81397   5.698   1.181   9.135  1.2281 -0.6544 -0.0707
  603MOL0     H81398   5.604   1.069   9.058  1.1652  3.8522 -0.5293
  603MOL0     H81399   5.760   1.156   8.895 -1.1128 -0.5716  0.5987
  603MOL0     H81400   5.901   1.107   8.992  1.0437 -1.5031  0.2532
  603MOL0     H81401   5.818   0.733   8.825 -2.0527 -0.6787 -0.3059
  603MOL0     H81402   6.048   0.687   9.385 -3.1510  0.1126  1.2690
  603MOL0     H81403   6.307   0.626   9.593  0.3404  0.6395  0.8286
  603MOL0     H81404   6.216   0.563   9.468 -0.6212 -0.8662  2.9213
  603MOL0     H81405   6.369   0.650   9.420  1.9486  1.3678  2.9609
  604MOL0     O81406   5.556   0.798   4.683 -0.4256 -0.5899  0.3064
  604MOL0     C81407   5.638   0.820   4.771 -0.4000  0.1302 -0.6516
  604MOL0     O81408   5.714   0.726   4.826 -0.1327 -0.2940  0.9018
  604MOL0     C81409   5.682   0.599   4.789  0.2925  0.1369  1.0135
  604MOL0     C81410   5.642   0.508   4.881  0.2041 -0.8465 -0.3628
  604MOL0     C81411   5.625   0.379   4.845 -0.3023  0.3759  0.3383
  604MOL0     C81412   5.648   0.337   4.718 -0.0361  0.1639  0.0805
  604MOL0     O81413   5.647   0.205   4.678  0.2876  0.6041 -0.4518
  604MOL0     C81414   5.580   0.096   4.761  0.3497  0.5299  0.5505
  604MOL0     C81415   5.643  -0.040   4.720  0.3996 -0.0936  0.4813
  604MOL0     C81416   5.573  -0.162   4.786 -0.8776 -0.0372 -0.4718
  604MOL0     C81417   5.594  -0.173   4.942  0.3950 -0.0135  0.0313
  604MOL0     C81418   5.484  -0.252   5.018 -0.8097 -0.1575 -0.0309
  604MOL0     C81419   5.499  -0.402   4.990  0.9386 -0.3391  0.0281
  604MOL0     C81420   5.389  -0.481   5.068 -0.0538 -0.1445 -0.2232
  604MOL0     C81421   5.236  -0.462   5.036 -0.1300  1.0045 -0.0881
  604MOL0     N81422   5.207  -0.515   4.904  1.0394 -0.4830  0.5420
  604MOL0     C81423   5.178  -0.433   4.792 -0.3011  0.1227 -0.1152
  604MOL0     C81424   5.213  -0.507   4.680  0.1344 -0.2816 -0.3642
  604MOL0     C81425   5.192  -0.460   4.535 -1.0021  0.6022  1.4657
  604MOL0     C81426   5.325  -0.440   4.462  0.2852 -0.1532  0.0896
  604MOL0     C81427   5.285  -0.331   4.357  0.0616 -0.2818  0.0132
  604MOL0     C81428   5.265  -0.188   4.430 -0.4051 -1.0947 -0.0358
  604MOL0     O81429   5.382  -0.091   4.420 -0.8624 -0.4008  0.8940
  604MOL0     C81430   5.388  -0.017   4.302  0.3387 -0.3511  0.3181
  604MOL0     C81431   5.482   0.090   4.300  0.6599 -0.1438  0.2926
  604MOL0     C81432   5.490   0.173   4.180 -0.3424 -0.4472 -0.4877
  604MOL0     C81433   5.420   0.151   4.061 -0.5350  0.6892  0.5173
  604MOL0     C81434   5.428   0.238   3.943 -0.3012 -0.4702 -0.5368
  604MOL0     O81435   5.522   0.336   3.956 -1.4038  0.9560 -0.3626
  604MOL0     C81436   5.525   0.421   3.851  0.5065 -0.6253  0.6328
  604MOL0     C81437   5.415   0.489   3.796 -0.1007  0.0126 -0.3237
  604MOL0     C81438   5.434   0.574   3.693 -0.2958  0.2428  0.7925
  604MOL0     C81439   5.559   0.589   3.629 -0.6049  0.6268 -0.4218
  604MOL0     O81440   5.576   0.667   3.518 -0.2309 -0.5873 -0.1482
  604MOL0     C81441   5.705   0.718   3.480  0.2723  0.5979 -0.1586
  604MOL0     C81442   5.710   0.860   3.539  0.0534  0.8516 -0.1377
  604MOL0     C81443   5.591   0.945   3.525 -0.0639 -0.2519 -0.2509
  604MOL0     C81444   5.634   1.095   3.546 -0.2278 -0.0348 -0.0180
  604MOL0     C81445   5.523   1.197   3.558 -0.1181 -0.2085  0.5679
  604MOL0     C81446   5.576   1.339   3.539 -0.7491 -0.2703 -0.1581
  604MOL0     C81447   5.466   1.438   3.542 -0.3729  0.0483 -0.3156
  604MOL0     C81448   5.494   1.558   3.451  0.0465 -0.0078  0.2711
  604MOL0    Cl81449   5.354   1.677   3.432 -0.6558  0.4503  0.1082
  604MOL0     C81450   5.670   0.521   3.686  0.1612  0.1388  0.3319
  604MOL0     C81451   5.645   0.438   3.792 -0.5947  0.5656 -0.6485
  604MOL0     O81452   5.357   0.210   3.845 -0.0443 -0.0897 -0.1945
  604MOL0     C81453   5.332   0.034   4.071  0.4284 -0.3238 -0.0196
  604MOL0     C81454   5.310  -0.043   4.184 -0.8027  0.8704 -1.0644
  604MOL0     N81455   5.244  -0.633   4.732 -0.6437  0.1841  0.5641
  604MOL0     N81456   5.247  -0.635   4.860  0.7490 -0.1282 -0.6862
  604MOL0     C81457   5.692   0.421   4.628  0.6679  0.1547  0.7942
  604MOL0     C81458   5.714   0.553   4.657 -0.0247  0.8868 -0.9379
  604MOL0     C81459   5.635   0.956   4.831 -1.1953  0.0751 -0.6947
  604MOL0     C81460   5.640   1.072   4.749  0.5594 -0.0211 -0.0990
  604MOL0     C81461   5.650   1.201   4.801  0.0002  0.1238  0.9550
  604MOL0     C81462   5.672   1.218   4.935  0.6249 -0.1317  0.4553
  604MOL0     O81463   5.712   1.349   4.968  0.0094 -0.6046 -0.4814
  604MOL0     C81464   5.688   1.391   5.106 -0.9070 -0.5653  0.0202
  604MOL0     C81465   5.771   1.512   5.139 -0.0174 -0.6930 -0.4104
  604MOL0     C81466   5.781   1.553   5.291  0.3373 -0.4973 -0.2072
  604MOL0     C81467   5.652   1.533   5.367 -0.0787 -0.0061  0.0936
  604MOL0     C81468   5.543   1.618   5.318  0.4280 -0.5377 -0.2592
  604MOL0     C81469   5.447   1.658   5.252 -0.2326 -0.8490 -0.0831
  604MOL0     C81470   5.651   1.105   5.027 -0.2090  0.6696 -0.4792
  604MOL0     C81471   5.646   0.976   4.974  0.6681  0.4489  0.3384
  604MOL0     C81472   5.614   0.870   5.069 -1.0078  0.0655 -0.1745
  604MOL0     H81473   5.614   0.546   4.979  2.5926 -0.6808  0.3401
  604MOL0     H81474   5.604   0.309   4.926  2.0265  1.9470  2.4468
  604MOL0     H81475   5.594   0.102   4.869  4.6867  1.9268  0.1173
  604MOL0     H81476   5.472   0.106   4.749  0.3856  2.2302  1.3227
  604MOL0     H81477   5.750  -0.035   4.741  0.1277  1.3355  1.7281
  604MOL0     H81478   5.630  -0.046   4.612  3.5672 -0.1304  0.0141
  604MOL0     H81479   5.610  -0.256   4.746 -0.5273 -0.8345  1.5890
  604MOL0     H81480   5.466  -0.161   4.762 -1.0568  3.3329 -0.1273
  604MOL0     H81481   5.692  -0.220   4.957 -0.1863 -0.9521  1.0214
  604MOL0     H81482   5.603  -0.069   4.975  1.2284 -0.2736  0.6718
  604MOL0     H81483   5.478  -0.234   5.125 -0.5753 -2.0471  0.3320
  604MOL0     H81484   5.388  -0.216   4.980 -2.1727 -0.4341  2.8807
  604MOL0     H81485   5.498  -0.413   4.881 -1.7796  0.4549 -0.0880
  604MOL0     H81486   5.601  -0.434   5.016  0.7056 -0.0463  1.3737
  604MOL0     H81487   5.408  -0.463   5.175  0.2934  2.7217 -0.6755
  604MOL0     H81488   5.407  -0.588   5.056 -2.8017 -0.4107 -3.0666
  604MOL0     H81489   5.189  -0.514   5.120  2.2012  2.3236  2.2186
  604MOL0     H81490   5.212  -0.356   5.051 -0.0311  0.7275  2.5831
  604MOL0     H81491   5.139  -0.332   4.798  1.8276  0.8965  3.8212
  604MOL0     H81492   5.146  -0.537   4.471  1.2598 -0.0844  0.5525
  604MOL0     H81493   5.130  -0.370   4.534 -0.9402  0.8550 -2.9586
  604MOL0     H81494   5.404  -0.403   4.528 -0.7147 -2.0388  2.5032
  604MOL0     H81495   5.359  -0.527   4.405 -0.9534  0.7696 -2.1657
  604MOL0     H81496   5.195  -0.359   4.301  1.4841 -2.0685 -1.5096
  604MOL0     H81497   5.357  -0.324   4.275 -1.9533 -0.6687 -1.8861
  604MOL0     H81498   5.255  -0.199   4.538 -0.3098 -3.0924 -0.1926
  604MOL0     H81499   5.177  -0.133   4.396  0.7062  0.5471 -0.4140
  604MOL0     H81500   5.557   0.106   4.377  1.0168 -0.8487  0.1043
  604MOL0     H81501   5.558   0.257   4.180 -1.0740  0.2179 -2.8683
  604MOL0     H81502   5.322   0.471   3.848  0.2532 -1.7646 -0.2290
  604MOL0     H81503   5.349   0.625   3.648 -0.0160  0.1628  0.1618
  604MOL0     H81504   5.789   0.652   3.505  0.5799  0.6540 -1.0194
  604MOL0     H81505   5.706   0.722   3.371  0.7571  2.8910 -0.1269
  604MOL0     H81506   5.728   0.863   3.647 -2.3379  1.6241  0.3104
  604MOL0     H81507   5.800   0.905   3.496  0.5610  4.0987  3.7299
  604MOL0     H81508   5.551   0.937   3.424 -0.9968  1.2221 -0.0401
  604MOL0     H81509   5.519   0.918   3.604  0.6443  0.7658  0.7775
  604MOL0     H81510   5.695   1.113   3.457 -1.2789 -0.7093 -0.8942
  604MOL0     H81511   5.694   1.111   3.636 -2.9547  1.3480  1.6692
  604MOL0     H81512   5.485   1.185   3.661  0.0358  0.5848  0.7242
  604MOL0     H81513   5.442   1.170   3.490  0.4015 -0.0428 -0.1285
  604MOL0     H81514   5.653   1.365   3.612 -0.7763  2.5798 -1.0540
  604MOL0     H81515   5.622   1.332   3.440 -3.9603  1.9802 -1.9900
  604MOL0     H81516   5.448   1.479   3.642 -0.5467  1.2614 -0.8340
  604MOL0     H81517   5.373   1.392   3.505  0.0237  0.9467 -2.6131
  604MOL0     H81518   5.570   1.607   3.512  0.1754 -0.4802  0.4953
  604MOL0     H81519   5.534   1.529   3.354 -1.1470 -2.6068  0.4833
  604MOL0     H81520   5.772   0.511   3.651 -0.1249 -1.5764 -0.1403
  604MOL0     H81521   5.723   0.373   3.831  0.8958  1.7744 -1.4916
  604MOL0     H81522   5.265   0.022   3.986 -0.8340 -0.6932  0.9964
  604MOL0     H81523   5.232  -0.117   4.187 -0.5609  0.6061 -1.3276
  604MOL0     H81524   5.724   0.381   4.532 -1.2553  1.5641 -0.5187
  604MOL0     H81525   5.770   0.622   4.595  1.8047  2.3254  2.0945
  604MOL0     H81526   5.621   1.072   4.642 -2.7733  1.4593  0.3618
  604MOL0     H81527   5.651   1.282   4.729 -2.0146 -0.4426  0.2138
  604MOL0     H81528   5.708   1.316   5.183 -1.3710 -1.1096 -0.3806
  604MOL0     H81529   5.580   1.409   5.103 -0.9022 -0.6525 -0.9975
  604MOL0     H81530   5.744   1.597   5.075  3.1090 -0.3071 -1.3700
  604MOL0     H81531   5.877   1.494   5.116  0.9297  1.8579  1.4700
  604MOL0     H81532   5.814   1.658   5.298  2.1424 -0.9653 -1.1485
  604MOL0     H81533   5.863   1.495   5.333 -0.4453 -2.3974 -1.1842
  604MOL0     H81534   5.611   1.432   5.376  1.5856 -0.4927  3.4055
  604MOL0     H81535   5.668   1.557   5.472 -1.8313  1.6722  0.0254
  604MOL0     H81536   5.357   1.691   5.204  0.2642  1.6516  0.5793
  604MOL0     H81537   5.672   1.123   5.132  0.0154  0.0244 -0.4076
  604MOL0     H81538   5.524   0.817   5.037 -1.6766  0.2596  1.3008
  604MOL0     H81539   5.699   0.802   5.073 -0.3488  0.5289 -3.4150
  604MOL0     H81540   5.594   0.914   5.167  3.6271 -0.8180  1.4146
  605MOL0     O81541   8.842   0.980  11.440 -0.4526 -0.2078 -1.2683
  605MOL0     C81542   8.830   0.879  11.509 -0.1258 -0.0798  0.7395
  605MOL0     O81543   8.930   0.815  11.574  0.6050 -0.4661 -0.0163
  605MOL0     C81544   9.044   0.886  11.603 -0.1874 -0.1728 -0.8469
  605MOL0     C81545   9.142   0.915  11.504  0.4385  0.3464  0.2702
  605MOL0     C81546   9.265   0.958  11.547 -0.6424  0.0922 -0.0092
  605MOL0     C81547   9.294   0.985  11.682  0.4995  0.4942 -0.6312
  605MOL0     O81548   9.426   1.010  11.725 -0.1805  0.0512 -0.0181
  605MOL0     C81549   9.478   1.139  11.681  0.4813  0.7871 -0.5654
  605MOL0     C81550   9.568   1.200  11.796 -0.0556  1.2567 -0.0131
  605MOL0     C81551   9.474   1.233  11.918 -0.0573 -0.7194 -1.0446
  605MOL0     C81552   9.540   1.345  12.001 -1.1660  0.2532 -0.4120
  605MOL0     C81553   9.504   1.353  12.153  0.3729  0.0166  0.7872
  605MOL0     C81554   9.570   1.240  12.234 -0.1122 -0.2994 -0.4410
  605MOL0     C81555   9.713   1.243  12.234 -0.3833 -0.9520 -0.5527
  605MOL0     C81556   9.789   1.110  12.214  0.1491  0.0363  0.3790
  605MOL0     N81557   9.722   0.998  12.270  0.5479 -0.4000 -0.8236
  605MOL0     C81558   9.697   0.963  12.394 -0.3230  0.1762  0.6641
  605MOL0     C81559   9.648   0.837  12.390  1.1117 -0.4738  0.1316
  605MOL0     C81560   9.617   0.743  12.508 -0.1266 -0.8800  0.0615
  605MOL0     C81561   9.717   0.630  12.527  0.5767 -0.8280  0.3184
  605MOL0     C81562   9.668   0.522  12.624 -0.0297  0.0908 -0.2900
  605MOL0     C81563   9.748   0.398  12.605  0.3299  0.2111  0.2083
  605MOL0     O81564   9.718   0.313  12.719  0.0311  0.6916  0.3164
  605MOL0     C81565   9.821   0.263  12.791  0.6668 -0.8906 -0.5581
  605MOL0     C81566   9.903   0.346  12.858 -0.2208 -0.4096  0.6772
  605MOL0     C81567  10.005   0.292  12.936 -0.7280 -0.5266 -1.2679
  605MOL0     C81568  10.041   0.155  12.944  0.3119  0.1759  0.4597
  605MOL0     C81569  10.133   0.088  13.044  0.6755  0.0764 -0.0746
  605MOL0     O81570  10.128  -0.056  13.056  0.2061 -0.3760  0.3970
  605MOL0     C81571  10.210  -0.116  13.150  0.4709  0.4964  0.3638
  605MOL0     C81572  10.330  -0.174  13.111  0.0058  0.7344 -0.2018
  605MOL0     C81573  10.411  -0.239  13.202 -0.2247 -0.0896  0.1827
  605MOL0     C81574  10.387  -0.227  13.336 -0.4011 -0.0969  0.7186
  605MOL0     O81575  10.451  -0.299  13.423  0.5236  0.4204 -0.0768
  605MOL0     C81576  10.581  -0.339  13.386  0.9925 -0.0725  0.2711
  605MOL0     C81577  10.655  -0.392  13.515  0.7028  0.5043 -0.3754
  605MOL0     C81578  10.698  -0.290  13.622 -0.4784 -0.3550 -0.0336
  605MOL0     C81579  10.797  -0.190  13.565 -0.6711  0.8682 -0.1139
  605MOL0     C81580  10.849  -0.092  13.672 -0.4430 -0.3870  0.3090
  605MOL0     C81581  10.963  -0.141  13.759  0.8021 -0.5220 -0.3817
  605MOL0     C81582  10.991  -0.055  13.887  0.0106 -0.0400 -0.4066
  605MOL0     C81583  11.004  -0.140  14.013  0.2895 -0.1150 -0.9033
  605MOL0    Cl81584  10.836  -0.182  14.064  0.2736 -0.1020 -0.2888
  605MOL0     C81585  10.273  -0.162  13.382 -0.2662  0.2403 -0.3969
  605MOL0     C81586  10.187  -0.103  13.287 -0.4263  0.9502 -0.4635
  605MOL0     O81587  10.213   0.161  13.097  0.5081 -0.0575 -0.5392
  605MOL0     C81588   9.961   0.071  12.869 -0.7226  0.0361 -0.4996
  605MOL0     C81589   9.858   0.127  12.801  1.3296  0.1653  0.6776
  605MOL0     N81590   9.639   0.800  12.254 -0.6753  0.5650  0.1121
  605MOL0     N81591   9.688   0.897  12.192 -0.0707  0.7432 -0.2043
  605MOL0     C81592   9.195   0.950  11.779 -0.6652 -1.4747  0.0312
  605MOL0     C81593   9.068   0.900  11.742  0.4274  1.0336  0.3065
  605MOL0     C81594   8.694   0.799  11.501 -0.4460 -0.1254  0.7962
  605MOL0     C81595   8.694   0.675  11.570  0.9670  1.1008  0.5322
  605MOL0     C81596   8.597   0.586  11.530 -0.1245 -0.5567  0.3407
  605MOL0     C81597   8.481   0.616  11.453  0.5117  0.0333 -0.0460
  605MOL0     O81598   8.378   0.524  11.424 -0.3409 -0.2328  0.2966
  605MOL0     C81599   8.429   0.405  11.354  0.0832  0.2256  0.7646
  605MOL0     C81600   8.369   0.283  11.414 -0.4495 -0.4364 -0.3025
  605MOL0     C81601   8.418   0.239  11.552  0.5258 -0.2750 -0.5166
  605MOL0     C81602   8.350   0.109  11.607  0.2629  0.2902  0.1406
  605MOL0     C81603   8.336   0.007  11.501 -0.2807  0.5600  0.3518
  605MOL0     C81604   8.314  -0.099  11.438  0.0782  0.0119  1.3971
  605MOL0     C81605   8.477   0.744  11.399 -0.6659  0.0825 -0.3915
  605MOL0     C81606   8.585   0.828  11.412  0.0161 -0.0417  0.3492
  605MOL0     C81607   8.585   0.962  11.336  1.0838 -0.5330 -0.1590
  605MOL0     H81608   9.139   0.902  11.396 -3.9667  0.7247  0.1850
  605MOL0     H81609   9.342   0.987  11.476 -0.1910  3.3058  1.5878
  605MOL0     H81610   9.543   1.127  11.594  0.5327  0.5703 -0.5000
  605MOL0     H81611   9.394   1.205  11.658 -1.6593 -2.6700 -4.0611
  605MOL0     H81612   9.625   1.285  11.757  1.4069 -0.5916 -2.1705
  605MOL0     H81613   9.632   1.120  11.832 -1.7532 -0.0383  0.2521
  605MOL0     H81614   9.451   1.151  11.986 -3.9105 -0.0026 -1.2837
  605MOL0     H81615   9.382   1.285  11.891  2.0032  2.9161 -1.8568
  605MOL0     H81616   9.648   1.335  11.994 -1.2709 -0.7106 -0.8298
  605MOL0     H81617   9.519   1.436  11.945  0.2853  0.3107 -0.9012
  605MOL0     H81618   9.539   1.452  12.182  2.6850 -0.3203 -0.5239
  605MOL0     H81619   9.395   1.354  12.160  0.3783 -0.0344  0.8836
  605MOL0     H81620   9.530   1.235  12.336 -1.5216 -3.5537 -1.0037
  605MOL0     H81621   9.524   1.145  12.204 -2.7911 -0.1574  2.6293
  605MOL0     H81622   9.748   1.277  12.332 -1.8457 -0.1426 -0.2805
  605MOL0     H81623   9.754   1.318  12.166 -1.2685 -4.2178 -5.1531
  605MOL0     H81624   9.790   1.103  12.105 -2.8130  2.7718  0.0245
  605MOL0     H81625   9.888   1.116  12.261  0.4410  4.0859 -0.4095
  605MOL0     H81626   9.712   1.020  12.486  1.2017  1.1221 -0.1302
  605MOL0     H81627   9.620   0.803  12.600 -1.7878  1.6162 -1.3741
  605MOL0     H81628   9.511   0.721  12.500 -0.1588 -0.9077  0.5750
  605MOL0     H81629   9.736   0.592  12.426 -0.7358 -2.4988  0.6693
  605MOL0     H81630   9.808   0.674  12.571  0.7098  3.7116 -3.5513
  605MOL0     H81631   9.563   0.502  12.603  0.4541 -1.2850 -1.5556
  605MOL0     H81632   9.673   0.554  12.729  0.5809 -1.1459  0.0705
  605MOL0     H81633   9.856   0.414  12.597  0.0187  1.3874 -2.8110
  605MOL0     H81634   9.714   0.348  12.514  0.3666 -1.4234  1.0472
  605MOL0     H81635   9.906   0.454  12.859 -0.3463 -0.3952 -0.0601
  605MOL0     H81636  10.065   0.364  12.991 -2.7670  0.6060 -0.4458
  605MOL0     H81637  10.342  -0.200  13.007  1.0952  0.1154  0.0611
  605MOL0     H81638  10.495  -0.292  13.159 -1.9137 -4.7046  1.9450
  605MOL0     H81639  10.562  -0.426  13.322  1.3644 -0.1257  0.2328
  605MOL0     H81640  10.635  -0.259  13.335  0.4259  0.0955 -0.0796
  605MOL0     H81641  10.588  -0.452  13.577 -1.2770  1.6751 -1.2995
  605MOL0     H81642  10.738  -0.455  13.480  1.1913 -0.9670  2.9627
  605MOL0     H81643  10.617  -0.231  13.667  0.1361 -0.0090  0.6489
  605MOL0     H81644  10.742  -0.347  13.705  0.2917 -0.5200 -0.5499
  605MOL0     H81645  10.748  -0.126  13.491 -1.9592  2.3878  1.9345
  605MOL0     H81646  10.882  -0.243  13.522 -1.7517  0.1661 -1.4372
  605MOL0     H81647  10.772  -0.039  13.728  1.0535  1.1486  1.0059
  605MOL0     H81648  10.893  -0.014  13.609 -1.8818  0.6517  0.5486
  605MOL0     H81649  10.918  -0.237  13.788  0.0178 -0.3723 -1.0501
  605MOL0     H81650  11.050  -0.165  13.698 -1.2271 -1.9685 -2.9144
  605MOL0     H81651  10.916   0.023  13.903  0.3038  0.9249 -3.1951
  605MOL0     H81652  11.089  -0.013  13.861  1.4766 -3.6029 -1.1582
  605MOL0     H81653  11.070  -0.225  13.992 -1.3855 -2.7215  3.1313
  605MOL0     H81654  11.044  -0.078  14.093 -1.2033  1.5302 -1.3647
  605MOL0     H81655  10.254  -0.177  13.488 -2.7997 -4.5602 -1.2424
  605MOL0     H81656  10.089  -0.063  13.314 -1.4408 -1.3946 -0.4080
  605MOL0     H81657   9.959  -0.037  12.880 -0.5696  0.2179  1.7840
  605MOL0     H81658   9.794   0.061  12.744  0.3839  0.7275  1.0734
  605MOL0     H81659   9.223   0.961  11.883  3.2765 -0.2848 -0.9745
  605MOL0     H81660   8.991   0.869  11.812 -0.6794  2.9024 -0.0216
  605MOL0     H81661   8.768   0.633  11.637 -0.9113 -4.0299 -0.1857
  605MOL0     H81662   8.606   0.488  11.576  0.0776 -0.9826 -0.5898
  605MOL0     H81663   8.538   0.397  11.353  0.2012  1.5753 -0.3048
  605MOL0     H81664   8.389   0.408  11.252  1.0164 -1.7033  0.3078
  605MOL0     H81665   8.391   0.208  11.337 -3.3672 -1.0490 -0.6942
  605MOL0     H81666   8.260   0.296  11.414 -0.2658  2.2809 -3.5858
  605MOL0     H81667   8.412   0.327  11.617 -0.4143 -1.6639  1.3722
  605MOL0     H81668   8.524   0.214  11.544 -0.2139 -3.6133 -1.7854
  605MOL0     H81669   8.417   0.075  11.686  0.1556 -0.4060 -0.0628
  605MOL0     H81670   8.255   0.136  11.653  1.3227 -0.5347  3.0261
  605MOL0     H81671   8.287  -0.192  11.392  0.4968 -0.3669  1.9075
  605MOL0     H81672   8.386   0.762  11.342 -1.3717  1.4012  1.0705
  605MOL0     H81673   8.495   0.958  11.273  0.2472 -0.8601  1.0154
  605MOL0     H81674   8.591   1.049  11.401 -1.4162 -0.2862 -0.1630
  605MOL0     H81675   8.667   0.968  11.265  0.9833  1.2060 -0.1678
  606MOL0     O81676  10.723   5.721  11.423 -0.3529  0.0750 -0.4098
  606MOL0     C81677  10.830   5.777  11.400  0.7894  0.2701 -0.7207
  606MOL0     O81678  10.951   5.727  11.358  0.2708  0.0857  0.1721
  606MOL0     C81679  10.964   5.590  11.351 -1.4441  0.7639  0.4951
  606MOL0     C81680  10.936   5.495  11.448 -0.1773  0.0576 -1.0247
  606MOL0     C81681  10.960   5.360  11.439 -0.4633 -0.2594 -0.1486
  606MOL0     C81682  11.027   5.313  11.327 -1.2138  0.8268 -0.4281
  606MOL0     O81683  11.046   5.176  11.332  0.0637  0.4707  0.2393
  606MOL0     C81684  11.097   5.099  11.225  0.5437 -0.8262  0.8423
  606MOL0     C81685  10.993   5.085  11.110 -0.0132 -0.0281  1.4693
  606MOL0     C81686  10.872   4.992  11.148 -0.2331  0.4362 -0.6826
  606MOL0     C81687  10.759   4.999  11.042 -0.0086  0.5234 -0.0718
  606MOL0     C81688  10.680   4.863  11.056  0.1230 -0.2877 -0.4179
  606MOL0     C81689  10.611   4.856  11.194 -0.2127 -0.4544 -1.3276
  606MOL0     C81690  10.517   4.737  11.204  0.0652  0.3851 -0.2034
  606MOL0     C81691  10.416   4.744  11.326 -0.3655 -0.0729  0.1389
  606MOL0     N81692  10.314   4.849  11.314  0.8443 -0.3552  0.1606
  606MOL0     C81693  10.331   4.978  11.357 -0.5102  0.7863  0.2824
  606MOL0     C81694  10.211   5.036  11.331  0.1564 -0.5206 -0.1322
  606MOL0     C81695  10.171   5.182  11.365  0.6117 -0.2526 -0.6222
  606MOL0     C81696  10.059   5.220  11.455  0.7444  0.1068 -0.6905
  606MOL0     C81697   9.921   5.181  11.398  0.3843  0.5408 -0.7071
  606MOL0     C81698   9.805   5.231  11.474  0.6075  0.4028  0.4858
  606MOL0     O81699   9.831   5.349  11.555 -0.3441  1.0092  0.1439
  606MOL0     C81700   9.726   5.384  11.642  0.0073 -0.3686  0.5849
  606MOL0     C81701   9.753   5.421  11.776 -0.2981 -0.6395  0.1574
  606MOL0     C81702   9.653   5.431  11.869  0.9183 -0.3493 -0.1882
  606MOL0     C81703   9.513   5.401  11.828 -0.1005  0.1158 -0.6794
  606MOL0     C81704   9.392   5.394  11.926  0.0327 -0.1006  0.1234
  606MOL0     O81705   9.427   5.407  12.050 -0.7292 -0.1530  0.4001
  606MOL0     C81706   9.323   5.392  12.139 -0.0016  0.5957 -1.7348
  606MOL0     C81707   9.243   5.500  12.191 -0.3279  0.4962 -0.7494
  606MOL0     C81708   9.147   5.488  12.294  0.0140 -0.1227  0.1068
  606MOL0     C81709   9.122   5.361  12.349 -0.1065 -0.7400 -0.9963
  606MOL0     O81710   9.012   5.346  12.446 -0.2801 -0.4582  0.0398
  606MOL0     C81711   9.025   5.232  12.537 -0.3465 -1.0653  0.2997
  606MOL0     C81712   8.941   5.277  12.664  0.2327 -0.3037 -0.0405
  606MOL0     C81713   8.790   5.254  12.631  0.1321 -0.3710  0.5445
  606MOL0     C81714   8.689   5.300  12.735 -0.0420 -0.2627 -0.5914
  606MOL0     C81715   8.653   5.190  12.837 -0.0191  0.3271 -0.5087
  606MOL0     C81716   8.565   5.239  12.945  1.5253  0.3650  0.3229
  606MOL0     C81717   8.503   5.122  13.031 -0.1125  0.1158 -0.5329
  606MOL0     C81718   8.394   5.179  13.125 -0.0402 -0.1182  0.0001
  606MOL0    Cl81719   8.317   5.032  13.188 -0.3409 -0.4466  0.6183
  606MOL0     C81720   9.206   5.255  12.312  0.7774  0.1245  0.3882
  606MOL0     C81721   9.298   5.271  12.208  0.0016  1.0845  0.5001
  606MOL0     O81722   9.284   5.367  11.883  0.1466  0.2313 -0.2601
  606MOL0     C81723   9.483   5.381  11.692  0.2070 -0.6932  0.1735
  606MOL0     C81724   9.595   5.373  11.604 -0.3388  0.2761 -0.6541
  606MOL0     N81725  10.129   4.943  11.284  0.1724 -1.0801  0.3125
  606MOL0     N81726  10.184   4.836  11.279  0.1579 -0.0409  0.1227
  606MOL0     C81727  11.066   5.398  11.227  1.2011 -0.7708  0.1592
  606MOL0     C81728  11.019   5.535  11.227 -0.4343  0.2805 -0.2476
  606MOL0     C81729  10.825   5.928  11.388 -0.2775  0.7571  0.4139
  606MOL0     C81730  10.907   5.988  11.288  0.4713 -0.3210  0.0431
  606MOL0     C81731  10.895   6.124  11.257 -0.3973  0.3462  0.2086
  606MOL0     C81732  10.784   6.201  11.301 -1.1555 -0.2118  0.0074
  606MOL0     O81733  10.768   6.319  11.232  0.1042  0.3232  0.2512
  606MOL0     C81734  10.659   6.407  11.276 -1.1555 -0.4322  0.2801
  606MOL0     C81735  10.526   6.367  11.206 -0.5181  0.6656  0.3341
  606MOL0     C81736  10.398   6.420  11.270 -0.1778 -1.5201 -0.1978
  606MOL0     C81737  10.253   6.390  11.205 -0.6262 -0.2462  1.2807
  606MOL0     C81738  10.143   6.428  11.294  0.1634  0.1368  0.4081
  606MOL0     C81739  10.067   6.491  11.366 -0.3588  0.9563  1.2005
  606MOL0     C81740  10.705   6.144  11.397  1.5445 -0.0950 -0.2093
  606MOL0     C81741  10.726   6.012  11.445  0.3217  0.3214  0.3016
  606MOL0     C81742  10.629   5.953  11.551 -0.9335  0.3742 -0.7418
  606MOL0     H81743  10.884   5.530  11.537  1.4972  0.8573 -0.3227
  606MOL0     H81744  10.935   5.287  11.516 -1.6020  1.1798  0.9196
  606MOL0     H81745  11.190   5.140  11.182 -1.6834  0.8291 -2.9242
  606MOL0     H81746  11.123   4.997  11.255 -2.0696 -1.8459 -0.1006
  606MOL0     H81747  11.045   5.034  11.029 -0.1224 -1.7162  2.4054
  606MOL0     H81748  10.959   5.181  11.070 -1.8641 -0.0813  2.7990
  606MOL0     H81749  10.842   5.031  11.246 -2.8996 -2.1230 -0.3359
  606MOL0     H81750  10.908   4.894  11.180  3.0036  1.0811 -1.9751
  606MOL0     H81751  10.693   5.085  11.024 -1.0154 -0.1455  0.3096
  606MOL0     H81752  10.814   4.982  10.949 -1.2071 -2.2512 -0.3557
  606MOL0     H81753  10.613   4.858  10.970  0.2249  1.1381 -0.6077
  606MOL0     H81754  10.746   4.776  11.063  0.5009  0.0849  0.7872
  606MOL0     H81755  10.685   4.874  11.272 -0.7660  1.1190 -1.1344
  606MOL0     H81756  10.544   4.941  11.190 -0.5709 -0.7376 -1.3846
  606MOL0     H81757  10.572   4.643  11.195  0.1536  0.5710 -2.1609
  606MOL0     H81758  10.454   4.750  11.116 -1.5508  0.0422  0.8589
  606MOL0     H81759  10.375   4.644  11.341  0.3800 -0.3047  0.6821
  606MOL0     H81760  10.478   4.759  11.415 -0.5926  2.4643 -0.0442
  606MOL0     H81761  10.419   5.032  11.392 -1.2890  1.2579  1.5891
  606MOL0     H81762  10.263   5.217  11.414 -0.3091 -1.8131  2.4878
  606MOL0     H81763  10.158   5.240  11.273  1.0822  1.8970  0.5800
  606MOL0     H81764  10.062   5.188  11.559 -1.4428 -0.1489 -0.6727
  606MOL0     H81765  10.059   5.330  11.459  1.4668  0.0957 -0.1032
  606MOL0     H81766   9.903   5.073  11.392 -4.1999  0.9773  1.2932
  606MOL0     H81767   9.920   5.220  11.295 -1.6460  1.7656 -0.2780
  606MOL0     H81768   9.768   5.158  11.546 -0.8155  2.3203  1.8063
  606MOL0     H81769   9.719   5.249  11.408  0.1631 -0.0400  0.9389
  606MOL0     H81770   9.857   5.431  11.805 -0.5981 -2.0271  1.8669
  606MOL0     H81771   9.673   5.448  11.974  0.5164  0.0388 -0.1717
  606MOL0     H81772   9.250   5.601  12.152  1.1944  0.4164 -0.7535
  606MOL0     H81773   9.087   5.574  12.322 -0.3437  0.6318 -2.7022
  606MOL0     H81774   8.989   5.135  12.500 -0.5551 -0.9737  0.2660
  606MOL0     H81775   9.128   5.217  12.570 -0.4426 -0.5214  0.8646
  606MOL0     H81776   8.956   5.206  12.746 -2.5941  0.6598  1.4405
  606MOL0     H81777   8.955   5.380  12.697  1.2848  0.1404 -1.7690
  606MOL0     H81778   8.767   5.300  12.534 -0.2307  0.6656  1.1067
  606MOL0     H81779   8.767   5.151  12.605 -3.2176  0.8866 -2.2883
  606MOL0     H81780   8.604   5.347  12.685 -0.6537 -0.3882  0.3007
  606MOL0     H81781   8.745   5.377  12.790 -0.2140  0.3589 -1.2774
  606MOL0     H81782   8.752   5.155  12.868 -1.4272 -2.8396  0.9134
  606MOL0     H81783   8.604   5.104  12.790  1.2606 -1.1253  0.6837
  606MOL0     H81784   8.604   5.316  13.011  1.5507 -1.1171  2.1305
  606MOL0     H81785   8.482   5.291  12.897  2.3619  0.8866 -0.6167
  606MOL0     H81786   8.576   5.077  13.098 -1.1303 -1.3213 -0.3312
  606MOL0     H81787   8.457   5.051  12.961 -0.2607  0.3948 -0.7177
  606MOL0     H81788   8.432   5.239  13.208  0.4060  1.0337 -1.0035
  606MOL0     H81789   8.317   5.245  13.083 -0.2501  0.4777  1.2561
  606MOL0     H81790   9.187   5.159  12.359  0.5759 -0.8934 -1.6679
  606MOL0     H81791   9.363   5.192  12.173 -0.8632  0.4922  0.2101
  606MOL0     H81792   9.382   5.385  11.652 -0.4087  0.8624  1.7567
  606MOL0     H81793   9.580   5.372  11.497  0.5232  1.2697 -0.8044
  606MOL0     H81794  11.121   5.357  11.143  0.4443 -1.9925  0.2373
  606MOL0     H81795  11.035   5.611  11.152 -1.2104  2.1413  1.3927
  606MOL0     H81796  10.994   5.947  11.238  3.1737  3.1771  1.4712
  606MOL0     H81797  10.964   6.161  11.181  1.4552 -1.2681  1.0330
  606MOL0     H81798  10.673   6.514  11.257  0.9706 -0.7128  0.0714
  606MOL0     H81799  10.646   6.400  11.385 -0.3987  2.7335  0.6889
  606MOL0     H81800  10.520   6.258  11.211  4.7073  0.1469  0.7623
  606MOL0     H81801  10.541   6.399  11.103  1.7147  0.5251  0.5514
  606MOL0     H81802  10.417   6.528  11.276  4.6969 -2.2056  0.9120
  606MOL0     H81803  10.390   6.391  11.375 -2.7585  1.6251  0.6356
  606MOL0     H81804  10.235   6.435  11.107 -1.9780 -1.7029  0.8149
  606MOL0     H81805  10.242   6.281  11.208 -1.4273 -0.3851 -2.1572
  606MOL0     H81806  10.006   6.551  11.430  1.5911  1.8811  2.2962
  606MOL0     H81807  10.620   6.197  11.439 -1.0996 -2.5282 -2.0700
  606MOL0     H81808  10.591   6.032  11.617 -3.0813 -0.1162 -1.2885
  606MOL0     H81809  10.544   5.903  11.503  0.2348 -0.0701 -2.4225
  606MOL0     H81810  10.678   5.880  11.616 -2.4092  2.4886  3.0525
  607MOL0     O81811   1.170   1.449   7.830  0.0151  0.7376  0.3801
  607MOL0     C81812   1.284   1.457   7.862 -0.1072 -0.4808 -0.1983
  607MOL0     O81813   1.386   1.368   7.829  0.2094  0.5028 -1.0156
  607MOL0     C81814   1.345   1.269   7.735 -0.8151 -0.7870  0.9365
  607MOL0     C81815   1.288   1.148   7.787 -0.6939 -0.7788 -0.7149
  607MOL0     C81816   1.246   1.049   7.691  0.3913 -1.4960  0.3426
  607MOL0     C81817   1.274   1.066   7.553  0.6801  0.6740 -0.1205
  607MOL0     O81818   1.237   0.979   7.454  0.1166  0.2005 -0.0734
  607MOL0     C81819   1.230   0.841   7.492  1.4113 -0.0311 -0.7364
  607MOL0     C81820   1.216   0.763   7.365  0.0397  0.7646  0.1554
  607MOL0     C81821   1.162   0.623   7.391 -0.6883 -0.3632 -0.5446
  607MOL0     C81822   1.106   0.568   7.253  0.6964 -0.3918  0.3452
  607MOL0     C81823   1.017   0.440   7.275  0.1424 -0.3083  0.2596
  607MOL0     C81824   1.114   0.315   7.281  1.0980 -0.2945 -1.0443
  607MOL0     C81825   1.026   0.187   7.273 -0.7487  0.5686 -0.6625
  607MOL0     C81826   1.111   0.066   7.313 -0.2091  0.0733 -0.6949
  607MOL0     N81827   1.078   0.028   7.451  0.7438 -0.9273 -0.7175
  607MOL0     C81828   0.959  -0.043   7.481  0.3224  0.2362 -1.2316
  607MOL0     C81829   0.984  -0.083   7.612  0.6385 -0.9250  0.7505
  607MOL0     C81830   0.914  -0.185   7.693 -0.2538  0.2647  0.1198
  607MOL0     C81831   0.778  -0.123   7.746  0.3421 -0.0428  0.4362
  607MOL0     C81832   0.695  -0.234   7.803  0.1033  0.3706  0.2409
  607MOL0     C81833   0.549  -0.186   7.834 -0.8681  0.6939 -0.7666
  607MOL0     O81834   0.538  -0.134   7.969 -0.6678 -0.0760 -0.2481
  607MOL0     C81835   0.551  -0.211   8.077  0.3398  0.2765 -0.7391
  607MOL0     C81836   0.585  -0.347   8.084 -0.3171  0.3916 -0.3507
  607MOL0     C81837   0.599  -0.421   8.207  0.6102 -0.3492  0.3095
  607MOL0     C81838   0.564  -0.361   8.328  1.1094 -0.1114 -0.3684
  607MOL0     C81839   0.557  -0.437   8.459 -1.0568  0.4116  0.0771
  607MOL0     O81840   0.632  -0.552   8.470  0.0517  0.1062  0.0003
  607MOL0     C81841   0.634  -0.638   8.587 -1.3852 -0.2093  1.0985
  607MOL0     C81842   0.530  -0.727   8.613 -0.1581  0.8688 -0.2396
  607MOL0     C81843   0.535  -0.812   8.729 -0.1283 -1.4164 -0.3459
  607MOL0     C81844   0.638  -0.805   8.831  1.6146 -0.2744  0.5833
  607MOL0     O81845   0.626  -0.882   8.940 -0.5409 -0.3706  0.5269
  607MOL0     C81846   0.715  -0.845   9.051 -0.3527  1.1580  0.5026
  607MOL0     C81847   0.656  -0.888   9.181 -0.2011 -0.2667 -0.2154
  607MOL0     C81848   0.708  -1.020   9.229  0.1600  0.4282 -0.9785
  607MOL0     C81849   0.684  -1.051   9.381  1.3615 -0.5320 -0.1906
  607MOL0     C81850   0.536  -1.049   9.418 -0.4128  0.0973 -0.0005
  607MOL0     C81851   0.535  -1.068   9.570  0.1900  0.8283  0.3450
  607MOL0     C81852   0.399  -1.101   9.628  1.5182  0.0452  0.2108
  607MOL0     C81853   0.378  -1.247   9.609  0.6796  0.6484 -0.1054
  607MOL0    Cl81854   0.475  -1.342   9.715 -0.1895 -0.1012  0.1586
  607MOL0     C81855   0.740  -0.703   8.798 -0.4942  0.2018 -0.4109
  607MOL0     C81856   0.737  -0.630   8.678  0.2876  0.0185  0.6999
  607MOL0     O81857   0.486  -0.396   8.547  0.2464 -0.6971 -0.3671
  607MOL0     C81858   0.525  -0.227   8.326 -1.4597  0.4746  0.4906
  607MOL0     C81859   0.520  -0.152   8.201  0.4749  1.1747  0.5907
  607MOL0     N81860   1.112  -0.036   7.660  0.2268  0.2485 -0.4135
  607MOL0     N81861   1.159   0.025   7.560 -0.4662 -0.2401  0.9425
  607MOL0     C81862   1.323   1.187   7.511 -0.2625  1.0707  0.2846
  607MOL0     C81863   1.362   1.297   7.598 -0.2114 -0.1308 -0.4526
  607MOL0     C81864   1.329   1.544   7.970  0.9723 -0.1007  0.0674
  607MOL0     C81865   1.451   1.615   7.949  0.4207  0.7965 -0.5280
  607MOL0     C81866   1.477   1.716   8.043  0.5580  0.0631  0.3450
  607MOL0     C81867   1.397   1.755   8.146  0.5739  0.1323 -1.4839
  607MOL0     O81868   1.420   1.861   8.231 -0.7391  0.4840 -0.7716
  607MOL0     C81869   1.516   1.961   8.190  0.0198 -0.3450  0.4783
  607MOL0     C81870   1.479   2.100   8.241 -0.0795 -0.6162  0.5222
  607MOL0     C81871   1.334   2.156   8.228  0.2143  0.9465 -0.7560
  607MOL0     C81872   1.288   2.178   8.081  0.3592  0.7221  0.1632
  607MOL0     C81873   1.260   2.050   8.012 -0.4263  0.0149 -0.1122
  607MOL0     C81874   1.225   1.942   7.959  0.2174  0.1645  0.1380
  607MOL0     C81875   1.277   1.691   8.157  0.2914 -0.0906 -0.6229
  607MOL0     C81876   1.238   1.585   8.074 -0.9575  0.0327  0.5502
  607MOL0     C81877   1.105   1.514   8.114 -0.5586  0.4986 -0.1741
  607MOL0     H81878   1.268   1.146   7.893  0.1623  1.1606 -0.4702
  607MOL0     H81879   1.193   0.966   7.735 -0.1484 -0.5511  1.5522
  607MOL0     H81880   1.311   0.797   7.551 -2.0593 -3.0057  2.2642
  607MOL0     H81881   1.137   0.832   7.549  1.2713 -1.6500 -1.1516
  607MOL0     H81882   1.314   0.757   7.316 -0.4971  2.7919 -1.2611
  607MOL0     H81883   1.150   0.817   7.297  0.2516  1.1592  0.2591
  607MOL0     H81884   1.090   0.630   7.473  0.9634 -0.8688  1.0272
  607MOL0     H81885   1.238   0.561   7.440 -1.2819 -0.4917  0.2311
  607MOL0     H81886   1.050   0.648   7.206  2.4656  1.0112  0.5119
  607MOL0     H81887   1.185   0.547   7.180  2.7213 -1.2453  2.6206
  607MOL0     H81888   0.968   0.452   7.372 -2.9226 -3.8961 -0.5725
  607MOL0     H81889   0.948   0.431   7.190 -0.4491  3.6838  0.1315
  607MOL0     H81890   1.187   0.310   7.199 -0.0375  0.5914 -2.1552
  607MOL0     H81891   1.171   0.327   7.373 -0.8431  2.2755 -0.0923
  607MOL0     H81892   0.993   0.174   7.170  4.2269  1.6674 -2.7146
  607MOL0     H81893   0.938   0.195   7.338 -2.2278 -0.0600 -2.5117
  607MOL0     H81894   1.093  -0.027   7.258 -0.0765 -0.7146  0.5733
  607MOL0     H81895   1.216   0.094   7.299 -0.3018  1.7906  1.5191
  607MOL0     H81896   0.873  -0.074   7.423 -1.9688 -0.8531  2.4433
  607MOL0     H81897   0.905  -0.272   7.628  0.8580  1.5932 -1.9176
  607MOL0     H81898   0.985  -0.214   7.771  1.2569  1.0034 -0.9250
  607MOL0     H81899   0.793  -0.046   7.822  0.8949 -1.5505  1.9030
  607MOL0     H81900   0.724  -0.078   7.662 -0.4664 -2.0643 -0.1976
  607MOL0     H81901   0.751  -0.269   7.890  2.6771 -1.8365 -2.1273
  607MOL0     H81902   0.690  -0.320   7.736 -1.2906  0.7940 -0.2371
  607MOL0     H81903   0.490  -0.278   7.827  0.3372  0.0095 -2.8518
  607MOL0     H81904   0.523  -0.123   7.748  3.6047 -0.0143 -2.9239
  607MOL0     H81905   0.609  -0.405   7.995 -1.8579 -2.9185  1.2161
  607MOL0     H81906   0.612  -0.529   8.213  1.3693 -0.2306  0.9642
  607MOL0     H81907   0.444  -0.721   8.547  0.7546 -1.3672 -1.7724
  607MOL0     H81908   0.457  -0.886   8.743 -1.2397  0.0838  2.1762
  607MOL0     H81909   0.814  -0.891   9.039  0.1128  1.9165  1.3296
  607MOL0     H81910   0.728  -0.737   9.049 -0.4340  1.1891 -1.9528
  607MOL0     H81911   0.682  -0.809   9.253  2.3487 -0.2330 -1.0744
  607MOL0     H81912   0.547  -0.887   9.167 -0.0804 -1.1491 -1.3223
  607MOL0     H81913   0.650  -1.097   9.179 -0.6322  0.6964 -0.4905
  607MOL0     H81914   0.815  -1.032   9.209  0.7886 -0.6180  2.4259
  607MOL0     H81915   0.730  -0.962   9.426 -0.2541  2.1318 -3.3725
  607MOL0     H81916   0.732  -1.143   9.416  2.9420  0.4045  0.2279
  607MOL0     H81917   0.483  -1.126   9.361  1.6428 -1.3721 -0.0399
  607MOL0     H81918   0.492  -0.951   9.398  0.7860  0.3705 -1.5412
  607MOL0     H81919   0.615  -1.136   9.602  0.6508  1.3879  0.3930
  607MOL0     H81920   0.564  -0.971   9.612  1.8819  1.0084 -1.1020
  607MOL0     H81921   0.311  -1.068   9.570 -0.3893 -3.0826  1.0836
  607MOL0     H81922   0.391  -1.064   9.731 -0.0183 -2.8134  1.2479
  607MOL0     H81923   0.280  -1.285   9.639  0.9892  0.1594  0.2913
  607MOL0     H81924   0.394  -1.277   9.505 -2.4291 -0.2635 -0.4207
  607MOL0     H81925   0.826  -0.696   8.864  0.5166  0.7914 -1.7574
  607MOL0     H81926   0.827  -0.570   8.664  0.7392 -0.8315 -0.1486
  607MOL0     H81927   0.506  -0.166   8.414  0.3544  4.7166 -1.7441
  607MOL0     H81928   0.477  -0.053   8.187  0.1921  1.0947  0.8722
  607MOL0     H81929   1.332   1.206   7.405 -2.6425  3.8662  0.4576
  607MOL0     H81930   1.404   1.390   7.562  1.0752  0.1515  1.6128
  607MOL0     H81931   1.518   1.583   7.869  2.2925 -0.7303  1.5378
  607MOL0     H81932   1.580   1.752   8.036  1.0689 -1.4229 -0.0888
  607MOL0     H81933   1.530   1.975   8.083  0.7110  3.5782  0.9549
  607MOL0     H81934   1.614   1.935   8.233 -1.2970 -2.9523  2.1715
  607MOL0     H81935   1.554   2.172   8.207  1.7493 -2.6173  0.1206
  607MOL0     H81936   1.505   2.083   8.346  0.8602  2.3009  0.8551
  607MOL0     H81937   1.316   2.241   8.294 -2.5393 -1.5334  2.0308
  607MOL0     H81938   1.274   2.079   8.278  6.4312 -3.9692  0.3457
  607MOL0     H81939   1.200   2.242   8.082  0.3259  0.7078 -0.9743
  607MOL0     H81940   1.364   2.225   8.017  0.9275 -0.4864 -0.0802
  607MOL0     H81941   1.196   1.844   7.927  0.1655  0.1534  0.2180
  607MOL0     H81942   1.213   1.726   8.238  0.9985  0.3384 -0.2379
  607MOL0     H81943   1.020   1.581   8.098 -1.7229 -1.1010 -0.8798
  607MOL0     H81944   1.083   1.420   8.063 -3.1042  0.7864  0.2330
  607MOL0     H81945   1.103   1.485   8.220  0.6746  0.8142 -0.0522
  608MOL0     O81946   9.822   6.967   7.597  0.1356  1.0608  0.0691
  608MOL0     C81947   9.843   6.907   7.493 -0.2673 -0.2139 -0.1957
  608MOL0     O81948   9.759   6.826   7.427  0.6851  0.2995  0.2566
  608MOL0     C81949   9.631   6.792   7.476 -0.0172 -0.9291  0.9210
  608MOL0     C81950   9.516   6.875   7.447  0.2070 -0.2212  0.5691
  608MOL0     C81951   9.394   6.837   7.495  0.5018 -0.7062 -0.4742
  608MOL0     C81952   9.381   6.735   7.592  0.0485 -0.7619  0.3330
  608MOL0     O81953   9.267   6.720   7.656  1.0536 -1.3896 -0.4250
  608MOL0     C81954   9.225   6.585   7.690  0.9440 -0.3155 -0.0425
  608MOL0     C81955   9.082   6.591   7.713 -0.5307 -0.2323  0.2849
  608MOL0     C81956   9.002   6.647   7.599  0.3047  0.3919  0.5729
  608MOL0     C81957   9.011   6.575   7.459 -0.6139 -0.5017  1.2955
  608MOL0     C81958   8.936   6.655   7.349  0.0012  0.7865  0.0571
  608MOL0     C81959   8.948   6.566   7.217 -0.5192 -0.4052 -1.1592
  608MOL0     C81960   8.823   6.556   7.141 -0.6545 -0.0732 -0.3053
  608MOL0     C81961   8.768   6.681   7.082 -0.5017 -0.4226  0.5114
  608MOL0     N81962   8.733   6.798   7.157  0.3021  0.5920  0.0432
  608MOL0     C81963   8.802   6.918   7.147  0.3993  0.3437  1.3749
  608MOL0     C81964   8.746   7.007   7.226 -0.3785  0.9457 -0.6041
  608MOL0     C81965   8.802   7.140   7.274 -0.6141  0.7287 -0.1966
  608MOL0     C81966   8.952   7.181   7.240  0.3968  0.4071 -1.0065
  608MOL0     C81967   8.950   7.337   7.230 -0.4091 -0.9843 -0.2876
  608MOL0     C81968   9.104   7.377   7.224  0.2392  0.1515  0.2061
  608MOL0     O81969   9.116   7.518   7.209 -0.5520  0.2977 -0.2927
  608MOL0     C81970   9.124   7.574   7.080  1.4006  0.6664 -0.8688
  608MOL0     C81971   9.094   7.711   7.073  0.1150  0.2804 -0.0185
  608MOL0     C81972   9.106   7.788   6.955  0.1525  0.9212 -0.0086
  608MOL0     C81973   9.161   7.717   6.842  0.4862 -0.4302 -0.5450
  608MOL0     C81974   9.189   7.792   6.718 -0.0855  0.2635  1.0646
  608MOL0     O81975   9.200   7.715   6.612  0.1938  0.3916  0.4029
  608MOL0     C81976   9.226   7.771   6.489 -0.4787  0.5407 -0.1228
  608MOL0     C81977   9.336   7.716   6.414  0.2007  0.4474  0.1009
  608MOL0     C81978   9.367   7.773   6.294 -0.6457 -0.3896 -0.3575
  608MOL0     C81979   9.298   7.885   6.248  0.4162 -0.7348  0.7609
  608MOL0     O81980   9.322   7.956   6.132 -0.3944  0.0792 -0.0613
  608MOL0     C81981   9.435   7.914   6.063 -0.0948 -0.4050 -0.1851
  608MOL0     C81982   9.403   7.802   5.970 -0.1620 -1.0965 -0.5128
  608MOL0     C81983   9.518   7.722   5.909 -0.0438 -0.8023  0.5858
  608MOL0     C81984   9.469   7.592   5.845 -0.0551 -0.1318 -0.3896
  608MOL0     C81985   9.403   7.498   5.945  0.2392  0.2741  0.8792
  608MOL0     C81986   9.488   7.431   6.054 -0.5358 -0.6477 -0.1762
  608MOL0     C81987   9.403   7.364   6.163  0.0164  1.1351  0.3356
  608MOL0     C81988   9.508   7.300   6.256 -0.4306 -0.2648  0.6554
  608MOL0    Cl81989   9.424   7.206   6.384  0.0828  0.0017 -0.3594
  608MOL0     C81990   9.194   7.937   6.322  0.3401 -0.1327 -0.6426
  608MOL0     C81991   9.158   7.881   6.444 -0.2212  0.0915  0.9217
  608MOL0     O81992   9.191   7.913   6.733 -0.3662 -0.3884  0.3435
  608MOL0     C81993   9.183   7.579   6.849  0.4940 -0.0978  0.3511
  608MOL0     C81994   9.161   7.503   6.966  0.5296  0.1544 -0.7497
  608MOL0     N81995   8.628   6.941   7.279 -0.4383  0.5511 -0.7959
  608MOL0     N81996   8.622   6.814   7.241 -0.3867 -1.0102 -0.2087
  608MOL0     C81997   9.500   6.662   7.623  0.2035  0.0820  0.2823
  608MOL0     C81998   9.622   6.689   7.562 -0.2443  0.5336  0.2242
  608MOL0     C81999   9.980   6.915   7.447  0.9447  0.5555 -0.1464
  608MOL0     C82000  10.085   6.893   7.535  0.1486  1.4930  0.4266
  608MOL0     C82001  10.215   6.886   7.491  0.4974 -0.3225  0.2849
  608MOL0     C82002  10.243   6.939   7.364 -0.0382 -0.5578 -0.1339
  608MOL0     O82003  10.374   6.940   7.335 -0.1189  0.4943  0.3603
  608MOL0     C82004  10.414   6.932   7.186  0.6386  0.7556 -0.8843
  608MOL0     C82005  10.563   6.990   7.187  0.9623  0.8844  1.0654
  608MOL0     C82006  10.639   6.935   7.051  0.3746 -1.2331 -0.1257
  608MOL0     C82007  10.686   6.783   7.044 -0.1919  0.2432  0.3876
  608MOL0     C82008  10.746   6.727   6.922  0.2618  0.4161 -0.3742
  608MOL0     C82009  10.815   6.677   6.830  0.8833  0.2533  0.1612
  608MOL0     C82010  10.144   6.997   7.296  0.8008 -0.3108  0.4175
  608MOL0     C82011  10.011   6.995   7.343 -0.1281  0.8344 -0.0381
  608MOL0     C82012   9.904   7.055   7.253  0.9057 -1.0171 -0.6507
  608MOL0     H82013   9.523   6.964   7.386 -1.4798 -1.8243 -2.1645
  608MOL0     H82014   9.306   6.887   7.456  0.8158 -0.9578 -1.5151
  608MOL0     H82015   9.244   6.516   7.607 -0.2713 -0.7622  0.0384
  608MOL0     H82016   9.278   6.550   7.780  3.7585  1.4704 -0.8705
  608MOL0     H82017   9.055   6.642   7.806  0.7134  2.3222 -0.6358
  608MOL0     H82018   9.046   6.489   7.728 -1.2555  0.0460  0.5268
  608MOL0     H82019   9.017   6.755   7.591  1.0940  0.3548  1.3769
  608MOL0     H82020   8.895   6.647   7.622  0.7728 -2.1896  3.4401
  608MOL0     H82021   9.115   6.573   7.427 -1.5630  1.4078 -2.4957
  608MOL0     H82022   8.971   6.473   7.452 -2.9465  0.4490 -0.6455
  608MOL0     H82023   8.831   6.671   7.375 -0.0361 -0.9036  1.0997
  608MOL0     H82024   8.987   6.751   7.336  0.0014  0.8100  0.2315
  608MOL0     H82025   9.025   6.620   7.161  1.7668  1.4359  3.2800
  608MOL0     H82026   8.991   6.467   7.235  0.4145  0.1325 -0.2957
  608MOL0     H82027   8.742   6.520   7.205 -2.5119 -0.4617 -2.6981
  608MOL0     H82028   8.830   6.475   7.068  1.7525 -3.8348  3.6564
  608MOL0     H82029   8.822   6.705   6.990  0.4484 -0.3423  1.0801
  608MOL0     H82030   8.674   6.645   7.038  0.9752 -3.5230 -0.3594
  608MOL0     H82031   8.895   6.934   7.092 -0.7276  1.3823 -0.3411
  608MOL0     H82032   8.744   7.211   7.215 -0.1569  0.9101 -0.4266
  608MOL0     H82033   8.771   7.146   7.379 -1.5128  0.9368 -0.4678
  608MOL0     H82034   9.012   7.154   7.327 -2.7759  0.2210  1.2997
  608MOL0     H82035   8.993   7.131   7.152  2.8464  2.1325 -0.9456
  608MOL0     H82036   8.899   7.375   7.319  0.6855 -1.3528  0.5138
  608MOL0     H82037   8.903   7.372   7.138  1.5122  1.0677 -0.5641
  608MOL0     H82038   9.149   7.317   7.144  0.8216 -0.6077  1.0782
  608MOL0     H82039   9.173   7.360   7.308  2.9636  1.7569 -1.5318
  608MOL0     H82040   9.061   7.749   7.168 -1.7537 -0.4721 -0.3307
  608MOL0     H82041   9.092   7.895   6.947 -1.0655  0.6352 -2.5871
  608MOL0     H82042   9.394   7.632   6.449  0.9245  0.8166 -0.1905
  608MOL0     H82043   9.452   7.733   6.239 -0.0242  0.9271 -0.4031
  608MOL0     H82044   9.474   7.992   5.998  5.0904 -2.1386  0.3902
  608MOL0     H82045   9.519   7.890   6.129 -1.0586 -2.1516  0.4814
  608MOL0     H82046   9.354   7.730   6.036  2.3700 -1.1424  1.4964
  608MOL0     H82047   9.355   7.843   5.881 -1.0271  0.4234  0.6110
  608MOL0     H82048   9.554   7.802   5.844  0.3265  0.9956  2.8791
  608MOL0     H82049   9.601   7.695   5.974  1.4042  2.3476  0.2492
  608MOL0     H82050   9.557   7.542   5.802  2.1785  3.9295 -1.0527
  608MOL0     H82051   9.394   7.618   5.769 -0.7331  2.5633  1.0766
  608MOL0     H82052   9.353   7.421   5.886  0.1373  1.3190 -0.4627
  608MOL0     H82053   9.318   7.543   5.997 -1.7646 -1.8491 -0.3937
  608MOL0     H82054   9.553   7.359   6.004  1.1216 -1.6234  3.0864
  608MOL0     H82055   9.566   7.492   6.100  0.9812 -3.3557  1.1021
  608MOL0     H82056   9.348   7.283   6.114  0.1665  0.4706  1.2394
  608MOL0     H82057   9.338   7.429   6.222  0.0004  0.2160  1.3648
  608MOL0     H82058   9.578   7.241   6.195 -0.3295 -0.0186  0.5328
  608MOL0     H82059   9.568   7.376   6.306 -0.2122 -0.4805  0.7228
  608MOL0     H82060   9.136   8.022   6.287 -0.1743 -1.5670 -3.6416
  608MOL0     H82061   9.072   7.913   6.502 -2.4297  0.5713 -2.3476
  608MOL0     H82062   9.224   7.516   6.770  0.5647 -1.9539  1.7924
  608MOL0     H82063   9.182   7.397   6.969  1.6696  0.2996  4.0015
  608MOL0     H82064   9.508   6.578   7.692  1.6313  1.7376  2.2605
  608MOL0     H82065   9.703   6.619   7.576 -2.0704 -1.4706  1.4711
  608MOL0     H82066  10.071   6.845   7.631  2.5226 -3.2546 -1.3066
  608MOL0     H82067  10.302   6.859   7.551  0.8781  0.8758  0.3034
  608MOL0     H82068  10.354   6.988   7.113  1.2212 -1.7345 -3.4484
  608MOL0     H82069  10.415   6.827   7.155  0.4187  0.2170  0.8033
  608MOL0     H82070  10.618   6.944   7.270  0.1732 -2.0202  0.1193
  608MOL0     H82071  10.562   7.099   7.195  2.1441  0.8744  1.5427
  608MOL0     H82072  10.722   7.003   7.029 -0.4634 -1.3520 -4.6775
  608MOL0     H82073  10.569   6.934   6.967 -0.3667 -3.7416  0.4132
  608MOL0     H82074  10.741   6.760   7.136 -2.0796 -0.2059  1.4613
  608MOL0     H82075  10.596   6.724   7.064  0.2534  0.1265  2.3101
  608MOL0     H82076  10.876   6.644   6.748  2.0526  0.0367  1.1019
  608MOL0     H82077  10.158   7.049   7.202 -1.3103 -1.8437 -0.8589
  608MOL0     H82078   9.898   7.163   7.264 -2.6203 -1.2732  1.3419
  608MOL0     H82079   9.943   7.028   7.154  0.1407  1.2851 -1.6414
  608MOL0     H82080   9.804   7.019   7.280  0.6080  0.4410  0.2751
  609MOL0     O82081   8.703   9.513  10.980  0.7269  0.4846 -0.4309
  609MOL0     C82082   8.605   9.574  11.010  0.9510 -0.0957  0.3405
  609MOL0     O82083   8.489   9.520  11.040 -0.1397  0.5855 -0.2326
  609MOL0     C82084   8.432   9.396  11.023  0.2103  1.1779  0.4276
  609MOL0     C82085   8.298   9.377  11.058 -0.3699 -0.8930  0.5801
  609MOL0     C82086   8.235   9.250  11.038 -0.2153  0.0993 -0.1780
  609MOL0     C82087   8.303   9.137  10.981  0.0876 -0.1759  0.0065
  609MOL0     O82088   8.242   9.021  10.987 -0.4514  0.9071  0.3948
  609MOL0     C82089   8.151   8.998  10.875  0.7976 -0.0044 -0.0726
  609MOL0     C82090   8.227   9.001  10.739  0.9185 -0.7230  0.3105
  609MOL0     C82091   8.294   8.865  10.700  0.0626 -0.2811 -0.2027
  609MOL0     C82092   8.213   8.775  10.609  1.0444 -0.8018 -0.4407
  609MOL0     C82093   8.292   8.636  10.579  0.5684 -0.4073 -1.2690
  609MOL0     C82094   8.192   8.532  10.526 -0.2169 -0.6806  0.2431
  609MOL0     C82095   8.218   8.509  10.374 -0.3823 -0.4216  0.0495
  609MOL0     C82096   8.149   8.383  10.321  0.3769 -0.0865  0.0883
  609MOL0     N82097   8.011   8.387  10.326  0.8116  0.4486  0.8614
  609MOL0     C82098   7.930   8.434  10.217 -0.2840  0.4073 -0.1209
  609MOL0     C82099   7.801   8.410  10.250  1.0790  0.1255  0.1508
  609MOL0     C82100   7.679   8.442  10.167  0.1433  0.1421  0.0429
  609MOL0     C82101   7.571   8.322  10.172 -0.9729 -0.3450  1.0014
  609MOL0     C82102   7.459   8.346  10.065 -0.2049  0.2893 -0.4274
  609MOL0     C82103   7.352   8.446  10.101 -0.3730  0.0079 -1.0958
  609MOL0     O82104   7.300   8.512   9.988  0.3995 -0.1305  0.9487
  609MOL0     C82105   7.209   8.605  10.013 -0.0275  0.4518 -0.2807
  609MOL0     C82106   7.205   8.707   9.925  0.2921 -0.2350  0.4400
  609MOL0     C82107   7.128   8.822   9.959 -0.7123 -0.2004 -0.6659
  609MOL0     C82108   7.031   8.814  10.056  1.1728  0.0164  0.5804
  609MOL0     C82109   6.925   8.925  10.071  0.7173  0.4684  0.6916
  609MOL0     O82110   6.845   8.912  10.179 -0.2466 -0.5738 -0.2993
  609MOL0     C82111   6.746   9.004  10.212  0.6002  0.4476  0.4844
  609MOL0     C82112   6.709   9.009  10.347  0.1326  1.5219 -0.1814
  609MOL0     C82113   6.609   9.092  10.392 -0.4082 -0.2737  0.0752
  609MOL0     C82114   6.541   9.177  10.306 -0.0783 -0.8140  0.2856
  609MOL0     O82115   6.431   9.246  10.350  0.2710 -0.4825  0.9632
  609MOL0     C82116   6.445   9.355  10.444  0.4495  0.5394  0.1207
  609MOL0     C82117   6.313   9.436  10.423 -0.3848  0.6310  0.1894
  609MOL0     C82118   6.305   9.507  10.290  0.6195 -0.4617  0.2957
  609MOL0     C82119   6.176   9.584  10.285  0.3874  0.1787  0.7268
  609MOL0     C82120   6.208   9.730  10.256  0.4482 -0.3771  0.3225
  609MOL0     C82121   6.087   9.828  10.285  0.1415  0.7095 -0.4616
  609MOL0     C82122   5.965   9.787  10.204  0.7236 -1.3015  0.5174
  609MOL0     C82123   5.836   9.867  10.244 -0.2072  0.1496 -0.1431
  609MOL0    Cl82124   5.845  10.051  10.229 -0.1386 -0.1573 -0.0176
  609MOL0     C82125   6.572   9.184  10.172  0.2456 -0.0727 -0.3970
  609MOL0     C82126   6.685   9.105  10.124 -0.0812  0.0441  0.0557
  609MOL0     O82127   6.923   9.019   9.988 -0.2854 -0.7118 -0.8313
  609MOL0     C82128   7.022   8.701  10.128  0.2169  0.3148 -0.5183
  609MOL0     C82129   7.114   8.599  10.116 -0.0569  0.4751  0.2476
  609MOL0     N82130   7.807   8.370  10.386  0.1353 -0.0461  0.1515
  609MOL0     N82131   7.933   8.355  10.428  1.1608  0.3149 -0.1492
  609MOL0     C82132   8.439   9.163  10.945  0.3054  0.2041 -0.7474
  609MOL0     C82133   8.501   9.285  10.976 -0.1281 -0.2790  0.3581
  609MOL0     C82134   8.609   9.725  11.004  0.3282  0.4240 -0.3506
  609MOL0     C82135   8.495   9.785  11.060 -0.2219  0.0989 -1.3116
  609MOL0     C82136   8.497   9.931  11.066 -0.0015 -0.2853  0.6736
  609MOL0     C82137   8.599  10.013  11.011 -0.6217 -0.1378 -0.4565
  609MOL0     O82138   8.600  10.152  11.001  0.5397  0.0550 -0.8592
  609MOL0     C82139   8.601  10.221  11.131 -0.0511 -0.0193  0.1553
  609MOL0     C82140   8.572  10.366  11.106 -0.4490  0.2203 -0.1031
  609MOL0     C82141   8.419  10.381  11.067  0.1115 -0.9093 -0.5466
  609MOL0     C82142   8.379  10.528  11.052  0.6820  0.3575  0.0936
  609MOL0     C82143   8.236  10.563  11.067  0.3916  0.0635  0.5038
  609MOL0     C82144   8.112  10.587  11.080  0.0029  0.0765 -0.6478
  609MOL0     C82145   8.706   9.950  10.951  0.2462  1.1442  0.0206
  609MOL0     C82146   8.716   9.804  10.948 -0.2167 -0.2717  0.5749
  609MOL0     C82147   8.824   9.739  10.859  1.0005 -0.4327 -1.4594
  609MOL0     H82148   8.248   9.469  11.086  2.1876  0.6770  0.3169
  609MOL0     H82149   8.134   9.227  11.070  1.2789 -2.3878  3.3966
  609MOL0     H82150   8.094   8.905  10.888  0.8261  0.3420  3.6104
  609MOL0     H82151   8.072   9.074  10.879 -0.7082 -1.5589  1.4590
  609MOL0     H82152   8.313   9.067  10.751 -0.0114  0.8208 -1.1957
  609MOL0     H82153   8.151   9.027  10.665 -1.6487 -2.5075  2.1479
  609MOL0     H82154   8.318   8.811  10.793 -1.2199  0.8936  0.8555
  609MOL0     H82155   8.389   8.876  10.648  0.5942  2.0711  1.1321
  609MOL0     H82156   8.111   8.756  10.645  0.7547  0.1383 -0.7202
  609MOL0     H82157   8.194   8.827  10.515  0.8941 -2.1767 -1.1965
  609MOL0     H82158   8.374   8.655  10.510 -1.1696 -0.0445 -3.3388
  609MOL0     H82159   8.324   8.592  10.674  0.3224  0.8843 -0.5533
  609MOL0     H82160   8.201   8.441  10.585 -0.7815 -0.7179  0.2741
  609MOL0     H82161   8.088   8.565  10.531 -0.4037 -0.6830 -2.2200
  609MOL0     H82162   8.325   8.506  10.350 -0.7116  0.2439 -1.5935
  609MOL0     H82163   8.170   8.593  10.323 -0.3539 -0.7116 -0.4694
  609MOL0     H82164   8.162   8.371  10.213 -1.9342 -1.6252 -0.1226
  609MOL0     H82165   8.193   8.300  10.377  1.8135  2.6586  3.3735
  609MOL0     H82166   7.953   8.477  10.120 -1.7433  6.0885  1.6882
  609MOL0     H82167   7.631   8.527  10.216 -0.1142 -1.2350  2.3305
  609MOL0     H82168   7.699   8.470  10.063  1.8318  1.0384  0.5846
  609MOL0     H82169   7.626   8.228  10.157  0.7911  0.2819  3.0037
  609MOL0     H82170   7.530   8.304  10.272 -3.9345 -0.3250 -0.1123
  609MOL0     H82171   7.406   8.250  10.054 -0.7703  0.3867  1.1993
  609MOL0     H82172   7.505   8.377   9.971  0.6979 -1.8796 -0.7672
  609MOL0     H82173   7.394   8.519  10.171 -0.9541  0.5270 -1.2836
  609MOL0     H82174   7.270   8.382  10.136 -0.1146 -0.3809 -1.1915
  609MOL0     H82175   7.280   8.713   9.847  0.1202  2.9386  0.4172
  609MOL0     H82176   7.134   8.919   9.910 -1.6755  0.3098  0.1970
  609MOL0     H82177   6.762   8.942  10.414  0.0925  1.6782  0.0061
  609MOL0     H82178   6.584   9.088  10.498 -2.0383  1.3038 -0.1904
  609MOL0     H82179   6.440   9.331  10.550  3.8927  1.7898  0.6801
  609MOL0     H82180   6.531   9.422  10.434  1.6769 -1.2532 -2.4376
  609MOL0     H82181   6.233   9.365  10.443  0.8811 -0.0980  3.2940
  609MOL0     H82182   6.301   9.510  10.503  0.1668 -1.2597  2.1086
  609MOL0     H82183   6.387   9.580  10.300 -0.4181  0.4811  2.7195
  609MOL0     H82184   6.316   9.442  10.203  1.2932 -1.0396  0.7921
  609MOL0     H82185   6.125   9.575  10.381 -1.6199  0.7504 -0.2363
  609MOL0     H82186   6.116   9.537  10.206  3.0346 -1.0190 -0.7094
  609MOL0     H82187   6.245   9.739  10.153  0.6217 -2.7892  0.1226
  609MOL0     H82188   6.293   9.771  10.310 -2.3505  3.2674  2.4038
  609MOL0     H82189   6.073   9.838  10.393 -0.8691  0.2255 -0.5411
  609MOL0     H82190   6.111   9.931  10.257  1.8661  0.6055  0.4883
  609MOL0     H82191   5.934   9.682  10.198 -2.2280 -0.5333  0.7410
  609MOL0     H82192   5.986   9.815  10.100  2.0856 -1.4907  0.7295
  609MOL0     H82193   5.757   9.832  10.177 -1.4663 -1.2802  1.9826
  609MOL0     H82194   5.792   9.837  10.339  2.0962 -1.3051  0.5480
  609MOL0     H82195   6.504   9.246  10.114 -0.1607 -0.1954 -0.0502
  609MOL0     H82196   6.720   9.129  10.024 -0.4190  4.1390  0.7326
  609MOL0     H82197   6.952   8.698  10.212 -4.3499  2.6899 -3.7996
  609MOL0     H82198   7.102   8.514  10.183  0.7307 -0.9216 -1.3226
  609MOL0     H82199   8.496   9.082  10.899  1.4367 -0.7536  2.0638
  609MOL0     H82200   8.608   9.287  10.958 -0.4640  1.4601 -1.7294
  609MOL0     H82201   8.408   9.731  11.095  0.9816 -1.5457 -0.7212
  609MOL0     H82202   8.408   9.968  11.115 -0.5464 -2.4284  1.4162
  609MOL0     H82203   8.698  10.206  11.180 -0.5231 -3.4481  0.3460
  609MOL0     H82204   8.524  10.174  11.193 -0.1571 -1.8161 -1.2410
  609MOL0     H82205   8.631  10.413  11.027 -2.6616  0.8523 -1.4637
  609MOL0     H82206   8.577  10.418  11.202  1.1523  1.7981 -0.9879
  609MOL0     H82207   8.362  10.345  11.153  0.8021  2.3078  1.4362
  609MOL0     H82208   8.386  10.332  10.975 -1.8323  0.0159 -0.4081
  609MOL0     H82209   8.439  10.595  11.114  0.7982 -1.0093  1.5057
  609MOL0     H82210   8.404  10.556  10.949  0.5794 -0.9551 -0.3083
  609MOL0     H82211   8.010  10.616  11.098  0.0285 -2.2048  5.1289
  609MOL0     H82212   8.787  10.006  10.906  2.6035 -1.2349  1.0169
  609MOL0     H82213   8.898   9.694  10.926  1.0788  3.6201  1.5671
  609MOL0     H82214   8.758   9.670  10.805 -0.8105  0.7870 -0.9099
  609MOL0     H82215   8.867   9.812  10.790 -1.2246  2.0099 -0.4409
  610MOL0     O82216   0.456   3.954   5.006 -0.3016 -0.1751 -0.2578
  610MOL0     C82217   0.488   4.067   4.996  0.2158  0.0646  0.3943
  610MOL0     O82218   0.617   4.113   4.986  0.1327  0.3278  0.2875
  610MOL0     C82219   0.709   4.020   4.934 -0.0081  0.0597 -0.3847
  610MOL0     C82220   0.684   3.930   4.824 -1.3212 -0.0820  0.0714
  610MOL0     C82221   0.782   3.836   4.797 -0.1111 -0.0587 -0.0962
  610MOL0     C82222   0.901   3.836   4.880 -0.3489  0.6326  0.3569
  610MOL0     O82223   1.002   3.742   4.867 -0.3123 -0.3825 -0.3793
  610MOL0     C82224   1.038   3.701   4.732 -0.1271  0.9394  0.1978
  610MOL0     C82225   1.150   3.603   4.734 -0.3635 -0.4550  0.7760
  610MOL0     C82226   1.280   3.659   4.775 -0.1017 -0.8106  0.4609
  610MOL0     C82227   1.386   3.547   4.778 -0.6502 -0.3311 -0.4304
  610MOL0     C82228   1.527   3.582   4.826 -0.2898  0.5701  0.5036
  610MOL0     C82229   1.529   3.674   4.956  0.2881  0.0660 -0.4101
  610MOL0     C82230   1.449   3.616   5.078 -0.3785  0.0157 -1.2532
  610MOL0     C82231   1.400   3.727   5.177  0.5218 -0.0178  0.8561
  610MOL0     N82232   1.487   3.826   5.227 -0.1010  0.3960  0.9363
  610MOL0     C82233   1.593   3.796   5.313 -2.3410 -0.0053  0.4499
  610MOL0     C82234   1.667   3.913   5.315  0.3820  0.3004 -0.9032
  610MOL0     C82235   1.790   3.948   5.392  0.2300  1.0607  1.0001
  610MOL0     C82236   1.904   3.963   5.312 -0.1760 -0.2749 -0.3214
  610MOL0     C82237   2.020   4.056   5.373  0.4237 -0.4980 -0.7519
  610MOL0     C82238   2.104   3.973   5.476 -1.0353 -1.0819  0.2299
  610MOL0     O82239   2.216   4.037   5.528 -0.0727  0.2041  0.1546
  610MOL0     C82240   2.288   3.966   5.620  0.4861 -0.2900  0.1535
  610MOL0     C82241   2.414   4.024   5.657 -0.7027 -0.3574  0.3248
  610MOL0     C82242   2.495   3.962   5.753  0.7598  0.1780 -0.3767
  610MOL0     C82243   2.457   3.835   5.803  0.3364 -0.2842 -0.0860
  610MOL0     C82244   2.530   3.756   5.906 -0.7361 -1.1193  1.1041
  610MOL0     O82245   2.646   3.815   5.945 -0.1315 -0.7653  0.4911
  610MOL0     C82246   2.718   3.762   6.046 -0.1209  0.5908 -0.7204
  610MOL0     C82247   2.672   3.780   6.185  0.0876 -0.0187 -0.6614
  610MOL0     C82248   2.760   3.736   6.295 -0.4742 -0.3538  1.2431
  610MOL0     C82249   2.876   3.667   6.266 -0.1083 -0.3655 -0.2620
  610MOL0     O82250   2.936   3.619   6.379  0.2432 -0.4592  0.3399
  610MOL0     C82251   3.071   3.573   6.383 -0.8304  0.7873  0.7591
  610MOL0     C82252   3.173   3.696   6.365 -0.0568 -0.2001  0.2400
  610MOL0     C82253   3.180   3.781   6.493  0.3528 -0.1656  0.3293
  610MOL0     C82254   3.282   3.894   6.486 -0.2530  0.3683  0.8002
  610MOL0     C82255   3.255   3.992   6.371  0.5834  0.3026  0.4284
  610MOL0     C82256   3.286   4.135   6.420 -0.7880  0.1624 -1.0820
  610MOL0     C82257   3.298   4.237   6.311  0.8871 -0.3653  0.0787
  610MOL0     C82258   3.397   4.341   6.346 -1.1401 -0.3671  0.6896
  610MOL0    Cl82259   3.569   4.291   6.317 -0.4133 -0.5137 -0.3919
  610MOL0     C82260   2.915   3.632   6.135  0.0156  0.0453 -0.0287
  610MOL0     C82261   2.838   3.685   6.024  0.2862  0.7375  0.9379
  610MOL0     O82262   2.486   3.655   5.948  0.3444  0.6886 -0.3093
  610MOL0     C82263   2.327   3.791   5.769 -0.1470  0.2024  0.0443
  610MOL0     C82264   2.242   3.851   5.681 -0.2566  0.9110 -0.3577
  610MOL0     N82265   1.609   4.002   5.228 -0.0982  0.4743 -0.1531
  610MOL0     N82266   1.500   3.950   5.183 -0.3005 -0.1276 -0.3062
  610MOL0     C82267   0.923   3.927   4.982 -0.2587 -0.1271  0.0285
  610MOL0     C82268   0.823   4.018   5.005  1.0087 -0.2337 -0.8225
  610MOL0     C82269   0.379   4.160   5.022  0.3819  0.6776  0.6974
  610MOL0     C82270   0.414   4.284   5.068 -0.8247 -0.4723  0.8715
  610MOL0     C82271   0.316   4.379   5.104  0.3631 -0.6482  0.2733
  610MOL0     C82272   0.176   4.345   5.084 -0.5706 -0.0973  1.0373
  610MOL0     O82273   0.075   4.430   5.124  0.0957  0.5572 -0.3286
  610MOL0     C82274   0.087   4.566   5.070 -0.5044 -0.7423 -0.1835
  610MOL0     C82275  -0.067   4.628   5.061 -0.9674  0.4520  0.3128
  610MOL0     C82276  -0.140   4.597   5.187 -0.5742 -0.3525  0.1188
  610MOL0     C82277  -0.255   4.689   5.187  0.1356  0.1270  0.1959
  610MOL0     C82278  -0.321   4.709   5.319  0.0597  0.5218  0.3419
  610MOL0     C82279  -0.380   4.752   5.411  0.0878 -0.8030 -1.1319
  610MOL0     C82280   0.142   4.226   5.028  0.2192  0.3026  0.3543
  610MOL0     C82281   0.240   4.132   4.994  0.6493  0.8011  0.3508
  610MOL0     C82282   0.181   4.006   4.934 -0.4127  0.0419 -0.0092
  610MOL0     H82283   0.590   3.939   4.770 -1.3177  0.3049  0.1232
  610MOL0     H82284   0.775   3.765   4.715  1.0082 -1.4288  0.9364
  610MOL0     H82285   0.956   3.648   4.682  0.2432 -1.1260  1.6481
  610MOL0     H82286   1.073   3.792   4.682 -0.6081 -0.1315 -2.2501
  610MOL0     H82287   1.161   3.566   4.632  3.8924 -2.1945  1.6463
  610MOL0     H82288   1.135   3.506   4.782  0.0927 -1.1450 -0.4377
  610MOL0     H82289   1.273   3.720   4.866  0.0771  0.7490 -0.5336
  610MOL0     H82290   1.315   3.726   4.696  3.3574  1.9301  3.9651
  610MOL0     H82291   1.359   3.467   4.846  0.6760 -0.0685  0.4395
  610MOL0     H82292   1.399   3.503   4.678 -1.9671  1.2376 -1.3514
  610MOL0     H82293   1.586   3.493   4.848 -2.6457 -1.3461 -0.4099
  610MOL0     H82294   1.585   3.633   4.749 -0.2389 -2.1046 -1.3798
  610MOL0     H82295   1.633   3.684   4.989 -0.0366 -1.1851  1.1139
  610MOL0     H82296   1.495   3.775   4.931  2.3465  1.2555  1.2543
  610MOL0     H82297   1.514   3.548   5.133 -0.6232  0.8524  0.1153
  610MOL0     H82298   1.352   3.573   5.051 -0.1637  1.2501 -4.4543
  610MOL0     H82299   1.333   3.776   5.106  0.4519 -0.2294  0.7776
  610MOL0     H82300   1.343   3.684   5.260  1.6590  0.2375  1.7916
  610MOL0     H82301   1.623   3.706   5.366  4.0367  2.0432  1.1077
  610MOL0     H82302   1.755   4.039   5.442  0.8196  0.8940  1.7343
  610MOL0     H82303   1.806   3.876   5.473 -1.2917 -0.4098  0.0607
  610MOL0     H82304   1.946   3.863   5.295  1.4235  0.2583  0.4004
  610MOL0     H82305   1.882   4.014   5.218 -0.4837  0.5198  0.1721
  610MOL0     H82306   1.991   4.147   5.427 -0.1730 -0.6394 -0.8286
  610MOL0     H82307   2.090   4.084   5.293 -0.1981 -1.6723 -1.7415
  610MOL0     H82308   2.158   3.888   5.432 -0.1975 -1.0203  1.1048
  610MOL0     H82309   2.031   3.945   5.552 -4.1204 -0.3179 -2.2581
  610MOL0     H82310   2.447   4.122   5.623  1.0214 -0.0175  2.6842
  610MOL0     H82311   2.581   4.015   5.793  0.1415  1.2178 -0.3862
  610MOL0     H82312   2.593   3.852   6.200  0.9686  0.8447 -0.0536
  610MOL0     H82313   2.735   3.758   6.398 -0.9729  1.3036  0.8021
  610MOL0     H82314   3.101   3.525   6.477 -1.4065  2.0734  1.6305
  610MOL0     H82315   3.088   3.493   6.310 -4.7493  1.4483 -1.1268
  610MOL0     H82316   3.272   3.649   6.362 -0.3631 -0.7887 -1.6553
  610MOL0     H82317   3.153   3.753   6.275  0.8620  1.1796  0.8742
  610MOL0     H82318   3.085   3.823   6.527 -0.0766 -0.5310 -0.3812
  610MOL0     H82319   3.202   3.709   6.572  0.4351 -0.4910  0.0114
  610MOL0     H82320   3.382   3.855   6.464  0.1630  1.1136  1.3146
  610MOL0     H82321   3.274   3.947   6.582 -1.2831 -0.4785  1.2087
  610MOL0     H82322   3.149   3.984   6.345  1.1592  2.6340 -3.4080
  610MOL0     H82323   3.304   3.964   6.277 -2.4726 -1.8454 -0.6945
  610MOL0     H82324   3.210   4.178   6.487 -1.2462  1.2359 -2.2393
  610MOL0     H82325   3.381   4.131   6.474 -2.3692  1.8072  2.1183
  610MOL0     H82326   3.199   4.277   6.285  0.4999  0.1405  2.1501
  610MOL0     H82327   3.336   4.200   6.216 -2.2044  1.3499 -1.9921
  610MOL0     H82328   3.380   4.419   6.271  1.9980  1.7110  1.9195
  610MOL0     H82329   3.383   4.379   6.448 -0.4950  3.5389 -0.4857
  610MOL0     H82330   3.003   3.571   6.118 -0.8870 -1.0758 -0.9453
  610MOL0     H82331   2.875   3.679   5.923 -2.5044  3.3993 -0.4240
  610MOL0     H82332   2.294   3.698   5.814  1.0891 -0.4365 -0.3086
  610MOL0     H82333   2.138   3.820   5.671 -0.0581 -0.1991  0.7866
  610MOL0     H82334   1.009   3.910   5.047 -0.7409 -0.0504  0.6921
  610MOL0     H82335   0.823   4.082   5.093  1.6773 -2.7766  1.1506
  610MOL0     H82336   0.516   4.305   5.097 -0.6877  2.2284 -1.2237
  610MOL0     H82337   0.332   4.479   5.144 -3.8179  0.2526  0.1466
  610MOL0     H82338   0.150   4.576   4.981 -1.1605 -0.0602 -0.5888
  610MOL0     H82339   0.122   4.641   5.142  0.0932 -0.0487 -1.1591
  610MOL0     H82340  -0.112   4.575   4.976  2.6648  0.2617 -1.7298
  610MOL0     H82341  -0.071   4.736   5.044 -1.3264  0.8482  2.6445
  610MOL0     H82342  -0.072   4.621   5.269  1.1905 -2.8447 -0.4928
  610MOL0     H82343  -0.164   4.491   5.196  1.7123 -0.8112  1.8141
  610MOL0     H82344  -0.233   4.792   5.156  3.0404 -0.0040  1.5396
  610MOL0     H82345  -0.324   4.661   5.107 -2.7683  0.7374  2.3106
  610MOL0     H82346  -0.445   4.784   5.490  2.3369  4.1102 -0.8903
  610MOL0     H82347   0.039   4.210   4.999 -0.4899 -1.4278  3.4841
  610MOL0     H82348   0.195   3.926   5.008  3.1625  2.3724  2.1979
  610MOL0     H82349   0.083   4.007   4.886  0.1680 -0.5982 -1.2797
  610MOL0     H82350   0.248   3.964   4.858  1.3555  0.1485  1.4208
  611MOL0     O82351   7.727   3.003  10.589  0.0033  0.5861 -0.7218
  611MOL0     C82352   7.754   3.115  10.540 -0.7375  0.3619 -0.4261
  611MOL0     O82353   7.742   3.148  10.409  0.5561  0.5262 -0.0262
  611MOL0     C82354   7.687   3.060  10.322  0.6034  0.4790  0.3878
  611MOL0     C82355   7.762   3.031  10.202 -0.1393  0.1874 -0.7490
  611MOL0     C82356   7.705   2.937  10.110 -0.0693 -0.1452 -0.3456
  611MOL0     C82357   7.582   2.872  10.126 -0.3226 -0.7336  0.5416
  611MOL0     O82358   7.514   2.791  10.038  0.0846 -0.3476  0.3721
  611MOL0     C82359   7.593   2.688   9.968 -0.2391  0.0931 -0.7813
  611MOL0     C82360   7.617   2.562  10.046 -0.0619  0.5268 -0.5562
  611MOL0     C82361   7.493   2.486  10.102 -0.4532 -0.8682 -0.6014
  611MOL0     C82362   7.398   2.466   9.989 -0.4215  0.7418  0.2694
  611MOL0     C82363   7.312   2.339  10.025 -0.1309  0.0297  0.2215
  611MOL0     C82364   7.190   2.334   9.947  0.4846 -0.6273  0.4817
  611MOL0     C82365   7.091   2.215   9.960 -0.7875 -0.1445  0.4081
  611MOL0     C82366   6.981   2.209   9.854 -0.1634 -1.0286  0.0514
  611MOL0     N82367   6.899   2.089   9.867  0.5694  0.9975 -0.3472
  611MOL0     C82368   6.933   1.964   9.821  0.1723 -0.2279 -0.0122
  611MOL0     C82369   6.816   1.895   9.831 -0.0395 -0.8692 -0.1957
  611MOL0     C82370   6.782   1.767   9.751 -1.5232  0.2649 -0.1489
  611MOL0     C82371   6.898   1.657   9.758 -0.3987 -0.3840 -0.7502
  611MOL0     C82372   6.868   1.537   9.676  0.0548  0.0780  0.2134
  611MOL0     C82373   6.976   1.501   9.571  0.3854 -0.5979  0.5013
  611MOL0     O82374   7.020   1.617   9.499  0.2128 -0.2194  0.4073
  611MOL0     C82375   7.098   1.585   9.391 -1.4399 -0.5864  0.5742
  611MOL0     C82376   7.103   1.676   9.280  0.6349 -0.4297 -0.1316
  611MOL0     C82377   7.170   1.649   9.157 -0.0743  0.1291 -0.7384
  611MOL0     C82378   7.252   1.530   9.158 -0.8553 -0.8022  0.7586
  611MOL0     C82379   7.314   1.499   9.026  0.1136  0.7941 -0.2144
  611MOL0     O82380   7.318   1.577   8.921  0.5783 -0.1316  0.6453
  611MOL0     C82381   7.369   1.540   8.797 -0.1700 -0.4059 -0.0926
  611MOL0     C82382   7.306   1.437   8.719  0.7931  0.3851 -0.2440
  611MOL0     C82383   7.359   1.387   8.601  0.0079 -0.2531  0.7545
  611MOL0     C82384   7.466   1.458   8.548 -0.9591 -0.2944 -0.5245
  611MOL0     O82385   7.542   1.422   8.442 -0.7810 -0.4544  0.2759
  611MOL0     C82386   7.495   1.317   8.361  0.4087  0.0170  0.4143
  611MOL0     C82387   7.606   1.281   8.252  0.1402  0.4339 -0.2605
  611MOL0     C82388   7.575   1.370   8.138 -0.1962  0.3530  0.5261
  611MOL0     C82389   7.659   1.330   8.021  0.0423 -0.3154  0.4391
  611MOL0     C82390   7.584   1.378   7.889 -0.5784  0.4402  0.0976
  611MOL0     C82391   7.695   1.386   7.775  0.5068 -0.3319  0.1817
  611MOL0     C82392   7.636   1.426   7.642 -0.2474  0.2206 -0.2386
  611MOL0     C82393   7.711   1.403   7.510 -0.1712 -0.3779  0.4143
  611MOL0    Cl82394   7.893   1.441   7.527  0.4405 -0.0516 -0.4118
  611MOL0     C82395   7.526   1.567   8.620 -0.2161 -0.0119 -0.7096
  611MOL0     C82396   7.488   1.592   8.740  1.0852 -0.9409 -0.9294
  611MOL0     O82397   7.349   1.380   9.023  0.7764  0.1568 -0.5201
  611MOL0     C82398   7.265   1.450   9.268 -0.0094  0.2319 -0.5435
  611MOL0     C82399   7.190   1.474   9.387  0.2232 -0.2220  0.3418
  611MOL0     N82400   6.722   1.974   9.897 -0.4112 -0.4336  0.3394
  611MOL0     N82401   6.778   2.085   9.917 -0.4112  0.1425 -0.2459
  611MOL0     C82402   7.513   2.893  10.252  0.0865  0.1048  0.5084
  611MOL0     C82403   7.571   2.980  10.337  0.2941  0.2524 -0.8622
  611MOL0     C82404   7.801   3.221  10.633  0.5186 -0.1619  0.1606
  611MOL0     C82405   7.879   3.191  10.746 -1.5042 -0.9963  0.3027
  611MOL0     C82406   7.909   3.289  10.846 -0.0416  0.2103  0.6567
  611MOL0     C82407   7.867   3.423  10.827 -0.3025  0.6557 -0.2040
  611MOL0     O82408   7.894   3.527  10.905 -0.1850 -0.1893  0.3672
  611MOL0     C82409   7.977   3.511  11.019 -0.1532  0.8549  0.1964
  611MOL0     C82410   7.994   3.646  11.076 -0.5576 -0.2776 -0.0970
  611MOL0     C82411   7.858   3.724  11.126  0.3115  0.1375 -0.6308
  611MOL0     C82412   7.887   3.842  11.224 -0.2391 -0.1463  0.7505
  611MOL0     C82413   7.965   3.954  11.171  0.3019 -0.0627  0.2032
  611MOL0     C82414   8.025   4.045  11.109 -0.3698  0.0566  0.1852
  611MOL0     C82415   7.800   3.453  10.710 -0.1248  0.3202 -0.2440
  611MOL0     C82416   7.764   3.358  10.613  0.2790 -0.1383  0.4721
  611MOL0     C82417   7.683   3.418  10.504  0.3093  0.2457 -1.0234
  611MOL0     H82418   7.845   3.094  10.173 -1.0235  0.9672 -1.6386
  611MOL0     H82419   7.760   2.929  10.017  1.8114  0.2565  0.6723
  611MOL0     H82420   7.534   2.678   9.876 -1.9774 -0.1748  0.3352
  611MOL0     H82421   7.687   2.733   9.933 -1.7458  0.7454 -4.4583
  611MOL0     H82422   7.682   2.579  10.132  1.7155 -2.6681 -1.1221
  611MOL0     H82423   7.668   2.499   9.973 -1.9726 -0.5687 -1.0207
  611MOL0     H82424   7.449   2.554  10.175 -0.6490 -0.0678 -1.4552
  611MOL0     H82425   7.537   2.392  10.136  1.5073 -0.9312 -3.0486
  611MOL0     H82426   7.327   2.547   9.972 -1.5846 -0.6319 -1.9289
  611MOL0     H82427   7.442   2.448   9.890 -0.1162  3.8381 -0.2387
  611MOL0     H82428   7.373   2.250  10.003 -1.0878  0.1267 -3.5959
  611MOL0     H82429   7.292   2.355  10.131  1.3480 -2.1173  0.8911
  611MOL0     H82430   7.134   2.418   9.990 -1.2908 -2.7934  2.7161
  611MOL0     H82431   7.212   2.342   9.840 -3.5213 -2.0601 -0.6380
  611MOL0     H82432   7.053   2.207  10.062  0.0611 -0.5420  0.7078
  611MOL0     H82433   7.153   2.125   9.953 -3.5595 -2.0637 -1.9949
  611MOL0     H82434   6.914   2.295   9.864  0.6835 -0.2577 -0.7130
  611MOL0     H82435   7.026   2.207   9.754 -1.1169 -1.9537 -0.3864
  611MOL0     H82436   7.029   1.948   9.772  1.5069 -0.6666  2.5964
  611MOL0     H82437   6.693   1.734   9.805 -0.3005  0.5060  2.1376
  611MOL0     H82438   6.766   1.792   9.646  0.3350 -1.1111 -0.8186
  611MOL0     H82439   6.992   1.705   9.731  0.0484 -0.6458  0.2968
  611MOL0     H82440   6.917   1.638   9.864  1.7058 -1.3836 -1.2556
  611MOL0     H82441   6.778   1.564   9.621 -0.2826 -0.5806  0.4411
  611MOL0     H82442   6.855   1.450   9.741  1.3001  0.2761  0.7671
  611MOL0     H82443   6.929   1.427   9.506  2.6722 -0.1453 -1.8425
  611MOL0     H82444   7.063   1.453   9.617  2.9465 -1.8182 -4.9113
  611MOL0     H82445   7.029   1.755   9.292  3.3381  2.2548 -0.0279
  611MOL0     H82446   7.151   1.710   9.069  2.0183  2.0257  0.0287
  611MOL0     H82447   7.208   1.404   8.749 -0.0897  2.2910 -0.8533
  611MOL0     H82448   7.315   1.301   8.552  0.2159  0.0804 -0.0308
  611MOL0     H82449   7.466   1.233   8.424 -1.4229  1.0378  0.9996
  611MOL0     H82450   7.408   1.344   8.300  1.9566 -3.4300 -3.8877
  611MOL0     H82451   7.700   1.299   8.306 -0.8998  1.7117  1.1931
  611MOL0     H82452   7.593   1.175   8.225 -0.3532  0.1650  0.9760
  611MOL0     H82453   7.467   1.367   8.116 -0.2511 -3.9923  0.5428
  611MOL0     H82454   7.592   1.470   8.179  1.7965  0.4926 -0.5297
  611MOL0     H82455   7.674   1.222   8.024 -0.0718 -0.5029 -2.6094
  611MOL0     H82456   7.756   1.380   8.029  0.4929 -1.0607 -0.1649
  611MOL0     H82457   7.542   1.478   7.902  2.3443  1.5978  1.6037
  611MOL0     H82458   7.510   1.300   7.869 -2.1428  1.1762  2.5713
  611MOL0     H82459   7.778   1.446   7.813  1.4113 -1.2255 -0.3271
  611MOL0     H82460   7.729   1.282   7.767 -1.3774 -0.9386 -0.4852
  611MOL0     H82461   7.606   1.531   7.647 -0.2179  0.4576 -3.3322
  611MOL0     H82462   7.542   1.372   7.629 -0.7432  0.2685  2.5612
  611MOL0     H82463   7.702   1.299   7.479 -2.5344 -0.3017  0.6063
  611MOL0     H82464   7.680   1.470   7.429 -0.9020 -0.6805  0.4342
  611MOL0     H82465   7.614   1.614   8.579  1.0979 -2.7219 -1.2441
  611MOL0     H82466   7.528   1.670   8.804 -2.3312  1.7803 -1.8416
  611MOL0     H82467   7.330   1.363   9.267 -0.3852 -0.0501 -0.7895
  611MOL0     H82468   7.201   1.416   9.478  0.9284  3.5497  2.8967
  611MOL0     H82469   7.423   2.835  10.269 -3.4459  4.8260 -0.1370
  611MOL0     H82470   7.520   3.005  10.430  2.2559  0.2866  0.2688
  611MOL0     H82471   7.917   3.090  10.752  2.2697  0.1557 -1.2245
  611MOL0     H82472   7.955   3.254  10.939  1.4864 -1.1314 -0.5481
  611MOL0     H82473   8.072   3.468  10.985 -0.2645  2.4262 -2.3568
  611MOL0     H82474   7.933   3.426  11.073  2.5833 -3.2321 -3.3290
  611MOL0     H82475   8.041   3.705  10.997 -0.2051  2.8505  2.2854
  611MOL0     H82476   8.051   3.642  11.169  0.6114  4.4628 -0.3559
  611MOL0     H82477   7.792   3.652  11.175  2.4491 -1.4613  0.1020
  611MOL0     H82478   7.810   3.770  11.040  0.5099  2.5098  0.4650
  611MOL0     H82479   7.788   3.884  11.244 -0.3193 -0.1694  0.3949
  611MOL0     H82480   7.928   3.807  11.320  0.0771  0.3709  0.8083
  611MOL0     H82481   8.072   4.132  11.069  1.2353  1.4403  4.5026
  611MOL0     H82482   7.772   3.552  10.677  2.8664  0.3173 -3.3103
  611MOL0     H82483   7.667   3.526  10.516 -2.7735 -0.2560  0.2776
  611MOL0     H82484   7.726   3.401  10.405  1.5822  1.2345 -0.6667
  611MOL0     H82485   7.583   3.375  10.502 -0.4409  1.8366 -0.0438
  612MOL0     O82486   9.865   3.773   0.287  0.0350  0.4780 -0.0582
  612MOL0     C82487   9.932   3.867   0.251  0.6007  0.0345  0.6870
  612MOL0     O82488   9.883   3.995   0.204  0.5491  1.0627 -0.6605
  612MOL0     C82489   9.751   4.020   0.176 -0.8150  0.3568 -0.5916
  612MOL0     C82490   9.723   4.157   0.181 -0.3902  0.3645 -1.1123
  612MOL0     C82491   9.589   4.199   0.167 -1.0365 -0.2931 -0.8471
  612MOL0     C82492   9.487   4.109   0.155  0.2132  0.4982  0.6841
  612MOL0     O82493   9.363   4.167   0.154  0.4099  0.7340  0.3718
  612MOL0     C82494   9.250   4.094   0.208 -0.3190  0.2288  0.8431
  612MOL0     C82495   9.128   4.198   0.206  0.4699 -0.2163  0.4471
  612MOL0     C82496   9.100   4.256   0.069  0.5766  0.1251  0.6946
  612MOL0     C82497   9.077   4.152  -0.041  0.1370  0.7289  0.7513
  612MOL0     C82498   8.940   4.080  -0.023 -0.3530 -0.0494  0.6550
  612MOL0     C82499   8.938   3.942  -0.100 -0.1790  0.3471 -0.4804
  612MOL0     C82500   8.806   3.873  -0.061  0.5568  0.3935 -0.2923
  612MOL0     C82501   8.801   3.734  -0.119  1.2828 -0.6561  0.0679
  612MOL0     N82502   8.815   3.711  -0.261  0.5515  0.4364 -0.6183
  612MOL0     C82503   8.735   3.776  -0.354 -0.5347 -0.0866  0.2996
  612MOL0     C82504   8.774   3.716  -0.470  0.0432  0.1049  0.0611
  612MOL0     C82505   8.735   3.745  -0.612 -0.3799 -0.0143  0.8933
  612MOL0     C82506   8.593   3.702  -0.660 -0.1347 -0.2131  0.5932
  612MOL0     C82507   8.543   3.775  -0.782  0.8376  0.1328 -0.1732
  612MOL0     C82508   8.654   3.767  -0.899 -0.4147  0.6368  0.1559
  612MOL0     O82509   8.607   3.812  -1.026  0.4393  0.2092 -0.5887
  612MOL0     C82510   8.691   3.845  -1.123  0.1573  0.6930 -0.0384
  612MOL0     C82511   8.726   3.979  -1.130 -0.2611 -0.1019  0.3902
  612MOL0     C82512   8.796   4.022  -1.239 -0.2846  0.2700  0.5936
  612MOL0     C82513   8.828   3.937  -1.343 -0.3658 -0.6220  0.2903
  612MOL0     C82514   8.901   3.989  -1.458 -1.1175  0.1118 -0.1032
  612MOL0     O82515   8.936   4.116  -1.470  0.3459  0.1201  0.9299
  612MOL0     C82516   8.991   4.164  -1.588 -0.2414  0.8517 -0.0228
  612MOL0     C82517   9.121   4.110  -1.624 -0.3039  0.0029  0.2887
  612MOL0     C82518   9.184   4.156  -1.740  0.8375  0.4284  0.9309
  612MOL0     C82519   9.125   4.261  -1.821  0.2875 -0.1985 -0.8652
  612MOL0     O82520   9.185   4.295  -1.936 -0.3468  0.3022  0.8194
  612MOL0     C82521   9.185   4.428  -1.986  0.3554  0.7444  0.7473
  612MOL0     C82522   9.253   4.429  -2.128 -0.2446 -0.2838 -0.6702
  612MOL0     C82523   9.399   4.406  -2.098 -0.2217 -0.5531  0.2841
  612MOL0     C82524   9.479   4.432  -2.227  0.6792  0.2710  0.3368
  612MOL0     C82525   9.461   4.341  -2.349  0.1394 -0.7779  0.4901
  612MOL0     C82526   9.505   4.200  -2.317  0.0090 -1.4228 -0.4890
  612MOL0     C82527   9.494   4.107  -2.437  0.5559  0.2782  0.4329
  612MOL0     C82528   9.534   3.969  -2.407 -0.2679  0.3826 -0.2066
  612MOL0    Cl82529   9.481   3.855  -2.539 -0.0135 -0.3253  0.0263
  612MOL0     C82530   9.009   4.318  -1.777 -0.5280 -0.5660  1.6285
  612MOL0     C82531   8.937   4.264  -1.671 -0.6066 -0.9289  0.0304
  612MOL0     O82532   8.924   3.908  -1.546  0.2824 -0.4632  0.3742
  612MOL0     C82533   8.785   3.802  -1.333 -0.1822 -0.0714 -0.2387
  612MOL0     C82534   8.718   3.756  -1.223 -0.4710  1.0840  0.0446
  612MOL0     N82535   8.870   3.621  -0.437  1.2274 -0.3130 -0.4410
  612MOL0     N82536   8.902   3.630  -0.313 -0.8784  0.7393 -0.5513
  612MOL0     C82537   9.512   3.973   0.149 -0.1234  0.0702 -0.1086
  612MOL0     C82538   9.648   3.926   0.161  0.8053 -0.4582  1.3853
  612MOL0     C82539  10.072   3.857   0.257 -0.1197 -0.4163  0.1891
  612MOL0     C82540  10.142   3.972   0.252  0.1991 -1.0817 -0.2657
  612MOL0     C82541  10.285   3.980   0.272  1.6281  0.6209  0.6003
  612MOL0     C82542  10.358   3.867   0.288 -0.0890  0.2092  0.5230
  612MOL0     O82543  10.494   3.856   0.293  0.6887  0.1480  0.3533
  612MOL0     C82544  10.567   3.984   0.274 -0.0105  0.8262  0.5011
  612MOL0     C82545  10.701   3.933   0.220 -0.4503 -0.2825 -0.2053
  612MOL0     C82546  10.813   4.047   0.210  0.5039 -0.7454 -0.9545
  612MOL0     C82547  10.801   4.134   0.092  1.0916 -0.7750  1.0253
  612MOL0     C82548  10.917   4.219   0.076 -0.1995  0.3091 -0.6577
  612MOL0     C82549  11.022   4.287   0.080 -0.1689 -0.1167  0.2437
  612MOL0     C82550  10.288   3.747   0.283 -0.6808  0.0050  0.3053
  612MOL0     C82551  10.151   3.741   0.279  0.0675 -0.1494 -0.0154
  612MOL0     C82552  10.092   3.598   0.286  1.0004 -0.3249  0.3297
  612MOL0     H82553   9.808   4.224   0.189  1.3018 -1.6796 -1.0104
  612MOL0     H82554   9.556   4.302   0.179 -1.0670 -0.1600 -1.9360
  612MOL0     H82555   9.224   4.014   0.139 -1.7732  1.5426 -0.2153
  612MOL0     H82556   9.266   4.055   0.309 -0.1360  0.2229  0.8102
  612MOL0     H82557   9.142   4.282   0.274  0.8589  0.7868 -0.8471
  612MOL0     H82558   9.035   4.155   0.246  0.4716 -0.9711 -0.3323
  612MOL0     H82559   9.178   4.329   0.043  0.1008  0.2349 -0.5243
  612MOL0     H82560   9.008   4.315   0.067  1.9536  2.4212  0.5283
  612MOL0     H82561   9.081   4.211  -0.134  1.7214 -0.0399  0.2948
  612MOL0     H82562   9.162   4.086  -0.059  0.7573  1.9591 -1.0724
  612MOL0     H82563   8.915   4.061   0.081  0.9297 -2.7266  0.5545
  612MOL0     H82564   8.867   4.151  -0.066  1.6394  1.6796 -0.0484
  612MOL0     H82565   8.949   3.956  -0.208  1.8859 -3.9059 -1.0545
  612MOL0     H82566   9.024   3.889  -0.059  1.1485  0.7590 -2.5851
  612MOL0     H82567   8.717   3.922  -0.102  0.0915 -1.4911 -1.7236
  612MOL0     H82568   8.807   3.864   0.048  2.1610 -1.4918 -0.3994
  612MOL0     H82569   8.867   3.674  -0.055  1.2979  0.6859  1.3531
  612MOL0     H82570   8.702   3.695  -0.094  2.1391 -2.0592  1.4551
  612MOL0     H82571   8.672   3.864  -0.354 -0.7453 -0.1053  4.1086
  612MOL0     H82572   8.735   3.854  -0.621 -2.9246 -0.0823 -0.9079
  612MOL0     H82573   8.797   3.689  -0.682 -0.3473  0.4667  0.5315
  612MOL0     H82574   8.598   3.596  -0.689  0.9607  0.2431 -0.9542
  612MOL0     H82575   8.517   3.705  -0.581 -0.5184 -4.6750  0.6454
  612MOL0     H82576   8.527   3.881  -0.761 -2.6176 -0.2319 -0.3143
  612MOL0     H82577   8.450   3.730  -0.820  0.4500 -1.8072  2.7056
  612MOL0     H82578   8.706   3.671  -0.903 -1.6310 -0.0229 -0.4309
  612MOL0     H82579   8.736   3.832  -0.870  3.9433 -4.8311  1.7907
  612MOL0     H82580   8.677   4.037  -1.052 -3.2912  0.4087 -1.7142
  612MOL0     H82581   8.803   4.130  -1.244 -1.0971  0.2635 -1.7049
  612MOL0     H82582   9.161   4.026  -1.567 -1.6001 -2.1405 -1.7448
  612MOL0     H82583   9.273   4.102  -1.770 -0.8267  0.1870 -4.7966
  612MOL0     H82584   9.082   4.459  -2.008  0.2421  0.5454  0.9987
  612MOL0     H82585   9.247   4.494  -1.924  3.1842 -1.4817  0.4518
  612MOL0     H82586   9.202   4.356  -2.191 -0.2109  0.0901 -1.1370
  612MOL0     H82587   9.249   4.524  -2.182 -2.9230  1.3821  2.1003
  612MOL0     H82588   9.435   4.481  -2.027 -0.3556  3.5274 -3.4944
  612MOL0     H82589   9.420   4.312  -2.046  2.1796  1.6876  3.7634
  612MOL0     H82590   9.587   4.428  -2.210  0.3896 -2.2000  2.3058
  612MOL0     H82591   9.458   4.535  -2.257 -0.7845 -0.5331 -1.6083
  612MOL0     H82592   9.515   4.388  -2.432 -1.5940 -0.2339 -0.3959
  612MOL0     H82593   9.353   4.334  -2.363  0.0140  0.5282  0.6924
  612MOL0     H82594   9.606   4.194  -2.276 -0.3373 -1.3190  0.4204
  612MOL0     H82595   9.441   4.152  -2.242  1.2711 -2.6523 -0.1533
  612MOL0     H82596   9.553   4.151  -2.518  0.9842  3.5925  2.3428
  612MOL0     H82597   9.390   4.106  -2.472 -0.1330 -1.4191  2.3129
  612MOL0     H82598   9.637   3.945  -2.378 -0.7580 -2.0089 -0.2344
  612MOL0     H82599   9.485   3.947  -2.312 -0.4932  2.2241  0.1378
  612MOL0     H82600   8.962   4.395  -1.837 -2.3120 -3.2718 -0.7367
  612MOL0     H82601   8.838   4.293  -1.636 -0.0666  0.5539  0.3842
  612MOL0     H82602   8.798   3.728  -1.411  1.2088 -1.1132  0.9166
  612MOL0     H82603   8.683   3.653  -1.217 -5.2873  2.3553 -1.9826
  612MOL0     H82604   9.432   3.902   0.129  0.1705  0.0800 -1.3869
  612MOL0     H82605   9.672   3.821   0.151 -1.1464 -0.8590  0.3412
  612MOL0     H82606  10.097   4.071   0.254  1.0681 -0.6817  1.0411
  612MOL0     H82607  10.326   4.080   0.281  0.2885  1.3767 -1.1445
  612MOL0     H82608  10.581   4.050   0.360  0.8746  3.1070 -1.2877
  612MOL0     H82609  10.523   4.035   0.189  0.1347 -1.0133 -0.7444
  612MOL0     H82610  10.684   3.876   0.129  0.5623 -3.3807  1.4111
  612MOL0     H82611  10.738   3.862   0.295  1.6113 -1.0868 -1.8834
  612MOL0     H82612  10.909   3.997   0.193  0.8997  0.4148 -2.3309
  612MOL0     H82613  10.817   4.101   0.306  1.7406 -1.1024 -0.7775
  612MOL0     H82614  10.776   4.070   0.006 -3.6519 -2.0181  2.9770
  612MOL0     H82615  10.712   4.198   0.093  2.7070  1.7740 -1.5430
  612MOL0     H82616  11.104   4.352   0.058 -1.2064  0.4272 -2.3317
  612MOL0     H82617  10.353   3.660   0.290 -0.9628 -0.0564  3.7305
  612MOL0     H82618  10.165   3.517   0.270 -0.7859 -2.5001  2.4547
  612MOL0     H82619  10.027   3.592   0.373  2.0310  0.5305  1.1889
  612MOL0     H82620  10.035   3.590   0.194  0.7440  2.0537  0.2268
  613MOL0     O82621   5.443  10.788   9.529  0.0736  0.3003 -0.6658
  613MOL0     C82622   5.498  10.674   9.551  0.8050 -0.9441  0.1868
  613MOL0     O82623   5.509  10.576   9.457 -0.4666 -0.2449 -0.0077
  613MOL0     C82624   5.514  10.602   9.321  0.3917 -0.6234  0.2600
  613MOL0     C82625   5.521  10.490   9.230 -0.0445  0.0518 -0.8045
  613MOL0     C82626   5.530  10.510   9.094  0.9073 -0.2021 -0.3818
  613MOL0     C82627   5.525  10.639   9.038  1.0707 -0.1724 -0.1511
  613MOL0     O82628   5.513  10.654   8.906 -0.4156  0.6732  0.3680
  613MOL0     C82629   5.498  10.554   8.809 -0.3939 -0.7075 -0.3047
  613MOL0     C82630   5.454  10.619   8.675  0.4726  0.5743  0.3419
  613MOL0     C82631   5.464  10.522   8.557 -0.4823 -0.4199 -0.3740
  613MOL0     C82632   5.425  10.608   8.428 -0.9381  0.3777 -0.8409
  613MOL0     C82633   5.440  10.514   8.308 -0.0024  1.0366 -0.0149
  613MOL0     C82634   5.366  10.559   8.185 -0.1041 -0.4091  0.0227
  613MOL0     C82635   5.362  10.462   8.070 -0.5242  0.5392  0.7462
  613MOL0     C82636   5.498  10.395   8.032  0.2766 -1.2055 -0.2385
  613MOL0     N82637   5.475  10.294   7.925 -0.5589  0.2575 -0.1175
  613MOL0     C82638   5.486  10.313   7.790  0.8821 -0.4766 -0.2710
  613MOL0     C82639   5.432  10.198   7.736  0.7000 -0.1554 -0.2820
  613MOL0     C82640   5.400  10.166   7.588 -0.6240  0.2461 -0.1780
  613MOL0     C82641   5.509  10.082   7.530  0.2578  0.3653 -0.4514
  613MOL0     C82642   5.489  10.056   7.374 -0.9044  0.0870 -0.0856
  613MOL0     C82643   5.355  10.020   7.329 -0.6924  0.2319 -0.0842
  613MOL0     O82644   5.342   9.994   7.192 -0.1605  0.6792  1.1645
  613MOL0     C82645   5.320  10.090   7.096 -0.0326  1.0389  2.0891
  613MOL0     C82646   5.323  10.224   7.120  0.0821 -0.8353 -0.0633
  613MOL0     C82647   5.295  10.318   7.013  0.9595 -0.2373 -0.7553
  613MOL0     C82648   5.273  10.262   6.879  0.0742 -0.6834 -0.0111
  613MOL0     C82649   5.242  10.352   6.766  0.4265  0.8209 -1.1362
  613MOL0     O82650   5.206  10.290   6.652 -0.3180 -0.0538  0.3535
  613MOL0     C82651   5.181  10.354   6.526  0.3104  0.8360  0.6164
  613MOL0     C82652   5.187  10.278   6.414  0.7753  0.8586  1.2065
  613MOL0     C82653   5.150  10.322   6.282 -1.1374 -0.2174  0.6853
  613MOL0     C82654   5.122  10.459   6.260  0.2414 -0.2594 -0.3405
  613MOL0     O82655   5.078  10.518   6.141  0.8394  1.0519 -0.8535
  613MOL0     C82656   5.089  10.436   6.026 -0.0369 -0.4721 -0.9676
  613MOL0     C82657   5.054  10.517   5.900  0.8938  0.9060 -0.8090
  613MOL0     C82658   5.152  10.612   5.860 -0.3206  0.4700  0.2596
  613MOL0     C82659   5.111  10.670   5.725 -0.1675  0.0640  0.2163
  613MOL0     C82660   5.217  10.757   5.656  0.0221  0.2842 -0.4278
  613MOL0     C82661   5.280  10.689   5.537 -0.8227  0.1248 -0.0617
  613MOL0     C82662   5.407  10.761   5.487  0.3667 -0.6641 -0.6145
  613MOL0     C82663   5.423  10.734   5.338  0.3424 -0.0819 -0.1031
  613MOL0    Cl82664   5.600  10.756   5.309 -0.7158  0.3829  0.5080
  613MOL0     C82665   5.136  10.547   6.373  0.9919 -0.9367 -0.3305
  613MOL0     C82666   5.163  10.494   6.499 -0.0420  0.3607 -0.0963
  613MOL0     O82667   5.258  10.472   6.778 -0.6373 -0.4009 -0.5110
  613MOL0     C82668   5.271  10.122   6.862  1.5692 -0.0121 -0.7118
  613MOL0     C82669   5.295  10.039   6.967  0.5696  0.1679 -1.0772
  613MOL0     N82670   5.403  10.116   7.837 -0.4176  0.7845  0.4446
  613MOL0     N82671   5.426  10.165   7.949 -0.5556 -0.1866  0.5789
  613MOL0     C82672   5.513  10.748   9.122  0.6942  0.3488  0.2781
  613MOL0     C82673   5.513  10.731   9.261  1.0572  1.0306 -0.6554
  613MOL0     C82674   5.577  10.657   9.682  1.0087 -0.2117 -0.2600
  613MOL0     C82675   5.656  10.546   9.685 -0.3823 -0.3741 -0.1282
  613MOL0     C82676   5.742  10.525   9.789  0.7359  0.3314 -0.6889
  613MOL0     C82677   5.748  10.604   9.897  0.5509 -1.0179  0.1446
  613MOL0     O82678   5.844  10.589   9.997  0.3750 -0.0736  0.0095
  613MOL0     C82679   5.867  10.686  10.101 -0.0182  0.4485  0.5726
  613MOL0     C82680   5.762  10.666  10.221  0.0838 -0.0141 -0.5659
  613MOL0     C82681   5.793  10.553  10.312 -0.3608  0.0092  0.5167
  613MOL0     C82682   5.802  10.602  10.453 -0.4004 -0.0714 -0.2649
  613MOL0     C82683   5.926  10.674  10.476 -0.4482  0.7224  0.3978
  613MOL0     C82684   6.033  10.734  10.493 -0.3334 -0.1284 -0.1722
  613MOL0     C82685   5.654  10.709   9.904 -1.2579 -0.6518  0.5155
  613MOL0     C82686   5.570  10.743   9.792 -0.1852 -0.8212  0.3536
  613MOL0     C82687   5.490  10.868   9.805 -0.4356  0.4171  0.2180
  613MOL0     H82688   5.529  10.394   9.279  1.3993  0.5456 -0.0231
  613MOL0     H82689   5.548  10.426   9.028 -1.5804  2.3556 -4.8503
  613MOL0     H82690   5.594  10.508   8.782 -0.2508 -1.3054  1.1204
  613MOL0     H82691   5.426  10.476   8.836  1.5694 -1.2708  4.3086
  613MOL0     H82692   5.519  10.704   8.650  0.7339 -0.7427 -4.3857
  613MOL0     H82693   5.351  10.649   8.696 -0.4064 -1.8237 -0.2349
  613MOL0     H82694   5.401  10.436   8.580  0.7271 -0.7242  2.2331
  613MOL0     H82695   5.566  10.486   8.537 -0.0167  1.5694 -1.8976
  613MOL0     H82696   5.319  10.634   8.429 -1.4398 -1.5735 -0.5539
  613MOL0     H82697   5.498  10.689   8.413 -1.6663  1.7105  2.1473
  613MOL0     H82698   5.541  10.496   8.270 -0.3069  0.5907 -0.6436
  613MOL0     H82699   5.392  10.424   8.349  0.3114  1.0749  0.4412
  613MOL0     H82700   5.260  10.562   8.212 -0.4447 -2.1084 -1.0063
  613MOL0     H82701   5.398  10.662   8.166  0.9555 -1.0706 -2.1103
  613MOL0     H82702   5.315  10.520   7.990  1.2841  0.0026 -0.7762
  613MOL0     H82703   5.303  10.375   8.101  1.2707 -1.6831 -1.6395
  613MOL0     H82704   5.559  10.474   7.986  0.8064 -0.8777  0.9814
  613MOL0     H82705   5.549  10.345   8.115  1.3271  0.4625  0.1832
  613MOL0     H82706   5.515  10.402   7.734 -1.0508  1.0891  1.0595
  613MOL0     H82707   5.310  10.104   7.592  0.0077 -0.6791  0.0772
  613MOL0     H82708   5.374  10.261   7.541 -2.1282 -0.3065 -0.5407
  613MOL0     H82709   5.611  10.120   7.543  1.4039 -2.1975 -1.1546
  613MOL0     H82710   5.507   9.983   7.576  2.7493  0.5940  0.3164
  613MOL0     H82711   5.558   9.976   7.346 -0.7372 -0.9129  2.9173
  613MOL0     H82712   5.518  10.146   7.318  1.0355 -1.6751 -2.1100
  613MOL0     H82713   5.277  10.093   7.355  0.2639  1.3196 -0.1787
  613MOL0     H82714   5.335   9.925   7.378 -5.3890 -0.5967 -2.9900
  613MOL0     H82715   5.355  10.266   7.214  0.1271 -2.1716  0.5453
  613MOL0     H82716   5.308  10.423   7.039  1.3051 -0.4054 -0.2292
  613MOL0     H82717   5.201  10.172   6.435 -0.1418  0.5584  0.3780
  613MOL0     H82718   5.142  10.247   6.204  1.9437 -1.2277  1.1766
  613MOL0     H82719   5.193  10.401   6.018  0.7628  1.4969  0.2085
  613MOL0     H82720   5.028  10.345   6.026 -1.9806  0.7640 -0.3767
  613MOL0     H82721   5.015  10.452   5.820  0.7276  3.5193 -3.0060
  613MOL0     H82722   4.970  10.582   5.926 -0.4087 -0.4973 -1.3715
  613MOL0     H82723   5.169  10.692   5.933  1.3430 -0.3516  0.8186
  613MOL0     H82724   5.250  10.568   5.843  0.4984  3.0706 -2.6865
  613MOL0     H82725   5.017  10.726   5.738  0.3571  0.9836  0.1181
  613MOL0     H82726   5.090  10.587   5.657 -0.3596  2.1031 -2.3457
  613MOL0     H82727   5.287  10.769   5.738  0.7896  3.0985 -1.3739
  613MOL0     H82728   5.173  10.855   5.635  0.2893  0.5751  0.3489
  613MOL0     H82729   5.306  10.586   5.564 -1.2580  0.6689  2.7813
  613MOL0     H82730   5.209  10.688   5.454  1.1327 -0.1637 -1.8057
  613MOL0     H82731   5.490  10.727   5.549  2.4823 -1.2687 -3.5377
  613MOL0     H82732   5.400  10.869   5.503  2.2738 -0.5238 -0.5841
  613MOL0     H82733   5.391  10.631   5.322  0.7874 -0.3462  0.6265
  613MOL0     H82734   5.370  10.808   5.278  2.6433  1.2527 -0.6128
  613MOL0     H82735   5.126  10.654   6.366 -0.7298 -1.0989 -0.8511
  613MOL0     H82736   5.172  10.565   6.580  1.9355  1.5752 -1.2859
  613MOL0     H82737   5.260  10.065   6.770 -1.0852 -2.2123  0.8208
  613MOL0     H82738   5.292   9.933   6.946 -1.2943 -0.2460  0.9509
  613MOL0     H82739   5.509  10.845   9.072  0.1765  0.3726  0.3526
  613MOL0     H82740   5.502  10.824   9.314  1.1851  0.8946 -0.3853
  613MOL0     H82741   5.665  10.474   9.604 -1.3114 -1.8757  1.0382
  613MOL0     H82742   5.797  10.431   9.797  0.7532  0.5217  3.2592
  613MOL0     H82743   5.858  10.783  10.051 -0.9446 -0.9370 -2.1483
  613MOL0     H82744   5.969  10.673  10.138 -0.1916 -0.4082  0.7705
  613MOL0     H82745   5.660  10.650  10.187 -0.4291  1.5376  0.1621
  613MOL0     H82746   5.752  10.763  10.271 -0.2260 -0.7456  0.8370
  613MOL0     H82747   5.891  10.516  10.279  0.4622  5.0903 -4.2062
  613MOL0     H82748   5.722  10.470  10.311  1.3978 -1.5863 -0.7634
  613MOL0     H82749   5.722  10.676  10.460 -0.0037  0.4725 -1.2500
  613MOL0     H82750   5.783  10.526  10.529 -1.9706 -0.8573 -1.3949
  613MOL0     H82751   6.127  10.787  10.493 -0.5063  0.1790 -0.2515
  613MOL0     H82752   5.663  10.777   9.988  0.3627 -1.6001  1.1636
  613MOL0     H82753   5.507  10.925   9.896 -0.3107  0.1244  0.3790
  613MOL0     H82754   5.517  10.934   9.722 -1.5153  2.9100  1.7096
  613MOL0     H82755   5.386  10.836   9.802  0.3962 -2.5172 -0.8971
  614MOL0     O82756   5.530   8.810   1.605 -0.2521  0.3019 -0.4234
  614MOL0     C82757   5.614   8.765   1.529  0.2771  0.2312  0.1598
  614MOL0     O82758   5.733   8.829   1.501  0.3471 -0.1485  1.2512
  614MOL0     C82759   5.762   8.952   1.561  0.2283  0.1155  0.0224
  614MOL0     C82760   5.704   9.064   1.505 -0.1594 -0.6703  0.3286
  614MOL0     C82761   5.733   9.187   1.562 -0.6671 -0.1478 -0.2564
  614MOL0     C82762   5.825   9.200   1.665  0.6865  0.1419 -0.5157
  614MOL0     O82763   5.845   9.320   1.728  0.4697  0.5367  0.5266
  614MOL0     C82764   5.798   9.317   1.862 -0.6647 -0.3462 -0.8135
  614MOL0     C82765   5.928   9.358   1.939  0.2244  0.2574 -0.1154
  614MOL0     C82766   5.897   9.363   2.091 -0.0202  0.1514 -0.8215
  614MOL0     C82767   5.854   9.241   2.150  0.0016 -0.0885 -0.4480
  614MOL0     C82768   5.884   9.225   2.302  0.0070  0.1278 -0.1733
  614MOL0     C82769   5.790   9.113   2.346  0.1538 -0.6267  0.3614
  614MOL0     C82770   5.803   9.106   2.492  0.7218 -0.6873  0.3520
  614MOL0     C82771   5.716   8.992   2.548  0.0756 -0.5261  0.6539
  614MOL0     N82772   5.720   8.980   2.697  0.9713 -0.2430  0.3446
  614MOL0     C82773   5.797   8.883   2.768  0.2884 -0.3124  0.1304
  614MOL0     C82774   5.767   8.896   2.897  0.3953 -0.2753 -0.6008
  614MOL0     C82775   5.825   8.837   3.021 -0.0367 -1.1889  0.2735
  614MOL0     C82776   5.764   8.708   3.075  0.8581  0.1290  0.4901
  614MOL0     C82777   5.867   8.648   3.179  0.5447 -0.3100  0.1231
  614MOL0     C82778   5.873   8.716   3.315 -0.2487 -0.2902  0.6333
  614MOL0     O82779   5.735   8.729   3.363 -0.2743 -0.0353 -0.0045
  614MOL0     C82780   5.716   8.787   3.489  0.4662 -0.3845  1.2503
  614MOL0     C82781   5.813   8.823   3.586  1.3614 -0.0928 -0.1280
  614MOL0     C82782   5.763   8.859   3.709  0.1982  0.2326 -0.1786
  614MOL0     C82783   5.623   8.868   3.746  0.8279  0.7040 -0.8450
  614MOL0     C82784   5.592   8.893   3.886  0.1452  0.1130  1.2415
  614MOL0     O82785   5.456   8.885   3.910  0.0737 -0.1756  0.4509
  614MOL0     C82786   5.424   8.911   4.048  0.6908 -0.4190  0.1322
  614MOL0     C82787   5.477   8.852   4.164  0.1046  0.0055  0.8140
  614MOL0     C82788   5.440   8.888   4.291 -0.6380  0.2705  0.2028
  614MOL0     C82789   5.335   8.979   4.304  0.2485  0.3181 -0.2058
  614MOL0     O82790   5.282   9.014   4.423 -0.5587  0.3552 -0.0172
  614MOL0     C82791   5.374   9.043   4.541  0.0149  0.1952 -0.1009
  614MOL0     C82792   5.369   9.190   4.598  0.5571 -0.4600  0.3553
  614MOL0     C82793   5.228   9.213   4.654 -0.1899 -0.2683  0.3225
  614MOL0     C82794   5.220   9.333   4.745 -0.6265  0.5953  0.2055
  614MOL0     C82795   5.193   9.458   4.659 -1.0687 -0.0411  0.2576
  614MOL0     C82796   5.214   9.590   4.748  0.3181  0.0102  0.7345
  614MOL0     C82797   5.190   9.717   4.670 -1.0030 -0.6447  0.2437
  614MOL0     C82798   5.230   9.843   4.753  0.4586  0.2189 -0.9506
  614MOL0    Cl82799   5.138   9.862   4.911  0.2105  0.1864 -0.2034
  614MOL0     C82800   5.267   9.028   4.188 -0.5854  0.4944  0.5223
  614MOL0     C82801   5.314   9.000   4.055 -0.0652  1.1467 -0.0130
  614MOL0     O82802   5.672   8.929   3.970  0.0503  0.3212  0.0376
  614MOL0     C82803   5.523   8.825   3.653 -0.0667 -0.2799  0.1111
  614MOL0     C82804   5.578   8.794   3.525  0.4527 -0.3836 -0.0140
  614MOL0     N82805   5.658   8.978   2.903  0.0338  0.9296  1.2572
  614MOL0     N82806   5.628   9.025   2.787 -0.7511 -0.1055  0.0471
  614MOL0     C82807   5.893   9.085   1.705  0.1830 -0.6066 -0.3417
  614MOL0     C82808   5.860   8.956   1.660  0.9363 -0.3340 -0.0678
  614MOL0     C82809   5.573   8.651   1.449 -0.5032  0.0410 -1.1030
  614MOL0     C82810   5.497   8.552   1.516 -0.4210 -1.2819 -0.4223
  614MOL0     C82811   5.455   8.439   1.458  0.2522 -0.4617  0.9534
  614MOL0     C82812   5.492   8.406   1.328 -0.7590 -0.3830  0.3863
  614MOL0     O82813   5.443   8.288   1.282  0.1660  0.4683 -0.2072
  614MOL0     C82814   5.466   8.249   1.154 -0.1303 -0.9062 -0.4017
  614MOL0     C82815   5.370   8.134   1.136 -0.1429 -0.8374 -0.8168
  614MOL0     C82816   5.424   7.998   1.200  0.4713 -0.2495  0.2694
  614MOL0     C82817   5.337   7.881   1.167  1.0060  0.6201  0.5411
  614MOL0     C82818   5.413   7.755   1.162 -0.7039 -0.0613 -1.6022
  614MOL0     C82819   5.505   7.667   1.157  0.7807 -0.2978 -0.3416
  614MOL0     C82820   5.575   8.495   1.264 -0.2434  0.0104 -0.6155
  614MOL0     C82821   5.615   8.615   1.317 -0.3778 -0.1866 -0.0436
  614MOL0     C82822   5.693   8.714   1.235  0.8478 -0.4041 -0.1583
  614MOL0     H82823   5.647   9.062   1.413  0.7559  0.5266 -0.3046
  614MOL0     H82824   5.701   9.282   1.520  3.8555  0.5471 -2.8162
  614MOL0     H82825   5.730   9.396   1.895 -0.4365 -1.1175  1.7356
  614MOL0     H82826   5.753   9.220   1.887 -1.0267  0.2280  0.8966
  614MOL0     H82827   5.973   9.455   1.912  1.3633  0.2834  1.6915
  614MOL0     H82828   6.017   9.298   1.921  2.0173  1.8593  2.6726
  614MOL0     H82829   5.820   9.437   2.113 -0.0755  0.1080 -0.8707
  614MOL0     H82830   5.989   9.389   2.144  0.2446  0.9499 -1.6622
  614MOL0     H82831   5.750   9.217   2.127 -0.8514 -2.3350  4.3774
  614MOL0     H82832   5.905   9.160   2.097  0.7649 -0.6090  1.0212
  614MOL0     H82833   5.990   9.208   2.325 -0.0698 -1.4750 -0.8759
  614MOL0     H82834   5.840   9.304   2.363 -1.4873  0.6938 -1.8861
  614MOL0     H82835   5.687   9.137   2.321  1.2850  2.7168 -1.7672
  614MOL0     H82836   5.824   9.014   2.312 -1.2312 -2.1633  3.1410
  614MOL0     H82837   5.768   9.201   2.533 -1.7314 -2.0517  1.6426
  614MOL0     H82838   5.909   9.092   2.516  0.8995  0.0667  0.0427
  614MOL0     H82839   5.612   9.001   2.517 -0.8429 -0.9394  3.3761
  614MOL0     H82840   5.751   8.894   2.512  1.9203  0.9111 -1.7522
  614MOL0     H82841   5.862   8.806   2.728 -1.1074 -1.2537 -0.4165
  614MOL0     H82842   5.930   8.836   2.990 -0.5108  1.9480 -1.9376
  614MOL0     H82843   5.824   8.913   3.100  3.4486 -3.5593  2.8550
  614MOL0     H82844   5.664   8.726   3.114  0.3133  2.2598 -1.6904
  614MOL0     H82845   5.743   8.635   2.996  1.8763  0.3941 -0.0429
  614MOL0     H82846   5.968   8.653   3.137  0.6171  1.0993  0.4205
  614MOL0     H82847   5.852   8.540   3.191 -0.1575 -0.0780  1.6780
  614MOL0     H82848   5.912   8.818   3.318  0.3112 -0.4843  0.1082
  614MOL0     H82849   5.932   8.651   3.380 -0.0696 -0.7490  0.0132
  614MOL0     H82850   5.921   8.810   3.582  1.6625  1.4045  1.6368
  614MOL0     H82851   5.841   8.887   3.779  2.7967 -1.4452 -2.1624
  614MOL0     H82852   5.538   8.763   4.150 -3.2682 -2.4124  0.3692
  614MOL0     H82853   5.483   8.838   4.377  1.6302  1.2081 -0.3030
  614MOL0     H82854   5.345   8.977   4.623 -0.3905  2.2377  1.4853
  614MOL0     H82855   5.476   9.011   4.515 -0.7713 -3.0116  0.4026
  614MOL0     H82856   5.446   9.211   4.673  0.5758  1.4289 -0.1430
  614MOL0     H82857   5.382   9.257   4.512 -3.5522 -4.6856 -4.1975
  614MOL0     H82858   5.146   9.206   4.581  0.4847  1.7405 -0.7067
  614MOL0     H82859   5.201   9.125   4.713 -2.6191  1.0156  1.2783
  614MOL0     H82860   5.313   9.346   4.801  0.4250  0.5678 -1.4637
  614MOL0     H82861   5.140   9.323   4.819  1.0203 -0.5989  1.9244
  614MOL0     H82862   5.087   9.449   4.635 -1.2988 -2.2553  1.8124
  614MOL0     H82863   5.245   9.458   4.563 -1.9229  1.7576 -0.2476
  614MOL0     H82864   5.140   9.590   4.829 -1.0244 -2.1924 -0.4085
  614MOL0     H82865   5.314   9.580   4.791 -0.9730 -4.1615  3.3142
  614MOL0     H82866   5.083   9.731   4.654 -0.7928  4.9526  1.6119
  614MOL0     H82867   5.238   9.710   4.572  1.4691  0.4824  1.2856
  614MOL0     H82868   5.337   9.831   4.773  0.3487 -0.7048 -0.8560
  614MOL0     H82869   5.215   9.938   4.701 -1.2070  2.3126  2.9334
  614MOL0     H82870   5.204   9.112   4.214 -1.4904 -0.7681  2.6765
  614MOL0     H82871   5.276   9.030   3.958 -1.4378 -1.7357 -0.4981
  614MOL0     H82872   5.416   8.814   3.669 -0.9229 -0.7312 -4.4986
  614MOL0     H82873   5.499   8.761   3.459  2.1188 -0.2098 -2.1917
  614MOL0     H82874   5.979   9.106   1.769  1.5160 -0.9158 -1.9523
  614MOL0     H82875   5.911   8.866   1.694 -0.5808  0.2694  4.4691
  614MOL0     H82876   5.473   8.557   1.622  4.0486 -2.8420  0.9121
  614MOL0     H82877   5.388   8.373   1.512  0.6078 -0.0614  1.9069
  614MOL0     H82878   5.565   8.211   1.130 -0.2552 -0.5844 -1.4560
  614MOL0     H82879   5.437   8.325   1.081 -0.1023 -1.5286 -1.0568
  614MOL0     H82880   5.362   8.111   1.029  1.1622 -2.1619 -0.6605
  614MOL0     H82881   5.271   8.158   1.177 -0.1081 -0.3317 -1.0164
  614MOL0     H82882   5.419   8.006   1.309  0.2175  3.5404  0.1257
  614MOL0     H82883   5.525   7.985   1.160 -0.2707  0.3087 -1.9446
  614MOL0     H82884   5.250   7.858   1.230 -2.8880  2.0637 -3.7010
  614MOL0     H82885   5.304   7.904   1.065  2.6848 -0.3742 -0.2806
  614MOL0     H82886   5.589   7.600   1.156  0.6459 -0.4679 -0.6313
  614MOL0     H82887   5.610   8.474   1.163 -3.3102  1.7107 -2.1989
  614MOL0     H82888   5.661   8.713   1.131 -0.4147  4.3035 -0.0325
  614MOL0     H82889   5.684   8.821   1.256  1.7535 -0.1287 -1.1054
  614MOL0     H82890   5.798   8.682   1.244  1.4626  1.0922 -1.4879
  615MOL0     O82891   1.941   5.839   8.362  0.4836 -0.1885  0.6356
  615MOL0     C82892   2.031   5.904   8.416 -0.3912 -0.2146 -0.1034
  615MOL0     O82893   2.093   5.871   8.530  1.3826 -0.3310  0.0855
  615MOL0     C82894   2.050   5.786   8.629 -0.1001  0.5999 -0.0445
  615MOL0     C82895   1.915   5.738   8.651  0.4290  0.0655  0.1927
  615MOL0     C82896   1.881   5.652   8.755 -0.0594  0.9956  0.2178
  615MOL0     C82897   1.980   5.616   8.847 -0.1583  0.6659 -0.1465
  615MOL0     O82898   1.968   5.538   8.956 -0.1163 -0.4888  0.2024
  615MOL0     C82899   1.849   5.457   8.967 -0.3094 -0.2045 -1.1787
  615MOL0     C82900   1.752   5.526   9.071  0.3624 -0.6290 -0.4520
  615MOL0     C82901   1.638   5.439   9.116 -0.6284 -0.2554  0.1099
  615MOL0     C82902   1.535   5.401   9.016 -0.4823  0.6178 -0.0084
  615MOL0     C82903   1.425   5.330   9.084 -0.1848  0.7022  1.0484
  615MOL0     C82904   1.348   5.228   8.993  0.2502 -0.2376 -0.7236
  615MOL0     C82905   1.418   5.099   8.977 -0.8136 -0.2927 -0.0100
  615MOL0     C82906   1.353   5.015   8.873  0.4788 -0.2487 -0.2499
  615MOL0     N82907   1.430   4.902   8.826  0.8407 -0.1302 -0.1533
  615MOL0     C82908   1.429   4.780   8.878  0.1734  0.6141 -1.0495
  615MOL0     C82909   1.499   4.706   8.791 -0.0517  0.3196 -0.1024
  615MOL0     C82910   1.522   4.564   8.797 -0.9853  0.3181 -0.5907
  615MOL0     C82911   1.671   4.523   8.836  0.2130 -0.6239 -0.2774
  615MOL0     C82912   1.785   4.579   8.750 -1.1670  0.2765 -0.1593
  615MOL0     C82913   1.903   4.486   8.744  0.2541  0.9216 -1.0146
  615MOL0     O82914   1.892   4.374   8.652  0.8900 -0.6456 -0.2630
  615MOL0     C82915   1.880   4.390   8.518 -0.8844 -1.2272  0.5215
  615MOL0     C82916   1.971   4.470   8.449 -1.5246 -0.3061 -0.7242
  615MOL0     C82917   1.974   4.459   8.310  0.3992 -1.3271 -0.2380
  615MOL0     C82918   1.878   4.384   8.235 -0.4759  0.1907 -0.0514
  615MOL0     C82919   1.878   4.377   8.090 -0.6877 -0.3714  0.0427
  615MOL0     O82920   1.763   4.334   8.033 -0.8814 -0.1774  0.3944
  615MOL0     C82921   1.745   4.343   7.897 -0.2238  0.2101 -0.4587
  615MOL0     C82922   1.845   4.311   7.802 -0.6794 -0.2334  0.1920
  615MOL0     C82923   1.821   4.335   7.664  0.2510 -0.2959 -0.4367
  615MOL0     C82924   1.690   4.364   7.621 -0.5879  0.7034  0.2264
  615MOL0     O82925   1.653   4.380   7.489  0.2531  0.3785  0.0995
  615MOL0     C82926   1.743   4.432   7.393  0.3840 -0.4629 -0.5256
  615MOL0     C82927   1.662   4.503   7.289 -0.7116  0.0421  1.2285
  615MOL0     C82928   1.737   4.519   7.154  0.0233  0.1047  0.7256
  615MOL0     C82929   1.768   4.382   7.082  0.2450 -0.5753 -0.2140
  615MOL0     C82930   1.820   4.392   6.941  0.5355 -0.5231 -0.1365
  615MOL0     C82931   1.880   4.254   6.893  0.4283 -0.0315  0.6176
  615MOL0     C82932   1.934   4.247   6.748  0.0825 -0.1426 -0.1544
  615MOL0     C82933   2.078   4.308   6.745  0.4322 -0.0403 -0.5139
  615MOL0    Cl82934   2.147   4.302   6.580 -0.1532 -0.0782  0.4644
  615MOL0     C82935   1.586   4.368   7.712  0.4273  1.5979  0.2647
  615MOL0     C82936   1.615   4.356   7.851 -0.1132 -0.2708  0.5922
  615MOL0     O82937   1.978   4.430   8.037  0.3895 -0.3326 -0.6917
  615MOL0     C82938   1.786   4.318   8.310 -0.7051  0.1487  0.2124
  615MOL0     C82939   1.791   4.310   8.446 -0.0783 -0.9700 -0.6411
  615MOL0     N82940   1.540   4.789   8.686  0.2561  0.3758  0.5943
  615MOL0     N82941   1.504   4.903   8.714 -0.0303 -0.5585  0.4818
  615MOL0     C82942   2.105   5.671   8.842  0.3594 -1.1784  0.5511
  615MOL0     C82943   2.149   5.749   8.720  0.5191  0.5993  0.0016
  615MOL0     C82944   2.087   6.021   8.341  0.3790 -0.0908 -0.5525
  615MOL0     C82945   1.992   6.116   8.292 -0.6653  0.3605 -0.6735
  615MOL0     C82946   2.026   6.229   8.227  0.0953 -0.3198 -0.3964
  615MOL0     C82947   2.165   6.256   8.204 -0.1653  0.1361 -0.1986
  615MOL0     O82948   2.194   6.363   8.126  0.1700 -0.1095 -0.5477
  615MOL0     C82949   2.329   6.399   8.091  0.7138 -0.4535  1.0403
  615MOL0     C82950   2.406   6.469   8.196 -0.3631 -0.6283  0.5352
  615MOL0     C82951   2.344   6.606   8.227  0.9379 -1.2062  0.0626
  615MOL0     C82952   2.452   6.705   8.292  0.4138 -0.4244 -0.3370
  615MOL0     C82953   2.412   6.825   8.359  0.5618  0.4358 -0.2481
  615MOL0     C82954   2.395   6.938   8.414 -0.2562 -0.1721  0.3638
  615MOL0     C82955   2.263   6.168   8.259 -0.6269  0.5299  0.1406
  615MOL0     C82956   2.217   6.055   8.325 -0.2619  0.5268 -0.2433
  615MOL0     C82957   2.331   5.962   8.380  0.0307 -0.1387 -0.0609
  615MOL0     H82958   1.840   5.777   8.582  3.0111  1.0548 -2.2457
  615MOL0     H82959   1.777   5.630   8.776  0.1560 -1.0962 -0.6527
  615MOL0     H82960   1.797   5.446   8.871 -2.4722  0.1788 -0.0992
  615MOL0     H82961   1.879   5.356   8.994 -3.3724 -1.1811 -1.1597
  615MOL0     H82962   1.717   5.624   9.037  0.2216 -1.6203 -3.4156
  615MOL0     H82963   1.801   5.554   9.165 -2.8744  0.3891  1.0865
  615MOL0     H82964   1.588   5.490   9.199  1.9499  2.1609  0.3310
  615MOL0     H82965   1.685   5.354   9.166 -1.4210 -1.2223 -0.7383
  615MOL0     H82966   1.495   5.494   8.976 -0.2421  0.7240 -0.0029
  615MOL0     H82967   1.588   5.340   8.942  0.8222  0.0753  1.3161
  615MOL0     H82968   1.445   5.275   9.177  0.3885 -0.1060  0.4620
  615MOL0     H82969   1.348   5.404   9.107 -0.7364  1.3370 -2.3420
  615MOL0     H82970   1.257   5.199   9.045 -0.4113  3.0814  0.1942
  615MOL0     H82971   1.333   5.277   8.896  0.9114  0.5141 -0.4593
  615MOL0     H82972   1.419   5.053   9.076  0.8783 -0.3348 -0.0190
  615MOL0     H82973   1.518   5.128   8.946 -1.5975  1.8709 -0.7145
  615MOL0     H82974   1.252   4.985   8.904 -0.5276  1.5919 -1.5326
  615MOL0     H82975   1.333   5.077   8.784  2.2082  2.2800  1.0081
  615MOL0     H82976   1.380   4.743   8.967 -0.2929  0.0511 -1.5298
  615MOL0     H82977   1.449   4.523   8.868 -1.3888  2.3374  0.2381
  615MOL0     H82978   1.505   4.526   8.696 -0.2988  2.0227 -1.3878
  615MOL0     H82979   1.695   4.570   8.932 -0.5867 -4.0616  1.7992
  615MOL0     H82980   1.667   4.417   8.864  2.2730 -0.1748  2.0690
  615MOL0     H82981   1.819   4.677   8.787  0.1845 -0.1042 -0.3369
  615MOL0     H82982   1.748   4.596   8.649 -3.6372  0.7691  0.7476
  615MOL0     H82983   1.925   4.445   8.844  1.6812 -0.3064 -1.7940
  615MOL0     H82984   1.992   4.540   8.711  2.5275 -1.6525  0.4711
  615MOL0     H82985   2.043   4.533   8.501 -0.7031 -1.8912  0.1207
  615MOL0     H82986   2.043   4.516   8.248 -1.3081  2.2192  0.8683
  615MOL0     H82987   1.942   4.276   7.836 -1.1339 -0.9637  0.7557
  615MOL0     H82988   1.901   4.338   7.592 -1.2044 -0.9328 -2.1484
  615MOL0     H82989   1.808   4.502   7.447 -0.1597  0.0659 -0.5515
  615MOL0     H82990   1.791   4.352   7.335  0.1964  1.0835 -2.9723
  615MOL0     H82991   1.574   4.440   7.273 -0.2485 -0.0147 -1.5682
  615MOL0     H82992   1.643   4.601   7.333  1.4010 -0.1716  2.7784
  615MOL0     H82993   1.673   4.559   7.075 -0.4099 -1.9486 -0.0090
  615MOL0     H82994   1.825   4.582   7.168 -1.3521  2.0444  1.1218
  615MOL0     H82995   1.670   4.333   7.077 -2.4094  3.6872  2.7318
  615MOL0     H82996   1.834   4.324   7.147  2.2511  1.6504 -0.1124
  615MOL0     H82997   1.889   4.477   6.930 -1.0413  0.8971  0.4200
  615MOL0     H82998   1.736   4.417   6.874  0.0785 -1.3022  0.1376
  615MOL0     H82999   1.966   4.245   6.960  2.4780 -0.7548 -1.9196
  615MOL0     H83000   1.820   4.163   6.901  3.4140 -2.3534 -1.0344
  615MOL0     H83001   1.872   4.305   6.680  1.3584  1.3980 -0.0732
  615MOL0     H83002   1.943   4.146   6.708 -1.2854 -0.7178  0.9151
  615MOL0     H83003   2.077   4.409   6.786  1.6343 -1.1323  2.5169
  615MOL0     H83004   2.138   4.244   6.809 -2.6468 -0.9286  1.7527
  615MOL0     H83005   1.481   4.378   7.684  0.8182 -1.1544 -2.7761
  615MOL0     H83006   1.533   4.376   7.919 -1.1313  0.3409 -0.7574
  615MOL0     H83007   1.710   4.269   8.249  1.5218 -0.9567 -1.8583
  615MOL0     H83008   1.721   4.239   8.488 -2.0048 -0.4710 -2.8241
  615MOL0     H83009   2.183   5.644   8.912  0.4670  0.8045  1.2573
  615MOL0     H83010   2.254   5.765   8.698  1.3082 -3.3122  0.1968
  615MOL0     H83011   1.885   6.102   8.299 -0.6229 -0.2080 -1.1161
  615MOL0     H83012   1.954   6.306   8.202 -0.2617 -0.9975 -1.5527
  615MOL0     H83013   2.328   6.467   8.005  0.3054 -3.3140 -1.3879
  615MOL0     H83014   2.393   6.313   8.069  0.3703 -0.7069  1.0133
  615MOL0     H83015   2.508   6.484   8.160 -0.7607  1.5086  0.1473
  615MOL0     H83016   2.414   6.409   8.287  1.8894 -0.4747  0.4924
  615MOL0     H83017   2.259   6.591   8.295  1.9967  1.0258  2.0165
  615MOL0     H83018   2.303   6.647   8.134 -0.6191  4.0783  2.6385
  615MOL0     H83019   2.494   6.655   8.380 -3.5440  0.2388  2.1815
  615MOL0     H83020   2.538   6.718   8.226  0.9147 -1.5079  0.0775
  615MOL0     H83021   2.382   7.037   8.452 -1.4559 -0.7119  1.4356
  615MOL0     H83022   2.370   6.182   8.251 -0.5110  0.6085  1.5976
  615MOL0     H83023   2.308   5.863   8.340 -1.2462  0.9511 -2.2766
  615MOL0     H83024   2.427   5.993   8.338  0.9141 -0.9699  1.2985
  615MOL0     H83025   2.345   5.960   8.488  0.9457 -0.5503 -0.1795
  616MOL0     O83026   6.416   2.974  10.069 -0.1863 -0.2122 -1.0854
  616MOL0     C83027   6.475   2.932   9.971 -0.0097  0.4211 -0.1406
  616MOL0     O83028   6.452   2.972   9.840 -0.6847  0.3249  0.5899
  616MOL0     C83029   6.346   3.024   9.793  0.4400  0.5158  0.6715
  616MOL0     C83030   6.349   3.026   9.654 -0.9923 -0.2497  0.3898
  616MOL0     C83031   6.237   3.083   9.586 -0.1356  0.2152 -0.4480
  616MOL0     C83032   6.119   3.126   9.650 -0.5479 -0.3950 -0.3142
  616MOL0     O83033   6.021   3.174   9.564 -0.3378 -0.5676 -0.5332
  616MOL0     C83034   5.921   3.264   9.618  0.3725 -0.8130 -0.5014
  616MOL0     C83035   5.819   3.299   9.505 -0.6648  0.1781  0.6357
  616MOL0     C83036   5.697   3.391   9.530  0.0599  0.6025  0.6982
  616MOL0     C83037   5.598   3.390   9.409 -0.4821  0.6547 -0.7417
  616MOL0     C83038   5.478   3.483   9.418  0.3220 -0.3202 -0.5332
  616MOL0     C83039   5.420   3.474   9.564  0.3667 -0.1473 -0.4153
  616MOL0     C83040   5.287   3.557   9.548 -0.9162 -1.5037 -0.5749
  616MOL0     C83041   5.240   3.625   9.680  0.3458 -0.1320  1.1448
  616MOL0     N83042   5.196   3.526   9.783  0.1508  0.7341 -0.4353
  616MOL0     C83043   5.082   3.451   9.791  0.4839 -0.2518 -0.2924
  616MOL0     C83044   5.090   3.372   9.904  1.5956 -0.5750  0.3195
  616MOL0     C83045   4.991   3.274   9.962  0.2884  0.4568 -0.4439
  616MOL0     C83046   4.843   3.306   9.928 -0.0513 -0.3688  0.0191
  616MOL0     C83047   4.743   3.197   9.982 -0.5899  0.2070 -1.2870
  616MOL0     C83048   4.650   3.260  10.079  0.6576  0.6935  0.4422
  616MOL0     O83049   4.718   3.296  10.203 -0.6279  0.1629 -0.3544
  616MOL0     C83050   4.651   3.361  10.301  0.1671  1.1648  1.7376
  616MOL0     C83051   4.715   3.363  10.425  0.2241  0.5950 -0.5978
  616MOL0     C83052   4.652   3.419  10.530 -0.3732  0.0911  0.6214
  616MOL0     C83053   4.525   3.460  10.530  0.4172 -0.3604 -0.1136
  616MOL0     C83054   4.458   3.518  10.650  0.6560  0.1332  0.3234
  616MOL0     O83055   4.516   3.466  10.764  0.0762  0.7793 -0.9707
  616MOL0     C83056   4.473   3.517  10.879  0.1057 -0.1766  1.0119
  616MOL0     C83057   4.477   3.647  10.915 -0.0270  0.3011 -0.2893
  616MOL0     C83058   4.415   3.697  11.029  0.2083 -0.0877  0.4692
  616MOL0     C83059   4.337   3.613  11.116 -0.8383 -0.1573  0.0952
  616MOL0     O83060   4.267   3.648  11.227 -0.9129 -0.1146 -0.3000
  616MOL0     C83061   4.214   3.779  11.228 -0.2691 -0.0502 -0.0224
  616MOL0     C83062   4.145   3.807  11.357  0.1096  0.0743  0.1013
  616MOL0     C83063   4.227   3.819  11.485  0.1671 -0.3950 -0.4566
  616MOL0     C83064   4.154   3.799  11.617  1.2108  0.5483 -0.1147
  616MOL0     C83065   4.210   3.889  11.733 -0.4912 -0.8741  0.3668
  616MOL0     C83066   4.115   3.898  11.853 -0.6529 -0.1685 -0.5907
  616MOL0     C83067   4.145   3.774  11.940  0.2015 -0.3350  0.0179
  616MOL0     C83068   4.038   3.766  12.051  0.9906 -0.7030 -0.1014
  616MOL0    Cl83069   3.867   3.747  11.994 -0.0352 -0.3220  0.0978
  616MOL0     C83070   4.344   3.480  11.089 -0.2477 -0.0319  0.1361
  616MOL0     C83071   4.408   3.431  10.972  1.1129 -0.4099  0.0822
  616MOL0     O83072   4.363   3.594  10.641 -0.0292 -0.3039 -0.1719
  616MOL0     C83073   4.457   3.457  10.405  0.2278 -0.5316  0.5291
  616MOL0     C83074   4.525   3.411  10.284 -0.1082 -0.1006 -0.3235
  616MOL0     N83075   5.208   3.406   9.962 -0.7776  0.1312  0.1203
  616MOL0     N83076   5.272   3.496   9.892 -0.1647 -0.5723 -0.0227
  616MOL0     C83077   6.124   3.137   9.790 -0.1131  0.2865  0.0605
  616MOL0     C83078   6.234   3.081   9.860  0.1153  0.0888  0.1695
  616MOL0     C83079   6.599   2.853   9.998  0.9572 -0.4022  0.6624
  616MOL0     C83080   6.709   2.876   9.915 -1.0509  0.2403 -1.2141
  616MOL0     C83081   6.819   2.796   9.937  0.5486 -1.5027  0.4110
  616MOL0     C83082   6.829   2.706  10.043  0.6965 -0.1110  0.2371
  616MOL0     O83083   6.944   2.642  10.068  0.0068 -0.1694 -1.0577
  616MOL0     C83084   7.051   2.729  10.118 -0.3231 -0.0743  0.7148
  616MOL0     C83085   7.136   2.661  10.227 -0.4920  0.5549 -0.2496
  616MOL0     C83086   7.042   2.608  10.329  0.6539  0.3944  1.0341
  616MOL0     C83087   7.116   2.565  10.456  0.3320 -0.9627  0.2624
  616MOL0     C83088   7.201   2.447  10.440 -0.8405 -0.7866  0.3512
  616MOL0     C83089   7.259   2.337  10.439 -1.0101  0.5656  0.0137
  616MOL0     C83090   6.723   2.692  10.128 -0.0531  0.1199 -0.1643
  616MOL0     C83091   6.613   2.766  10.112  0.2990 -0.2496  0.4803
  616MOL0     C83092   6.501   2.736  10.209  0.0481 -0.1056  0.1464
  616MOL0     H83093   6.436   2.996   9.595  0.5829  0.2355  2.3375
  616MOL0     H83094   6.237   3.087   9.477  0.5450 -0.3125 -0.4765
  616MOL0     H83095   5.865   3.217   9.700 -0.3984 -1.0995 -1.1693
  616MOL0     H83096   5.968   3.356   9.655  0.7283 -1.3147  0.3217
  616MOL0     H83097   5.793   3.204   9.459  1.1734  0.4246 -1.0817
  616MOL0     H83098   5.883   3.357   9.436 -1.2950  1.5503  1.1618
  616MOL0     H83099   5.745   3.488   9.546 -1.8868  1.4718  1.5720
  616MOL0     H83100   5.647   3.358   9.622 -1.1029 -3.6067 -1.2213
  616MOL0     H83101   5.659   3.415   9.321 -0.7576  0.5061 -0.9798
  616MOL0     H83102   5.565   3.286   9.400 -0.6364  0.7187 -0.9237
  616MOL0     H83103   5.503   3.588   9.404 -1.2444 -0.1846 -2.9985
  616MOL0     H83104   5.397   3.458   9.349 -0.7078 -0.6181  0.7396
  616MOL0     H83105   5.405   3.372   9.601  1.7518 -0.1597  0.1686
  616MOL0     H83106   5.492   3.525   9.628  0.2115 -0.1650 -0.2257
  616MOL0     H83107   5.207   3.492   9.510 -0.8319 -2.5344  0.9270
  616MOL0     H83108   5.306   3.635   9.474 -3.1010 -0.8572 -0.5296
  616MOL0     H83109   5.313   3.696   9.717 -1.1061  1.1597  1.6299
  616MOL0     H83110   5.149   3.685   9.667  2.3298  3.0004  0.6706
  616MOL0     H83111   5.004   3.456   9.716 -0.3291 -2.2934  0.3386
  616MOL0     H83112   5.016   3.173   9.928 -1.0905 -0.5068  1.1941
  616MOL0     H83113   5.006   3.268  10.070 -0.7834 -0.7985 -0.3445
  616MOL0     H83114   4.821   3.404   9.971 -1.5284 -1.8179  2.8320
  616MOL0     H83115   4.829   3.311   9.820 -0.5529  1.1420  0.1393
  616MOL0     H83116   4.798   3.116  10.029 -0.4701 -1.1457 -3.5953
  616MOL0     H83117   4.697   3.152   9.894  2.3856 -0.8439 -2.4111
  616MOL0     H83118   4.573   3.185  10.102  0.1655  0.7396 -0.9791
  616MOL0     H83119   4.592   3.347  10.046 -1.2411 -0.5089  0.4211
  616MOL0     H83120   4.808   3.309  10.439  0.4227  1.1728  0.3908
  616MOL0     H83121   4.704   3.419  10.626  0.1842  0.5349  0.3253
  616MOL0     H83122   4.538   3.715  10.856 -1.0097  0.3056 -1.3426
  616MOL0     H83123   4.417   3.803  11.054 -2.6046  0.4898 -1.2056
  616MOL0     H83124   4.287   3.860  11.215  0.1214 -0.2702  0.7267
  616MOL0     H83125   4.143   3.792  11.146  1.4033  4.3550 -1.1124
  616MOL0     H83126   4.069   3.884  11.344 -1.8185 -1.3996  1.9532
  616MOL0     H83127   4.069   3.728  11.368 -1.6433  1.5532 -0.8434
  616MOL0     H83128   4.322   3.764  11.478 -2.1023 -4.6370 -1.5099
  616MOL0     H83129   4.258   3.923  11.492  1.6861 -0.8776  0.5406
  616MOL0     H83130   4.150   3.693  11.644 -2.0703  0.2651 -1.2860
  616MOL0     H83131   4.049   3.820  11.595  0.9427 -1.5966 -1.0720
  616MOL0     H83132   4.215   3.991  11.692 -0.5629 -0.9226  0.2367
  616MOL0     H83133   4.314   3.872  11.761 -0.2154  3.1597  2.5820
  616MOL0     H83134   4.134   3.984  11.919  2.1459 -1.4401  0.4145
  616MOL0     H83135   4.011   3.911  11.822 -0.9376 -2.5331 -0.8008
  616MOL0     H83136   4.252   3.774  11.967  1.4967  7.2984 -2.4864
  616MOL0     H83137   4.128   3.681  11.885  2.7153 -0.9770  0.1953
  616MOL0     H83138   4.062   3.682  12.116  0.4541 -0.6494  0.1683
  616MOL0     H83139   4.041   3.868  12.090  2.2626  0.4362 -2.9045
  616MOL0     H83140   4.274   3.416  11.143 -0.6602  1.2964  1.2507
  616MOL0     H83141   4.401   3.323  10.960 -1.4344 -0.1245 -1.9357
  616MOL0     H83142   4.356   3.496  10.397 -0.0419 -1.4105 -0.5582
  616MOL0     H83143   4.471   3.418  10.190 -4.1297 -2.3835  1.5113
  616MOL0     H83144   6.041   3.178   9.848 -0.5562  0.0811 -0.4235
  616MOL0     H83145   6.217   3.067   9.966  3.6948 -1.9827  0.6548
  616MOL0     H83146   6.706   2.962   9.848  0.6326  0.7544 -0.6855
  616MOL0     H83147   6.910   2.823   9.883  0.1474 -1.1011 -0.0687
  616MOL0     H83148   7.015   2.830  10.141 -1.0862 -0.2967  0.5072
  616MOL0     H83149   7.121   2.729  10.033 -3.1261  0.3026 -1.7655
  616MOL0     H83150   7.207   2.731  10.272  0.8870 -0.4264 -0.8392
  616MOL0     H83151   7.199   2.578  10.193  0.4731  0.9319  0.5929
  616MOL0     H83152   6.972   2.534  10.291  2.3753 -0.6682 -0.2287
  616MOL0     H83153   6.975   2.694  10.339 -1.0582 -0.5430 -1.2813
  616MOL0     H83154   7.177   2.647  10.495  2.1736 -0.9244 -2.4577
  616MOL0     H83155   7.037   2.536  10.526 -1.7525  3.2053 -0.0263
  616MOL0     H83156   7.294   2.237  10.441 -1.7942  0.2686 -0.4715
  616MOL0     H83157   6.721   2.626  10.214 -0.3665  0.9986  0.5236
  616MOL0     H83158   6.529   2.652  10.273  1.7536  1.8965  2.1960
  616MOL0     H83159   6.486   2.825  10.270 -0.6071 -0.5174  0.6072
  616MOL0     H83160   6.412   2.721  10.146  1.0990  0.9157 -1.6720
  617MOL0     O83161   0.206   7.159   3.184 -0.8805 -0.4884 -0.3384
  617MOL0     C83162   0.322   7.198   3.202  0.0111 -0.4888  0.0281
  617MOL0     O83163   0.361   7.292   3.298 -0.8841 -0.7294  0.7004
  617MOL0     C83164   0.271   7.339   3.385  1.1013  0.2244 -0.5840
  617MOL0     C83165   0.235   7.265   3.499 -0.8839 -0.9115 -0.0828
  617MOL0     C83166   0.156   7.321   3.597 -0.3805 -0.3104 -0.0814
  617MOL0     C83167   0.100   7.438   3.581  0.2097  0.6689 -0.8957
  617MOL0     O83168   0.011   7.474   3.673  0.5242 -0.2765 -0.4975
  617MOL0     C83169   0.059   7.548   3.784 -0.5226  0.3296 -0.3957
  617MOL0     C83170  -0.066   7.608   3.850  0.0441 -1.1271  0.2047
  617MOL0     C83171  -0.036   7.668   3.986  0.2011  1.1372  0.5403
  617MOL0     C83172  -0.010   7.587   4.112  0.4063  0.5595  0.4115
  617MOL0     C83173   0.064   7.685   4.214  0.0922 -0.6183  0.2413
  617MOL0     C83174   0.078   7.602   4.348 -0.2232 -0.7470 -0.7697
  617MOL0     C83175   0.176   7.661   4.456 -0.7396 -0.0161  0.7736
  617MOL0     C83176   0.127   7.794   4.515 -0.8044 -1.1040 -0.0406
  617MOL0     N83177   0.017   7.789   4.613  0.0065  0.3902  0.4281
  617MOL0     C83178   0.021   7.800   4.744  0.6075 -0.1729  0.4116
  617MOL0     C83179  -0.102   7.809   4.786 -0.6754  0.2798 -0.0016
  617MOL0     C83180  -0.144   7.808   4.933 -0.3972  0.1585 -0.5363
  617MOL0     C83181  -0.098   7.933   5.010  0.7400 -0.2820  0.0568
  617MOL0     C83182  -0.152   7.919   5.155  0.4205 -0.8193  0.3992
  617MOL0     C83183  -0.275   8.002   5.172  0.0844 -0.0549  0.6270
  617MOL0     O83184  -0.328   7.997   5.308  0.8753  0.0932 -0.1536
  617MOL0     C83185  -0.398   7.884   5.357 -0.1210  0.0210 -0.0541
  617MOL0     C83186  -0.422   7.879   5.499  0.7718  0.7506  0.4759
  617MOL0     C83187  -0.502   7.771   5.558  0.2241 -0.4220  0.2222
  617MOL0     C83188  -0.558   7.678   5.472 -0.5003  0.3553 -0.4550
  617MOL0     C83189  -0.648   7.573   5.529  0.2749  0.3852  0.6473
  617MOL0     O83190  -0.643   7.536   5.649  0.1680  0.8040  0.3799
  617MOL0     C83191  -0.680   7.415   5.692  0.1897 -0.0816 -0.5255
  617MOL0     C83192  -0.772   7.320   5.652 -1.0334 -0.0600 -0.8641
  617MOL0     C83193  -0.782   7.192   5.725 -0.7715 -1.3652  1.2494
  617MOL0     C83194  -0.720   7.174   5.851 -0.5064  0.5202  0.0273
  617MOL0     O83195  -0.751   7.068   5.935 -0.5466 -0.2594  0.4535
  617MOL0     C83196  -0.833   7.102   6.046 -0.0683  0.6699 -0.4178
  617MOL0     C83197  -0.902   6.970   6.097 -0.1597 -1.0073 -0.2224
  617MOL0     C83198  -0.808   6.873   6.170  0.1996 -0.8286 -0.7548
  617MOL0     C83199  -0.793   6.910   6.312  0.8682 -0.6268 -0.1041
  617MOL0     C83200  -0.703   6.824   6.393 -0.3678 -0.7822  0.0266
  617MOL0     C83201  -0.759   6.694   6.458  0.0733  0.5671  0.2639
  617MOL0     C83202  -0.759   6.579   6.356 -0.1153 -0.0543  0.3478
  617MOL0     C83203  -0.793   6.448   6.437  0.1238  0.6219  1.2984
  617MOL0    Cl83204  -0.646   6.405   6.538 -0.4005 -0.3420 -0.4999
  617MOL0     C83205  -0.640   7.279   5.906  0.3991  0.6118 -0.1684
  617MOL0     C83206  -0.618   7.386   5.815  0.3756 -0.0995 -0.1131
  617MOL0     O83207  -0.726   7.526   5.440  0.7344 -0.9801 -0.2447
  617MOL0     C83208  -0.529   7.679   5.335  0.5995 -0.0637  0.0061
  617MOL0     C83209  -0.447   7.780   5.279  0.0838  0.2545 -0.8145
  617MOL0     N83210  -0.184   7.810   4.679  0.0638 -0.9056  0.4954
  617MOL0     N83211  -0.112   7.804   4.570  0.4243 -0.5969 -1.2506
  617MOL0     C83212   0.119   7.516   3.467  0.3947  0.2685 -0.8852
  617MOL0     C83213   0.218   7.471   3.375  0.2364  0.3162 -0.7612
  617MOL0     C83214   0.426   7.126   3.125  0.6680  0.3029  0.6830
  617MOL0     C83215   0.402   7.075   2.992  0.0521  0.6539  0.7757
  617MOL0     C83216   0.487   6.980   2.933  0.4805  0.1904 -0.1865
  617MOL0     C83217   0.608   6.959   2.988  0.7856  0.9350 -0.0324
  617MOL0     O83218   0.703   6.890   2.918  0.9662 -0.4697  0.0157
  617MOL0     C83219   0.808   6.970   2.867  0.3450  0.5658 -0.7333
  617MOL0     C83220   0.939   6.891   2.838  0.5927 -0.1460  0.4368
  617MOL0     C83221   0.971   6.809   2.970  0.8417 -0.3826  0.5575
  617MOL0     C83222   1.109   6.735   2.949  0.8651 -0.6043 -1.0991
  617MOL0     C83223   1.147   6.688   3.078 -0.6194  0.3038 -0.6010
  617MOL0     C83224   1.183   6.635   3.185  0.8400  0.6505  0.1135
  617MOL0     C83225   0.639   7.007   3.110 -0.3909 -0.5075  1.4144
  617MOL0     C83226   0.549   7.093   3.175 -1.0925 -0.4686 -0.2697
  617MOL0     C83227   0.589   7.133   3.315  0.6304 -0.2267 -0.2867
  617MOL0     H83228   0.293   7.174   3.512  2.4633  0.9761 -0.7060
  617MOL0     H83229   0.145   7.257   3.684 -3.9847 -2.4671 -1.8766
  617MOL0     H83230   0.097   7.482   3.862 -1.1670  0.4846  0.0557
  617MOL0     H83231   0.138   7.615   3.751  2.1356 -2.3830  0.0251
  617MOL0     H83232  -0.140   7.527   3.858 -2.2625  0.4686 -2.9840
  617MOL0     H83233  -0.112   7.681   3.783 -1.0529 -3.0717 -1.2749
  617MOL0     H83234  -0.121   7.734   4.000 -0.1492  0.9018 -0.3981
  617MOL0     H83235   0.047   7.736   3.964 -0.2385  2.1228  1.8382
  617MOL0     H83236  -0.097   7.555   4.170  1.1838 -0.8743  0.8547
  617MOL0     H83237   0.048   7.495   4.096  0.6919  1.0735 -1.7220
  617MOL0     H83238   0.161   7.718   4.178  0.2130  0.9836  1.8580
  617MOL0     H83239   0.013   7.782   4.215  4.9446  2.3204 -2.4789
  617MOL0     H83240  -0.022   7.578   4.385  0.6365  0.2368  2.5001
  617MOL0     H83241   0.118   7.502   4.331 -0.4599 -1.2389  1.3439
  617MOL0     H83242   0.277   7.675   4.418 -1.1959 -0.9777 -0.9118
  617MOL0     H83243   0.178   7.584   4.534  1.9331 -1.2758 -0.4032
  617MOL0     H83244   0.213   7.834   4.570 -1.1884 -0.7934  0.3331
  617MOL0     H83245   0.102   7.851   4.426 -0.7137 -1.2519 -0.1626
  617MOL0     H83246   0.107   7.794   4.810  1.8457  0.7647 -1.0380
  617MOL0     H83247  -0.253   7.793   4.932 -0.1295 -2.3565  0.6308
  617MOL0     H83248  -0.106   7.720   4.986 -2.8034  0.0329  1.1339
  617MOL0     H83249   0.010   7.945   5.019  0.3009  3.1940  3.6668
  617MOL0     H83250  -0.154   8.013   4.960  1.1401 -0.8748 -1.3765
  617MOL0     H83251  -0.083   7.952   5.234 -1.3306  1.9952  0.8986
  617MOL0     H83252  -0.175   7.818   5.188 -2.5692  0.3336  2.2705
  617MOL0     H83253  -0.349   7.968   5.100  0.8368  0.7785 -0.5653
  617MOL0     H83254  -0.256   8.109   5.165 -0.9763  0.2463  1.8453
  617MOL0     H83255  -0.386   7.955   5.568 -1.4200  0.5046  1.9578
  617MOL0     H83256  -0.519   7.759   5.664  0.3374 -0.6954  0.2127
  617MOL0     H83257  -0.817   7.339   5.555  1.8998  2.4571 -1.9089
  617MOL0     H83258  -0.843   7.127   5.663 -1.0985  2.2376 -2.6789
  617MOL0     H83259  -0.769   7.139   6.126 -0.4155  1.8403 -0.6672
  617MOL0     H83260  -0.908   7.179   6.022 -1.5599 -1.0563 -1.6728
  617MOL0     H83261  -0.985   6.995   6.164 -0.6328 -0.8998 -0.8424
  617MOL0     H83262  -0.945   6.926   6.007  2.3699  1.5681 -2.9319
  617MOL0     H83263  -0.846   6.770   6.167  5.2333 -3.1362  1.7449
  617MOL0     H83264  -0.713   6.864   6.118  0.9435  0.7106  0.2412
  617MOL0     H83265  -0.894   6.905   6.354  1.5019 -2.2205  1.3423
  617MOL0     H83266  -0.750   7.010   6.320  1.6369 -0.8145 -1.5852
  617MOL0     H83267  -0.658   6.888   6.469  0.9827 -1.0869 -0.4938
  617MOL0     H83268  -0.631   6.796   6.317 -0.5674 -2.2773  0.3452
  617MOL0     H83269  -0.696   6.668   6.543 -0.3140  2.4056  1.1723
  617MOL0     H83270  -0.859   6.717   6.495 -0.4640  0.0365 -0.8178
  617MOL0     H83271  -0.670   6.575   6.294 -2.2072  1.1546 -3.0180
  617MOL0     H83272  -0.841   6.597   6.286  0.3976  0.2949 -0.1671
  617MOL0     H83273  -0.881   6.473   6.498  0.1856  1.6511  0.9967
  617MOL0     H83274  -0.802   6.369   6.362  2.6008  0.2668  1.2988
  617MOL0     H83275  -0.599   7.285   6.006  1.4197  0.1788 -0.5496
  617MOL0     H83276  -0.554   7.460   5.861  1.6361 -0.5701 -1.0400
  617MOL0     H83277  -0.567   7.603   5.267 -0.1830  1.4381 -1.2742
  617MOL0     H83278  -0.419   7.771   5.175 -0.6856  1.2015 -1.1227
  617MOL0     H83279   0.079   7.616   3.447 -2.9387 -0.5203  1.0489
  617MOL0     H83280   0.243   7.546   3.301 -1.8650 -0.0048 -1.8588
  617MOL0     H83281   0.317   7.106   2.932  0.8281 -0.6825 -1.0942
  617MOL0     H83282   0.455   6.913   2.853  1.0966 -1.7284  1.0922
  617MOL0     H83283   0.832   7.060   2.924 -0.3963  0.1453  0.2591
  617MOL0     H83284   0.766   7.007   2.773 -0.1412  1.6382 -0.1136
  617MOL0     H83285   1.020   6.963   2.824 -0.3241  0.8439  0.0970
  617MOL0     H83286   0.928   6.834   2.745  3.3025  2.6800 -1.8603
  617MOL0     H83287   0.891   6.737   2.990 -0.7608  1.7548  2.1985
  617MOL0     H83288   0.988   6.874   3.056  4.9174  0.0115 -0.3082
  617MOL0     H83289   1.100   6.650   2.882  0.0104 -0.6417 -0.9438
  617MOL0     H83290   1.191   6.794   2.907  3.2317 -2.6914  0.2783
  617MOL0     H83291   1.194   6.567   3.267 -0.1902  1.3875  0.8823
  617MOL0     H83292   0.736   6.983   3.153  0.4671  4.0529  2.5512
  617MOL0     H83293   0.691   7.104   3.341  1.7393  1.8504 -1.9359
  617MOL0     H83294   0.587   7.243   3.322 -0.2685 -0.2371 -0.2722
  617MOL0     H83295   0.520   7.095   3.390  1.8944  2.4881  2.4794
  618MOL0     O83296   0.696   6.879   9.152  0.2939  0.4374 -0.2165
  618MOL0     C83297   0.610   6.799   9.117 -0.6532 -0.3550  0.2159
  618MOL0     O83298   0.503   6.823   9.027 -0.2324 -0.0926 -0.9999
  618MOL0     C83299   0.459   6.949   9.044 -0.0892  0.3719  0.3385
  618MOL0     C83300   0.454   7.041   8.931 -1.1306 -0.7294  0.4185
  618MOL0     C83301   0.411   7.172   8.954 -0.8059 -0.6082  0.1863
  618MOL0     C83302   0.362   7.212   9.076  1.7843  0.9588 -0.5774
  618MOL0     O83303   0.320   7.341   9.109 -0.2686  0.7276  0.9350
  618MOL0     C83304   0.371   7.402   9.224 -0.1293 -0.0743  1.0528
  618MOL0     C83305   0.370   7.555   9.189 -0.3894  0.7993  0.0398
  618MOL0     C83306   0.435   7.644   9.295 -0.0178  0.3768  0.2511
  618MOL0     C83307   0.409   7.793   9.250  1.1504  0.4973 -1.0283
  618MOL0     C83308   0.509   7.867   9.330  0.3988 -0.3177 -0.2710
  618MOL0     C83309   0.479   8.016   9.300 -0.1363 -0.0585 -0.6534
  618MOL0     C83310   0.564   8.110   9.383 -0.3592 -0.3260  0.0700
  618MOL0     C83311   0.542   8.257   9.349  0.2080  0.0741  0.5982
  618MOL0     N83312   0.570   8.280   9.209 -0.0226 -0.1630 -0.0839
  618MOL0     C83313   0.483   8.295   9.106 -0.8545 -0.2902 -0.5774
  618MOL0     C83314   0.552   8.367   9.009  0.1140  0.4785 -0.1023
  618MOL0     C83315   0.504   8.390   8.866 -0.1242 -0.3902  0.4562
  618MOL0     C83316   0.486   8.257   8.783  0.0841 -0.3673 -0.3776
  618MOL0     C83317   0.618   8.212   8.708 -0.0625 -1.0403  0.0898
  618MOL0     C83318   0.593   8.179   8.561 -0.3708  0.0787 -0.2497
  618MOL0     O83319   0.606   8.292   8.477  0.5289 -0.0935  0.8203
  618MOL0     C83320   0.492   8.348   8.423 -0.7417  0.1161  0.3458
  618MOL0     C83321   0.397   8.260   8.355 -0.5268 -0.0237 -0.5407
  618MOL0     C83322   0.290   8.311   8.283 -0.2072  0.1404  0.2060
  618MOL0     C83323   0.254   8.443   8.300  1.5309  0.1204  0.0862
  618MOL0     C83324   0.125   8.486   8.235  0.2206  0.2031  0.7287
  618MOL0     O83325   0.078   8.419   8.126 -0.3245  0.6019  0.3395
  618MOL0     C83326  -0.011   8.475   8.045 -0.0402  1.0818  0.2427
  618MOL0     C83327  -0.003   8.599   7.983  1.0588 -0.3377 -0.3205
  618MOL0     C83328  -0.117   8.630   7.899 -0.4103 -1.2440 -0.4777
  618MOL0     C83329  -0.212   8.542   7.876  0.0827  0.3044  0.0280
  618MOL0     O83330  -0.318   8.565   7.790  0.0995  0.0992 -0.7633
  618MOL0     C83331  -0.363   8.697   7.756 -0.3036  0.0501  0.5292
  618MOL0     C83332  -0.509   8.698   7.706 -0.7316 -0.0846 -0.8675
  618MOL0     C83333  -0.602   8.798   7.770 -0.1492 -0.8389 -0.1949
  618MOL0     C83334  -0.746   8.779   7.703  0.7968 -1.2054 -0.6577
  618MOL0     C83335  -0.845   8.882   7.765 -0.6695  0.3358  0.8865
  618MOL0     C83336  -0.953   8.911   7.650 -0.2791  0.6499  0.4054
  618MOL0     C83337  -1.080   8.972   7.712  0.7122 -0.6251 -0.1026
  618MOL0     C83338  -1.063   9.118   7.724 -0.0076 -0.7594  0.4464
  618MOL0    Cl83339  -1.127   9.159   7.558 -0.2080  0.1393 -0.0149
  618MOL0     C83340  -0.217   8.418   7.934 -0.1830  0.1061 -0.7974
  618MOL0     C83341  -0.115   8.384   8.023 -1.4841  0.0613 -0.3044
  618MOL0     O83342   0.069   8.585   8.289  0.0455  0.3540  0.1747
  618MOL0     C83343   0.343   8.531   8.374 -0.9125 -0.8065 -0.7581
  618MOL0     C83344   0.459   8.477   8.431 -0.6294 -0.5976 -0.1130
  618MOL0     N83345   0.682   8.386   9.050  0.1487 -0.0388 -0.0105
  618MOL0     N83346   0.690   8.328   9.167  0.3770 -0.9357  0.8748
  618MOL0     C83347   0.367   7.116   9.182 -0.5808 -0.5929  0.4965
  618MOL0     C83348   0.408   6.985   9.166  0.4067  0.1011 -0.4546
  618MOL0     C83349   0.613   6.659   9.166 -0.1164 -0.8761  0.5144
  618MOL0     C83350   0.555   6.557   9.088  0.4041 -0.4073 -1.2523
  618MOL0     C83351   0.555   6.425   9.138 -0.4901  0.1769 -0.7450
  618MOL0     C83352   0.607   6.393   9.265 -0.1798 -0.7088 -0.5326
  618MOL0     O83353   0.604   6.272   9.335  0.3393  0.6418  0.2250
  618MOL0     C83354   0.595   6.136   9.269 -0.2906  0.4468  0.1020
  618MOL0     C83355   0.437   6.101   9.258 -0.1342 -0.0245  0.1800
  618MOL0     C83356   0.365   6.123   9.399 -0.1405  0.2544 -0.4762
  618MOL0     C83357   0.445   6.049   9.519  0.4890  0.0713  0.6950
  618MOL0     C83358   0.429   5.901   9.505 -0.4822 -0.7901  1.0645
  618MOL0     C83359   0.410   5.781   9.498 -1.2788  0.3262  0.4855
  618MOL0     C83360   0.661   6.495   9.343 -0.7834  0.6416 -0.1663
  618MOL0     C83361   0.666   6.625   9.296  0.6242  0.0464 -0.0563
  618MOL0     C83362   0.712   6.723   9.403  0.1811 -0.9302  0.2104
  618MOL0     H83363   0.488   7.006   8.834  1.7360  0.5077  0.8507
  618MOL0     H83364   0.408   7.242   8.871 -1.4995 -0.0158  0.6928
  618MOL0     H83365   0.301   7.374   9.303  0.1830 -1.8461  0.7235
  618MOL0     H83366   0.475   7.378   9.246  0.9769  3.8688  0.9243
  618MOL0     H83367   0.270   7.598   9.175 -0.7754 -0.4019 -1.1854
  618MOL0     H83368   0.433   7.569   9.101  1.6512 -2.1255  0.8658
  618MOL0     H83369   0.544   7.637   9.286  0.7027  7.1781 -3.0231
  618MOL0     H83370   0.399   7.632   9.397  1.7446  1.2844  1.0424
  618MOL0     H83371   0.426   7.789   9.142 -2.1010  1.6818 -1.7063
  618MOL0     H83372   0.306   7.817   9.278  0.8169 -1.9790  0.1453
  618MOL0     H83373   0.499   7.841   9.435  1.4762 -0.7063 -0.2572
  618MOL0     H83374   0.609   7.852   9.289  0.2326 -0.0305 -0.8017
  618MOL0     H83375   0.512   8.019   9.196 -1.2920  1.9035 -1.0207
  618MOL0     H83376   0.372   8.038   9.312 -0.1465 -0.2173 -0.4562
  618MOL0     H83377   0.670   8.089   9.371 -0.7960 -1.4195 -2.5457
  618MOL0     H83378   0.538   8.082   9.485 -0.7880 -1.2631 -0.2872
  618MOL0     H83379   0.440   8.291   9.372  0.4670  2.2013 -1.0081
  618MOL0     H83380   0.602   8.317   9.417 -2.4660  0.4425  2.8015
  618MOL0     H83381   0.379   8.265   9.108 -0.3115 -2.5961 -2.4930
  618MOL0     H83382   0.405   8.436   8.862  0.6871  1.3843 -1.8252
  618MOL0     H83383   0.559   8.473   8.820 -0.9321  1.0507  1.9836
  618MOL0     H83384   0.430   8.180   8.838 -2.8320  3.1703  2.0853
  618MOL0     H83385   0.405   8.280   8.712 -0.5287  1.8783  0.9642
  618MOL0     H83386   0.654   8.118   8.750  2.3845 -1.7840 -3.2396
  618MOL0     H83387   0.696   8.289   8.714  2.0330 -3.1075  1.1310
  618MOL0     H83388   0.503   8.116   8.560  1.2836 -2.4340 -1.1279
  618MOL0     H83389   0.665   8.104   8.525  0.4000 -0.8666  2.9054
  618MOL0     H83390   0.411   8.153   8.358 -0.1915  0.0311  0.2018
  618MOL0     H83391   0.225   8.239   8.236 -0.9368 -0.1047  1.5263
  618MOL0     H83392   0.071   8.676   8.001  1.2860 -0.6590  0.1526
  618MOL0     H83393  -0.117   8.732   7.863  0.6490 -0.7418  0.8761
  618MOL0     H83394  -0.365   8.764   7.843  0.8995  2.7302 -1.3827
  618MOL0     H83395  -0.296   8.740   7.681 -1.1594 -2.2388 -1.6772
  618MOL0     H83396  -0.518   8.714   7.599  0.1366 -3.2404 -1.4962
  618MOL0     H83397  -0.541   8.595   7.722  0.9373 -0.6391 -0.9273
  618MOL0     H83398  -0.606   8.789   7.879  2.9255  1.6589  0.2491
  618MOL0     H83399  -0.563   8.895   7.738  2.2538 -1.1169  1.6381
  618MOL0     H83400  -0.765   8.679   7.741  2.5560 -1.5499 -0.6250
  618MOL0     H83401  -0.745   8.792   7.595  4.0067  0.2599 -0.5690
  618MOL0     H83402  -0.785   8.966   7.800  1.2769 -0.1265 -1.1178
  618MOL0     H83403  -0.891   8.826   7.847 -1.6081 -0.3167 -0.0640
  618MOL0     H83404  -0.910   8.980   7.577 -0.8773 -0.5931 -1.1545
  618MOL0     H83405  -0.981   8.820   7.597  2.0868  1.0407 -1.7358
  618MOL0     H83406  -1.090   8.942   7.817 -0.5827  3.4031  1.0922
  618MOL0     H83407  -1.172   8.951   7.658 -1.5509  3.5069  1.6502
  618MOL0     H83408  -1.122   9.166   7.802  2.2870  0.2291  1.6796
  618MOL0     H83409  -0.960   9.149   7.745  0.6748 -3.1026  0.8809
  618MOL0     H83410  -0.295   8.348   7.905 -0.4872 -0.5663  1.4459
  618MOL0     H83411  -0.105   8.280   8.055  0.4479 -0.6070 -2.7362
  618MOL0     H83412   0.333   8.639   8.376  1.6778 -0.5155  0.5394
  618MOL0     H83413   0.533   8.536   8.484 -0.8736 -0.7032  0.3479
  618MOL0     H83414   0.339   7.145   9.283  0.3836  0.1393  0.5689
  618MOL0     H83415   0.387   6.912   9.244  0.0756  0.2277 -0.4233
  618MOL0     H83416   0.527   6.590   8.988  2.7582  3.7205 -0.7558
  618MOL0     H83417   0.526   6.334   9.085 -0.3245  1.2356 -2.7421
  618MOL0     H83418   0.650   6.061   9.327 -2.8857 -1.2677  0.5468
  618MOL0     H83419   0.641   6.131   9.170 -0.5368 -0.7909  0.0289
  618MOL0     H83420   0.422   6.008   9.202 -0.7268  0.9685 -1.3674
  618MOL0     H83421   0.386   6.173   9.194  1.2336  1.3533  0.5994
  618MOL0     H83422   0.264   6.084   9.389 -0.0765  0.3751 -1.7993
  618MOL0     H83423   0.359   6.231   9.415 -1.7556  0.3310 -1.4552
  618MOL0     H83424   0.550   6.080   9.519  0.5592 -0.0437 -1.1281
  618MOL0     H83425   0.399   6.070   9.616  0.3749  0.7966  0.4942
  618MOL0     H83426   0.391   5.681   9.466 -0.6156 -0.0650  1.2647
  618MOL0     H83427   0.706   6.468   9.437  0.2080  0.2799 -0.7297
  618MOL0     H83428   0.698   6.694   9.508 -1.9459  3.0270  1.2543
  618MOL0     H83429   0.820   6.737   9.388  0.2652 -0.9765  0.7466
  618MOL0     H83430   0.666   6.822   9.400  1.1870 -0.3775  1.7039
  619MOL0     O83431   3.240   8.863  10.883 -0.3123 -0.7718  0.1646
  619MOL0     C83432   3.344   8.805  10.894 -0.6211  0.2123  0.0512
  619MOL0     O83433   3.465   8.845  10.947  0.7028 -0.6963 -0.8115
  619MOL0     C83434   3.485   8.981  10.967  0.5799 -0.1522 -0.8765
  619MOL0     C83435   3.617   9.024  10.958  0.3154 -1.7322 -0.0511
  619MOL0     C83436   3.651   9.154  10.980  0.1379 -0.8105  0.0407
  619MOL0     C83437   3.558   9.255  10.995 -0.3890  0.2144  0.0054
  619MOL0     O83438   3.583   9.387  11.012  0.2059  0.4888 -0.3107
  619MOL0     C83439   3.696   9.454  10.958  0.1927  0.5047 -0.3174
  619MOL0     C83440   3.665   9.611  10.945  0.4471 -0.0881  0.2091
  619MOL0     C83441   3.642   9.669  11.084 -0.4803  1.2228 -1.3086
  619MOL0     C83442   3.683   9.813  11.114  0.0856  0.6795 -0.4692
  619MOL0     C83443   3.588   9.922  11.052  0.4508 -0.6762  0.4704
  619MOL0     C83444   3.634  10.065  11.082  0.3789  0.4647 -0.6366
  619MOL0     C83445   3.672  10.133  10.948 -0.2995  1.1572 -0.0522
  619MOL0     C83446   3.802  10.081  10.903 -0.0934  0.5816  0.2672
  619MOL0     N83447   3.848  10.158  10.782  0.2235 -0.0424  0.2862
  619MOL0     C83448   3.919  10.276  10.792 -0.3538 -0.4269  0.5514
  619MOL0     C83449   3.919  10.333  10.669 -0.3943  0.3671  0.8085
  619MOL0     C83450   3.983  10.465  10.627 -0.5420  0.2638  0.2426
  619MOL0     C83451   3.878  10.576  10.650 -0.0627  0.5188 -0.1195
  619MOL0     C83452   3.923  10.718  10.645  0.0929  0.2590 -0.3282
  619MOL0     C83453   3.814  10.822  10.681  0.9519  0.0136  0.1571
  619MOL0     O83454   3.724  10.784  10.785  0.2096  0.0491  0.5057
  619MOL0     C83455   3.624  10.876  10.820  0.1192 -0.6862 -0.0659
  619MOL0     C83456   3.629  11.012  10.774  0.0009 -0.2897 -0.6559
  619MOL0     C83457   3.521  11.092  10.821 -0.4059  0.0727 -0.3621
  619MOL0     C83458   3.418  11.048  10.901  1.2231  0.0681  0.3543
  619MOL0     C83459   3.301  11.134  10.933  1.0222 -0.3413  0.6258
  619MOL0     O83460   3.318  11.270  10.930  0.1382 -0.3516  0.1317
  619MOL0     C83461   3.206  11.342  10.956  0.0096  0.4706 -0.7205
  619MOL0     C83462   3.171  11.364  11.091 -0.2346 -0.5490  1.5262
  619MOL0     C83463   3.050  11.429  11.121 -1.1622  0.3415  0.3129
  619MOL0     C83464   2.959  11.465  11.027  0.7293  0.1709 -0.5934
  619MOL0     O83465   2.840  11.513  11.075 -0.3639 -0.0942 -0.0692
  619MOL0     C83466   2.838  11.639  11.130  0.1299  0.9534  0.1220
  619MOL0     C83467   2.747  11.733  11.049 -0.0798 -0.4590  0.6883
  619MOL0     C83468   2.804  11.766  10.916 -0.8112 -0.0718 -0.2822
  619MOL0     C83469   2.712  11.872  10.843  0.2370  0.9886 -0.1967
  619MOL0     C83470   2.734  11.899  10.696  0.4726  0.4557  1.2142
  619MOL0     C83471   2.625  11.977  10.627 -0.4482  0.0863  0.7542
  619MOL0     C83472   2.582  12.112  10.695  0.4496  0.3024 -0.7553
  619MOL0     C83473   2.689  12.219  10.702 -0.0795  0.4623  0.1297
  619MOL0    Cl83474   2.725  12.283  10.537 -0.2595  0.4764  0.3546
  619MOL0     C83475   2.982  11.435  10.893 -0.6310  0.3340 -0.3091
  619MOL0     C83476   3.106  11.373  10.864  0.6452 -0.3255  0.5359
  619MOL0     O83477   3.205  11.074  10.962 -0.5917 -0.2022 -0.1390
  619MOL0     C83478   3.413  10.909  10.934 -0.6195 -0.6551 -0.8595
  619MOL0     C83479   3.523  10.827  10.901 -0.6837 -0.8840  0.4130
  619MOL0     N83480   3.831  10.252  10.591  0.0891 -1.1553 -0.8166
  619MOL0     N83481   3.791  10.151  10.661  0.1290  0.2714  0.5616
  619MOL0     C83482   3.427   9.217  11.000  0.1478  0.9644  0.1965
  619MOL0     C83483   3.382   9.081  10.991 -0.7172 -0.7455  1.1698
  619MOL0     C83484   3.349   8.672  10.828 -0.3164  0.5494  0.3247
  619MOL0     C83485   3.304   8.665  10.694  1.3004  0.4705 -0.5478
  619MOL0     C83486   3.294   8.545  10.626  0.2529 -0.0191 -0.5985
  619MOL0     C83487   3.336   8.428  10.689  0.5253 -0.3598  0.3359
  619MOL0     O83488   3.305   8.308  10.626 -0.2041  0.2877 -0.2494
  619MOL0     C83489   3.311   8.178  10.698 -0.3834  0.8896  0.1713
  619MOL0     C83490   3.451   8.120  10.725 -0.1604  0.3494 -0.1378
  619MOL0     C83491   3.555   8.153  10.607  0.5124 -0.0471  0.1966
  619MOL0     C83492   3.528   8.064  10.487 -0.2098  0.7962 -0.0315
  619MOL0     C83493   3.604   7.939  10.513  0.3080 -0.2637 -0.2010
  619MOL0     C83494   3.664   7.839  10.545 -0.1702  0.3662  0.1932
  619MOL0     C83495   3.385   8.438  10.818  0.1844  0.1226  0.9330
  619MOL0     C83496   3.393   8.554  10.887  0.6071 -0.9420 -0.3018
  619MOL0     C83497   3.462   8.558  11.021  0.0344  0.1237 -0.3714
  619MOL0     H83498   3.694   8.948  10.946 -1.3411 -3.6489  0.9860
  619MOL0     H83499   3.757   9.176  10.969  0.2423 -1.2441  0.1714
  619MOL0     H83500   3.788   9.441  11.016 -1.1038 -0.2463  1.6688
  619MOL0     H83501   3.708   9.402  10.863 -2.4612 -3.3610  1.2151
  619MOL0     H83502   3.570   9.621  10.890  0.6523 -1.8767 -0.5398
  619MOL0     H83503   3.737   9.668  10.886 -2.6254  1.1392 -2.7183
  619MOL0     H83504   3.687   9.601  11.157 -2.4322 -1.1168 -2.1423
  619MOL0     H83505   3.534   9.656  11.096 -0.2065  0.5924  1.0569
  619MOL0     H83506   3.688   9.825  11.223 -0.4894 -3.6728  0.2129
  619MOL0     H83507   3.787   9.822  11.081  0.3819  0.1319  0.2779
  619MOL0     H83508   3.574   9.910  10.944  2.2984  1.0580 -0.0360
  619MOL0     H83509   3.490   9.902  11.096  0.1876 -0.5414 -0.0408
  619MOL0     H83510   3.549  10.111  11.134  1.0188  2.8312 -1.5688
  619MOL0     H83511   3.710  10.085  11.157  0.3063 -0.8760 -0.1664
  619MOL0     H83512   3.690  10.240  10.959  3.7315  0.7596 -1.1989
  619MOL0     H83513   3.601  10.108  10.868  1.2780 -1.3441 -0.7797
  619MOL0     H83514   3.884  10.099  10.973 -0.9046 -0.0837  1.4124
  619MOL0     H83515   3.810   9.973  10.885  0.4188  0.5901  0.4256
  619MOL0     H83516   3.968  10.314  10.882  0.1262  1.6548 -0.5182
  619MOL0     H83517   4.065  10.489  10.694 -1.1275  0.3993  0.9242
  619MOL0     H83518   4.016  10.454  10.523 -2.5308  4.1325 -1.0424
  619MOL0     H83519   3.812  10.563  10.564 -1.0923 -2.4481  0.9930
  619MOL0     H83520   3.823  10.555  10.742  2.3021  0.1669  1.2845
  619MOL0     H83521   3.965  10.736  10.545  2.7239  2.1052  0.9833
  619MOL0     H83522   4.009  10.736  10.711 -0.0001  0.4737 -0.2637
  619MOL0     H83523   3.760  10.851  10.591  2.6494  2.0879 -0.2872
  619MOL0     H83524   3.864  10.912  10.717 -0.7902  0.5665  1.2925
  619MOL0     H83525   3.701  11.050  10.703 -1.7935  1.6191 -1.5890
  619MOL0     H83526   3.519  11.198  10.797  3.3712  0.0093 -1.6856
  619MOL0     H83527   3.241  11.350  11.172 -0.6362 -0.4471  1.8997
  619MOL0     H83528   3.024  11.465  11.220 -1.9190  0.5323  0.0558
  619MOL0     H83529   2.792  11.622  11.228  1.1933  0.3349  0.5430
  619MOL0     H83530   2.934  11.689  11.147 -0.1137  0.6195  2.9259
  619MOL0     H83531   2.640  11.708  11.054 -1.0265  2.7105 -0.9670
  619MOL0     H83532   2.764  11.826  11.104  5.5873 -0.6769 -0.1640
  619MOL0     H83533   2.902  11.811  10.930  0.8484 -3.5572  0.1770
  619MOL0     H83534   2.807  11.676  10.854 -0.8444  1.0218 -1.9401
  619MOL0     H83535   2.720  11.966  10.898 -2.4321  0.5671  1.0698
  619MOL0     H83536   2.614  11.824  10.858  1.0791  0.2177  4.0787
  619MOL0     H83537   2.756  11.805  10.645  2.2534  2.5642 -2.2157
  619MOL0     H83538   2.826  11.957  10.688  1.0837 -0.7263 -1.0202
  619MOL0     H83539   2.658  12.001  10.526 -0.1394  1.9445  1.2510
  619MOL0     H83540   2.538  11.912  10.612 -0.7960  0.0488  2.6482
  619MOL0     H83541   2.550  12.072  10.792 -2.0252  0.0514 -1.6084
  619MOL0     H83542   2.489  12.146  10.648 -2.0363 -1.5860  2.3769
  619MOL0     H83543   2.651  12.303  10.763 -1.4134 -1.3640  1.9540
  619MOL0     H83544   2.775  12.171  10.750 -0.5394 -0.6493 -0.1490
  619MOL0     H83545   2.914  11.461  10.813 -1.4736  2.7450  1.0690
  619MOL0     H83546   3.128  11.353  10.759  1.6979  1.6509  0.3287
  619MOL0     H83547   3.326  10.876  10.989 -1.6478  0.2269 -1.8955
  619MOL0     H83548   3.521  10.724  10.937  1.5466 -1.7553 -1.7137
  619MOL0     H83549   3.352   9.293  11.018 -0.4406 -0.1410  2.9011
  619MOL0     H83550   3.276   9.060  11.005 -0.7455 -0.4609  1.3977
  619MOL0     H83551   3.269   8.757  10.648  0.3634  0.5302  0.2444
  619MOL0     H83552   3.246   8.533  10.529 -1.4431  1.0799  0.0417
  619MOL0     H83553   3.263   8.103  10.636  0.4568 -0.5079  1.1556
  619MOL0     H83554   3.249   8.182  10.788  1.2993  1.1661  1.3594
  619MOL0     H83555   3.457   8.015  10.757  1.2925  0.4377 -0.0569
  619MOL0     H83556   3.479   8.175  10.816  3.3363 -0.8346 -0.3464
  619MOL0     H83557   3.658   8.146  10.643  1.4947  0.9065 -2.2051
  619MOL0     H83558   3.544   8.257  10.575 -0.5235  0.0887  0.9215
  619MOL0     H83559   3.423   8.031  10.481  0.1510 -0.1509 -1.7524
  619MOL0     H83560   3.558   8.102  10.389 -0.2766 -1.8705 -1.1801
  619MOL0     H83561   3.712   7.747  10.570  0.8266  1.3441  2.1063
  619MOL0     H83562   3.399   8.354  10.885 -1.0999  0.3117  1.4627
  619MOL0     H83563   3.384   8.592  11.090 -2.7838 -1.6295 -2.4731
  619MOL0     H83564   3.502   8.462  11.055  0.4891  0.0548 -1.0728
  619MOL0     H83565   3.545   8.630  11.027  0.9632 -0.7499 -1.9624
  620MOL0     O83566   5.419   3.270   0.595  0.3216 -0.6139 -0.0279
  620MOL0     C83567   5.360   3.343   0.673  0.5030  0.0871  0.3156
  620MOL0     O83568   5.316   3.296   0.796  0.5082 -0.0116  0.5919
  620MOL0     C83569   5.317   3.165   0.834  0.9621  0.1719 -0.0432
  620MOL0     C83570   5.348   3.135   0.969  0.0450  0.4830 -0.1241
  620MOL0     C83571   5.360   3.003   1.013 -0.0669  0.0076  0.0739
  620MOL0     C83572   5.324   2.901   0.925 -0.8860  0.0128 -0.3516
  620MOL0     O83573   5.324   2.767   0.962 -0.7385  0.0077 -0.0783
  620MOL0     C83574   5.338   2.666   0.854  0.4066 -1.1301  0.4333
  620MOL0     C83575   5.390   2.529   0.901 -0.1124  0.2173 -0.9239
  620MOL0     C83576   5.293   2.467   1.000  1.5824 -0.6787 -0.0286
  620MOL0     C83577   5.341   2.330   1.041  0.9949  0.7527  0.8426
  620MOL0     C83578   5.256   2.251   1.135  0.7455  0.6802 -0.5848
  620MOL0     C83579   5.110   2.230   1.070  0.2422 -1.4093  0.8112
  620MOL0     C83580   5.026   2.114   1.106 -0.8032  0.3023  0.7107
  620MOL0     C83581   4.929   2.134   1.221  0.1787  0.3215  0.1047
  620MOL0     N83582   4.900   1.995   1.271  0.4314 -0.4109 -0.2227
  620MOL0     C83583   4.874   1.974   1.407  0.5768 -0.4648  0.3465
  620MOL0     C83584   4.808   1.862   1.413  0.7930  0.4562 -0.5331
  620MOL0     C83585   4.742   1.804   1.537 -0.5392  0.4730  0.9398
  620MOL0     C83586   4.844   1.774   1.644 -0.3843  0.4032  0.3977
  620MOL0     C83587   4.763   1.734   1.773  0.3411 -0.4184 -1.7694
  620MOL0     C83588   4.859   1.687   1.887  0.2449  0.1370 -0.7529
  620MOL0     O83589   4.984   1.760   1.893  0.7171 -0.1524  0.4560
  620MOL0     C83590   4.994   1.893   1.935  0.4026  0.4760  0.0274
  620MOL0     C83591   5.121   1.935   1.964  0.2922 -1.1978  0.1171
  620MOL0     C83592   5.154   2.061   2.014  0.2565  0.4254  0.2731
  620MOL0     C83593   5.050   2.148   2.049  1.1627 -0.4959 -0.2590
  620MOL0     C83594   5.070   2.284   2.113  0.1073 -0.9920  0.9949
  620MOL0     O83595   5.190   2.298   2.154 -0.1340  0.0735  0.3036
  620MOL0     C83596   5.213   2.362   2.272 -1.2110  0.4262  0.3906
  620MOL0     C83597   5.330   2.437   2.280  0.2025 -0.6967  0.0615
  620MOL0     C83598   5.357   2.532   2.380 -0.7600 -0.1686 -0.1815
  620MOL0     C83599   5.274   2.544   2.485 -0.1480  0.1825  0.2309
  620MOL0     O83600   5.311   2.638   2.575  0.7532  0.4567  0.1228
  620MOL0     C83601   5.209   2.701   2.643  0.1469 -0.2890  0.4267
  620MOL0     C83602   5.257   2.841   2.692 -0.2355  0.5527 -0.2516
  620MOL0     C83603   5.324   2.834   2.835  1.5609  0.1394  0.4536
  620MOL0     C83604   5.392   2.969   2.869  0.3260  0.5456  0.3137
  620MOL0     C83605   5.297   3.085   2.896 -0.6185  0.3103  0.5547
  620MOL0     C83606   5.377   3.202   2.953 -0.2263 -0.3087 -0.5581
  620MOL0     C83607   5.290   3.329   2.956 -0.3526  0.2226 -0.6776
  620MOL0     C83608   5.275   3.408   3.089  0.1283  1.5447 -0.5749
  620MOL0    Cl83609   5.141   3.530   3.075  0.2786  0.1260 -0.0404
  620MOL0     C83610   5.161   2.461   2.484  0.4337  0.1212  0.4744
  620MOL0     C83611   5.126   2.376   2.376 -0.0098  0.4889  0.1143
  620MOL0     O83612   4.974   2.355   2.130 -0.2161 -0.4152 -0.2685
  620MOL0     C83613   4.916   2.103   2.018 -0.1112 -1.1070 -0.0113
  620MOL0     C83614   4.887   1.975   1.965  0.5128 -0.9842  0.4518
  620MOL0     N83615   4.791   1.818   1.288 -0.5811  0.5748  0.1356
  620MOL0     N83616   4.850   1.893   1.204  0.2929  0.0709 -0.4707
  620MOL0     C83617   5.276   2.931   0.795  0.1050 -0.0696  0.6304
  620MOL0     C83618   5.286   3.058   0.739 -0.1909  0.5697 -0.0726
  620MOL0     C83619   5.342   3.489   0.636 -0.4552  1.2296  0.2713
  620MOL0     C83620   5.280   3.567   0.738  0.1504 -0.8533  0.5884
  620MOL0     C83621   5.250   3.699   0.713  0.3426  0.0012 -0.8015
  620MOL0     C83622   5.288   3.754   0.589 -0.5268 -0.0180 -0.0118
  620MOL0     O83623   5.276   3.884   0.555 -0.0798 -0.4327  0.0890
  620MOL0     C83624   5.250   3.990   0.652  0.0610  0.0638  0.0239
  620MOL0     C83625   5.251   4.126   0.593 -0.9731 -0.0564 -0.7044
  620MOL0     C83626   5.172   4.232   0.656  0.5353  0.1391  0.5113
  620MOL0     C83627   5.205   4.379   0.613  0.3431 -0.6454  0.0352
  620MOL0     C83628   5.090   4.480   0.636 -0.0338  0.2516 -0.6326
  620MOL0     C83629   4.995   4.554   0.667 -0.9220 -0.5087 -0.1706
  620MOL0     C83630   5.346   3.669   0.487  0.9939 -1.1423 -0.7452
  620MOL0     C83631   5.378   3.540   0.512 -0.9053  0.1198 -0.1091
  620MOL0     C83632   5.444   3.459   0.402 -0.0458  0.4149  0.2861
  620MOL0     H83633   5.379   3.217   1.033  2.4513  0.4429 -1.1262
  620MOL0     H83634   5.394   2.992   1.116  0.1235 -3.0681 -0.2027
  620MOL0     H83635   5.246   2.641   0.801  1.0026 -0.5953 -0.8965
  620MOL0     H83636   5.404   2.692   0.771  1.8205 -0.5661  1.6805
  620MOL0     H83637   5.489   2.541   0.947  0.3060 -1.1904 -1.4170
  620MOL0     H83638   5.405   2.463   0.815  1.2613 -1.1700  0.3183
  620MOL0     H83639   5.199   2.456   0.944  1.9622 -0.1046 -0.8022
  620MOL0     H83640   5.279   2.530   1.089  0.8470 -0.6752 -0.1400
  620MOL0     H83641   5.347   2.274   0.947  2.7978  1.7353  0.3394
  620MOL0     H83642   5.442   2.344   1.081  0.3852  2.1469  1.9790
  620MOL0     H83643   5.293   2.149   1.152 -2.5016 -0.6754 -0.8507
  620MOL0     H83644   5.253   2.310   1.226  0.8885  3.2036 -2.1300
  620MOL0     H83645   5.051   2.322   1.070 -0.2240 -1.6645 -0.7930
  620MOL0     H83646   5.156   2.202   0.975  1.1778  1.1500  0.4387
  620MOL0     H83647   5.093   2.031   1.133  1.8993  1.6718 -1.3018
  620MOL0     H83648   4.965   2.085   1.020 -0.5985 -3.3978  1.6497
  620MOL0     H83649   4.977   2.195   1.298 -0.6308  0.8820  0.1725
  620MOL0     H83650   4.833   2.179   1.196 -1.7983 -2.2497  2.4012
  620MOL0     H83651   4.901   2.023   1.500  0.8801 -0.8646  0.4686
  620MOL0     H83652   4.662   1.865   1.580 -1.2733  2.2349 -2.5986
  620MOL0     H83653   4.695   1.709   1.513  0.2054 -0.2586  2.2370
  620MOL0     H83654   4.893   1.683   1.610 -1.3329 -0.3733  1.0699
  620MOL0     H83655   4.918   1.854   1.656  1.3771 -1.1130  0.1561
  620MOL0     H83656   4.708   1.642   1.752  3.8872 -3.4206  0.7043
  620MOL0     H83657   4.702   1.821   1.800  2.7045  1.4838 -2.1062
  620MOL0     H83658   4.896   1.586   1.869  4.4356  1.3195  0.0525
  620MOL0     H83659   4.816   1.699   1.986 -0.7095  5.0859 -1.4983
  620MOL0     H83660   5.200   1.863   1.946  0.7149  0.0902 -4.3925
  620MOL0     H83661   5.256   2.095   2.023 -0.2337  3.0624 -2.4546
  620MOL0     H83662   5.396   2.434   2.194  0.5316 -0.1145  0.2925
  620MOL0     H83663   5.440   2.603   2.381 -0.0505 -0.9813 -0.3835
  620MOL0     H83664   5.123   2.718   2.577 -1.0780 -1.9538  1.4887
  620MOL0     H83665   5.183   2.630   2.722 -2.0060 -0.4315 -0.3237
  620MOL0     H83666   5.321   2.891   2.617  0.1488  2.1958  1.1035
  620MOL0     H83667   5.175   2.913   2.700  0.1041  1.0277 -0.9284
  620MOL0     H83668   5.249   2.806   2.910  2.0319  1.0119  1.2778
  620MOL0     H83669   5.402   2.757   2.837  1.5488  0.0487 -1.3497
  620MOL0     H83670   5.438   3.000   2.775 -3.4701 -0.3182 -2.0589
  620MOL0     H83671   5.464   2.965   2.951 -0.1627  1.3398  0.8023
  620MOL0     H83672   5.229   3.063   2.979  0.4878  1.5754  1.8639
  620MOL0     H83673   5.245   3.112   2.804  2.7141  0.1472 -1.5629
  620MOL0     H83674   5.402   3.163   3.052 -0.5862 -0.0449 -0.3583
  620MOL0     H83675   5.476   3.222   2.913  0.3238 -1.4108  0.2083
  620MOL0     H83676   5.186   3.294   2.952  0.6602 -3.1635 -0.6036
  620MOL0     H83677   5.318   3.398   2.876  2.2040  0.3364  0.2278
  620MOL0     H83678   5.245   3.342   3.171 -1.1251 -0.0359 -2.2222
  620MOL0     H83679   5.376   3.442   3.113  2.2305 -2.9473 -1.9186
  620MOL0     H83680   5.082   2.478   2.556  0.3759 -1.8873  0.9254
  620MOL0     H83681   5.030   2.327   2.384  0.8472 -1.0428  1.5844
  620MOL0     H83682   4.842   2.170   2.060 -1.0637 -1.8895 -0.4045
  620MOL0     H83683   4.781   1.960   1.947 -0.0295  2.7846 -0.2158
  620MOL0     H83684   5.237   2.848   0.737  2.3918 -1.2384  0.6508
  620MOL0     H83685   5.268   3.068   0.633 -0.2155 -1.1550 -0.2565
  620MOL0     H83686   5.250   3.533   0.837 -0.7155  1.9524  1.4004
  620MOL0     H83687   5.211   3.748   0.802 -2.4585  0.3050 -2.0941
  620MOL0     H83688   5.323   3.990   0.734 -0.5864  1.8861  0.6525
  620MOL0     H83689   5.158   3.968   0.706  0.9460  0.9990  2.0295
  620MOL0     H83690   5.219   4.109   0.489  0.3918 -5.2812 -0.5708
  620MOL0     H83691   5.356   4.158   0.590 -1.1628  0.6402 -0.2142
  620MOL0     H83692   5.184   4.230   0.765  3.3699 -1.9789  0.2540
  620MOL0     H83693   5.070   4.205   0.626  1.3960 -0.5628 -2.0166
  620MOL0     H83694   5.290   4.423   0.666 -0.2869 -1.1638  1.5204
  620MOL0     H83695   5.227   4.381   0.505  1.6748 -0.4986  0.2868
  620MOL0     H83696   4.922   4.629   0.688 -0.7682 -0.7192  1.1603
  620MOL0     H83697   5.378   3.714   0.394  1.6520 -0.4562 -0.1965
  620MOL0     H83698   5.440   3.510   0.306  0.0467  0.3124  0.2274
  620MOL0     H83699   5.545   3.438   0.438  0.0168  2.5654  1.5199
  620MOL0     H83700   5.386   3.367   0.387  0.5459 -0.1908  1.5905
  621MOL0     O83701  10.645   4.702   7.370  0.7908 -0.2077 -0.9390
  621MOL0     C83702  10.572   4.673   7.466  0.1295  0.4164 -0.3639
  621MOL0     O83703  10.440   4.667   7.470  0.6279  0.4211  1.1408
  621MOL0     C83704  10.370   4.619   7.366  0.6707  0.7550  0.6775
  621MOL0     C83705  10.404   4.529   7.266  0.0126  0.3752  0.1740
  621MOL0     C83706  10.309   4.485   7.177  0.1982  0.1866 -0.3336
  621MOL0     C83707  10.171   4.516   7.195 -0.2521  0.4322  0.7801
  621MOL0     O83708  10.063   4.466   7.119 -0.8820 -0.2251  1.0623
  621MOL0     C83709  10.004   4.571   7.036 -0.1089  0.2781 -0.7908
  621MOL0     C83710  10.035   4.531   6.890  0.6834 -0.3106  0.2981
  621MOL0     C83711  10.060   4.643   6.785 -0.5295 -0.7929 -0.1989
  621MOL0     C83712  10.111   4.582   6.656  0.0348 -0.8279  1.2730
  621MOL0     C83713  10.146   4.690   6.549 -0.3604 -0.1627  0.7253
  621MOL0     C83714  10.242   4.640   6.438 -0.1259 -0.5725 -0.8785
  621MOL0     C83715  10.207   4.701   6.308  0.8251 -1.6753 -0.1167
  621MOL0     C83716  10.293   4.644   6.200 -0.1756 -0.5287  0.1971
  621MOL0     N83717  10.288   4.713   6.065 -0.2557  0.5879 -1.0522
  621MOL0     C83718  10.307   4.848   6.033 -0.3450 -0.7894 -0.5464
  621MOL0     C83719  10.278   4.857   5.907 -0.0254  0.0268  0.8823
  621MOL0     C83720  10.278   4.992   5.833  1.1833  0.1931  0.7436
  621MOL0     C83721  10.136   5.002   5.775  0.8317 -0.1430  0.1524
  621MOL0     C83722  10.149   5.136   5.690  0.6175 -0.6930  0.6694
  621MOL0     C83723  10.031   5.154   5.593  0.0796  0.5748 -0.1180
  621MOL0     O83724   9.909   5.209   5.645 -0.6789 -0.0325 -0.3936
  621MOL0     C83725   9.787   5.169   5.600  0.5956 -1.6920  0.0058
  621MOL0     C83726   9.767   5.082   5.494  0.0545 -1.1326 -0.1949
  621MOL0     C83727   9.643   5.063   5.445 -0.2101  0.0180 -0.4170
  621MOL0     C83728   9.532   5.128   5.502  0.0180  0.5632 -0.1156
  621MOL0     C83729   9.394   5.093   5.459 -0.7373 -0.8265 -0.5087
  621MOL0     O83730   9.292   5.140   5.535  0.3711 -0.0308 -0.1488
  621MOL0     C83731   9.170   5.085   5.514 -0.7512  0.0910 -0.7610
  621MOL0     C83732   9.090   5.159   5.430 -0.3488  0.3464  0.0448
  621MOL0     C83733   8.960   5.126   5.391  0.4638  0.0689 -0.2120
  621MOL0     C83734   8.904   5.018   5.461  1.2493 -0.1008  0.0894
  621MOL0     O83735   8.774   4.976   5.425 -0.4825 -0.5017 -0.2707
  621MOL0     C83736   8.790   4.843   5.382 -0.3204  0.1871 -0.7365
  621MOL0     C83737   8.705   4.818   5.259  0.1490  0.5814 -1.3070
  621MOL0     C83738   8.556   4.804   5.303  1.2162 -0.6539  0.6338
  621MOL0     C83739   8.456   4.817   5.189 -0.2024 -0.0315  0.3048
  621MOL0     C83740   8.308   4.784   5.235 -1.6923  0.3898  0.3748
  621MOL0     C83741   8.243   4.879   5.331 -0.1861 -0.3063 -0.1348
  621MOL0     C83742   8.098   4.838   5.361  0.4900  0.2328 -0.0150
  621MOL0     C83743   8.045   4.929   5.477  0.2692 -1.0973  0.3065
  621MOL0    Cl83744   7.893   4.861   5.529  0.1078 -0.2020 -0.1478
  621MOL0     C83745   8.979   4.945   5.556  0.1741 -0.5270  0.5464
  621MOL0     C83746   9.111   4.983   5.575 -0.4684 -0.6461 -1.1859
  621MOL0     O83747   9.385   5.026   5.353  0.4094  0.2661  0.1524
  621MOL0     C83748   9.552   5.207   5.617 -0.1177 -0.2771  1.0615
  621MOL0     C83749   9.680   5.231   5.662 -0.3002 -0.7394  0.6657
  621MOL0     N83750  10.249   4.735   5.856  1.2103 -0.2726 -0.2196
  621MOL0     N83751  10.256   4.651   5.950 -0.5918  0.0456 -0.6450
  621MOL0     C83752  10.131   4.604   7.296 -0.1738 -0.5193 -0.2055
  621MOL0     C83753  10.226   4.650   7.389 -0.4607 -0.3310  0.4056
  621MOL0     C83754  10.645   4.665   7.604  0.5667  0.0716 -0.6016
  621MOL0     C83755  10.558   4.653   7.715 -0.3184  0.9405 -0.3509
  621MOL0     C83756  10.607   4.622   7.844 -0.3822 -0.1050 -0.0195
  621MOL0     C83757  10.744   4.630   7.857 -0.6431  0.0501 -0.0394
  621MOL0     O83758  10.783   4.619   7.989  0.2686  0.1036  0.2771
  621MOL0     C83759  10.911   4.567   8.005  0.1807  0.5350 -1.4898
  621MOL0     C83760  10.915   4.470   8.127 -0.6693  0.0702 -0.7120
  621MOL0     C83761  10.869   4.527   8.257 -1.0272  0.3326 -0.6618
  621MOL0     C83762  10.725   4.504   8.276  0.1991  0.0653  0.4277
  621MOL0     C83763  10.696   4.582   8.400  0.1279 -1.7719 -0.5025
  621MOL0     C83764  10.651   4.654   8.492  0.0572  0.4568 -0.6545
  621MOL0     C83765  10.829   4.646   7.757  0.2140  0.3644  0.6749
  621MOL0     C83766  10.787   4.666   7.628 -1.0437 -0.2353  0.1332
  621MOL0     C83767  10.881   4.642   7.522 -0.6156  0.6464  0.0062
  621MOL0     H83768  10.509   4.504   7.251  0.0133  1.0907 -1.1612
  621MOL0     H83769  10.337   4.415   7.098 -4.7120 -0.8178 -1.5098
  621MOL0     H83770   9.898   4.576   7.060  0.2892  2.4615  0.7703
  621MOL0     H83771  10.051   4.668   7.052 -0.9997  0.6377 -0.3168
  621MOL0     H83772   9.953   4.467   6.856  0.0108  0.3544  0.6223
  621MOL0     H83773  10.126   4.471   6.884 -0.8393 -3.0677  2.6134
  621MOL0     H83774  10.141   4.701   6.831  1.2145 -2.1481 -1.4439
  621MOL0     H83775   9.972   4.700   6.755  0.4761  0.7161 -0.3664
  621MOL0     H83776  10.200   4.526   6.685  2.1244  0.7837 -1.5876
  621MOL0     H83777  10.039   4.510   6.614  0.4449 -0.9613  0.7854
  621MOL0     H83778  10.057   4.739   6.508 -0.6894 -1.0442  0.3778
  621MOL0     H83779  10.210   4.763   6.599 -1.2260  2.3632 -1.5678
  621MOL0     H83780  10.343   4.663   6.470  0.0282 -1.2379 -0.8573
  621MOL0     H83781  10.244   4.531   6.425  1.2948 -0.7896  0.7869
  621MOL0     H83782  10.219   4.809   6.296 -0.0393 -1.8684 -3.7219
  621MOL0     H83783  10.103   4.683   6.282  0.0710  0.5085  1.1020
  621MOL0     H83784  10.402   4.649   6.212  0.1585 -4.0696 -0.3953
  621MOL0     H83785  10.269   4.538   6.198 -1.0522 -0.5120  3.5229
  621MOL0     H83786  10.337   4.927   6.100 -1.3473  0.7982 -1.8989
  621MOL0     H83787  10.300   5.069   5.907 -1.4465 -0.1226  1.9637
  621MOL0     H83788  10.351   4.982   5.752 -1.1053  0.7643 -1.4848
  621MOL0     H83789  10.104   4.925   5.705 -0.4325  0.4919  0.0005
  621MOL0     H83790  10.060   5.012   5.853  1.1003  1.4517  0.2510
  621MOL0     H83791  10.240   5.130   5.630  3.0027  0.6320  3.8350
  621MOL0     H83792  10.161   5.228   5.748  0.7276  2.2949 -3.6108
  621MOL0     H83793  10.030   5.060   5.537 -0.7728  0.1785  0.5514
  621MOL0     H83794  10.061   5.227   5.517 -0.0855  0.7092 -0.0537
  621MOL0     H83795   9.853   5.032   5.453  0.7213  0.2605 -0.5652
  621MOL0     H83796   9.632   5.001   5.356 -0.1681  0.1003 -0.4803
  621MOL0     H83797   9.133   5.250   5.388 -0.1783 -1.1860 -3.4743
  621MOL0     H83798   8.905   5.178   5.313 -0.9165  0.8252  1.1951
  621MOL0     H83799   8.894   4.821   5.356  0.8507  2.4616  1.4892
  621MOL0     H83800   8.757   4.775   5.461  3.4187  2.2562  3.0161
  621MOL0     H83801   8.724   4.903   5.193 -1.4139  3.1028  1.3080
  621MOL0     H83802   8.730   4.719   5.219  0.6402  0.5268 -0.8559
  621MOL0     H83803   8.537   4.707   5.349  1.3886 -1.2188 -0.4674
  621MOL0     H83804   8.543   4.881   5.380  0.2684  0.4750 -0.6059
  621MOL0     H83805   8.501   4.754   5.111  2.9818  0.1807  1.8079
  621MOL0     H83806   8.460   4.922   5.156 -2.9491  0.4535  1.2090
  621MOL0     H83807   8.306   4.687   5.285  3.0766  0.0434  0.3335
  621MOL0     H83808   8.239   4.790   5.150 -2.3586  1.4172  0.9568
  621MOL0     H83809   8.298   4.884   5.426  0.9249  4.1138 -0.8093
  621MOL0     H83810   8.245   4.979   5.288 -0.7424  0.0605  0.6667
  621MOL0     H83811   8.096   4.736   5.399 -0.6334  0.0247 -0.6137
  621MOL0     H83812   8.044   4.849   5.267  3.8948  0.4012 -2.1039
  621MOL0     H83813   8.110   4.922   5.564 -0.4055  0.2342  0.9607
  621MOL0     H83814   8.036   5.033   5.441  1.2385 -0.2756  2.2832
  621MOL0     H83815   8.953   4.864   5.623  2.7298  1.3604  4.1071
  621MOL0     H83816   9.181   4.936   5.643 -2.4914  0.3229  1.7647
  621MOL0     H83817   9.470   5.259   5.664  1.0070 -0.0016  2.8516
  621MOL0     H83818   9.699   5.289   5.752 -2.8043  1.3993 -0.0490
  621MOL0     H83819  10.026   4.629   7.311 -0.0163  0.0398  0.0146
  621MOL0     H83820  10.202   4.714   7.473  2.2073 -1.6660  2.3525
  621MOL0     H83821  10.451   4.666   7.705 -1.0600 -3.8172 -1.1075
  621MOL0     H83822  10.538   4.604   7.926 -2.9692 -2.0582 -2.3980
  621MOL0     H83823  10.983   4.646   8.028 -0.4949  0.1934  2.6184
  621MOL0     H83824  10.942   4.507   7.920  2.6444  0.4191 -0.5892
  621MOL0     H83825  11.013   4.427   8.150 -0.6937  1.4494  2.5414
  621MOL0     H83826  10.870   4.373   8.103 -3.2367  1.0656 -0.2142
  621MOL0     H83827  10.882   4.635   8.262 -1.7017  0.3734  1.7895
  621MOL0     H83828  10.916   4.475   8.341  0.2644  1.7113 -0.4899
  621MOL0     H83829  10.663   4.532   8.190 -2.1282 -1.2249  1.6009
  621MOL0     H83830  10.702   4.399   8.294 -1.4197  0.4627  0.8172
  621MOL0     H83831  10.594   4.715   8.560  2.9421 -0.8400  3.2448
  621MOL0     H83832  10.936   4.633   7.774 -0.0409 -4.1803 -0.1033
  621MOL0     H83833  10.977   4.606   7.561 -0.5744  0.8282  0.0721
  621MOL0     H83834  10.841   4.562   7.458 -2.1636  3.3856 -2.6995
  621MOL0     H83835  10.903   4.726   7.456 -1.4306 -0.1931 -1.3940
  622MOL0     O83836   7.978   9.531   8.578  0.9107  0.3914  0.7209
  622MOL0     C83837   8.024   9.424   8.622  0.8099 -0.0381  0.4507
  622MOL0     O83838   8.023   9.308   8.549 -0.2594  0.1947 -0.0686
  622MOL0     C83839   8.016   9.329   8.415  0.4292  0.8445  0.3103
  622MOL0     C83840   8.134   9.342   8.337  0.3314  0.3755 -0.2480
  622MOL0     C83841   8.120   9.359   8.193  0.3223  0.0099  0.6154
  622MOL0     C83842   7.991   9.339   8.138 -0.4680  0.3745  0.3748
  622MOL0     O83843   7.979   9.348   8.001 -0.4384  0.7855  0.4513
  622MOL0     C83844   8.038   9.460   7.935 -0.9473 -0.1930 -0.0623
  622MOL0     C83845   8.011   9.454   7.785  0.4107 -0.3479 -0.5738
  622MOL0     C83846   8.054   9.591   7.721 -0.4555  0.8646 -0.6886
  622MOL0     C83847   7.948   9.698   7.726  0.4892 -1.0204 -0.3245
  622MOL0     C83848   8.007   9.832   7.685 -0.0563 -0.7253 -0.9350
  622MOL0     C83849   7.893   9.943   7.694  0.2941 -0.1369 -0.2846
  622MOL0     C83850   7.964  10.077   7.689  0.7821  0.4218 -0.8296
  622MOL0     C83851   7.875  10.195   7.745  0.3683  0.6272  0.4242
  622MOL0     N83852   7.768  10.222   7.656  0.2740  0.2917 -0.3539
  622MOL0     C83853   7.638  10.232   7.698 -0.3683  0.5491  0.2973
  622MOL0     C83854   7.578  10.281   7.584  0.6096  0.0720  0.1106
  622MOL0     C83855   7.438  10.311   7.562  0.4773  0.7115  0.0827
  622MOL0     C83856   7.343  10.191   7.584  0.5674 -0.2691  0.3181
  622MOL0     C83857   7.368  10.079   7.488 -0.1089 -0.1366  0.1496
  622MOL0     C83858   7.252   9.981   7.495 -0.1628 -0.1788  0.3662
  622MOL0     O83859   7.135  10.057   7.464 -0.6224  0.6373 -0.4000
  622MOL0     C83860   7.121  10.084   7.331  0.3209  0.0662 -0.8146
  622MOL0     C83861   7.151  10.207   7.278 -0.6270 -0.3237  0.3696
  622MOL0     C83862   7.144  10.226   7.133  0.2657 -0.2491  0.3987
  622MOL0     C83863   7.117  10.118   7.045  0.3946 -0.0635 -0.0773
  622MOL0     C83864   7.118  10.146   6.900  0.5024 -0.9337  0.8929
  622MOL0     O83865   7.072  10.042   6.826 -0.0206 -0.0505 -0.1839
  622MOL0     C83866   7.024  10.041   6.697  0.1456 -0.0856 -0.4542
  622MOL0     C83867   7.057   9.921   6.626  0.0634 -0.0825  0.4709
  622MOL0     C83868   7.008   9.900   6.498  0.5031  1.1447 -0.5090
  622MOL0     C83869   6.940  10.008   6.436  0.9694  0.4596  0.7628
  622MOL0     O83870   6.872  10.004   6.324 -0.5490 -0.6250  0.1850
  622MOL0     C83871   6.897   9.902   6.234 -0.2933  0.4520  0.6949
  622MOL0     C83872   6.850   9.939   6.084  0.1710  0.2906 -0.2561
  622MOL0     C83873   6.707   9.989   6.067  0.1526 -0.0312 -0.4510
  622MOL0     C83874   6.681  10.036   5.920 -0.7341  0.7903  0.3083
  622MOL0     C83875   6.601   9.937   5.843  0.5446  0.7404 -0.1985
  622MOL0     C83876   6.458   9.932   5.879  0.3904 -0.6241  0.3744
  622MOL0     C83877   6.379  10.054   5.833 -0.4263 -0.8657  0.0380
  622MOL0     C83878   6.234  10.027   5.781  0.6955  0.0432  0.7504
  622MOL0    Cl83879   6.164  10.191   5.722  0.3015 -0.1623 -0.4487
  622MOL0     C83880   6.899  10.126   6.507 -0.2416  0.8965  0.0171
  622MOL0     C83881   6.945  10.143   6.640 -0.2526  0.3982 -0.1394
  622MOL0     O83882   7.141  10.256   6.849  0.0499  0.0465  0.1208
  622MOL0     C83883   7.067   9.998   7.102  0.2436  0.6703 -1.3035
  622MOL0     C83884   7.067   9.983   7.244  0.2931 -0.3433 -0.0392
  622MOL0     N83885   7.676  10.307   7.493 -0.1497  0.0461 -0.7582
  622MOL0     N83886   7.790  10.260   7.527 -0.5630  0.6195  0.2555
  622MOL0     C83887   7.881   9.307   8.212  0.3709  0.5856 -0.4143
  622MOL0     C83888   7.896   9.305   8.352  0.7934  0.0066  0.3828
  622MOL0     C83889   8.059   9.417   8.767 -0.5325  0.9101 -0.2055
  622MOL0     C83890   8.053   9.294   8.840 -0.0346 -1.1264 -0.8193
  622MOL0     C83891   8.084   9.281   8.969 -0.1629 -0.3973 -0.4293
  622MOL0     C83892   8.136   9.385   9.035  0.1986  0.1571 -0.6663
  622MOL0     O83893   8.175   9.382   9.167 -0.1373 -0.2601  0.8432
  622MOL0     C83894   8.260   9.271   9.201 -0.1748 -0.5441 -0.4197
  622MOL0     C83895   8.320   9.295   9.338 -0.5454  0.7194  1.0932
  622MOL0     C83896   8.433   9.399   9.340 -0.0833 -0.6200  0.0513
  622MOL0     C83897   8.455   9.441   9.485 -0.4252  0.6255 -1.1039
  622MOL0     C83898   8.351   9.528   9.530  0.1064 -0.3167  0.6899
  622MOL0     C83899   8.263   9.602   9.554 -0.2639  0.7180 -0.2395
  622MOL0     C83900   8.135   9.510   8.974  0.3328 -0.8113 -0.4647
  622MOL0     C83901   8.101   9.532   8.839 -0.3006 -0.2708 -0.3260
  622MOL0     C83902   8.120   9.678   8.790  0.3173  0.7548  0.4089
  622MOL0     H83903   8.233   9.344   8.383  1.0981  2.5264 -1.8305
  622MOL0     H83904   8.204   9.365   8.125 -0.2570 -0.9673 -0.2046
  622MOL0     H83905   7.988   9.549   7.973  1.9345  1.1160  0.9997
  622MOL0     H83906   8.146   9.478   7.943 -0.8649  0.4203 -2.0558
  622MOL0     H83907   7.903   9.452   7.769  0.3094  1.6291 -0.4335
  622MOL0     H83908   8.053   9.362   7.743  2.3488 -0.8192  2.1179
  622MOL0     H83909   8.081   9.578   7.616 -0.3589 -0.7963 -0.4889
  622MOL0     H83910   8.141   9.623   7.778  1.1827 -3.6493 -0.3029
  622MOL0     H83911   7.859   9.684   7.665 -0.2348  1.6691 -0.0249
  622MOL0     H83912   7.901   9.711   7.824  1.0903 -1.2678  0.0062
  622MOL0     H83913   8.089   9.862   7.750 -0.2619 -1.2024 -0.4470
  622MOL0     H83914   8.054   9.842   7.587  1.8075 -0.1988 -0.0366
  622MOL0     H83915   7.819   9.936   7.615  1.2114  3.7383 -1.6928
  622MOL0     H83916   7.839   9.937   7.789 -2.7598 -1.4987 -1.9620
  622MOL0     H83917   7.977  10.102   7.583 -0.5216 -0.7968 -1.3162
  622MOL0     H83918   8.066  10.084   7.727  0.8047  0.7923 -0.9545
  622MOL0     H83919   7.839  10.160   7.842  2.3810 -0.2589  0.9033
  622MOL0     H83920   7.936  10.285   7.753  2.2545 -0.3804 -1.5488
  622MOL0     H83921   7.598  10.210   7.797  0.5684  1.9591  1.0184
  622MOL0     H83922   7.403  10.393   7.626 -2.4796 -0.5172  0.1762
  622MOL0     H83923   7.430  10.353   7.461 -0.2116 -3.8707 -1.9891
  622MOL0     H83924   7.357  10.159   7.688  1.8663 -1.0560 -0.0837
  622MOL0     H83925   7.240  10.230   7.588  0.6630 -0.0834  1.0512
  622MOL0     H83926   7.460  10.024   7.509 -0.7473 -1.1926  0.2260
  622MOL0     H83927   7.381  10.105   7.382 -0.4262 -3.7388 -0.9065
  622MOL0     H83928   7.246   9.938   7.596 -3.0575  1.0668  0.8477
  622MOL0     H83929   7.269   9.908   7.416  1.6299  0.2262  0.3449
  622MOL0     H83930   7.179  10.290   7.341  1.1923  1.0272 -2.0686
  622MOL0     H83931   7.182  10.318   7.091  1.4203 -1.0030 -0.2526
  622MOL0     H83932   7.120   9.844   6.670 -0.7727 -1.1842 -0.2018
  622MOL0     H83933   7.020   9.812   6.435 -0.0620  0.8555 -0.2183
  622MOL0     H83934   7.005   9.884   6.233 -0.6736 -2.4371  1.3003
  622MOL0     H83935   6.852   9.808   6.269  1.4107 -0.6254  0.1304
  622MOL0     H83936   6.919  10.022   6.064 -0.1146  0.8357  0.9165
  622MOL0     H83937   6.867   9.857   6.014  1.9361  1.7274 -1.6400
  622MOL0     H83938   6.645   9.909   6.109  1.0891  0.0229  1.0922
  622MOL0     H83939   6.685  10.070   6.137 -0.6220 -0.8264  0.2451
  622MOL0     H83940   6.780  10.050   5.875 -0.2779  1.8800  1.5630
  622MOL0     H83941   6.630  10.133   5.912  0.8700  1.5251 -2.5072
  622MOL0     H83942   6.647   9.837   5.841 -0.1630  0.3538  1.2834
  622MOL0     H83943   6.608   9.984   5.745 -2.5339 -0.3201 -1.0258
  622MOL0     H83944   6.417   9.844   5.829  1.2223  0.0512 -1.5972
  622MOL0     H83945   6.444   9.918   5.986 -1.1062  1.5915  0.5298
  622MOL0     H83946   6.427  10.104   5.749 -0.1551  1.2969  1.4053
  622MOL0     H83947   6.383  10.131   5.911 -0.9876  0.2514 -0.9986
  622MOL0     H83948   6.226   9.962   5.694 -0.2664 -1.9902  2.2618
  622MOL0     H83949   6.171   9.978   5.856  0.5007  0.9712  1.2089
  622MOL0     H83950   6.834  10.202   6.465 -0.5206 -0.4061 -2.0872
  622MOL0     H83951   6.913  10.233   6.691  0.9993  1.6110 -1.3949
  622MOL0     H83952   7.041   9.912   7.041  2.1067 -1.6899  1.0245
  622MOL0     H83953   7.026   9.889   7.279 -2.4983  0.2858 -1.3432
  622MOL0     H83954   7.784   9.294   8.164  0.4556  1.8553 -0.9613
  622MOL0     H83955   7.812   9.307   8.420  0.1533  2.8636 -0.3371
  622MOL0     H83956   8.021   9.209   8.781  0.7964 -1.7614 -0.3980
  622MOL0     H83957   8.091   9.180   9.009  3.0984 -1.2858 -2.8760
  622MOL0     H83958   8.342   9.248   9.132  1.5120 -0.5904  1.5190
  622MOL0     H83959   8.191   9.188   9.216 -0.3668 -0.1171  1.2563
  622MOL0     H83960   8.341   9.198   9.384  0.8264  1.2859  1.7097
  622MOL0     H83961   8.238   9.341   9.392  0.1959  0.4981  2.4567
  622MOL0     H83962   8.405   9.486   9.279  3.3953  1.9436  1.7328
  622MOL0     H83963   8.527   9.360   9.301  2.1136  2.8310  1.3581
  622MOL0     H83964   8.465   9.359   9.558  2.7571  2.2322  0.4816
  622MOL0     H83965   8.551   9.493   9.496  1.0841 -2.4421  2.9847
  622MOL0     H83966   8.172   9.658   9.562  0.6270  1.9921  2.4818
  622MOL0     H83967   8.162   9.590   9.043 -1.0816 -0.1572 -0.6199
  622MOL0     H83968   8.147   9.748   8.870 -1.5408  2.1433 -0.0876
  622MOL0     H83969   8.199   9.677   8.714 -0.1650 -4.9825 -0.4787
  622MOL0     H83970   8.028   9.723   8.750 -0.4710  0.0364  1.3613
  623MOL0     O83971   6.111   5.978   8.790  0.3494 -0.1283 -0.0720
  623MOL0     C83972   6.075   6.079   8.722  0.2899  0.0332 -0.8407
  623MOL0     O83973   6.093   6.086   8.583  0.2529  0.3091  0.8542
  623MOL0     C83974   6.132   5.972   8.515  0.7334 -0.9900 -0.2062
  623MOL0     C83975   6.238   5.995   8.419  0.5249  0.0519  0.7686
  623MOL0     C83976   6.298   5.893   8.348 -0.7789 -0.0722  0.3152
  623MOL0     C83977   6.258   5.759   8.372  0.1972 -0.0815  0.5482
  623MOL0     O83978   6.315   5.654   8.305 -0.2246 -0.4235 -0.0072
  623MOL0     C83979   6.455   5.662   8.266 -0.0382 -0.2538  0.1681
  623MOL0     C83980   6.505   5.525   8.220  0.8825  0.3363  0.3315
  623MOL0     C83981   6.653   5.505   8.174 -0.2112 -0.2964 -0.2861
  623MOL0     C83982   6.672   5.375   8.102  0.2204 -0.7376  0.7931
  623MOL0     C83983   6.615   5.392   7.958  0.1526 -0.1445  0.5674
  623MOL0     C83984   6.681   5.311   7.854 -0.0944 -0.3248 -0.3932
  623MOL0     C83985   6.618   5.332   7.712  0.0116 -0.7101  0.2769
  623MOL0     C83986   6.619   5.479   7.660 -0.2921 -0.0153  0.3439
  623MOL0     N83987   6.550   5.494   7.523 -0.2745 -0.2592  0.5949
  623MOL0     C83988   6.414   5.468   7.510 -1.2546 -0.0040 -0.9035
  623MOL0     C83989   6.383   5.520   7.393  0.2323 -0.6908  0.0526
  623MOL0     C83990   6.248   5.510   7.331  1.5272  0.6243  1.3006
  623MOL0     C83991   6.172   5.644   7.345 -0.1947  0.4817 -1.0592
  623MOL0     C83992   6.209   5.745   7.247 -0.2968 -0.3271  0.0231
  623MOL0     C83993   6.103   5.862   7.251 -0.0800 -0.1021  0.2314
  623MOL0     O83994   6.109   5.934   7.377 -0.3694  0.3797 -0.3813
  623MOL0     C83995   6.013   6.028   7.391 -0.8345 -0.9432  0.4620
  623MOL0     C83996   6.045   6.162   7.376 -0.0589 -1.0962 -0.2964
  623MOL0     C83997   5.950   6.268   7.379  1.3392  0.5760 -0.3259
  623MOL0     C83998   5.808   6.230   7.391 -0.3192  0.0758 -0.3185
  623MOL0     C83999   5.700   6.333   7.369 -0.3123  0.2780  0.2820
  623MOL0     O84000   5.744   6.458   7.383  0.4075 -0.1874  0.9922
  623MOL0     C84001   5.667   6.543   7.457  0.2825  0.5213 -0.3663
  623MOL0     C84002   5.666   6.542   7.599  0.9010  0.5260  0.3253
  623MOL0     C84003   5.595   6.639   7.675  0.4640 -1.0882 -0.1153
  623MOL0     C84004   5.526   6.740   7.603  0.1483 -0.3371  0.4601
  623MOL0     O84005   5.446   6.833   7.668 -0.7082  0.7068 -0.1136
  623MOL0     C84006   5.337   6.775   7.739 -0.0109  0.1095 -0.3543
  623MOL0     C84007   5.209   6.867   7.734 -0.3170 -0.4679  0.6288
  623MOL0     C84008   5.119   6.859   7.609  0.3020 -0.8916 -0.1862
  623MOL0     C84009   5.119   6.988   7.522  0.9927  0.1393 -0.4559
  623MOL0     C84010   5.046   6.951   7.395 -0.7047  0.2399 -0.8750
  623MOL0     C84011   4.902   6.899   7.404  0.1654 -1.1574 -0.5122
  623MOL0     C84012   4.844   6.879   7.262 -0.5137  0.0254 -0.6814
  623MOL0     C84013   4.694   6.824   7.269 -0.5938 -0.6359 -0.3527
  623MOL0    Cl84014   4.628   6.799   7.101  0.0778  0.1285  0.1019
  623MOL0     C84015   5.536   6.743   7.461  1.1520 -0.0611 -0.7264
  623MOL0     C84016   5.605   6.644   7.397  0.0624 -0.0068  0.2414
  623MOL0     O84017   5.582   6.305   7.336 -0.6877  1.0737 -0.0457
  623MOL0     C84018   5.774   6.096   7.424 -0.7832  1.1816 -0.4302
  623MOL0     C84019   5.883   5.995   7.420 -0.1603 -0.6314 -0.1873
  623MOL0     N84020   6.497   5.579   7.336  0.1188 -0.5054  0.8539
  623MOL0     N84021   6.599   5.551   7.411  0.2339 -0.5304 -0.3041
  623MOL0     C84022   6.149   5.743   8.458  0.2616 -0.7515 -0.0285
  623MOL0     C84023   6.082   5.843   8.531  0.1522 -0.2824  0.0170
  623MOL0     C84024   6.010   6.196   8.788 -0.3347  0.0804  0.3609
  623MOL0     C84025   5.982   6.297   8.694 -0.5806 -0.2498  0.0508
  623MOL0     C84026   5.928   6.422   8.740  0.4603  0.2574 -0.0834
  623MOL0     C84027   5.916   6.443   8.883  0.1065  0.5453  0.5240
  623MOL0     O84028   5.892   6.568   8.931 -0.6929 -0.3218  0.3236
  623MOL0     C84029   5.800   6.666   8.877 -0.3250  0.5653  0.0667
  623MOL0     C84030   5.660   6.609   8.852 -0.3234  0.9531  1.4554
  623MOL0     C84031   5.574   6.626   8.973  1.4313 -0.4017 -0.4428
  623MOL0     C84032   5.420   6.604   8.944 -0.7761 -0.4091 -1.0046
  623MOL0     C84033   5.345   6.644   9.061  0.2226  0.2161  0.8358
  623MOL0     C84034   5.285   6.668   9.167  0.3093 -0.0294  0.3646
  623MOL0     C84035   5.948   6.339   8.968  0.9559 -0.6791 -1.0529
  623MOL0     C84036   5.998   6.218   8.926  0.4696 -0.4298 -0.2151
  623MOL0     C84037   6.060   6.134   9.036 -0.2857  0.0325 -1.1940
  623MOL0     H84038   6.289   6.086   8.390  0.1301  0.1041  0.2247
  623MOL0     H84039   6.367   5.924   8.270  0.9877  0.6936  2.1002
  623MOL0     H84040   6.481   5.745   8.199  0.5501  1.2140  2.1029
  623MOL0     H84041   6.494   5.700   8.361 -0.6906  0.7648  0.0474
  623MOL0     H84042   6.430   5.495   8.146  0.4822  3.6780 -0.7755
  623MOL0     H84043   6.490   5.457   8.305  0.2332  0.5303  0.3751
  623MOL0     H84044   6.718   5.481   8.259  0.8806 -2.4764 -1.6448
  623MOL0     H84045   6.691   5.593   8.121 -1.2164  0.9663  1.0274
  623MOL0     H84046   6.780   5.357   8.108  0.1335 -0.8209  2.9515
  623MOL0     H84047   6.627   5.291   8.156 -0.1735  0.1201  1.8156
  623MOL0     H84048   6.512   5.356   7.965 -0.0888  0.7464  1.9391
  623MOL0     H84049   6.602   5.498   7.933 -1.2229 -0.1855  1.0545
  623MOL0     H84050   6.789   5.324   7.842 -0.3376  2.8735  0.0813
  623MOL0     H84051   6.683   5.205   7.880  0.7072  0.2463  2.2496
  623MOL0     H84052   6.519   5.286   7.708  0.0917 -0.8473 -0.1815
  623MOL0     H84053   6.679   5.274   7.642  0.1557 -2.6026  1.8919
  623MOL0     H84054   6.573   5.541   7.738  0.6365 -2.2610  2.8005
  623MOL0     H84055   6.721   5.515   7.673 -0.6126 -0.1010  4.4838
  623MOL0     H84056   6.354   5.404   7.573 -0.5142  1.1907  1.1410
  623MOL0     H84057   6.254   5.504   7.222 -1.3379 -0.1039  1.1081
  623MOL0     H84058   6.193   5.426   7.376  0.0292  0.9857  0.1999
  623MOL0     H84059   6.068   5.614   7.334  0.2291 -0.8829 -1.6372
  623MOL0     H84060   6.187   5.686   7.444  1.1381 -0.1064 -0.9829
  623MOL0     H84061   6.195   5.697   7.150  1.0577  0.3826 -0.5626
  623MOL0     H84062   6.309   5.785   7.269  0.7056 -2.3493 -0.6135
  623MOL0     H84063   6.005   5.815   7.237 -0.5174  0.4862  1.1920
  623MOL0     H84064   6.121   5.935   7.172  0.7907 -1.8642 -1.2767
  623MOL0     H84065   6.150   6.191   7.374 -0.0381 -1.1847 -0.5153
  623MOL0     H84066   5.987   6.370   7.373  2.7625  0.2633  1.8038
  623MOL0     H84067   5.706   6.464   7.663 -0.8076  2.6931  4.4097
  623MOL0     H84068   5.578   6.620   7.780 -2.0696  0.1419 -0.2305
  623MOL0     H84069   5.306   6.675   7.706 -0.3551 -1.1020  3.2058
  623MOL0     H84070   5.364   6.745   7.841  0.4849 -3.6004 -1.4229
  623MOL0     H84071   5.148   6.851   7.824 -0.2241 -2.4801  0.3711
  623MOL0     H84072   5.238   6.971   7.751 -4.9709  1.6047 -2.1007
  623MOL0     H84073   5.131   6.771   7.546  2.6676 -1.5567  1.0936
  623MOL0     H84074   5.017   6.841   7.645  0.2517 -1.1412 -0.4487
  623MOL0     H84075   5.220   7.020   7.497  0.6850  0.6520 -1.0953
  623MOL0     H84076   5.062   7.063   7.578 -1.9196 -3.3861  1.7780
  623MOL0     H84077   5.112   6.874   7.355  1.3211  1.1828  0.5111
  623MOL0     H84078   5.052   7.039   7.330 -0.5785  0.6186 -0.3572
  623MOL0     H84079   4.900   6.806   7.462 -1.1500 -1.2319 -0.6471
  623MOL0     H84080   4.848   6.981   7.451  1.1883  0.2089 -1.6492
  623MOL0     H84081   4.910   6.810   7.208  1.5210  0.8657  0.6326
  623MOL0     H84082   4.853   6.975   7.211  0.3199  1.6298  2.2080
  623MOL0     H84083   4.707   6.725   7.312  1.5375 -1.1118 -1.8886
  623MOL0     H84084   4.627   6.887   7.328 -0.3007 -1.3148  0.7192
  623MOL0     H84085   5.484   6.823   7.410  0.2131  0.4143  0.8960
  623MOL0     H84086   5.620   6.650   7.289 -0.0733  0.9151  0.2682
  623MOL0     H84087   5.669   6.067   7.424 -0.9787  1.8255 -1.4630
  623MOL0     H84088   5.860   5.889   7.421  1.5341 -1.0457  1.9745
  623MOL0     H84089   6.129   5.637   8.473  2.2193 -1.1080  0.3156
  623MOL0     H84090   6.005   5.821   8.605 -2.5356  0.6810 -2.2926
  623MOL0     H84091   6.002   6.298   8.588 -2.3833 -0.0272 -0.3242
  623MOL0     H84092   5.915   6.512   8.681 -1.7319  0.2128  0.2359
  623MOL0     H84093   5.835   6.714   8.785 -3.0143  1.5168 -0.5539
  623MOL0     H84094   5.799   6.747   8.952 -0.9434  1.4758 -0.8960
  623MOL0     H84095   5.655   6.506   8.816 -3.5898  1.5050 -0.0174
  623MOL0     H84096   5.614   6.665   8.771  0.4873 -0.5446 -0.1006
  623MOL0     H84097   5.583   6.724   9.022 -0.3582 -0.3185 -0.2093
  623MOL0     H84098   5.604   6.551   9.046 -0.5331  1.6844  2.7947
  623MOL0     H84099   5.380   6.651   8.854 -0.0717  3.3664  0.4851
  623MOL0     H84100   5.396   6.498   8.932  1.1887 -0.9834 -0.3110
  623MOL0     H84101   5.249   6.678   9.267  1.6657 -0.4755  0.9140
  623MOL0     H84102   5.941   6.367   9.073  1.4540  1.7681 -1.6186
  623MOL0     H84103   6.156   6.175   9.068 -0.8733 -0.6040  1.6805
  623MOL0     H84104   5.997   6.133   9.126 -0.0720 -0.6896 -1.0475
  623MOL0     H84105   6.088   6.031   9.013  0.7500  0.4471 -1.8594
  624MOL0     O84106  10.804   7.841   2.656 -0.1513 -0.3948 -0.4647
  624MOL0     C84107  10.735   7.870   2.755  0.4147 -0.1719  0.3871
  624MOL0     O84108  10.752   7.989   2.835  0.4305  0.1451  0.1876
  624MOL0     C84109  10.873   8.048   2.847  0.1643  0.9517 -0.0352
  624MOL0     C84110  10.876   8.179   2.876 -0.7140  0.4561 -0.2976
  624MOL0     C84111  10.998   8.255   2.874 -0.4573  0.8543 -0.2913
  624MOL0     C84112  11.121   8.187   2.853 -0.4694 -0.6586 -0.6748
  624MOL0     O84113  11.243   8.254   2.879  0.1166 -0.7167 -0.1463
  624MOL0     C84114  11.357   8.178   2.929 -0.0921 -0.0128 -0.2532
  624MOL0     C84115  11.464   8.268   3.000  0.5692 -0.3123 -0.5370
  624MOL0     C84116  11.490   8.406   2.941  0.9998 -0.5041 -0.0332
  624MOL0     C84117  11.521   8.399   2.790 -0.3200  0.4303 -0.0636
  624MOL0     C84118  11.551   8.540   2.742  0.1437  0.3529 -0.3150
  624MOL0     C84119  11.495   8.563   2.604 -0.2461 -0.1526  0.0898
  624MOL0     C84120  11.352   8.606   2.595  0.9013  0.2101 -0.3101
  624MOL0     C84121  11.309   8.617   2.445  0.0655 -0.1412 -0.5196
  624MOL0     N84122  11.204   8.716   2.425 -0.2275  0.3619 -0.6353
  624MOL0     C84123  11.073   8.697   2.469  0.7521  1.0734 -0.5635
  624MOL0     C84124  11.016   8.820   2.458 -0.6835 -0.3420 -0.3072
  624MOL0     C84125  10.883   8.860   2.501 -0.0832 -0.0378  1.2016
  624MOL0     C84126  10.773   8.751   2.526  0.2163 -0.0510  0.2868
  624MOL0     C84127  10.724   8.734   2.664  0.6058 -0.0295 -0.3459
  624MOL0     C84128  10.631   8.849   2.692 -0.4085 -0.7531  0.0365
  624MOL0     O84129  10.508   8.845   2.621  0.7721 -0.0355 -0.2425
  624MOL0     C84130  10.398   8.778   2.679  0.2286 -0.9880 -0.1370
  624MOL0     C84131  10.314   8.824   2.787  0.4178 -0.5416 -0.6474
  624MOL0     C84132  10.199   8.753   2.811 -0.7991 -0.3984 -0.4436
  624MOL0     C84133  10.157   8.650   2.722 -0.0206 -0.0857  0.3852
  624MOL0     C84134  10.028   8.584   2.743  0.6167  0.1933 -0.4678
  624MOL0     O84135   9.992   8.495   2.649  0.0893 -0.6290 -0.3256
  624MOL0     C84136   9.874   8.421   2.654  0.1323  0.0752  0.1872
  624MOL0     C84137   9.753   8.467   2.704 -0.6499  1.5799 -0.7674
  624MOL0     C84138   9.647   8.374   2.710  0.8509  0.3391 -0.4298
  624MOL0     C84139   9.646   8.249   2.653 -0.8379  1.3626 -0.7524
  624MOL0     O84140   9.537   8.165   2.644 -0.0152  0.2940  0.1457
  624MOL0     C84141   9.435   8.177   2.744  0.5034 -0.0652 -1.1995
  624MOL0     C84142   9.319   8.264   2.701 -0.1649  0.4696 -0.2713
  624MOL0     C84143   9.199   8.179   2.655  0.1265  0.7491 -0.6488
  624MOL0     C84144   9.115   8.124   2.775  0.0922 -0.3427 -1.8772
  624MOL0     C84145   8.984   8.040   2.737 -0.4752  0.7170  0.3395
  624MOL0     C84146   9.010   7.938   2.623 -0.4143  0.1189  0.0046
  624MOL0     C84147   8.886   7.846   2.596  0.7052 -0.3669  0.4869
  624MOL0     C84148   8.873   7.729   2.694  1.1918 -0.1807 -0.3321
  624MOL0    Cl84149   8.811   7.780   2.854  0.3251 -0.1740 -0.4207
  624MOL0     C84150   9.766   8.212   2.583  0.8353  0.6382  0.2525
  624MOL0     C84151   9.880   8.292   2.588 -1.5536  0.6481 -0.4804
  624MOL0     O84152   9.965   8.616   2.846 -0.0962  0.7579 -0.0105
  624MOL0     C84153  10.253   8.594   2.638 -1.0586  0.4032  0.1890
  624MOL0     C84154  10.370   8.664   2.607 -0.4802 -0.1086 -0.0501
  624MOL0     N84155  11.110   8.912   2.410  0.5136 -0.3022  0.1000
  624MOL0     N84156  11.214   8.843   2.375 -0.1786 -0.3036 -0.1821
  624MOL0     C84157  11.116   8.058   2.818  0.1731  0.6379 -0.2447
  624MOL0     C84158  10.993   7.990   2.819 -0.0139 -0.2066 -0.8658
  624MOL0     C84159  10.630   7.779   2.800  1.2571  0.1670 -1.0592
  624MOL0     C84160  10.555   7.814   2.917  0.4762 -0.8028 -0.6298
  624MOL0     C84161  10.467   7.730   2.972 -0.3826  0.2139 -0.6666
  624MOL0     C84162  10.419   7.621   2.901 -0.6613 -0.1105 -0.0881
  624MOL0     O84163  10.319   7.543   2.957  0.1125 -0.3249 -0.3667
  624MOL0     C84164  10.224   7.477   2.878 -0.2433  0.2741  0.2627
  624MOL0     C84165  10.225   7.325   2.898  0.1640  0.0967  0.0036
  624MOL0     C84166  10.102   7.267   2.833 -0.5135 -0.5874 -0.1084
  624MOL0     C84167  10.103   7.112   2.834  0.0529  0.2185 -0.5284
  624MOL0     C84168  10.074   7.062   2.973  0.5653 -0.0784 -0.2858
  624MOL0     C84169  10.047   7.020   3.083 -0.2699 -1.1094 -0.3409
  624MOL0     C84170  10.497   7.572   2.784  0.5929 -0.3371  0.1792
  624MOL0     C84171  10.599   7.655   2.735 -0.4702 -0.7652 -0.4383
  624MOL0     C84172  10.670   7.606   2.610 -0.1378  0.8158  0.8108
  624MOL0     H84173  10.785   8.237   2.887 -0.3437  1.0067 -0.0885
  624MOL0     H84174  10.989   8.357   2.909 -1.5680  0.1220  1.7472
  624MOL0     H84175  11.324   8.094   2.992 -0.0446  0.9400  1.0780
  624MOL0     H84176  11.412   8.132   2.846  3.2087  1.9833  0.6566
  624MOL0     H84177  11.561   8.221   3.016  0.2377  0.0079  3.2244
  624MOL0     H84178  11.425   8.293   3.099  0.2773  0.4444 -0.8370
  624MOL0     H84179  11.568   8.459   2.996  0.7505 -1.3097  1.1491
  624MOL0     H84180  11.403   8.472   2.945  1.1912 -0.2019 -0.6835
  624MOL0     H84181  11.609   8.334   2.784 -1.1108 -1.1080  3.1246
  624MOL0     H84182  11.435   8.356   2.736  1.4503  0.9418 -3.6147
  624MOL0     H84183  11.504   8.610   2.812 -3.2859 -1.9374 -0.0636
  624MOL0     H84184  11.660   8.550   2.735  0.0658  2.4454  0.7183
  624MOL0     H84185  11.550   8.650   2.565 -0.7815  0.3781  0.5001
  624MOL0     H84186  11.501   8.478   2.535  1.0820  1.1722 -1.5186
  624MOL0     H84187  11.344   8.697   2.655  3.2310  0.8813 -0.8987
  624MOL0     H84188  11.290   8.531   2.643 -0.9281  1.6863 -0.2384
  624MOL0     H84189  11.395   8.650   2.385  0.1384  0.4855 -0.0876
  624MOL0     H84190  11.284   8.514   2.418  1.3969 -1.2157  1.9658
  624MOL0     H84191  11.033   8.607   2.514 -0.5178  1.9520  0.1154
  624MOL0     H84192  10.905   8.905   2.598  0.7946  1.2293  0.4411
  624MOL0     H84193  10.839   8.934   2.434  2.4255 -0.2510 -0.8493
  624MOL0     H84194  10.682   8.767   2.467  1.8336 -1.1347 -2.7252
  624MOL0     H84195  10.815   8.659   2.482 -1.4255  0.4759 -2.6781
  624MOL0     H84196  10.804   8.724   2.737 -0.2499 -1.8712  0.4008
  624MOL0     H84197  10.668   8.640   2.667 -1.6246  1.1933 -0.9674
  624MOL0     H84198  10.676   8.941   2.656 -0.4176 -0.0400  1.7782
  624MOL0     H84199  10.619   8.859   2.800  2.0270  2.1519  0.1579
  624MOL0     H84200  10.322   8.924   2.829  2.1928 -1.0846  0.4347
  624MOL0     H84201  10.125   8.801   2.874 -0.4058  2.1105 -1.7732
  624MOL0     H84202   9.743   8.562   2.757 -1.1574  0.3755  1.4345
  624MOL0     H84203   9.569   8.409   2.777  1.9136  2.3923 -0.1924
  624MOL0     H84204   9.414   8.070   2.749  2.6149 -0.4830  0.8626
  624MOL0     H84205   9.478   8.211   2.839 -1.6832  0.2594 -0.2763
  624MOL0     H84206   9.282   8.339   2.773 -0.0446 -0.6565  1.0043
  624MOL0     H84207   9.349   8.329   2.618  2.0050 -0.1701 -0.0624
  624MOL0     H84208   9.159   8.237   2.572  1.8168 -3.1894 -4.6435
  624MOL0     H84209   9.230   8.091   2.598 -1.6764  0.0012 -0.5373
  624MOL0     H84210   9.088   8.198   2.851 -3.2264  0.9917 -4.1409
  624MOL0     H84211   9.189   8.060   2.824 -3.0413 -0.1914  3.8316
  624MOL0     H84212   8.908   8.109   2.698 -0.3006  1.8400  1.8652
  624MOL0     H84213   8.949   7.982   2.823 -2.9227 -1.6509 -2.0615
  624MOL0     H84214   9.021   7.992   2.528 -1.0903  0.5464  0.1616
  624MOL0     H84215   9.091   7.870   2.648 -1.4946 -0.3061  2.6539
  624MOL0     H84216   8.913   7.807   2.497  0.5068 -1.3332  0.8094
  624MOL0     H84217   8.790   7.897   2.582 -0.1224 -1.0868  2.9844
  624MOL0     H84218   8.808   7.647   2.663 -1.0277  0.5230  2.1030
  624MOL0     H84219   8.975   7.696   2.716  1.3655  1.1757  1.1213
  624MOL0     H84220   9.764   8.113   2.538 -2.5809 -0.6649  2.7875
  624MOL0     H84221   9.982   8.255   2.575 -1.5868 -1.0585  3.0590
  624MOL0     H84222  10.257   8.492   2.600  1.6135 -0.1790  1.8017
  624MOL0     H84223  10.436   8.642   2.524 -0.7466  2.4483 -1.0203
  624MOL0     H84224  11.209   8.002   2.813  0.8715  1.6492  1.0166
  624MOL0     H84225  10.987   7.884   2.794  3.3885 -0.1523 -2.4556
  624MOL0     H84226  10.585   7.893   2.985 -1.3199 -2.3176  2.1099
  624MOL0     H84227  10.426   7.754   3.070  1.0440  2.6259 -0.5770
  624MOL0     H84228  10.250   7.500   2.774  2.3739 -0.3651  0.7188
  624MOL0     H84229  10.124   7.519   2.896  0.4277  1.4985  1.3328
  624MOL0     H84230  10.237   7.300   3.004  0.8152 -0.0389 -0.0985
  624MOL0     H84231  10.313   7.293   2.841 -0.4238  0.2097 -1.0017
  624MOL0     H84232  10.095   7.303   2.730  2.2275 -0.5005 -0.3193
  624MOL0     H84233  10.010   7.305   2.880  0.9621  0.6287  1.9540
  624MOL0     H84234  10.034   7.048   2.778  1.1056  0.1152 -1.7575
  624MOL0     H84235  10.203   7.078   2.805  0.4134  1.2926 -0.5879
  624MOL0     H84236  10.025   6.973   3.177  1.3365 -3.4195 -1.0279
  624MOL0     H84237  10.465   7.483   2.731  0.2278  0.6376 -1.3030
  624MOL0     H84238  10.775   7.592   2.637 -0.1310 -2.5121 -0.4167
  624MOL0     H84239  10.632   7.509   2.577  1.6799  0.1733  0.4919
  624MOL0     H84240  10.665   7.692   2.542  0.5419  2.5367  2.8324
  625MOL0     O84241   0.426   7.779   5.919 -0.5712  0.4373  0.3339
  625MOL0     C84242   0.517   7.697   5.942  1.8029 -0.1064 -0.6507
  625MOL0     O84243   0.488   7.577   5.991  0.1840 -0.0852  0.4088
  625MOL0     C84244   0.368   7.547   6.035  0.0835 -0.1461  0.2463
  625MOL0     C84245   0.301   7.444   5.966  0.2395  0.1565  0.2729
  625MOL0     C84246   0.171   7.411   6.008 -0.0220  0.3726 -0.9777
  625MOL0     C84247   0.112   7.465   6.131 -1.4326  0.2553  0.7692
  625MOL0     O84248  -0.015   7.427   6.166  0.4754 -0.3390  0.6623
  625MOL0     C84249  -0.114   7.531   6.151 -0.8745  0.7748 -0.4779
  625MOL0     C84250  -0.261   7.474   6.122  1.1775  0.9891 -0.5491
  625MOL0     C84251  -0.378   7.549   6.175 -0.6173  0.4104  0.2130
  625MOL0     C84252  -0.425   7.665   6.079  0.0872  0.0388 -0.9397
  625MOL0     C84253  -0.329   7.769   6.035 -1.2799 -0.9713  0.6365
  625MOL0     C84254  -0.286   7.851   6.158 -0.0962  0.0938 -0.4795
  625MOL0     C84255  -0.232   7.998   6.114 -0.3576  0.3934  0.1253
  625MOL0     C84256  -0.090   8.002   6.067 -0.4419  0.3465 -0.1284
  625MOL0     N84257  -0.079   7.941   5.928 -0.3938 -0.6335 -0.7167
  625MOL0     C84258   0.003   7.832   5.906 -0.5121 -0.6068  0.0809
  625MOL0     C84259  -0.018   7.796   5.777 -0.2289 -0.0159  0.1874
  625MOL0     C84260   0.061   7.685   5.700 -0.1099 -0.7019  0.4113
  625MOL0     C84261   0.003   7.644   5.558 -0.6677 -0.1383 -0.1176
  625MOL0     C84262  -0.143   7.581   5.580 -0.8040 -0.8078 -0.1558
  625MOL0     C84263  -0.139   7.443   5.636 -0.3058 -1.1218 -0.5016
  625MOL0     O84264  -0.268   7.389   5.633 -0.1411  0.7352  0.0650
  625MOL0     C84265  -0.286   7.265   5.696 -0.2104 -0.5076  0.0367
  625MOL0     C84266  -0.402   7.197   5.674  0.4319 -0.1379  0.2491
  625MOL0     C84267  -0.422   7.073   5.746  0.5349  0.6583  0.7998
  625MOL0     C84268  -0.323   7.015   5.825  0.7446 -0.5880 -0.6693
  625MOL0     C84269  -0.351   6.884   5.891 -0.5962 -1.1853  0.4632
  625MOL0     O84270  -0.258   6.860   5.985 -0.0177  0.5795  0.2342
  625MOL0     C84271  -0.253   6.742   6.058  0.2415  0.3868 -0.0051
  625MOL0     C84272  -0.148   6.662   6.039 -0.5146  0.7310  0.9548
  625MOL0     C84273  -0.136   6.556   6.121 -0.2684  0.3011 -0.9704
  625MOL0     C84274  -0.230   6.527   6.232 -0.3948 -0.8302 -0.0360
  625MOL0     O84275  -0.215   6.417   6.318  0.0733 -0.0953  0.8150
  625MOL0     C84276  -0.080   6.366   6.328  0.3220  0.4336  0.4272
  625MOL0     C84277  -0.059   6.280   6.455 -0.4171 -0.6596  0.6541
  625MOL0     C84278  -0.009   6.142   6.408 -0.3834  0.2283 -0.1276
  625MOL0     C84279  -0.005   6.050   6.527  0.9161  0.7785  0.5717
  625MOL0     C84280   0.031   5.908   6.467  1.1870  0.5359  1.2688
  625MOL0     C84281   0.173   5.898   6.418  0.4957  0.6282 -0.4698
  625MOL0     C84282   0.211   5.750   6.366 -0.5458  0.1748  0.5762
  625MOL0     C84283   0.345   5.729   6.303 -0.3845  0.2302  0.7011
  625MOL0    Cl84284   0.480   5.770   6.405 -0.6825 -0.1869 -0.1444
  625MOL0     C84285  -0.342   6.607   6.246 -0.7918 -0.4648  0.1007
  625MOL0     C84286  -0.349   6.721   6.159 -0.2774  0.0163 -0.3639
  625MOL0     O84287  -0.440   6.805   5.861 -0.1232  0.2271 -0.2546
  625MOL0     C84288  -0.204   7.085   5.846  0.3656  0.5260 -0.2414
  625MOL0     C84289  -0.189   7.213   5.784 -0.2302  0.8356  0.0052
  625MOL0     N84290  -0.105   7.893   5.720 -0.9065 -0.0285 -0.5726
  625MOL0     N84291  -0.146   7.978   5.813 -0.5376  0.1997  0.1967
  625MOL0     C84292   0.175   7.568   6.196 -1.3105  0.3865 -0.5850
  625MOL0     C84293   0.306   7.608   6.150  0.5103 -0.8325  0.1729
  625MOL0     C84294   0.657   7.738   5.923  0.2548 -0.4758 -0.3297
  625MOL0     C84295   0.675   7.847   5.840 -0.8811  0.1880  0.0754
  625MOL0     C84296   0.802   7.890   5.817  0.0239  0.5727  0.4760
  625MOL0     C84297   0.912   7.841   5.885  0.5635  1.2959  0.1886
  625MOL0     O84298   1.033   7.891   5.849  0.2324  0.0350 -0.2923
  625MOL0     C84299   1.150   7.808   5.864 -0.7325 -0.1152 -0.7194
  625MOL0     C84300   1.272   7.848   5.791  0.0041 -0.4588 -0.2369
  625MOL0     C84301   1.349   7.969   5.850  0.3331 -0.0205 -0.6071
  625MOL0     C84302   1.437   8.038   5.740  0.4478  0.9902 -0.3067
  625MOL0     C84303   1.511   8.146   5.807 -0.8361 -0.3451 -0.0686
  625MOL0     C84304   1.570   8.247   5.830 -0.0703 -0.3101  0.3677
  625MOL0     C84305   0.898   7.738   5.979  0.2904 -0.9946 -0.8758
  625MOL0     C84306   0.768   7.683   5.999  0.9212  1.2890 -0.4501
  625MOL0     C84307   0.752   7.570   6.098 -0.1937 -0.3433 -0.2110
  625MOL0     H84308   0.344   7.414   5.871 -3.2844  3.9368 -2.8959
  625MOL0     H84309   0.117   7.331   5.958 -0.1913 -0.7773  0.9439
  625MOL0     H84310  -0.125   7.587   6.244 -2.0181 -0.7930  0.3801
  625MOL0     H84311  -0.082   7.584   6.061 -0.5941 -2.6413 -2.5456
  625MOL0     H84312  -0.270   7.375   6.169  2.6586  1.2764  0.3937
  625MOL0     H84313  -0.262   7.469   6.013  1.8463 -4.6239 -0.6173
  625MOL0     H84314  -0.348   7.568   6.278  3.0428 -0.1250 -0.6038
  625MOL0     H84315  -0.464   7.481   6.179 -2.3533  2.4209 -0.8099
  625MOL0     H84316  -0.470   7.623   5.989  0.6639  1.1243 -1.7502
  625MOL0     H84317  -0.505   7.722   6.128  0.8367 -0.7590  1.3623
  625MOL0     H84318  -0.233   7.742   5.989  0.3671  4.1749  0.4049
  625MOL0     H84319  -0.375   7.833   5.959 -0.2018  0.4107  1.1199
  625MOL0     H84320  -0.369   7.872   6.227 -1.5475 -2.9244 -1.1588
  625MOL0     H84321  -0.210   7.805   6.222 -0.8739 -1.0707 -0.3668
  625MOL0     H84322  -0.226   8.054   6.207 -1.4811  2.3942 -0.9607
  625MOL0     H84323  -0.300   8.041   6.040 -2.4941 -2.7957  0.0178
  625MOL0     H84324  -0.047   8.102   6.062  0.8106 -0.0260  1.8849
  625MOL0     H84325  -0.029   7.957   6.146  0.2345  1.9862  0.3273
  625MOL0     H84326   0.078   7.776   5.962  1.2815  2.0212  0.5052
  625MOL0     H84327   0.163   7.723   5.683  0.1471 -1.9540 -1.1869
  625MOL0     H84328   0.082   7.598   5.763  1.9524  0.2330  1.1262
  625MOL0     H84329  -0.020   7.740   5.512 -2.4800  0.1346  1.2540
  625MOL0     H84330   0.078   7.594   5.495  0.9340  2.2611 -0.2291
  625MOL0     H84331  -0.204   7.592   5.490 -0.2765  2.0558 -0.2620
  625MOL0     H84332  -0.190   7.650   5.651 -1.3517  0.3587 -1.6025
  625MOL0     H84333  -0.091   7.459   5.733 -0.3827 -0.3769 -0.5784
  625MOL0     H84334  -0.066   7.391   5.574  2.0948  2.7536 -1.2755
  625MOL0     H84335  -0.471   7.250   5.609  1.2506  0.0145 -0.5217
  625MOL0     H84336  -0.515   7.022   5.720  2.3922 -1.1414 -3.3762
  625MOL0     H84337  -0.082   6.683   5.956  0.9956 -0.9689  1.6470
  625MOL0     H84338  -0.051   6.491   6.102  1.3889  1.3960  2.0980
  625MOL0     H84339  -0.052   6.317   6.234 -3.4639 -0.8950 -0.2126
  625MOL0     H84340  -0.016   6.453   6.341  0.9473 -0.1757  1.6652
  625MOL0     H84341   0.012   6.348   6.504 -0.6709  0.3955 -0.4028
  625MOL0     H84342  -0.146   6.257   6.516  0.9702  1.5150  3.7279
  625MOL0     H84343  -0.070   6.096   6.330 -1.4775 -1.7973  1.8326
  625MOL0     H84344   0.090   6.161   6.366 -0.7236  1.4155 -0.4414
  625MOL0     H84345  -0.098   6.055   6.585  1.3352 -1.4001  1.5536
  625MOL0     H84346   0.076   6.088   6.591  0.0435 -0.7998  2.7580
  625MOL0     H84347  -0.042   5.870   6.395 -1.4397 -2.1562  4.9505
  625MOL0     H84348   0.023   5.838   6.551 -1.9848 -1.9398 -0.8556
  625MOL0     H84349   0.204   5.956   6.331 -0.5945  1.1032 -0.5499
  625MOL0     H84350   0.244   5.927   6.497  1.9850  1.4392 -2.0330
  625MOL0     H84351   0.134   5.726   6.292  1.3930  0.1488 -1.5493
  625MOL0     H84352   0.204   5.688   6.456  2.4367 -0.5401  0.4309
  625MOL0     H84353   0.373   5.627   6.274  2.3029  2.1057 -4.5863
  625MOL0     H84354   0.351   5.785   6.210  1.1205  1.6238  1.5781
  625MOL0     H84355  -0.415   6.596   6.325 -1.9433  0.5949 -0.7694
  625MOL0     H84356  -0.435   6.788   6.163  1.4380  2.3157  0.2959
  625MOL0     H84357  -0.118   7.048   5.902  0.1965  1.9277  1.0256
  625MOL0     H84358  -0.096   7.263   5.810  1.6738 -1.6190 -1.6031
  625MOL0     H84359   0.136   7.599   6.292 -4.2985 -6.7303  1.1697
  625MOL0     H84360   0.364   7.689   6.193 -1.2121  0.7046 -0.2515
  625MOL0     H84361   0.597   7.875   5.769 -1.5239  3.6285  1.9144
  625MOL0     H84362   0.810   7.974   5.748  0.3798  0.3050  0.1880
  625MOL0     H84363   1.119   7.715   5.817 -4.0328  1.1369 -1.2586
  625MOL0     H84364   1.169   7.780   5.968 -1.2667  1.6870 -0.0929
  625MOL0     H84365   1.233   7.877   5.693  3.6321  0.5385 -1.5510
  625MOL0     H84366   1.337   7.761   5.774 -0.0558 -0.0725 -2.8503
  625MOL0     H84367   1.414   7.938   5.932 -0.8674 -0.5994  0.1608
  625MOL0     H84368   1.285   8.049   5.887  4.0978  2.1990  1.7644
  625MOL0     H84369   1.498   7.955   5.703 -3.4827 -2.2811 -0.2857
  625MOL0     H84370   1.395   8.075   5.646  3.0236  1.6588 -1.2549
  625MOL0     H84371   1.639   8.329   5.841  0.7711 -0.9605  0.0391
  625MOL0     H84372   0.981   7.698   6.036  0.7976  1.4863  0.2595
  625MOL0     H84373   0.836   7.581   6.167  0.3562  3.2484 -1.2551
  625MOL0     H84374   0.660   7.574   6.158 -0.6558 -2.4098 -0.6829
  625MOL0     H84375   0.751   7.474   6.045 -4.6726 -0.9774  0.5791
  626MOL0     O84376  11.209   9.352   6.098 -0.4206 -0.0020 -0.1405
  626MOL0     C84377  11.113   9.292   6.043 -0.3547  0.7495  0.4833
  626MOL0     O84378  11.088   9.152   6.033  0.4884 -0.8942 -0.6951
  626MOL0     C84379  11.191   9.061   6.050 -0.7210  1.0940  1.4221
  626MOL0     C84380  11.324   9.093   6.049 -0.1923 -0.1458  0.4326
  626MOL0     C84381  11.426   8.999   6.064  0.3825 -0.2842 -0.1707
  626MOL0     C84382  11.387   8.860   6.061  0.5695  0.0567 -0.5432
  626MOL0     O84383  11.473   8.751   6.062 -0.3258 -0.0643  0.4767
  626MOL0     C84384  11.611   8.782   6.057  0.9481  1.2059 -0.7766
  626MOL0     C84385  11.668   8.815   5.914  0.7203  0.3260  0.7846
  626MOL0     C84386  11.631   8.698   5.809  0.1652  0.1126 -0.0749
  626MOL0     C84387  11.655   8.753   5.675 -0.1285 -1.0352  0.2879
  626MOL0     C84388  11.662   8.658   5.559 -0.0163  0.2975 -1.3507
  626MOL0     C84389  11.776   8.553   5.563 -0.7389 -0.5777  0.3308
  626MOL0     C84390  11.905   8.636   5.530 -0.9379  0.3077  0.8087
  626MOL0     C84391  12.025   8.550   5.484  0.0818  1.0962 -0.8514
  626MOL0     N84392  12.116   8.637   5.421  0.1531 -0.6216  0.5535
  626MOL0     C84393  12.137   8.642   5.281  0.0172 -0.1184 -0.7389
  626MOL0     C84394  12.241   8.734   5.269  0.0541 -0.0448 -0.4728
  626MOL0     C84395  12.297   8.776   5.140  1.1671 -0.5484 -0.2740
  626MOL0     C84396  12.208   8.887   5.076 -0.9566 -0.5796 -0.4410
  626MOL0     C84397  12.289   9.011   5.032  0.0752  0.1456 -0.5823
  626MOL0     C84398  12.395   8.974   4.928  0.4651 -0.5114  0.1417
  626MOL0     O84399  12.332   8.892   4.828 -0.0153  0.3242 -0.2196
  626MOL0     C84400  12.416   8.804   4.758 -0.0122 -1.1514  0.2010
  626MOL0     C84401  12.520   8.870   4.677  0.2344  0.1583 -0.0993
  626MOL0     C84402  12.631   8.799   4.634 -0.8202  0.9470 -0.9877
  626MOL0     C84403  12.637   8.661   4.664 -0.0614 -1.1323 -0.3975
  626MOL0     C84404  12.752   8.577   4.621 -1.2790  0.8008 -0.0585
  626MOL0     O84405  12.746   8.438   4.643 -0.2133  1.2676 -0.5529
  626MOL0     C84406  12.834   8.341   4.609 -0.4789 -0.3589  0.3637
  626MOL0     C84407  12.817   8.213   4.666  0.9440  0.0685 -0.5017
  626MOL0     C84408  12.905   8.108   4.643  0.2506  0.7177 -0.0909
  626MOL0     C84409  13.007   8.122   4.556  0.4183 -0.0614 -0.0594
  626MOL0     O84410  13.089   8.018   4.528  0.2020  0.3568 -0.2811
  626MOL0     C84411  13.120   7.934   4.646 -0.6290 -0.3415  0.0783
  626MOL0     C84412  13.254   7.865   4.608 -0.0274 -0.4818 -0.7996
  626MOL0     C84413  13.265   7.792   4.469  1.1716 -1.5363  0.5249
  626MOL0     C84414  13.361   7.672   4.482  0.5145  0.1814  0.0668
  626MOL0     C84415  13.345   7.585   4.357  0.5792  0.4565  0.2247
  626MOL0     C84416  13.461   7.479   4.332  0.2264 -0.2410 -0.1063
  626MOL0     C84417  13.421   7.344   4.400  0.2779 -0.1835 -0.2242
  626MOL0     C84418  13.478   7.224   4.318  0.1711 -0.0640  1.0881
  626MOL0    Cl84419  13.445   7.060   4.399  0.2524 -0.2905 -0.3893
  626MOL0     C84420  13.017   8.247   4.481 -0.0267  0.4982 -0.1518
  626MOL0     C84421  12.937   8.353   4.517 -0.3435 -0.6364 -0.1116
  626MOL0     O84422  12.851   8.636   4.569  0.1590 -0.9122  0.1027
  626MOL0     C84423  12.534   8.596   4.731 -0.6929  0.0251  0.5510
  626MOL0     C84424  12.424   8.668   4.779 -0.9750  0.7591 -0.4867
  626MOL0     N84425  12.279   8.764   5.404  0.0969 -0.2855  0.1845
  626MOL0     N84426  12.211   8.701   5.489  0.0965  0.6747  0.3808
  626MOL0     C84427  11.255   8.822   6.057  0.5214  0.7916  0.4135
  626MOL0     C84428  11.154   8.923   6.061 -0.5281 -0.6127  0.3114
  626MOL0     C84429  11.013   9.390   5.981 -0.0166 -0.5081 -0.6266
  626MOL0     C84430  11.047   9.510   5.935 -0.8318 -0.5295  0.9237
  626MOL0     C84431  10.949   9.593   5.885 -0.1738  0.6964  0.8729
  626MOL0     C84432  10.816   9.555   5.862 -0.0905 -0.0202  0.2511
  626MOL0     O84433  10.738   9.650   5.809 -0.1012  0.2931 -0.1729
  626MOL0     C84434  10.596   9.619   5.794 -1.0280  0.0977 -0.6675
  626MOL0     C84435  10.503   9.738   5.771 -0.2168 -0.0518  0.6968
  626MOL0     C84436  10.488   9.759   5.617 -0.2964 -0.0483  0.0273
  626MOL0     C84437  10.389   9.865   5.579  0.2732 -0.5021 -0.4708
  626MOL0     C84438  10.380   9.985   5.664 -0.5497 -0.5850 -0.2950
  626MOL0     C84439  10.369  10.076   5.743  0.5284 -0.3730  0.2810
  626MOL0     C84440  10.781   9.424   5.903  0.4354 -0.0529  0.5564
  626MOL0     C84441  10.873   9.344   5.964 -0.8679 -0.8543 -0.6942
  626MOL0     C84442  10.815   9.211   5.999 -0.4113 -0.8652  0.9112
  626MOL0     H84443  11.368   9.191   6.056 -1.7033  0.5479  0.6195
  626MOL0     H84444  11.530   9.030   6.060  0.9783 -1.5028  2.9399
  626MOL0     H84445  11.625   8.861   6.131  1.2256  0.5466 -0.1221
  626MOL0     H84446  11.672   8.698   6.091 -0.0711  0.0250 -1.7383
  626MOL0     H84447  11.774   8.841   5.918  0.1609  3.0553  0.2112
  626MOL0     H84448  11.619   8.905   5.875  1.6415 -0.8951 -3.7505
  626MOL0     H84449  11.522   8.688   5.814  0.2559 -0.4912  2.5620
  626MOL0     H84450  11.690   8.606   5.825  0.4250  0.1410 -0.8319
  626MOL0     H84451  11.575   8.825   5.653  1.4702  0.4821 -0.8028
  626MOL0     H84452  11.745   8.814   5.686 -1.3306  0.6478  1.5209
  626MOL0     H84453  11.569   8.600   5.568  1.8241 -3.0166 -1.9234
  626MOL0     H84454  11.658   8.708   5.462 -0.9991 -0.6777 -1.8438
  626MOL0     H84455  11.775   8.514   5.666  0.5041 -2.5056 -0.3396
  626MOL0     H84456  11.766   8.474   5.489  1.0483  0.5164 -1.1555
  626MOL0     H84457  11.936   8.682   5.624 -0.5123 -0.4467  1.0453
  626MOL0     H84458  11.883   8.706   5.449  1.1427 -0.4721 -0.5244
  626MOL0     H84459  12.082   8.521   5.573  1.0818  4.5244 -0.2057
  626MOL0     H84460  12.000   8.483   5.402 -1.3636  3.5753 -2.5830
  626MOL0     H84461  12.082   8.583   5.209  1.4053 -2.0894 -0.2573
  626MOL0     H84462  12.396   8.818   5.160  0.1308  1.5880  0.6912
  626MOL0     H84463  12.312   8.689   5.075  0.8609  1.1919 -2.7972
  626MOL0     H84464  12.157   8.841   4.990 -1.9744  3.9524 -2.5446
  626MOL0     H84465  12.123   8.914   5.140 -0.4059  1.9061 -0.6643
  626MOL0     H84466  12.337   9.054   5.120  3.5351 -0.8572 -1.8500
  626MOL0     H84467  12.232   9.089   4.980  0.8346  2.4683  1.8408
  626MOL0     H84468  12.484   8.929   4.974  0.2804 -0.1499  0.8621
  626MOL0     H84469  12.442   9.063   4.885 -1.6509 -0.1131 -1.5432
  626MOL0     H84470  12.497   8.976   4.670 -2.1882 -0.2474  0.9851
  626MOL0     H84471  12.714   8.843   4.579 -0.1130  0.2466 -0.4949
  626MOL0     H84472  12.734   8.192   4.733 -0.6541  0.2496 -2.3171
  626MOL0     H84473  12.897   8.011   4.691 -0.5751 -0.4605 -2.4608
  626MOL0     H84474  13.129   8.011   4.723  2.8311  0.8014 -1.2506
  626MOL0     H84475  13.043   7.859   4.663  1.1984 -1.8837  2.0561
  626MOL0     H84476  13.324   7.949   4.613  1.6354 -1.8322 -0.3357
  626MOL0     H84477  13.260   7.790   4.687 -1.8611  1.6616  1.5208
  626MOL0     H84478  13.172   7.762   4.420  2.5192  0.1548 -3.5786
  626MOL0     H84479  13.303   7.863   4.394 -0.6378 -0.3366  0.6836
  626MOL0     H84480  13.341   7.619   4.576 -0.8733  4.2320  2.2895
  626MOL0     H84481  13.463   7.708   4.493  0.8388 -0.5013 -0.5965
  626MOL0     H84482  13.341   7.650   4.269 -0.8143 -2.8512 -2.3872
  626MOL0     H84483  13.251   7.529   4.360  1.5736 -1.2421  1.6237
  626MOL0     H84484  13.480   7.475   4.224  1.5162  1.6743 -0.0104
  626MOL0     H84485  13.557   7.522   4.364  0.8964 -2.7885  1.6165
  626MOL0     H84486  13.314   7.328   4.414  0.5679 -0.4842  1.9534
  626MOL0     H84487  13.461   7.344   4.502 -0.5430  1.0452  0.1118
  626MOL0     H84488  13.428   7.223   4.221  1.2431 -0.7413  0.5297
  626MOL0     H84489  13.584   7.237   4.293  0.1323 -0.1086  0.8995
  626MOL0     H84490  13.102   8.260   4.415  1.0340 -0.6049  0.9284
  626MOL0     H84491  12.959   8.449   4.470  2.0038 -2.0783 -2.2335
  626MOL0     H84492  12.526   8.492   4.759 -2.8779  0.7033  2.7678
  626MOL0     H84493  12.349   8.610   4.832 -2.2179  1.1835 -1.7265
  626MOL0     H84494  11.214   8.721   6.062 -0.9039  1.3232  0.1293
  626MOL0     H84495  11.050   8.895   6.066 -0.6724 -0.3610 -1.1045
  626MOL0     H84496  11.151   9.535   5.953 -0.8364  1.5325 -1.3460
  626MOL0     H84497  10.973   9.690   5.841  1.0236 -0.3114 -0.8239
  626MOL0     H84498  10.542   9.569   5.875  0.0336 -2.3332 -1.3902
  626MOL0     H84499  10.590   9.555   5.705 -0.8424  2.9049 -2.8317
  626MOL0     H84500  10.535   9.832   5.817 -2.0716 -0.5131  3.1725
  626MOL0     H84501  10.401   9.715   5.803 -1.3564  2.8569 -0.5321
  626MOL0     H84502  10.457   9.674   5.555 -1.5489  0.8220 -0.5883
  626MOL0     H84503  10.593   9.780   5.593  0.5581 -1.2386  2.4513
  626MOL0     H84504  10.414   9.891   5.476 -2.0696 -0.1898 -1.0173
  626MOL0     H84505  10.287   9.826   5.579  0.0304  0.0735 -1.6864
  626MOL0     H84506  10.365  10.156   5.813  2.2315  1.9433 -2.0881
  626MOL0     H84507  10.677   9.395   5.895 -0.3341  2.0024  2.2221
  626MOL0     H84508  10.869   9.140   5.935 -2.4996 -0.4847 -1.4509
  626MOL0     H84509  10.847   9.189   6.101  0.5398  0.5782  0.9473
  626MOL0     H84510  10.706   9.207   5.994 -0.7348  3.0551  1.9887
  627MOL0     O84511  10.456  10.002   9.372 -0.0646  0.7925  0.3267
  627MOL0     C84512  10.442   9.909   9.456 -0.9460 -0.0598  0.2244
  627MOL0     O84513  10.324   9.838   9.481 -0.1248  0.5427  0.2866
  627MOL0     C84514  10.225   9.856   9.385 -0.0360 -0.1802 -0.7436
  627MOL0     C84515  10.163   9.980   9.358  0.5532 -0.5824  0.2827
  627MOL0     C84516  10.061   9.987   9.260 -0.4109  0.9709 -0.5773
  627MOL0     C84517  10.014   9.872   9.195 -1.2163  0.2707 -0.4310
  627MOL0     O84518   9.928   9.912   9.100 -0.6040  0.4017  0.4863
  627MOL0     C84519   9.905   9.822   8.991 -0.2882  1.2072 -1.3643
  627MOL0     C84520   9.825   9.856   8.869 -0.4473 -0.1692 -0.4429
  627MOL0     C84521   9.676   9.867   8.918 -0.1508  0.8733  0.6476
  627MOL0     C84522   9.599   9.731   8.936  0.6540  0.5039  0.0856
  627MOL0     C84523   9.449   9.732   8.890  0.1528 -0.8278 -0.0307
  627MOL0     C84524   9.429   9.739   8.732 -0.2228  0.2017  0.1540
  627MOL0     C84525   9.283   9.728   8.703 -0.0051  0.0706 -0.3142
  627MOL0     C84526   9.217   9.588   8.746 -1.5132  0.1786  0.4869
  627MOL0     N84527   9.074   9.584   8.719 -0.8402  0.3280  0.4721
  627MOL0     C84528   9.033   9.607   8.590  0.0047  0.1811 -0.0310
  627MOL0     C84529   8.902   9.632   8.604  0.1378  0.5510 -0.3464
  627MOL0     C84530   8.826   9.697   8.487  0.8924  1.5630 -0.3266
  627MOL0     C84531   8.808   9.607   8.359  0.7221 -0.1160 -0.4438
  627MOL0     C84532   8.717   9.656   8.246 -0.3055  0.1594 -0.0649
  627MOL0     C84533   8.722   9.811   8.225 -0.6759  0.7620  0.2795
  627MOL0     O84534   8.851   9.861   8.183 -0.0848 -0.4007 -0.5669
  627MOL0     C84535   8.886   9.847   8.051  0.3592  0.2178  0.3564
  627MOL0     C84536   8.810   9.780   7.956  1.0188 -0.0785 -0.4285
  627MOL0     C84537   8.842   9.760   7.817  0.5745 -1.2883  0.1332
  627MOL0     C84538   8.970   9.813   7.791  0.1826  0.0041 -0.0506
  627MOL0     C84539   9.022   9.790   7.651 -0.6215 -0.1180  0.4150
  627MOL0     O84540   8.933   9.742   7.567 -0.1952  0.5640  0.6368
  627MOL0     C84541   8.945   9.756   7.424 -0.3901 -0.4323  0.1400
  627MOL0     C84542   8.837   9.822   7.366 -0.2633  0.1536  1.2325
  627MOL0     C84543   8.835   9.849   7.227 -0.2837  0.2438  0.6793
  627MOL0     C84544   8.943   9.815   7.150  0.5862 -0.0687  0.0945
  627MOL0     O84545   8.932   9.821   7.015  0.8004  0.5447  0.7408
  627MOL0     C84546   8.879   9.938   6.951 -0.8174  0.2141 -0.2723
  627MOL0     C84547   8.905   9.917   6.806 -0.3299  0.8759  0.9946
  627MOL0     C84548   8.837   9.789   6.748  0.8543  1.2174 -0.0704
  627MOL0     C84549   8.852   9.766   6.598 -0.2858  0.2275  0.6803
  627MOL0     C84550   8.784   9.636   6.535 -0.8126 -0.0497  0.5774
  627MOL0     C84551   8.839   9.592   6.399  0.2971  0.4607  0.7738
  627MOL0     C84552   8.779   9.454   6.367 -0.0180  0.2271 -0.0685
  627MOL0     C84553   8.859   9.382   6.260  0.6920 -0.1328 -1.0353
  627MOL0    Cl84554   8.883   9.470   6.111 -0.3116  0.0128  0.4069
  627MOL0     C84555   9.049   9.742   7.213  1.1326  0.0326  0.0660
  627MOL0     C84556   9.055   9.714   7.346 -0.6783 -0.0865  0.5072
  627MOL0     O84557   9.134   9.833   7.631 -0.7122 -0.1024  0.6109
  627MOL0     C84558   9.046   9.898   7.884 -0.2948  0.5056  0.4074
  627MOL0     C84559   8.998   9.916   8.013 -0.4305 -0.0536 -0.1893
  627MOL0     N84560   8.862   9.634   8.738 -0.7636 -0.9540 -0.8316
  627MOL0     N84561   8.967   9.579   8.800  0.5492 -0.0383 -0.4935
  627MOL0     C84562  10.077   9.738   9.222  0.4336  0.0498 -0.3833
  627MOL0     C84563  10.184   9.741   9.310  0.4278  1.0043  0.4091
  627MOL0     C84564  10.557   9.870   9.526  0.9398  0.0098  0.7190
  627MOL0     C84565  10.558   9.748   9.590  0.1145  0.5606 -0.4614
  627MOL0     C84566  10.666   9.688   9.651 -0.7752 -0.0053 -0.6859
  627MOL0     C84567  10.794   9.745   9.635  0.8030 -0.3781 -0.2492
  627MOL0     O84568  10.912   9.701   9.686 -0.2762 -0.1785  0.0188
  627MOL0     C84569  10.912   9.606   9.795  0.6547  1.2577 -1.1549
  627MOL0     C84570  11.058   9.589   9.841 -0.1784  0.5468  0.7369
  627MOL0     C84571  11.092   9.707   9.925  0.0790  1.4752 -0.1052
  627MOL0     C84572  11.242   9.696   9.962 -1.1178 -0.1827  0.1857
  627MOL0     C84573  11.336   9.700   9.843  0.4997  0.0909 -0.4862
  627MOL0     C84574  11.400   9.706   9.742 -0.0113  0.3385  0.3648
  627MOL0     C84575  10.801   9.875   9.576 -1.0197  0.2403 -0.2662
  627MOL0     C84576  10.686   9.936   9.516 -0.3046  0.1204 -0.3547
  627MOL0     C84577  10.717  10.066   9.447  0.2235 -0.3373 -0.5396
  627MOL0     H84578  10.189  10.075   9.404 -0.6754  0.8530 -1.8092
  627MOL0     H84579  10.025  10.086   9.235  2.2870  2.9881  2.7153
  627MOL0     H84580  10.004   9.795   8.951 -0.0458  1.2901 -0.8264
  627MOL0     H84581   9.866   9.732   9.039 -3.1765  1.4524 -3.0148
  627MOL0     H84582   9.852   9.789   8.786 -1.1732 -4.0883  2.2228
  627MOL0     H84583   9.851   9.958   8.839 -0.4395 -0.2021 -0.5505
  627MOL0     H84584   9.620   9.935   8.853 -1.1182 -1.0013 -0.5621
  627MOL0     H84585   9.672   9.904   9.021 -0.7905 -0.8962  1.3036
  627MOL0     H84586   9.657   9.649   8.892  2.0957  1.4069  0.2175
  627MOL0     H84587   9.606   9.702   9.042 -0.1464 -1.2631 -0.3096
  627MOL0     H84588   9.390   9.658   8.945 -2.7835 -0.0208 -1.8779
  627MOL0     H84589   9.414   9.827   8.932  3.5802  0.8555 -0.6561
  627MOL0     H84590   9.474   9.828   8.686  1.2204 -0.1336  0.8897
  627MOL0     H84591   9.470   9.644   8.697 -1.4913 -2.2098  4.4966
  627MOL0     H84592   9.275   9.734   8.594 -2.8490 -2.8410 -0.4175
  627MOL0     H84593   9.227   9.814   8.739  0.2640  0.2091 -0.2183
  627MOL0     H84594   9.267   9.502   8.701 -0.7920  0.2520  1.1243
  627MOL0     H84595   9.230   9.579   8.854 -1.5941 -0.6324  0.4342
  627MOL0     H84596   9.085   9.594   8.495  0.1148 -2.9262  0.3347
  627MOL0     H84597   8.731   9.741   8.519  0.1342 -0.3264  0.1276
  627MOL0     H84598   8.884   9.785   8.457  4.2795 -0.4954 -0.2843
  627MOL0     H84599   8.902   9.588   8.306  0.3565 -1.5454 -0.6399
  627MOL0     H84600   8.778   9.506   8.387  0.4904  0.0559 -0.0691
  627MOL0     H84601   8.611   9.632   8.262 -1.0214  2.0377 -1.5812
  627MOL0     H84602   8.752   9.598   8.160  1.6263 -1.0776  1.4788
  627MOL0     H84603   8.709   9.860   8.322  0.7844 -0.8007  1.3089
  627MOL0     H84604   8.639   9.851   8.166 -0.1989  1.5646  0.1361
  627MOL0     H84605   8.713   9.735   7.977  0.2796 -0.0033 -3.3328
  627MOL0     H84606   8.785   9.707   7.742  0.1820  0.9308 -1.2127
  627MOL0     H84607   8.746   9.847   7.418  0.4349  0.3800  2.3927
  627MOL0     H84608   8.743   9.884   7.182  1.3146  4.0720 -0.0147
  627MOL0     H84609   8.775   9.961   6.973 -2.1872 -0.6493 -4.7988
  627MOL0     H84610   8.941  10.024   6.976  0.8255 -1.7779  3.2748
  627MOL0     H84611   8.872  10.005   6.750 -4.8784 -0.8398  0.5146
  627MOL0     H84612   9.012   9.899   6.795 -0.2681  1.7688  0.0700
  627MOL0     H84613   8.861   9.697   6.801 -0.4842  1.3120  0.7521
  627MOL0     H84614   8.733   9.814   6.771  1.0885  0.7126  1.7127
  627MOL0     H84615   8.959   9.762   6.578 -0.4979 -0.5615 -0.4287
  627MOL0     H84616   8.822   9.856   6.543  1.4758 -0.1881 -1.0820
  627MOL0     H84617   8.675   9.638   6.543 -0.9153 -3.5908  1.8342
  627MOL0     H84618   8.807   9.549   6.596 -1.5961 -0.4641  0.2887
  627MOL0     H84619   8.810   9.657   6.316  0.8028 -2.8740 -2.2588
  627MOL0     H84620   8.947   9.579   6.397  0.4662  1.7049  0.9135
  627MOL0     H84621   8.678   9.471   6.328  0.1532  1.3605 -0.0719
  627MOL0     H84622   8.776   9.392   6.457 -2.4557  2.9512  1.9668
  627MOL0     H84623   8.961   9.355   6.291  0.9305  1.4636 -0.3393
  627MOL0     H84624   8.809   9.290   6.228  3.8448 -1.9652 -1.1699
  627MOL0     H84625   9.130   9.709   7.149  0.3897  2.2553 -2.1818
  627MOL0     H84626   9.141   9.659   7.385  0.6164  0.3412 -1.5603
  627MOL0     H84627   9.146   9.940   7.874  0.6715 -1.6198  0.4189
  627MOL0     H84628   9.050   9.968   8.092 -3.1692  0.4528  1.3927
  627MOL0     H84629  10.050   9.644   9.175  0.2470  0.8115 -1.8599
  627MOL0     H84630  10.237   9.648   9.326 -0.2786  0.5817  0.3430
  627MOL0     H84631  10.465   9.694   9.601 -2.3962  3.6876 -3.7804
  627MOL0     H84632  10.662   9.598   9.713  1.4916  1.4548  1.7761
  627MOL0     H84633  10.876   9.508   9.760  0.8374  0.5509  0.5220
  627MOL0     H84634  10.854   9.633   9.884  0.6669  3.1240 -1.6857
  627MOL0     H84635  11.115   9.579   9.748 -0.9894  0.6584  0.2157
  627MOL0     H84636  11.094   9.496   9.886  2.5762  0.1322 -1.9573
  627MOL0     H84637  11.032   9.701  10.016  0.4718 -1.5764  0.0342
  627MOL0     H84638  11.067   9.805   9.882 -0.9622  1.0153 -0.5742
  627MOL0     H84639  11.268   9.778  10.029 -1.8153  0.3859 -0.2246
  627MOL0     H84640  11.256   9.605  10.022 -3.8651 -0.1143  1.0731
  627MOL0     H84641  11.457   9.723   9.653  0.5649 -0.7300  0.5204
  627MOL0     H84642  10.905   9.906   9.564 -0.7797 -0.4175  0.0833
  627MOL0     H84643  10.664  10.147   9.497  1.0682  0.1560 -0.4253
  627MOL0     H84644  10.826  10.076   9.448  0.0969  1.3678 -1.0320
  627MOL0     H84645  10.691  10.057   9.341  5.8639 -0.9846 -2.1565
  628MOL0     O84646   3.878   8.120   8.798  0.6574 -0.3222 -0.1082
  628MOL0     C84647   3.775   8.188   8.782 -0.2191  0.1776 -0.0700
  628MOL0     O84648   3.675   8.195   8.866  0.9628  0.5381 -0.1880
  628MOL0     C84649   3.665   8.102   8.963  0.3336  0.9011  0.3184
  628MOL0     C84650   3.646   7.961   8.926  0.5480 -1.5036  0.7466
  628MOL0     C84651   3.613   7.872   9.028 -0.4860  0.4645 -0.5190
  628MOL0     C84652   3.615   7.910   9.165  0.2708  0.1768 -0.3305
  628MOL0     O84653   3.597   7.801   9.250 -0.2751 -0.8542  0.6923
  628MOL0     C84654   3.705   7.777   9.343 -0.2830  0.0436 -0.1365
  628MOL0     C84655   3.686   7.853   9.472  1.1242 -0.1637 -1.3036
  628MOL0     C84656   3.554   7.806   9.536 -0.1289  1.0728  0.2376
  628MOL0     C84657   3.523   7.843   9.680  0.2658  0.3257 -0.4378
  628MOL0     C84658   3.388   7.787   9.727  0.8335  0.6562 -0.1690
  628MOL0     C84659   3.369   7.814   9.873 -0.2978  0.6157 -0.5886
  628MOL0     C84660   3.221   7.792   9.918  0.8035  0.1084 -0.4742
  628MOL0     C84661   3.170   7.647   9.892 -0.3320  0.0685  0.6719
  628MOL0     N84662   3.054   7.617   9.977  0.8380  0.1028  0.0129
  628MOL0     C84663   2.923   7.658   9.950 -0.3280 -1.0006 -0.3993
  628MOL0     C84664   2.847   7.599  10.044 -1.3106  0.0032 -0.6389
  628MOL0     C84665   2.696   7.613  10.047  0.4564 -0.0326  0.0612
  628MOL0     C84666   2.631   7.599   9.915  0.6126 -0.1235 -0.1969
  628MOL0     C84667   2.643   7.454   9.849 -0.7712 -0.2003  0.1424
  628MOL0     C84668   2.557   7.444   9.724 -1.0014  0.7353 -0.2965
  628MOL0     O84669   2.577   7.312   9.665 -0.8436  0.2171  0.3396
  628MOL0     C84670   2.498   7.264   9.564  0.1038 -0.1761 -0.5332
  628MOL0     C84671   2.392   7.327   9.497 -0.1838 -0.2669 -0.7425
  628MOL0     C84672   2.323   7.250   9.401 -0.6242  0.0915 -0.4750
  628MOL0     C84673   2.354   7.112   9.375  0.3757  0.6803  0.4492
  628MOL0     C84674   2.284   7.026   9.264 -0.9736 -0.6266  0.1711
  628MOL0     O84675   2.205   7.103   9.186  0.0636  0.7517  0.2437
  628MOL0     C84676   2.119   7.048   9.095 -0.1702  0.5817 -0.1414
  628MOL0     C84677   2.118   7.111   8.972 -0.0482  0.4019  0.5855
  628MOL0     C84678   2.020   7.064   8.872 -0.2128 -0.6109  0.3142
  628MOL0     C84679   1.952   6.952   8.888 -0.5939  0.6460 -0.5543
  628MOL0     O84680   1.887   6.879   8.792  0.6522  0.1579 -0.1111
  628MOL0     C84681   1.895   6.919   8.659 -0.3065  0.1648  0.9493
  628MOL0     C84682   1.830   6.822   8.551 -0.0926  0.2976 -0.9128
  628MOL0     C84683   1.852   6.871   8.406  0.0664 -0.1980  0.0518
  628MOL0     C84684   1.791   6.777   8.303 -0.4746  0.5922 -0.9075
  628MOL0     C84685   1.796   6.841   8.166  0.1646  0.1244 -0.5044
  628MOL0     C84686   1.938   6.843   8.120  0.1703 -0.0627  0.5230
  628MOL0     C84687   1.934   6.859   7.972 -0.0834  0.5907  0.1954
  628MOL0     C84688   2.071   6.900   7.918 -0.2973 -0.2986 -0.1782
  628MOL0    Cl84689   2.118   7.066   7.963 -0.2413 -0.0541  0.6867
  628MOL0     C84690   1.957   6.884   9.011  0.0798 -0.3582 -0.8864
  628MOL0     C84691   2.029   6.938   9.123  0.5409 -0.4764 -0.4700
  628MOL0     O84692   2.308   6.910   9.248 -0.2888  0.2056 -0.6773
  628MOL0     C84693   2.456   7.051   9.438  0.3382 -0.1617 -0.0003
  628MOL0     C84694   2.531   7.133   9.531  0.0212  0.0095 -0.1828
  628MOL0     N84695   2.934   7.523  10.130  0.4376 -0.3327  0.7719
  628MOL0     N84696   3.054   7.540  10.082 -0.3592  1.0072 -0.0943
  628MOL0     C84697   3.623   8.040   9.203  1.3194 -0.3344 -0.9472
  628MOL0     C84698   3.645   8.141   9.098  0.3176 -1.1354 -1.1950
  628MOL0     C84699   3.774   8.291   8.672 -0.5964 -0.2380  0.1320
  628MOL0     C84700   3.683   8.395   8.682  0.1643  0.3197  0.5034
  628MOL0     C84701   3.681   8.497   8.586  0.5221 -1.1504  1.0646
  628MOL0     C84702   3.767   8.496   8.481  0.0367 -0.7656  0.4735
  628MOL0     O84703   3.780   8.591   8.387  0.2292 -0.1058  0.0758
  628MOL0     C84704   3.685   8.703   8.368  0.2815  0.3985  0.4222
  628MOL0     C84705   3.573   8.634   8.280 -0.1239 -0.0738 -0.7667
  628MOL0     C84706   3.482   8.728   8.192 -0.1873  0.4138 -0.7786
  628MOL0     C84707   3.326   8.713   8.211  0.5942  0.0021 -0.7661
  628MOL0     C84708   3.264   8.593   8.140 -0.0126 -0.2463 -0.2488
  628MOL0     C84709   3.234   8.506   8.059  0.1469 -1.0723 -0.1977
  628MOL0     C84710   3.865   8.395   8.474  0.9305  0.3551 -0.2724
  628MOL0     C84711   3.862   8.288   8.563 -0.1914  1.2300  0.0457
  628MOL0     C84712   3.961   8.186   8.547  0.4119 -0.1456  0.1110
  628MOL0     H84713   3.641   7.928   8.823 -1.2086 -0.6350  0.5178
  628MOL0     H84714   3.604   7.770   8.993 -1.0127  0.7563 -1.2703
  628MOL0     H84715   3.728   7.672   9.362 -2.5543 -1.1533 -3.1527
  628MOL0     H84716   3.797   7.808   9.293 -1.0343  5.1668  1.0825
  628MOL0     H84717   3.682   7.962   9.463  2.1579 -0.0249 -0.3681
  628MOL0     H84718   3.769   7.847   9.544  1.6889 -1.3962 -2.0268
  628MOL0     H84719   3.550   7.700   9.508  0.8592  0.9720  0.4591
  628MOL0     H84720   3.473   7.852   9.478 -0.4957  2.9511  2.1355
  628MOL0     H84721   3.594   7.807   9.755  0.6581 -1.8559 -1.7726
  628MOL0     H84722   3.523   7.952   9.695  1.8901  0.1549  1.1265
  628MOL0     H84723   3.321   7.838   9.657 -0.6583 -1.4474 -0.3824
  628MOL0     H84724   3.393   7.681   9.698 -0.3727  1.0752 -2.1082
  628MOL0     H84725   3.441   7.753   9.928 -1.5889  1.2934  1.9901
  628MOL0     H84726   3.390   7.919   9.893 -2.8784  1.2716 -0.9575
  628MOL0     H84727   3.145   7.862   9.882 -0.5390 -1.7741 -1.4623
  628MOL0     H84728   3.227   7.812  10.026  1.4806 -1.6515 -0.1396
  628MOL0     H84729   3.169   7.613   9.788  1.7240  2.3601 -0.1781
  628MOL0     H84730   3.256   7.589   9.926  3.4973  2.7653 -3.3429
  628MOL0     H84731   2.895   7.732   9.875 -0.7201 -3.2205 -2.5695
  628MOL0     H84732   2.648   7.549  10.122  2.3564 -1.9325 -0.2185
  628MOL0     H84733   2.687   7.711  10.093  0.1763 -1.3802  3.1538
  628MOL0     H84734   2.530   7.638   9.931  0.8155 -0.0382  0.8968
  628MOL0     H84735   2.686   7.665   9.847 -0.0236  1.3680  0.6927
  628MOL0     H84736   2.603   7.383   9.923  0.4995 -1.3451 -0.2244
  628MOL0     H84737   2.748   7.435   9.825 -0.6532 -0.0052  0.4971
  628MOL0     H84738   2.590   7.524   9.657 -0.5616  2.1647  1.5614
  628MOL0     H84739   2.449   7.455   9.737 -1.3994 -1.4674 -1.2356
  628MOL0     H84740   2.350   7.418   9.538  1.8334  0.0318  0.8264
  628MOL0     H84741   2.231   7.280   9.353 -1.1996  0.3011  0.7505
  628MOL0     H84742   2.157   7.212   8.962  0.0597  0.2013 -1.2696
  628MOL0     H84743   2.017   7.119   8.778  4.2498  0.3511  0.5232
  628MOL0     H84744   1.842   7.013   8.639 -5.6179 -2.5265  0.8423
  628MOL0     H84745   2.001   6.930   8.636 -1.1322  1.6863 -2.8976
  628MOL0     H84746   1.864   6.719   8.567 -1.5272  0.0931  1.2313
  628MOL0     H84747   1.724   6.820   8.578  0.3430  0.3396  1.0007
  628MOL0     H84748   1.814   6.971   8.385  1.2428  0.2954  0.1912
  628MOL0     H84749   1.962   6.871   8.404  0.1089  1.9150  0.4550
  628MOL0     H84750   1.691   6.750   8.336 -1.4106  4.4961 -0.0462
  628MOL0     H84751   1.845   6.682   8.299 -3.7435 -1.5571  1.4785
  628MOL0     H84752   1.747   6.939   8.166  1.2108  0.6962 -2.3462
  628MOL0     H84753   1.737   6.776   8.101  1.6688 -3.1515  1.1842
  628MOL0     H84754   2.000   6.922   8.165  0.4956 -0.1887  0.3035
  628MOL0     H84755   1.993   6.749   8.130 -0.3786 -0.8402 -2.6357
  628MOL0     H84756   1.873   6.944   7.937  0.1294  0.4984 -0.4069
  628MOL0     H84757   1.878   6.771   7.940  1.1820 -1.9031  4.2360
  628MOL0     H84758   2.146   6.834   7.963 -1.8133 -1.0662  1.3714
  628MOL0     H84759   2.063   6.903   7.809 -2.0689  0.6612 -0.0684
  628MOL0     H84760   1.891   6.798   9.021 -0.0064 -0.2468 -0.4781
  628MOL0     H84761   2.030   6.888   9.219  0.4652 -0.8866 -0.6815
  628MOL0     H84762   2.483   6.948   9.417  0.5593 -1.0802  3.9606
  628MOL0     H84763   2.619   7.095   9.583  0.4253  1.1940  0.0322
  628MOL0     H84764   3.615   8.067   9.307  0.4941  1.5476 -1.4579
  628MOL0     H84765   3.629   8.246   9.119 -2.1003 -1.4777 -1.0662
  628MOL0     H84766   3.606   8.409   8.757 -1.4320  0.8507 -1.1522
  628MOL0     H84767   3.611   8.579   8.582  0.8605 -0.9024 -0.9845
  628MOL0     H84768   3.745   8.777   8.315  2.1019  0.8518  2.9212
  628MOL0     H84769   3.646   8.753   8.457 -1.5806 -1.5003  0.7636
  628MOL0     H84770   3.510   8.583   8.354  0.9484  0.7198  0.7381
  628MOL0     H84771   3.628   8.565   8.215  2.3734 -2.6807  3.6633
  628MOL0     H84772   3.501   8.721   8.085  0.7421 -2.3879 -0.5246
  628MOL0     H84773   3.508   8.829   8.224  0.4581 -0.7082  2.6829
  628MOL0     H84774   3.289   8.693   8.311 -2.5439 -1.8016 -2.1569
  628MOL0     H84775   3.271   8.801   8.176 -0.5544 -1.1709 -2.0258
  628MOL0     H84776   3.225   8.421   7.993  0.4535  0.5956 -2.5137
  628MOL0     H84777   3.943   8.401   8.399  1.2708  0.7896  0.1084
  628MOL0     H84778   3.908   8.090   8.554 -2.0152  1.1432  0.8359
  628MOL0     H84779   4.016   8.195   8.453 -4.5988  1.5930 -3.0620
  628MOL0     H84780   4.036   8.212   8.622  0.5706  3.1355 -1.0312
  629MOL0     O84781   3.180   1.592   8.448 -0.5594 -0.4976  0.7284
  629MOL0     C84782   3.232   1.483   8.428  0.0292  0.5225 -0.8601
  629MOL0     O84783   3.173   1.360   8.453  0.1625 -0.5923  0.4131
  629MOL0     C84784   3.036   1.340   8.452 -0.4318 -0.3422 -0.1399
  629MOL0     C84785   2.942   1.401   8.360 -0.2906 -0.5563 -0.2113
  629MOL0     C84786   2.812   1.358   8.354  0.0543  0.6364 -0.2558
  629MOL0     C84787   2.768   1.264   8.445  0.5103  0.0123 -0.4350
  629MOL0     O84788   2.638   1.218   8.478  0.5046 -0.2131  0.8627
  629MOL0     C84789   2.529   1.268   8.398  0.2676 -0.4746  0.4229
  629MOL0     C84790   2.413   1.180   8.386  0.9162 -0.5372 -1.3187
  629MOL0     C84791   2.299   1.231   8.285  0.0556  0.1689 -0.6150
  629MOL0     C84792   2.165   1.145   8.297  0.7552 -0.4835 -0.8081
  629MOL0     C84793   2.060   1.182   8.182  0.2479  0.2839 -0.5570
  629MOL0     C84794   2.103   1.145   8.034 -0.7862  0.2425  0.2732
  629MOL0     C84795   2.111   0.995   7.997 -0.1413 -0.0281 -0.7001
  629MOL0     C84796   1.985   0.915   8.044  0.1683  0.1448 -0.4337
  629MOL0     N84797   1.987   0.780   7.998 -0.1892  1.0934  0.2727
  629MOL0     C84798   2.079   0.698   8.055 -0.4949 -0.5735 -0.5783
  629MOL0     C84799   2.089   0.597   7.973  0.2497  0.3501  0.0206
  629MOL0     C84800   2.168   0.473   8.024 -1.2996  0.0552  0.0446
  629MOL0     C84801   2.093   0.348   7.982  0.0910  0.0096  0.0767
  629MOL0     C84802   2.168   0.224   8.043 -0.4841 -0.7567  0.8806
  629MOL0     C84803   2.111   0.093   7.994  1.3598  0.5453  0.6512
  629MOL0     O84804   1.970   0.102   8.016  0.3916  0.7057 -0.1245
  629MOL0     C84805   1.893  -0.010   8.023 -0.0007  0.5186 -0.3796
  629MOL0     C84806   1.922  -0.142   7.982 -0.7771 -0.8897  1.1131
  629MOL0     C84807   1.807  -0.233   7.972 -0.6676 -0.3372 -0.7779
  629MOL0     C84808   1.673  -0.196   8.018 -0.2233  0.3440  0.6064
  629MOL0     C84809   1.554  -0.278   8.002  0.4784  0.7017  0.2284
  629MOL0     O84810   1.434  -0.219   8.029  0.5974  0.3395  0.4271
  629MOL0     C84811   1.319  -0.297   8.053  0.3408  0.5446 -0.2406
  629MOL0     C84812   1.305  -0.366   8.173  0.4512 -0.5211  0.7444
  629MOL0     C84813   1.178  -0.425   8.203 -0.1017  0.4897  0.1517
  629MOL0     C84814   1.071  -0.426   8.118  0.5411  0.0140 -0.3221
  629MOL0     O84815   0.947  -0.464   8.155  0.0070  0.1129  1.2048
  629MOL0     C84816   0.930  -0.548   8.270 -0.5416  0.5164 -0.6060
  629MOL0     C84817   0.996  -0.690   8.259 -0.4951 -0.3006 -0.1916
  629MOL0     C84818   0.983  -0.754   8.113  0.4480  0.1426  0.4336
  629MOL0     C84819   1.052  -0.894   8.095  1.0572  0.2351  0.0603
  629MOL0     C84820   0.993  -0.972   7.969 -0.5580  0.9233  0.7274
  629MOL0     C84821   1.052  -0.912   7.841 -0.3599  0.9494  0.1723
  629MOL0     C84822   1.000  -0.976   7.714  0.2589  0.6693 -0.4657
  629MOL0     C84823   1.064  -1.110   7.684  0.1901 -0.8312 -0.5335
  629MOL0    Cl84824   0.946  -1.229   7.605 -0.2258 -0.0295  0.1108
  629MOL0     C84825   1.083  -0.337   8.002 -0.0227  0.3405 -0.7312
  629MOL0     C84826   1.210  -0.281   7.968  0.5901 -0.4534  0.2487
  629MOL0     O84827   1.570  -0.388   7.956 -0.0114  0.1299 -0.4881
  629MOL0     C84828   1.663  -0.074   8.085  0.4753 -0.1198  0.9256
  629MOL0     C84829   1.764   0.021   8.073  0.2788 -0.8926 -0.0226
  629MOL0     N84830   2.023   0.626   7.851 -0.1390 -0.6724  1.0043
  629MOL0     N84831   1.970   0.745   7.869 -0.1076  0.5794  0.5505
  629MOL0     C84832   2.858   1.205   8.529  0.9875  0.5350 -0.4462
  629MOL0     C84833   2.992   1.236   8.536  0.3720  0.1721  0.3974
  629MOL0     C84834   3.370   1.489   8.370  0.7979 -0.5939  0.4560
  629MOL0     C84835   3.423   1.604   8.320  0.7395  1.1805  0.0653
  629MOL0     C84836   3.554   1.615   8.300 -0.7809 -0.6555  0.7850
  629MOL0     C84837   3.648   1.516   8.320  0.5015  0.7264 -0.0317
  629MOL0     O84838   3.782   1.522   8.306  0.4787  0.8840 -0.1682
  629MOL0     C84839   3.823   1.625   8.219 -0.0731  0.3071 -0.1064
  629MOL0     C84840   3.947   1.593   8.135 -0.1773 -0.3138  0.7884
  629MOL0     C84841   3.977   1.708   8.031  0.3449  0.3017 -0.0339
  629MOL0     C84842   3.890   1.716   7.903  0.0916  0.1404 -0.3017
  629MOL0     C84843   3.864   1.592   7.837  0.4623  0.3822  0.5424
  629MOL0     C84844   3.841   1.482   7.795 -0.6502  0.2615 -0.2619
  629MOL0     C84845   3.597   1.401   8.380  0.0329  0.0248  0.2624
  629MOL0     C84846   3.457   1.379   8.403 -0.6067 -0.0119  0.3669
  629MOL0     C84847   3.425   1.246   8.459  1.1922  0.5313 -0.6582
  629MOL0     H84848   2.977   1.475   8.289  1.4961  0.2598  1.4264
  629MOL0     H84849   2.742   1.404   8.285 -2.0965  0.2434  1.5686
  629MOL0     H84850   2.507   1.365   8.443 -0.1153  0.4245 -1.5947
  629MOL0     H84851   2.551   1.273   8.291  2.9820 -0.0463  0.9360
  629MOL0     H84852   2.364   1.176   8.484 -0.4204  1.0272 -1.8765
  629MOL0     H84853   2.428   1.074   8.363 -1.8325 -1.5342  0.8370
  629MOL0     H84854   2.341   1.232   8.184 -1.5581 -1.1510 -1.3567
  629MOL0     H84855   2.275   1.333   8.315  0.1226  0.4475 -1.4684
  629MOL0     H84856   2.178   1.037   8.284  0.1392 -1.1373  2.8817
  629MOL0     H84857   2.125   1.150   8.398  1.8812  0.1063 -0.3694
  629MOL0     H84858   1.969   1.132   8.215  0.2765  2.4604  3.3352
  629MOL0     H84859   2.036   1.288   8.178  0.7579  0.4108 -0.3136
  629MOL0     H84860   2.031   1.195   7.967 -0.5631 -0.4828 -0.5219
  629MOL0     H84861   2.206   1.180   8.020  0.8104 -4.1794 -0.8606
  629MOL0     H84862   2.194   0.940   8.043  0.4923 -0.5461 -2.4035
  629MOL0     H84863   2.122   0.973   7.891  0.4472  3.1437 -1.3994
  629MOL0     H84864   1.971   0.912   8.152 -0.2038 -0.7914 -0.5039
  629MOL0     H84865   1.906   0.981   8.006  0.4218  0.9051  0.3329
  629MOL0     H84866   2.128   0.714   8.151  2.2790 -0.2505 -1.9460
  629MOL0     H84867   2.268   0.485   7.980  0.2645  0.4393  3.3805
  629MOL0     H84868   2.184   0.480   8.132 -1.1922 -0.3933  0.0622
  629MOL0     H84869   1.986   0.351   8.005 -0.3857  0.7397 -1.9422
  629MOL0     H84870   2.085   0.327   7.874 -1.6541 -1.4576  0.4426
  629MOL0     H84871   2.175   0.233   8.152 -0.5406  2.9360  0.6962
  629MOL0     H84872   2.276   0.226   8.023 -0.4987  2.1582  0.6905
  629MOL0     H84873   2.154   0.005   8.041 -0.4990 -0.3262  0.8080
  629MOL0     H84874   2.118   0.082   7.885  1.0773  0.5763  0.6298
  629MOL0     H84875   2.021  -0.180   7.955 -0.8075 -0.6801  0.7088
  629MOL0     H84876   1.824  -0.336   7.944  0.4654 -0.5440  0.5696
  629MOL0     H84877   1.394  -0.399   8.225 -0.5296 -0.3438  2.6302
  629MOL0     H84878   1.172  -0.485   8.294  0.6411 -2.0451 -1.3777
  629MOL0     H84879   0.961  -0.488   8.357  1.2898  0.5318 -1.2244
  629MOL0     H84880   0.827  -0.580   8.289 -0.1635 -1.0506 -1.0485
  629MOL0     H84881   1.102  -0.675   8.282 -1.6687  2.1237  5.1977
  629MOL0     H84882   0.959  -0.756   8.338 -2.6314  1.7653  0.6349
  629MOL0     H84883   0.876  -0.757   8.093  0.2582  0.9701  1.2344
  629MOL0     H84884   1.020  -0.692   8.032 -2.2010  0.0055 -1.0044
  629MOL0     H84885   1.026  -0.959   8.179  2.7048 -1.4632 -0.6453
  629MOL0     H84886   1.159  -0.878   8.080  0.9933  0.2986 -0.3316
  629MOL0     H84887   0.885  -0.984   7.958 -0.2305  0.5259 -4.2881
  629MOL0     H84888   1.035  -1.073   7.974 -1.0511  0.4343 -2.5761
  629MOL0     H84889   1.034  -0.804   7.847  2.0009  1.3459  1.7056
  629MOL0     H84890   1.160  -0.926   7.850  0.1889  3.0208 -2.0088
  629MOL0     H84891   1.024  -0.903   7.636 -1.6993 -1.8695 -3.6954
  629MOL0     H84892   0.893  -0.994   7.723  0.3946 -0.5769 -1.1783
  629MOL0     H84893   1.146  -1.095   7.614  1.6954 -2.3110  0.8306
  629MOL0     H84894   1.108  -1.150   7.776  0.2369 -0.6310 -0.4689
  629MOL0     H84895   0.993  -0.313   7.946 -0.5492 -1.2364 -0.5991
  629MOL0     H84896   1.224  -0.223   7.877  0.6031  0.8672  1.0671
  629MOL0     H84897   1.572  -0.036   8.129  0.5409 -0.6117  1.5056
  629MOL0     H84898   1.740   0.122   8.105 -0.4167 -1.2093  0.4809
  629MOL0     H84899   2.820   1.124   8.590 -1.8731  2.8145  1.0833
  629MOL0     H84900   3.052   1.171   8.599  3.2544 -0.4911 -2.7641
  629MOL0     H84901   3.361   1.688   8.291  2.0460  1.2477 -2.8599
  629MOL0     H84902   3.583   1.713   8.263 -0.7903 -0.4635  1.2830
  629MOL0     H84903   3.834   1.717   8.277 -1.8581 -0.6497  1.8910
  629MOL0     H84904   3.746   1.644   8.143  2.4235  1.9873 -2.4092
  629MOL0     H84905   3.937   1.498   8.081  0.2076 -0.9752  1.8496
  629MOL0     H84906   4.033   1.594   8.203  0.9500  0.9234 -0.5648
  629MOL0     H84907   4.077   1.686   7.994  0.5769  0.2674  0.6076
  629MOL0     H84908   3.984   1.805   8.081  0.7528 -0.1663  0.8416
  629MOL0     H84909   3.802   1.772   7.935 -1.4125 -3.5864  2.9006
  629MOL0     H84910   3.943   1.774   7.827  0.8235 -1.1607 -0.8084
  629MOL0     H84911   3.792   1.394   7.759  0.9903 -0.0402 -1.9052
  629MOL0     H84912   3.669   1.323   8.405 -1.3858 -0.6269  2.6869
  629MOL0     H84913   3.514   1.186   8.483  2.5171  1.7579 -2.2457
  629MOL0     H84914   3.374   1.258   8.555 -0.2528  0.1327 -1.3466
  629MOL0     H84915   3.375   1.184   8.384  0.9575  2.9780 -2.6637
  630MOL0     O84916   2.274   5.150  10.439 -0.3266  0.0513 -0.1417
  630MOL0     C84917   2.179   5.158  10.360  0.3101  0.7358 -0.0859
  630MOL0     O84918   2.160   5.066  10.253 -0.4321  0.5601 -0.5192
  630MOL0     C84919   2.272   4.984  10.236 -0.0897 -0.8695 -0.6563
  630MOL0     C84920   2.400   5.032  10.199  0.7196  0.5323 -0.3511
  630MOL0     C84921   2.508   4.938  10.185 -0.7031 -0.5331  0.1977
  630MOL0     C84922   2.493   4.802  10.208  0.2077 -0.5336  0.1963
  630MOL0     O84923   2.605   4.728  10.203 -0.6977 -0.1386  0.5892
  630MOL0     C84924   2.636   4.634  10.307 -0.5720  0.9270  0.6036
  630MOL0     C84925   2.784   4.576  10.295  0.0459  0.2027 -0.7916
  630MOL0     C84926   2.895   4.671  10.349  0.7322 -0.3241 -0.9387
  630MOL0     C84927   2.885   4.817  10.299  0.1213  0.5002  0.9928
  630MOL0     C84928   3.002   4.891  10.371 -0.4965  1.0674  0.0405
  630MOL0     C84929   3.003   5.040  10.333  0.3060 -0.5012  0.1936
  630MOL0     C84930   3.093   5.129  10.414 -1.2088  0.5562  0.6419
  630MOL0     C84931   3.154   5.256  10.343 -0.6956 -1.1547 -0.0508
  630MOL0     N84932   3.261   5.323  10.421 -0.5044  0.4533  0.5238
  630MOL0     C84933   3.393   5.279  10.441 -0.7373  0.9180  0.2849
  630MOL0     C84934   3.441   5.385  10.509  0.1171 -0.2287 -0.7673
  630MOL0     C84935   3.565   5.368  10.598 -0.7888  0.0794 -0.1576
  630MOL0     C84936   3.652   5.489  10.596  0.0206 -0.1688  0.0974
  630MOL0     C84937   3.780   5.472  10.684  0.2198  0.1424  0.0608
  630MOL0     C84938   3.763   5.523  10.824 -0.3841 -0.3890 -0.0443
  630MOL0     O84939   3.888   5.528  10.892 -0.5599 -0.6806 -0.5957
  630MOL0     C84940   3.952   5.648  10.928 -0.1522 -0.1292  0.7950
  630MOL0     C84941   4.087   5.664  10.903 -0.2539  0.6446  0.0778
  630MOL0     C84942   4.138   5.793  10.924  0.1438  0.6086 -0.4954
  630MOL0     C84943   4.073   5.886  11.003  0.7933 -0.0236  0.0301
  630MOL0     C84944   4.130   6.015  11.041  0.5986  0.2758  0.3841
  630MOL0     O84945   4.267   6.018  11.004  0.2173  0.1005 -0.2211
  630MOL0     C84946   4.332   6.125  11.055  0.0068  0.4131  0.8160
  630MOL0     C84947   4.409   6.208  10.963 -0.1808  0.2395  1.0798
  630MOL0     C84948   4.473   6.317  11.009  0.6400 -0.0453  0.4386
  630MOL0     C84949   4.475   6.352  11.143 -0.2157  0.4847 -0.4845
  630MOL0     O84950   4.541   6.460  11.191 -0.0224 -0.3342  0.0395
  630MOL0     C84951   4.547   6.576  11.100 -0.1239  1.0033  0.3993
  630MOL0     C84952   4.576   6.702  11.167 -0.4014 -0.2868 -0.0981
  630MOL0     C84953   4.488   6.718  11.298  0.2836 -0.8705 -0.0944
  630MOL0     C84954   4.526   6.845  11.377  0.6615  0.0202  0.7722
  630MOL0     C84955   4.430   6.867  11.505 -0.2844  0.5574  0.2530
  630MOL0     C84956   4.490   6.960  11.610  0.0879  0.7482 -0.1342
  630MOL0     C84957   4.508   7.105  11.563  0.3945 -0.1664  0.6624
  630MOL0     C84958   4.371   7.183  11.569 -0.4056 -1.1294 -0.6576
  630MOL0    Cl84959   4.405   7.368  11.552  0.0202 -0.3576  0.4696
  630MOL0     C84960   4.410   6.263  11.236 -0.6354  0.4618  0.4148
  630MOL0     C84961   4.339   6.145  11.189 -0.2270 -0.1101  0.7268
  630MOL0     O84962   4.068   6.108  11.091  0.6274  0.1341 -0.7519
  630MOL0     C84963   3.931   5.868  11.013  0.1193  0.0820  0.3696
  630MOL0     C84964   3.873   5.750  10.981 -0.8477  0.9865 -0.3551
  630MOL0     N84965   3.343   5.476  10.535 -0.0977  0.4275 -0.3773
  630MOL0     N84966   3.238   5.432  10.488  0.1672  0.0745 -0.7298
  630MOL0     C84967   2.372   4.762  10.256  0.5406 -0.7018  1.1399
  630MOL0     C84968   2.259   4.846  10.260  0.8451  0.1454 -0.5794
  630MOL0     C84969   2.079   5.266  10.381  0.1577 -0.0892 -0.2059
  630MOL0     C84970   1.951   5.227  10.414  0.8157  0.1726 -1.1653
  630MOL0     C84971   1.842   5.314  10.430  0.0346  0.6855  0.4188
  630MOL0     C84972   1.865   5.453  10.423  0.5904 -1.2749  0.3878
  630MOL0     O84973   1.767   5.550  10.443  0.0731  0.0123 -0.1143
  630MOL0     C84974   1.703   5.540  10.571  0.7310 -0.6456  0.1117
  630MOL0     C84975   1.771   5.633  10.669  0.5738  1.7109  1.5728
  630MOL0     C84976   1.813   5.772  10.613  0.2025 -0.2742 -0.1239
  630MOL0     C84977   1.698   5.876  10.593 -0.0938  0.0171 -0.2396
  630MOL0     C84978   1.641   5.915  10.724 -0.0405 -0.4005 -0.1593
  630MOL0     C84979   1.595   5.952  10.831  0.4217 -0.1026  0.4017
  630MOL0     C84980   1.996   5.495  10.390 -0.8045  0.0322  0.3313
  630MOL0     C84981   2.104   5.403  10.368 -0.1807 -0.3790 -0.0160
  630MOL0     C84982   2.241   5.453  10.328  1.1213 -0.0250  0.0138
  630MOL0     H84983   2.394   5.134  10.160 -3.4574  0.8579  0.6437
  630MOL0     H84984   2.600   4.979  10.146 -1.5712  0.8459 -0.4785
  630MOL0     H84985   2.609   4.680  10.402  0.4094  1.9169  0.4185
  630MOL0     H84986   2.566   4.549  10.302  0.0517  0.4437 -0.1002
  630MOL0     H84987   2.807   4.557  10.190  0.4426  1.6205 -0.9914
  630MOL0     H84988   2.793   4.487  10.357  1.9482  1.4557  0.8689
  630MOL0     H84989   2.992   4.628  10.320  0.3760 -2.1013  0.2999
  630MOL0     H84990   2.876   4.673  10.457 -2.2168  2.6613 -1.3471
  630MOL0     H84991   2.898   4.826  10.191 -2.5524 -2.9987  0.2143
  630MOL0     H84992   2.782   4.852  10.313 -1.6433 -3.2535 -1.3213
  630MOL0     H84993   2.995   4.866  10.477 -3.7701 -0.5052 -0.4162
  630MOL0     H84994   3.091   4.838  10.336 -0.6236  1.5676 -1.1090
  630MOL0     H84995   3.037   5.039  10.229 -0.2705 -1.7284 -0.0121
  630MOL0     H84996   2.898   5.066  10.346 -0.3825 -1.8177 -2.1555
  630MOL0     H84997   3.183   5.070  10.435 -1.1243  0.0796 -0.9300
  630MOL0     H84998   3.049   5.167  10.507 -0.9690 -1.9731  1.8837
  630MOL0     H84999   3.190   5.235  10.242  0.6559 -1.1919  0.4266
  630MOL0     H85000   3.078   5.334  10.350 -0.1747 -0.8172  4.2619
  630MOL0     H85001   3.443   5.184  10.425  0.2260  1.1405  1.7821
  630MOL0     H85002   3.540   5.339  10.701  2.2344  0.5654  0.8060
  630MOL0     H85003   3.627   5.282  10.572  1.3301  0.5533  2.7696
  630MOL0     H85004   3.681   5.511  10.493 -4.1512  4.0082 -0.5548
  630MOL0     H85005   3.594   5.581  10.608  1.9852  1.6218 -2.8580
  630MOL0     H85006   3.862   5.529  10.640  1.3272 -0.8785  0.7427
  630MOL0     H85007   3.801   5.365  10.688 -2.1875 -0.4173 -0.3375
  630MOL0     H85008   3.709   5.449  10.883 -0.4219 -0.9267 -0.7399
  630MOL0     H85009   3.711   5.619  10.813 -3.1532 -1.8662 -0.6717
  630MOL0     H85010   4.145   5.583  10.860  1.0208  0.9408  1.1618
  630MOL0     H85011   4.241   5.801  10.890  0.6454 -0.2297  0.7266
  630MOL0     H85012   4.427   6.178  10.861 -0.2089 -1.4954  1.5600
  630MOL0     H85013   4.515   6.380  10.931 -0.7516  0.0912 -0.2494
  630MOL0     H85014   4.621   6.564  11.019 -0.9059  4.4959 -1.0272
  630MOL0     H85015   4.451   6.583  11.048  0.9342  0.4315 -1.7674
  630MOL0     H85016   4.684   6.706  11.185 -0.2948 -3.5696  0.7833
  630MOL0     H85017   4.562   6.787  11.100 -0.1466 -1.5481 -1.8335
  630MOL0     H85018   4.381   6.712  11.274 -0.3630  1.1259  1.9344
  630MOL0     H85019   4.504   6.637  11.370  0.0798  0.0130  0.9644
  630MOL0     H85020   4.507   6.930  11.312  0.9790 -1.2000 -1.0049
  630MOL0     H85021   4.630   6.853  11.411  0.7133  1.6077  0.3068
  630MOL0     H85022   4.403   6.770  11.546  0.1203 -0.7046 -2.2502
  630MOL0     H85023   4.336   6.907  11.466 -0.9575 -1.1080  0.0743
  630MOL0     H85024   4.426   6.951  11.699  0.0202 -0.5237 -0.2817
  630MOL0     H85025   4.584   6.914  11.641  0.0536  0.4000 -0.5283
  630MOL0     H85026   4.547   7.096  11.461  0.6817  1.1855  0.6237
  630MOL0     H85027   4.586   7.156  11.619 -0.6434  1.0504  1.0496
  630MOL0     H85028   4.311   7.156  11.481 -2.3951 -1.3233  0.6904
  630MOL0     H85029   4.323   7.165  11.666  1.0043  0.2703  0.3490
  630MOL0     H85030   4.425   6.282  11.342  0.0970  4.0688 -0.1986
  630MOL0     H85031   4.287   6.081  11.260 -1.2495  0.8629  0.8962
  630MOL0     H85032   3.880   5.955  11.052 -0.8270 -0.3655  0.1634
  630MOL0     H85033   3.772   5.715  10.999  0.0479 -1.1314  0.9844
  630MOL0     H85034   2.337   4.663  10.284 -2.6750  0.6522  2.3297
  630MOL0     H85035   2.166   4.791  10.254  1.8574 -1.5293 -2.0234
  630MOL0     H85036   1.948   5.122  10.441  3.3815  0.5187  0.8140
  630MOL0     H85037   1.740   5.293  10.461 -0.1128 -4.3619 -2.4692
  630MOL0     H85038   1.702   5.434  10.596 -0.5548 -1.5830 -3.3217
  630MOL0     H85039   1.602   5.579  10.556  0.9578  0.7020  1.7253
  630MOL0     H85040   1.858   5.573  10.697  0.0415 -0.3610 -0.7966
  630MOL0     H85041   1.696   5.634  10.749  0.7365  0.5149  1.7578
  630MOL0     H85042   1.875   5.766  10.523  1.5447  0.0044  0.7547
  630MOL0     H85043   1.885   5.813  10.685 -0.8884 -0.0356  0.8669
  630MOL0     H85044   1.737   5.963  10.539 -2.1306  3.1683  2.8791
  630MOL0     H85045   1.622   5.824  10.535 -0.1223  0.3956 -0.5472
  630MOL0     H85046   1.583   5.994  10.929  1.0333  0.4402  0.2510
  630MOL0     H85047   2.026   5.599  10.384 -0.8566  0.1131  1.3552
  630MOL0     H85048   2.295   5.497  10.412  0.7849  1.2666 -0.4132
  630MOL0     H85049   2.307   5.381  10.279  1.4053 -0.0414  0.4136
  630MOL0     H85050   2.220   5.525  10.248 -2.1833 -0.5038  0.3096
  631MOL0     O85051   4.015   0.677   8.085 -0.0551  0.2223 -0.1138
  631MOL0     C85052   3.967   0.788   8.070 -0.1005  0.7421 -0.2076
  631MOL0     O85053   3.869   0.825   7.972  0.0965  0.7948 -0.4502
  631MOL0     C85054   3.849   0.739   7.866  0.1324  0.0562 -0.3889
  631MOL0     C85055   3.721   0.749   7.814  1.1916  0.4595  0.6694
  631MOL0     C85056   3.689   0.680   7.695 -0.3764 -0.0189  0.8122
  631MOL0     C85057   3.789   0.612   7.612 -0.5780 -0.8376 -0.8614
  631MOL0     O85058   3.774   0.565   7.481 -0.7211  0.2017  0.2925
  631MOL0     C85059   3.647   0.569   7.415 -0.1821  0.0393  0.1118
  631MOL0     C85060   3.688   0.549   7.256  0.8968 -0.6859  0.1126
  631MOL0     C85061   3.560   0.550   7.173 -0.1122  0.4174 -0.0882
  631MOL0     C85062   3.588   0.550   7.019  0.7165 -0.0151 -0.0896
  631MOL0     C85063   3.458   0.540   6.938  0.6890  0.1854 -0.7352
  631MOL0     C85064   3.415   0.398   6.892 -0.1155  0.3709 -0.6663
  631MOL0     C85065   3.363   0.303   7.000  0.1289  0.4473 -0.2470
  631MOL0     C85066   3.271   0.199   6.948 -0.3430  0.3922 -0.6704
  631MOL0     N85067   3.144   0.258   6.912  0.1222 -0.4809 -0.3129
  631MOL0     C85068   3.097   0.234   6.786 -0.5823  0.3015  0.5145
  631MOL0     C85069   2.961   0.261   6.793 -0.6013  0.5605 -0.3558
  631MOL0     C85070   2.863   0.250   6.679 -0.7451 -0.4515 -0.7367
  631MOL0     C85071   2.841   0.107   6.615  0.6180 -0.4977 -0.4912
  631MOL0     C85072   2.727   0.119   6.506 -0.4708  0.2134 -0.3806
  631MOL0     C85073   2.738   0.003   6.411 -0.0546 -0.0998  0.2578
  631MOL0     O85074   2.636  -0.093   6.439  0.2431  0.0070  0.6999
  631MOL0     C85075   2.614  -0.204   6.356 -0.2932 -0.6408  0.7124
  631MOL0     C85076   2.700  -0.220   6.245 -0.5199  0.1735  0.8391
  631MOL0     C85077   2.685  -0.335   6.161  0.9278 -1.1919  0.1247
  631MOL0     C85078   2.584  -0.429   6.193 -0.5519  0.1586  0.0423
  631MOL0     C85079   2.560  -0.551   6.106 -0.5240  1.0428  0.1830
  631MOL0     O85080   2.666  -0.572   6.016  0.7992  0.8530  0.0956
  631MOL0     C85081   2.674  -0.689   5.946 -0.2265  0.2213  0.4207
  631MOL0     C85082   2.809  -0.729   5.908  0.1613  0.5906  0.2563
  631MOL0     C85083   2.838  -0.846   5.842  0.8124  0.3104  0.8711
  631MOL0     C85084   2.731  -0.934   5.807  1.3440 -0.2518 -0.3918
  631MOL0     O85085   2.776  -1.049   5.747 -0.1612 -0.1085  0.8982
  631MOL0     C85086   2.727  -1.179   5.785 -0.5059  0.5617 -0.5079
  631MOL0     C85087   2.840  -1.281   5.753 -0.0070 -0.4902  0.3083
  631MOL0     C85088   2.772  -1.406   5.708  0.0932  0.1450  0.1302
  631MOL0     C85089   2.869  -1.526   5.688  0.1050 -0.3881  0.1663
  631MOL0     C85090   2.902  -1.524   5.539 -0.2265  0.1018  0.5427
  631MOL0     C85091   3.017  -1.614   5.517  0.6761  0.7217  1.0424
  631MOL0     C85092   3.052  -1.644   5.362 -0.7292 -0.4629  0.2098
  631MOL0     C85093   3.112  -1.524   5.298  0.2517  0.1303 -0.1689
  631MOL0    Cl85094   3.095  -1.523   5.114 -0.2396 -0.6017 -0.0122
  631MOL0     C85095   2.596  -0.896   5.842 -0.5151  0.6991  0.3145
  631MOL0     C85096   2.568  -0.767   5.904  0.5309  1.1361 -0.0586
  631MOL0     O85097   2.456  -0.615   6.123  0.4184  0.8062  0.2284
  631MOL0     C85098   2.497  -0.402   6.299  0.0395 -0.0858 -0.4149
  631MOL0     C85099   2.509  -0.289   6.380  0.1238 -0.3762 -0.4148
  631MOL0     N85100   2.922   0.294   6.917 -0.8821  0.5859  0.8022
  631MOL0     N85101   3.033   0.298   6.979 -0.2099  0.7603  0.5161
  631MOL0     C85102   3.923   0.607   7.675  0.0826 -0.3269  0.0561
  631MOL0     C85103   3.945   0.671   7.796 -0.5573  0.0562 -0.5099
  631MOL0     C85104   3.998   0.905   8.154 -0.0970  0.3234 -0.2623
  631MOL0     C85105   4.028   1.015   8.092 -0.7859 -0.6943  0.2969
  631MOL0     C85106   4.048   1.137   8.162  0.7996 -0.4486 -0.3997
  631MOL0     C85107   4.054   1.141   8.299  0.4068 -0.2657  0.3832
  631MOL0     O85108   4.081   1.262   8.357 -0.0007 -0.7736  0.3400
  631MOL0     C85109   4.035   1.273   8.493  0.5012  0.0967  0.2544
  631MOL0     C85110   4.063   1.401   8.564  0.1785  0.7941 -0.3162
  631MOL0     C85111   4.199   1.452   8.527 -0.4223  0.0206 -0.1480
  631MOL0     C85112   4.314   1.348   8.557 -0.0149  0.2867 -0.4911
  631MOL0     C85113   4.437   1.394   8.504 -0.6511 -0.1566  0.4682
  631MOL0     C85114   4.552   1.422   8.472  0.0193  0.3464 -0.5264
  631MOL0     C85115   4.038   1.021   8.368  0.2569  0.6451 -0.0231
  631MOL0     C85116   3.997   0.903   8.296 -0.5228  0.1888 -0.3239
  631MOL0     C85117   3.980   0.776   8.374  0.6977  1.0473  0.0489
  631MOL0     H85118   3.634   0.789   7.865  0.3472 -1.0971  0.5085
  631MOL0     H85119   3.583   0.681   7.670 -0.1669  3.5884 -0.4977
  631MOL0     H85120   3.574   0.499   7.454  1.7548 -0.9438  2.1828
  631MOL0     H85121   3.610   0.672   7.415  5.0594  2.2883 -0.4111
  631MOL0     H85122   3.744   0.457   7.239  0.8543 -0.1610 -3.6954
  631MOL0     H85123   3.740   0.638   7.220 -3.4457  3.1005  2.0683
  631MOL0     H85124   3.511   0.643   7.204  2.8737  1.4820  1.9399
  631MOL0     H85125   3.493   0.467   7.198 -1.6482  0.6107 -3.0952
  631MOL0     H85126   3.642   0.642   6.995  0.6352  0.1062  0.1882
  631MOL0     H85127   3.656   0.467   6.998 -2.8055 -2.7891 -1.7429
  631MOL0     H85128   3.375   0.595   6.983 -0.3328 -0.4733 -1.7538
  631MOL0     H85129   3.474   0.604   6.851 -2.8124  0.2020 -1.5267
  631MOL0     H85130   3.340   0.413   6.814  0.1405  0.5072 -0.8863
  631MOL0     H85131   3.499   0.353   6.838  0.0715  0.9906 -0.8999
  631MOL0     H85132   3.309   0.363   7.074 -0.5350  0.6819 -0.9069
  631MOL0     H85133   3.450   0.265   7.053  1.1124  1.5830 -0.9820
  631MOL0     H85134   3.322   0.150   6.865  0.7618 -0.5077  0.4883
  631MOL0     H85135   3.253   0.122   7.024  1.2730  1.0016  0.3967
  631MOL0     H85136   3.155   0.202   6.700 -1.8294 -0.5662 -0.0233
  631MOL0     H85137   2.769   0.294   6.713 -0.5027  0.9234 -1.7921
  631MOL0     H85138   2.903   0.316   6.602 -0.2640 -0.6331 -0.6500
  631MOL0     H85139   2.931   0.070   6.566 -0.1079 -1.9806 -0.7786
  631MOL0     H85140   2.813   0.039   6.696 -2.0859  1.1870  0.1208
  631MOL0     H85141   2.756   0.205   6.445  2.5696 -1.1960 -1.0990
  631MOL0     H85142   2.626   0.116   6.547  0.2268 -2.0851  1.3759
  631MOL0     H85143   2.836  -0.044   6.406  1.0263  2.0570 -0.1967
  631MOL0     H85144   2.722   0.047   6.312  3.9270 -2.0272 -1.4889
  631MOL0     H85145   2.793  -0.169   6.225  0.6715 -3.2864 -4.3238
  631MOL0     H85146   2.734  -0.354   6.066 -1.6679  2.6201 -2.2401
  631MOL0     H85147   2.891  -0.664   5.935  1.5425 -1.1012  0.3387
  631MOL0     H85148   2.937  -0.868   5.803  0.1998 -0.5159 -0.2881
  631MOL0     H85149   2.681  -1.190   5.883 -0.1298 -1.9700 -0.5280
  631MOL0     H85150   2.643  -1.206   5.719 -1.0412 -2.5595  1.2670
  631MOL0     H85151   2.900  -1.243   5.670  1.1631 -1.1360  0.8449
  631MOL0     H85152   2.898  -1.298   5.844 -0.4374  0.8349  0.8561
  631MOL0     H85153   2.695  -1.430   5.782  0.4284  2.9491  1.5090
  631MOL0     H85154   2.715  -1.390   5.616 -0.0049  1.2786  0.3675
  631MOL0     H85155   2.821  -1.618   5.722 -1.2863  0.1594 -0.2126
  631MOL0     H85156   2.956  -1.516   5.754 -0.4101 -1.8461  1.1203
  631MOL0     H85157   2.940  -1.426   5.509  3.0602 -0.0776  3.5297
  631MOL0     H85158   2.822  -1.550   5.469  1.4001 -0.3361 -1.2598
  631MOL0     H85159   3.095  -1.575   5.584  0.0286  0.9720  1.6517
  631MOL0     H85160   2.989  -1.713   5.552 -0.5184 -0.3019 -2.3873
  631MOL0     H85161   2.952  -1.666   5.322 -0.3189  0.1660 -1.1999
  631MOL0     H85162   3.120  -1.723   5.329 -0.5927  0.2871 -1.3907
  631MOL0     H85163   3.070  -1.432   5.340  0.1702 -0.1857  0.4395
  631MOL0     H85164   3.218  -1.530   5.326  0.1501 -1.2045 -0.0166
  631MOL0     H85165   2.523  -0.964   5.799  2.3109 -0.1905 -3.6413
  631MOL0     H85166   2.462  -0.744   5.915 -0.2717 -1.2079 -1.8069
  631MOL0     H85167   2.429  -0.480   6.330 -0.0537  1.2980  3.2854
  631MOL0     H85168   2.455  -0.269   6.472  1.7969 -1.4089  0.8567
  631MOL0     H85169   4.011   0.562   7.630  1.4843  0.8881  1.4793
  631MOL0     H85170   4.042   0.677   7.844 -1.2099  0.7334  0.7832
  631MOL0     H85171   4.030   1.019   7.983 -0.3941 -2.1894  0.2256
  631MOL0     H85172   4.048   1.234   8.113  0.2072  0.1342  0.7013
  631MOL0     H85173   4.077   1.194   8.556  3.0083  0.0426 -1.3734
  631MOL0     H85174   3.926   1.261   8.498  0.5961 -0.5612  1.0866
  631MOL0     H85175   4.054   1.386   8.672  2.4260  0.5698 -0.1167
  631MOL0     H85176   3.990   1.470   8.521 -2.9310 -2.3206 -0.4601
  631MOL0     H85177   4.217   1.541   8.588 -0.8818  0.9756 -1.3399
  631MOL0     H85178   4.195   1.483   8.422 -3.0224  2.1925  0.4663
  631MOL0     H85179   4.312   1.329   8.664 -1.0142  0.3677 -0.4847
  631MOL0     H85180   4.296   1.248   8.517  0.4671  0.4610 -1.1718
  631MOL0     H85181   4.650   1.454   8.445  0.5545 -1.1542 -0.4571
  631MOL0     H85182   4.067   1.010   8.472  3.9504  1.2916 -0.8423
  631MOL0     H85183   3.875   0.752   8.355  0.5576  2.1029 -0.5981
  631MOL0     H85184   4.034   0.693   8.327 -3.9820 -3.1207  1.2563
  631MOL0     H85185   4.007   0.782   8.479 -0.8050  2.9543  0.3857
  632MOL0     O85186   5.847   2.659   8.222 -0.5589  0.0873 -0.3504
  632MOL0     C85187   5.954   2.700   8.173 -0.3836 -0.9232 -0.1794
  632MOL0     O85188   6.063   2.622   8.156  0.6476 -0.2309  0.5032
  632MOL0     C85189   6.066   2.484   8.162  0.8484  1.1756  0.0390
  632MOL0     C85190   6.022   2.422   8.278  1.0736  0.8336 -1.2034
  632MOL0     C85191   6.033   2.284   8.294 -0.2158 -0.1931  0.5225
  632MOL0     C85192   6.092   2.207   8.189  0.1623  0.3064  0.4166
  632MOL0     O85193   6.113   2.070   8.185  0.2761 -0.3335 -0.7426
  632MOL0     C85194   6.009   1.988   8.244 -0.1705 -0.5568 -0.6053
  632MOL0     C85195   6.048   1.837   8.234 -0.1566 -0.0532  0.0647
  632MOL0     C85196   5.993   1.780   8.111 -0.1984 -0.2026  0.8605
  632MOL0     C85197   5.851   1.739   8.132  0.1716  0.6903 -0.0508
  632MOL0     C85198   5.817   1.659   8.007 -0.6545  0.0514  0.0263
  632MOL0     C85199   5.672   1.662   7.979  0.0949 -0.2405 -1.3821
  632MOL0     C85200   5.589   1.588   8.077 -0.0616  0.8209 -0.4028
  632MOL0     C85201   5.596   1.437   8.036 -0.2227 -1.3450 -0.1412
  632MOL0     N85202   5.498   1.361   8.118 -0.5632  0.1049  0.1330
  632MOL0     C85203   5.365   1.345   8.077  0.2251 -0.2849  0.3843
  632MOL0     C85204   5.320   1.257   8.167 -0.0958 -0.2675  0.0201
  632MOL0     C85205   5.182   1.191   8.149 -0.4520 -0.4497 -0.0589
  632MOL0     C85206   5.190   1.041   8.193  0.7145  0.9107 -0.4425
  632MOL0     C85207   5.052   0.970   8.206  0.4582  0.4949 -0.5725
  632MOL0     C85208   4.977   0.929   8.083  0.2818 -1.3042  0.3938
  632MOL0     O85209   4.850   0.874   8.128 -0.4336  0.6908  0.1491
  632MOL0     C85210   4.849   0.741   8.180 -0.3331  0.7815  0.1440
  632MOL0     C85211   4.735   0.700   8.248  0.3470  0.7391  0.0635
  632MOL0     C85212   4.742   0.596   8.339  1.3347 -0.6947  1.1582
  632MOL0     C85213   4.849   0.520   8.357 -0.8184  0.8422 -0.7225
  632MOL0     C85214   4.858   0.432   8.468  0.3182  0.7309 -0.0791
  632MOL0     O85215   4.946   0.338   8.450  0.9158  0.1856 -0.7818
  632MOL0     C85216   4.969   0.225   8.533  0.9174  0.6442 -0.4257
  632MOL0     C85217   5.080   0.136   8.506  0.8688 -0.5606  0.2380
  632MOL0     C85218   5.087   0.025   8.591 -0.2926  0.9043 -0.3910
  632MOL0     C85219   5.002  -0.005   8.699  0.8873  0.3428 -0.4742
  632MOL0     O85220   5.015  -0.128   8.765  0.4139 -0.5760 -0.5438
  632MOL0     C85221   4.965  -0.238   8.687  0.8469 -0.1147 -0.5456
  632MOL0     C85222   4.832  -0.282   8.748 -0.3233 -0.0041  0.6092
  632MOL0     C85223   4.760  -0.391   8.669  0.6505 -0.9410  0.5246
  632MOL0     C85224   4.704  -0.334   8.539  0.5072 -0.5955 -1.0694
  632MOL0     C85225   4.612  -0.432   8.464  0.5040  1.0470  0.3344
  632MOL0     C85226   4.686  -0.554   8.404 -0.1840 -0.3299  0.1510
  632MOL0     C85227   4.586  -0.654   8.330 -0.2259 -0.6747 -0.9170
  632MOL0     C85228   4.514  -0.577   8.208  1.2474 -0.1697 -0.3411
  632MOL0    Cl85229   4.349  -0.599   8.258 -0.4026 -0.3932  0.2398
  632MOL0     C85230   4.893   0.083   8.718 -0.3180  0.7856  0.5793
  632MOL0     C85231   4.877   0.186   8.634  0.0395  0.1548  0.2105
  632MOL0     O85232   4.787   0.455   8.562  0.7115 -0.2238  0.1240
  632MOL0     C85233   4.960   0.539   8.271 -0.8379 -0.5173  0.1390
  632MOL0     C85234   4.958   0.653   8.187 -0.2175  0.3999  0.5334
  632MOL0     N85235   5.408   1.231   8.270 -0.2881 -0.7675  0.0599
  632MOL0     N85236   5.520   1.283   8.231  0.5596 -0.7262  0.2074
  632MOL0     C85237   6.137   2.266   8.068 -0.5315 -0.2505 -0.1516
  632MOL0     C85238   6.122   2.401   8.057 -0.4782  0.4456 -0.0602
  632MOL0     C85239   5.962   2.844   8.152 -0.5451  0.4641 -0.1417
  632MOL0     C85240   6.087   2.893   8.102  0.8252 -0.1440  0.3057
  632MOL0     C85241   6.107   3.031   8.082  0.6101  0.0219  0.8847
  632MOL0     C85242   6.012   3.127   8.104 -0.6311  0.8298  0.6651
  632MOL0     O85243   6.045   3.261   8.089  0.5360 -0.5246  0.3757
  632MOL0     C85244   5.973   3.355   8.173  0.1071  0.0547 -0.3223
  632MOL0     C85245   5.997   3.504   8.166  0.2844 -0.2836 -0.1077
  632MOL0     C85246   6.139   3.527   8.110 -0.4002 -0.5159 -1.1051
  632MOL0     C85247   6.253   3.481   8.191 -0.4223 -0.0594  0.4146
  632MOL0     C85248   6.250   3.520   8.336 -0.6307 -0.6981 -0.2749
  632MOL0     C85249   6.238   3.529   8.452  0.1406  0.2886 -0.4997
  632MOL0     C85250   5.890   3.087   8.150 -0.1028  0.3513 -0.0772
  632MOL0     C85251   5.856   2.948   8.162 -1.0737 -1.1598  0.5326
  632MOL0     C85252   5.710   2.931   8.184 -0.0305  0.1922 -0.5826
  632MOL0     H85253   5.986   2.474   8.366  2.9784  2.9620 -1.5906
  632MOL0     H85254   5.996   2.238   8.385  0.2683 -0.0465  0.7989
  632MOL0     H85255   6.005   2.019   8.349 -0.5398  1.4861 -1.1916
  632MOL0     H85256   5.910   1.995   8.199  0.2019  0.6670 -1.2688
  632MOL0     H85257   6.007   1.779   8.317 -0.0693  0.7795  0.7027
  632MOL0     H85258   6.157   1.841   8.227 -0.2898  2.8348 -2.3679
  632MOL0     H85259   6.043   1.686   8.087 -1.0007 -0.4873  0.2553
  632MOL0     H85260   6.008   1.845   8.024  0.6892 -0.8087  0.5459
  632MOL0     H85261   5.848   1.682   8.225  0.9537 -0.2167 -0.5687
  632MOL0     H85262   5.795   1.833   8.133 -0.3285  0.4109  1.9824
  632MOL0     H85263   5.856   1.701   7.913  0.0854 -2.5937 -0.9776
  632MOL0     H85264   5.873   1.565   8.017 -1.6763 -0.3727  2.4083
  632MOL0     H85265   5.652   1.769   7.985 -0.2515 -0.3883  0.4434
  632MOL0     H85266   5.649   1.624   7.879 -1.4005 -3.5827  0.0739
  632MOL0     H85267   5.482   1.611   8.065 -1.7563 -4.3226  1.7876
  632MOL0     H85268   5.619   1.606   8.181 -0.8013  2.2995 -0.4287
  632MOL0     H85269   5.577   1.428   7.928 -0.5627 -0.0261 -0.2067
  632MOL0     H85270   5.699   1.422   8.070 -0.1634  0.3632  0.5102
  632MOL0     H85271   5.312   1.370   7.986  0.0564 -2.7952 -0.2942
  632MOL0     H85272   5.114   1.242   8.218 -1.8266 -2.0129 -0.2074
  632MOL0     H85273   5.143   1.219   8.050 -0.5687  4.8676  1.1599
  632MOL0     H85274   5.255   0.983   8.128 -0.8082 -0.2739 -0.9602
  632MOL0     H85275   5.241   1.036   8.290  0.5789  3.2925 -0.1872
  632MOL0     H85276   4.985   1.040   8.257  0.3270  1.1913 -1.6548
  632MOL0     H85277   5.076   0.883   8.268  2.0868  0.5467 -1.0769
  632MOL0     H85278   5.038   0.883   8.005  2.4354  1.2238  0.4139
  632MOL0     H85279   4.938   1.016   8.029  0.1548 -1.6381 -0.0587
  632MOL0     H85280   4.648   0.765   8.237 -0.3252 -0.4740 -2.5676
  632MOL0     H85281   4.649   0.586   8.394 -0.2213  2.1125 -0.6769
  632MOL0     H85282   5.145   0.151   8.420 -1.3641  2.3034 -1.1255
  632MOL0     H85283   5.163  -0.048   8.564  2.2844  1.7754  3.6336
  632MOL0     H85284   4.964  -0.207   8.582  0.7235 -0.5452 -0.6715
  632MOL0     H85285   5.034  -0.321   8.699 -1.6785 -1.9003  5.5568
  632MOL0     H85286   4.849  -0.312   8.851  0.6166  2.4175  1.2309
  632MOL0     H85287   4.775  -0.191   8.768  1.6093  1.5892 -0.7481
  632MOL0     H85288   4.813  -0.484   8.645  2.7300  0.5154 -0.8169
  632MOL0     H85289   4.679  -0.414   8.738 -2.0545  3.4653 -0.7816
  632MOL0     H85290   4.783  -0.294   8.474 -0.6048  2.7713 -0.5487
  632MOL0     H85291   4.642  -0.247   8.561  1.7424  0.0557 -0.0253
  632MOL0     H85292   4.566  -0.380   8.380 -0.2713  0.3551  0.3213
  632MOL0     H85293   4.537  -0.476   8.529  1.3797 -3.6258 -1.4027
  632MOL0     H85294   4.765  -0.528   8.333  0.7837 -2.3752  0.3931
  632MOL0     H85295   4.742  -0.606   8.483  0.5760 -0.1455 -0.2510
  632MOL0     H85296   4.510  -0.687   8.401 -0.8807  0.5775 -0.9993
  632MOL0     H85297   4.645  -0.739   8.295  0.7790 -1.0439  1.4727
  632MOL0     H85298   4.548  -0.474   8.196 -0.0935  0.2961 -0.1839
  632MOL0     H85299   4.537  -0.626   8.112  2.6057 -1.9665  0.8240
  632MOL0     H85300   4.826   0.045   8.795 -3.3774  2.4804 -1.0411
  632MOL0     H85301   4.786   0.244   8.637  1.2711  2.9632 -4.6021
  632MOL0     H85302   5.048   0.476   8.278 -0.7466 -0.1774  2.9370
  632MOL0     H85303   5.052   0.682   8.140 -0.9129 -1.0175 -1.9485
  632MOL0     H85304   6.162   2.212   7.977 -3.6670  0.4400 -1.5923
  632MOL0     H85305   6.154   2.451   7.966 -0.1105 -1.6071 -1.1366
  632MOL0     H85306   6.174   2.833   8.078  2.0228  1.7706 -0.4033
  632MOL0     H85307   6.206   3.066   8.056 -0.5140  1.3463 -2.0567
  632MOL0     H85308   5.991   3.311   8.271  0.2700 -1.2898 -0.9379
  632MOL0     H85309   5.867   3.341   8.149  0.0695 -2.3478  0.9458
  632MOL0     H85310   5.986   3.544   8.267 -2.1658 -0.2575 -0.3315
  632MOL0     H85311   5.933   3.566   8.103 -0.2514 -1.5996 -0.9066
  632MOL0     H85312   6.156   3.634   8.095 -0.0814 -0.0438  2.0389
  632MOL0     H85313   6.151   3.488   8.008  1.7206  3.1364 -2.4401
  632MOL0     H85314   6.252   3.371   8.195 -0.4119 -0.1640 -1.4546
  632MOL0     H85315   6.350   3.508   8.148 -1.8012  1.1637 -2.1194
  632MOL0     H85316   6.247   3.519   8.559  0.7885 -1.3649 -0.6765
  632MOL0     H85317   5.808   3.156   8.170  0.1791  0.5509  0.4006
  632MOL0     H85318   5.681   2.826   8.185 -1.3195  0.5118  1.3695
  632MOL0     H85319   5.678   2.968   8.282 -1.7975 -0.3567 -0.9227
  632MOL0     H85320   5.645   2.980   8.110  1.4822  2.8183 -0.2926
  633MOL0     O85321   0.737   9.515   4.942  0.4786 -0.2987 -0.3396
  633MOL0     C85322   0.662   9.425   4.983  0.4710  0.0678  0.2798
  633MOL0     O85323   0.703   9.323   5.063 -0.4965  0.2913 -0.7472
  633MOL0     C85324   0.834   9.329   5.109  0.3093  0.7382 -0.1038
  633MOL0     C85325   0.942   9.322   5.020  1.0277 -0.5838  0.2336
  633MOL0     C85326   1.075   9.294   5.058 -1.7336 -0.4518 -0.2813
  633MOL0     C85327   1.108   9.285   5.195  0.0979  0.8247 -0.2145
  633MOL0     O85328   1.237   9.263   5.230  0.9144  0.8591 -0.7123
  633MOL0     C85329   1.292   9.323   5.345  0.1066 -0.2933  0.3230
  633MOL0     C85330   1.337   9.472   5.340 -0.5429  0.4488 -0.5857
  633MOL0     C85331   1.388   9.514   5.481 -0.5071  0.2358  0.0613
  633MOL0     C85332   1.534   9.453   5.502  0.4869  0.0632 -0.9351
  633MOL0     C85333   1.597   9.496   5.632  0.4670 -0.0576  0.7519
  633MOL0     C85334   1.537   9.440   5.759  0.2333 -0.2590  0.6812
  633MOL0     C85335   1.629   9.455   5.880  1.1047 -0.7402 -0.1446
  633MOL0     C85336   1.615   9.595   5.943  0.3692  0.1944 -0.9371
  633MOL0     N85337   1.712   9.623   6.037 -0.2754 -0.4695 -0.4399
  633MOL0     C85338   1.708   9.585   6.172 -0.0286  0.2599 -0.7285
  633MOL0     C85339   1.816   9.646   6.232 -0.0141  0.3061 -1.0140
  633MOL0     C85340   1.848   9.643   6.381  0.1951  0.1907  0.4170
  633MOL0     C85341   1.941   9.764   6.410  0.2446 -0.3243  0.5041
  633MOL0     C85342   1.969   9.765   6.560  0.0764 -1.0532  0.9148
  633MOL0     C85343   2.008   9.903   6.617  0.3111 -0.4035 -0.3311
  633MOL0     O85344   2.052   9.882   6.753 -0.4468 -0.3891  0.1048
  633MOL0     C85345   2.103   9.987   6.825  0.6406  1.4008 -0.4254
  633MOL0     C85346   2.159   9.954   6.953  0.4017  0.2619  0.8078
  633MOL0     C85347   2.229  10.056   7.021  0.5066 -0.0960  0.1191
  633MOL0     C85348   2.227  10.187   6.970 -0.8229 -0.2701 -0.3549
  633MOL0     C85349   2.286  10.295   7.043  0.4241 -0.8794  0.2584
  633MOL0     O85350   2.252  10.428   6.997  0.3135 -0.5944 -0.5986
  633MOL0     C85351   2.276  10.533   7.086  0.1106 -0.0089  0.2310
  633MOL0     C85352   2.233  10.540   7.221  0.1982  0.2474 -0.4085
  633MOL0     C85353   2.274  10.638   7.312 -0.0964  0.8655  1.1236
  633MOL0     C85354   2.358  10.739   7.271  0.2469 -0.2978  0.7505
  633MOL0     O85355   2.397  10.833   7.366  0.1474 -0.4281  0.5381
  633MOL0     C85356   2.439  10.959   7.325  1.1112 -0.8103  0.1293
  633MOL0     C85357   2.385  11.039   7.444 -0.5570 -0.3476 -0.2147
  633MOL0     C85358   2.403  11.196   7.433 -0.2520 -0.4119 -0.2104
  633MOL0     C85359   2.381  11.254   7.572 -0.4246 -0.2793 -0.6246
  633MOL0     C85360   2.388  11.412   7.575 -0.5731  0.1678 -0.1759
  633MOL0     C85361   2.308  11.476   7.690 -0.5433 -0.5787  1.0064
  633MOL0     C85362   2.298  11.632   7.671 -0.3969 -0.9348  0.2775
  633MOL0     C85363   2.427  11.701   7.715  0.0632 -0.6824  0.2510
  633MOL0    Cl85364   2.397  11.870   7.765  0.6119 -0.6809  0.2845
  633MOL0     C85365   2.401  10.745   7.133  0.4255 -0.4747 -0.2513
  633MOL0     C85366   2.357  10.647   7.046 -0.9664  0.1413  0.4708
  633MOL0     O85367   2.328  10.270   7.151  0.1261  0.2905 -0.0668
  633MOL0     C85368   2.158  10.223   6.845 -0.2846 -0.3858  0.0024
  633MOL0     C85369   2.101  10.116   6.785  0.2613  0.2236 -0.3154
  633MOL0     N85370   1.880   9.721   6.136 -0.6970 -0.0441  0.1445
  633MOL0     N85371   1.816   9.707   6.021 -0.9442  0.1057  0.4686
  633MOL0     C85372   0.989   9.279   5.283 -0.7680 -0.9182 -0.6629
  633MOL0     C85373   0.857   9.303   5.244  0.3606  0.2826 -0.1338
  633MOL0     C85374   0.528   9.432   4.920  0.0270 -0.3472 -0.6412
  633MOL0     C85375   0.511   9.518   4.813  0.9718 -0.1375 -0.2160
  633MOL0     C85376   0.395   9.502   4.733  0.7216 -0.0444  1.0495
  633MOL0     C85377   0.291   9.417   4.766 -0.3572 -0.5745 -0.2700
  633MOL0     O85378   0.187   9.391   4.686 -0.5153  0.0530  0.5712
  633MOL0     C85379   0.119   9.502   4.628 -0.7254  0.6262 -0.6782
  633MOL0     C85380   0.158   9.527   4.484 -0.7183 -0.0558 -0.1272
  633MOL0     C85381   0.054   9.460   4.385 -0.1597 -0.0373 -0.3480
  633MOL0     C85382   0.101   9.455   4.241 -0.3906  0.2677  0.4710
  633MOL0     C85383   0.229   9.382   4.225  0.6125 -1.1595  0.0838
  633MOL0     C85384   0.318   9.307   4.190 -0.0697 -0.8137  0.7039
  633MOL0     C85385   0.306   9.342   4.878  1.2600 -0.4463  1.0103
  633MOL0     C85386   0.422   9.349   4.956 -0.1997  1.2628 -1.0708
  633MOL0     C85387   0.428   9.270   5.085 -0.7080 -0.7899 -0.2320
  633MOL0     H85388   0.913   9.348   4.919 -0.5541 -0.5760  0.6506
  633MOL0     H85389   1.160   9.306   4.991  1.8888 -2.1135  3.5223
  633MOL0     H85390   1.223   9.315   5.430  0.0153  2.7875  0.6489
  633MOL0     H85391   1.385   9.266   5.353  2.4365  3.0325 -1.2449
  633MOL0     H85392   1.251   9.526   5.299 -0.3298 -1.3283 -3.7143
  633MOL0     H85393   1.419   9.498   5.273  0.2252  2.5384  1.0858
  633MOL0     H85394   1.312   9.490   5.557 -3.0679 -5.4339 -3.6036
  633MOL0     H85395   1.410   9.621   5.481  1.1400 -0.0240  2.6797
  633MOL0     H85396   1.516   9.345   5.491 -1.7568  0.5781 -3.5229
  633MOL0     H85397   1.591   9.485   5.414  0.6746 -0.1172 -0.8800
  633MOL0     H85398   1.701   9.463   5.620  0.1124 -0.2456 -2.6114
  633MOL0     H85399   1.593   9.606   5.633  3.1517  0.1257  2.4138
  633MOL0     H85400   1.439   9.487   5.776 -0.0081 -1.2397  2.2346
  633MOL0     H85401   1.513   9.334   5.742  2.6099 -0.9178  1.1267
  633MOL0     H85402   1.734   9.439   5.857  2.1619  3.3299  1.1113
  633MOL0     H85403   1.587   9.389   5.957 -2.5732  0.0170 -1.2705
  633MOL0     H85404   1.621   9.654   5.851 -0.9896  0.2065 -1.0380
  633MOL0     H85405   1.512   9.602   5.978  1.1702 -0.3525  1.7235
  633MOL0     H85406   1.634   9.525   6.223 -1.6180  2.2981 -0.4836
  633MOL0     H85407   1.751   9.667   6.425  0.5817  2.4193  0.1551
  633MOL0     H85408   1.890   9.550   6.421  2.0338  1.9440  2.7985
  633MOL0     H85409   2.030   9.747   6.349 -1.5062  0.4942 -2.5254
  633MOL0     H85410   1.896   9.860   6.384  0.7251  0.2643  1.7966
  633MOL0     H85411   2.045   9.695   6.596  2.0090  0.1567 -0.6875
  633MOL0     H85412   1.876   9.735   6.611 -0.2784 -2.5900 -0.5616
  633MOL0     H85413   1.933   9.982   6.617  1.2163  0.4727 -1.1149
  633MOL0     H85414   2.092   9.936   6.557  1.9296 -2.3034  0.7410
  633MOL0     H85415   2.156   9.847   6.967  0.2339  0.3408  1.3976
  633MOL0     H85416   2.278  10.019   7.111  1.4323 -2.8965 -1.4325
  633MOL0     H85417   2.166  10.462   7.255 -2.0862  0.9255 -3.0936
  633MOL0     H85418   2.252  10.617   7.416  0.7567 -1.9292  0.8212
  633MOL0     H85419   2.546  10.968   7.303  1.0196 -2.3788 -1.1337
  633MOL0     H85420   2.389  10.982   7.231  0.3808 -2.1079  0.1801
  633MOL0     H85421   2.279  11.028   7.469 -1.3286  2.1561 -1.9328
  633MOL0     H85422   2.425  11.006   7.540 -1.5539  1.1490  0.7738
  633MOL0     H85423   2.506  11.220   7.404  0.3998  2.4522  3.5666
  633MOL0     H85424   2.330  11.240   7.363 -1.4742 -1.6053  0.2712
  633MOL0     H85425   2.455  11.218   7.644  0.0825  0.8322 -0.5711
  633MOL0     H85426   2.278  11.229   7.600  0.0868 -2.0251 -0.1849
  633MOL0     H85427   2.349  11.446   7.479 -1.3914 -3.5913 -1.3502
  633MOL0     H85428   2.492  11.446   7.575 -1.5936  4.0506 -3.2692
  633MOL0     H85429   2.207  11.433   7.692 -1.3522  1.0870 -0.8381
  633MOL0     H85430   2.346  11.457   7.791 -0.9874  2.8011  1.9278
  633MOL0     H85431   2.211  11.668   7.727  0.1197 -3.0942  2.5994
  633MOL0     H85432   2.289  11.657   7.565  2.8024  3.2888  0.7359
  633MOL0     H85433   2.478  11.645   7.794 -1.1962  0.9994  2.3795
  633MOL0     H85434   2.500  11.705   7.634  0.2462  0.7119  0.4450
  633MOL0     H85435   2.465  10.829   7.110  1.4805 -0.3169  2.7773
  633MOL0     H85436   2.399  10.637   6.946 -0.1425 -1.4801  0.9438
  633MOL0     H85437   2.149  10.327   6.812 -1.3596 -0.8980 -1.4331
  633MOL0     H85438   2.050  10.143   6.693 -3.6967 -0.7065  1.3728
  633MOL0     H85439   1.018   9.260   5.386  0.8693  0.5008 -0.8146
  633MOL0     H85440   0.775   9.308   5.315  0.5643 -0.8127  0.1986
  633MOL0     H85441   0.590   9.584   4.777  1.6815 -1.3993 -1.0688
  633MOL0     H85442   0.398   9.566   4.645  4.5028  0.0857  1.0785
  633MOL0     H85443   0.143   9.589   4.689 -0.9281 -0.2289  0.6872
  633MOL0     H85444   0.012   9.489   4.645 -1.0231 -2.2521 -3.7122
  633MOL0     H85445   0.256   9.488   4.454 -1.7723 -0.8007 -2.8998
  633MOL0     H85446   0.162   9.633   4.460  1.0229 -1.0006 -5.2491
  633MOL0     H85447  -0.046   9.505   4.391  0.5269  1.5574 -0.4810
  633MOL0     H85448   0.034   9.355   4.409  0.0455 -0.2082 -0.9002
  633MOL0     H85449   0.023   9.412   4.179 -0.6147 -0.6883  1.3848
  633MOL0     H85450   0.102   9.561   4.214 -1.7965 -0.6039 -3.5659
  633MOL0     H85451   0.381   9.229   4.151  1.3838  1.0985 -1.0069
  633MOL0     H85452   0.229   9.269   4.905  0.1155  0.1930 -0.4037
  633MOL0     H85453   0.323   9.264   5.115 -0.7469 -1.4656 -0.4790
  633MOL0     H85454   0.469   9.170   5.065  1.0820  0.0113 -0.8128
  633MOL0     H85455   0.487   9.319   5.163  0.9733 -2.2114 -0.5315
  634MOL0     O85456   2.203   6.083   1.017 -0.1151  0.5916 -0.6393
  634MOL0     C85457   2.308   6.038   0.983 -1.0407 -0.7083 -0.2943
  634MOL0     O85458   2.371   5.930   1.044  1.3997  0.2451  0.6010
  634MOL0     C85459   2.307   5.881   1.149 -0.6747 -0.0318  0.7366
  634MOL0     C85460   2.328   5.942   1.272 -0.1813 -0.0629 -0.0042
  634MOL0     C85461   2.274   5.892   1.393 -0.7428  0.0471 -0.2211
  634MOL0     C85462   2.194   5.782   1.385 -0.3280  0.7513 -0.0031
  634MOL0     O85463   2.128   5.727   1.491  0.3566  0.3922  0.3067
  634MOL0     C85464   2.094   5.802   1.601 -0.2924  0.6154  0.8159
  634MOL0     C85465   2.050   5.696   1.701  0.3427  0.2197 -0.4063
  634MOL0     C85466   1.961   5.760   1.806 -0.7634 -0.1934 -0.3304
  634MOL0     C85467   1.919   5.654   1.906  0.1259 -0.4568 -0.4930
  634MOL0     C85468   1.813   5.726   1.991 -0.3642 -0.0225 -0.7572
  634MOL0     C85469   1.765   5.649   2.114 -0.2332  0.1011  0.6749
  634MOL0     C85470   1.672   5.527   2.077 -0.1308  0.4066 -0.2697
  634MOL0     C85471   1.543   5.574   2.035  0.2559  0.4175  0.9081
  634MOL0     N85472   1.454   5.629   2.134  0.1870 -0.0122  0.7599
  634MOL0     C85473   1.410   5.561   2.247  0.1650 -0.3606 -0.3327
  634MOL0     C85474   1.317   5.645   2.315 -1.0597  0.1863  0.7068
  634MOL0     C85475   1.228   5.609   2.425 -1.0356 -1.0897  0.2609
  634MOL0     C85476   1.178   5.469   2.416 -0.0030  0.7254 -0.5215
  634MOL0     C85477   1.110   5.422   2.555  1.1322 -0.2767  0.3206
  634MOL0     C85478   0.996   5.314   2.543 -1.4860 -0.4556 -1.0608
  634MOL0     O85479   0.886   5.323   2.642 -0.0248 -1.0851 -0.1771
  634MOL0     C85480   0.855   5.198   2.684 -0.0447 -0.6667 -0.4046
  634MOL0     C85481   0.750   5.134   2.617 -0.3931 -0.7498  0.3193
  634MOL0     C85482   0.690   5.015   2.665 -0.5407 -0.4450  0.3106
  634MOL0     C85483   0.759   4.956   2.777  0.9770 -0.3651  0.9175
  634MOL0     C85484   0.703   4.831   2.833 -0.3775  0.4520  0.4949
  634MOL0     O85485   0.596   4.774   2.764 -0.3933 -0.9252 -0.4274
  634MOL0     C85486   0.492   4.733   2.843  0.8948  0.4540  0.4593
  634MOL0     C85487   0.501   4.670   2.971  0.4040 -1.1597  0.7618
  634MOL0     C85488   0.393   4.606   3.033  0.0562  0.2579 -1.1405
  634MOL0     C85489   0.264   4.620   2.976 -0.0667 -0.3941 -0.8257
  634MOL0     O85490   0.160   4.560   3.040  0.8356  0.5823 -0.7689
  634MOL0     C85491   0.019   4.563   2.992  0.3583 -0.3480  0.3454
  634MOL0     C85492  -0.084   4.562   3.101 -0.7340  0.2492 -0.0321
  634MOL0     C85493  -0.101   4.689   3.189 -0.4076 -0.2157  0.2432
  634MOL0     C85494  -0.226   4.676   3.280  0.6008  0.4674  0.2564
  634MOL0     C85495  -0.250   4.813   3.365  0.3790 -0.3290  1.0854
  634MOL0     C85496  -0.130   4.874   3.432 -0.5162  0.3069  0.4742
  634MOL0     C85497  -0.046   4.787   3.533  0.4231  0.1133 -0.6833
  634MOL0     C85498  -0.131   4.746   3.649 -0.8186 -0.2374 -0.3892
  634MOL0    Cl85499  -0.182   4.907   3.712  0.1828  0.0689 -0.6111
  634MOL0     C85500   0.251   4.692   2.858  0.0452 -0.2417 -0.8187
  634MOL0     C85501   0.362   4.735   2.788 -0.9418 -1.0076 -0.0622
  634MOL0     O85502   0.744   4.802   2.947  0.2243 -0.0678  0.2035
  634MOL0     C85503   0.868   5.023   2.845 -0.7710  0.7097  0.9963
  634MOL0     C85504   0.921   5.140   2.794  0.0355  0.6438  0.4118
  634MOL0     N85505   1.323   5.765   2.248 -0.7644 -0.2905  0.2741
  634MOL0     N85506   1.388   5.753   2.137 -0.2205 -0.5636  0.0783
  634MOL0     C85507   2.173   5.716   1.266  0.3124  0.1189 -0.0460
  634MOL0     C85508   2.231   5.763   1.146 -0.2749 -0.5084  0.4515
  634MOL0     C85509   2.383   6.117   0.877 -0.1368  0.2560  0.6652
  634MOL0     C85510   2.348   6.083   0.747  0.2876 -0.4793  0.7831
  634MOL0     C85511   2.413   6.143   0.639 -0.0579  0.5171 -0.4155
  634MOL0     C85512   2.510   6.241   0.665  0.7216 -0.3552 -1.0183
  634MOL0     O85513   2.573   6.307   0.561 -0.3066 -0.0210  0.1160
  634MOL0     C85514   2.509   6.364   0.455  0.3973  0.5155  0.7652
  634MOL0     C85515   2.527   6.518   0.452  0.8119 -0.9119 -0.3370
  634MOL0     C85516   2.469   6.586   0.579 -0.1647  0.3441 -0.4838
  634MOL0     C85517   2.318   6.633   0.576  0.1424 -0.0929  0.0634
  634MOL0     C85518   2.230   6.527   0.618 -0.3431  0.6622  0.1120
  634MOL0     C85519   2.178   6.426   0.649  0.1145  0.3194  0.5217
  634MOL0     C85520   2.542   6.278   0.801  0.5537  1.2856 -1.1683
  634MOL0     C85521   2.482   6.214   0.905  0.5701  0.3769 -0.1729
  634MOL0     C85522   2.520   6.255   1.047 -0.1822  0.2919  0.2732
  634MOL0     H85523   2.385   6.034   1.274 -1.1232  0.5473  2.3894
  634MOL0     H85524   2.299   5.933   1.490 -0.1455  0.7302 -0.6545
  634MOL0     H85525   2.174   5.860   1.648  1.9996 -0.7940 -1.1527
  634MOL0     H85526   2.008   5.868   1.587 -0.9929  0.1530  2.6478
  634MOL0     H85527   2.133   5.660   1.764 -0.5711  1.5304  1.6643
  634MOL0     H85528   1.993   5.617   1.652 -0.0210  0.4980 -0.4365
  634MOL0     H85529   1.872   5.805   1.762 -1.2753  0.6592  1.4697
  634MOL0     H85530   2.022   5.831   1.862  1.8134 -3.0444  0.7747
  634MOL0     H85531   1.876   5.573   1.845 -0.6628  0.2765 -0.9349
  634MOL0     H85532   1.999   5.623   1.973 -0.7063  0.0612  0.7689
  634MOL0     H85533   1.860   5.819   2.026  1.3173 -1.4393  0.9809
  634MOL0     H85534   1.727   5.745   1.927 -2.0331 -1.8445  0.8029
  634MOL0     H85535   1.851   5.608   2.167 -0.5036  1.9345  2.6586
  634MOL0     H85536   1.714   5.710   2.189 -1.1130 -2.4199  2.2398
  634MOL0     H85537   1.672   5.456   2.160  1.1597  0.3294 -0.3122
  634MOL0     H85538   1.707   5.466   1.993  0.5793 -0.5673  0.7193
  634MOL0     H85539   1.557   5.648   1.956  0.1870  0.5017  0.9724
  634MOL0     H85540   1.511   5.487   1.977  6.5630 -1.7848 -0.0436
  634MOL0     H85541   1.436   5.460   2.274  2.4417 -0.1490 -1.5334
  634MOL0     H85542   1.278   5.612   2.522 -2.7406  2.3041  1.2010
  634MOL0     H85543   1.149   5.685   2.432  0.4042  0.3603  1.7945
  634MOL0     H85544   1.098   5.468   2.341 -0.8577 -1.4689  0.3398
  634MOL0     H85545   1.260   5.406   2.380 -0.9022  0.4283 -2.2190
  634MOL0     H85546   1.082   5.515   2.605  2.5240 -0.6479  1.8825
  634MOL0     H85547   1.190   5.372   2.610 -0.2036 -1.9511  0.8267
  634MOL0     H85548   1.059   5.225   2.559  0.6584  0.6800 -2.5996
  634MOL0     H85549   0.955   5.310   2.442 -3.2151  1.7576 -0.5158
  634MOL0     H85550   0.693   5.192   2.546 -1.1590  2.1835  3.0586
  634MOL0     H85551   0.603   4.970   2.619 -1.2736 -1.8780  2.9077
  634MOL0     H85552   0.597   4.647   3.016 -0.7848 -3.1556  2.4787
  634MOL0     H85553   0.402   4.531   3.112 -3.7221  1.4975  0.6836
  634MOL0     H85554  -0.006   4.642   2.921 -0.1964 -0.3751  0.5038
  634MOL0     H85555   0.006   4.464   2.948 -0.3028 -1.0349  2.0148
  634MOL0     H85556  -0.178   4.527   3.059 -1.1506  4.4900 -3.2728
  634MOL0     H85557  -0.052   4.489   3.176 -0.4564  1.0146  0.6163
  634MOL0     H85558  -0.012   4.718   3.245  1.5224  0.9318 -3.0968
  634MOL0     H85559  -0.106   4.785   3.136 -0.0916 -0.4828 -0.2904
  634MOL0     H85560  -0.242   4.593   3.349  0.1247  0.3062 -0.0457
  634MOL0     H85561  -0.313   4.652   3.218 -0.1132  0.8248  1.1034
  634MOL0     H85562  -0.337   4.802   3.430 -1.3110  0.3942 -0.9417
  634MOL0     H85563  -0.281   4.888   3.292 -0.6717 -1.8081 -0.0350
  634MOL0     H85564  -0.064   4.887   3.346  0.6459 -2.0021  0.9223
  634MOL0     H85565  -0.163   4.970   3.471 -0.7405  0.3735  0.1223
  634MOL0     H85566   0.027   4.859   3.570  0.2706  1.4163 -2.7481
  634MOL0     H85567   0.007   4.703   3.486  3.3098  0.5144  1.6044
  634MOL0     H85568  -0.217   4.685   3.618 -2.1424  0.4846  1.6481
  634MOL0     H85569  -0.075   4.691   3.726 -2.2487 -1.8234 -0.4085
  634MOL0     H85570   0.157   4.723   2.815  0.3870  1.6796 -0.2737
  634MOL0     H85571   0.352   4.789   2.694  1.5235 -1.6562 -0.7805
  634MOL0     H85572   0.907   4.978   2.936  0.5674 -0.8706 -0.2715
  634MOL0     H85573   1.011   5.181   2.840  1.2213 -2.9994  1.7014
  634MOL0     H85574   2.116   5.624   1.264 -0.0657  0.3591 -1.5702
  634MOL0     H85575   2.219   5.714   1.049 -1.2144 -0.9428  0.7718
  634MOL0     H85576   2.264   6.016   0.731 -0.3894  0.1837  1.4922
  634MOL0     H85577   2.379   6.122   0.538 -0.3963  0.5904 -0.3180
  634MOL0     H85578   2.406   6.328   0.466  1.0265 -2.6725 -2.1302
  634MOL0     H85579   2.549   6.312   0.368 -1.8394 -0.3294  0.1786
  634MOL0     H85580   2.467   6.562   0.372 -0.5130 -1.2774  0.4133
  634MOL0     H85581   2.635   6.530   0.445  0.8809 -1.7856 -0.8299
  634MOL0     H85582   2.529   6.678   0.581  1.1415 -0.4963  0.2491
  634MOL0     H85583   2.475   6.536   0.677 -0.6447  0.7724 -0.2287
  634MOL0     H85584   2.295   6.713   0.646 -1.4483 -0.7729  0.3688
  634MOL0     H85585   2.281   6.675   0.482  0.1758 -1.3336 -0.5250
  634MOL0     H85586   2.137   6.338   0.695 -0.0036 -0.0492 -0.2711
  634MOL0     H85587   2.621   6.349   0.824  1.5244 -0.6911  2.4722
  634MOL0     H85588   2.620   6.222   1.079  0.4875  1.9475 -0.0001
  634MOL0     H85589   2.519   6.363   1.060 -1.3767  0.7273 -2.6741
  634MOL0     H85590   2.448   6.208   1.115 -1.2701 -0.2785 -1.2062
  635MOL0     O85591   5.058   4.092   1.698 -0.5956  0.0919  0.2672
  635MOL0     C85592   5.134   4.022   1.641  0.2185 -0.0985 -1.2182
  635MOL0     O85593   5.254   4.067   1.588 -0.3676  0.0957 -0.3354
  635MOL0     C85594   5.286   4.209   1.590  0.1632  1.2500 -0.1490
  635MOL0     C85595   5.420   4.244   1.582 -0.0087 -0.0318 -0.3478
  635MOL0     C85596   5.465   4.374   1.576  0.3860  0.1306 -0.1919
  635MOL0     C85597   5.372   4.481   1.561  0.2107 -0.1158 -0.3619
  635MOL0     O85598   5.425   4.604   1.533  1.0126  0.1854  0.4899
  635MOL0     C85599   5.352   4.720   1.552  0.3127  0.8646 -0.6060
  635MOL0     C85600   5.452   4.835   1.530 -0.1192  0.0750  0.5685
  635MOL0     C85601   5.394   4.958   1.585  0.8636  0.3409  0.5672
  635MOL0     C85602   5.472   5.078   1.528 -0.7493  0.6482  0.1354
  635MOL0     C85603   5.385   5.182   1.458  0.6068 -0.7014  0.2495
  635MOL0     C85604   5.301   5.132   1.344 -1.3155  0.4751  0.1169
  635MOL0     C85605   5.368   5.165   1.203 -0.8761  0.7978 -0.2727
  635MOL0     C85606   5.521   5.153   1.200  0.5866 -0.0535 -0.5104
  635MOL0     N85607   5.578   5.154   1.064  1.1525  0.2402 -0.4580
  635MOL0     C85608   5.621   5.257   0.990 -0.6710  0.0303 -0.3382
  635MOL0     C85609   5.721   5.215   0.906 -0.5037  0.6079 -0.2408
  635MOL0     C85610   5.818   5.297   0.826  0.0394 -0.6080 -0.9051
  635MOL0     C85611   5.746   5.357   0.705  0.5074 -0.1518  0.4940
  635MOL0     C85612   5.855   5.419   0.606 -0.0011 -0.8155 -0.9989
  635MOL0     C85613   5.798   5.507   0.494  0.4472  0.1885  1.0895
  635MOL0     O85614   5.899   5.542   0.401  0.3563  0.5717  0.9510
  635MOL0     C85615   6.000   5.644   0.418 -0.6661 -0.5224  0.2776
  635MOL0     C85616   6.009   5.717   0.535  0.1414  0.2225 -0.1343
  635MOL0     C85617   6.104   5.814   0.556 -1.3294 -0.7094  0.2910
  635MOL0     C85618   6.191   5.846   0.460 -0.4901 -0.0771  0.4890
  635MOL0     C85619   6.287   5.955   0.473  0.1370  0.0125 -0.0245
  635MOL0     O85620   6.354   5.997   0.357  0.1663  0.0158  0.6938
  635MOL0     C85621   6.452   6.090   0.370  0.1071 -0.1869  0.6609
  635MOL0     C85622   6.424   6.220   0.427 -0.2701  0.5791 -0.3336
  635MOL0     C85623   6.530   6.315   0.435  0.7539 -0.0290  0.6371
  635MOL0     C85624   6.660   6.280   0.393  1.0656  0.3076  0.8833
  635MOL0     O85625   6.767   6.361   0.382 -0.0062  0.2605 -0.0513
  635MOL0     C85626   6.784   6.458   0.492 -0.0779  0.0148 -0.4914
  635MOL0     C85627   6.890   6.569   0.455 -0.3522 -0.7726  0.2968
  635MOL0     C85628   6.848   6.717   0.479  0.0081 -0.4127 -1.3001
  635MOL0     C85629   6.863   6.747   0.627 -0.8779 -0.2146  0.2281
  635MOL0     C85630   6.828   6.895   0.662  0.6948 -0.2513 -0.9164
  635MOL0     C85631   6.928   7.007   0.628 -0.1567 -0.0220  0.9203
  635MOL0     C85632   6.860   7.144   0.614 -0.2728  0.7637 -0.2609
  635MOL0     C85633   6.940   7.258   0.689  0.0615 -0.4373  1.0722
  635MOL0    Cl85634   6.847   7.403   0.692 -0.4786 -0.4855 -0.1049
  635MOL0     C85635   6.682   6.150   0.344  0.8906 -0.1062  1.1304
  635MOL0     C85636   6.581   6.055   0.335 -0.5617  0.2976 -0.0073
  635MOL0     O85637   6.295   6.002   0.586 -0.2811 -0.4140  0.2260
  635MOL0     C85638   6.196   5.766   0.337  0.6817  0.5694  0.5023
  635MOL0     C85639   6.098   5.672   0.323 -0.0739  0.1490 -0.1232
  635MOL0     N85640   5.745   5.083   0.937 -0.1289  0.2419  0.1590
  635MOL0     N85641   5.657   5.057   1.026  0.6770  0.3420  0.2483
  635MOL0     C85642   5.238   4.446   1.558 -0.8943  0.9944 -0.5478
  635MOL0     C85643   5.195   4.312   1.573 -0.3683  1.1047 -0.1402
  635MOL0     C85644   5.113   3.877   1.631  0.3382  0.4739 -0.1358
  635MOL0     C85645   5.181   3.811   1.525 -0.0835  0.1544 -0.9261
  635MOL0     C85646   5.166   3.673   1.504 -0.0111  0.0002 -0.1824
  635MOL0     C85647   5.076   3.600   1.583 -0.0680  0.7696  0.2565
  635MOL0     O85648   5.042   3.472   1.582  0.3314  0.1722  0.4823
  635MOL0     C85649   5.114   3.381   1.496 -0.9347  0.0236 -0.0291
  635MOL0     C85650   5.093   3.235   1.523  0.5299 -0.1681  1.1223
  635MOL0     C85651   5.204   3.142   1.460  0.3533 -0.4455  0.4888
  635MOL0     C85652   5.244   3.166   1.318 -0.1177  0.1316  0.1935
  635MOL0     C85653   5.132   3.193   1.222 -0.7567 -0.1909  1.2108
  635MOL0     C85654   5.060   3.226   1.146  0.9166  0.2072  0.0237
  635MOL0     C85655   5.003   3.666   1.689  0.2915 -0.6168 -0.3313
  635MOL0     C85656   5.032   3.801   1.713  0.1808 -0.3145 -0.0257
  635MOL0     C85657   4.961   3.853   1.835 -0.2647  0.2746  0.2153
  635MOL0     H85658   5.487   4.159   1.583  3.2227  2.3157 -0.3961
  635MOL0     H85659   5.573   4.380   1.577  0.3297  1.8779 -1.1016
  635MOL0     H85660   5.276   4.722   1.472  0.6667 -1.5128 -1.0718
  635MOL0     H85661   5.290   4.732   1.642 -0.8165  2.3017 -1.5079
  635MOL0     H85662   5.476   4.837   1.423  0.0536 -0.8370  0.5799
  635MOL0     H85663   5.550   4.818   1.576  0.9054  1.1424 -1.0883
  635MOL0     H85664   5.395   4.962   1.694 -3.0761 -3.8101  1.0954
  635MOL0     H85665   5.290   4.963   1.550  1.1396  1.5565 -0.1339
  635MOL0     H85666   5.524   5.124   1.613  0.7128 -0.6499 -0.0056
  635MOL0     H85667   5.554   5.052   1.460 -0.4176  1.4620  0.2138
  635MOL0     H85668   5.312   5.216   1.533  0.2816  1.7517 -1.0896
  635MOL0     H85669   5.437   5.273   1.428  1.8716 -1.0938  1.1680
  635MOL0     H85670   5.269   5.032   1.372  2.4467 -0.4783  1.6833
  635MOL0     H85671   5.212   5.195   1.342 -0.0138  2.4692 -2.1549
  635MOL0     H85672   5.339   5.267   1.176 -2.6949  1.3412  3.1049
  635MOL0     H85673   5.317   5.094   1.138  0.3029 -0.4367  0.1201
  635MOL0     H85674   5.555   5.240   1.257 -0.7619 -0.0106  0.2615
  635MOL0     H85675   5.539   5.062   1.257  0.7316  2.1623  3.2592
  635MOL0     H85676   5.588   5.360   1.002  2.6129  1.3041 -1.1669
  635MOL0     H85677   5.857   5.380   0.886 -0.9925 -0.5860 -0.2412
  635MOL0     H85678   5.899   5.229   0.799  1.2946 -0.4135  1.9807
  635MOL0     H85679   5.691   5.284   0.645 -1.1361  0.2481  1.4456
  635MOL0     H85680   5.678   5.437   0.735 -1.4285 -1.1206 -1.0465
  635MOL0     H85681   5.905   5.340   0.549  0.8328  1.3951 -3.5143
  635MOL0     H85682   5.937   5.467   0.660 -0.4923  2.2904 -2.8274
  635MOL0     H85683   5.746   5.598   0.523 -1.0400 -0.2600 -0.0132
  635MOL0     H85684   5.721   5.451   0.439 -1.1965  1.3342  2.1357
  635MOL0     H85685   5.934   5.705   0.613 -0.2365  2.4824 -0.0702
  635MOL0     H85686   6.092   5.875   0.645 -3.4757 -0.9829  0.2450
  635MOL0     H85687   6.323   6.241   0.461 -0.4849  0.2882 -0.7915
  635MOL0     H85688   6.513   6.411   0.482  0.4250  0.2025  0.0560
  635MOL0     H85689   6.691   6.512   0.514  1.3441  2.4974 -0.1249
  635MOL0     H85690   6.812   6.399   0.579 -0.4585  0.3783 -0.1185
  635MOL0     H85691   6.979   6.547   0.515 -1.2350 -2.8469  0.9543
  635MOL0     H85692   6.916   6.558   0.349 -1.7860  0.2920 -0.1929
  635MOL0     H85693   6.912   6.781   0.417  0.3100 -1.1483 -1.7602
  635MOL0     H85694   6.743   6.724   0.449 -0.4400 -3.5103 -0.7123
  635MOL0     H85695   6.968   6.733   0.653 -0.3241 -0.1284 -1.8466
  635MOL0     H85696   6.801   6.677   0.683  0.0079 -1.2725 -0.0862
  635MOL0     H85697   6.817   6.900   0.771 -3.8029  0.0444 -1.1983
  635MOL0     H85698   6.736   6.940   0.623  1.0210  1.2112 -0.0877
  635MOL0     H85699   7.011   7.014   0.699  0.6688 -0.2245 -0.0143
  635MOL0     H85700   6.966   6.981   0.529 -3.1859 -0.3153 -0.2761
  635MOL0     H85701   6.761   7.141   0.662  0.1428  1.6064  0.6866
  635MOL0     H85702   6.847   7.163   0.508 -4.7865 -1.3301 -0.3199
  635MOL0     H85703   6.967   7.219   0.787  0.9770  0.2398  1.1056
  635MOL0     H85704   7.032   7.279   0.633 -1.8247  0.1790 -2.0264
  635MOL0     H85705   6.780   6.132   0.302  0.0552  2.4796 -2.3112
  635MOL0     H85706   6.606   5.957   0.297  1.6997  0.8110  0.0466
  635MOL0     H85707   6.267   5.797   0.261  0.8833 -0.5224  0.2265
  635MOL0     H85708   6.097   5.609   0.235 -2.3566 -0.0371 -0.0092
  635MOL0     H85709   5.159   4.519   1.541 -0.8982  0.2903 -4.5687
  635MOL0     H85710   5.088   4.301   1.590  0.3054 -1.2569  4.0240
  635MOL0     H85711   5.242   3.870   1.457  0.4822  0.8594  0.1690
  635MOL0     H85712   5.222   3.634   1.420  1.1552 -0.2063  0.6607
  635MOL0     H85713   5.222   3.390   1.493 -1.0519  1.5523 -2.6305
  635MOL0     H85714   5.084   3.403   1.393  0.0073 -1.5866 -0.6767
  635MOL0     H85715   4.990   3.211   1.494 -0.3991 -0.3692  4.2641
  635MOL0     H85716   5.095   3.216   1.630 -2.6663 -2.1974  0.9753
  635MOL0     H85717   5.159   3.042   1.459 -1.7422  0.4476  0.6947
  635MOL0     H85718   5.291   3.143   1.527  1.7141  0.5984 -1.1925
  635MOL0     H85719   5.307   3.255   1.309 -1.1011  0.6706 -2.2128
  635MOL0     H85720   5.306   3.083   1.281 -0.3562 -0.3766  0.9178
  635MOL0     H85721   4.987   3.279   1.089  0.5905 -0.3884 -0.1243
  635MOL0     H85722   4.924   3.614   1.741  0.5589 -0.1916  0.5211
  635MOL0     H85723   4.864   3.896   1.809 -2.4919 -2.6590  2.8752
  635MOL0     H85724   4.934   3.778   1.910 -3.6525  1.8906  0.7995
  635MOL0     H85725   5.031   3.924   1.881  0.0703 -0.3579  0.6949
  636MOL0     O85726   2.196   1.081   0.322  0.3540 -0.2326 -0.7708
  636MOL0     C85727   2.177   1.079   0.204 -0.1499 -0.1289 -0.1797
  636MOL0     O85728   2.135   1.186   0.134  1.1223 -1.4025 -0.0772
  636MOL0     C85729   2.074   1.293   0.194 -0.4895 -0.4383 -0.2665
  636MOL0     C85730   2.081   1.411   0.125  0.7377 -0.3673  0.4241
  636MOL0     C85731   2.012   1.527   0.168 -0.2524  0.8637  0.4313
  636MOL0     C85732   1.941   1.527   0.287  0.3947  0.3451 -0.5707
  636MOL0     O85733   1.863   1.621   0.341  0.1741  0.4219  0.0337
  636MOL0     C85734   1.814   1.734   0.267 -0.1117 -0.2826  0.7815
  636MOL0     C85735   1.786   1.858   0.354  0.3004  0.6596  0.0617
  636MOL0     C85736   1.893   1.869   0.469  0.2580 -0.1816  0.0327
  636MOL0     C85737   1.857   1.986   0.563 -0.4134  0.4727 -0.0767
  636MOL0     C85738   1.983   2.035   0.633 -0.6148 -0.4997 -0.4846
  636MOL0     C85739   2.042   1.928   0.729 -0.0394  0.0289  0.1143
  636MOL0     C85740   2.185   1.955   0.768  0.4496  0.7320  0.5755
  636MOL0     C85741   2.210   2.105   0.817 -0.3466  0.1094  0.8557
  636MOL0     N85742   2.334   2.122   0.884  0.9050  0.5473 -0.4314
  636MOL0     C85743   2.427   2.022   0.911  0.7708  0.4851 -0.2183
  636MOL0     C85744   2.517   2.087   0.996 -0.9112 -0.3389 -0.7219
  636MOL0     C85745   2.652   2.041   1.054  0.8114  0.2148  0.2664
  636MOL0     C85746   2.765   2.052   0.963  0.6537 -0.7925  0.0378
  636MOL0     C85747   2.777   2.169   0.860 -1.0031  0.5349 -0.2944
  636MOL0     C85748   2.769   2.299   0.932  0.0659 -0.9137 -0.3203
  636MOL0     O85749   2.809   2.400   0.839  0.3469 -0.1757 -0.3673
  636MOL0     C85750   2.713   2.479   0.784 -0.2487  0.5711 -1.0011
  636MOL0     C85751   2.710   2.485   0.644 -0.4269 -0.1837 -0.8555
  636MOL0     C85752   2.605   2.547   0.585  0.9515 -0.5571  0.0560
  636MOL0     C85753   2.509   2.619   0.658 -0.6385  0.2482  0.2722
  636MOL0     C85754   2.396   2.689   0.586 -0.5143  0.3770  0.2748
  636MOL0     O85755   2.316   2.760   0.664 -0.1873  0.0023 -0.0726
  636MOL0     C85756   2.184   2.798   0.640 -1.0067  0.4352  0.5856
  636MOL0     C85757   2.115   2.877   0.735 -0.7240  0.5184  0.5123
  636MOL0     C85758   1.980   2.909   0.714 -0.7634 -0.4255 -0.7405
  636MOL0     C85759   1.906   2.865   0.606  0.8539  0.4729 -0.3866
  636MOL0     O85760   1.778   2.897   0.592  0.1165 -0.5569 -0.0299
  636MOL0     C85761   1.689   2.913   0.700  0.5491 -0.5851  0.1382
  636MOL0     C85762   1.555   2.944   0.651  0.5633  0.1661  0.2562
  636MOL0     C85763   1.571   3.060   0.554  0.0949 -0.2280  0.4613
  636MOL0     C85764   1.435   3.123   0.510 -0.3471  0.8659  0.7639
  636MOL0     C85765   1.444   3.198   0.377 -0.1936  0.7332  0.6921
  636MOL0     C85766   1.314   3.245   0.325  0.7193  0.2044 -0.9555
  636MOL0     C85767   1.326   3.274   0.176  0.0024 -0.3626 -0.0025
  636MOL0     C85768   1.383   3.417   0.158 -0.4427  0.3550  0.5987
  636MOL0    Cl85769   1.438   3.415  -0.017  0.5394 -0.2302 -0.1945
  636MOL0     C85770   1.978   2.791   0.509 -0.2715  0.1819  0.2030
  636MOL0     C85771   2.112   2.756   0.523 -0.7188 -0.0917 -0.0110
  636MOL0     O85772   2.384   2.673   0.463 -0.8655 -0.3136  0.0334
  636MOL0     C85773   2.513   2.605   0.798  0.2952 -0.0635 -0.0835
  636MOL0     C85774   2.608   2.530   0.863 -0.5108 -0.4540  0.5662
  636MOL0     N85775   2.467   2.213   1.027 -0.2146 -0.2182 -0.2450
  636MOL0     N85776   2.355   2.233   0.962  0.5204  0.6103 -0.3953
  636MOL0     C85777   1.926   1.402   0.353 -0.3839 -0.1989 -0.4055
  636MOL0     C85778   1.995   1.285   0.310 -0.1306  0.1803 -0.2866
  636MOL0     C85779   2.231   0.957   0.136 -0.3393  1.1400  0.1542
  636MOL0     C85780   2.234   0.829   0.204  0.7732  0.3526  0.4075
  636MOL0     C85781   2.291   0.724   0.134  1.1135 -0.3832 -0.8395
  636MOL0     C85782   2.339   0.733   0.001  1.1867  0.1028 -0.3616
  636MOL0     O85783   2.374   0.612  -0.057  0.2500 -0.7323 -0.3872
  636MOL0     C85784   2.503   0.619  -0.115  0.4221 -0.1819  0.5044
  636MOL0     C85785   2.590   0.502  -0.061 -1.4561 -0.1305  0.2343
  636MOL0     C85786   2.646   0.538   0.081 -0.8226 -0.4451 -0.1913
  636MOL0     C85787   2.580   0.456   0.191 -0.0659 -0.6905 -0.4584
  636MOL0     C85788   2.603   0.319   0.179 -0.0788  0.3698  0.1938
  636MOL0     C85789   2.605   0.201   0.163  0.0033  0.1727 -0.1231
  636MOL0     C85790   2.342   0.856  -0.060  0.5050 -0.6456 -0.2694
  636MOL0     C85791   2.288   0.966   0.008  1.2939  0.2254  0.3294
  636MOL0     C85792   2.298   1.095  -0.063  0.0469  0.6582 -0.2632
  636MOL0     H85793   2.128   1.408   0.027 -2.1875  0.8047 -1.1181
  636MOL0     H85794   2.037   1.612   0.105  1.7236 -2.1174 -3.2014
  636MOL0     H85795   1.894   1.763   0.198 -0.7953  0.4263  0.2772
  636MOL0     H85796   1.722   1.709   0.214  0.8707 -1.0846 -0.5974
  636MOL0     H85797   1.686   1.842   0.396  0.8511 -0.9160  0.8630
  636MOL0     H85798   1.779   1.948   0.293 -0.4626 -1.8331 -3.8903
  636MOL0     H85799   1.994   1.892   0.436  0.2177  0.3060  0.2452
  636MOL0     H85800   1.902   1.776   0.527  0.5388 -1.2123 -1.5956
  636MOL0     H85801   1.815   2.062   0.497  1.3336 -1.0392 -3.1531
  636MOL0     H85802   1.776   1.944   0.624 -0.9520  1.1607 -0.3044
  636MOL0     H85803   2.057   2.069   0.560  0.3943  1.3925  1.3154
  636MOL0     H85804   1.958   2.123   0.694 -1.3105 -0.3188 -1.0085
  636MOL0     H85805   1.979   1.923   0.818  1.1057  0.1922  0.9444
  636MOL0     H85806   2.028   1.827   0.689 -0.7008  0.9430 -2.1711
  636MOL0     H85807   2.248   1.931   0.682  1.0558 -0.8103  1.4005
  636MOL0     H85808   2.217   1.880   0.842 -1.2669 -3.3631 -2.4543
  636MOL0     H85809   2.208   2.180   0.738  2.9155  1.1812  1.6071
  636MOL0     H85810   2.125   2.122   0.883 -2.0263  0.5026 -1.3107
  636MOL0     H85811   2.438   1.921   0.871 -2.3662 -0.7960  1.7976
  636MOL0     H85812   2.663   2.092   1.150  1.4687  3.1034 -1.2327
  636MOL0     H85813   2.640   1.933   1.071 -3.2596  0.5562  0.5268
  636MOL0     H85814   2.846   2.049   1.036 -0.9190 -4.0946  1.8753
  636MOL0     H85815   2.790   1.968   0.897  0.6513  0.0313 -1.0565
  636MOL0     H85816   2.709   2.159   0.775 -1.5633  1.1711  0.0691
  636MOL0     H85817   2.878   2.161   0.820 -2.6869  0.9914 -5.5093
  636MOL0     H85818   2.842   2.295   1.014  0.8426 -2.1274 -1.0371
  636MOL0     H85819   2.673   2.325   0.978  0.3920  1.2121 -0.7382
  636MOL0     H85820   2.797   2.446   0.592  0.7949 -1.6494  2.0654
  636MOL0     H85821   2.600   2.539   0.477 -0.7497  1.3811 -0.0780
  636MOL0     H85822   2.168   2.893   0.828 -3.3989 -0.1614  2.2435
  636MOL0     H85823   1.949   2.970   0.799 -0.9712 -1.3387 -0.1509
  636MOL0     H85824   1.689   2.821   0.759  0.6252 -0.4644  0.3300
  636MOL0     H85825   1.728   2.995   0.762  0.4755 -0.0753 -0.4744
  636MOL0     H85826   1.512   2.861   0.594 -1.0219 -0.1583  1.8464
  636MOL0     H85827   1.498   2.965   0.742  0.9596 -0.7338  0.7219
  636MOL0     H85828   1.624   3.138   0.608  0.6671 -2.2652  3.0321
  636MOL0     H85829   1.628   3.036   0.463 -4.5845  1.6634 -3.3832
  636MOL0     H85830   1.381   3.192   0.576 -0.3050  2.1909 -0.5464
  636MOL0     H85831   1.358   3.046   0.499  1.0208 -0.4866  0.2511
  636MOL0     H85832   1.475   3.122   0.305  0.2127  1.2465  0.3203
  636MOL0     H85833   1.506   3.287   0.368 -1.8603  1.8576 -0.1883
  636MOL0     H85834   1.234   3.171   0.332  2.2264 -1.4936 -1.0509
  636MOL0     H85835   1.283   3.332   0.383 -0.9612 -2.4914  2.5598
  636MOL0     H85836   1.225   3.276   0.133  0.3624 -3.0768 -1.1797
  636MOL0     H85837   1.386   3.201   0.120  1.8543  1.5919 -0.7076
  636MOL0     H85838   1.303   3.490   0.174 -1.7896 -1.0910  0.5893
  636MOL0     H85839   1.461   3.454   0.225 -0.5001  1.3554  0.1389
  636MOL0     H85840   1.925   2.748   0.425  0.2565  0.8927 -0.5120
  636MOL0     H85841   2.155   2.699   0.441 -0.5735  0.9041 -0.6370
  636MOL0     H85842   2.425   2.630   0.856 -1.2491 -1.1892 -1.8350
  636MOL0     H85843   2.609   2.529   0.972 -2.6031  3.0075  0.7608
  636MOL0     H85844   1.830   1.402   0.405 -0.6342  2.4526 -0.7732
  636MOL0     H85845   1.984   1.189   0.360  2.7807 -1.8119 -3.0641
  636MOL0     H85846   2.197   0.818   0.305 -0.1153 -3.7594 -0.1878
  636MOL0     H85847   2.311   0.634   0.190  0.8009  1.2316  2.0654
  636MOL0     H85848   2.557   0.713  -0.100  1.1626 -0.2337 -1.5600
  636MOL0     H85849   2.477   0.617  -0.222 -1.4109  1.7074  0.8283
  636MOL0     H85850   2.685   0.488  -0.112  0.5374  2.5420  2.8964
  636MOL0     H85851   2.537   0.407  -0.072 -1.2925 -0.1811 -0.1070
  636MOL0     H85852   2.643   0.646   0.097  0.4569 -0.0297 -2.3537
  636MOL0     H85853   2.750   0.502   0.083 -0.4702  0.5112 -0.8834
  636MOL0     H85854   2.620   0.479   0.290 -1.3590 -3.4579  0.8138
  636MOL0     H85855   2.473   0.477   0.179  0.2636  1.7749  0.3684
  636MOL0     H85856   2.614   0.095   0.167  0.4211  0.2440  1.2885
  636MOL0     H85857   2.374   0.874  -0.162  0.2294  2.2382  0.0723
  636MOL0     H85858   2.376   1.085  -0.138 -0.2202  0.5551 -0.5302
  636MOL0     H85859   2.215   1.129  -0.126  2.0162  1.5434 -2.5103
  636MOL0     H85860   2.330   1.168   0.012 -5.8424  0.6067  2.8888
  637MOL0     O85861   4.336  11.120   1.109  0.4690  0.4479  0.7004
  637MOL0     C85862   4.214  11.114   1.109  0.3752  0.4433  0.6349
  637MOL0     O85863   4.137  11.184   1.031 -0.0160  0.0250 -0.4162
  637MOL0     C85864   4.191  11.280   0.946  0.1100  0.1828 -0.0377
  637MOL0     C85865   4.123  11.404   0.926  0.7663 -0.6128  0.2307
  637MOL0     C85866   4.176  11.501   0.836 -0.2671  0.1004 -0.1191
  637MOL0     C85867   4.293  11.480   0.762 -0.2522 -0.4636 -0.5320
  637MOL0     O85868   4.324  11.583   0.678  0.0162  0.3522 -0.4723
  637MOL0     C85869   4.426  11.556   0.580  0.3425  0.0952 -0.0954
  637MOL0     C85870   4.434  11.668   0.484 -0.2081  0.6431 -0.4092
  637MOL0     C85871   4.325  11.667   0.372 -0.3734 -0.1074  0.9851
  637MOL0     C85872   4.361  11.557   0.270  0.7506 -0.2773 -0.1414
  637MOL0     C85873   4.306  11.597   0.131 -0.9001 -0.5185  0.1412
  637MOL0     C85874   4.391  11.520   0.031  1.2402  0.7844 -0.9851
  637MOL0     C85875   4.332  11.520  -0.112 -0.6063  0.5353 -0.8613
  637MOL0     C85876   4.427  11.431  -0.208  0.1995  0.2325 -0.9680
  637MOL0     N85877   4.387  11.288  -0.212 -0.1663  0.1154  0.4083
  637MOL0     C85878   4.266  11.243  -0.251  0.2014 -0.3889 -0.4732
  637MOL0     C85879   4.251  11.118  -0.186 -0.5314 -0.6020  1.3382
  637MOL0     C85880   4.114  11.048  -0.178 -0.7518  0.9701  0.2466
  637MOL0     C85881   4.002  11.132  -0.128 -0.6278 -0.1919  0.5156
  637MOL0     C85882   3.891  11.041  -0.083 -0.0989  0.2238 -1.1913
  637MOL0     C85883   3.808  11.116   0.022 -0.0985 -0.0210  0.1669
  637MOL0     O85884   3.776  11.249  -0.027 -0.7931  0.9532  0.2657
  637MOL0     C85885   3.720  11.340   0.054 -0.3710  0.7066  0.1237
  637MOL0     C85886   3.655  11.305   0.185 -0.3223 -0.3627  0.8283
  637MOL0     C85887   3.573  11.396   0.253  0.1553 -1.0587  0.1176
  637MOL0     C85888   3.549  11.518   0.198 -0.5046 -0.7489 -1.2375
  637MOL0     C85889   3.468  11.616   0.268  0.1458  0.1710  0.2236
  637MOL0     O85890   3.409  11.716   0.193 -0.5609  0.1563  0.0996
  637MOL0     C85891   3.302  11.793   0.230 -0.4854 -0.9167  0.4069
  637MOL0     C85892   3.294  11.919   0.164  0.4513  1.2408  0.3066
  637MOL0     C85893   3.177  11.993   0.192 -1.3256 -0.0732  0.2247
  637MOL0     C85894   3.078  11.968   0.291  0.0516 -0.2111  0.7956
  637MOL0     O85895   2.956  12.030   0.288 -0.1277  0.3583  0.3860
  637MOL0     C85896   2.858  12.041   0.395  0.1015 -0.1653  0.0759
  637MOL0     C85897   2.909  12.074   0.532  0.4272  0.1162 -0.2181
  637MOL0     C85898   2.962  12.216   0.531  0.3576 -0.1718 -0.1269
  637MOL0     C85899   3.088  12.258   0.476 -0.3536  0.8201 -0.9538
  637MOL0     C85900   3.197  12.184   0.556 -0.9584  0.2396 -0.5870
  637MOL0     C85901   3.329  12.165   0.472  0.4395  0.1259 -0.5435
  637MOL0     C85902   3.418  12.073   0.535 -0.4138  0.1997 -1.0098
  637MOL0     C85903   3.540  12.055   0.438 -0.3576 -0.9305  0.8383
  637MOL0    Cl85904   3.630  12.211   0.438  0.0279 -0.3712 -0.2197
  637MOL0     C85905   3.101  11.857   0.371 -0.5330 -0.1723 -0.0722
  637MOL0     C85906   3.213  11.773   0.346 -0.0829 -0.5007  0.3649
  637MOL0     O85907   3.467  11.619   0.387 -0.2198 -0.4574  0.0035
  637MOL0     C85908   3.619  11.553   0.083 -0.1249 -0.1644  0.1422
  637MOL0     C85909   3.701  11.469   0.014 -0.1044  0.1737  0.4781
  637MOL0     N85910   4.368  11.096  -0.119 -0.0744  0.0791 -0.6521
  637MOL0     N85911   4.455  11.192  -0.144 -0.0302  0.5050  1.2933
  637MOL0     C85912   4.362  11.355   0.779  0.8238 -0.0566  0.0865
  637MOL0     C85913   4.310  11.258   0.868  0.5598  0.5126 -0.4147
  637MOL0     C85914   4.149  11.020   1.197 -0.2232 -0.3545 -0.6482
  637MOL0     C85915   4.023  10.974   1.166  0.1387  0.4034  0.5979
  637MOL0     C85916   3.953  10.871   1.237 -0.7015 -0.2985 -0.0021
  637MOL0     C85917   4.007  10.827   1.356 -0.2958 -0.2142  0.1988
  637MOL0     O85918   3.947  10.732   1.435  0.0441 -0.1590  0.5177
  637MOL0     C85919   3.848  10.644   1.385  0.3031 -0.0950  0.7948
  637MOL0     C85920   3.834  10.510   1.461 -0.4827 -0.0267  0.3322
  637MOL0     C85921   3.717  10.415   1.402 -0.3640 -0.6939  0.3392
  637MOL0     C85922   3.746  10.355   1.265  0.1252 -1.1311 -0.8413
  637MOL0     C85923   3.635  10.264   1.222 -0.2340 -0.5522 -0.4405
  637MOL0     C85924   3.546  10.184   1.221 -0.6863 -0.4249 -0.3604
  637MOL0     C85925   4.122  10.885   1.398 -0.2048  0.4209 -0.1483
  637MOL0     C85926   4.208  10.963   1.318  0.3442  0.4433 -0.2356
  637MOL0     C85927   4.346  10.998   1.373 -0.3916  1.0303  0.2965
  637MOL0     H85928   4.043  11.423   0.998 -0.6238 -2.7714 -0.6365
  637MOL0     H85929   4.126  11.597   0.832  2.3245  1.4878 -1.7295
  637MOL0     H85930   4.529  11.549   0.617 -0.6515  0.9128  3.0892
  637MOL0     H85931   4.413  11.465   0.522  0.3225  0.3507 -0.4980
  637MOL0     H85932   4.535  11.659   0.444 -0.7575 -0.4942 -1.6177
  637MOL0     H85933   4.432  11.769   0.527 -2.5752  2.3371 -4.0133
  637MOL0     H85934   4.318  11.765   0.324 -2.6449 -1.2346 -1.2138
  637MOL0     H85935   4.224  11.650   0.412 -1.0266  0.1228 -0.5112
  637MOL0     H85936   4.469  11.547   0.259  0.5882 -4.1590  0.4175
  637MOL0     H85937   4.323  11.464   0.313  0.7860  0.2894  1.1735
  637MOL0     H85938   4.201  11.569   0.123 -0.4458 -2.0873 -0.9671
  637MOL0     H85939   4.315  11.705   0.117  0.3038 -0.2892  2.2795
  637MOL0     H85940   4.496  11.547   0.022  1.7924 -0.7996  0.4237
  637MOL0     H85941   4.385  11.416   0.062 -4.1256  1.1844  0.4549
  637MOL0     H85942   4.320  11.623  -0.147 -1.9119  1.3738  1.7762
  637MOL0     H85943   4.227  11.489  -0.112  0.1588 -2.2960 -0.1814
  637MOL0     H85944   4.432  11.463  -0.312  1.2945  0.8700 -0.7303
  637MOL0     H85945   4.530  11.442  -0.172 -0.1557  2.1630 -0.3892
  637MOL0     H85946   4.191  11.299  -0.305 -3.0401  0.0809  3.9518
  637MOL0     H85947   4.098  10.990  -0.269 -1.2653 -1.3318  1.7115
  637MOL0     H85948   4.124  10.974  -0.098 -1.7854 -2.1445 -2.3113
  637MOL0     H85949   4.038  11.183  -0.038  0.7615  0.0417 -0.1457
  637MOL0     H85950   3.961  11.204  -0.200  3.1598 -1.4106 -3.2787
  637MOL0     H85951   3.926  10.958  -0.022 -0.7005  1.0002  0.2681
  637MOL0     H85952   3.835  10.988  -0.160 -2.6537  0.6768  0.2266
  637MOL0     H85953   3.854  11.117   0.121 -2.8755  0.0906  1.5558
  637MOL0     H85954   3.718  11.055   0.036  0.0513  0.4083  3.6850
  637MOL0     H85955   3.662  11.207   0.232 -0.0628 -0.9027 -0.3182
  637MOL0     H85956   3.527  11.373   0.349  0.5861  0.4459  0.7072
  637MOL0     H85957   3.367  11.948   0.088  0.9923 -0.6513  0.0568
  637MOL0     H85958   3.143  12.071   0.124 -0.6369 -0.2011 -0.2730
  637MOL0     H85959   2.780  12.111   0.365  1.8851  1.9171  0.1277
  637MOL0     H85960   2.827  11.938   0.417  1.5720 -0.9872 -1.4452
  637MOL0     H85961   2.822  12.075   0.599  0.4676  3.1686 -0.0664
  637MOL0     H85962   2.983  11.998   0.558  0.8452  0.7185  0.4035
  637MOL0     H85963   2.896  12.281   0.472  1.0904  1.0749  0.3963
  637MOL0     H85964   2.957  12.240   0.638  0.2217 -1.5673  0.2058
  637MOL0     H85965   3.105  12.363   0.502  0.8927  0.6470 -1.0194
  637MOL0     H85966   3.089  12.231   0.370  0.0841  0.6510 -0.9100
  637MOL0     H85967   3.157  12.090   0.596 -4.3817  2.4015  1.5878
  637MOL0     H85968   3.230  12.240   0.644  2.3845 -2.5755  0.1728
  637MOL0     H85969   3.298  12.137   0.371 -1.4755  1.1444 -0.2864
  637MOL0     H85970   3.377  12.263   0.465  2.8077 -0.9221 -0.1141
  637MOL0     H85971   3.365  11.979   0.547  0.5814 -0.4077 -1.2205
  637MOL0     H85972   3.461  12.115   0.626 -0.8404  1.2904 -1.2881
  637MOL0     H85973   3.625  11.991   0.460  0.8088 -1.2815 -3.6412
  637MOL0     H85974   3.511  12.024   0.337  3.1475 -0.4600 -0.4336
  637MOL0     H85975   3.022  11.818   0.434 -2.2781  1.3246 -1.2662
  637MOL0     H85976   3.235  11.684   0.404 -0.3059 -1.7613 -1.4248
  637MOL0     H85977   3.589  11.643   0.029 -0.1324 -1.6256 -2.4413
  637MOL0     H85978   3.744  11.504  -0.079 -2.6587  1.7047 -0.2240
  637MOL0     H85979   4.462  11.338   0.741  0.5952 -2.0596  0.2645
  637MOL0     H85980   4.363  11.164   0.874 -2.5453 -1.4110 -0.6186
  637MOL0     H85981   3.973  11.026   1.085  3.4484 -0.1374 -2.0102
  637MOL0     H85982   3.859  10.842   1.192 -1.2271 -1.7870  1.9031
  637MOL0     H85983   3.874  10.617   1.283 -1.6581  0.2901  0.1601
  637MOL0     H85984   3.751  10.693   1.379 -0.2290 -1.0200  1.5124
  637MOL0     H85985   3.802  10.535   1.562 -0.1547  1.4084  0.0959
  637MOL0     H85986   3.939  10.480   1.455 -0.2420  0.6662  0.9645
  637MOL0     H85987   3.624  10.473   1.397 -0.1650  0.0017  3.0553
  637MOL0     H85988   3.707  10.334   1.475 -0.5332  0.3420  1.4969
  637MOL0     H85989   3.746  10.429   1.184 -2.2198  0.6826  0.6842
  637MOL0     H85990   3.842  10.302   1.269  1.6994  1.4112  3.8045
  637MOL0     H85991   3.457  10.124   1.224 -1.6657  0.1867 -6.2237
  637MOL0     H85992   4.156  10.840   1.491 -1.5074 -1.8326 -0.6921
  637MOL0     H85993   4.419  10.998   1.291 -3.3174 -0.4574 -2.5395
  637MOL0     H85994   4.342  11.097   1.420 -2.8972  0.7565  0.7960
  637MOL0     H85995   4.368  10.923   1.449 -1.9147  0.1156 -0.1178
  638MOL0     O85996   0.422   4.678   3.894  0.2718 -0.0915  0.8635
  638MOL0     C85997   0.326   4.753   3.882  0.3917 -1.0490 -0.3192
  638MOL0     O85998   0.246   4.766   3.769 -0.1075 -0.0968 -0.5876
  638MOL0     C85999   0.283   4.686   3.662 -0.5975  0.6676 -0.1588
  638MOL0     C86000   0.244   4.548   3.651 -0.1459 -0.1819  0.1367
  638MOL0     C86001   0.303   4.475   3.557 -0.1273 -0.4909  0.5568
  638MOL0     C86002   0.377   4.529   3.454  0.4570 -0.0026 -0.0400
  638MOL0     O86003   0.451   4.460   3.359 -0.6671  0.0301  0.4681
  638MOL0     C86004   0.474   4.316   3.382  0.3083 -0.1700 -0.1664
  638MOL0     C86005   0.597   4.268   3.313  0.0117 -0.3865 -0.1417
  638MOL0     C86006   0.605   4.334   3.175  0.4192 -0.3456  0.5561
  638MOL0     C86007   0.689   4.263   3.076 -0.0548 -0.0927  0.5622
  638MOL0     C86008   0.688   4.343   2.937 -0.2789  0.4418  0.2398
  638MOL0     C86009   0.798   4.294   2.851 -0.2621 -0.3845 -0.1623
  638MOL0     C86010   0.805   4.140   2.832 -0.9927  0.7444 -0.7551
  638MOL0     C86011   0.685   4.076   2.758 -0.0713 -0.7341 -0.8240
  638MOL0     N86012   0.726   3.955   2.687  0.5308 -0.4275  1.0644
  638MOL0     C86013   0.770   3.960   2.554 -0.0941  1.4643 -0.3252
  638MOL0     C86014   0.813   3.836   2.527 -0.3071 -0.7066 -0.5475
  638MOL0     C86015   0.844   3.788   2.396 -0.3994  0.6038 -0.3487
  638MOL0     C86016   0.854   3.638   2.395  0.4833  0.7056  1.0168
  638MOL0     C86017   0.961   3.573   2.301 -0.4209 -0.6769  0.4766
  638MOL0     C86018   0.952   3.593   2.149  0.8023  0.4930 -1.0557
  638MOL0     O86019   0.820   3.548   2.102 -0.5370  0.5635 -0.1902
  638MOL0     C86020   0.796   3.433   2.044  0.4723 -0.0863 -0.3242
  638MOL0     C86021   0.877   3.321   2.049  0.1428  0.5898  0.5046
  638MOL0     C86022   0.840   3.193   1.989 -0.5427  0.2419  0.8227
  638MOL0     C86023   0.713   3.189   1.933 -0.1322  0.0496  0.3953
  638MOL0     C86024   0.654   3.055   1.902 -0.1726 -0.8624  0.3073
  638MOL0     O86025   0.739   2.954   1.877 -0.7506  0.0210 -0.4496
  638MOL0     C86026   0.703   2.825   1.856 -0.1283  0.3259  0.1523
  638MOL0     C86027   0.638   2.773   1.744  0.6512 -1.1607  0.0023
  638MOL0     C86028   0.629   2.636   1.722  0.3362 -0.3119 -0.6729
  638MOL0     C86029   0.666   2.541   1.821  0.9049  0.0169  0.2094
  638MOL0     O86030   0.668   2.408   1.815  0.4433 -0.4082  0.3969
  638MOL0     C86031   0.641   2.343   1.688 -0.3242 -0.2127  0.0105
  638MOL0     C86032   0.659   2.197   1.726 -0.3376 -0.5559  0.7254
  638MOL0     C86033   0.666   2.097   1.603 -0.4352  0.4571 -0.6597
  638MOL0     C86034   0.824   2.049   1.603  0.4460  0.4631  0.4085
  638MOL0     C86035   0.918   2.147   1.548 -0.6561 -0.1551 -0.4429
  638MOL0     C86036   1.032   2.084   1.473  0.6232  0.0132 -0.1865
  638MOL0     C86037   1.075   2.156   1.339  0.1173  0.1373  0.2921
  638MOL0     C86038   1.107   2.306   1.356  0.0332  0.5097 -0.3314
  638MOL0    Cl86039   1.280   2.316   1.414  0.3959 -0.2716 -0.0508
  638MOL0     C86040   0.722   2.594   1.933  0.1892 -0.1131  0.4304
  638MOL0     C86041   0.738   2.732   1.953 -0.6318  0.0689 -1.2626
  638MOL0     O86042   0.530   3.055   1.874 -0.9641  0.2858  0.4968
  638MOL0     C86043   0.631   3.307   1.925  0.5481 -0.1633 -0.8759
  638MOL0     C86044   0.673   3.430   1.980 -1.1166 -0.8566  0.0585
  638MOL0     N86045   0.793   3.759   2.644 -0.5230 -0.4676  0.3679
  638MOL0     N86046   0.747   3.832   2.741  0.0347 -0.1652  0.0552
  638MOL0     C86047   0.388   4.671   3.438 -0.2310 -0.7763 -0.2385
  638MOL0     C86048   0.352   4.744   3.556 -0.8786 -0.7047  1.2869
  638MOL0     C86049   0.295   4.837   4.005  0.0996  0.2891  0.5954
  638MOL0     C86050   0.351   4.812   4.123  0.6340 -0.1107  0.2796
  638MOL0     C86051   0.356   4.895   4.225 -0.8198 -0.0216  0.2122
  638MOL0     C86052   0.304   5.022   4.219  0.4394  0.7273 -0.0208
  638MOL0     O86053   0.307   5.094   4.337 -0.6120 -0.5605  0.2024
  638MOL0     C86054   0.216   5.194   4.355 -1.1592  0.0066 -0.2442
  638MOL0     C86055   0.264   5.280   4.478  0.4141 -0.0704 -0.7242
  638MOL0     C86056   0.143   5.358   4.546 -1.0185  0.5146 -0.7043
  638MOL0     C86057   0.118   5.498   4.491 -0.2670  0.1375 -0.0945
  638MOL0     C86058   0.058   5.498   4.361 -0.2138 -0.5945  1.0403
  638MOL0     C86059   0.009   5.470   4.250  0.4057 -0.2206  1.4129
  638MOL0     C86060   0.237   5.050   4.099  0.8267  0.6041 -0.1901
  638MOL0     C86061   0.230   4.965   3.984 -0.7853 -0.0597 -0.0224
  638MOL0     C86062   0.131   4.988   3.872 -0.9812 -0.3262  0.2215
  638MOL0     H86063   0.182   4.506   3.729  2.7881  1.5469  3.7101
  638MOL0     H86064   0.284   4.370   3.576 -0.6381 -0.4564  0.2519
  638MOL0     H86065   0.499   4.299   3.487  0.5937  1.2930  0.0313
  638MOL0     H86066   0.381   4.259   3.370 -0.0412  0.2169  0.5626
  638MOL0     H86067   0.592   4.159   3.304  1.4337 -0.4356 -0.6592
  638MOL0     H86068   0.685   4.291   3.374 -1.3269 -1.0694  2.1537
  638MOL0     H86069   0.635   4.436   3.199  0.0888 -0.3475  1.0005
  638MOL0     H86070   0.512   4.334   3.117  0.4253 -1.8865  0.4936
  638MOL0     H86071   0.789   4.252   3.119  1.1415 -0.7733 -2.1608
  638MOL0     H86072   0.655   4.160   3.063  2.9518 -1.1385  0.2925
  638MOL0     H86073   0.592   4.322   2.889  0.0621 -0.1402 -0.1957
  638MOL0     H86074   0.689   4.452   2.953  0.8577  0.6180 -0.9349
  638MOL0     H86075   0.781   4.348   2.757  0.5485 -0.4468 -0.3476
  638MOL0     H86076   0.888   4.331   2.901 -0.2280 -1.3570  0.5235
  638MOL0     H86077   0.805   4.107   2.937  0.4186  1.6715 -0.4312
  638MOL0     H86078   0.902   4.108   2.795 -0.5954  0.8955  0.1168
  638MOL0     H86079   0.594   4.062   2.817  0.0784 -0.4893 -0.5348
  638MOL0     H86080   0.645   4.145   2.684 -1.1237  0.6102  0.9178
  638MOL0     H86081   0.746   4.045   2.492 -0.1313  1.9732  0.3816
  638MOL0     H86082   0.763   3.826   2.333 -0.2084  3.7700  1.1061
  638MOL0     H86083   0.936   3.840   2.369 -0.6750  0.8171 -0.8900
  638MOL0     H86084   0.884   3.589   2.488  0.2108  2.0148  1.8103
  638MOL0     H86085   0.755   3.601   2.369  1.6928 -0.5810 -2.3546
  638MOL0     H86086   0.943   3.468   2.324 -4.2048 -0.1274  0.7615
  638MOL0     H86087   1.059   3.610   2.332 -1.1855  1.5221  0.4825
  638MOL0     H86088   1.033   3.540   2.099 -0.7628 -1.5963 -1.4804
  638MOL0     H86089   0.950   3.702   2.140  3.2874  0.6364 -0.4170
  638MOL0     H86090   0.966   3.321   2.111  0.7144  0.0196 -0.2843
  638MOL0     H86091   0.904   3.105   1.995  2.9074  2.6197  1.5733
  638MOL0     H86092   0.609   2.834   1.659 -1.6246 -0.1356  1.4204
  638MOL0     H86093   0.589   2.591   1.632 -1.3846  0.8966 -0.5552
  638MOL0     H86094   0.547   2.368   1.638  0.9782 -1.9162 -3.6779
  638MOL0     H86095   0.715   2.394   1.625 -0.9012  2.0141  1.0469
  638MOL0     H86096   0.748   2.176   1.786  0.2583  0.4179  0.2040
  638MOL0     H86097   0.572   2.175   1.788 -0.9039  1.2798  0.6476
  638MOL0     H86098   0.597   2.013   1.615  0.1903 -0.0915 -0.8711
  638MOL0     H86099   0.648   2.153   1.511  0.5481  0.4369 -0.8796
  638MOL0     H86100   0.817   1.952   1.552 -3.4561  1.1689 -0.6526
  638MOL0     H86101   0.848   2.028   1.708 -1.3593  2.5310  1.2988
  638MOL0     H86102   0.957   2.208   1.629 -1.0001 -0.0046 -0.3905
  638MOL0     H86103   0.868   2.215   1.478  1.2549  1.6477 -0.1785
  638MOL0     H86104   1.111   2.076   1.549  0.7334  1.8497 -0.0549
  638MOL0     H86105   1.000   1.983   1.446 -0.6403  0.8458 -1.9608
  638MOL0     H86106   0.999   2.138   1.263  1.5641 -2.0908 -0.7264
  638MOL0     H86107   1.165   2.110   1.296 -0.8761 -1.2745 -0.3412
  638MOL0     H86108   1.081   2.362   1.265 -0.4482 -1.0173 -1.1763
  638MOL0     H86109   1.037   2.339   1.434  0.4093  1.2638 -0.2989
  638MOL0     H86110   0.757   2.533   2.015 -0.4250 -0.0743  0.7293
  638MOL0     H86111   0.800   2.751   2.040 -0.4403 -0.5746 -1.2496
  638MOL0     H86112   0.526   3.294   1.899  0.2312 -0.0704  0.2795
  638MOL0     H86113   0.621   3.526   1.977  0.4748  0.0102 -1.1995
  638MOL0     H86114   0.438   4.708   3.349  1.8283 -2.6603  0.0514
  638MOL0     H86115   0.361   4.852   3.553 -3.4676 -0.4231  1.9795
  638MOL0     H86116   0.401   4.717   4.142  1.9240 -0.0206 -2.2155
  638MOL0     H86117   0.396   4.858   4.319  2.2548 -0.7473 -1.2522
  638MOL0     H86118   0.112   5.164   4.370 -2.1535  2.0379 -2.4782
  638MOL0     H86119   0.218   5.260   4.268  0.5850 -0.7910 -0.8519
  638MOL0     H86120   0.348   5.345   4.454  1.6830 -1.0076  0.9680
  638MOL0     H86121   0.315   5.226   4.558  1.7401 -0.8967 -2.0706
  638MOL0     H86122   0.171   5.365   4.652 -1.2313 -1.4623 -0.4884
  638MOL0     H86123   0.052   5.297   4.541  0.6439 -2.1626 -0.4009
  638MOL0     H86124   0.051   5.556   4.556 -0.1040  0.5070 -0.2498
  638MOL0     H86125   0.212   5.551   4.474 -0.5563  1.0182  0.9485
  638MOL0     H86126  -0.040   5.453   4.157  0.7735 -0.9081  1.3403
  638MOL0     H86127   0.183   5.142   4.081  2.0235  1.2648 -0.5616
  638MOL0     H86128   0.081   5.084   3.888 -2.0133  0.1086 -4.2916
  638MOL0     H86129   0.180   4.996   3.774 -0.9228 -1.0130  0.1851
  638MOL0     H86130   0.056   4.907   3.868 -1.8681  0.5141 -1.1970
  639MOL0     O86131  10.546   2.333  10.143 -0.9228 -0.6173  0.4058
  639MOL0     C86132  10.628   2.290  10.057  1.0034 -1.0175 -0.9761
  639MOL0     O86133  10.672   2.356   9.945  0.1283 -0.4008 -0.6788
  639MOL0     C86134  10.631   2.481   9.918 -0.3112  0.0632  0.7961
  639MOL0     C86135  10.692   2.527   9.799 -0.3862 -1.2061 -0.3007
  639MOL0     C86136  10.668   2.648   9.746 -1.1040 -0.6639  0.2733
  639MOL0     C86137  10.600   2.741   9.828 -0.3443  0.1090  1.3237
  639MOL0     O86138  10.581   2.871   9.790 -0.2533  0.1642 -0.4341
  639MOL0     C86139  10.686   2.937   9.713 -0.2559 -0.7454  0.0238
  639MOL0     C86140  10.650   3.081   9.735 -0.2643 -0.6103 -0.6059
  639MOL0     C86141  10.754   3.185   9.685 -0.0370  0.0946 -1.1369
  639MOL0     C86142  10.794   3.175   9.538 -0.4675  0.7709  0.0875
  639MOL0     C86143  10.888   3.284   9.491  0.8941 -0.1461  0.1626
  639MOL0     C86144  10.968   3.244   9.362 -0.1628 -1.1144  0.3536
  639MOL0     C86145  10.876   3.190   9.257  0.9473 -0.7452  1.1280
  639MOL0     C86146  10.946   3.177   9.116 -0.0557 -0.1883  0.0901
  639MOL0     N86147  11.043   3.073   9.131 -0.8854  0.1421 -0.0928
  639MOL0     C86148  11.177   3.089   9.106  0.7195  0.4805 -0.7379
  639MOL0     C86149  11.242   2.972   9.150  0.0729 -0.9458 -0.4543
  639MOL0     C86150  11.383   2.929   9.155  0.4313 -0.1293 -0.0957
  639MOL0     C86151  11.395   2.814   9.062 -0.1119  0.5875  0.0694
  639MOL0     C86152  11.538   2.772   9.045 -0.1908 -0.2619 -0.7347
  639MOL0     C86153  11.543   2.661   8.936  0.4658  0.0305  0.3481
  639MOL0     O86154  11.663   2.580   8.950 -0.1051 -1.1690 -0.1376
  639MOL0     C86155  11.662   2.471   9.034 -1.0844  0.8511  0.3066
  639MOL0     C86156  11.570   2.438   9.132 -0.3383  0.9627 -1.2692
  639MOL0     C86157  11.591   2.329   9.227 -0.7088  0.1558  0.1361
  639MOL0     C86158  11.714   2.252   9.215  0.2616  0.5101  0.3566
  639MOL0     C86159  11.737   2.138   9.306  0.3437  0.1992 -0.3027
  639MOL0     O86160  11.647   2.107   9.401 -1.1080  0.9000 -0.3494
  639MOL0     C86161  11.671   2.016   9.499  0.3892  0.7450 -0.3731
  639MOL0     C86162  11.571   2.010   9.598 -0.5297 -0.4675  0.5933
  639MOL0     C86163  11.584   1.913   9.698  0.0555 -1.5812  0.5008
  639MOL0     C86164  11.690   1.818   9.703  0.3010  0.1910  0.9563
  639MOL0     O86165  11.722   1.730   9.803 -0.4532 -0.5488  0.1946
  639MOL0     C86166  11.609   1.695   9.891 -0.6392 -0.3921 -1.0041
  639MOL0     C86167  11.678   1.565   9.965  1.0650 -0.1493  0.5909
  639MOL0     C86168  11.636   1.443   9.888 -0.9521 -0.3772 -0.0836
  639MOL0     C86169  11.719   1.311   9.923 -0.3198  0.0847 -0.2301
  639MOL0     C86170  11.671   1.253  10.054  1.0331  2.0557 -0.2897
  639MOL0     C86171  11.700   1.102  10.054  0.0313  0.5030 -0.3491
  639MOL0     C86172  11.714   1.043  10.205 -0.0538  0.0848 -0.1193
  639MOL0     C86173  11.848   1.082  10.269  0.5533 -0.7768 -0.2802
  639MOL0    Cl86174  11.886   0.956  10.392 -0.2601 -0.1082 -0.4874
  639MOL0     C86175  11.772   1.809   9.598  0.2301 -0.0802  0.4933
  639MOL0     C86176  11.756   1.907   9.497  0.9298 -0.3891 -0.0814
  639MOL0     O86177  11.855   2.103   9.304  0.0037 -0.7279 -0.1276
  639MOL0     C86178  11.801   2.277   9.111 -0.1282  0.3156 -0.8015
  639MOL0     C86179  11.772   2.375   9.020  0.8956 -0.2974  0.1600
  639MOL0     N86180  11.150   2.885   9.193 -0.0688 -0.2955  0.4052
  639MOL0     N86181  11.032   2.949   9.184  0.2362 -0.0143  0.9768
  639MOL0     C86182  10.553   2.711   9.951  0.6782  0.2164 -0.4808
  639MOL0     C86183  10.556   2.577   9.992  0.5978  0.0459  0.3831
  639MOL0     C86184  10.698   2.171  10.098  0.4905 -0.1398 -0.5197
  639MOL0     C86185  10.623   2.057  10.118  0.1366 -0.4011  0.1090
  639MOL0     C86186  10.686   1.941  10.154  0.5001 -0.5501  0.0369
  639MOL0     C86187  10.823   1.932  10.161  0.5783 -1.0029 -0.5046
  639MOL0     O86188  10.900   1.823  10.185  0.2080  0.1111 -0.4280
  639MOL0     C86189  10.832   1.705  10.194  0.1287  0.0284  0.5420
  639MOL0     C86190  10.927   1.586  10.196  0.0985  0.2259 -0.6725
  639MOL0     C86191  11.029   1.612  10.308 -0.5223 -0.4976  0.0383
  639MOL0     C86192  11.075   1.471  10.354  0.1422  0.9425 -0.2342
  639MOL0     C86193  10.970   1.422  10.444  0.2476 -0.3326  0.6567
  639MOL0     C86194  10.870   1.395  10.513 -0.9884  0.7235  0.5831
  639MOL0     C86195  10.903   2.049  10.135  0.4653  0.2958  0.5663
  639MOL0     C86196  10.840   2.169  10.107 -0.3005 -0.0588 -0.2343
  639MOL0     C86197  10.934   2.290  10.104 -0.1499 -0.2926  0.9710
  639MOL0     H86198  10.764   2.465   9.747 -0.6527 -0.9476 -0.9835
  639MOL0     H86199  10.716   2.676   9.653  0.3894 -2.7317  0.3604
  639MOL0     H86200  10.783   2.901   9.750 -0.2899 -1.4668 -0.5558
  639MOL0     H86201  10.676   2.908   9.608  1.4116 -1.0937 -0.0729
  639MOL0     H86202  10.633   3.089   9.843 -2.5309  0.9996 -1.0008
  639MOL0     H86203  10.551   3.109   9.697 -0.5056  0.7336  0.8553
  639MOL0     H86204  10.847   3.192   9.743 -0.8978  0.4719  0.2657
  639MOL0     H86205  10.719   3.289   9.694  0.7536  0.2999 -0.2181
  639MOL0     H86206  10.845   3.080   9.518  1.6212  1.4696  1.6822
  639MOL0     H86207  10.708   3.182   9.471  1.1295  0.9144 -2.0748
  639MOL0     H86208  10.822   3.370   9.473  0.2887 -0.7759 -0.7087
  639MOL0     H86209  10.955   3.317   9.572 -0.0133 -2.0779  1.7713
  639MOL0     H86210  11.017   3.336   9.330 -0.0154 -1.6901 -1.1609
  639MOL0     H86211  11.052   3.176   9.377 -0.6097 -1.5905  0.7426
  639MOL0     H86212  10.791   3.259   9.248  0.3237 -1.3208  2.3983
  639MOL0     H86213  10.832   3.094   9.286 -2.6362 -0.9054 -3.5249
  639MOL0     H86214  10.879   3.144   9.036 -0.5748 -0.6750  0.7128
  639MOL0     H86215  10.997   3.270   9.088  0.1138 -0.5310 -0.7911
  639MOL0     H86216  11.229   3.175   9.066 -2.1389  2.1888 -1.0832
  639MOL0     H86217  11.441   3.013   9.115 -0.1090 -1.1909 -3.3999
  639MOL0     H86218  11.412   2.910   9.259  3.0414  0.4748 -0.6392
  639MOL0     H86219  11.337   2.728   9.097 -0.2628  0.1571 -1.1680
  639MOL0     H86220  11.360   2.853   8.966 -3.7642  0.8935  1.3720
  639MOL0     H86221  11.573   2.727   9.138  2.3222  2.2364 -0.3272
  639MOL0     H86222  11.606   2.855   9.027  1.3854 -0.3294  3.7625
  639MOL0     H86223  11.541   2.694   8.832 -2.1081 -0.9947  0.0197
  639MOL0     H86224  11.460   2.592   8.947 -1.5411  2.6894  4.2932
  639MOL0     H86225  11.474   2.486   9.144  0.3406  1.8323  1.3324
  639MOL0     H86226  11.522   2.312   9.308 -2.0839  3.3624 -0.2107
  639MOL0     H86227  11.504   2.096   9.607 -0.4837 -0.4586  0.8616
  639MOL0     H86228  11.514   1.913   9.781  0.2774 -2.1017  0.6925
  639MOL0     H86229  11.597   1.779   9.960  0.0434 -2.1012  1.3342
  639MOL0     H86230  11.511   1.669   9.849 -0.1673 -3.0309 -0.6388
  639MOL0     H86231  11.787   1.576   9.962  1.1069  0.7828  3.3648
  639MOL0     H86232  11.666   1.554  10.073  0.6988  1.5726  0.7600
  639MOL0     H86233  11.533   1.411   9.903 -0.2159 -3.5318 -1.0821
  639MOL0     H86234  11.662   1.448   9.782  1.3674 -0.6311  0.4127
  639MOL0     H86235  11.825   1.330   9.943 -0.6941  1.1872  0.7942
  639MOL0     H86236  11.730   1.243   9.838  0.3986  0.1607 -0.2053
  639MOL0     H86237  11.562   1.250  10.052  1.0389 -1.0672 -2.1416
  639MOL0     H86238  11.718   1.300  10.141  1.8463 -0.4039  0.6847
  639MOL0     H86239  11.621   1.044  10.006  1.1940 -1.0430 -0.4960
  639MOL0     H86240  11.789   1.086   9.992 -0.5384  1.5426 -1.4812
  639MOL0     H86241  11.709   0.934  10.214  1.9524 -0.0967 -0.6108
  639MOL0     H86242  11.632   1.079  10.268  2.9785  1.9995  3.0695
  639MOL0     H86243  11.922   1.081  10.188 -2.0436  1.2235 -2.9059
  639MOL0     H86244  11.842   1.184  10.310 -0.9185 -1.6139  1.7633
  639MOL0     H86245  11.848   1.732   9.597  0.9716  0.6400  0.1727
  639MOL0     H86246  11.827   1.907   9.414 -2.3296  0.4873 -3.1255
  639MOL0     H86247  11.887   2.215   9.093  0.0682 -1.6793  4.9818
  639MOL0     H86248  11.837   2.390   8.934  0.6443 -4.3378 -0.9402
  639MOL0     H86249  10.506   2.798   9.995  1.4108 -0.8929  2.7323
  639MOL0     H86250  10.512   2.563  10.091  0.2810  0.6867  0.3393
  639MOL0     H86251  10.515   2.057  10.105 -0.1058  0.1126  1.8083
  639MOL0     H86252  10.621   1.854  10.166 -3.1041  1.9458  0.1164
  639MOL0     H86253  10.779   1.683  10.101  2.4336 -2.9050 -0.2536
  639MOL0     H86254  10.771   1.709  10.285  3.3477  2.1439  2.8467
  639MOL0     H86255  10.984   1.558  10.107 -0.5137  0.4290 -1.1277
  639MOL0     H86256  10.859   1.505  10.222  0.7921 -0.7470 -1.7897
  639MOL0     H86257  10.995   1.681  10.386  3.3129  5.3872 -2.7743
  639MOL0     H86258  11.102   1.664  10.246  0.1042 -1.4122 -0.0085
  639MOL0     H86259  11.107   1.410  10.269 -0.4725  1.1428 -0.6185
  639MOL0     H86260  11.160   1.474  10.423 -1.3767 -1.9633  2.0034
  639MOL0     H86261  10.795   1.386  10.589 -0.9298  2.1813  0.8265
  639MOL0     H86262  11.011   2.039  10.141  0.4568 -4.0540 -2.2118
  639MOL0     H86263  10.893   2.388  10.133  0.9643  0.1072  1.2471
  639MOL0     H86264  11.005   2.268  10.185 -0.3899 -0.2234  1.2001
  639MOL0     H86265  10.996   2.303  10.015 -2.1226  2.0475 -0.1629
  640MOL0     O86266   6.163   2.428   0.485  0.0520 -0.2995  0.7910
  640MOL0     C86267   6.108   2.456   0.378 -0.5475 -0.5210  0.6355
  640MOL0     O86268   6.107   2.590   0.324  0.5319  0.1140  0.0109
  640MOL0     C86269   6.094   2.692   0.415 -0.5884 -0.6876  0.1929
  640MOL0     C86270   6.212   2.775   0.429 -0.0020  0.7306 -0.2429
  640MOL0     C86271   6.220   2.873   0.520 -0.3005 -0.7487  0.0844
  640MOL0     C86272   6.111   2.893   0.614  0.0320  0.9550 -0.1089
  640MOL0     O86273   6.109   2.981   0.715  0.1459  0.0347  0.2602
  640MOL0     C86274   6.189   3.097   0.700 -0.7301 -0.4618 -0.1869
  640MOL0     C86275   6.169   3.219   0.784  0.0804  0.6805  0.4535
  640MOL0     C86276   6.186   3.190   0.932 -0.3924 -0.0669 -0.1671
  640MOL0     C86277   6.156   3.325   1.014 -0.1713  0.1617  0.3399
  640MOL0     C86278   6.215   3.303   1.149  0.5391 -0.5423  0.0922
  640MOL0     C86279   6.213   3.423   1.239  0.1997  0.1139  0.8188
  640MOL0     C86280   6.241   3.391   1.384 -0.6379  0.1935 -0.4071
  640MOL0     C86281   6.224   3.505   1.486  0.1975  0.1787  0.3506
  640MOL0     N86282   6.333   3.597   1.466 -0.7767 -0.6998 -0.1408
  640MOL0     C86283   6.436   3.615   1.556  0.7111 -0.3897 -0.2479
  640MOL0     C86284   6.509   3.724   1.525  0.4465 -0.9029 -0.3930
  640MOL0     C86285   6.618   3.779   1.607  0.7293  0.8119  0.1237
  640MOL0     C86286   6.566   3.879   1.711  0.6258 -0.0598 -0.6784
  640MOL0     C86287   6.685   3.928   1.790 -0.0829  0.3199  0.3857
  640MOL0     C86288   6.653   4.057   1.863 -0.2959  0.2500  0.8063
  640MOL0     O86289   6.778   4.105   1.919  0.0508  0.2068 -0.0538
  640MOL0     C86290   6.784   4.215   1.988 -0.5620 -0.5643  0.6832
  640MOL0     C86291   6.682   4.306   1.997  0.3871  0.2265 -0.6984
  640MOL0     C86292   6.700   4.421   2.071 -0.7870 -0.5270 -0.4659
  640MOL0     C86293   6.825   4.452   2.135 -0.9172 -1.0736  0.4272
  640MOL0     C86294   6.841   4.566   2.226 -0.1853 -0.0949 -0.4430
  640MOL0     O86295   6.719   4.645   2.244  0.0985 -0.4152 -0.2221
  640MOL0     C86296   6.711   4.757   2.316  0.0225 -0.4944 -0.2624
  640MOL0     C86297   6.582   4.808   2.340 -0.0707  0.3307 -0.5493
  640MOL0     C86298   6.556   4.924   2.406  0.7179 -1.8623  0.4868
  640MOL0     C86299   6.670   5.002   2.444 -0.1735 -1.2661  0.4642
  640MOL0     O86300   6.659   5.127   2.509 -0.5030 -0.2710 -0.0158
  640MOL0     C86301   6.528   5.172   2.539  0.4025 -0.1790 -0.8186
  640MOL0     C86302   6.548   5.280   2.636  0.1845  0.4641 -0.2218
  640MOL0     C86303   6.589   5.240   2.777 -0.5703  0.1224 -0.0676
  640MOL0     C86304   6.619   5.352   2.878  0.3229  0.7160 -0.1441
  640MOL0     C86305   6.495   5.419   2.940  0.3027 -0.1041  0.0698
  640MOL0     C86306   6.512   5.547   3.009 -0.0003  0.6676  0.0179
  640MOL0     C86307   6.598   5.545   3.142 -0.6733 -0.4204 -0.4380
  640MOL0     C86308   6.602   5.678   3.212 -0.0491 -0.1894 -0.1850
  640MOL0    Cl86309   6.719   5.673   3.357 -0.1054 -0.4910  0.1832
  640MOL0     C86310   6.794   4.968   2.399 -0.2394 -0.9831 -0.0777
  640MOL0     C86311   6.818   4.845   2.338  1.1428 -0.5868 -0.2935
  640MOL0     O86312   6.945   4.578   2.295 -0.7114  0.0925  0.1104
  640MOL0     C86313   6.932   4.364   2.120 -0.0496  0.3866  0.4666
  640MOL0     C86314   6.908   4.242   2.048 -0.8419 -0.5868 -0.7294
  640MOL0     N86315   6.444   3.779   1.411 -0.8146 -0.0117 -0.4774
  640MOL0     N86316   6.346   3.698   1.375 -0.4392 -1.1118  0.6380
  640MOL0     C86317   5.999   2.811   0.601 -0.6376  0.9604  0.4118
  640MOL0     C86318   5.998   2.710   0.507 -0.7820  0.1768 -0.7653
  640MOL0     C86319   6.047   2.352   0.293  0.3829 -0.8772 -0.6289
  640MOL0     C86320   5.926   2.392   0.227 -1.1601  0.7437  0.3354
  640MOL0     C86321   5.863   2.313   0.133  0.0700  0.6534  0.6501
  640MOL0     C86322   5.903   2.181   0.121  0.3429  0.5264  0.3900
  640MOL0     O86323   5.822   2.100   0.038 -0.1122  0.3125  0.0397
  640MOL0     C86324   5.870   1.969   0.007  0.6666 -0.0419 -0.0619
  640MOL0     C86325   5.762   1.929  -0.096 -0.1706 -0.4509  0.1655
  640MOL0     C86326   5.764   1.789  -0.143 -0.1379 -0.0645 -0.2462
  640MOL0     C86327   5.861   1.745  -0.251  0.3857  0.3789  0.0853
  640MOL0     C86328   5.839   1.824  -0.371 -0.9480 -0.2637 -0.4325
  640MOL0     C86329   5.833   1.897  -0.474 -0.1711  1.1676 -0.8332
  640MOL0     C86330   6.015   2.139   0.190 -0.2767  0.9281 -0.6945
  640MOL0     C86331   6.092   2.217   0.275 -0.5930  0.5236  0.0556
  640MOL0     C86332   6.230   2.165   0.324  0.4859  0.1310  0.2733
  640MOL0     H86333   6.299   2.747   0.371 -0.7761 -0.0315 -1.0787
  640MOL0     H86334   6.308   2.933   0.540  1.7580 -3.4311 -0.3623
  640MOL0     H86335   6.291   3.068   0.724 -0.2497  0.3437 -1.1786
  640MOL0     H86336   6.180   3.133   0.597  2.5019 -0.5083 -0.5806
  640MOL0     H86337   6.069   3.261   0.768 -0.2667  0.9501  2.8587
  640MOL0     H86338   6.247   3.285   0.746  2.2368 -2.2555 -0.6013
  640MOL0     H86339   6.290   3.164   0.950  0.1001 -0.2030 -2.8031
  640MOL0     H86340   6.127   3.099   0.950 -0.0068 -0.6331 -1.6546
  640MOL0     H86341   6.212   3.403   0.962 -0.4896 -0.8306 -1.5913
  640MOL0     H86342   6.048   3.336   1.021 -0.2937 -0.8420  0.1661
  640MOL0     H86343   6.160   3.213   1.178 -0.1418 -0.6842 -1.5490
  640MOL0     H86344   6.322   3.280   1.135  0.9039  0.6134  0.8946
  640MOL0     H86345   6.277   3.498   1.193  1.1941 -3.1805 -3.8738
  640MOL0     H86346   6.109   3.455   1.234 -0.0428 -0.5373  1.4351
  640MOL0     H86347   6.345   3.356   1.387 -0.9053 -0.5497  0.9010
  640MOL0     H86348   6.172   3.314   1.421  1.9760 -2.4473 -0.6710
  640MOL0     H86349   6.134   3.567   1.492  0.2079  0.0473  3.6716
  640MOL0     H86350   6.234   3.464   1.587  0.4224 -0.8502 -0.0725
  640MOL0     H86351   6.452   3.549   1.641  0.7461 -0.9519 -0.6885
  640MOL0     H86352   6.674   3.697   1.653 -2.2797 -1.8257 -0.5594
  640MOL0     H86353   6.691   3.831   1.544  0.1305  4.5732  2.2123
  640MOL0     H86354   6.534   3.971   1.662 -0.3761  0.5329  1.0058
  640MOL0     H86355   6.485   3.838   1.772  0.3034  3.0046  1.1737
  640MOL0     H86356   6.764   3.952   1.718  0.5665 -3.6943 -0.4961
  640MOL0     H86357   6.707   3.839   1.850  1.2563  0.4297  0.0891
  640MOL0     H86358   6.568   4.038   1.930  1.7983 -1.6641  3.1119
  640MOL0     H86359   6.629   4.113   1.773  0.3026 -1.1254 -0.2507
  640MOL0     H86360   6.587   4.289   1.948 -0.7751  1.3855  1.0171
  640MOL0     H86361   6.617   4.490   2.084 -0.6178  0.1469 -2.5826
  640MOL0     H86362   6.501   4.746   2.305 -0.8946 -0.1005  1.8712
  640MOL0     H86363   6.455   4.963   2.414  2.1083  4.1648 -3.8877
  640MOL0     H86364   6.473   5.218   2.456  0.8352 -3.0487 -2.8714
  640MOL0     H86365   6.469   5.087   2.577  3.8794 -1.8418  1.3409
  640MOL0     H86366   6.625   5.345   2.594 -1.5843  2.2013 -0.9489
  640MOL0     H86367   6.453   5.333   2.646  0.1928  0.6453 -1.0120
  640MOL0     H86368   6.511   5.174   2.817 -0.1767 -0.1213  0.3094
  640MOL0     H86369   6.673   5.173   2.755 -0.0649  0.2989  1.2040
  640MOL0     H86370   6.687   5.427   2.836 -0.5435  0.7707 -1.5053
  640MOL0     H86371   6.679   5.302   2.955  2.8622 -0.7973 -2.9108
  640MOL0     H86372   6.461   5.347   3.015  3.1184  0.3680  1.9255
  640MOL0     H86373   6.424   5.415   2.857  1.4195 -0.4194 -0.8819
  640MOL0     H86374   6.542   5.618   2.933 -0.4003 -3.0901 -4.0475
  640MOL0     H86375   6.414   5.592   3.027  0.7031  3.6531 -2.8399
  640MOL0     H86376   6.705   5.532   3.120 -1.0433 -2.5406 -1.2486
  640MOL0     H86377   6.554   5.470   3.208 -0.5099  0.0905  0.2684
  640MOL0     H86378   6.653   5.747   3.145  0.8751 -0.0187  0.6662
  640MOL0     H86379   6.507   5.715   3.251  0.7705  1.3563  0.3954
  640MOL0     H86380   6.877   5.038   2.407 -1.3070  0.4850 -1.3565
  640MOL0     H86381   6.918   4.826   2.301  0.4382 -1.4811 -1.8677
  640MOL0     H86382   7.033   4.384   2.155 -0.0998  3.4770 -0.7849
  640MOL0     H86383   6.979   4.162   2.033  0.0448  0.2947 -1.3492
  640MOL0     H86384   5.909   2.825   0.660 -2.2958 -1.4446 -1.3705
  640MOL0     H86385   5.914   2.640   0.515 -2.5072  2.2428  0.1291
  640MOL0     H86386   5.868   2.483   0.233 -2.5015  0.0626 -1.2823
  640MOL0     H86387   5.771   2.353   0.090 -0.0857  1.3791  1.6382
  640MOL0     H86388   5.869   1.907   0.097  0.0449 -0.2548 -0.2109
  640MOL0     H86389   5.966   1.958  -0.043 -1.1271 -1.2912 -3.5355
  640MOL0     H86390   5.758   1.994  -0.184 -1.9991  1.9083  1.8792
  640MOL0     H86391   5.671   1.936  -0.036  1.4662 -1.9470  3.0702
  640MOL0     H86392   5.662   1.762  -0.172  1.3027 -4.4694 -2.0629
  640MOL0     H86393   5.783   1.732  -0.051 -0.1836  1.7700  0.9461
  640MOL0     H86394   5.962   1.761  -0.211 -0.7281 -1.1084  3.9445
  640MOL0     H86395   5.854   1.639  -0.277 -2.1460 -0.3624  3.1973
  640MOL0     H86396   5.811   1.963  -0.555  0.5525 -0.5504 -2.5043
  640MOL0     H86397   6.049   2.036   0.200 -2.2664  0.3794  1.3156
  640MOL0     H86398   6.247   2.069   0.274 -2.9294  0.0788 -1.0786
  640MOL0     H86399   6.308   2.238   0.302  1.4463 -0.0938  2.6719
  640MOL0     H86400   6.225   2.159   0.433  2.4947 -3.1985  0.3145
  641MOL0     O86401   3.268   8.912   7.479  0.2590  0.3715 -0.0619
  641MOL0     C86402   3.279   8.984   7.379 -0.0605 -0.3728 -0.4013
  641MOL0     O86403   3.196   9.088   7.352  0.4594  0.2983  0.5952
  641MOL0     C86404   3.080   9.086   7.427  0.3460 -0.5959  0.5083
  641MOL0     C86405   3.081   9.150   7.551  0.3167  0.1708 -0.9642
  641MOL0     C86406   2.967   9.129   7.628 -0.1944  1.0400 -0.0522
  641MOL0     C86407   2.845   9.077   7.571 -0.1681 -0.4093 -0.5919
  641MOL0     O86408   2.732   9.089   7.653 -0.3759  0.7811 -0.3326
  641MOL0     C86409   2.623   8.997   7.622 -0.0123 -0.1017  0.1416
  641MOL0     C86410   2.517   9.005   7.732 -0.4678 -0.4847 -0.3193
  641MOL0     C86411   2.446   9.141   7.721 -0.3871  0.3078 -0.0874
  641MOL0     C86412   2.333   9.143   7.810  0.3930 -0.6097 -0.4660
  641MOL0     C86413   2.237   9.261   7.783 -0.0511  0.0332 -0.3253
  641MOL0     C86414   2.288   9.399   7.822 -0.2363 -0.1077  0.1103
  641MOL0     C86415   2.182   9.512   7.807 -0.1409  0.4888  0.9733
  641MOL0     C86416   2.227   9.644   7.860 -0.1444 -0.8412  0.3761
  641MOL0     N86417   2.335   9.695   7.774  0.6903  0.2310  0.5515
  641MOL0     C86418   2.468   9.668   7.786  0.2605  0.1023 -0.0855
  641MOL0     C86419   2.532   9.699   7.670 -0.0242  1.0484  0.2163
  641MOL0     C86420   2.675   9.694   7.640 -0.0860 -0.4888  1.1618
  641MOL0     C86421   2.722   9.552   7.669 -1.2898 -0.0910 -1.1485
  641MOL0     C86422   2.634   9.445   7.599 -0.6779 -0.4498  0.1885
  641MOL0     C86423   2.633   9.457   7.446  1.4150 -0.3195 -0.0026
  641MOL0     O86424   2.766   9.452   7.387  0.3214 -0.1883  0.2787
  641MOL0     C86425   2.786   9.391   7.266  0.7979 -0.5983  0.2645
  641MOL0     C86426   2.917   9.356   7.249 -0.5168 -0.2651 -0.4093
  641MOL0     C86427   2.965   9.301   7.123 -0.0498  0.4837  0.3377
  641MOL0     C86428   2.867   9.264   7.025  0.6138 -0.1946  0.0277
  641MOL0     C86429   2.902   9.200   6.898 -0.1649  0.1661 -0.6358
  641MOL0     O86430   2.804   9.189   6.809  0.0366  0.0133 -0.3956
  641MOL0     C86431   2.811   9.088   6.709 -1.0809 -0.9541 -0.1964
  641MOL0     C86432   2.894   9.115   6.603 -0.5121  0.8467  0.6588
  641MOL0     C86433   2.902   9.008   6.507  0.3101 -0.1266  0.1052
  641MOL0     C86434   2.823   8.892   6.516  0.5736 -1.2569 -0.3267
  641MOL0     O86435   2.839   8.808   6.415  0.2995 -0.7679 -0.2158
  641MOL0     C86436   2.719   8.753   6.359  0.5038  0.2488  0.2011
  641MOL0     C86437   2.753   8.677   6.231 -0.2096 -0.3709 -0.2252
  641MOL0     C86438   2.858   8.763   6.140  0.5589  0.6005 -0.1570
  641MOL0     C86439   2.815   8.907   6.115 -0.4737 -0.0739 -0.8570
  641MOL0     C86440   2.878   8.961   5.990 -0.3068  1.0575  0.5213
  641MOL0     C86441   3.025   8.989   5.998  0.8522  0.9869  1.2661
  641MOL0     C86442   3.077   9.071   6.110 -0.4177  0.7534  0.4737
  641MOL0     C86443   3.009   9.216   6.128 -0.0077 -0.8283  0.1618
  641MOL0    Cl86444   3.108   9.316   6.233  0.7663  0.5676  0.3800
  641MOL0     C86445   2.737   8.880   6.631 -0.1712  0.4453  0.0819
  641MOL0     C86446   2.727   8.978   6.717  0.0182 -0.0933 -0.8754
  641MOL0     O86447   3.018   9.160   6.884 -0.3921 -0.1887  0.2126
  641MOL0     C86448   2.723   9.302   7.052  0.7890  0.8767 -0.1492
  641MOL0     C86449   2.690   9.372   7.166 -0.5652  0.0575 -0.4039
  641MOL0     N86450   2.432   9.756   7.597 -1.3712  0.2067  0.1611
  641MOL0     N86451   2.319   9.741   7.649 -0.4209  0.0265 -0.1939
  641MOL0     C86452   2.848   9.023   7.443 -0.1205  0.2546  0.2666
  641MOL0     C86453   2.964   9.026   7.375  0.0761  0.6013 -0.6212
  641MOL0     C86454   3.396   8.962   7.298 -0.4659  0.0868  0.6260
  641MOL0     C86455   3.518   8.934   7.361  0.9658  1.4476  0.3300
  641MOL0     C86456   3.629   8.918   7.284 -0.2397  0.9491 -0.1235
  641MOL0     C86457   3.635   8.927   7.145 -1.0681  1.4790  0.1612
  641MOL0     O86458   3.756   8.896   7.076  0.6731  0.6599 -0.1098
  641MOL0     C86459   3.777   8.909   6.938 -0.6559 -0.0107  0.7588
  641MOL0     C86460   3.887   8.809   6.889  0.1640 -1.3518 -0.7092
  641MOL0     C86461   3.905   8.818   6.748 -0.0276  0.1484  0.5639
  641MOL0     C86462   3.998   8.705   6.699 -0.6768 -0.4122  0.2947
  641MOL0     C86463   4.017   8.716   6.551  0.2083 -0.2200  0.4260
  641MOL0     C86464   4.018   8.744   6.430 -0.1844 -0.3795  0.1256
  641MOL0     C86465   3.516   8.969   7.084 -0.2951  0.5034 -0.1504
  641MOL0     C86466   3.397   8.987   7.156 -0.6778 -0.1552 -0.1203
  641MOL0     C86467   3.273   9.014   7.082 -0.6162  0.2786 -0.1995
  641MOL0     H86468   3.169   9.190   7.601  0.6890 -0.5697 -1.0011
  641MOL0     H86469   2.962   9.159   7.732 -0.6975  0.9233 -0.0436
  641MOL0     H86470   2.590   9.013   7.519 -0.2621  1.1662  0.4038
  641MOL0     H86471   2.668   8.897   7.628  0.5788  0.1398 -0.1157
  641MOL0     H86472   2.554   8.998   7.835 -1.8032 -1.9887  0.1096
  641MOL0     H86473   2.448   8.920   7.732  3.4072 -3.9274  0.4143
  641MOL0     H86474   2.421   9.164   7.617 -1.1994 -2.4805 -0.6088
  641MOL0     H86475   2.505   9.226   7.755  1.9488 -0.5220 -1.8365
  641MOL0     H86476   2.283   9.045   7.814 -2.4275  0.6895 -0.9263
  641MOL0     H86477   2.359   9.156   7.915  1.4981  2.2477 -1.0016
  641MOL0     H86478   2.221   9.265   7.675  2.2097  1.0991 -0.6872
  641MOL0     H86479   2.148   9.236   7.842  0.3853 -1.4624 -0.2509
  641MOL0     H86480   2.330   9.393   7.923  0.7237 -0.8750 -0.3097
  641MOL0     H86481   2.371   9.418   7.753 -2.0914  2.4580 -1.6162
  641MOL0     H86482   2.105   9.468   7.872  0.2344 -3.6834 -1.0540
  641MOL0     H86483   2.147   9.526   7.705 -1.5570  0.6928  1.4631
  641MOL0     H86484   2.141   9.712   7.859  0.5055  0.3978  5.0111
  641MOL0     H86485   2.250   9.635   7.967 -0.1604  3.4124  0.9316
  641MOL0     H86486   2.495   9.625   7.882  0.4592 -0.9629 -0.6105
  641MOL0     H86487   2.681   9.726   7.535 -1.1052 -3.0592  0.2230
  641MOL0     H86488   2.727   9.767   7.702 -0.8103  0.7938  0.3056
  641MOL0     H86489   2.826   9.535   7.640 -1.2012  0.4269 -1.1378
  641MOL0     H86490   2.717   9.539   7.777 -1.9439 -0.8563 -1.2538
  641MOL0     H86491   2.528   9.434   7.626 -0.2984 -3.3434  0.8260
  641MOL0     H86492   2.688   9.355   7.627  1.5265  1.2688  1.8035
  641MOL0     H86493   2.592   9.555   7.419  3.3412  0.8723  1.1614
  641MOL0     H86494   2.570   9.378   7.404  3.4329 -2.2891  0.4634
  641MOL0     H86495   2.989   9.388   7.324  2.1431  0.1753 -2.9328
  641MOL0     H86496   3.071   9.288   7.107 -0.6974 -0.6716 -4.3533
  641MOL0     H86497   2.959   9.201   6.589 -1.4497  1.4749  0.0906
  641MOL0     H86498   2.966   9.017   6.420 -1.2736  1.6915 -0.9555
  641MOL0     H86499   2.681   8.680   6.431  1.7285  0.0965  0.7169
  641MOL0     H86500   2.643   8.826   6.328  3.1528  3.6427  1.0187
  641MOL0     H86501   2.789   8.575   6.250 -2.6352 -1.0343  1.2233
  641MOL0     H86502   2.664   8.669   6.167 -1.4666  0.1352  1.3943
  641MOL0     H86503   2.944   8.756   6.207 -0.2454  0.1214  0.8624
  641MOL0     H86504   2.883   8.722   6.042  2.9854  0.6663  0.3736
  641MOL0     H86505   2.841   8.969   6.202  0.1251 -0.7769 -0.5153
  641MOL0     H86506   2.706   8.902   6.105 -0.5457  1.2808 -1.0107
  641MOL0     H86507   2.832   9.056   5.961  2.3119  2.3120  0.1739
  641MOL0     H86508   2.873   8.889   5.907  4.6714 -0.0326  0.8445
  641MOL0     H86509   3.078   8.894   6.007 -1.7420 -0.6055  0.7399
  641MOL0     H86510   3.064   9.042   5.911 -1.4157  2.5211  1.1078
  641MOL0     H86511   3.185   9.088   6.103 -0.5419  2.8039  2.3881
  641MOL0     H86512   3.060   9.010   6.199  0.1684  1.2510  0.9430
  641MOL0     H86513   3.019   9.269   6.032  2.6557  0.5598  1.1185
  641MOL0     H86514   2.902   9.215   6.153  0.2265 -1.1521  1.1831
  641MOL0     H86515   2.677   8.790   6.621 -0.2200  0.5346 -0.4498
  641MOL0     H86516   2.661   8.971   6.803  1.1204  0.1081 -0.0107
  641MOL0     H86517   2.647   9.288   6.976  0.1378  0.0120  0.6378
  641MOL0     H86518   2.587   9.405   7.175 -0.3594  0.8008 -0.7421
  641MOL0     H86519   2.764   8.974   7.395 -1.4123 -0.0751  2.7152
  641MOL0     H86520   2.966   8.988   7.273 -0.8512  0.9107 -0.7634
  641MOL0     H86521   3.532   8.939   7.468 -0.1510  0.1601  0.5632
  641MOL0     H86522   3.717   8.886   7.340 -1.9864 -0.3865  2.0140
  641MOL0     H86523   3.799   9.015   6.918  1.2464 -0.8107 -1.9242
  641MOL0     H86524   3.690   8.883   6.878  0.2329 -1.5171  0.0675
  641MOL0     H86525   3.845   8.719   6.934  0.9899 -1.3344  0.1290
  641MOL0     H86526   3.982   8.831   6.938 -0.7379  2.5860 -0.3826
  641MOL0     H86527   3.949   8.916   6.727  0.2112 -0.4794 -2.2003
  641MOL0     H86528   3.807   8.818   6.699  0.8128  1.5502 -1.2688
  641MOL0     H86529   4.095   8.716   6.748 -1.5656 -0.0995  2.0597
  641MOL0     H86530   3.957   8.606   6.716  0.2080 -0.7230  0.7000
  641MOL0     H86531   4.024   8.764   6.324  2.0578  1.3947  0.5067
  641MOL0     H86532   3.501   8.981   6.977 -1.3650  2.0294  0.1260
  641MOL0     H86533   3.203   8.934   7.106  1.3284 -1.3137  0.4444
  641MOL0     H86534   3.228   9.113   7.099  0.0446  0.4168  0.8567
  641MOL0     H86535   3.286   9.010   6.973 -2.5955 -1.7569 -0.4129
  642MOL0     O86536   9.537   1.830   1.426 -0.0525 -0.4422  0.2211
  642MOL0     C86537   9.469   1.828   1.525  0.2000  0.2928 -0.8550
  642MOL0     O86538   9.418   1.947   1.583 -0.2039 -0.0396  0.2601
  642MOL0     C86539   9.479   2.067   1.539  0.8825 -0.1562  0.0673
  642MOL0     C86540   9.601   2.114   1.596 -0.0591  0.4739  0.6471
  642MOL0     C86541   9.662   2.226   1.529  0.6712  0.7410 -0.3485
  642MOL0     C86542   9.603   2.290   1.427  0.1031 -0.2543 -0.8236
  642MOL0     O86543   9.652   2.404   1.379  0.4775 -1.3722 -0.4880
  642MOL0     C86544   9.752   2.484   1.448 -0.0381 -0.3712 -0.2490
  642MOL0     C86545   9.676   2.563   1.562  0.6230  0.1240 -0.6766
  642MOL0     C86546   9.781   2.629   1.645 -0.0174  0.6137 -0.5987
  642MOL0     C86547   9.726   2.729   1.739 -1.3364 -0.5477  0.1970
  642MOL0     C86548   9.832   2.792   1.824 -0.8190 -1.3603  0.1842
  642MOL0     C86549   9.872   2.722   1.956  1.2561 -0.6849  0.3501
  642MOL0     C86550   9.744   2.674   2.040 -0.5330 -0.1371  0.0635
  642MOL0     C86551   9.781   2.622   2.172 -1.5473  0.2505 -0.8613
  642MOL0     N86552   9.840   2.730   2.243  0.0383  0.1409  0.0457
  642MOL0     C86553   9.779   2.823   2.322  0.7890  0.9944 -0.2760
  642MOL0     C86554   9.868   2.871   2.410 -0.2652 -0.7770  1.3176
  642MOL0     C86555   9.833   2.957   2.524  0.4835 -0.0429 -0.8540
  642MOL0     C86556   9.903   3.092   2.516  0.0124  0.3269  0.5652
  642MOL0     C86557   9.899   3.152   2.659 -0.6009  0.3485  0.3559
  642MOL0     C86558  10.018   3.244   2.693 -0.0844  0.4173  0.5077
  642MOL0     O86559  10.140   3.176   2.662  0.1756 -0.1804 -0.1777
  642MOL0     C86560  10.180   3.066   2.735  0.9218 -0.3603 -0.4590
  642MOL0     C86561  10.144   3.058   2.869 -0.3434 -0.0626 -0.1677
  642MOL0     C86562  10.191   2.949   2.938  0.2681  0.9691  0.5100
  642MOL0     C86563  10.260   2.845   2.883 -0.2500 -0.6222  0.1507
  642MOL0     C86564  10.307   2.731   2.954  0.1353  0.8836  0.7024
  642MOL0     O86565  10.444   2.705   2.951 -0.3170  0.5693  0.0533
  642MOL0     C86566  10.476   2.592   3.021  0.2097 -0.0013 -0.2717
  642MOL0     C86567  10.558   2.605   3.137  0.2616 -0.0443  0.2544
  642MOL0     C86568  10.619   2.495   3.195  0.0020 -0.5813  0.2855
  642MOL0     C86569  10.595   2.366   3.140 -0.1798 -0.6646  0.2486
  642MOL0     O86570  10.659   2.265   3.198 -0.2572  0.1912 -0.3680
  642MOL0     C86571  10.584   2.225   3.311  0.2805 -0.2616 -0.2813
  642MOL0     C86572  10.684   2.164   3.415 -0.2276 -0.2821 -0.2350
  642MOL0     C86573  10.761   2.042   3.376 -0.3719 -0.2392  0.5635
  642MOL0     C86574  10.708   1.917   3.442 -0.3516 -0.0621  0.3639
  642MOL0     C86575  10.781   1.793   3.378  0.4035  0.0565  0.3254
  642MOL0     C86576  10.765   1.687   3.490  0.0644  0.3062 -0.0280
  642MOL0     C86577  10.828   1.553   3.450  0.0124  0.2367 -0.2942
  642MOL0     C86578  10.836   1.464   3.578 -0.4635  0.6205 -0.3853
  642MOL0    Cl86579  10.729   1.322   3.580  0.3273  0.5596  0.1236
  642MOL0     C86580  10.507   2.351   3.034 -0.2734  0.7022  0.5282
  642MOL0     C86581  10.455   2.463   2.974  0.6769  1.1311 -0.7967
  642MOL0     O86582  10.224   2.661   3.005 -0.2685  0.3267  0.1406
  642MOL0     C86583  10.294   2.852   2.747  0.7199 -0.2243  0.2355
  642MOL0     C86584  10.262   2.970   2.678  1.0826 -0.3086 -0.3480
  642MOL0     N86585   9.992   2.808   2.376 -0.5684 -0.5185  0.6555
  642MOL0     N86586   9.971   2.722   2.284 -0.4765  0.3692  0.0057
  642MOL0     C86587   9.482   2.244   1.367  0.2942  0.5659 -0.0798
  642MOL0     C86588   9.422   2.128   1.426  1.0055 -0.1300  0.0610
  642MOL0     C86589   9.430   1.699   1.580  0.5428  1.3923  0.0788
  642MOL0     C86590   9.421   1.590   1.488 -0.0705 -0.0610 -0.0513
  642MOL0     C86591   9.354   1.478   1.536  0.1954 -0.6239  0.7138
  642MOL0     C86592   9.314   1.460   1.668  0.7466 -0.0984 -0.6472
  642MOL0     O86593   9.254   1.338   1.697 -0.0721 -0.2192  0.4812
  642MOL0     C86594   9.232   1.295   1.827 -0.2835  0.6550  1.0479
  642MOL0     C86595   9.119   1.185   1.838 -0.2710 -0.0851 -0.2572
  642MOL0     C86596   9.186   1.048   1.835 -0.4376 -0.0869  0.1930
  642MOL0     C86597   9.090   0.934   1.819  0.3103  0.3867  1.6434
  642MOL0     C86598   9.005   0.934   1.927  0.2047  0.7708 -0.0345
  642MOL0     C86599   8.930   0.915   2.024  0.5570  0.7636 -0.0763
  642MOL0     C86600   9.332   1.565   1.756  0.8102 -0.0448  0.6733
  642MOL0     C86601   9.382   1.690   1.716  0.1794 -0.0066 -0.3940
  642MOL0     C86602   9.399   1.787   1.829 -0.5674  0.1365  0.2187
  642MOL0     H86603   9.657   2.067   1.676 -1.2269 -0.7048  0.8090
  642MOL0     H86604   9.758   2.242   1.577  0.5270 -4.1528  2.1934
  642MOL0     H86605   9.828   2.428   1.503  0.4968  0.1743 -0.4291
  642MOL0     H86606   9.793   2.552   1.373  2.4274 -1.6177 -0.1315
  642MOL0     H86607   9.608   2.494   1.612  1.5827 -2.3332 -2.5501
  642MOL0     H86608   9.612   2.641   1.519  0.3440  0.3577  0.1376
  642MOL0     H86609   9.853   2.681   1.581  0.4484  1.1401  0.3207
  642MOL0     H86610   9.835   2.560   1.711 -2.4351  1.5448  2.6003
  642MOL0     H86611   9.685   2.813   1.682  2.3690  3.3429  2.6007
  642MOL0     H86612   9.647   2.682   1.799 -0.6182 -2.7997 -0.5193
  642MOL0     H86613   9.928   2.820   1.779 -2.5113  3.2901 -1.0602
  642MOL0     H86614   9.785   2.889   1.841  3.0193  0.8276 -0.3228
  642MOL0     H86615   9.933   2.638   1.921  3.3163  0.2926  1.3862
  642MOL0     H86616   9.943   2.785   2.011  1.8021  0.3083 -1.4259
  642MOL0     H86617   9.688   2.594   1.993 -1.8628  0.9372 -0.2305
  642MOL0     H86618   9.682   2.763   2.053  1.7248  1.5420 -0.0233
  642MOL0     H86619   9.696   2.578   2.224 -2.7835  0.9627 -2.1901
  642MOL0     H86620   9.862   2.549   2.159  1.7424  3.1369  1.4771
  642MOL0     H86621   9.671   2.837   2.319  0.4279 -0.9568 -4.6266
  642MOL0     H86622   9.725   2.975   2.531 -0.2625 -4.2930  2.1890
  642MOL0     H86623   9.858   2.898   2.612  1.2926 -1.2944 -1.8777
  642MOL0     H86624  10.006   3.093   2.481  0.1517 -2.5594  0.6541
  642MOL0     H86625   9.854   3.154   2.440  1.4305  1.1649  0.2944
  642MOL0     H86626   9.894   3.073   2.735  0.5700 -0.2992 -0.2135
  642MOL0     H86627   9.804   3.205   2.665 -1.7290 -1.5898  0.4427
  642MOL0     H86628  10.008   3.276   2.797 -4.1515 -1.7874  1.0283
  642MOL0     H86629  10.032   3.335   2.633  2.0059  1.0706  1.8742
  642MOL0     H86630  10.087   3.133   2.923 -2.4541 -1.2771 -0.5917
  642MOL0     H86631  10.186   2.956   3.046 -0.4906  1.8531  0.4272
  642MOL0     H86632  10.589   2.708   3.148 -0.4420 -0.0124  2.3579
  642MOL0     H86633  10.698   2.510   3.267  0.5046  0.8236 -0.5325
  642MOL0     H86634  10.536   2.308   3.364  1.1128  0.9250 -1.3286
  642MOL0     H86635  10.516   2.149   3.271  1.5889 -2.7382  1.9258
  642MOL0     H86636  10.757   2.241   3.444 -2.0637  0.5929  2.5097
  642MOL0     H86637  10.619   2.141   3.500  1.3128 -3.5476  0.2017
  642MOL0     H86638  10.745   2.024   3.269  3.1756 -0.8141  0.0006
  642MOL0     H86639  10.869   2.052   3.394 -0.2775  2.2284 -0.9318
  642MOL0     H86640  10.599   1.914   3.430 -0.2691  2.5562 -2.0846
  642MOL0     H86641  10.737   1.913   3.547  1.1085 -2.9045 -0.0273
  642MOL0     H86642  10.890   1.795   3.370  0.6572 -3.8793  0.8616
  642MOL0     H86643  10.729   1.762   3.287  0.1778 -0.5082  0.6425
  642MOL0     H86644  10.820   1.718   3.580  1.7405  1.0262 -1.2286
  642MOL0     H86645  10.665   1.670   3.531  1.0615  2.6510  3.9082
  642MOL0     H86646  10.930   1.573   3.416 -0.1336  1.5216 -0.0255
  642MOL0     H86647  10.766   1.513   3.369  1.4962 -0.6599 -1.0246
  642MOL0     H86648  10.937   1.431   3.604 -0.2182  0.0434 -1.9525
  642MOL0     H86649  10.796   1.512   3.667 -1.3606  0.7926 -0.8683
  642MOL0     H86650  10.485   2.254   2.992 -2.3996  0.5209  1.9129
  642MOL0     H86651  10.391   2.435   2.891 -0.9819 -0.8233  1.0107
  642MOL0     H86652  10.338   2.762   2.704  1.7577 -0.3097  1.4220
  642MOL0     H86653  10.267   2.974   2.570 -0.2728  1.4100 -0.3805
  642MOL0     H86654   9.451   2.293   1.275 -0.6808 -0.2709 -0.2167
  642MOL0     H86655   9.337   2.080   1.380 -3.4353  2.2452  4.7619
  642MOL0     H86656   9.469   1.598   1.391  1.4480 -2.3243  0.4393
  642MOL0     H86657   9.334   1.389   1.476  0.5088  0.4419 -1.0535
  642MOL0     H86658   9.196   1.380   1.886 -1.7001  0.8504 -0.0423
  642MOL0     H86659   9.327   1.255   1.863 -1.0138 -1.4510  0.7594
  642MOL0     H86660   9.050   1.204   1.756 -2.1913  1.0604  1.5224
  642MOL0     H86661   9.073   1.205   1.935 -1.7352  1.2568 -1.1799
  642MOL0     H86662   9.245   1.043   1.927  3.3549 -0.2975 -2.0870
  642MOL0     H86663   9.257   1.041   1.753 -1.4777  0.3457 -0.7801
  642MOL0     H86664   9.038   0.943   1.723 -0.6744  0.4924  2.1738
  642MOL0     H86665   9.148   0.841   1.823 -1.4250 -0.7368  1.8022
  642MOL0     H86666   8.868   0.889   2.108  0.2397  0.1245 -0.4946
  642MOL0     H86667   9.309   1.560   1.862  1.0227 -2.1719  0.6707
  642MOL0     H86668   9.489   1.842   1.801  1.0779 -2.5540 -0.1790
  642MOL0     H86669   9.311   1.852   1.839  0.4751  1.7726 -0.8870
  642MOL0     H86670   9.414   1.742   1.928 -0.6421  1.0949  0.6758
  643MOL0     O86671   2.652   6.239   7.012 -0.6752  0.2585 -0.4688
  643MOL0     C86672   2.660   6.118   6.988 -0.0635 -0.2371 -1.4976
  643MOL0     O86673   2.653   6.024   7.087 -0.3278  0.9101  0.0159
  643MOL0     C86674   2.598   6.063   7.204 -0.0418 -0.1753 -1.1040
  643MOL0     C86675   2.677   6.122   7.299  0.9423 -0.4101  0.4371
  643MOL0     C86676   2.623   6.158   7.424 -0.8418 -0.2675 -0.1296
  643MOL0     C86677   2.493   6.119   7.468 -0.4648 -0.4630 -0.1354
  643MOL0     O86678   2.448   6.130   7.591 -0.3742 -1.0372  0.2040
  643MOL0     C86679   2.458   6.260   7.651 -0.2030 -0.4881  0.3329
  643MOL0     C86680   2.344   6.276   7.758 -0.2734 -0.2083  0.4438
  643MOL0     C86681   2.201   6.253   7.707 -0.1205 -0.3094 -0.2649
  643MOL0     C86682   2.144   6.141   7.792  0.1610  1.1038 -0.2478
  643MOL0     C86683   2.002   6.120   7.736  0.0786 -0.6712  0.0452
  643MOL0     C86684   1.908   6.025   7.822 -0.2151  0.1010  0.4933
  643MOL0     C86685   1.881   6.056   7.963 -0.1707 -0.3657  0.0002
  643MOL0     C86686   1.760   5.967   8.022 -0.3825 -0.3464  0.5076
  643MOL0     N86687   1.626   6.027   7.983  0.0751  0.7768  0.1175
  643MOL0     C86688   1.574   6.062   7.863  0.6612  0.1919 -0.9798
  643MOL0     C86689   1.464   6.135   7.896  0.2979 -0.2900 -1.1392
  643MOL0     C86690   1.373   6.209   7.800 -0.6418 -0.2289 -0.3681
  643MOL0     C86691   1.338   6.354   7.824  0.5673  0.7559 -0.3896
  643MOL0     C86692   1.277   6.383   7.960  0.0372 -0.4746  0.2306
  643MOL0     C86693   1.183   6.507   7.931 -0.4767 -0.0481 -0.4786
  643MOL0     O86694   1.267   6.610   7.875 -0.0644 -0.5677 -0.0243
  643MOL0     C86695   1.317   6.706   7.964  0.5504  0.1771  0.4213
  643MOL0     C86696   1.377   6.817   7.900 -0.4446 -0.7828 -0.1036
  643MOL0     C86697   1.412   6.922   7.974 -0.2729  0.2080  0.1337
  643MOL0     C86698   1.404   6.925   8.113  0.1939  0.0878  0.0018
  643MOL0     C86699   1.468   7.034   8.193  0.0353 -0.1600 -0.1549
  643MOL0     O86700   1.424   7.030   8.330  0.0855  0.3429  0.6804
  643MOL0     C86701   1.493   7.116   8.417  0.0714  0.6033 -0.0730
  643MOL0     C86702   1.574   7.232   8.403 -0.3369  0.5964  0.5206
  643MOL0     C86703   1.645   7.285   8.511 -0.6924  0.5470 -0.1239
  643MOL0     C86704   1.624   7.231   8.634 -0.2479 -0.0500  0.6316
  643MOL0     O86705   1.711   7.287   8.723  0.5093  0.7162 -0.2082
  643MOL0     C86706   1.655   7.313   8.859 -0.6373 -0.2529  0.3827
  643MOL0     C86707   1.761   7.391   8.941  1.3075  0.6554  1.1620
  643MOL0     C86708   1.759   7.541   8.922  0.1725  0.2017 -0.0422
  643MOL0     C86709   1.866   7.604   9.004 -0.1854 -0.8211 -1.4780
  643MOL0     C86710   1.880   7.752   8.971  0.1784  0.7047 -0.6236
  643MOL0     C86711   2.022   7.810   8.996 -0.3326  0.5945 -0.5329
  643MOL0     C86712   2.019   7.961   8.999 -0.1040 -0.1643 -0.3974
  643MOL0     C86713   2.144   8.018   9.047 -0.8383 -0.6419  0.0850
  643MOL0    Cl86714   2.264   7.980   8.907 -0.2832 -0.3042  0.2310
  643MOL0     C86715   1.526   7.133   8.653  0.3583  0.1311 -0.6473
  643MOL0     C86716   1.468   7.073   8.545  0.7361 -1.0194  0.2608
  643MOL0     O86717   1.557   7.099   8.140 -0.0519  0.4701  0.5180
  643MOL0     C86718   1.364   6.809   8.183  0.3852 -0.2918  0.0377
  643MOL0     C86719   1.320   6.700   8.103  0.2386 -0.8447  0.4524
  643MOL0     N86720   1.444   6.130   8.028  0.4381  0.4933  0.3590
  643MOL0     N86721   1.540   6.069   8.082 -0.9794  0.8986 -0.3456
  643MOL0     C86722   2.417   6.055   7.366  0.3206 -0.5397 -0.1305
  643MOL0     C86723   2.467   6.033   7.230 -0.3920  0.4234 -0.5017
  643MOL0     C86724   2.653   6.080   6.854  0.3807 -0.3003  0.0380
  643MOL0     C86725   2.561   5.974   6.825  0.1604  0.2159 -0.6311
  643MOL0     C86726   2.548   5.941   6.693 -1.2730  1.1180 -1.0090
  643MOL0     C86727   2.615   6.002   6.589  0.1920  0.3891  0.3241
  643MOL0     O86728   2.594   5.975   6.452  0.1502  0.2344 -0.6941
  643MOL0     C86729   2.614   5.831   6.430 -0.5174 -0.4797 -0.3937
  643MOL0     C86730   2.492   5.753   6.368  0.3853  0.4076  1.0750
  643MOL0     C86731   2.480   5.795   6.218 -0.4498  0.5479  0.8410
  643MOL0     C86732   2.368   5.722   6.133 -0.7698 -1.6118 -0.3348
  643MOL0     C86733   2.376   5.741   5.983 -0.3059 -0.1944 -0.4100
  643MOL0     C86734   2.376   5.749   5.861 -0.5095 -0.3792  0.3386
  643MOL0     C86735   2.716   6.100   6.621  0.7771  0.2973 -0.0765
  643MOL0     C86736   2.728   6.149   6.750  0.6947  0.1372  0.4697
  643MOL0     C86737   2.821   6.272   6.771 -0.0440 -0.0483 -0.5116
  643MOL0     H86738   2.783   6.141   7.282  1.1295 -1.9681 -0.3744
  643MOL0     H86739   2.695   6.218   7.479  2.7320 -0.8090 -3.8142
  643MOL0     H86740   2.552   6.289   7.698  0.4835  2.1354 -2.3614
  643MOL0     H86741   2.428   6.339   7.582 -1.0504  1.0735  2.3831
  643MOL0     H86742   2.362   6.379   7.791  2.1334 -0.7020  0.8251
  643MOL0     H86743   2.360   6.213   7.846 -0.5512  1.3088  1.6336
  643MOL0     H86744   2.214   6.210   7.607 -2.1447 -0.5819 -0.4418
  643MOL0     H86745   2.136   6.341   7.703  1.0988  0.5640 -2.4278
  643MOL0     H86746   2.203   6.051   7.773  1.3882  1.0611  3.0592
  643MOL0     H86747   2.147   6.161   7.899 -1.2039 -3.5663  0.9098
  643MOL0     H86748   1.942   6.210   7.753 -0.2550 -1.3259  2.7741
  643MOL0     H86749   2.017   6.095   7.631 -0.2335  1.1134 -0.4630
  643MOL0     H86750   1.823   6.022   7.754  2.2952  0.8953 -2.9873
  643MOL0     H86751   1.962   5.930   7.829  1.9941  1.4165  3.5374
  643MOL0     H86752   1.864   6.164   7.960  3.0547  0.3383  1.9374
  643MOL0     H86753   1.979   6.045   8.010  0.2014  3.1449  0.3003
  643MOL0     H86754   1.773   5.859   8.011 -0.7637 -0.1732 -2.4341
  643MOL0     H86755   1.774   5.983   8.129  0.1852  0.1510  0.3638
  643MOL0     H86756   1.597   6.033   7.761 -0.9602  0.2100 -1.3886
  643MOL0     H86757   1.428   6.218   7.705 -2.5926 -2.3637 -1.8083
  643MOL0     H86758   1.285   6.145   7.795 -1.3163  0.7565 -1.7504
  643MOL0     H86759   1.416   6.428   7.807  0.6190  1.2475  1.7372
  643MOL0     H86760   1.265   6.375   7.744  0.5219 -0.4851 -0.7009
  643MOL0     H86761   1.354   6.407   8.034 -0.5794  4.1302 -0.3055
  643MOL0     H86762   1.222   6.299   8.003 -0.2293 -0.5417 -0.2331
  643MOL0     H86763   1.139   6.540   8.026  2.9473  0.3199  1.1211
  643MOL0     H86764   1.104   6.488   7.857 -0.1792  0.1220 -0.8419
  643MOL0     H86765   1.367   6.832   7.793 -2.8997  1.1297  0.2869
  643MOL0     H86766   1.445   7.012   7.923 -1.1264  2.0615  2.6759
  643MOL0     H86767   1.591   7.275   8.305  1.8652  0.9669  1.0129
  643MOL0     H86768   1.713   7.368   8.495 -0.5618  0.4453 -0.0950
  643MOL0     H86769   1.569   7.380   8.850 -0.4331  0.3023  2.2812
  643MOL0     H86770   1.629   7.217   8.905  2.1889 -0.1494  2.4968
  643MOL0     H86771   1.726   7.355   9.038 -2.5316  3.3817  0.9934
  643MOL0     H86772   1.858   7.346   8.914  0.0748 -2.1464  1.0147
  643MOL0     H86773   1.763   7.550   8.813 -0.7881 -0.8912 -0.1949
  643MOL0     H86774   1.663   7.570   8.967  1.6295  0.9735  2.7846
  643MOL0     H86775   1.956   7.546   8.984  1.3139  1.5570 -2.0289
  643MOL0     H86776   1.834   7.600   9.108 -3.2005  3.4130 -1.9557
  643MOL0     H86777   1.806   7.808   9.029 -0.5395 -0.7132 -0.1220
  643MOL0     H86778   1.859   7.782   8.868 -0.9219  2.8840  0.1695
  643MOL0     H86779   2.057   7.776   9.094 -4.4195 -0.8600  0.6292
  643MOL0     H86780   2.082   7.759   8.920 -2.1957 -1.3490 -0.8322
  643MOL0     H86781   1.937   7.986   9.068  0.3632 -1.0474  0.4972
  643MOL0     H86782   1.987   8.014   8.909 -0.7752  0.5232  0.2220
  643MOL0     H86783   2.143   8.127   9.062 -0.6403 -0.6520  0.1800
  643MOL0     H86784   2.182   7.973   9.139 -1.4660 -1.4700 -0.0528
  643MOL0     H86785   1.499   7.093   8.750  1.4297 -3.2729 -1.6388
  643MOL0     H86786   1.402   6.991   8.571 -0.6637  0.4800  1.6624
  643MOL0     H86787   1.378   6.796   8.290 -0.9240  0.3797  0.3144
  643MOL0     H86788   1.290   6.605   8.147  2.9182 -1.5251  0.9770
  643MOL0     H86789   2.319   6.025   7.404 -0.0013  2.3794  1.6753
  643MOL0     H86790   2.395   5.980   7.169 -0.8777  0.9785 -0.4304
  643MOL0     H86791   2.486   5.942   6.897 -0.1155 -1.0309 -1.4294
  643MOL0     H86792   2.469   5.870   6.670 -0.9833  0.9310 -1.4170
  643MOL0     H86793   2.649   5.779   6.519 -0.1152  1.3040  0.5160
  643MOL0     H86794   2.699   5.834   6.361  0.6158  2.3470  1.0021
  643MOL0     H86795   2.400   5.778   6.422  0.0571 -0.5906  1.0027
  643MOL0     H86796   2.507   5.645   6.375  3.2697  0.5105 -1.5206
  643MOL0     H86797   2.574   5.763   6.173  0.1382 -0.9551  2.9889
  643MOL0     H86798   2.476   5.905   6.219  2.5324  0.7658 -0.7171
  643MOL0     H86799   2.371   5.613   6.143  2.5896 -1.7244 -1.3317
  643MOL0     H86800   2.274   5.760   6.173 -1.2606 -0.6619 -2.2977
  643MOL0     H86801   2.373   5.768   5.755 -2.3124  3.0367  0.8722
  643MOL0     H86802   2.772   6.147   6.542  1.9054  1.1224  1.1713
  643MOL0     H86803   2.915   6.261   6.717  0.5580 -1.2953  0.7227
  643MOL0     H86804   2.770   6.365   6.744 -3.5576 -1.6534  0.0368
  643MOL0     H86805   2.858   6.296   6.871 -1.6449  3.5626 -0.6393
  644MOL0     O86806   5.781   0.759   1.648 -0.6798  0.5859  0.6136
  644MOL0     C86807   5.809   0.706   1.749 -0.7934  0.3370 -0.0546
  644MOL0     O86808   5.728   0.711   1.862 -1.1284  0.4023  0.3191
  644MOL0     C86809   5.593   0.763   1.850 -0.7295  0.0432 -0.6621
  644MOL0     C86810   5.552   0.854   1.946 -0.3289  0.9582 -0.4563
  644MOL0     C86811   5.427   0.912   1.935  0.0508  0.8192  0.4338
  644MOL0     C86812   5.342   0.868   1.836  0.2402  0.8557 -1.1343
  644MOL0     O86813   5.220   0.926   1.830  0.3227 -0.0125  0.1674
  644MOL0     C86814   5.169   0.948   1.697 -0.0801 -0.6155  0.3245
  644MOL0     C86815   5.061   1.062   1.702  0.2748 -0.7413 -0.1099
  644MOL0     C86816   4.950   1.051   1.809 -0.3467  0.0137  0.1036
  644MOL0     C86817   4.831   1.153   1.794 -0.5589  0.2167  0.4235
  644MOL0     C86818   4.709   1.142   1.885  0.4024  0.0741 -0.3423
  644MOL0     C86819   4.747   1.192   2.016 -0.4919 -0.5858 -0.9403
  644MOL0     C86820   4.630   1.168   2.113 -0.2299  0.8165  0.4585
  644MOL0     C86821   4.671   1.244   2.239 -0.5200 -0.2280 -0.1360
  644MOL0     N86822   4.661   1.384   2.222 -0.9835  0.1794 -0.0187
  644MOL0     C86823   4.545   1.456   2.193 -0.7154 -0.5772  0.8416
  644MOL0     C86824   4.584   1.585   2.182  0.7112  0.2407  0.0429
  644MOL0     C86825   4.482   1.700   2.173  0.7142 -0.2439  0.3537
  644MOL0     C86826   4.404   1.711   2.312 -0.4265  0.5694  0.2166
  644MOL0     C86827   4.302   1.815   2.312 -0.1604  0.2153  0.7913
  644MOL0     C86828   4.249   1.833   2.459 -0.7185  1.4855  0.7023
  644MOL0     O86829   4.199   1.962   2.483 -0.1845 -0.6224  0.2400
  644MOL0     C86830   4.080   2.004   2.440  1.1245 -0.1798  0.0220
  644MOL0     C86831   3.982   1.923   2.382  0.2998  0.1448 -0.2481
  644MOL0     C86832   3.871   1.983   2.326  0.2500  0.4209 -0.1660
  644MOL0     C86833   3.836   2.118   2.352  0.6155  0.7447 -0.1942
  644MOL0     C86834   3.714   2.193   2.300  0.2123  0.2663  0.8421
  644MOL0     O86835   3.642   2.116   2.202  0.5508  0.2137 -0.0890
  644MOL0     C86836   3.546   2.155   2.113  0.1723 -0.9071  0.4239
  644MOL0     C86837   3.552   2.110   1.979  0.0912 -0.4296 -0.3012
  644MOL0     C86838   3.442   2.111   1.890  0.3812  0.5942 -0.4652
  644MOL0     C86839   3.327   2.181   1.937  0.1458  0.6434  1.2669
  644MOL0     O86840   3.220   2.197   1.845 -0.2044 -0.0138 -0.7117
  644MOL0     C86841   3.093   2.144   1.887  0.6525 -0.0877 -0.1801
  644MOL0     C86842   3.005   2.193   1.773 -0.3460 -0.0976  0.7055
  644MOL0     C86843   2.854   2.176   1.797  0.5603  0.1539  0.0875
  644MOL0     C86844   2.789   2.044   1.775  0.4891  0.0647  0.3706
  644MOL0     C86845   2.642   2.035   1.811 -1.2425  0.7250 -0.3110
  644MOL0     C86846   2.621   2.035   1.965  0.0376 -0.1577  0.4465
  644MOL0     C86847   2.481   1.956   1.996 -0.1710 -0.4948  0.1746
  644MOL0     C86848   2.495   1.803   1.991  0.3987  0.4901 -0.1161
  644MOL0    Cl86849   2.610   1.764   2.123  0.3756 -0.1217 -0.0797
  644MOL0     C86850   3.324   2.244   2.065 -0.5991 -0.1430 -0.7995
  644MOL0     C86851   3.433   2.223   2.155 -1.0432  0.6970  0.5146
  644MOL0     O86852   3.689   2.301   2.346  0.4034  0.3639  0.4350
  644MOL0     C86853   3.942   2.194   2.412 -0.3440 -0.0120 -0.7800
  644MOL0     C86854   4.057   2.136   2.465  0.1810  0.2233  0.1316
  644MOL0     N86855   4.721   1.596   2.195 -1.2956  0.1512  0.0832
  644MOL0     N86856   4.767   1.477   2.228  0.1863  0.6637 -0.1627
  644MOL0     C86857   5.377   0.769   1.746 -0.7859 -0.4452  0.6033
  644MOL0     C86858   5.502   0.710   1.756 -0.0101  0.2570  0.5594
  644MOL0     C86859   5.947   0.629   1.753  0.1763  0.4000  0.0550
  644MOL0     C86860   5.965   0.529   1.848  0.0496  0.2759 -0.3479
  644MOL0     C86861   6.076   0.447   1.858  0.6805  0.4145  0.1331
  644MOL0     C86862   6.174   0.454   1.772  0.0471  0.2321  0.1674
  644MOL0     O86863   6.284   0.369   1.785  0.3224  0.2948  0.8560
  644MOL0     C86864   6.410   0.425   1.741  0.1576  0.0785 -0.0600
  644MOL0     C86865   6.522   0.348   1.799 -0.3226 -0.3968 -0.2566
  644MOL0     C86866   6.546   0.216   1.729  1.5238  0.3217 -0.1881
  644MOL0     C86867   6.598   0.225   1.581  0.0659  1.4297  0.6713
  644MOL0     C86868   6.710   0.315   1.536 -0.1760 -0.0900 -0.6779
  644MOL0     C86869   6.807   0.381   1.505  0.0935 -1.2393 -0.2887
  644MOL0     C86870   6.158   0.539   1.668  0.0301  0.8150  0.9076
  644MOL0     C86871   6.047   0.617   1.647  0.2695 -0.3693 -0.2646
  644MOL0     C86872   6.049   0.704   1.524  0.8236 -0.0125 -1.4163
  644MOL0     H86873   5.615   0.884   2.029 -1.4686 -3.6547  2.4237
  644MOL0     H86874   5.389   0.978   2.012  1.3760  0.3234  1.5409
  644MOL0     H86875   5.246   0.969   1.623  0.4769 -3.6533 -0.0491
  644MOL0     H86876   5.115   0.859   1.664  3.0853 -2.3806 -0.3706
  644MOL0     H86877   5.015   1.064   1.603 -0.6572  1.5612  0.2948
  644MOL0     H86878   5.123   1.151   1.714  0.3643 -0.9676  1.3048
  644MOL0     H86879   4.990   1.055   1.911  2.7520 -1.8369 -0.8765
  644MOL0     H86880   4.913   0.949   1.795  0.2067 -0.1389 -0.3090
  644MOL0     H86881   4.879   1.250   1.809  0.9193 -0.8103  2.9521
  644MOL0     H86882   4.805   1.143   1.688 -1.1798  1.3113  0.4601
  644MOL0     H86883   4.631   1.208   1.845 -1.3126  0.3249  3.0572
  644MOL0     H86884   4.668   1.042   1.896  1.9671 -0.3141  2.8818
  644MOL0     H86885   4.839   1.147   2.054 -2.1628 -2.6438  1.0010
  644MOL0     H86886   4.769   1.298   2.001 -0.5358 -0.1136  1.8765
  644MOL0     H86887   4.623   1.060   2.127  1.2353  0.4382 -1.2268
  644MOL0     H86888   4.540   1.203   2.062  1.2593  3.8246 -0.3872
  644MOL0     H86889   4.602   1.200   2.311 -1.6841  1.0044 -0.4661
  644MOL0     H86890   4.775   1.230   2.269 -0.5589  2.6352  1.6629
  644MOL0     H86891   4.443   1.420   2.199 -1.2207  0.3744 -1.2098
  644MOL0     H86892   4.516   1.802   2.153 -0.8211  0.1841 -0.1761
  644MOL0     H86893   4.412   1.688   2.090  1.6481  3.3129 -1.1669
  644MOL0     H86894   4.371   1.614   2.350  3.7706 -1.1596  0.0689
  644MOL0     H86895   4.483   1.755   2.374 -0.6511  0.8558  0.2973
  644MOL0     H86896   4.227   1.783   2.240  2.4951 -0.5194 -1.8355
  644MOL0     H86897   4.353   1.903   2.270  1.0968 -2.1336 -3.0589
  644MOL0     H86898   4.338   1.828   2.523 -0.8210 -1.7606  0.7398
  644MOL0     H86899   4.177   1.754   2.479  0.1954  0.2279 -0.8009
  644MOL0     H86900   4.007   1.820   2.358 -1.6648 -0.2547 -0.8193
  644MOL0     H86901   3.794   1.919   2.284 -0.8820  1.5217  0.1828
  644MOL0     H86902   3.638   2.050   1.954 -0.6599 -2.0805  0.9245
  644MOL0     H86903   3.437   2.055   1.797 -2.6024  0.3181 -0.2474
  644MOL0     H86904   3.076   2.037   1.872 -3.8652  0.5830 -1.5234
  644MOL0     H86905   3.054   2.168   1.986  0.4438 -1.1293  0.0051
  644MOL0     H86906   3.027   2.299   1.754 -0.3744  0.0074  1.2409
  644MOL0     H86907   3.024   2.145   1.677  1.6739  3.1127 -0.6705
  644MOL0     H86908   2.834   2.213   1.898  1.0253 -1.0131  0.6240
  644MOL0     H86909   2.794   2.245   1.737 -1.2500 -0.5582  1.0040
  644MOL0     H86910   2.834   1.965   1.836  1.1604  0.4518  0.3867
  644MOL0     H86911   2.804   2.013   1.672  0.5454 -0.8820  0.6535
  644MOL0     H86912   2.600   1.950   1.756 -0.7722 -0.3671  0.9569
  644MOL0     H86913   2.592   2.115   1.755  1.3972  2.0651 -0.9318
  644MOL0     H86914   2.703   1.984   2.015 -1.5341 -2.2689  0.9819
  644MOL0     H86915   2.610   2.135   2.009  1.9938  0.1841  0.2318
  644MOL0     H86916   2.412   1.985   1.916 -1.2368  0.9653  1.5762
  644MOL0     H86917   2.449   1.991   2.094 -0.0621 -0.2541  0.1262
  644MOL0     H86918   2.399   1.752   2.002 -1.0654  2.8873 -1.0308
  644MOL0     H86919   2.522   1.760   1.895  0.1441  1.6239 -0.7158
  644MOL0     H86920   3.233   2.291   2.102 -0.1064 -1.5052  2.5055
  644MOL0     H86921   3.427   2.262   2.256  0.1435 -0.8668  1.2298
  644MOL0     H86922   3.922   2.299   2.432 -1.3444  0.5997 -4.2353
  644MOL0     H86923   4.130   2.190   2.523 -1.2319  0.0694  2.1813
  644MOL0     H86924   5.315   0.737   1.663 -0.2242  0.7916 -0.3315
  644MOL0     H86925   5.534   0.630   1.691  0.6415  1.4728 -0.6550
  644MOL0     H86926   5.890   0.511   1.924 -0.3674  1.2683 -0.4970
  644MOL0     H86927   6.097   0.383   1.943  0.4258 -1.3419 -1.0738
  644MOL0     H86928   6.427   0.527   1.775 -0.9738 -0.3476  1.9157
  644MOL0     H86929   6.420   0.407   1.633  0.1784  1.9781 -0.4088
  644MOL0     H86930   6.514   0.333   1.907  0.1814 -2.1858 -0.4354
  644MOL0     H86931   6.610   0.410   1.781 -0.1547 -1.0681 -1.9210
  644MOL0     H86932   6.458   0.151   1.736  2.1786 -0.5135  0.5135
  644MOL0     H86933   6.626   0.160   1.778 -0.2271 -3.1757 -0.9679
  644MOL0     H86934   6.625   0.120   1.567 -0.0130  1.1550  2.3664
  644MOL0     H86935   6.519   0.244   1.508  2.6391 -0.4963 -2.9674
  644MOL0     H86936   6.873   0.448   1.454 -2.7593 -1.1768 -4.3884
  644MOL0     H86937   6.232   0.549   1.589  1.1473  0.4217  1.8749
  644MOL0     H86938   6.116   0.665   1.448 -3.4636 -3.4962 -3.8481
  644MOL0     H86939   5.948   0.702   1.481 -0.4518 -1.3292  1.3296
  644MOL0     H86940   6.071   0.807   1.553  2.0123 -0.5384 -0.3419
  645MOL0     O86941  11.361   4.511   8.818 -0.4678 -0.1379  0.8359
  645MOL0     C86942  11.318   4.407   8.867  0.5910  0.0980  0.9744
  645MOL0     O86943  11.373   4.277   8.852  0.3144  0.0365  0.0720
  645MOL0     C86944  11.485   4.257   8.779  0.3262  0.1594  0.6549
  645MOL0     C86945  11.494   4.323   8.661 -0.0904 -0.0683 -0.0693
  645MOL0     C86946  11.602   4.314   8.578 -0.6405  0.7505 -0.4205
  645MOL0     C86947  11.684   4.212   8.599 -0.5019 -0.3177  0.7211
  645MOL0     O86948  11.800   4.205   8.521 -0.1348  1.1087  1.0360
  645MOL0     C86949  11.791   4.210   8.378 -0.9288  0.1652  0.3591
  645MOL0     C86950  11.699   4.095   8.333  0.1407  0.3445 -1.2304
  645MOL0     C86951  11.771   3.962   8.348 -0.4521 -0.5268  0.0778
  645MOL0     C86952  11.692   3.848   8.278 -0.0653 -1.1802 -0.1464
  645MOL0     C86953  11.782   3.730   8.268  0.3161 -0.6238  0.6262
  645MOL0     C86954  11.699   3.612   8.216  0.5897  0.1091 -0.5060
  645MOL0     C86955  11.791   3.485   8.184  1.0497 -0.0601 -0.3057
  645MOL0     C86956  11.702   3.361   8.163 -0.5266  0.7489  0.4313
  645MOL0     N86957  11.791   3.244   8.152 -0.3839 -0.8358 -0.0669
  645MOL0     C86958  11.831   3.181   8.031  0.2084 -0.9196 -0.7339
  645MOL0     C86959  11.937   3.107   8.063 -0.4300 -0.3179 -0.0514
  645MOL0     C86960  12.019   3.014   7.982 -0.0129  0.1844  0.6589
  645MOL0     C86961  12.089   3.087   7.857  0.3190 -1.1396 -0.6888
  645MOL0     C86962  12.189   3.198   7.894  0.8938 -0.0257 -0.2499
  645MOL0     C86963  12.326   3.169   7.943  0.0001 -0.7553 -0.9635
  645MOL0     O86964  12.321   3.061   8.035  0.3424  0.0488  0.1948
  645MOL0     C86965  12.442   2.994   8.059  0.4155  0.1191 -0.3541
  645MOL0     C86966  12.436   2.864   8.113 -0.8565 -0.7973  0.2261
  645MOL0     C86967  12.545   2.795   8.166  0.4824 -0.2405  0.3585
  645MOL0     C86968  12.672   2.838   8.141 -0.6510 -0.2188  0.2812
  645MOL0     C86969  12.786   2.767   8.200 -0.1399 -0.8134 -0.0529
  645MOL0     O86970  12.904   2.817   8.188 -0.3256 -0.2833 -0.0980
  645MOL0     C86971  13.017   2.758   8.242 -0.4207 -0.3194  0.0157
  645MOL0     C86972  13.105   2.701   8.155 -1.1274 -0.2482  0.1304
  645MOL0     C86973  13.223   2.649   8.205 -0.9634 -0.4367  0.5130
  645MOL0     C86974  13.252   2.655   8.351 -0.5616 -0.7338  0.4906
  645MOL0     O86975  13.364   2.594   8.390 -0.3813  0.2219  0.0310
  645MOL0     C86976  13.486   2.588   8.300  0.8276  0.9529 -0.6307
  645MOL0     C86977  13.551   2.446   8.306 -0.1792 -0.4569 -0.0081
  645MOL0     C86978  13.463   2.335   8.261  0.2619  0.6104 -0.5525
  645MOL0     C86979  13.521   2.190   8.268 -0.8988 -0.4913  0.0268
  645MOL0     C86980  13.426   2.088   8.221  0.2744  0.5172 -0.7391
  645MOL0     C86981  13.480   1.947   8.247 -0.3924  0.0398  0.1379
  645MOL0     C86982  13.399   1.822   8.199 -0.0347  0.7194 -0.1233
  645MOL0     C86983  13.489   1.694   8.213  0.3819 -0.2054 -0.6231
  645MOL0    Cl86984  13.378   1.556   8.207 -0.0422 -0.6388  0.2609
  645MOL0     C86985  13.155   2.707   8.442  0.2733  0.2137  0.6345
  645MOL0     C86986  13.046   2.768   8.380 -0.1676  0.2099 -0.0013
  645MOL0     O86987  12.757   2.651   8.247  0.5644 -0.0057  0.5083
  645MOL0     C86988  12.680   2.965   8.080 -0.1756  0.1538  0.9121
  645MOL0     C86989  12.571   3.044   8.037  0.5673 -0.0741  0.2104
  645MOL0     N86990  11.970   3.140   8.191  0.1052  0.4462 -0.5866
  645MOL0     N86991  11.885   3.218   8.246  0.5534 -0.1380 -0.0029
  645MOL0     C86992  11.666   4.145   8.716 -0.6297  0.4067 -0.9600
  645MOL0     C86993  11.571   4.164   8.809  0.1470  0.0900  0.4781
  645MOL0     C86994  11.198   4.402   8.946  0.7619 -0.2599  0.3422
  645MOL0     C86995  11.156   4.522   9.006  0.5556  0.3245 -0.5907
  645MOL0     C86996  11.033   4.527   9.073 -0.6869  0.3204  0.2504
  645MOL0     C86997  10.946   4.426   9.069  0.6912 -0.2152  0.7427
  645MOL0     O86998  10.826   4.437   9.115 -0.2943  0.4814 -0.0192
  645MOL0     C86999  10.726   4.441   9.013  0.2680  0.3768  0.6675
  645MOL0     C87000  10.589   4.460   9.070  0.4516 -0.3455 -1.1452
  645MOL0     C87001  10.594   4.559   9.191  0.6189  0.2265  0.5545
  645MOL0     C87002  10.606   4.704   9.134 -0.0092  0.2743 -0.3262
  645MOL0     C87003  10.477   4.745   9.079  0.6655  1.2174 -0.1340
  645MOL0     C87004  10.366   4.774   9.045 -0.1051 -0.4605  0.0848
  645MOL0     C87005  10.984   4.306   9.011 -0.3680  0.0039 -0.1456
  645MOL0     C87006  11.115   4.286   8.958 -0.6054 -0.8008 -0.8028
  645MOL0     C87007  11.151   4.146   8.922  0.0185 -0.4696 -0.0845
  645MOL0     H87008  11.433   4.405   8.624 -1.6755 -1.8226 -1.5181
  645MOL0     H87009  11.618   4.380   8.493  0.3514 -0.4171 -1.1675
  645MOL0     H87010  11.747   4.306   8.350 -0.9798  0.5011  1.5650
  645MOL0     H87011  11.888   4.200   8.329 -1.3275 -1.3816 -0.1921
  645MOL0     H87012  11.695   4.107   8.225 -2.0040 -1.6879 -1.4556
  645MOL0     H87013  11.598   4.112   8.374 -0.9222 -1.0974 -3.1156
  645MOL0     H87014  11.787   3.930   8.451 -0.3256 -1.9365 -0.3454
  645MOL0     H87015  11.872   3.968   8.307  1.0823  0.3219  3.6276
  645MOL0     H87016  11.604   3.820   8.336  0.1416 -0.4007  0.5621
  645MOL0     H87017  11.652   3.880   8.181 -0.8099 -0.1906  0.4746
  645MOL0     H87018  11.868   3.742   8.202  0.4591 -3.0554  0.2511
  645MOL0     H87019  11.825   3.707   8.366  0.6542 -0.6581  0.4674
  645MOL0     H87020  11.636   3.570   8.295  1.0207 -0.1903 -0.3159
  645MOL0     H87021  11.642   3.649   8.130 -0.0817  0.0729 -0.0820
  645MOL0     H87022  11.873   3.474   8.255 -0.0527 -0.1174  1.0114
  645MOL0     H87023  11.833   3.515   8.088  1.5433  2.1486  0.5359
  645MOL0     H87024  11.637   3.348   8.250  0.5299 -0.8743  1.0095
  645MOL0     H87025  11.658   3.375   8.063  1.9389  1.1784 -0.6703
  645MOL0     H87026  11.784   3.197   7.934 -0.3281  1.1676 -0.1923
  645MOL0     H87027  12.093   2.958   8.040 -1.1101 -3.3897 -1.1449
  645MOL0     H87028  11.939   2.955   7.938  0.8842  1.2325 -2.6814
  645MOL0     H87029  12.143   3.010   7.800  1.8005 -0.9503  0.4059
  645MOL0     H87030  12.008   3.135   7.802 -0.7063  0.5970  2.1357
  645MOL0     H87031  12.141   3.258   7.972  0.7238  0.7129 -0.9011
  645MOL0     H87032  12.215   3.255   7.804 -0.3306 -2.4554 -2.2818
  645MOL0     H87033  12.345   3.263   7.996 -2.6088 -0.3837 -0.5396
  645MOL0     H87034  12.395   3.154   7.859 -1.5774 -2.1076 -2.0967
  645MOL0     H87035  12.335   2.830   8.132 -0.5305 -2.8190 -1.3176
  645MOL0     H87036  12.527   2.692   8.195  0.9628 -0.5229 -0.3251
  645MOL0     H87037  13.095   2.681   8.049  1.5545  0.1986 -0.2708
  645MOL0     H87038  13.285   2.587   8.141 -0.5398 -0.4920  0.9685
  645MOL0     H87039  13.466   2.606   8.194 -1.9877  0.4383 -0.2641
  645MOL0     H87040  13.570   2.654   8.323 -1.1987  4.4537 -2.3136
  645MOL0     H87041  13.640   2.449   8.243  2.1325  1.5550  3.0623
  645MOL0     H87042  13.594   2.417   8.403  0.4583 -1.5443 -0.5964
  645MOL0     H87043  13.375   2.329   8.325  2.2327 -0.3313  2.2968
  645MOL0     H87044  13.422   2.349   8.161  1.4350  1.2297 -0.9682
  645MOL0     H87045  13.544   2.175   8.374  1.7210  0.7315 -0.2746
  645MOL0     H87046  13.622   2.196   8.227 -0.1832  4.0376  1.7625
  645MOL0     H87047  13.414   2.097   8.112  0.4218  1.6078 -0.6760
  645MOL0     H87048  13.331   2.098   8.274 -1.7190 -0.6324 -3.7841
  645MOL0     H87049  13.579   1.939   8.201 -1.2373  1.0193 -1.9743
  645MOL0     H87050  13.499   1.948   8.355  0.4554 -1.4125  0.0211
  645MOL0     H87051  13.371   1.829   8.094 -0.0743  1.6581 -0.0602
  645MOL0     H87052  13.309   1.812   8.260 -0.3722 -2.3314 -0.9553
  645MOL0     H87053  13.558   1.695   8.128 -1.5563  3.0929 -2.3789
  645MOL0     H87054  13.542   1.705   8.308 -2.5028  0.4042  1.0091
  645MOL0     H87055  13.170   2.716   8.549 -0.0034  3.0368  0.5280
  645MOL0     H87056  12.980   2.819   8.450  0.6425  0.3135  0.7062
  645MOL0     H87057  12.768   3.028   8.072 -0.5808  0.5022 -2.0728
  645MOL0     H87058  12.578   3.150   8.017 -1.0705  0.6905  3.1507
  645MOL0     H87059  11.742   4.073   8.744 -1.2030 -0.9984 -2.7888
  645MOL0     H87060  11.571   4.092   8.890  2.5060  0.0330  0.4762
  645MOL0     H87061  11.206   4.617   8.995  2.4528 -0.7029 -1.4780
  645MOL0     H87062  10.997   4.621   9.114  0.3293  1.7506 -1.9132
  645MOL0     H87063  10.720   4.344   8.964 -3.0578  0.3905  0.8090
  645MOL0     H87064  10.735   4.519   8.937  0.5010 -0.6464 -0.3832
  645MOL0     H87065  10.564   4.359   9.105 -1.2943 -0.2805 -2.0749
  645MOL0     H87066  10.519   4.496   8.995 -1.0710 -0.8225 -0.0168
  645MOL0     H87067  10.681   4.541   9.254  1.3089 -1.3495 -0.7541
  645MOL0     H87068  10.514   4.538   9.263 -1.3088  1.8541 -0.9836
  645MOL0     H87069  10.644   4.763   9.218  0.7037 -0.2661 -0.2618
  645MOL0     H87070  10.696   4.700   9.071  0.8660 -1.8353  0.9479
  645MOL0     H87071  10.266   4.782   9.008  0.4614  0.8072 -1.3013
  645MOL0     H87072  10.919   4.219   9.005 -0.2561  0.0228 -2.5448
  645MOL0     H87073  11.190   4.142   8.820  0.6630  2.3319 -0.0188
  645MOL0     H87074  11.239   4.123   8.983 -0.5216 -0.3941  0.7476
  645MOL0     H87075  11.065   4.081   8.941  0.5264 -0.1909  3.9752
  646MOL0     O87076  10.585   1.015   7.155 -0.2565 -0.3927  0.4013
  646MOL0     C87077  10.474   1.001   7.208  1.8834 -0.1922  0.5032
  646MOL0     O87078  10.454   0.962   7.338 -0.4034  0.0239  0.6133
  646MOL0     C87079  10.568   0.939   7.422 -0.7415 -0.0429  0.5170
  646MOL0     C87080  10.635   0.811   7.422  0.0075  0.1016 -0.1172
  646MOL0     C87081  10.745   0.785   7.501  0.6906  0.0027  0.0704
  646MOL0     C87082  10.778   0.873   7.601 -1.0133  1.3052  0.1524
  646MOL0     O87083  10.879   0.842   7.694 -0.1730 -0.0126  0.0282
  646MOL0     C87084  10.835   0.779   7.815 -0.6792  0.0244  0.2184
  646MOL0     C87085  10.942   0.787   7.916  0.0710 -0.6912 -0.0562
  646MOL0     C87086  10.920   0.691   8.039  0.9707 -0.4090 -0.4535
  646MOL0     C87087  11.041   0.654   8.118  0.1157 -0.1059  0.0742
  646MOL0     C87088  11.023   0.554   8.228 -0.1826  0.5519 -0.4139
  646MOL0     C87089  10.928   0.578   8.346  0.4529 -0.0769 -0.2622
  646MOL0     C87090  10.953   0.490   8.474 -0.3836 -0.7636  1.0363
  646MOL0     C87091  10.918   0.343   8.445  0.1587 -0.0258  0.1450
  646MOL0     N87092  10.773   0.324   8.418  0.1709  0.7889 -0.5426
  646MOL0     C87093  10.725   0.286   8.300  0.6003 -0.7007  0.3032
  646MOL0     C87094  10.593   0.272   8.319 -0.2946  0.1158  0.1312
  646MOL0     C87095  10.482   0.230   8.221 -0.7437 -0.9728  0.2037
  646MOL0     C87096  10.530   0.118   8.134  0.2358  0.6072 -0.3817
  646MOL0     C87097  10.424   0.062   8.036  0.8228  0.1873 -0.0770
  646MOL0     C87098  10.407   0.155   7.914  0.0311 -0.3647  0.9738
  646MOL0     O87099  10.320   0.262   7.952 -0.9491 -0.4156 -0.7990
  646MOL0     C87100  10.246   0.323   7.857 -0.6260 -0.0449 -0.9619
  646MOL0     C87101  10.136   0.404   7.898 -0.2405 -0.9996  0.0929
  646MOL0     C87102  10.054   0.466   7.805 -0.7997 -0.5246 -0.0567
  646MOL0     C87103  10.067   0.427   7.670  0.3482 -0.0155  0.6381
  646MOL0     C87104   9.989   0.497   7.566 -0.2923 -0.6763 -0.4192
  646MOL0     O87105   9.934   0.616   7.606 -0.7242  0.0619 -0.0203
  646MOL0     C87106   9.844   0.682   7.525 -0.1057  0.7262  0.2468
  646MOL0     C87107   9.712   0.649   7.543 -0.1078 -0.2210  0.8777
  646MOL0     C87108   9.620   0.694   7.448  0.0404  0.3671 -1.1449
  646MOL0     C87109   9.651   0.770   7.338  0.4256 -0.5619  0.9178
  646MOL0     O87110   9.557   0.797   7.240  0.1075 -1.0763 -0.4333
  646MOL0     C87111   9.529   0.938   7.204 -0.1201  0.3339 -0.2413
  646MOL0     C87112   9.392   0.933   7.124 -0.1343  0.5000 -0.5468
  646MOL0     C87113   9.409   0.912   6.971  0.7172 -0.4969  0.2944
  646MOL0     C87114   9.274   0.868   6.912  0.2173 -1.1380 -0.5965
  646MOL0     C87115   9.172   0.988   6.899  0.6318  0.3415  0.2637
  646MOL0     C87116   9.038   0.940   6.819 -1.3284 -0.1529 -0.7766
  646MOL0     C87117   8.928   1.051   6.805  0.3004 -0.2968  0.0448
  646MOL0     C87118   8.872   1.049   6.651  0.2033  0.4193  0.7391
  646MOL0    Cl87119   8.731   1.152   6.626 -0.4900 -0.1488  0.0007
  646MOL0     C87120   9.782   0.817   7.335  0.0277  0.2202  0.5216
  646MOL0     C87121   9.882   0.763   7.425 -0.7794 -0.2162  0.3395
  646MOL0     O87122   9.969   0.445   7.457  0.3066  0.5273  0.6680
  646MOL0     C87123  10.149   0.323   7.629 -0.5185  0.7452  0.0943
  646MOL0     C87124  10.247   0.283   7.722 -1.0126 -1.1891  0.1795
  646MOL0     N87125  10.568   0.290   8.451  0.2583 -0.5570  1.1072
  646MOL0     N87126  10.680   0.329   8.508  0.3681  0.2990  0.2381
  646MOL0     C87127  10.721   1.004   7.603  0.6274 -0.0207  0.7567
  646MOL0     C87128  10.617   1.039   7.508  0.0755 -0.2875  0.0778
  646MOL0     C87129  10.349   1.061   7.139  0.2724  0.1466  0.3438
  646MOL0     C87130  10.229   1.059   7.213  1.3642  0.4881  0.5534
  646MOL0     C87131  10.108   1.100   7.152  0.2604  0.7142 -1.0140
  646MOL0     C87132  10.096   1.132   7.016 -0.2297 -0.0090  0.1356
  646MOL0     O87133   9.989   1.175   6.943 -0.1157 -0.0055  0.2430
  646MOL0     C87134   9.869   1.166   7.020  1.1834  0.4783  0.3770
  646MOL0     C87135   9.839   1.293   7.102  0.8893  1.0053 -0.4327
  646MOL0     C87136   9.791   1.399   6.999 -0.9209  0.1487 -0.3484
  646MOL0     C87137   9.634   1.424   7.006 -0.8702  0.4214  0.0309
  646MOL0     C87138   9.613   1.522   6.895  1.1470 -0.7897  0.5304
  646MOL0     C87139   9.592   1.601   6.802  0.5925 -0.8754 -0.1734
  646MOL0     C87140  10.219   1.126   6.940  0.9458 -1.1856 -0.5736
  646MOL0     C87141  10.347   1.102   6.996 -0.1918 -0.1709 -0.8721
  646MOL0     C87142  10.474   1.090   6.906  0.1350 -0.6740 -0.0852
  646MOL0     H87143  10.602   0.728   7.362 -1.7758 -0.2208  1.2295
  646MOL0     H87144  10.797   0.689   7.508 -1.0835 -1.2495 -2.5524
  646MOL0     H87145  10.745   0.837   7.837 -1.3233 -0.7777 -0.2395
  646MOL0     H87146  10.805   0.677   7.793  4.7063 -1.5894 -1.1821
  646MOL0     H87147  10.960   0.891   7.946 -0.7401 -0.2469 -1.0072
  646MOL0     H87148  11.037   0.755   7.873  0.9522  2.5264 -0.8190
  646MOL0     H87149  10.886   0.593   8.004  2.5178 -1.7578  1.6148
  646MOL0     H87150  10.853   0.741   8.109  1.9873 -0.0522  0.2751
  646MOL0     H87151  11.114   0.620   8.044 -0.7716 -1.4622 -0.2242
  646MOL0     H87152  11.074   0.744   8.171 -0.4441 -1.0819  2.2019
  646MOL0     H87153  10.997   0.457   8.185  0.4680 -0.1084  0.6275
  646MOL0     H87154  11.121   0.548   8.276  0.6489  2.7246 -1.7149
  646MOL0     H87155  10.952   0.684   8.358  0.1588 -0.0597  0.1893
  646MOL0     H87156  10.833   0.560   8.295  0.8388 -1.7738 -0.4477
  646MOL0     H87157  10.898   0.530   8.560  1.3474  1.0612  1.3667
  646MOL0     H87158  11.060   0.500   8.497 -0.5717 -0.3168  1.7601
  646MOL0     H87159  10.970   0.311   8.354  1.2974  1.5486  0.2017
  646MOL0     H87160  10.958   0.282   8.526  4.8930  1.6485 -0.6631
  646MOL0     H87161  10.782   0.275   8.209  0.2038  2.1948 -0.4013
  646MOL0     H87162  10.394   0.202   8.278 -1.4662 -1.0479 -0.9158
  646MOL0     H87163  10.456   0.316   8.158  0.0349  0.0985  1.2911
  646MOL0     H87164  10.608   0.150   8.064 -0.4547  0.4498 -1.2367
  646MOL0     H87165  10.564   0.028   8.186  2.4184 -0.4280 -3.3335
  646MOL0     H87166  10.329   0.056   8.091  2.5194 -0.4557  3.0231
  646MOL0     H87167  10.465  -0.033   7.999  0.9665 -0.5530  1.8816
  646MOL0     H87168  10.361   0.094   7.836 -2.6478 -0.2521  2.3225
  646MOL0     H87169  10.494   0.193   7.861 -1.4057  0.3481 -1.0012
  646MOL0     H87170  10.119   0.435   8.001 -1.4532  0.7297 -0.5736
  646MOL0     H87171   9.986   0.542   7.841  0.6433  1.1948 -0.7795
  646MOL0     H87172   9.686   0.595   7.633  0.0778  1.5485  2.0424
  646MOL0     H87173   9.515   0.669   7.463  0.2076  0.5446  0.4245
  646MOL0     H87174   9.520   0.998   7.295  3.3515  0.9773 -0.1836
  646MOL0     H87175   9.611   0.980   7.146 -0.3588  2.9616  1.1790
  646MOL0     H87176   9.351   0.842   7.169  3.5100 -0.7216  0.6488
  646MOL0     H87177   9.325   1.017   7.146 -2.0422 -0.6012 -1.8226
  646MOL0     H87178   9.451   1.002   6.925 -0.8986 -0.4825 -1.2772
  646MOL0     H87179   9.485   0.834   6.962  2.0563  0.6751  1.0982
  646MOL0     H87180   9.222   0.796   6.976 -1.1773  1.2141  1.1019
  646MOL0     H87181   9.295   0.830   6.812  2.1090 -0.3151 -0.5561
  646MOL0     H87182   9.224   1.063   6.839  1.8600  0.2096  1.1206
  646MOL0     H87183   9.135   1.027   6.993 -2.2960 -1.9812  0.2317
  646MOL0     H87184   9.063   0.905   6.718 -0.7093  1.0649 -1.0612
  646MOL0     H87185   8.997   0.851   6.867 -1.9070  0.0808 -0.8307
  646MOL0     H87186   8.966   1.152   6.821  0.6242 -0.5097  0.6349
  646MOL0     H87187   8.850   1.038   6.881  1.3562  5.1416  2.5542
  646MOL0     H87188   8.951   1.075   6.580  0.8008 -1.5308  0.6115
  646MOL0     H87189   8.844   0.944   6.636 -0.4712  0.9226 -1.9278
  646MOL0     H87190   9.807   0.878   7.248 -0.0819  1.1084  1.0935
  646MOL0     H87191   9.983   0.803   7.428 -1.1096  0.6229  0.4831
  646MOL0     H87192  10.150   0.298   7.524 -3.1140 -2.0602  0.6176
  646MOL0     H87193  10.339   0.233   7.692 -0.5430 -0.3861  0.2593
  646MOL0     H87194  10.750   1.075   7.680 -0.4233  2.7289 -1.2063
  646MOL0     H87195  10.570   1.136   7.523  2.4749  1.4648 -2.5355
  646MOL0     H87196  10.247   1.022   7.314  4.2158  2.5337  0.9216
  646MOL0     H87197  10.022   1.088   7.217  1.3978 -2.8485  0.0842
  646MOL0     H87198   9.843   1.083   7.087 -4.1423  0.5770 -1.0519
  646MOL0     H87199   9.795   1.143   6.942  1.3062 -0.8672  0.6251
  646MOL0     H87200   9.931   1.325   7.154 -0.0721 -3.0768  4.5695
  646MOL0     H87201   9.767   1.272   7.181 -1.2923  0.2084 -2.5412
  646MOL0     H87202   9.812   1.359   6.899  0.2482 -1.2328  0.4025
  646MOL0     H87203   9.839   1.497   6.997  0.1662 -0.2553 -4.2356
  646MOL0     H87204   9.563   1.341   6.996 -1.8950  1.1695  0.7706
  646MOL0     H87205   9.604   1.476   7.098  0.0309  0.2898  0.4022
  646MOL0     H87206   9.584   1.659   6.713 -0.7070 -0.9775 -0.1324
  646MOL0     H87207  10.210   1.152   6.835 -0.6750 -0.9136 -0.3825
  646MOL0     H87208  10.534   0.999   6.905  2.4373  0.7375  0.5980
  646MOL0     H87209  10.434   1.099   6.805  1.1912 -0.2794 -0.4764
  646MOL0     H87210  10.543   1.173   6.928 -0.4782 -0.6986  2.1753
  647MOL0     O87211  10.884   2.508   5.828  0.1624 -0.1364  0.2069
  647MOL0     C87212  10.848   2.558   5.940 -0.3387 -0.6923  0.1524
  647MOL0     O87213  10.924   2.643   6.014 -1.1064  0.5827  0.1945
  647MOL0     C87214  11.058   2.662   5.975  0.0537  0.2943 -0.2399
  647MOL0     C87215  11.073   2.766   5.891 -0.0487 -0.1295 -0.6035
  647MOL0     C87216  11.207   2.793   5.860  0.4944  0.3261 -0.7299
  647MOL0     C87217  11.314   2.717   5.907 -0.4155  0.3202 -0.2867
  647MOL0     O87218  11.451   2.742   5.879 -0.5007  0.0776  0.2718
  647MOL0     C87219  11.492   2.856   5.791 -0.1520 -0.1495  0.3963
  647MOL0     C87220  11.510   2.810   5.652  0.0131 -0.0578 -0.2414
  647MOL0     C87221  11.583   2.677   5.635 -0.5794  0.6488  0.4309
  647MOL0     C87222  11.581   2.622   5.498  0.2498  1.2792  0.6484
  647MOL0     C87223  11.650   2.478   5.466 -0.0569 -0.1418  0.1537
  647MOL0     C87224  11.583   2.364   5.549  0.4784  0.0860  0.1652
  647MOL0     C87225  11.670   2.233   5.544  0.3488  0.2357  0.6367
  647MOL0     C87226  11.630   2.129   5.435  0.1903 -0.3750  0.3973
  647MOL0     N87227  11.676   2.004   5.479  0.1951  0.0033  0.2233
  647MOL0     C87228  11.803   1.952   5.485 -0.2785 -0.5384 -0.5311
  647MOL0     C87229  11.796   1.818   5.520  0.6177  0.4419  0.7919
  647MOL0     C87230  11.894   1.709   5.554 -0.3840  0.4086 -0.1142
  647MOL0     C87231  11.968   1.666   5.420 -0.3449  0.2663  0.3819
  647MOL0     C87232  11.884   1.627   5.292 -0.1599  0.4303 -0.4713
  647MOL0     C87233  11.975   1.550   5.187  0.6878 -0.9483  0.3569
  647MOL0     O87234  12.075   1.644   5.150  0.4393 -0.1234 -0.4046
  647MOL0     C87235  12.176   1.600   5.070  0.8176 -0.4520 -0.0013
  647MOL0     C87236  12.174   1.477   5.009  0.5991 -0.0504 -0.3304
  647MOL0     C87237  12.291   1.427   4.950  0.6689 -0.1490  0.2918
  647MOL0     C87238  12.397   1.512   4.925  0.1190 -0.0005 -0.0316
  647MOL0     C87239  12.518   1.455   4.852 -0.1331  0.0274  0.4482
  647MOL0     O87240  12.619   1.534   4.817 -0.1140 -0.0754 -0.3947
  647MOL0     C87241  12.738   1.469   4.774  1.1138  0.7964  0.1876
  647MOL0     C87242  12.812   1.377   4.857  0.3188 -0.1111  0.8657
  647MOL0     C87243  12.933   1.320   4.811 -1.5027 -0.2408 -0.4825
  647MOL0     C87244  12.990   1.357   4.686  0.4310 -0.3865  0.6091
  647MOL0     O87245  13.099   1.300   4.627  0.0616 -0.6539  0.4638
  647MOL0     C87246  13.133   1.170   4.681 -0.1069 -0.0284 -0.3617
  647MOL0     C87247  13.243   1.092   4.599  0.9730  0.1805  0.1712
  647MOL0     C87248  13.286   0.962   4.653 -0.2055  0.2613  0.8373
  647MOL0     C87249  13.413   0.964   4.739 -0.0784  1.0641 -0.2879
  647MOL0     C87250  13.447   0.825   4.798 -0.2729  0.1285 -0.0649
  647MOL0     C87251  13.346   0.766   4.896  0.0153  0.1019  0.4478
  647MOL0     C87252  13.332   0.827   5.032  1.3954  0.1803 -0.0064
  647MOL0     C87253  13.198   0.788   5.105 -0.6668 -0.6625  1.0297
  647MOL0    Cl87254  13.065   0.885   5.039 -0.0137 -0.1262 -0.3520
  647MOL0     C87255  12.920   1.447   4.605  0.0982 -0.5741  0.2202
  647MOL0     C87256  12.798   1.499   4.653 -0.6390 -0.5707  0.0546
  647MOL0     O87257  12.518   1.329   4.830  1.1025 -0.0746  0.1706
  647MOL0     C87258  12.398   1.643   4.976 -0.2080 -0.0272 -0.1073
  647MOL0     C87259  12.282   1.680   5.053  0.0093 -0.5445  0.0971
  647MOL0     N87260  11.656   1.794   5.521 -0.5660 -0.3168  0.0959
  647MOL0     N87261  11.590   1.908   5.522 -0.5241  0.8482 -0.2445
  647MOL0     C87262  11.282   2.606   5.988  1.5655 -0.5819 -0.8385
  647MOL0     C87263  11.151   2.578   6.022  0.3163  0.3831  1.0082
  647MOL0     C87264  10.715   2.536   6.007  0.4004  0.0901  0.6600
  647MOL0     C87265  10.670   2.628   6.101  0.0353  0.2912 -0.5328
  647MOL0     C87266  10.577   2.598   6.191 -0.7507 -0.2120 -1.1116
  647MOL0     C87267  10.492   2.491   6.177 -0.6938 -0.9492 -0.1479
  647MOL0     O87268  10.399   2.468   6.274 -0.8248 -0.5614 -0.0408
  647MOL0     C87269  10.337   2.344   6.298 -0.2108  0.1496  0.3095
  647MOL0     C87270  10.271   2.371   6.437  1.1591 -0.3566  0.7678
  647MOL0     C87271  10.199   2.236   6.468 -0.2713  0.3615  0.2119
  647MOL0     C87272  10.149   2.241   6.613  0.0962 -1.1117 -0.1402
  647MOL0     C87273  10.025   2.324   6.612 -0.3144  0.2123 -0.1765
  647MOL0     C87274   9.938   2.406   6.591  0.0281  0.7859  1.1149
  647MOL0     C87275  10.528   2.389   6.087  0.4175 -0.9150 -0.7762
  647MOL0     C87276  10.644   2.410   5.998 -0.1002  0.0048 -0.1776
  647MOL0     C87277  10.680   2.296   5.901 -0.6881 -0.4130  0.1233
  647MOL0     H87278  10.988   2.831   5.871 -0.1699  0.1122  0.6425
  647MOL0     H87279  11.219   2.880   5.796 -1.7166 -0.9106 -2.9906
  647MOL0     H87280  11.418   2.936   5.801  1.3869  1.2782  0.6103
  647MOL0     H87281  11.578   2.902   5.840  0.3379 -1.1693  0.5368
  647MOL0     H87282  11.555   2.881   5.583  1.4757 -1.7012 -1.0694
  647MOL0     H87283  11.407   2.799   5.619 -1.3309 -4.1745  4.1377
  647MOL0     H87284  11.536   2.605   5.703  3.0110 -1.9226  0.4675
  647MOL0     H87285  11.689   2.694   5.654 -0.1137 -2.4319  1.1154
  647MOL0     H87286  11.477   2.618   5.465  0.2503  0.1741  0.7525
  647MOL0     H87287  11.640   2.695   5.442  3.1513 -0.4131  1.2681
  647MOL0     H87288  11.656   2.450   5.361  1.0853 -0.9312  0.4191
  647MOL0     H87289  11.754   2.486   5.498  0.7107 -2.6480 -1.4563
  647MOL0     H87290  11.561   2.393   5.652 -2.0847  1.3335 -0.6387
  647MOL0     H87291  11.490   2.343   5.495  0.4150 -0.3366  0.4367
  647MOL0     H87292  11.656   2.190   5.644 -0.0344 -2.2812 -0.4295
  647MOL0     H87293  11.773   2.260   5.520 -0.3785  1.6113 -1.2784
  647MOL0     H87294  11.523   2.133   5.413 -0.2145  1.2397  2.3809
  647MOL0     H87295  11.685   2.154   5.344  0.9624 -0.6991  0.7581
  647MOL0     H87296  11.891   2.007   5.456  0.5109 -1.4717  0.0025
  647MOL0     H87297  11.964   1.746   5.630 -2.9351  0.7836  2.1918
  647MOL0     H87298  11.832   1.628   5.594  2.2860 -1.9578 -0.3753
  647MOL0     H87299  12.047   1.740   5.401  1.2546 -1.8471 -1.8091
  647MOL0     H87300  12.027   1.577   5.445 -1.0847 -0.0899  0.9210
  647MOL0     H87301  11.830   1.710   5.247 -1.0530 -1.4882 -3.2299
  647MOL0     H87302  11.813   1.557   5.337 -1.7851  2.2466 -0.0644
  647MOL0     H87303  11.912   1.536   5.099  0.5398  1.0673  0.0898
  647MOL0     H87304  12.009   1.455   5.230 -0.7936 -0.8510  1.8640
  647MOL0     H87305  12.087   1.412   5.013 -1.3837  2.3250 -1.7824
  647MOL0     H87306  12.300   1.323   4.923  1.1095 -1.0112  3.4246
  647MOL0     H87307  12.758   1.346   4.946 -4.3741 -0.7216 -1.8219
  647MOL0     H87308  12.997   1.265   4.880  2.8732  2.9781 -1.5586
  647MOL0     H87309  13.182   1.189   4.777  3.6126  0.7635 -2.2286
  647MOL0     H87310  13.048   1.103   4.700  0.7964 -0.9226  0.6857
  647MOL0     H87311  13.202   1.078   4.498  2.3986  1.5682 -0.6571
  647MOL0     H87312  13.326   1.160   4.577  0.2965  1.5347  1.6615
  647MOL0     H87313  13.200   0.920   4.704 -0.2799  0.5231  0.9280
  647MOL0     H87314  13.317   0.900   4.568 -0.2595 -0.1426  1.1136
  647MOL0     H87315  13.395   1.045   4.810  0.2155  2.7816 -2.0758
  647MOL0     H87316  13.499   1.006   4.684 -1.0135  3.7633  0.1685
  647MOL0     H87317  13.547   0.814   4.841 -0.4594 -1.1341  0.0873
  647MOL0     H87318  13.449   0.756   4.713 -1.8571  0.4527 -0.4054
  647MOL0     H87319  13.247   0.762   4.850  0.0257  1.0913  0.3218
  647MOL0     H87320  13.383   0.667   4.922 -0.7005  0.1242  1.5873
  647MOL0     H87321  13.334   0.934   5.013  2.4850 -0.0374 -1.2681
  647MOL0     H87322  13.413   0.794   5.097  1.6392 -0.3174 -0.5522
  647MOL0     H87323  13.186   0.680   5.109 -1.3916 -0.5593  2.6678
  647MOL0     H87324  13.202   0.819   5.210  4.0250  0.5186  0.7010
  647MOL0     H87325  12.950   1.464   4.502  0.9667 -1.8484  0.2400
  647MOL0     H87326  12.746   1.547   4.570  0.0345  1.7213  0.8763
  647MOL0     H87327  12.479   1.714   4.965  2.3138 -3.0440 -3.4258
  647MOL0     H87328  12.278   1.775   5.107 -0.7805  0.2543 -1.2947
  647MOL0     H87329  11.365   2.544   6.022  0.9727 -0.1901  1.4766
  647MOL0     H87330  11.116   2.486   6.067 -0.3720  0.8725  1.4805
  647MOL0     H87331  10.721   2.723   6.109 -0.1254  0.5824 -2.5456
  647MOL0     H87332  10.565   2.674   6.267  2.3773  1.6043 -2.2228
  647MOL0     H87333  10.414   2.267   6.293 -0.1495  0.3091 -3.1028
  647MOL0     H87334  10.263   2.309   6.226 -2.3127  3.1435  0.7924
  647MOL0     H87335  10.207   2.459   6.427  2.4842  0.6380  0.6958
  647MOL0     H87336  10.348   2.397   6.510 -0.0580  1.1160  1.5741
  647MOL0     H87337  10.274   2.156   6.464  0.0197  0.4396  2.4948
  647MOL0     H87338  10.114   2.221   6.401  0.1106 -1.9327  0.1737
  647MOL0     H87339  10.127   2.141   6.650  1.6574 -1.2797  0.3781
  647MOL0     H87340  10.219   2.289   6.682 -0.4641  0.7418 -0.8041
  647MOL0     H87341   9.862   2.481   6.576 -0.3741  0.3360  0.8407
  647MOL0     H87342  10.479   2.293   6.082 -1.5540 -0.1055  1.1009
  647MOL0     H87343  10.623   2.297   5.808 -0.0195 -0.0192 -0.2898
  647MOL0     H87344  10.789   2.294   5.892 -0.7661  0.3325 -1.3815
  647MOL0     H87345  10.653   2.203   5.952 -1.2259 -1.5552 -2.1306
  648MOL0     O87346   9.264   3.704   6.472  0.3909  0.0043 -0.1532
  648MOL0     C87347   9.332   3.762   6.556  0.0686  0.0300  0.6760
  648MOL0     O87348   9.390   3.698   6.667  0.4378 -0.2236  0.6182
  648MOL0     C87349   9.395   3.566   6.665  0.2335  1.0296 -0.4002
  648MOL0     C87350   9.284   3.489   6.690 -0.2005 -0.5329  0.4420
  648MOL0     C87351   9.286   3.347   6.688  0.3882  0.2775 -0.5067
  648MOL0     C87352   9.406   3.287   6.663  0.1744  0.4810  0.6100
  648MOL0     O87353   9.429   3.154   6.666 -0.2919  0.2139 -0.9640
  648MOL0     C87354   9.327   3.067   6.632 -0.7205 -0.3174 -0.0205
  648MOL0     C87355   9.396   2.937   6.625  0.0975  0.4939  0.2410
  648MOL0     C87356   9.451   2.881   6.485 -0.1072 -0.7813 -0.4184
  648MOL0     C87357   9.550   2.989   6.438  0.4178  0.1157  0.2021
  648MOL0     C87358   9.645   2.942   6.333  0.2385  0.1428 -0.2378
  648MOL0     C87359   9.573   2.922   6.200 -0.1989 -0.0953  0.4103
  648MOL0     C87360   9.674   2.938   6.094  0.1411 -0.6507  0.4511
  648MOL0     C87361   9.726   3.082   6.047  0.2359  0.1633  0.6877
  648MOL0     N87362   9.848   3.070   5.956  0.0499 -0.5992  0.1965
  648MOL0     C87363   9.853   2.993   5.845 -1.0041 -0.1084  0.0093
  648MOL0     C87364   9.970   3.025   5.788  0.5753  0.2642 -0.2090
  648MOL0     C87365  10.027   2.959   5.669  0.2968  0.0712  0.3374
  648MOL0     C87366  10.123   3.047   5.587  0.1396 -0.7434 -0.2170
  648MOL0     C87367  10.060   3.173   5.531  0.8937  0.7205  0.0296
  648MOL0     C87368   9.973   3.135   5.410  0.6701 -0.0764 -0.9157
  648MOL0     O87369   9.927   3.242   5.331  0.4391  0.1457  0.1980
  648MOL0     C87370   9.827   3.319   5.391 -0.5154  0.2849 -0.5612
  648MOL0     C87371   9.856   3.451   5.434 -0.3019 -0.9091 -0.0176
  648MOL0     C87372   9.760   3.526   5.510 -0.1522 -0.7709 -0.1557
  648MOL0     C87373   9.639   3.460   5.547 -0.1049  0.1836 -0.3396
  648MOL0     C87374   9.523   3.526   5.618 -1.1340 -0.7051  0.0748
  648MOL0     O87375   9.532   3.651   5.646  0.2501  0.4495  0.9653
  648MOL0     C87376   9.421   3.714   5.693 -0.7917  0.1889 -0.3774
  648MOL0     C87377   9.417   3.728   5.825  0.2258 -0.6376 -0.1198
  648MOL0     C87378   9.319   3.813   5.875  0.4317 -0.1498 -0.4700
  648MOL0     C87379   9.221   3.878   5.796 -0.4185  0.7879 -0.2208
  648MOL0     O87380   9.122   3.936   5.866 -0.4187  0.2566  0.0320
  648MOL0     C87381   9.013   3.989   5.793  0.6201 -0.7319  0.0306
  648MOL0     C87382   8.935   4.085   5.897 -0.5666  0.3581 -0.9268
  648MOL0     C87383   8.893   4.020   6.029  0.2145 -0.2917  0.9860
  648MOL0     C87384   8.765   3.936   6.015  0.0503 -0.7745  0.0870
  648MOL0     C87385   8.696   3.896   6.150  0.1236  0.5383 -0.8781
  648MOL0     C87386   8.568   3.814   6.123 -0.4901  0.2889  0.1459
  648MOL0     C87387   8.502   3.772   6.253  0.3387  0.2404  0.7270
  648MOL0     C87388   8.395   3.660   6.233  1.2631  0.0020  0.3387
  648MOL0    Cl87389   8.285   3.634   6.378 -0.1181  0.0277  0.1178
  648MOL0     C87390   9.229   3.853   5.655 -0.6800  0.8262  0.6986
  648MOL0     C87391   9.343   3.781   5.606  0.6537 -0.3052  0.1773
  648MOL0     O87392   9.428   3.451   5.649  0.6733 -0.0227  0.3115
  648MOL0     C87393   9.620   3.326   5.511  1.6268  1.1656 -0.1981
  648MOL0     C87394   9.705   3.257   5.431 -0.2245 -0.0864 -0.5687
  648MOL0     N87395  10.044   3.105   5.875  0.4072  0.2145  0.2002
  648MOL0     N87396   9.972   3.128   5.979 -0.6613 -0.3375 -0.4494
  648MOL0     C87397   9.517   3.362   6.644 -0.9772 -0.6458  0.7042
  648MOL0     C87398   9.511   3.500   6.644 -0.1861 -0.1968  0.1458
  648MOL0     C87399   9.328   3.909   6.552 -0.5607  0.3188  0.1948
  648MOL0     C87400   9.382   3.982   6.659  0.4687 -0.7506  0.0397
  648MOL0     C87401   9.382   4.126   6.669  0.9247 -0.7406 -0.3628
  648MOL0     C87402   9.329   4.205   6.574 -0.6485 -0.3638  0.0100
  648MOL0     O87403   9.326   4.342   6.594 -0.6516  0.3149 -1.1090
  648MOL0     C87404   9.373   4.439   6.489  0.4181  0.2158  0.8190
  648MOL0     C87405   9.313   4.573   6.540 -0.7795  0.0745 -0.6431
  648MOL0     C87406   9.381   4.681   6.468 -0.2577  0.1385  0.3905
  648MOL0     C87407   9.308   4.818   6.458 -0.0402 -0.9927  0.0137
  648MOL0     C87408   9.387   4.909   6.370 -0.3260  0.6713 -0.2607
  648MOL0     C87409   9.455   4.986   6.304  0.5348 -1.0582 -0.2981
  648MOL0     C87410   9.294   4.133   6.454  0.6953  0.2833 -0.7131
  648MOL0     C87411   9.294   3.988   6.444  0.6648  0.2284  1.2080
  648MOL0     C87412   9.251   3.939   6.302  0.6243  0.6864 -0.6937
  648MOL0     H87413   9.191   3.543   6.699 -0.4299 -0.9242  0.4478
  648MOL0     H87414   9.199   3.285   6.708  1.6155 -1.7534 -1.1601
  648MOL0     H87415   9.257   3.065   6.716 -1.6291  1.3083 -0.6903
  648MOL0     H87416   9.268   3.092   6.543  0.6004  0.9827 -0.5649
  648MOL0     H87417   9.318   2.867   6.655  0.2137  0.6097  0.8208
  648MOL0     H87418   9.483   2.935   6.690  1.4815  0.2420 -1.5453
  648MOL0     H87419   9.359   2.868   6.426  0.7465 -0.0176 -1.9789
  648MOL0     H87420   9.496   2.783   6.504 -1.7734 -1.7763 -1.3187
  648MOL0     H87421   9.474   3.059   6.404 -0.2056 -0.7827 -0.2995
  648MOL0     H87422   9.604   3.039   6.519 -0.8990 -1.3677  2.0874
  648MOL0     H87423   9.706   3.032   6.337 -1.0073  0.9446  1.6706
  648MOL0     H87424   9.702   2.857   6.372 -1.6629 -1.0614  0.0548
  648MOL0     H87425   9.531   2.821   6.197 -2.8748  0.9568 -0.9781
  648MOL0     H87426   9.502   3.004   6.182  0.0516 -0.0520 -0.4090
  648MOL0     H87427   9.623   2.900   6.005 -0.1009  1.1377 -0.2328
  648MOL0     H87428   9.756   2.867   6.108  0.4514 -0.3778  0.0655
  648MOL0     H87429   9.652   3.139   5.990  3.2273  1.6082 -2.0678
  648MOL0     H87430   9.764   3.149   6.125  0.3989  0.7553  0.1105
  648MOL0     H87431   9.777   2.928   5.802 -1.3351  0.7465 -0.7082
  648MOL0     H87432  10.078   2.864   5.688 -0.0638 -0.4401 -1.1529
  648MOL0     H87433   9.936   2.933   5.614  0.6944 -2.6153  0.7941
  648MOL0     H87434  10.211   3.079   5.642 -0.8404  3.1149 -0.6063
  648MOL0     H87435  10.161   2.978   5.511 -1.7244 -3.0440  0.8422
  648MOL0     H87436  10.139   3.243   5.501  1.4794  0.9560  2.0160
  648MOL0     H87437   9.996   3.213   5.609 -0.0259 -2.2406  0.9213
  648MOL0     H87438   9.884   3.081   5.446  0.5699 -0.0408 -1.1104
  648MOL0     H87439  10.027   3.067   5.344 -2.9197 -0.6481 -3.5682
  648MOL0     H87440   9.949   3.496   5.401 -0.3431 -0.8261 -0.0209
  648MOL0     H87441   9.778   3.628   5.542  0.7970 -1.3151  1.0891
  648MOL0     H87442   9.491   3.685   5.892 -3.2607 -0.8556  4.0731
  648MOL0     H87443   9.317   3.834   5.982 -0.7571 -0.8511 -0.3344
  648MOL0     H87444   9.034   4.044   5.701  2.7723  0.1694  0.9951
  648MOL0     H87445   8.952   3.906   5.757  0.7791 -0.2952 -1.3031
  648MOL0     H87446   8.992   4.174   5.923 -1.2652  0.1313  1.7627
  648MOL0     H87447   8.843   4.125   5.854 -0.6030  1.3615  0.0302
  648MOL0     H87448   8.974   3.965   6.079 -0.4943 -0.8747  1.5236
  648MOL0     H87449   8.871   4.108   6.090  0.0564  0.6166 -0.3517
  648MOL0     H87450   8.773   3.843   5.958 -0.8714  1.4018 -3.9619
  648MOL0     H87451   8.690   3.995   5.962 -0.5404 -1.0561  0.5979
  648MOL0     H87452   8.678   3.989   6.204  2.4780 -0.7137  2.3586
  648MOL0     H87453   8.769   3.843   6.211 -0.4314  0.9940  0.1923
  648MOL0     H87454   8.513   3.895   6.073 -1.5441 -0.6571 -0.2656
  648MOL0     H87455   8.584   3.722   6.067  2.2845  1.0980 -0.5446
  648MOL0     H87456   8.453   3.865   6.282 -3.3056 -1.3925  0.3792
  648MOL0     H87457   8.577   3.724   6.317  0.8887  2.4176  1.8277
  648MOL0     H87458   8.328   3.681   6.149 -2.5082  1.9993  3.5190
  648MOL0     H87459   8.430   3.561   6.201 -0.4001 -0.9468  1.3200
  648MOL0     H87460   9.166   3.898   5.579 -2.2261 -0.1731  1.3318
  648MOL0     H87461   9.358   3.792   5.499 -1.6922 -0.2910 -0.2191
  648MOL0     H87462   9.543   3.262   5.552  1.5601  1.7700  0.6291
  648MOL0     H87463   9.675   3.160   5.393  1.8839 -0.3787 -1.6222
  648MOL0     H87464   9.610   3.312   6.619 -0.7542  0.6616 -1.3922
  648MOL0     H87465   9.603   3.556   6.639  0.8301 -1.8939 -2.6443
  648MOL0     H87466   9.417   3.934   6.751  2.3501  0.8536  0.2261
  648MOL0     H87467   9.408   4.186   6.756 -2.1795  1.5422 -0.8255
  648MOL0     H87468   9.342   4.407   6.390  1.3712 -0.8142  0.8296
  648MOL0     H87469   9.482   4.429   6.489  0.3102 -1.1200 -0.2952
  648MOL0     H87470   9.344   4.581   6.645  1.6893  0.1865 -1.3072
  648MOL0     H87471   9.204   4.571   6.541 -0.8161 -2.1361  1.3334
  648MOL0     H87472   9.411   4.652   6.367  0.8214  1.2737  0.3541
  648MOL0     H87473   9.479   4.699   6.514  1.8901 -1.2775 -3.1582
  648MOL0     H87474   9.205   4.806   6.424  0.1777  3.0032 -2.7481
  648MOL0     H87475   9.308   4.865   6.557  0.1201 -0.8210 -0.0662
  648MOL0     H87476   9.505   5.066   6.253 -1.2984  0.1847 -0.2379
  648MOL0     H87477   9.249   4.191   6.374 -0.5191  0.9900  0.4321
  648MOL0     H87478   9.252   4.021   6.229  1.0025  1.5834  0.3068
  648MOL0     H87479   9.297   3.846   6.268  0.3126 -0.1951  1.1869
  648MOL0     H87480   9.147   3.906   6.306  1.6858 -2.9154  0.7205
  649MOL0     O87481   7.793   8.173   3.977  0.5601 -0.1076 -0.0993
  649MOL0     C87482   7.830   8.117   3.873 -0.6173 -0.6567  0.7861
  649MOL0     O87483   7.750   8.030   3.795 -0.4767  0.5494 -0.2297
  649MOL0     C87484   7.637   7.973   3.844  0.3732  0.7886 -0.0815
  649MOL0     C87485   7.637   7.897   3.963 -0.1485 -0.7470  0.6458
  649MOL0     C87486   7.517   7.841   4.010 -0.0356  0.5936 -0.0084
  649MOL0     C87487   7.404   7.839   3.933 -0.7073 -0.9742  0.1407
  649MOL0     O87488   7.285   7.782   3.967 -0.5997  0.7921 -0.4276
  649MOL0     C87489   7.262   7.773   4.105  0.1960  0.2337  0.4955
  649MOL0     C87490   7.117   7.725   4.122  0.1242 -0.2950 -0.5253
  649MOL0     C87491   7.014   7.831   4.072 -0.5878  0.5967 -0.7010
  649MOL0     C87492   6.997   7.940   4.173 -0.0084 -0.7785 -0.0664
  649MOL0     C87493   6.864   8.010   4.169  0.3146 -0.2004  0.0088
  649MOL0     C87494   6.806   8.053   4.035  0.4151  0.6382 -0.1958
  649MOL0     C87495   6.661   8.113   4.048  0.1275  0.7714  0.5465
  649MOL0     C87496   6.550   8.012   4.087  0.2557 -0.1904 -1.4559
  649MOL0     N87497   6.411   8.063   4.055  1.1712 -0.6985 -0.0437
  649MOL0     C87498   6.354   8.015   3.938  1.1131 -0.3700  0.7965
  649MOL0     C87499   6.223   8.033   3.955  0.4102 -0.4603  1.0793
  649MOL0     C87500   6.120   7.995   3.849  0.3891  0.2731 -1.0741
  649MOL0     C87501   5.980   8.015   3.918 -0.1630 -0.0469  0.6930
  649MOL0     C87502   5.878   7.972   3.825 -0.4915  0.1774 -0.2664
  649MOL0     C87503   5.755   7.946   3.905  0.3475 -0.6683 -0.7668
  649MOL0     O87504   5.645   7.941   3.813 -0.5052  0.1200  0.1947
  649MOL0     C87505   5.564   8.047   3.798  0.6076 -0.4547 -0.1987
  649MOL0     C87506   5.612   8.190   3.809  0.3603 -0.1181 -0.5624
  649MOL0     C87507   5.516   8.290   3.798  0.7262 -0.6199  0.0303
  649MOL0     C87508   5.385   8.265   3.748 -0.1523 -0.2818 -0.6515
  649MOL0     C87509   5.287   8.370   3.734 -0.3345 -0.4302  1.0707
  649MOL0     O87510   5.332   8.493   3.750 -0.4673 -0.8164 -0.7325
  649MOL0     C87511   5.245   8.597   3.794 -0.4432  0.8801 -0.8147
  649MOL0     C87512   5.165   8.653   3.700  0.5219 -1.0455  0.4814
  649MOL0     C87513   5.068   8.747   3.738  0.7794  0.6793  0.0508
  649MOL0     C87514   5.048   8.788   3.872  0.3262 -0.2706 -0.0244
  649MOL0     O87515   4.950   8.878   3.921 -0.2609 -0.5738  0.0456
  649MOL0     C87516   4.936   9.005   3.844  0.2942 -0.3257  0.0493
  649MOL0     C87517   4.906   9.107   3.948  0.1974  0.4333  0.7116
  649MOL0     C87518   4.867   9.243   3.882 -0.1705  0.3830 -0.0742
  649MOL0     C87519   4.766   9.333   3.952 -0.0819  0.7840  0.4452
  649MOL0     C87520   4.756   9.459   3.867 -0.1010 -0.4846  1.0758
  649MOL0     C87521   4.625   9.534   3.891 -0.0856 -1.1800  0.2483
  649MOL0     C87522   4.628   9.663   3.807 -0.0467  1.1373  0.4802
  649MOL0     C87523   4.572   9.636   3.662  0.3212 -0.4177  0.5306
  649MOL0    Cl87524   4.407   9.561   3.663  0.1225  0.1197  0.2366
  649MOL0     C87525   5.133   8.726   3.967  0.5923  1.6241  0.9527
  649MOL0     C87526   5.231   8.624   3.925  0.6692 -0.2394 -0.8101
  649MOL0     O87527   5.170   8.333   3.726  0.1018 -0.0435  0.8050
  649MOL0     C87528   5.356   8.127   3.733  0.1086  0.0793  0.4429
  649MOL0     C87529   5.437   8.024   3.763  0.2586 -0.6917  0.0868
  649MOL0     N87530   6.195   8.085   4.077  0.0374 -0.2714  0.0584
  649MOL0     N87531   6.308   8.093   4.143 -0.1378 -0.9898  1.1404
  649MOL0     C87532   7.410   7.910   3.816  0.5358 -0.3170 -0.6100
  649MOL0     C87533   7.521   7.975   3.774  1.0325 -0.9861  0.1500
  649MOL0     C87534   7.958   8.161   3.810  0.1346  0.7523 -0.3051
  649MOL0     C87535   7.990   8.115   3.681  0.7849  0.0143 -0.1565
  649MOL0     C87536   8.104   8.158   3.613  0.2887 -0.2834  0.0148
  649MOL0     C87537   8.195   8.233   3.676 -0.1466  1.0009  0.3761
  649MOL0     O87538   8.302   8.290   3.613  0.1597 -0.5893 -0.2287
  649MOL0     C87539   8.362   8.235   3.492 -0.3228  0.7721  0.5138
  649MOL0     C87540   8.479   8.158   3.538  0.5444  0.6388  0.3302
  649MOL0     C87541   8.571   8.236   3.617  0.6827  0.7629  0.0124
  649MOL0     C87542   8.694   8.149   3.674  0.4951 -0.3102  0.9581
  649MOL0     C87543   8.803   8.226   3.727 -0.3190  0.4521 -0.4341
  649MOL0     C87544   8.883   8.303   3.773 -1.3038  0.3174  0.3277
  649MOL0     C87545   8.168   8.282   3.798 -0.0793 -0.2745 -0.0720
  649MOL0     C87546   8.053   8.249   3.868 -0.3857  0.8762 -0.0409
  649MOL0     C87547   8.040   8.300   4.009  0.2575  0.4922 -0.3872
  649MOL0     H87548   7.726   7.891   4.023 -0.1848 -0.8748  0.6887
  649MOL0     H87549   7.529   7.787   4.104 -0.6919 -0.4553 -0.5168
  649MOL0     H87550   7.338   7.702   4.140  0.1874 -0.2073 -0.3477
  649MOL0     H87551   7.278   7.869   4.154 -1.6674  0.3849  0.8928
  649MOL0     H87552   7.114   7.705   4.229  3.5556 -0.4112 -0.3434
  649MOL0     H87553   7.075   7.633   4.079  0.8918 -0.4123 -1.0519
  649MOL0     H87554   6.914   7.787   4.078 -1.1754  1.7800 -1.3910
  649MOL0     H87555   7.036   7.863   3.970  0.9562  2.6412  0.1930
  649MOL0     H87556   7.011   7.908   4.277 -1.1451  4.2069  1.9118
  649MOL0     H87557   7.065   8.023   4.158 -0.3101 -0.5787 -0.3358
  649MOL0     H87558   6.795   7.937   4.212 -0.7852  0.9480  0.2679
  649MOL0     H87559   6.872   8.091   4.243 -1.1619 -0.3473  0.3509
  649MOL0     H87560   6.876   8.126   3.992 -0.9925  0.7236 -2.4782
  649MOL0     H87561   6.798   7.977   3.957 -1.7970  1.2362 -0.6362
  649MOL0     H87562   6.632   8.151   3.950  0.7510 -1.0298 -0.3881
  649MOL0     H87563   6.670   8.191   4.124  1.8689  1.0116  0.1369
  649MOL0     H87564   6.555   7.918   4.032  0.4144 -1.6025  0.8405
  649MOL0     H87565   6.572   7.984   4.190  1.0411  2.3245 -0.8586
  649MOL0     H87566   6.403   7.969   3.853  0.0157 -1.0272  0.5070
  649MOL0     H87567   6.131   8.053   3.757  0.4110  2.2357  0.1206
  649MOL0     H87568   6.125   7.886   3.839 -1.4279  0.0960 -0.3876
  649MOL0     H87569   5.979   7.950   4.006 -0.4022  0.9612  1.4473
  649MOL0     H87570   5.959   8.117   3.951 -0.3030 -0.5081  2.0972
  649MOL0     H87571   5.920   7.885   3.773  0.9417 -0.0010  1.1002
  649MOL0     H87572   5.860   8.052   3.753  0.5948  1.3987  0.7776
  649MOL0     H87573   5.729   8.027   3.974  0.7051 -0.1457 -1.2270
  649MOL0     H87574   5.782   7.853   3.956  0.3509 -0.7721 -0.9572
  649MOL0     H87575   5.713   8.223   3.831  1.7890 -3.1952 -1.8914
  649MOL0     H87576   5.543   8.391   3.825 -0.6570  0.1636 -1.3318
  649MOL0     H87577   5.179   8.620   3.597 -2.9831 -2.1882  0.2280
  649MOL0     H87578   5.000   8.778   3.659  1.6625 -0.5731 -1.2377
  649MOL0     H87579   5.032   9.025   3.795  0.7986  3.8214  2.2988
  649MOL0     H87580   4.862   8.978   3.768  0.0236 -2.8557  1.0961
  649MOL0     H87581   4.818   9.074   4.005  0.1206 -1.1730 -0.2861
  649MOL0     H87582   4.993   9.124   4.012  0.4703  2.1659 -0.0674
  649MOL0     H87583   4.960   9.298   3.869  0.2325  0.5181  2.6943
  649MOL0     H87584   4.838   9.228   3.778  0.5051  2.1495 -0.5471
  649MOL0     H87585   4.795   9.340   4.057 -0.7883 -1.2924  0.8163
  649MOL0     H87586   4.668   9.284   3.956 -2.5216  4.9152 -1.5296
  649MOL0     H87587   4.748   9.416   3.766  2.1139 -0.4088  0.8167
  649MOL0     H87588   4.848   9.517   3.876 -0.9761  1.4182 -1.2504
  649MOL0     H87589   4.530   9.482   3.877  1.2984 -3.3900 -1.7813
  649MOL0     H87590   4.640   9.575   3.992  0.4910  0.3941 -0.4457
  649MOL0     H87591   4.726   9.709   3.791 -0.7664  1.7890 -2.7640
  649MOL0     H87592   4.561   9.736   3.851 -1.9578  0.9872 -1.9642
  649MOL0     H87593   4.563   9.731   3.607 -1.2912 -1.3277 -0.8711
  649MOL0     H87594   4.645   9.575   3.608  2.2653  1.8237  0.4593
  649MOL0     H87595   5.123   8.765   4.067  0.6572 -2.0162  2.5474
  649MOL0     H87596   5.291   8.589   4.008 -2.5453  0.1600  1.9010
  649MOL0     H87597   5.257   8.088   3.709  0.6497 -1.5338  0.7229
  649MOL0     H87598   5.407   7.920   3.760 -0.0967 -0.5909  0.0750
  649MOL0     H87599   7.321   7.910   3.754 -0.0328 -1.2854  0.1727
  649MOL0     H87600   7.528   8.049   3.695 -1.4540  1.5035  2.0766
  649MOL0     H87601   7.916   8.062   3.621  2.1396 -2.4359  0.1912
  649MOL0     H87602   8.113   8.133   3.508  0.9448  1.7285 -0.4554
  649MOL0     H87603   8.396   8.316   3.425  0.9668  0.7338  1.0923
  649MOL0     H87604   8.290   8.173   3.439 -1.6422  2.1904  0.5733
  649MOL0     H87605   8.537   8.128   3.450 -1.9907  0.2942 -1.3140
  649MOL0     H87606   8.442   8.070   3.592 -1.6843  1.1588 -0.2578
  649MOL0     H87607   8.520   8.276   3.704 -0.7135 -1.3889  0.2631
  649MOL0     H87608   8.613   8.321   3.563  0.7343  1.4334  1.0708
  649MOL0     H87609   8.652   8.085   3.752 -2.2036  1.8031  1.4361
  649MOL0     H87610   8.742   8.085   3.600  2.3840 -2.2618  3.6916
  649MOL0     H87611   8.948   8.381   3.808  2.3082 -3.0669  1.9019
  649MOL0     H87612   8.237   8.345   3.852  0.5374 -2.9265  2.5282
  649MOL0     H87613   8.021   8.216   4.076 -2.3238  2.3831  1.4533
  649MOL0     H87614   8.126   8.351   4.055  1.4464 -1.2685 -0.5715
  649MOL0     H87615   7.959   8.373   4.017  0.4961  0.6985  0.2658
  650MOL0     O87616   4.320  10.585   0.088  0.8068  0.3874  0.2334
  650MOL0     C87617   4.261  10.557   0.192 -0.4037 -0.3056  0.0618
  650MOL0     O87618   4.303  10.470   0.288 -0.1581  0.3157 -0.1697
  650MOL0     C87619   4.396  10.382   0.242 -0.2947 -0.2195 -0.3759
  650MOL0     C87620   4.352  10.264   0.178 -0.5556  0.5805  0.5565
  650MOL0     C87621   4.441  10.186   0.106  0.8990  0.2593 -0.9205
  650MOL0     C87622   4.576  10.219   0.108 -0.0722 -0.3922  0.5503
  650MOL0     O87623   4.670  10.156   0.028 -0.3490 -0.8157 -0.5354
  650MOL0     C87624   4.621  10.074  -0.086  0.6109  0.0468 -0.2606
  650MOL0     C87625   4.744  10.044  -0.163 -0.8959  0.1182  0.6086
  650MOL0     C87626   4.735   9.933  -0.266  0.9703 -0.6154  0.0210
  650MOL0     C87627   4.862   9.895  -0.326  1.0646  0.1824  0.1294
  650MOL0     C87628   4.829   9.806  -0.451 -0.1823  0.2487  0.6934
  650MOL0     C87629   4.956   9.753  -0.523 -0.4450 -0.4027  0.1987
  650MOL0     C87630   4.929   9.690  -0.663  0.1313 -1.3630 -0.4145
  650MOL0     C87631   4.827   9.576  -0.668 -0.6844 -1.2282  0.6919
  650MOL0     N87632   4.883   9.449  -0.613 -1.0872  0.9797  0.7747
  650MOL0     C87633   4.910   9.410  -0.484 -0.6138 -0.7565  0.5400
  650MOL0     C87634   4.949   9.289  -0.485 -0.4221  0.0125  0.2981
  650MOL0     C87635   4.984   9.195  -0.364  0.5416  0.6511  0.9068
  650MOL0     C87636   5.131   9.160  -0.359  0.4166  0.7229 -0.8143
  650MOL0     C87637   5.185   9.160  -0.216 -0.0829 -0.2467 -0.3416
  650MOL0     C87638   5.332   9.134  -0.207  0.1538  0.8001 -0.2448
  650MOL0     O87639   5.374   9.010  -0.264 -0.1454  0.7258 -0.1207
  650MOL0     C87640   5.510   8.992  -0.263  0.5483 -0.2721  0.3026
  650MOL0     C87641   5.601   9.009  -0.156 -0.1665 -0.8200 -0.0960
  650MOL0     C87642   5.739   8.962  -0.172  0.7315 -1.4796 -0.5047
  650MOL0     C87643   5.780   8.890  -0.276 -1.1300 -0.0156 -0.8538
  650MOL0     C87644   5.924   8.839  -0.284 -0.5093  0.2079 -0.7464
  650MOL0     O87645   5.945   8.769  -0.396 -0.0905  0.3677  0.1427
  650MOL0     C87646   6.073   8.710  -0.404  0.9033 -1.0969  0.6961
  650MOL0     C87647   6.150   8.752  -0.507 -0.4662  0.5749  0.3153
  650MOL0     C87648   6.285   8.701  -0.517  0.2432  0.3628  0.4345
  650MOL0     C87649   6.329   8.595  -0.444 -0.0906  0.0702 -0.5795
  650MOL0     O87650   6.453   8.546  -0.475 -0.7750  0.4522  0.2668
  650MOL0     C87651   6.530   8.500  -0.367 -0.4052  0.6987 -0.0129
  650MOL0     C87652   6.666   8.431  -0.409  0.4659 -0.1817  0.1039
  650MOL0     C87653   6.745   8.372  -0.294  0.1399 -0.1955  0.2123
  650MOL0     C87654   6.866   8.294  -0.353 -0.4000 -0.4664 -0.3061
  650MOL0     C87655   6.936   8.205  -0.248 -0.4708  0.8328  0.5143
  650MOL0     C87656   7.078   8.257  -0.204 -0.4925 -0.4898  0.0464
  650MOL0     C87657   7.079   8.362  -0.090  0.1459  0.5807  0.3234
  650MOL0     C87658   7.205   8.434  -0.071 -0.1723 -0.9054 -0.2100
  650MOL0    Cl87659   7.326   8.311  -0.022 -0.1445 -0.3326 -0.1360
  650MOL0     C87660   6.241   8.546  -0.341 -0.3150  0.0393  0.2613
  650MOL0     C87661   6.116   8.608  -0.324  0.0291  0.6325 -0.4093
  650MOL0     O87662   6.008   8.849  -0.190  0.2119  0.5829  1.0354
  650MOL0     C87663   5.679   8.860  -0.373  0.9753  0.3538  0.4599
  650MOL0     C87664   5.549   8.922  -0.373 -0.1448  0.6619  0.2742
  650MOL0     N87665   4.957   9.251  -0.619  0.2411  0.4394  0.8064
  650MOL0     N87666   4.913   9.345  -0.695 -0.4551 -0.6705  0.3257
  650MOL0     C87667   4.617  10.331   0.181 -0.0981 -0.1235  0.0628
  650MOL0     C87668   4.531  10.411   0.245 -0.9881 -0.9452 -0.8018
  650MOL0     C87669   4.137  10.636   0.214  0.6501  0.0572  0.4605
  650MOL0     C87670   4.148  10.771   0.175  0.1310 -0.1974  0.2577
  650MOL0     C87671   4.044  10.856   0.212  0.1196  0.1307 -0.6260
  650MOL0     C87672   3.930  10.808   0.272 -0.9352  0.8477 -0.1515
  650MOL0     O87673   3.834  10.897   0.298  0.2733 -0.0578  0.2751
  650MOL0     C87674   3.808  10.936   0.429 -0.1923  0.3514 -0.8147
  650MOL0     C87675   3.920  11.013   0.491 -0.6284 -0.4753 -0.0420
  650MOL0     C87676   3.895  11.021   0.635  0.5757  0.1334 -1.0609
  650MOL0     C87677   3.897  11.162   0.676  0.0214 -1.3571 -0.0276
  650MOL0     C87678   3.845  11.169   0.813  1.0935  0.7822 -1.2743
  650MOL0     C87679   3.814  11.166   0.926  0.7255  0.4879 -0.7665
  650MOL0     C87680   3.917  10.676   0.309  0.1349  0.5612  0.0842
  650MOL0     C87681   4.021  10.581   0.278  0.3401  0.8221  0.8412
  650MOL0     C87682   4.005  10.426   0.315  0.4806  0.4639 -0.5575
  650MOL0     H87683   4.247  10.235   0.188 -0.5126  0.3393  0.3125
  650MOL0     H87684   4.413  10.090   0.064 -0.3805 -0.8901  2.2160
  650MOL0     H87685   4.577   9.980  -0.054  1.6852 -1.0697 -1.9008
  650MOL0     H87686   4.550  10.132  -0.147 -0.7210 -0.5383  0.7086
  650MOL0     H87687   4.815  10.007  -0.088 -0.0585 -0.9568 -0.6591
  650MOL0     H87688   4.768  10.141  -0.209  4.0207 -1.2134 -0.2320
  650MOL0     H87689   4.667   9.961  -0.347 -0.9194 -0.8644  1.4494
  650MOL0     H87690   4.690   9.845  -0.218  1.5770 -0.8211  0.2249
  650MOL0     H87691   4.931   9.975  -0.354  0.7645  0.1170 -0.8420
  650MOL0     H87692   4.921   9.826  -0.265  0.9639 -2.0268 -2.0971
  650MOL0     H87693   4.768   9.722  -0.417  1.0179 -1.7479 -1.7282
  650MOL0     H87694   4.779   9.871  -0.524 -1.7519  1.6778  2.9264
  650MOL0     H87695   5.019   9.842  -0.535 -0.8550 -0.0028  0.9798
  650MOL0     H87696   5.016   9.688  -0.458 -1.1602  1.5947  3.0075
  650MOL0     H87697   5.021   9.666  -0.717  0.3316  1.8366 -1.7201
  650MOL0     H87698   4.886   9.765  -0.731 -0.6236 -0.8172  0.6441
  650MOL0     H87699   4.743   9.610  -0.608  0.6312  1.9170  0.9893
  650MOL0     H87700   4.793   9.572  -0.772  1.2859  0.1434 -0.0799
  650MOL0     H87701   4.894   9.467  -0.393 -1.2741 -0.6458  0.3632
  650MOL0     H87702   4.948   9.249  -0.275 -1.0667  1.5563 -0.2399
  650MOL0     H87703   4.920   9.107  -0.375 -2.0513  2.6610 -2.1478
  650MOL0     H87704   5.147   9.062  -0.404  1.9434  0.7325 -0.3383
  650MOL0     H87705   5.194   9.229  -0.417  1.3018 -1.0820 -2.1087
  650MOL0     H87706   5.135   9.097  -0.142  0.8212  1.8087  2.1748
  650MOL0     H87707   5.169   9.254  -0.163 -1.2767  0.1884 -1.4263
  650MOL0     H87708   5.362   9.163  -0.106  0.7504  0.2863 -0.2701
  650MOL0     H87709   5.392   9.202  -0.269 -0.1869  2.2951  1.0067
  650MOL0     H87710   5.571   9.051  -0.060 -1.4696 -0.5999 -0.5769
  650MOL0     H87711   5.811   8.982  -0.094 -2.4366 -0.2298  2.3368
  650MOL0     H87712   6.119   8.817  -0.587 -1.7206 -0.7206 -0.2953
  650MOL0     H87713   6.346   8.739  -0.598  3.3376 -0.0424  2.3978
  650MOL0     H87714   6.559   8.576  -0.294  3.8868 -2.4851  2.0217
  650MOL0     H87715   6.471   8.423  -0.315 -0.1364 -0.0641 -0.8059
  650MOL0     H87716   6.647   8.360  -0.490 -0.5293  1.4181 -1.1343
  650MOL0     H87717   6.731   8.505  -0.455  0.2784 -0.7054 -1.0423
  650MOL0     H87718   6.787   8.448  -0.227 -2.6568  2.1289 -0.4763
  650MOL0     H87719   6.688   8.307  -0.227 -0.3268 -0.2214 -0.2105
  650MOL0     H87720   6.944   8.361  -0.391 -0.6323 -0.1957 -0.3104
  650MOL0     H87721   6.822   8.245  -0.440 -1.8724 -0.2361  0.2794
  650MOL0     H87722   6.960   8.109  -0.295  3.2393  2.3843 -1.2088
  650MOL0     H87723   6.871   8.174  -0.166 -0.9559  1.4815  0.3761
  650MOL0     H87724   7.154   8.182  -0.178  3.1549  2.3975 -1.3205
  650MOL0     H87725   7.124   8.300  -0.294 -2.0501 -0.2729 -0.6805
  650MOL0     H87726   7.048   8.304  -0.003 -3.1573  0.9786 -0.4641
  650MOL0     H87727   7.000   8.435  -0.111 -1.1793 -1.0658 -0.7285
  650MOL0     H87728   7.223   8.492  -0.162  1.3721 -0.8619  0.1099
  650MOL0     H87729   7.188   8.505   0.011  1.4928 -0.9674  0.2207
  650MOL0     H87730   6.255   8.467  -0.269  0.5381  0.5062  0.6192
  650MOL0     H87731   6.048   8.578  -0.245 -0.8523 -3.3065 -2.4328
  650MOL0     H87732   5.703   8.791  -0.453 -1.2460 -2.3783  1.9692
  650MOL0     H87733   5.479   8.893  -0.451 -0.1478 -0.3579  0.6336
  650MOL0     H87734   4.719  10.366   0.193  0.0246 -1.1671  2.9247
  650MOL0     H87735   4.572  10.496   0.300 -1.0078 -2.0625  0.9977
  650MOL0     H87736   4.228  10.813   0.115 -0.0453  2.1071  1.5040
  650MOL0     H87737   4.052  10.963   0.193  0.1840 -0.0777 -1.8610
  650MOL0     H87738   3.800  10.845   0.489  1.6406  0.5108 -0.2635
  650MOL0     H87739   3.723  11.005   0.431  1.0305  2.1278  4.3021
  650MOL0     H87740   3.939  11.098   0.425 -2.6934 -0.6583 -0.9525
  650MOL0     H87741   4.017  10.962   0.487 -0.3567  0.1086 -2.0183
  650MOL0     H87742   3.972  10.972   0.695  0.3129 -2.1392 -2.4695
  650MOL0     H87743   3.797  10.977   0.655 -0.2112  1.0217 -2.7513
  650MOL0     H87744   3.995  11.211   0.672  0.9289 -3.0613  0.5800
  650MOL0     H87745   3.826  11.219   0.614  0.2877  0.1344  0.9727
  650MOL0     H87746   3.782  11.156   1.028  1.9171 -2.3201 -0.5625
  650MOL0     H87747   3.827  10.632   0.352 -0.2590 -0.4595 -1.6962
  650MOL0     H87748   3.923  10.380   0.371  0.4058 -0.9515 -1.7510
  650MOL0     H87749   4.023  10.362   0.228 -2.6680 -3.1406  1.1244
  650MOL0     H87750   4.085  10.403   0.387 -0.0423 -3.0447 -0.9130
  651MOL0     O87751   0.867   2.855   8.502  0.3743 -0.4589 -0.2173
  651MOL0     C87752   0.882   2.926   8.599  0.3036 -0.4257 -1.0838
  651MOL0     O87753   0.963   2.903   8.711 -0.0960  0.7293  0.1285
  651MOL0     C87754   1.056   2.807   8.701  0.6014  0.6697  0.4121
  651MOL0     C87755   1.082   2.739   8.822 -0.0690 -0.3848 -0.1101
  651MOL0     C87756   1.199   2.648   8.819  0.8046  0.1291  0.7629
  651MOL0     C87757   1.270   2.627   8.697 -1.5201  0.5991  0.5632
  651MOL0     O87758   1.368   2.523   8.700 -0.4303  0.1722 -0.1347
  651MOL0     C87759   1.424   2.471   8.575  0.1105 -0.7119  0.2428
  651MOL0     C87760   1.513   2.347   8.604  0.0442 -0.2501 -0.0945
  651MOL0     C87761   1.655   2.396   8.619 -0.6759  0.9592 -0.9205
  651MOL0     C87762   1.750   2.275   8.671  0.3983 -0.3089 -0.2275
  651MOL0     C87763   1.885   2.317   8.690 -1.1292  0.8354 -0.9756
  651MOL0     C87764   1.992   2.203   8.720 -0.6269 -0.4287  0.6930
  651MOL0     C87765   1.949   2.126   8.843 -1.9313  0.0316  0.5007
  651MOL0     C87766   2.054   2.026   8.886 -0.3003  0.5574  0.4501
  651MOL0     N87767   2.071   1.912   8.793 -0.0428 -0.5724 -0.3797
  651MOL0     C87768   2.039   1.779   8.808  0.0921 -0.3300 -0.9296
  651MOL0     C87769   2.080   1.713   8.709 -0.3970 -0.2266  1.0786
  651MOL0     C87770   2.063   1.566   8.674  0.1822  0.3028  0.2177
  651MOL0     C87771   1.938   1.549   8.598  0.5735 -0.6665 -0.4637
  651MOL0     C87772   1.874   1.422   8.650  0.7936  0.3206  0.0949
  651MOL0     C87773   1.747   1.378   8.581  0.8492  0.5389  0.6620
  651MOL0     O87774   1.684   1.255   8.626 -0.2828  0.2525 -0.0139
  651MOL0     C87775   1.730   1.129   8.590  0.0381  0.3421  0.5922
  651MOL0     C87776   1.678   1.006   8.640  0.0100  0.8677  0.4269
  651MOL0     C87777   1.723   0.875   8.606 -0.2225  0.4545  0.5800
  651MOL0     C87778   1.834   0.861   8.519 -0.3964 -0.7113 -0.8323
  651MOL0     C87779   1.878   0.737   8.463 -0.2358 -0.0565 -0.9273
  651MOL0     O87780   1.829   0.619   8.516 -0.1115 -0.0686  0.0245
  651MOL0     C87781   1.871   0.496   8.461  0.8958  0.3746 -0.0283
  651MOL0     C87782   1.903   0.452   8.322 -0.2554 -0.2804 -0.5570
  651MOL0     C87783   1.938   0.322   8.302  0.1534  0.1476  0.2916
  651MOL0     C87784   1.920   0.226   8.406  0.6445  0.1591  0.3931
  651MOL0     O87785   1.928   0.093   8.372  0.6792  0.3887 -0.0896
  651MOL0     C87786   2.061   0.040   8.357 -0.6805 -0.0348 -0.1636
  651MOL0     C87787   2.079  -0.062   8.465  0.3147  0.1307  0.1353
  651MOL0     C87788   2.210  -0.130   8.445 -0.5107 -0.0104  0.0198
  651MOL0     C87789   2.202  -0.267   8.515 -0.0487  0.8044  0.4947
  651MOL0     C87790   2.325  -0.348   8.467  0.4855 -0.2426 -0.2700
  651MOL0     C87791   2.329  -0.473   8.542 -0.2770  0.6667 -0.8994
  651MOL0     C87792   2.473  -0.544   8.521 -0.2550 -0.7940  0.9958
  651MOL0     C87793   2.481  -0.666   8.609  0.2993 -0.0593 -0.2932
  651MOL0    Cl87794   2.354  -0.780   8.560 -0.1512 -0.4639 -0.4109
  651MOL0     C87795   1.883   0.267   8.532  0.0389  0.5486 -0.4571
  651MOL0     C87796   1.867   0.394   8.565 -0.2814 -0.4752 -0.1700
  651MOL0     O87797   1.961   0.736   8.370  0.6330 -0.2432  0.7094
  651MOL0     C87798   1.889   0.981   8.470  0.3930  0.6220 -1.0919
  651MOL0     C87799   1.834   1.106   8.505 -0.1378 -0.8882  0.4433
  651MOL0     N87800   2.149   1.793   8.632  0.2858 -0.2684 -0.2574
  651MOL0     N87801   2.155   1.913   8.687 -0.9876  0.3347  0.2303
  651MOL0     C87802   1.241   2.701   8.582  0.4883  0.1153  0.2276
  651MOL0     C87803   1.135   2.794   8.587 -0.5105 -0.2740  0.4546
  651MOL0     C87804   0.811   3.064   8.607 -0.8155  0.9517  0.2630
  651MOL0     C87805   0.805   3.126   8.734  0.2279 -0.1030 -0.4226
  651MOL0     C87806   0.729   3.244   8.759  0.6244 -0.3512  1.8761
  651MOL0     C87807   0.670   3.312   8.651  0.8420 -0.7158 -0.8991
  651MOL0     O87808   0.579   3.412   8.661 -0.1387  0.3687 -0.3242
  651MOL0     C87809   0.501   3.430   8.782 -0.1190 -0.2779 -0.0131
  651MOL0     C87810   0.359   3.490   8.760  0.0251 -0.0757  0.1668
  651MOL0     C87811   0.296   3.454   8.618 -0.1249 -0.0283 -0.7962
  651MOL0     C87812   0.152   3.506   8.614 -1.4487  0.6716  0.8815
  651MOL0     C87813   0.139   3.648   8.619 -0.9774  0.5405 -0.4174
  651MOL0     C87814   0.132   3.766   8.613  0.1205  0.5864 -0.3211
  651MOL0     C87815   0.684   3.258   8.525  0.1425  0.2652  0.3311
  651MOL0     C87816   0.746   3.132   8.500 -0.1167  0.4224 -0.0920
  651MOL0     C87817   0.730   3.077   8.363  0.2691 -0.2218  0.0323
  651MOL0     H87818   1.038   2.758   8.919  1.1745 -1.5726  0.7268
  651MOL0     H87819   1.225   2.596   8.911 -2.3038 -0.6653  1.3031
  651MOL0     H87820   1.352   2.433   8.502  1.8046 -1.6268 -1.0073
  651MOL0     H87821   1.474   2.558   8.534 -1.0887 -0.8844 -1.7153
  651MOL0     H87822   1.514   2.292   8.509 -0.6189  1.2569 -0.9999
  651MOL0     H87823   1.473   2.287   8.686  0.1724 -1.9546 -1.2190
  651MOL0     H87824   1.659   2.478   8.692  0.0371 -0.6766  0.9816
  651MOL0     H87825   1.694   2.435   8.525 -0.7151  0.4814 -1.1388
  651MOL0     H87826   1.701   2.225   8.755  0.0120 -1.2618 -1.0010
  651MOL0     H87827   1.745   2.187   8.606 -5.0523 -0.5434  0.0255
  651MOL0     H87828   1.917   2.392   8.617 -0.8919  0.1953 -1.5438
  651MOL0     H87829   1.897   2.371   8.784 -1.7717 -1.0743  0.2501
  651MOL0     H87830   1.989   2.143   8.628 -2.1424 -1.4204  1.3539
  651MOL0     H87831   2.089   2.251   8.735 -1.8228  2.3392  0.2263
  651MOL0     H87832   1.856   2.070   8.828 -0.4591 -2.8592  1.4266
  651MOL0     H87833   1.922   2.197   8.921 -0.2818  0.6904  0.5115
  651MOL0     H87834   2.152   2.074   8.894 -0.0866  0.2009  0.0026
  651MOL0     H87835   2.030   1.976   8.981  0.3666 -2.1346 -0.7355
  651MOL0     H87836   1.982   1.729   8.885  2.6251  2.1437  2.8973
  651MOL0     H87837   2.143   1.536   8.606  0.6153  0.0296  0.8354
  651MOL0     H87838   2.075   1.498   8.758 -1.4100 -1.4602 -0.8949
  651MOL0     H87839   1.872   1.635   8.616  1.0770 -0.8010  2.5247
  651MOL0     H87840   1.964   1.548   8.492 -0.1576 -0.1095 -0.6583
  651MOL0     H87841   1.852   1.437   8.756 -1.8099 -0.7880 -0.2171
  651MOL0     H87842   1.947   1.341   8.644 -2.7108 -3.5449  3.2623
  651MOL0     H87843   1.772   1.378   8.474  2.2208 -0.6471  0.9607
  651MOL0     H87844   1.667   1.453   8.575 -0.2461 -0.7021 -1.5102
  651MOL0     H87845   1.582   1.019   8.689 -2.6181 -2.2246 -3.2283
  651MOL0     H87846   1.667   0.786   8.634  1.3404 -0.4486  0.9812
  651MOL0     H87847   1.910   0.521   8.238 -1.3953  0.3572 -0.1468
  651MOL0     H87848   1.960   0.282   8.204  2.3660  3.6676 -0.8233
  651MOL0     H87849   2.072  -0.009   8.260 -0.4019  1.0212 -0.6776
  651MOL0     H87850   2.144   0.111   8.363 -0.3690 -0.5088  1.6325
  651MOL0     H87851   2.086  -0.009   8.560  0.4484  0.9626 -0.3264
  651MOL0     H87852   1.995  -0.132   8.471  0.1850  0.2517 -0.2246
  651MOL0     H87853   2.235  -0.139   8.338 -0.7463  2.4300 -0.3017
  651MOL0     H87854   2.288  -0.064   8.484  1.1221 -1.0946 -1.2588
  651MOL0     H87855   2.111  -0.325   8.494 -0.2702  0.6848  1.7183
  651MOL0     H87856   2.203  -0.254   8.624  1.0930 -0.4603  0.6529
  651MOL0     H87857   2.412  -0.290   8.499  1.0351 -0.2306 -1.7167
  651MOL0     H87858   2.320  -0.357   8.358  2.4425 -0.7829 -0.3436
  651MOL0     H87859   2.321  -0.445   8.647 -3.8589 -1.1192 -0.5628
  651MOL0     H87860   2.249  -0.543   8.517 -0.3270  1.2532 -2.5097
  651MOL0     H87861   2.543  -0.467   8.553 -0.0186  0.9159 -3.0772
  651MOL0     H87862   2.505  -0.573   8.421 -1.5031  3.3819 -0.8445
  651MOL0     H87863   2.584  -0.702   8.604  1.0995  1.1081  3.8519
  651MOL0     H87864   2.454  -0.649   8.714 -0.8519  0.9997 -0.7337
  651MOL0     H87865   1.887   0.192   8.610 -0.8129 -0.0940 -1.0295
  651MOL0     H87866   1.834   0.422   8.664  1.2354  4.5430 -0.8382
  651MOL0     H87867   1.975   0.971   8.403  0.5027  2.0817 -1.2064
  651MOL0     H87868   1.886   1.184   8.450  0.7582 -1.2827  0.7072
  651MOL0     H87869   1.296   2.699   8.489 -0.2123 -2.4651 -0.1905
  651MOL0     H87870   1.117   2.848   8.495 -2.5570  1.2670  1.6628
  651MOL0     H87871   0.844   3.081   8.824  0.1785  1.2682  0.3105
  651MOL0     H87872   0.728   3.298   8.853  3.2583  2.6830  0.3677
  651MOL0     H87873   0.561   3.477   8.860  0.8605 -3.4101  1.2918
  651MOL0     H87874   0.499   3.327   8.820  0.3404 -0.6069 -0.8443
  651MOL0     H87875   0.356   3.599   8.771 -3.0684 -0.0467 -0.0853
  651MOL0     H87876   0.291   3.456   8.839 -2.7784  0.6291 -1.7806
  651MOL0     H87877   0.307   3.347   8.600  2.5889  0.5126 -3.1787
  651MOL0     H87878   0.348   3.510   8.539  0.5072 -3.5460 -3.0863
  651MOL0     H87879   0.117   3.464   8.519 -0.8742 -0.0359  0.9727
  651MOL0     H87880   0.099   3.462   8.699  1.5460 -1.8565  1.6366
  651MOL0     H87881   0.123   3.872   8.604 -1.1703  0.5345  0.1844
  651MOL0     H87882   0.629   3.314   8.450 -5.2364 -2.8295  1.4444
  651MOL0     H87883   0.663   2.991   8.366  0.8014 -0.6646 -0.4545
  651MOL0     H87884   0.682   3.144   8.291  0.8356 -1.5922 -1.7254
  651MOL0     H87885   0.825   3.036   8.325 -0.5770  0.1132 -2.6323
  652MOL0     O87886   2.349   9.450   6.983  0.5963  0.2596  0.1299
  652MOL0     C87887   2.342   9.380   6.884 -0.5255 -0.0519  0.5237
  652MOL0     O87888   2.368   9.424   6.754  0.4871  1.2117 -0.4423
  652MOL0     C87889   2.390   9.553   6.710  0.7956 -0.6858  0.4199
  652MOL0     C87890   2.453   9.566   6.589 -0.7472  0.0018 -0.1342
  652MOL0     C87891   2.473   9.690   6.520  0.3665  0.3221  1.0595
  652MOL0     C87892   2.424   9.802   6.575 -0.4455 -0.5909 -0.4212
  652MOL0     O87893   2.462   9.916   6.509  0.5555  0.3952  0.3032
  652MOL0     C87894   2.403  10.041   6.536  0.4427  0.2533 -0.4038
  652MOL0     C87895   2.383  10.128   6.411  0.3314  0.7341  1.0208
  652MOL0     C87896   2.261  10.140   6.324 -0.1610 -0.9968 -0.5858
  652MOL0     C87897   2.213  10.028   6.240 -0.5141 -0.5929 -0.6014
  652MOL0     C87898   2.071  10.053   6.195  0.6340 -0.0692  0.3701
  652MOL0     C87899   2.076  10.153   6.083  0.5546  0.5676  0.6299
  652MOL0     C87900   1.939  10.147   6.009  0.8667 -0.6866  0.0724
  652MOL0     C87901   1.949  10.091   5.865 -0.4615  0.5830 -0.3423
  652MOL0     N87902   1.816  10.090   5.796  0.3867  0.3829 -1.2692
  652MOL0     C87903   1.698  10.038   5.849  0.1444  0.6732  0.5673
  652MOL0     C87904   1.604  10.082   5.760 -0.2161 -0.3570  0.6618
  652MOL0     C87905   1.457  10.081   5.787 -0.3483  0.6873  0.1856
  652MOL0     C87906   1.374  10.043   5.662  0.9548 -0.2098  0.4752
  652MOL0     C87907   1.383   9.902   5.603  0.0111  1.2368 -0.5847
  652MOL0     C87908   1.345   9.792   5.714 -0.8315  1.3598 -0.6564
  652MOL0     O87909   1.229   9.807   5.796 -1.4036 -0.2805  0.5752
  652MOL0     C87910   1.108   9.770   5.745  0.4871 -0.7968  0.3232
  652MOL0     C87911   0.999   9.780   5.830 -0.2724  1.3247 -0.7782
  652MOL0     C87912   0.864   9.750   5.782  0.0685 -0.2976 -0.2054
  652MOL0     C87913   0.847   9.694   5.651 -0.4353  0.2749 -1.1465
  652MOL0     C87914   0.713   9.665   5.602  0.4144  0.1166 -0.3729
  652MOL0     O87915   0.693   9.602   5.476 -0.0047  0.5542 -0.4125
  652MOL0     C87916   0.571   9.610   5.410  0.0211 -0.0849 -0.4457
  652MOL0     C87917   0.581   9.655   5.279  0.0758 -0.7650 -0.4694
  652MOL0     C87918   0.469   9.665   5.192 -0.3427 -0.6781 -0.0323
  652MOL0     C87919   0.347   9.624   5.232  0.5713 -1.1367  0.0867
  652MOL0     O87920   0.234   9.632   5.155  0.4686  0.0807  0.6749
  652MOL0     C87921   0.195   9.754   5.101 -0.3958  0.1947 -0.0962
  652MOL0     C87922   0.071   9.726   5.015  0.5536  0.0830  0.4662
  652MOL0     C87923  -0.006   9.854   4.996  1.2871 -0.5151  0.9238
  652MOL0     C87924  -0.093   9.843   4.869  0.4825 -0.0255  0.2838
  652MOL0     C87925  -0.185   9.968   4.861 -0.7723  0.0997  0.7654
  652MOL0     C87926  -0.268   9.970   4.729 -0.2856 -0.1617 -0.4622
  652MOL0     C87927  -0.358  10.095   4.736  0.2673 -0.6919 -0.5630
  652MOL0     C87928  -0.453  10.112   4.606  0.1948  0.2920 -0.7199
  652MOL0    Cl87929  -0.361  10.176   4.467 -0.4294 -0.3206  0.1135
  652MOL0     C87930   0.331   9.573   5.360  0.0005 -0.1492 -0.7548
  652MOL0     C87931   0.440   9.571   5.449  0.5721 -0.6777 -0.0379
  652MOL0     O87932   0.621   9.689   5.680  0.3691 -0.3361  0.6562
  652MOL0     C87933   0.961   9.671   5.571  0.0105  0.3157 -1.0453
  652MOL0     C87934   1.085   9.719   5.617  0.0899  0.3758 -0.0021
  652MOL0     N87935   1.655  10.155   5.657 -0.0894 -0.2096 -1.0043
  652MOL0     N87936   1.778  10.173   5.690 -0.6450 -0.9241  0.4702
  652MOL0     C87937   2.362   9.791   6.703 -0.2864 -0.2018  0.4282
  652MOL0     C87938   2.352   9.670   6.771  0.4047 -0.2897  0.2356
  652MOL0     C87939   2.329   9.234   6.899 -0.4270  0.1796 -0.6632
  652MOL0     C87940   2.414   9.142   6.833  0.6472 -0.0391 -0.8163
  652MOL0     C87941   2.398   9.010   6.846 -0.5194 -0.6347 -0.1775
  652MOL0     C87942   2.296   8.946   6.914 -0.2855  0.8612 -0.5775
  652MOL0     O87943   2.287   8.810   6.903  0.2901 -0.1069  0.1802
  652MOL0     C87944   2.227   8.732   7.014 -0.3949  0.5671  0.8122
  652MOL0     C87945   2.206   8.586   6.959 -0.1001  0.1350 -0.8216
  652MOL0     C87946   2.186   8.487   7.077 -0.3998  0.0875 -0.1101
  652MOL0     C87947   2.113   8.358   7.040 -0.3894 -0.5821  0.9376
  652MOL0     C87948   2.088   8.259   7.144 -0.4999 -0.3022  0.5238
  652MOL0     C87949   2.089   8.161   7.215 -0.4742 -0.0731 -0.1120
  652MOL0     C87950   2.217   9.035   6.985 -0.1135  0.0776  0.0242
  652MOL0     C87951   2.226   9.176   6.981 -0.2058 -0.4704  0.8828
  652MOL0     C87952   2.145   9.245   7.083  0.9409 -0.7424 -0.4963
  652MOL0     H87953   2.497   9.473   6.555 -0.2320 -0.2249  1.0838
  652MOL0     H87954   2.510   9.700   6.419 -2.3873  0.3915 -0.0439
  652MOL0     H87955   2.308  10.032   6.590  0.6718  0.5970  0.0592
  652MOL0     H87956   2.467  10.089   6.610 -1.6838  1.4127  0.7673
  652MOL0     H87957   2.461  10.087   6.347 -0.2216 -1.2359  1.5317
  652MOL0     H87958   2.401  10.228   6.450  0.1953  2.4388 -2.8555
  652MOL0     H87959   2.264  10.235   6.269  0.6200  0.4175  1.7714
  652MOL0     H87960   2.185  10.171   6.396  1.0320 -0.5013  0.5045
  652MOL0     H87961   2.278  10.019   6.152  0.1357  0.1462 -0.2032
  652MOL0     H87962   2.214   9.946   6.313 -0.0045 -0.4355 -0.4283
  652MOL0     H87963   2.021   9.962   6.161 -0.0520  0.6730 -0.6587
  652MOL0     H87964   2.008  10.103   6.269 -3.0888 -1.1385 -1.8050
  652MOL0     H87965   2.090  10.252   6.127 -0.4009  0.3263  1.5280
  652MOL0     H87966   2.162  10.131   6.021  1.6944  2.2463  1.5306
  652MOL0     H87967   1.891  10.244   6.000 -0.7803 -1.4665  0.1299
  652MOL0     H87968   1.867  10.091   6.069 -0.3523  2.2930  1.5612
  652MOL0     H87969   2.021  10.152   5.811  1.8887 -0.5316  1.3461
  652MOL0     H87970   1.994   9.991   5.865  0.2648  0.9023 -0.9668
  652MOL0     H87971   1.680   9.997   5.947 -0.3831  0.1394  0.2510
  652MOL0     H87972   1.450  10.001   5.861  1.9773  0.4885  0.2678
  652MOL0     H87973   1.425  10.178   5.826 -1.0334  0.7032 -0.3934
  652MOL0     H87974   1.269  10.047   5.690  1.0317  1.6442  0.6357
  652MOL0     H87975   1.399  10.119   5.587  3.8703  1.8614  3.2998
  652MOL0     H87976   1.480   9.874   5.560 -1.1300 -0.5151 -2.1707
  652MOL0     H87977   1.313   9.892   5.520  0.8612  1.4527 -1.3548
  652MOL0     H87978   1.425   9.790   5.789 -2.0080  0.4342  0.6252
  652MOL0     H87979   1.350   9.690   5.673  3.3248  0.2795  1.8863
  652MOL0     H87980   1.004   9.815   5.933  0.4220  1.0647 -0.7232
  652MOL0     H87981   0.782   9.776   5.849  1.3367  2.1255  0.5071
  652MOL0     H87982   0.678   9.681   5.236  0.5220  1.3241  1.6182
  652MOL0     H87983   0.487   9.678   5.086  1.3278 -1.9225  0.0460
  652MOL0     H87984   0.170   9.827   5.178 -2.6185 -0.4377 -0.1472
  652MOL0     H87985   0.268   9.778   5.024 -2.0142 -2.1076 -2.5456
  652MOL0     H87986   0.094   9.676   4.920 -0.9961 -0.9593  0.6014
  652MOL0     H87987  -0.005   9.660   5.058  0.0601 -1.1031 -2.0516
  652MOL0     H87988  -0.078   9.881   5.074  0.9874 -1.1208  0.8640
  652MOL0     H87989   0.062   9.937   4.976  1.4712 -0.7357  0.6232
  652MOL0     H87990  -0.146   9.747   4.874  1.5742 -0.5889  2.0164
  652MOL0     H87991  -0.021   9.820   4.789 -0.2405 -0.8835 -0.1426
  652MOL0     H87992  -0.131  10.063   4.871 -1.4258  0.4665  0.8632
  652MOL0     H87993  -0.255   9.947   4.941  0.2698  0.6633  1.8569
  652MOL0     H87994  -0.205   9.971   4.639  0.6184 -1.1927  0.1431
  652MOL0     H87995  -0.321   9.875   4.725  0.2083 -0.4410 -0.3828
  652MOL0     H87996  -0.302  10.182   4.772 -0.3027 -2.0277  4.2406
  652MOL0     H87997  -0.422  10.093   4.825  1.8711  1.8719  0.7691
  652MOL0     H87998  -0.489  10.015   4.573 -1.4414 -0.1005  1.9118
  652MOL0     H87999  -0.542  10.174   4.622  0.6909  0.7346  0.4833
  652MOL0     H88000   0.243   9.529   5.406  0.0386 -1.0407 -1.4811
  652MOL0     H88001   0.427   9.537   5.551  1.9052  1.2012  0.8299
  652MOL0     H88002   0.963   9.627   5.471  1.4718 -1.4887 -0.2748
  652MOL0     H88003   1.166   9.711   5.546  0.4050 -2.3412  0.5391
  652MOL0     H88004   2.313   9.878   6.747  1.1993  1.3326 -0.8108
  652MOL0     H88005   2.305   9.668   6.869 -0.3034  2.2391  0.0233
  652MOL0     H88006   2.488   9.178   6.762 -0.7568  2.0158 -1.3053
  652MOL0     H88007   2.446   8.937   6.782  0.4561 -1.0840  1.0426
  652MOL0     H88008   2.127   8.769   7.041 -1.4254  1.0918 -3.1374
  652MOL0     H88009   2.287   8.727   7.105  0.8936  1.6311  0.0564
  652MOL0     H88010   2.292   8.557   6.898  0.0775 -0.9566 -0.0888
  652MOL0     H88011   2.117   8.583   6.897 -0.3840  0.0578 -0.4171
  652MOL0     H88012   2.124   8.539   7.150 -1.1489  0.2659 -0.8514
  652MOL0     H88013   2.278   8.454   7.125 -2.7220 -3.7941  2.1563
  652MOL0     H88014   2.012   8.381   7.004  0.3077  0.7751 -0.2525
  652MOL0     H88015   2.162   8.311   6.954 -1.5452  0.0608 -0.1061
  652MOL0     H88016   2.078   8.070   7.270  3.7559  0.1688  1.4943
  652MOL0     H88017   2.150   8.985   7.055  0.1589 -0.3044  0.0143
  652MOL0     H88018   2.122   9.349   7.059 -0.4803 -1.3375 -1.9323
  652MOL0     H88019   2.050   9.191   7.080  1.8362 -2.4900  0.5654
  652MOL0     H88020   2.196   9.244   7.180 -2.1202  2.4387  1.3754
  653MOL0     O88021   4.808   4.822   8.043 -0.4565 -0.2748 -0.2526
  653MOL0     C88022   4.803   4.803   7.922  0.0005  0.8743 -0.5005
  653MOL0     O88023   4.729   4.881   7.834  0.1584 -0.1363 -0.2426
  653MOL0     C88024   4.690   5.007   7.863  0.2240 -0.3738  0.8370
  653MOL0     C88025   4.594   5.021   7.960  0.9228 -0.0936 -0.9127
  653MOL0     C88026   4.539   5.148   7.991  0.4089  0.4455 -0.1431
  653MOL0     C88027   4.588   5.261   7.930 -0.5953 -0.1794  0.1657
  653MOL0     O88028   4.560   5.395   7.951 -0.0643 -0.4170 -0.2990
  653MOL0     C88029   4.514   5.452   8.072  0.2112 -1.0473 -0.8531
  653MOL0     C88030   4.498   5.603   8.060 -0.1516  0.0490 -0.5960
  653MOL0     C88031   4.408   5.652   7.942  0.0988  0.3548 -0.2188
  653MOL0     C88032   4.365   5.800   7.937  0.5187 -0.4065  0.1700
  653MOL0     C88033   4.287   5.845   7.809  0.1925  0.6246  0.8158
  653MOL0     C88034   4.271   5.999   7.795 -0.2872 -0.1172  0.4916
  653MOL0     C88035   4.208   6.044   7.660 -0.3332 -0.6954 -0.2067
  653MOL0     C88036   4.060   6.000   7.643  0.2932 -0.1762 -0.6089
  653MOL0     N88037   3.955   6.074   7.724  0.0639  0.0529 -0.5490
  653MOL0     C88038   3.934   6.211   7.727  0.2581 -0.5117  0.8582
  653MOL0     C88039   3.844   6.231   7.825  0.1874 -0.0721 -0.3306
  653MOL0     C88040   3.807   6.368   7.877  0.1746  0.1053 -0.2356
  653MOL0     C88041   3.684   6.348   7.962  0.9499  0.3927 -0.6573
  653MOL0     C88042   3.614   6.486   7.986  0.8583  0.3816  0.6110
  653MOL0     C88043   3.499   6.457   8.096 -0.3036 -0.2361  0.2695
  653MOL0     O88044   3.411   6.564   8.126 -0.4545  0.0482  0.7391
  653MOL0     C88045   3.420   6.649   8.232 -0.3053  0.4470 -0.6103
  653MOL0     C88046   3.508   6.632   8.339  0.3806 -0.3481  0.3661
  653MOL0     C88047   3.487   6.721   8.446  0.9534  0.4045 -0.2916
  653MOL0     C88048   3.375   6.812   8.454  0.5753 -0.6996 -0.4847
  653MOL0     C88049   3.340   6.877   8.590 -0.5616 -0.4224 -0.2255
  653MOL0     O88050   3.229   6.957   8.599 -0.3970 -0.8756 -0.7517
  653MOL0     C88051   3.227   7.032   8.721 -0.1927  1.3874 -0.1341
  653MOL0     C88052   3.338   7.099   8.770 -0.4772 -0.2107  0.8810
  653MOL0     C88053   3.331   7.176   8.882  0.2270  0.6418  0.3479
  653MOL0     C88054   3.213   7.162   8.965 -0.2294  0.4421 -0.3430
  653MOL0     O88055   3.207   7.212   9.092  0.8895  0.3396 -0.1836
  653MOL0     C88056   3.329   7.251   9.155  0.8245  0.1776 -0.7095
  653MOL0     C88057   3.362   7.395   9.139  0.2633  0.7499 -0.3314
  653MOL0     C88058   3.252   7.491   9.188 -0.5048 -0.3862  0.2546
  653MOL0     C88059   3.277   7.632   9.144 -0.7210 -0.0798 -0.1512
  653MOL0     C88060   3.191   7.716   9.243  0.0957  0.2017  0.0810
  653MOL0     C88061   3.189   7.863   9.206 -0.6177  0.2332  0.2581
  653MOL0     C88062   3.144   7.876   9.060  0.0894 -0.1144 -0.9020
  653MOL0     C88063   3.094   8.024   9.041 -0.3941  0.0240  0.3300
  653MOL0    Cl88064   3.042   8.039   8.873  0.3105 -0.0411  0.0881
  653MOL0     C88065   3.105   7.089   8.920 -0.3047  0.2136  0.1804
  653MOL0     C88066   3.113   7.027   8.796 -0.1548 -0.3339 -0.3458
  653MOL0     O88067   3.413   6.849   8.686 -0.2985 -0.3690  1.1493
  653MOL0     C88068   3.295   6.826   8.346  0.4928  0.3324  1.0420
  653MOL0     C88069   3.314   6.745   8.237 -0.3687 -0.0036 -0.5204
  653MOL0     N88070   3.835   6.108   7.893  0.1252  0.9086  0.0861
  653MOL0     N88071   3.899   6.011   7.834  0.1530 -0.2952 -0.0064
  653MOL0     C88072   4.681   5.246   7.827 -1.2040 -0.5918  1.0357
  653MOL0     C88073   4.737   5.117   7.803  1.0174 -0.4437 -0.3919
  653MOL0     C88074   4.888   4.701   7.842  0.4458 -0.0727 -0.6210
  653MOL0     C88075   4.886   4.703   7.707  0.4175  0.5046  0.1178
  653MOL0     C88076   4.951   4.603   7.637  0.0309  0.8660  0.2757
  653MOL0     C88077   5.039   4.514   7.699 -0.5575 -0.9613 -0.6108
  653MOL0     O88078   5.128   4.428   7.639 -0.2696  0.2159  0.2125
  653MOL0     C88079   5.123   4.424   7.496  0.2320 -0.6598 -0.4058
  653MOL0     C88080   5.215   4.327   7.424 -0.7573 -0.6484 -0.4281
  653MOL0     C88081   5.186   4.328   7.287  0.6440  0.4817  0.9450
  653MOL0     C88082   5.239   4.204   7.208 -0.1344  0.2246 -0.3608
  653MOL0     C88083   5.196   4.194   7.070 -0.5330 -0.2809  0.2702
  653MOL0     C88084   5.156   4.183   6.950 -0.4532  0.4689  0.5603
  653MOL0     C88085   5.057   4.527   7.838 -0.4539  0.5328  0.7576
  653MOL0     C88086   4.976   4.617   7.910  0.1527 -1.2688 -0.1838
  653MOL0     C88087   4.983   4.595   8.065 -0.3737 -0.8526 -0.2771
  653MOL0     H88088   4.559   4.928   8.004  1.8101 -0.1629 -0.3318
  653MOL0     H88089   4.464   5.160   8.069 -0.9281 -1.3734 -1.0773
  653MOL0     H88090   4.413   5.411   8.083 -1.6235  3.3027  0.3774
  653MOL0     H88091   4.571   5.417   8.159 -1.1761 -3.7554 -0.9305
  653MOL0     H88092   4.598   5.642   8.036  0.0798  0.2932  0.6841
  653MOL0     H88093   4.471   5.651   8.154  2.5206  2.1768 -0.7688
  653MOL0     H88094   4.312   5.599   7.942 -0.5678  1.4703 -2.1458
  653MOL0     H88095   4.470   5.637   7.853 -2.5249  0.1656 -2.1256
  653MOL0     H88096   4.309   5.832   8.026 -1.4395  0.4496 -1.2915
  653MOL0     H88097   4.460   5.852   7.930  1.8727 -2.7200  0.3322
  653MOL0     H88098   4.339   5.815   7.718 -2.1667  0.1791 -0.4490
  653MOL0     H88099   4.185   5.807   7.811  0.6650 -1.4733 -3.5069
  653MOL0     H88100   4.221   6.049   7.878 -0.1182  1.2868 -0.2225
  653MOL0     H88101   4.370   6.047   7.795 -1.1204  1.7075  1.2309
  653MOL0     H88102   4.270   5.997   7.583  0.3492  1.0015 -0.7525
  653MOL0     H88103   4.217   6.152   7.642  3.8954 -1.1423 -1.8479
  653MOL0     H88104   4.046   6.011   7.535  0.7968  0.3771 -0.6299
  653MOL0     H88105   4.034   5.895   7.655 -1.0651  0.3067  1.1135
  653MOL0     H88106   3.987   6.287   7.670  1.7335 -0.0575  2.7233
  653MOL0     H88107   3.896   6.412   7.923  0.2802 -2.2525  2.0557
  653MOL0     H88108   3.771   6.433   7.797 -0.2721  1.1271  0.7582
  653MOL0     H88109   3.625   6.276   7.905 -1.9629  1.4335  0.8374
  653MOL0     H88110   3.709   6.293   8.053 -2.4047 -2.7019 -1.3634
  653MOL0     H88111   3.566   6.524   7.895  2.9007  1.3823 -0.1032
  653MOL0     H88112   3.693   6.553   8.023  0.1473  1.0415  0.9624
  653MOL0     H88113   3.549   6.410   8.181 -0.3553 -0.7041  0.0420
  653MOL0     H88114   3.442   6.374   8.054  0.3720 -0.9908  0.8273
  653MOL0     H88115   3.583   6.555   8.348 -2.7351 -3.5696  1.0268
  653MOL0     H88116   3.543   6.717   8.539 -0.1470  0.1732  0.3694
  653MOL0     H88117   3.431   7.098   8.713 -0.6603  0.5792  0.5571
  653MOL0     H88118   3.417   7.239   8.903 -0.1310  2.3304 -2.5598
  653MOL0     H88119   3.317   7.243   9.263  2.1617  1.2336 -0.4472
  653MOL0     H88120   3.410   7.187   9.117 -0.6542  0.0005 -3.9194
  653MOL0     H88121   3.442   7.396   9.213  1.0389 -0.8572 -1.1058
  653MOL0     H88122   3.393   7.427   9.039 -1.5111 -1.2605 -1.6151
  653MOL0     H88123   3.150   7.462   9.161 -0.5860  0.3867 -0.3121
  653MOL0     H88124   3.257   7.496   9.297 -2.2216  0.5264  0.3275
  653MOL0     H88125   3.260   7.642   9.036  3.2766  1.1299 -0.8383
  653MOL0     H88126   3.383   7.659   9.150  0.1780 -2.7319 -2.0875
  653MOL0     H88127   3.234   7.707   9.343 -0.3206 -0.5417  0.2057
  653MOL0     H88128   3.086   7.686   9.254 -1.2600  3.8769 -1.4667
  653MOL0     H88129   3.120   7.907   9.278  0.7458 -1.8853  3.0913
  653MOL0     H88130   3.291   7.897   9.226  0.0596 -1.0746 -0.7691
  653MOL0     H88131   3.056   7.815   9.040 -2.8279  4.2932 -3.2888
  653MOL0     H88132   3.227   7.857   8.992  2.0301  2.3411  0.5934
  653MOL0     H88133   3.022   8.047   9.120 -0.2598 -2.5723  1.3095
  653MOL0     H88134   3.174   8.099   9.044  0.5171 -0.9331  0.8104
  653MOL0     H88135   3.017   7.070   8.980  1.2372  3.7544  4.0207
  653MOL0     H88136   3.035   6.968   8.748  1.7732 -2.7649 -0.7152
  653MOL0     H88137   3.216   6.900   8.341  0.3933  0.1470 -2.0426
  653MOL0     H88138   3.249   6.767   8.153 -2.6364 -0.1444  1.0859
  653MOL0     H88139   4.732   5.332   7.785 -2.4205 -0.6407 -0.6413
  653MOL0     H88140   4.811   5.107   7.724  1.7392 -1.8883  0.4344
  653MOL0     H88141   4.828   4.776   7.651 -0.3193 -0.4684 -0.4116
  653MOL0     H88142   4.943   4.595   7.529 -0.8916  1.2923  0.3011
  653MOL0     H88143   5.150   4.526   7.468  0.1675 -0.5166  0.0567
  653MOL0     H88144   5.021   4.395   7.468 -0.8538  3.0933 -0.8500
  653MOL0     H88145   5.204   4.225   7.463 -3.0010 -0.4238 -0.3296
  653MOL0     H88146   5.317   4.359   7.444 -1.0023 -0.1711  0.0973
  653MOL0     H88147   5.214   4.425   7.244 -0.4587  0.7020  0.6889
  653MOL0     H88148   5.079   4.324   7.266  0.8598  1.6827 -0.6269
  653MOL0     H88149   5.348   4.193   7.211 -0.3504 -2.2653  1.7154
  653MOL0     H88150   5.201   4.117   7.261  3.4510 -1.9056 -0.9089
  653MOL0     H88151   5.120   4.192   6.849  0.2476 -2.2515 -0.0124
  653MOL0     H88152   5.121   4.460   7.895 -3.2027 -1.4636  1.7018
  653MOL0     H88153   5.051   4.511   8.078  0.7576 -0.1429 -1.4129
  653MOL0     H88154   5.008   4.687   8.119 -2.8688  0.2141 -0.7533
  653MOL0     H88155   4.879   4.572   8.091 -0.9675  2.0273  0.3360
  654MOL0     O88156   1.267   9.394   7.395 -0.3491 -0.3324 -0.1440
  654MOL0     C88157   1.165   9.368   7.457  0.5685  0.0469  0.2258
  654MOL0     O88158   1.142   9.260   7.536  0.7302 -0.6825 -1.2966
  654MOL0     C88159   1.244   9.167   7.571  0.2393 -0.2950 -1.0742
  654MOL0     C88160   1.317   9.101   7.481  0.6455  0.2699  0.2974
  654MOL0     C88161   1.425   9.014   7.529 -0.0839  0.3861 -0.0493
  654MOL0     C88162   1.469   9.005   7.656  0.2352 -0.8121  0.2836
  654MOL0     O88163   1.579   8.927   7.684  0.6862 -0.5732 -0.2136
  654MOL0     C88164   1.612   8.914   7.822  0.3015  0.7121 -0.4794
  654MOL0     C88165   1.527   8.805   7.903 -0.0766  0.9409  0.1158
  654MOL0     C88166   1.562   8.672   7.855 -0.0868  0.5129  0.7458
  654MOL0     C88167   1.495   8.559   7.939  0.2087 -0.0415 -0.2159
  654MOL0     C88168   1.521   8.412   7.901  0.5145 -0.4966 -0.0860
  654MOL0     C88169   1.445   8.326   7.998 -0.9359 -0.3759  0.9763
  654MOL0     C88170   1.506   8.312   8.142  0.1018 -0.7234 -0.3460
  654MOL0     C88171   1.421   8.374   8.249 -0.1863 -0.5889  1.2109
  654MOL0     N88172   1.486   8.368   8.376 -0.1264 -0.3885  0.1061
  654MOL0     C88173   1.452   8.287   8.482  0.1100  0.3890  0.8009
  654MOL0     C88174   1.541   8.311   8.583  1.1262 -0.9369  0.3378
  654MOL0     C88175   1.533   8.251   8.712  0.8148  0.7160  0.2690
  654MOL0     C88176   1.674   8.210   8.759 -0.2067  0.3772  0.1573
  654MOL0     C88177   1.736   8.092   8.669  0.5260 -0.2377  0.0330
  654MOL0     C88178   1.845   8.134   8.578  0.6014 -0.4542  0.7652
  654MOL0     O88179   1.895   8.018   8.498  0.0821 -1.0824  0.5167
  654MOL0     C88180   1.929   8.057   8.375  0.2859 -0.1365 -0.2041
  654MOL0     C88181   1.844   8.108   8.276  0.2319 -0.1038 -0.9302
  654MOL0     C88182   1.898   8.148   8.154  0.4843  0.1959  0.3312
  654MOL0     C88183   2.027   8.113   8.115 -0.0826 -1.3924  0.2592
  654MOL0     C88184   2.070   8.146   7.976 -0.7635 -0.7945  0.7920
  654MOL0     O88185   2.197   8.102   7.932  0.1100  0.0139  0.7381
  654MOL0     C88186   2.219   8.031   7.812  0.0731 -0.5240 -0.6290
  654MOL0     C88187   2.129   7.933   7.769 -0.2075 -0.3842  0.3577
  654MOL0     C88188   2.157   7.854   7.649  1.1478 -0.7698 -0.2776
  654MOL0     C88189   2.272   7.879   7.574  0.1271  0.1015 -0.5756
  654MOL0     O88190   2.299   7.812   7.459  0.5854  0.0833 -0.2674
  654MOL0     C88191   2.390   7.869   7.358 -0.2520 -1.0367 -0.0870
  654MOL0     C88192   2.350   7.837   7.207  0.6812 -0.5747  0.2271
  654MOL0     C88193   2.321   7.680   7.199 -0.7924 -0.6695 -0.8233
  654MOL0     C88194   2.380   7.623   7.070  0.1958 -0.5371  1.1466
  654MOL0     C88195   2.295   7.503   7.025  0.3245 -0.2408 -0.3917
  654MOL0     C88196   2.319   7.485   6.868 -0.9197 -0.9333 -0.3138
  654MOL0     C88197   2.243   7.354   6.832  0.2046  0.1784  0.9366
  654MOL0     C88198   2.265   7.328   6.683 -0.6000  0.6664 -0.4357
  654MOL0    Cl88199   2.167   7.174   6.653 -0.2508 -0.2823  0.4379
  654MOL0     C88200   2.359   7.978   7.627  0.3163  0.4541 -0.3189
  654MOL0     C88201   2.339   8.053   7.747 -1.2627  0.2154 -0.7994
  654MOL0     O88202   1.985   8.210   7.905 -0.1267  0.4536  0.6026
  654MOL0     C88203   2.107   8.043   8.201  0.4902  0.1516 -0.4353
  654MOL0     C88204   2.056   8.028   8.331 -0.0643 -0.0088  0.3405
  654MOL0     N88205   1.618   8.417   8.541  0.1739 -0.0918  0.7514
  654MOL0     N88206   1.577   8.460   8.428  0.0687  1.2338  0.4541
  654MOL0     C88207   1.387   9.075   7.753  0.4147 -0.3174 -0.9641
  654MOL0     C88208   1.271   9.142   7.712 -0.1486 -1.3141  0.4526
  654MOL0     C88209   1.045   9.459   7.450 -1.0011 -0.4762 -0.3376
  654MOL0     C88210   0.922   9.421   7.493 -0.9857 -0.4682  0.2838
  654MOL0     C88211   0.814   9.503   7.488 -0.1058 -0.7226 -0.6037
  654MOL0     C88212   0.813   9.634   7.448  0.0855 -0.2244  1.6904
  654MOL0     O88213   0.693   9.697   7.460  0.4299  0.3397 -0.4723
  654MOL0     C88214   0.705   9.840   7.491  0.6949  1.2807  0.8339
  654MOL0     C88215   0.598   9.899   7.578  0.8842  0.4064  0.2374
  654MOL0     C88216   0.453   9.841   7.538  0.2288 -0.3907  0.5419
  654MOL0     C88217   0.339   9.894   7.620 -0.0430  0.1869 -0.7418
  654MOL0     C88218   0.218   9.830   7.587  0.5195 -0.3246  0.1732
  654MOL0     C88219   0.106   9.778   7.561  0.5635  0.9879 -1.1930
  654MOL0     C88220   0.940   9.683   7.412 -0.1967  0.0185 -0.4954
  654MOL0     C88221   1.055   9.598   7.411 -0.3138  0.5005 -0.1642
  654MOL0     C88222   1.188   9.665   7.387  0.3815 -0.5202 -0.0839
  654MOL0     H88223   1.297   9.095   7.375  1.0516  0.6176  0.1980
  654MOL0     H88224   1.492   8.956   7.465  1.6120  1.8525  0.3344
  654MOL0     H88225   1.718   8.887   7.824 -0.3462 -2.1203 -0.9845
  654MOL0     H88226   1.594   9.008   7.875 -1.0405 -0.5141  1.3809
  654MOL0     H88227   1.421   8.829   7.887 -0.4049  2.4469  3.5835
  654MOL0     H88228   1.544   8.805   8.011 -4.0672 -3.9882  1.1187
  654MOL0     H88229   1.670   8.662   7.866 -0.1213  0.7509  1.3179
  654MOL0     H88230   1.535   8.659   7.750 -0.1338  0.6558  0.7396
  654MOL0     H88231   1.529   8.565   8.043  0.4998 -2.6299 -0.0836
  654MOL0     H88232   1.388   8.578   7.922  0.1291  0.9835  1.2609
  654MOL0     H88233   1.477   8.397   7.802  2.0312  0.7134 -0.9799
  654MOL0     H88234   1.628   8.395   7.910  0.7819 -0.6831 -2.7003
  654MOL0     H88235   1.341   8.357   7.987 -0.5542  0.4727 -0.4010
  654MOL0     H88236   1.444   8.229   7.947 -0.4136  0.4100 -0.6065
  654MOL0     H88237   1.606   8.354   8.131 -0.3301  0.2449 -0.7185
  654MOL0     H88238   1.525   8.206   8.163  0.5718 -0.3575  1.1366
  654MOL0     H88239   1.390   8.476   8.224  3.7848  0.1747 -1.4705
  654MOL0     H88240   1.330   8.315   8.264  0.6761 -1.6660  2.5649
  654MOL0     H88241   1.369   8.219   8.493 -2.4472  3.0987 -0.3980
  654MOL0     H88242   1.491   8.332   8.772  4.2559  2.7705  0.1723
  654MOL0     H88243   1.469   8.162   8.705  2.2059 -0.2475 -1.1733
  654MOL0     H88244   1.735   8.300   8.744 -3.3138  2.3892 -1.3555
  654MOL0     H88245   1.687   8.180   8.864  1.6397  1.4836  0.3159
  654MOL0     H88246   1.660   8.042   8.608 -1.3564  0.9269  1.3074
  654MOL0     H88247   1.766   8.019   8.745  0.0942  0.7404  1.1671
  654MOL0     H88248   1.923   8.172   8.644  0.2425  2.6932 -0.4735
  654MOL0     H88249   1.818   8.222   8.519  1.0058 -0.1770  0.9883
  654MOL0     H88250   1.742   8.140   8.293  0.7311  0.8677  0.2978
  654MOL0     H88251   1.834   8.214   8.096 -0.1897  1.3298  2.2688
  654MOL0     H88252   2.029   7.923   7.811 -0.4706 -1.0251 -0.4105
  654MOL0     H88253   2.078   7.782   7.634  1.9676 -1.6755 -0.3523
  654MOL0     H88254   2.409   7.973   7.383 -0.4702 -1.2574  1.0207
  654MOL0     H88255   2.486   7.818   7.367 -0.2860 -1.2702 -0.9232
  654MOL0     H88256   2.260   7.890   7.176  0.5391 -0.6974  0.4322
  654MOL0     H88257   2.442   7.867   7.157  2.5234 -0.7820  3.2238
  654MOL0     H88258   2.366   7.637   7.289 -4.5492 -0.8947  1.1358
  654MOL0     H88259   2.213   7.660   7.198 -1.3029  1.7923 -1.2918
  654MOL0     H88260   2.486   7.598   7.064  0.8402  1.7096  2.2097
  654MOL0     H88261   2.358   7.702   6.996  0.8020 -0.4903  1.0144
  654MOL0     H88262   2.189   7.522   7.042  1.1181  2.2016  2.9167
  654MOL0     H88263   2.329   7.418   7.085  0.9915 -0.2115 -0.7179
  654MOL0     H88264   2.285   7.575   6.815  0.4524  1.1901  2.1416
  654MOL0     H88265   2.427   7.476   6.849 -0.2779 -1.4327  2.8987
  654MOL0     H88266   2.140   7.376   6.862  0.5269 -0.0771  2.3004
  654MOL0     H88267   2.293   7.281   6.896 -0.1555 -0.2391  0.7440
  654MOL0     H88268   2.223   7.395   6.608 -2.3668 -2.9576 -3.0137
  654MOL0     H88269   2.371   7.316   6.660 -0.7618  0.2852 -0.9935
  654MOL0     H88270   2.453   7.993   7.576 -0.9005 -1.1653 -3.3296
  654MOL0     H88271   2.412   8.123   7.784  0.2199 -3.4862  4.6587
  654MOL0     H88272   2.213   8.020   8.202  0.3837 -0.4102  0.8783
  654MOL0     H88273   2.120   7.968   8.395 -0.0788  0.3140  0.6608
  654MOL0     H88274   1.411   9.077   7.859  2.2117  3.7184 -1.2767
  654MOL0     H88275   1.197   9.189   7.776 -1.2060 -1.8378 -0.3566
  654MOL0     H88276   0.925   9.320   7.532 -3.0101 -1.7372 -2.4324
  654MOL0     H88277   0.723   9.475   7.539  0.9914  0.3814  2.1231
  654MOL0     H88278   0.706   9.894   7.396  0.5104 -0.7877 -0.4209
  654MOL0     H88279   0.807   9.852   7.528  1.9900 -3.1861 -0.6442
  654MOL0     H88280   0.597  10.007   7.561  0.4459 -0.1394 -4.4864
  654MOL0     H88281   0.620   9.877   7.683  1.9731 -0.0740 -0.0657
  654MOL0     H88282   0.444   9.732   7.540 -0.6636 -0.3164  0.7995
  654MOL0     H88283   0.435   9.877   7.437  0.7638  0.9396  0.8910
  654MOL0     H88284   0.373   9.870   7.721  2.5736  2.8873 -0.8474
  654MOL0     H88285   0.332  10.003   7.612 -2.1456  0.3517  1.9556
  654MOL0     H88286   0.019   9.730   7.520 -2.2611  3.3055  1.5832
  654MOL0     H88287   0.953   9.788   7.385 -0.7317  0.9502  2.5335
  654MOL0     H88288   1.259   9.666   7.470 -1.5893 -1.2392  1.7030
  654MOL0     H88289   1.228   9.622   7.295  2.9319 -1.1144  1.2036
  654MOL0     H88290   1.176   9.771   7.363 -2.4319 -0.5167  0.9736
  655MOL0     O88291   5.360   1.940   7.141  0.4777 -0.1338  0.4277
  655MOL0     C88292   5.454   1.927   7.063  0.7516 -0.2556 -0.3616
  655MOL0     O88293   5.589   1.916   7.100 -0.1608 -0.4775  0.5958
  655MOL0     C88294   5.634   1.955   7.232  0.8474  0.8934  0.6886
  655MOL0     C88295   5.707   1.862   7.312  0.7910 -0.5507 -0.4251
  655MOL0     C88296   5.767   1.901   7.437  0.1718 -0.1643  1.0797
  655MOL0     C88297   5.739   2.027   7.486  0.7689  0.2503  0.2203
  655MOL0     O88298   5.792   2.076   7.596  0.8962 -0.6730  0.8272
  655MOL0     C88299   5.880   1.988   7.664 -1.1326 -0.7486 -0.3002
  655MOL0     C88300   5.920   2.043   7.801  0.2613  0.4859  0.3206
  655MOL0     C88301   5.808   2.044   7.894  0.0943 -0.3809  0.7568
  655MOL0     C88302   5.783   2.168   7.983 -0.4138 -0.4284 -0.2083
  655MOL0     C88303   5.637   2.166   8.047  0.2887 -0.2588 -0.6625
  655MOL0     C88304   5.623   2.280   8.149  0.5582  0.4020 -0.5755
  655MOL0     C88305   5.474   2.294   8.201  0.9808  0.2897  0.4285
  655MOL0     C88306   5.436   2.423   8.256  0.6145  0.1732  0.5702
  655MOL0     N88307   5.504   2.445   8.390  0.2154  0.5982 -0.1249
  655MOL0     C88308   5.617   2.515   8.415 -0.6412  0.5210 -0.7914
  655MOL0     C88309   5.653   2.498   8.545 -0.7630 -0.5117 -0.1782
  655MOL0     C88310   5.787   2.564   8.602  0.0113  0.2915 -0.7078
  655MOL0     C88311   5.776   2.584   8.750 -0.9062 -1.0791 -0.2917
  655MOL0     C88312   5.905   2.659   8.805  1.1875  0.1619  0.4973
  655MOL0     C88313   5.879   2.757   8.922 -1.1481 -0.2534  0.1686
  655MOL0     O88314   5.993   2.843   8.946 -0.2795 -0.7787 -0.0833
  655MOL0     C88315   6.071   2.808   9.048  0.3364 -0.2278  0.3686
  655MOL0     C88316   6.191   2.742   9.024 -0.1952 -0.6583  0.0861
  655MOL0     C88317   6.250   2.692   9.131 -0.0269 -0.0163 -0.3614
  655MOL0     C88318   6.226   2.738   9.266 -0.3450  0.0558  0.7918
  655MOL0     C88319   6.296   2.679   9.373 -0.0676  0.6403  1.0880
  655MOL0     O88320   6.221   2.634   9.468 -0.3827  0.3688 -0.4007
  655MOL0     C88321   6.270   2.572   9.572 -0.1852  0.1524  0.3253
  655MOL0     C88322   6.325   2.642   9.678 -0.8468 -0.6063  0.1192
  655MOL0     C88323   6.360   2.571   9.789 -0.1202  0.2066  0.5347
  655MOL0     C88324   6.338   2.423   9.796 -0.7239  0.4427 -0.8789
  655MOL0     O88325   6.381   2.357   9.916 -0.4223 -0.2533 -0.1112
  655MOL0     C88326   6.522   2.352   9.930 -0.2591 -0.4559 -0.2175
  655MOL0     C88327   6.566   2.279  10.057 -0.4200  0.5196  0.1814
  655MOL0     C88328   6.691   2.342  10.111 -0.3538  0.4734  0.0571
  655MOL0     C88329   6.756   2.254  10.209 -0.7282 -0.1212  1.1565
  655MOL0     C88330   6.679   2.232  10.339 -0.4562  0.9638 -0.5089
  655MOL0     C88331   6.711   2.332  10.463 -0.5225  0.7976 -0.1095
  655MOL0     C88332   6.622   2.323  10.584  0.0413  0.8082  0.5581
  655MOL0     C88333   6.631   2.441  10.666  0.4871 -0.6656 -0.1529
  655MOL0    Cl88334   6.550   2.586  10.602 -0.2378  0.4439 -0.5412
  655MOL0     C88335   6.269   2.353   9.696 -0.3275  0.3871  0.4948
  655MOL0     C88336   6.238   2.431   9.582 -0.5497 -1.2872  0.6149
  655MOL0     O88337   6.419   2.668   9.366 -0.5388 -0.7318  0.7989
  655MOL0     C88338   6.110   2.825   9.285  0.0569 -0.5105  0.2879
  655MOL0     C88339   6.039   2.858   9.177  1.1308  0.6090  0.2593
  655MOL0     N88340   5.564   2.414   8.602 -0.3897  0.4690 -0.0260
  655MOL0     N88341   5.469   2.386   8.512  0.0688  0.5662  0.2394
  655MOL0     C88342   5.649   2.108   7.417 -0.0989  0.2088  0.4387
  655MOL0     C88343   5.599   2.083   7.285  0.3910  0.3474  0.3010
  655MOL0     C88344   5.425   1.922   6.925 -0.6942  0.1388 -0.3077
  655MOL0     C88345   5.497   1.836   6.845 -0.5967 -0.8867 -1.1420
  655MOL0     C88346   5.464   1.820   6.715  0.7612  0.8254  0.5877
  655MOL0     C88347   5.351   1.886   6.658  0.7327  0.5976  1.5019
  655MOL0     O88348   5.315   1.869   6.525  0.0414  0.0763 -1.0314
  655MOL0     C88349   5.269   1.735   6.500 -0.2238 -1.6885  0.0591
  655MOL0     C88350   5.259   1.716   6.347  0.2838 -0.2660 -0.4642
  655MOL0     C88351   5.396   1.753   6.296 -0.7483  0.4605  0.1763
  655MOL0     C88352   5.412   1.709   6.146 -0.5919 -0.4011  0.0774
  655MOL0     C88353   5.354   1.814   6.067  0.0424 -0.3246 -0.1848
  655MOL0     C88354   5.301   1.885   5.977 -0.5039 -0.3241 -0.2880
  655MOL0     C88355   5.278   1.980   6.727 -0.9712 -0.2876 -0.5143
  655MOL0     C88356   5.321   2.006   6.861 -0.0419  0.3391  0.2050
  655MOL0     C88357   5.243   2.122   6.926 -0.7228 -0.7809  0.0456
  655MOL0     H88358   5.707   1.761   7.272 -1.3349  0.1274 -2.3202
  655MOL0     H88359   5.832   1.827   7.482  1.8940  0.5275 -0.1466
  655MOL0     H88360   5.839   1.888   7.680 -0.2303 -0.8436  1.7957
  655MOL0     H88361   5.978   1.973   7.617 -0.3789  1.1400  0.5613
  655MOL0     H88362   5.954   2.147   7.792  0.8096  0.3422  0.6896
  655MOL0     H88363   6.001   1.984   7.845 -0.7207 -0.0839  1.4185
  655MOL0     H88364   5.814   1.943   7.937  2.2311 -1.2094 -1.2369
  655MOL0     H88365   5.716   2.045   7.834 -0.2504  2.2940  1.2119
  655MOL0     H88366   5.851   2.175   8.068 -0.4468  3.6183 -0.3143
  655MOL0     H88367   5.802   2.252   7.915  0.8275 -1.7047 -1.5064
  655MOL0     H88368   5.562   2.187   7.969 -1.0572  1.7020  1.0283
  655MOL0     H88369   5.614   2.075   8.103 -1.0677  0.7505  0.5058
  655MOL0     H88370   5.693   2.267   8.232  2.8708  0.9434 -2.3382
  655MOL0     H88371   5.659   2.371   8.100  1.2768 -0.6792 -2.1386
  655MOL0     H88372   5.453   2.209   8.266 -2.8272  0.9478  0.3372
  655MOL0     H88373   5.418   2.281   8.107  2.3498  1.8914 -0.6658
  655MOL0     H88374   5.475   2.494   8.182 -1.4829  1.2400  0.4414
  655MOL0     H88375   5.330   2.440   8.272 -0.1161 -0.0332 -3.0425
  655MOL0     H88376   5.675   2.570   8.341  0.4327 -0.9214 -1.0466
  655MOL0     H88377   5.870   2.494   8.585 -0.2332 -0.3643  0.6682
  655MOL0     H88378   5.798   2.656   8.545 -1.7307  1.2280  0.3887
  655MOL0     H88379   5.688   2.643   8.777 -1.2426 -2.0186  0.7791
  655MOL0     H88380   5.771   2.485   8.797 -0.5249 -1.2236 -0.5505
  655MOL0     H88381   5.945   2.714   8.719 -2.8927 -0.5144 -2.1487
  655MOL0     H88382   5.979   2.583   8.829 -0.1849 -0.2950  3.7664
  655MOL0     H88383   5.848   2.715   9.018  0.3483 -0.6116  0.5251
  655MOL0     H88384   5.794   2.815   8.886 -0.2254  1.4190  0.5683
  655MOL0     H88385   6.227   2.724   8.923 -0.5756  2.4333 -0.7109
  655MOL0     H88386   6.341   2.634   9.120  1.1527  1.6435  0.1633
  655MOL0     H88387   6.359   2.745   9.670  0.6253 -1.1023 -0.3752
  655MOL0     H88388   6.407   2.627   9.870 -1.0323  2.7583 -0.5936
  655MOL0     H88389   6.554   2.293   9.843 -3.9114 -1.7535 -0.8574
  655MOL0     H88390   6.567   2.451   9.934 -1.8898  0.3918 -1.5679
  655MOL0     H88391   6.486   2.296  10.129 -1.1649  2.9238 -1.1323
  655MOL0     H88392   6.585   2.174  10.031  1.1107  1.0408 -0.9726
  655MOL0     H88393   6.767   2.376  10.040  1.0352  0.5309  1.5076
  655MOL0     H88394   6.663   2.423  10.179  2.0178  1.4025  0.0502
  655MOL0     H88395   6.855   2.299  10.223 -0.2268 -0.8888  0.1813
  655MOL0     H88396   6.766   2.155  10.162 -1.7933  0.1379  0.3253
  655MOL0     H88397   6.688   2.130  10.376 -0.1979  0.6170 -1.4938
  655MOL0     H88398   6.575   2.255  10.318 -0.1791  0.2022 -2.9629
  655MOL0     H88399   6.812   2.310  10.497 -0.8534  0.8118  0.8991
  655MOL0     H88400   6.699   2.435  10.428  0.9154  1.6877  1.8466
  655MOL0     H88401   6.626   2.228  10.638  0.4608  0.6472  0.2466
  655MOL0     H88402   6.517   2.318  10.553  0.1248  0.7922  0.2716
  655MOL0     H88403   6.570   2.414  10.753 -1.5399  2.1691 -0.5288
  655MOL0     H88404   6.737   2.459  10.682 -0.2411  3.6230  1.0565
  655MOL0     H88405   6.253   2.246   9.703 -0.6818  0.4511  0.6865
  655MOL0     H88406   6.185   2.383   9.500  0.4874 -1.6102  0.1078
  655MOL0     H88407   6.086   2.875   9.378 -3.8891  0.8936 -1.2652
  655MOL0     H88408   5.950   2.920   9.188  1.0826  0.2805  2.0199
  655MOL0     H88409   5.628   2.209   7.452  1.9082  1.5253 -1.8697
  655MOL0     H88410   5.537   2.155   7.233 -0.1493 -0.0298  0.4218
  655MOL0     H88411   5.577   1.786   6.900 -0.3840 -1.7082 -2.1616
  655MOL0     H88412   5.532   1.753   6.665 -0.1238 -0.8401  1.5381
  655MOL0     H88413   5.171   1.729   6.548  0.4054 -0.3063  1.6159
  655MOL0     H88414   5.326   1.649   6.538  1.1533 -0.8603 -0.0601
  655MOL0     H88415   5.182   1.780   6.304 -0.3022 -1.1319 -0.7355
  655MOL0     H88416   5.226   1.613   6.328  0.8438 -0.4625 -0.4104
  655MOL0     H88417   5.478   1.699   6.343  0.5240  1.3342 -0.9437
  655MOL0     H88418   5.434   1.856   6.299  2.7913 -0.7562  0.8370
  655MOL0     H88419   5.516   1.698   6.114 -0.3635  1.4649  0.0857
  655MOL0     H88420   5.358   1.615   6.127 -0.4356 -0.5709  0.4723
  655MOL0     H88421   5.280   1.945   5.891  1.3548 -1.0602 -1.3024
  655MOL0     H88422   5.195   2.040   6.691 -0.8264 -0.4865 -1.2076
  655MOL0     H88423   5.262   2.215   6.872 -3.3675  0.2478  0.7096
  655MOL0     H88424   5.135   2.107   6.940 -0.2932 -1.8657  2.8708
  655MOL0     H88425   5.271   2.133   7.031 -1.5503 -2.3006  0.4641
  656MOL0     O88426   8.011   3.982   5.423  0.4977  0.0267  0.4814
  656MOL0     C88427   8.127   3.950   5.409  0.9156 -0.3361 -0.1199
  656MOL0     O88428   8.223   3.963   5.500 -0.1278  0.1616  0.4501
  656MOL0     C88429   8.199   3.917   5.625 -0.1148 -0.2379  0.3510
  656MOL0     C88430   8.261   3.808   5.681  0.0088  0.3824 -0.5761
  656MOL0     C88431   8.245   3.772   5.818  0.9996  0.0286 -0.6524
  656MOL0     C88432   8.164   3.854   5.903  0.5669 -0.0406  0.1432
  656MOL0     O88433   8.133   3.806   6.034 -0.2520  0.0367 -0.9942
  656MOL0     C88434   8.123   3.912   6.129 -0.5653 -1.0055  0.0842
  656MOL0     C88435   7.984   3.944   6.175 -0.1288 -0.2443 -0.9964
  656MOL0     C88436   7.922   3.817   6.219 -0.4803  0.2667  0.0074
  656MOL0     C88437   7.960   3.799   6.368 -0.3550 -0.1085 -0.4034
  656MOL0     C88438   7.903   3.885   6.480  1.0942  0.0269  0.3832
  656MOL0     C88439   7.997   3.880   6.599  0.1979 -0.2624 -0.9831
  656MOL0     C88440   8.002   3.739   6.659 -0.1926  0.1018  1.0311
  656MOL0     C88441   7.863   3.686   6.694  0.1449 -1.1472  0.8618
  656MOL0     N88442   7.857   3.582   6.791  0.4527 -0.8052  1.2026
  656MOL0     C88443   7.818   3.462   6.746  0.1343 -0.4012 -0.3177
  656MOL0     C88444   7.790   3.388   6.858 -0.1116  0.1430 -1.0537
  656MOL0     C88445   7.742   3.246   6.852 -0.0281  0.2670  0.8225
  656MOL0     C88446   7.652   3.219   6.964 -0.2964  0.5558 -1.1387
  656MOL0     C88447   7.713   3.103   7.055  0.8077 -0.4935 -0.5911
  656MOL0     C88448   7.845   3.141   7.136 -0.7922 -0.0009 -0.7036
  656MOL0     O88449   7.841   3.077   7.263  0.3503  0.4847 -0.6038
  656MOL0     C88450   7.769   3.137   7.364 -0.8396  0.7621  0.2074
  656MOL0     C88451   7.746   3.053   7.477  0.6660 -0.0469  0.1152
  656MOL0     C88452   7.681   3.089   7.588  0.5982  0.3650 -0.1277
  656MOL0     C88453   7.625   3.215   7.601  0.0495  0.3469  0.1407
  656MOL0     C88454   7.545   3.251   7.713 -0.4468 -0.9491 -0.2251
  656MOL0     O88455   7.531   3.150   7.810  0.0390 -0.2211 -0.0413
  656MOL0     C88456   7.467   3.165   7.930 -0.3796  0.3672 -0.3525
  656MOL0     C88457   7.404   3.052   7.979  0.0752 -0.1467 -0.0315
  656MOL0     C88458   7.332   3.054   8.096 -0.2650 -0.0200 -0.3712
  656MOL0     C88459   7.317   3.173   8.173 -0.9352  0.1683 -0.2423
  656MOL0     O88460   7.250   3.196   8.291 -0.7111 -0.2759 -0.2298
  656MOL0     C88461   7.299   3.113   8.396 -0.2686 -0.0514 -0.1677
  656MOL0     C88462   7.235   2.974   8.397 -0.3595  0.3376 -0.2509
  656MOL0     C88463   7.080   2.976   8.412 -0.4934 -0.1724 -0.0273
  656MOL0     C88464   7.026   2.836   8.415  0.6084 -0.0052  0.3116
  656MOL0     C88465   6.863   2.841   8.390 -0.2048  0.2238  0.9660
  656MOL0     C88466   6.789   2.713   8.429 -1.2564  0.0372 -0.1053
  656MOL0     C88467   6.783   2.606   8.319 -0.2907 -0.6814 -0.8066
  656MOL0     C88468   6.917   2.528   8.312 -0.0180 -0.1116 -0.0707
  656MOL0    Cl88469   6.939   2.431   8.469  0.1984 -0.0528 -0.3726
  656MOL0     C88470   7.387   3.281   8.128  0.3479  0.0682 -0.5797
  656MOL0     C88471   7.461   3.279   8.012 -0.7276 -0.5498  1.2493
  656MOL0     O88472   7.500   3.369   7.724  0.0863 -0.2210 -0.2210
  656MOL0     C88473   7.645   3.305   7.497  1.1896  0.4923  0.6149
  656MOL0     C88474   7.709   3.268   7.372 -0.7109 -0.9250  0.5040
  656MOL0     N88475   7.813   3.482   6.965  0.0696  0.0204 -0.2362
  656MOL0     N88476   7.858   3.589   6.924  0.1350 -0.5579 -0.4039
  656MOL0     C88477   8.095   3.964   5.834  0.8504  0.6709 -0.4862
  656MOL0     C88478   8.116   3.990   5.702  0.3463 -0.0459  0.6424
  656MOL0     C88479   8.164   3.899   5.277 -0.2576 -0.1168  0.3205
  656MOL0     C88480   8.296   3.918   5.222  0.5734 -0.3576 -0.3308
  656MOL0     C88481   8.333   3.862   5.101  0.0511  1.8941 -0.3835
  656MOL0     C88482   8.256   3.787   5.022  0.1832 -0.4714 -0.1175
  656MOL0     O88483   8.297   3.747   4.901 -0.5320 -0.2579  0.2937
  656MOL0     C88484   8.303   3.611   4.871  0.2785  0.4117  0.1058
  656MOL0     C88485   8.379   3.595   4.746  0.3368  0.1738  0.0676
  656MOL0     C88486   8.398   3.451   4.692 -0.0726 -0.0866  0.2530
  656MOL0     C88487   8.433   3.453   4.543  0.6018  0.1627 -0.2021
  656MOL0     C88488   8.570   3.488   4.512 -1.2096  0.2912  0.3826
  656MOL0     C88489   8.680   3.524   4.470  0.6724  0.0647  0.3126
  656MOL0     C88490   8.122   3.763   5.070  0.8101  0.0290  0.2500
  656MOL0     C88491   8.078   3.817   5.194 -0.7059 -0.0092 -0.5127
  656MOL0     C88492   7.939   3.780   5.246  0.5098 -0.3727 -0.2809
  656MOL0     H88493   8.322   3.753   5.610  3.4232  2.8323  0.1807
  656MOL0     H88494   8.294   3.684   5.858  3.6193  0.6648 -2.2284
  656MOL0     H88495   8.191   3.887   6.210  2.1990  0.3317 -1.6752
  656MOL0     H88496   8.161   4.008   6.092 -1.6739 -1.0104 -1.1413
  656MOL0     H88497   7.913   3.974   6.097  0.6448 -0.6191 -1.8646
  656MOL0     H88498   7.980   4.022   6.251 -0.6056 -0.6239 -0.6285
  656MOL0     H88499   7.953   3.728   6.164  1.2906  0.6630  0.3032
  656MOL0     H88500   7.814   3.817   6.205 -0.2820 -1.8724 -2.0467
  656MOL0     H88501   7.902   3.710   6.394 -1.7144  1.1609  1.1213
  656MOL0     H88502   8.068   3.783   6.378  0.2898  2.3937 -2.3053
  656MOL0     H88503   7.896   3.989   6.449  2.7440  1.5375  4.3911
  656MOL0     H88504   7.802   3.847   6.497  1.5515 -1.3169  0.2531
  656MOL0     H88505   8.096   3.914   6.566  1.4591 -3.3976 -0.8693
  656MOL0     H88506   7.952   3.939   6.678  1.8736  0.4104 -0.4990
  656MOL0     H88507   8.060   3.754   6.751  1.7820 -1.2125  0.0658
  656MOL0     H88508   8.058   3.670   6.594  1.7792  2.0286  0.5477
  656MOL0     H88509   7.820   3.774   6.742  4.3472  0.3493  2.3090
  656MOL0     H88510   7.803   3.657   6.607 -3.4691  1.3293  2.2669
  656MOL0     H88511   7.806   3.418   6.647  0.3517 -2.4087  0.5098
  656MOL0     H88512   7.686   3.224   6.760  2.6118 -4.4923  0.0481
  656MOL0     H88513   7.828   3.178   6.852  0.1421  0.4721  1.7200
  656MOL0     H88514   7.642   3.304   7.031  0.8310 -1.0247  1.1869
  656MOL0     H88515   7.546   3.200   6.942  0.1354 -1.7489 -1.4859
  656MOL0     H88516   7.730   3.020   6.985 -2.2774  0.9581 -3.3433
  656MOL0     H88517   7.637   3.072   7.128  2.6113 -0.7306  1.2775
  656MOL0     H88518   7.848   3.247   7.160 -0.2837 -0.4122  1.2311
  656MOL0     H88519   7.941   3.130   7.084 -0.2845 -0.2281  0.2568
  656MOL0     H88520   7.777   2.950   7.492  0.0815  0.1845  3.7554
  656MOL0     H88521   7.652   3.015   7.662  2.0549  1.0702  1.2320
  656MOL0     H88522   7.414   2.959   7.923 -3.6305  0.1690 -1.5072
  656MOL0     H88523   7.270   2.967   8.116 -1.6029  0.8398 -0.6637
  656MOL0     H88524   7.406   3.103   8.381 -0.7005 -2.0762 -2.3232
  656MOL0     H88525   7.279   3.155   8.496  2.2655  1.7951 -0.3433
  656MOL0     H88526   7.282   2.911   8.321 -0.6131 -2.3232  1.6313
  656MOL0     H88527   7.264   2.923   8.490  1.2931 -0.7164 -1.2855
  656MOL0     H88528   7.052   3.022   8.507  1.3227 -0.3034  0.6016
  656MOL0     H88529   7.033   3.029   8.328 -2.9809 -1.7995  0.2271
  656MOL0     H88530   7.043   2.793   8.514  2.1977 -4.1773 -1.5641
  656MOL0     H88531   7.073   2.763   8.350 -0.3267 -0.4541  0.1211
  656MOL0     H88532   6.819   2.870   8.294 -0.2361 -0.0608  0.8946
  656MOL0     H88533   6.825   2.916   8.460 -0.4877  1.0621 -0.0516
  656MOL0     H88534   6.836   2.663   8.515 -2.5781 -0.3659  0.4115
  656MOL0     H88535   6.687   2.744   8.449 -0.6116  2.1333  0.1615
  656MOL0     H88536   6.766   2.666   8.229  0.1469  4.4061  2.1500
  656MOL0     H88537   6.702   2.535   8.339  3.2860 -4.3244  2.3376
  656MOL0     H88538   6.902   2.464   8.225  3.8470  4.1189 -4.3944
  656MOL0     H88539   6.998   2.595   8.282 -0.2396  0.1526 -0.0798
  656MOL0     H88540   7.393   3.376   8.181  3.0247  0.0651 -0.7186
  656MOL0     H88541   7.511   3.370   7.982 -0.1745 -1.1990  0.1468
  656MOL0     H88542   7.592   3.400   7.504 -0.9121  0.0413 -4.6382
  656MOL0     H88543   7.720   3.334   7.286  0.6189 -0.4112  1.0403
  656MOL0     H88544   8.010   4.012   5.881  2.4121  1.3620  1.7689
  656MOL0     H88545   8.065   4.078   5.665  2.9261  0.3160 -2.5103
  656MOL0     H88546   8.366   3.973   5.284 -0.9098  0.4872  0.6434
  656MOL0     H88547   8.427   3.875   5.048  0.7802 -0.1684  0.3073
  656MOL0     H88548   8.207   3.564   4.847  0.1426 -0.3332  1.9107
  656MOL0     H88549   8.341   3.549   4.952 -2.7187 -1.9495 -0.0934
  656MOL0     H88550   8.481   3.629   4.768  0.7032 -0.9935  0.2237
  656MOL0     H88551   8.329   3.662   4.675 -0.5099 -0.4022  0.1081
  656MOL0     H88552   8.309   3.396   4.726  0.1404 -0.8891 -0.4605
  656MOL0     H88553   8.478   3.402   4.748 -1.9743  1.3403  4.7209
  656MOL0     H88554   8.413   3.356   4.498  1.4165  0.3945 -1.1039
  656MOL0     H88555   8.370   3.519   4.484  0.9130 -0.6894 -1.5281
  656MOL0     H88556   8.774   3.548   4.425 -0.2544  0.0748 -1.7120
  656MOL0     H88557   8.051   3.703   5.014 -1.3733 -1.9345  4.6421
  656MOL0     H88558   7.875   3.868   5.255 -0.9177 -1.3014 -1.0470
  656MOL0     H88559   7.886   3.715   5.176  1.4383 -1.2741 -0.1782
  656MOL0     H88560   7.949   3.724   5.340 -1.8782 -1.2548 -0.4778
  657MOL0     O88561   8.620   4.179   4.199  0.3917 -0.1370 -0.1385
  657MOL0     C88562   8.699   4.164   4.290  0.0380 -0.5283  0.9424
  657MOL0     O88563   8.805   4.065   4.301  0.3286 -0.0508  1.1156
  657MOL0     C88564   8.803   3.955   4.220 -0.2702  1.1989  0.2123
  657MOL0     C88565   8.689   3.888   4.171  0.9124  0.5774 -0.5309
  657MOL0     C88566   8.702   3.773   4.092  0.1175  0.9733  0.4542
  657MOL0     C88567   8.827   3.729   4.050 -0.7155  0.1989  0.3564
  657MOL0     O88568   8.856   3.617   3.973 -0.0758  0.5393 -0.0175
  657MOL0     C88569   8.799   3.610   3.844 -0.1373  0.5926  1.0252
  657MOL0     C88570   8.806   3.474   3.794  0.1744  0.0252  0.1702
  657MOL0     C88571   8.756   3.470   3.654  1.2484  0.5842 -0.1248
  657MOL0     C88572   8.794   3.338   3.590 -0.2842  0.0683  0.4160
  657MOL0     C88573   8.689   3.297   3.486 -0.0137  1.0371  0.5853
  657MOL0     C88574   8.714   3.373   3.358  0.0278  0.8785  0.3315
  657MOL0     C88575   8.617   3.335   3.244  1.1204  0.7016 -0.6906
  657MOL0     C88576   8.673   3.326   3.105  0.4542  0.3778  0.3181
  657MOL0     N88577   8.779   3.238   3.071 -0.0462 -0.4745 -0.5845
  657MOL0     C88578   8.826   3.129   3.147  0.2685  0.5854  0.0906
  657MOL0     C88579   8.954   3.117   3.113  0.1813 -0.5165 -0.4645
  657MOL0     C88580   9.051   3.023   3.194 -0.8945 -0.0223  0.2866
  657MOL0     C88581   9.042   3.044   3.346  0.0370 -1.3026 -0.3346
  657MOL0     C88582   9.162   2.985   3.424  0.3582  1.0694 -0.1810
  657MOL0     C88583   9.178   3.051   3.558 -0.5129 -0.5369 -0.2558
  657MOL0     O88584   9.077   3.030   3.654 -0.7926 -0.0399  0.3080
  657MOL0     C88585   9.093   3.108   3.768 -0.5055 -0.2334 -0.2762
  657MOL0     C88586   9.209   3.166   3.821  0.3851  0.0056  0.7504
  657MOL0     C88587   9.198   3.236   3.943 -0.6196  0.4997  0.4588
  657MOL0     C88588   9.087   3.231   4.024  0.2376 -0.1766  0.6391
  657MOL0     C88589   9.079   3.311   4.143 -0.5441  0.6489  0.3065
  657MOL0     O88590   9.187   3.399   4.171 -0.3245 -0.3292  0.0327
  657MOL0     C88591   9.194   3.494   4.261  0.1152 -0.2190 -0.4876
  657MOL0     C88592   9.325   3.531   4.285  0.6645  0.4436  0.3157
  657MOL0     C88593   9.357   3.626   4.380 -0.5269 -0.4756  0.0190
  657MOL0     C88594   9.256   3.694   4.452 -0.7591  0.2807  0.4418
  657MOL0     O88595   9.287   3.780   4.557  0.0502 -0.6071  0.0673
  657MOL0     C88596   9.207   3.901   4.583 -0.2046  0.1017  0.2495
  657MOL0     C88597   9.169   3.902   4.733 -0.1493 -0.1184 -1.5372
  657MOL0     C88598   9.112   3.764   4.777 -0.4246  0.1103 -0.0218
  657MOL0     C88599   9.035   3.757   4.911 -0.1503  0.4358 -0.6231
  657MOL0     C88600   8.997   3.609   4.942  0.3397 -0.1108 -0.6686
  657MOL0     C88601   8.868   3.593   5.041 -1.0147  0.4448 -0.4422
  657MOL0     C88602   8.734   3.615   4.960 -0.0702  0.3203  0.2679
  657MOL0     C88603   8.617   3.582   5.052 -0.0988 -0.5568 -0.4638
  657MOL0    Cl88604   8.583   3.401   5.059 -0.0703  0.2792  0.1980
  657MOL0     C88605   9.121   3.648   4.432  0.4766  0.5100  0.0709
  657MOL0     C88606   9.088   3.552   4.339 -0.6263 -0.4454  0.3574
  657MOL0     O88607   8.975   3.304   4.206 -1.0334  0.2415  0.1902
  657MOL0     C88608   8.971   3.167   3.968  0.2194  1.3615  1.5103
  657MOL0     C88609   8.971   3.111   3.838 -0.8048 -0.2241  0.4033
  657MOL0     N88610   8.990   3.211   3.013  0.5133 -0.0675 -0.2336
  657MOL0     N88611   8.885   3.280   2.994  0.4001 -0.2554 -0.7526
  657MOL0     C88612   8.938   3.799   4.092  0.0381  0.4480  0.8734
  657MOL0     C88613   8.925   3.904   4.175 -0.9125  0.2201 -0.6668
  657MOL0     C88614   8.699   4.278   4.385 -0.3299 -0.6246  0.4250
  657MOL0     C88615   8.824   4.328   4.432 -1.3060 -0.2608 -0.0849
  657MOL0     C88616   8.834   4.416   4.549 -0.0921  0.2079 -0.4422
  657MOL0     C88617   8.720   4.464   4.607  0.6941 -0.2633 -1.0735
  657MOL0     O88618   8.740   4.562   4.698  0.2488 -0.2190  0.0203
  657MOL0     C88619   8.637   4.610   4.790 -0.4911 -1.3081 -0.0902
  657MOL0     C88620   8.725   4.669   4.912  1.2429  0.4507  0.8020
  657MOL0     C88621   8.775   4.803   4.875  0.1764 -0.1886 -0.1583
  657MOL0     C88622   8.917   4.825   4.948  0.8981 -0.5056  0.9198
  657MOL0     C88623   8.942   4.970   4.935 -0.3683 -0.7527  0.5149
  657MOL0     C88624   8.990   5.080   4.923  0.8677  0.0799  0.3106
  657MOL0     C88625   8.597   4.422   4.554  0.1053 -0.3366 -0.7290
  657MOL0     C88626   8.584   4.333   4.444 -0.0805 -0.4734  0.1027
  657MOL0     C88627   8.443   4.286   4.414 -0.1112 -0.0082 -0.1107
  657MOL0     H88628   8.589   3.922   4.196  0.9072  0.4889 -0.4359
  657MOL0     H88629   8.614   3.711   4.074 -0.1190  1.7343 -1.1913
  657MOL0     H88630   8.695   3.642   3.852 -0.2446  0.3426  0.6645
  657MOL0     H88631   8.861   3.678   3.785  0.0315 -1.6947 -1.6337
  657MOL0     H88632   8.746   3.419   3.866 -0.0835  1.2845  0.9552
  657MOL0     H88633   8.909   3.437   3.796  0.7206  1.4824  0.6353
  657MOL0     H88634   8.804   3.552   3.601  0.6522  2.3402  1.9096
  657MOL0     H88635   8.648   3.483   3.650  0.8193 -2.4801 -0.9391
  657MOL0     H88636   8.897   3.335   3.553 -0.6844 -0.9576 -0.6690
  657MOL0     H88637   8.794   3.248   3.653  1.0766 -0.2507 -0.0089
  657MOL0     H88638   8.701   3.190   3.468 -1.5347  0.4017  2.8782
  657MOL0     H88639   8.586   3.308   3.522 -0.6337 -0.4286 -0.6311
  657MOL0     H88640   8.709   3.480   3.383  2.9340  0.7845  1.8424
  657MOL0     H88641   8.819   3.360   3.327  0.0769  0.2564  0.7489
  657MOL0     H88642   8.531   3.401   3.237  0.1485 -0.4821 -0.2349
  657MOL0     H88643   8.577   3.236   3.270  1.1415  0.4666 -1.5172
  657MOL0     H88644   8.593   3.313   3.030  1.3348  0.3826 -0.6454
  657MOL0     H88645   8.712   3.426   3.085  0.5059  0.3602  0.3321
  657MOL0     H88646   8.774   3.069   3.222 -1.7923 -1.5005 -2.7503
  657MOL0     H88647   9.035   2.916   3.178  2.4420 -0.8758  1.8040
  657MOL0     H88648   9.151   3.042   3.156 -0.8042  0.1061  0.5837
  657MOL0     H88649   9.037   3.154   3.353 -0.3759 -1.0445 -3.3929
  657MOL0     H88650   8.948   3.000   3.381  0.3140 -3.5945 -2.2220
  657MOL0     H88651   9.248   3.016   3.363 -0.0391 -0.8703 -1.8487
  657MOL0     H88652   9.142   2.878   3.416 -0.2639  1.1491  0.2257
  657MOL0     H88653   9.193   3.159   3.548  0.8933 -0.8786 -2.4388
  657MOL0     H88654   9.277   3.029   3.598 -0.8618  0.6385  1.3487
  657MOL0     H88655   9.313   3.166   3.790  0.6189 -0.1346  1.5092
  657MOL0     H88656   9.288   3.284   3.980  0.6078 -1.0505 -0.4127
  657MOL0     H88657   9.405   3.482   4.231 -0.9460 -0.4483 -1.3917
  657MOL0     H88658   9.457   3.664   4.401  0.0168  0.9290 -4.1103
  657MOL0     H88659   9.274   3.984   4.556  1.4016 -0.8191  1.2644
  657MOL0     H88660   9.118   3.910   4.519  2.3730  0.8891 -3.5725
  657MOL0     H88661   9.263   3.907   4.789 -0.1125 -2.4798 -1.2832
  657MOL0     H88662   9.107   3.987   4.763  0.6770  0.9101 -2.6304
  657MOL0     H88663   9.053   3.741   4.687  3.9810  1.8977 -3.7668
  657MOL0     H88664   9.194   3.692   4.777 -1.6284 -1.3472  1.2236
  657MOL0     H88665   8.954   3.830   4.907  0.6184  1.3657  0.1543
  657MOL0     H88666   9.096   3.789   4.996  1.8528  1.1238 -2.2446
  657MOL0     H88667   9.086   3.573   4.995 -0.0512 -1.7699 -1.0696
  657MOL0     H88668   8.989   3.543   4.854  0.7752 -1.9559  0.6079
  657MOL0     H88669   8.869   3.495   5.089  1.1742  0.4847 -0.3150
  657MOL0     H88670   8.872   3.669   5.120 -3.2983 -0.2152  0.3651
  657MOL0     H88671   8.727   3.550   4.873 -0.7712 -0.2491  0.7337
  657MOL0     H88672   8.735   3.723   4.942  2.4316  0.5788  1.4304
  657MOL0     H88673   8.651   3.614   5.151  3.0762  3.4706 -2.5300
  657MOL0     H88674   8.529   3.640   5.021  0.6012  1.5885  1.2225
  657MOL0     H88675   9.041   3.691   4.490  0.2299  1.3039 -0.8332
  657MOL0     H88676   8.984   3.521   4.334 -0.7028 -0.4171  1.5775
  657MOL0     H88677   8.871   3.161   4.009 -0.2032  1.9603  0.6080
  657MOL0     H88678   8.882   3.071   3.791 -0.4111  1.4121 -1.8857
  657MOL0     H88679   9.039   3.784   4.054 -0.7180  1.8760 -1.9748
  657MOL0     H88680   9.007   3.961   4.217 -0.0880 -1.3573 -0.0485
  657MOL0     H88681   8.910   4.295   4.374 -0.4695 -0.9223  1.4882
  657MOL0     H88682   8.932   4.462   4.560 -1.2058  2.5885  0.3461
  657MOL0     H88683   8.578   4.528   4.832 -1.1234  0.8364  3.6236
  657MOL0     H88684   8.576   4.688   4.743  0.6175  1.1265  2.2904
  657MOL0     H88685   8.804   4.602   4.948  0.6951 -0.2849  0.6781
  657MOL0     H88686   8.652   4.681   4.993 -1.4497  1.6429 -1.6590
  657MOL0     H88687   8.715   4.889   4.905  0.5784  0.2459 -0.5795
  657MOL0     H88688   8.807   4.807   4.770 -1.3570 -0.7433 -0.6678
  657MOL0     H88689   8.917   4.813   5.057 -0.5910 -0.5297  0.9273
  657MOL0     H88690   8.997   4.766   4.903 -1.1672 -3.2583  0.6258
  657MOL0     H88691   9.037   5.175   4.908  0.9821  0.3245  2.0534
  657MOL0     H88692   8.516   4.468   4.611  0.4850 -0.0822 -0.3919
  657MOL0     H88693   8.366   4.351   4.455 -3.5302 -4.4598  1.2881
  657MOL0     H88694   8.449   4.305   4.306  0.9012  0.4563  0.0126
  657MOL0     H88695   8.422   4.182   4.440 -0.0810  0.1873  0.7229
  658MOL0     O88696   3.287   0.546   2.252 -0.0255  0.1144  0.2567
  658MOL0     C88697   3.384   0.488   2.294 -0.3953  0.0490  0.2278
  658MOL0     O88698   3.401   0.429   2.417  0.2848  0.3792 -0.9193
  658MOL0     C88699   3.298   0.439   2.512  0.3132  0.2720 -1.0914
  658MOL0     C88700   3.177   0.369   2.495 -0.3226 -0.2250 -0.0718
  658MOL0     C88701   3.085   0.343   2.594 -0.7268  0.3949  1.3866
  658MOL0     C88702   3.105   0.398   2.719  0.0581 -0.3611  0.0813
  658MOL0     O88703   3.009   0.388   2.826  0.2873 -0.0337  0.1468
  658MOL0     C88704   2.886   0.313   2.807 -0.7325 -0.3467  1.3184
  658MOL0     C88705   2.839   0.261   2.945  0.9046 -0.2703  0.5352
  658MOL0     C88706   2.775   0.366   3.028  0.6072  0.0134  0.0917
  658MOL0     C88707   2.625   0.397   3.000  0.6338  0.8770 -0.3968
  658MOL0     C88708   2.590   0.526   3.090 -0.5310  0.8361  0.0323
  658MOL0     C88709   2.626   0.659   3.013  0.4742 -0.6585  0.2138
  658MOL0     C88710   2.662   0.766   3.105  0.5718 -0.7263 -0.6747
  658MOL0     C88711   2.556   0.815   3.209 -0.2089 -0.0307 -0.0543
  658MOL0     N88712   2.585   0.948   3.255  0.6869  0.2895  0.5715
  658MOL0     C88713   2.529   1.060   3.201 -0.5520 -0.4441 -0.2891
  658MOL0     C88714   2.595   1.163   3.258 -0.4228  0.8432  0.4524
  658MOL0     C88715   2.560   1.311   3.244  0.6063 -0.9458  0.6002
  658MOL0     C88716   2.452   1.343   3.359  0.4391  0.1206 -0.4505
  658MOL0     C88717   2.420   1.503   3.359  0.0572  0.2967  0.4596
  658MOL0     C88718   2.297   1.542   3.425 -0.2745 -0.8621 -0.4039
  658MOL0     O88719   2.284   1.687   3.449 -0.0996 -0.0730  0.3816
  658MOL0     C88720   2.353   1.741   3.557  1.0322 -0.3117  0.3649
  658MOL0     C88721   2.322   1.877   3.576  0.3341  0.3620  0.9725
  658MOL0     C88722   2.369   1.940   3.691  0.3744  0.1555 -0.0043
  658MOL0     C88723   2.446   1.871   3.787  0.3377  0.2375 -0.0109
  658MOL0     C88724   2.481   1.929   3.917 -0.8240 -0.0121 -0.1498
  658MOL0     O88725   2.469   1.847   4.022  0.3455  0.3270  1.0911
  658MOL0     C88726   2.532   1.886   4.141  0.0971  1.0836 -0.1862
  658MOL0     C88727   2.556   2.015   4.200  1.1115 -0.2634 -0.5895
  658MOL0     C88728   2.609   2.036   4.328  0.5059 -1.1218  0.1713
  658MOL0     C88729   2.666   1.929   4.398  0.0378  0.2673  0.2326
  658MOL0     O88730   2.742   1.968   4.501  1.3052  0.2182 -0.1362
  658MOL0     C88731   2.836   1.887   4.562 -0.0153  0.5869 -0.1499
  658MOL0     C88732   2.910   1.954   4.681  0.2924  0.0804  0.2828
  658MOL0     C88733   2.980   2.080   4.632  0.2274 -0.0187 -0.1553
  658MOL0     C88734   3.055   2.158   4.746 -0.6415  0.1784 -0.5649
  658MOL0     C88735   3.107   2.286   4.681 -0.5107  1.1978 -0.0637
  658MOL0     C88736   3.161   2.377   4.801  0.1889  0.2042 -0.4779
  658MOL0     C88737   3.231   2.507   4.760 -0.0646 -0.2029  0.3676
  658MOL0     C88738   3.142   2.626   4.727  1.6905 -0.1552 -1.1021
  658MOL0    Cl88739   3.048   2.687   4.863 -0.1134 -0.5538 -0.2449
  658MOL0     C88740   2.644   1.800   4.348 -0.0940  0.0023  0.2051
  658MOL0     C88741   2.580   1.778   4.222  0.0333 -0.1142  0.1890
  658MOL0     O88742   2.514   2.047   3.917 -0.1025  0.2495  0.2731
  658MOL0     C88743   2.483   1.738   3.758 -0.4981  0.4691 -0.6868
  658MOL0     C88744   2.435   1.667   3.648  0.2050 -0.5238  0.3622
  658MOL0     N88745   2.684   1.102   3.343 -0.6393  0.3925 -0.4954
  658MOL0     N88746   2.690   0.975   3.332  0.4797 -0.2197 -0.5440
  658MOL0     C88747   3.218   0.489   2.743  0.2979  0.8907  1.3525
  658MOL0     C88748   3.323   0.501   2.636  0.3793  0.4864 -0.4134
  658MOL0     C88749   3.507   0.491   2.214  0.0553 -0.2706 -0.4409
  658MOL0     C88750   3.559   0.362   2.180 -0.9080 -0.0705  1.1822
  658MOL0     C88751   3.673   0.352   2.094 -0.6791  1.2812 -0.4794
  658MOL0     C88752   3.741   0.470   2.048 -0.2284 -0.8599  0.5622
  658MOL0     O88753   3.847   0.477   1.957 -0.1946 -0.0807 -0.6723
  658MOL0     C88754   3.877   0.349   1.895 -0.0190 -0.2679 -0.3847
  658MOL0     C88755   3.758   0.296   1.794 -0.5700 -0.4597 -0.4782
  658MOL0     C88756   3.744   0.393   1.664  0.9097  0.9421 -0.3627
  658MOL0     C88757   3.661   0.526   1.690  0.9661 -0.9115  0.6723
  658MOL0     C88758   3.669   0.610   1.568  0.7607 -0.5490 -0.4142
  658MOL0     C88759   3.659   0.703   1.492  0.0987  0.3262  0.5104
  658MOL0     C88760   3.684   0.600   2.095 -0.2982 -0.3662  1.2686
  658MOL0     C88761   3.573   0.611   2.181  0.6181 -0.7340 -0.7472
  658MOL0     C88762   3.520   0.741   2.240 -1.1576  0.0240  0.9659
  658MOL0     H88763   3.153   0.332   2.395  4.0110 -3.0460 -0.3317
  658MOL0     H88764   2.998   0.291   2.556  0.3519 -0.6251  0.1687
  658MOL0     H88765   2.811   0.358   2.741  1.9196 -1.4198 -2.8927
  658MOL0     H88766   2.922   0.221   2.760  4.5950  0.3741  3.2168
  658MOL0     H88767   2.922   0.226   3.007  1.4945  0.6674  0.2957
  658MOL0     H88768   2.768   0.180   2.925  0.7563 -0.0685  0.2426
  658MOL0     H88769   2.829   0.455   2.993 -1.4653  1.0744 -0.6192
  658MOL0     H88770   2.787   0.343   3.134  2.7326 -2.7204 -0.6244
  658MOL0     H88771   2.596   0.404   2.894 -0.4928  0.9937 -0.0922
  658MOL0     H88772   2.561   0.313   3.026  1.7221 -0.1537 -0.9172
  658MOL0     H88773   2.483   0.541   3.104 -0.1479  1.3566  2.8921
  658MOL0     H88774   2.628   0.517   3.192 -4.9635 -2.9022  1.6994
  658MOL0     H88775   2.718   0.646   2.955  1.1347  0.6335  0.9236
  658MOL0     H88776   2.545   0.681   2.943 -0.4981 -1.1416  1.1499
  658MOL0     H88777   2.680   0.854   3.043 -2.3086 -0.6745 -1.5586
  658MOL0     H88778   2.752   0.738   3.162  0.5590 -0.2573 -0.4155
  658MOL0     H88779   2.460   0.811   3.156  0.4759 -1.5307 -1.2515
  658MOL0     H88780   2.539   0.751   3.296  2.0734 -0.2512  0.2729
  658MOL0     H88781   2.436   1.070   3.146  0.1580  1.1974 -1.2636
  658MOL0     H88782   2.638   1.386   3.257 -1.5636  1.0899  3.2133
  658MOL0     H88783   2.511   1.332   3.149 -1.7713 -1.2889  1.6838
  658MOL0     H88784   2.369   1.273   3.343  2.0461 -1.8389 -0.5402
  658MOL0     H88785   2.499   1.316   3.454 -0.4758  3.0700  0.9708
  658MOL0     H88786   2.406   1.539   3.257 -0.0650 -1.4675 -0.1795
  658MOL0     H88787   2.508   1.556   3.396  0.3401  1.6525 -1.9721
  658MOL0     H88788   2.305   1.491   3.521 -2.1017  2.9099  1.9817
  658MOL0     H88789   2.205   1.502   3.381 -1.3117  0.9655  0.0015
  658MOL0     H88790   2.263   1.922   3.497 -0.3330  1.1788  1.8999
  658MOL0     H88791   2.339   2.044   3.702 -1.4658 -0.6351  4.4573
  658MOL0     H88792   2.536   2.111   4.153 -1.8653  0.1230  1.2217
  658MOL0     H88793   2.644   2.131   4.368  1.1664 -2.2536  2.4936
  658MOL0     H88794   2.803   1.786   4.591  1.7362  0.2441  0.8066
  658MOL0     H88795   2.897   1.865   4.474 -1.5391 -1.9618 -0.6708
  658MOL0     H88796   2.837   1.979   4.758  1.4867 -2.3241  2.3278
  658MOL0     H88797   2.981   1.879   4.717 -2.7487 -2.9443  0.4857
  658MOL0     H88798   3.048   2.054   4.550  1.1179 -1.4508  0.9761
  658MOL0     H88799   2.911   2.158   4.600 -1.2593 -0.1771  2.4012
  658MOL0     H88800   3.139   2.100   4.787 -0.0923  0.1914 -1.6421
  658MOL0     H88801   2.975   2.174   4.819  0.4424 -0.5685  0.8481
  658MOL0     H88802   3.019   2.332   4.634 -3.4435 -2.4346  1.3578
  658MOL0     H88803   3.177   2.251   4.605 -0.1748 -1.5384  1.3667
  658MOL0     H88804   3.079   2.400   4.869  0.0363  1.4431 -1.0417
  658MOL0     H88805   3.229   2.326   4.869 -0.8498  1.5403  1.6542
  658MOL0     H88806   3.290   2.486   4.670 -0.0429 -0.4672  0.4410
  658MOL0     H88807   3.300   2.546   4.836  1.0437  1.1463 -1.2382
  658MOL0     H88808   3.204   2.708   4.690  2.9944  0.7227  2.5844
  658MOL0     H88809   3.066   2.592   4.656 -0.0836 -1.3162  1.2040
  658MOL0     H88810   2.684   1.712   4.398 -0.7441 -0.5441 -0.2070
  658MOL0     H88811   2.573   1.676   4.187  1.0704  0.3425 -1.4977
  658MOL0     H88812   2.548   1.672   3.813  1.5715  1.6541 -1.5741
  658MOL0     H88813   2.456   1.561   3.638  0.2340 -0.3968 -1.2798
  658MOL0     H88814   3.238   0.534   2.840  1.9659 -1.2325  2.0591
  658MOL0     H88815   3.417   0.549   2.663  0.2969  0.2381  0.3360
  658MOL0     H88816   3.518   0.264   2.199  0.9682 -1.1557 -0.0861
  658MOL0     H88817   3.714   0.256   2.064 -3.2561 -0.2771  0.6768
  658MOL0     H88818   3.912   0.270   1.961 -1.0839 -0.5169 -0.0973
  658MOL0     H88819   3.969   0.365   1.838  0.5912 -1.0251  0.3556
  658MOL0     H88820   3.669   0.278   1.856  1.8747 -1.8673  2.9306
  658MOL0     H88821   3.797   0.202   1.756  0.2805 -1.9650  3.5845
  658MOL0     H88822   3.700   0.341   1.578  1.6936  2.3443 -1.6720
  658MOL0     H88823   3.844   0.413   1.625  2.1287 -2.2397  0.8136
  658MOL0     H88824   3.555   0.496   1.696  0.6064 -1.2916 -4.0735
  658MOL0     H88825   3.705   0.582   1.772  4.8640  0.2053 -1.9223
  658MOL0     H88826   3.661   0.774   1.412 -2.6802  0.6639  0.6545
  658MOL0     H88827   3.737   0.689   2.061 -0.1647 -0.2876  1.6850
  658MOL0     H88828   3.478   0.800   2.159 -1.5554  1.3394  2.0927
  658MOL0     H88829   3.436   0.731   2.309 -1.8243  4.0015  0.9349
  658MOL0     H88830   3.608   0.791   2.282  0.0619 -0.5226 -0.8340
  659MOL0     O88831   4.560   8.656   7.729 -0.0785  0.2387 -0.6640
  659MOL0     C88832   4.554   8.536   7.711  0.9596  0.0671 -0.2658
  659MOL0     O88833   4.473   8.475   7.618 -0.5938  0.5651  0.5074
  659MOL0     C88834   4.431   8.556   7.514  0.6767 -0.6514 -1.5997
  659MOL0     C88835   4.300   8.602   7.505 -0.3358  0.4555 -0.9741
  659MOL0     C88836   4.267   8.675   7.388 -0.3789 -0.4215 -0.0581
  659MOL0     C88837   4.359   8.692   7.281 -0.7406 -0.5290 -1.1373
  659MOL0     O88838   4.339   8.757   7.162 -0.4314 -0.1846 -0.6484
  659MOL0     C88839   4.343   8.896   7.166  0.2708  0.7689 -0.5153
  659MOL0     C88840   4.225   8.957   7.236  0.5731 -0.0378 -1.4816
  659MOL0     C88841   4.218   9.113   7.211  0.5458 -0.2569 -0.5535
  659MOL0     C88842   4.110   9.158   7.112 -0.0521 -0.8078  0.6524
  659MOL0     C88843   4.078   9.300   7.104  0.3913 -0.3626  0.1845
  659MOL0     C88844   3.929   9.333   7.042  0.5019 -0.2823 -0.2034
  659MOL0     C88845   3.914   9.482   7.037  0.1708 -0.0971  0.2845
  659MOL0     C88846   3.789   9.523   6.958 -0.4467  0.2791 -0.1017
  659MOL0     N88847   3.665   9.527   7.043 -0.5554  1.0413 -0.1034
  659MOL0     C88848   3.604   9.409   7.084  1.3913 -0.2634  0.7213
  659MOL0     C88849   3.496   9.454   7.156 -0.4667 -0.2216  0.5024
  659MOL0     C88850   3.369   9.376   7.195  0.2587  0.1884  0.2062
  659MOL0     C88851   3.337   9.365   7.354  1.1482 -0.1003  0.9656
  659MOL0     C88852   3.359   9.498   7.426  0.0234  0.4038 -0.2919
  659MOL0     C88853   3.306   9.488   7.563  0.7820  0.5770 -0.3328
  659MOL0     O88854   3.379   9.411   7.656  0.0662  0.0042  0.6938
  659MOL0     C88855   3.359   9.431   7.792  0.5709 -0.2172 -0.2184
  659MOL0     C88856   3.351   9.313   7.870 -0.1952  0.2174  0.7358
  659MOL0     C88857   3.340   9.330   8.011  0.5269  0.2694 -0.0642
  659MOL0     C88858   3.323   9.461   8.074 -0.5016  0.0272  0.0381
  659MOL0     C88859   3.306   9.470   8.225  0.4607 -0.1472 -0.4363
  659MOL0     O88860   3.270   9.601   8.271  0.3057 -0.8053  0.5333
  659MOL0     C88861   3.250   9.610   8.407  0.1547  0.4364 -0.0761
  659MOL0     C88862   3.362   9.598   8.497  0.7411 -0.7854  0.8254
  659MOL0     C88863   3.339   9.607   8.631 -0.1295 -0.1738 -0.8386
  659MOL0     C88864   3.219   9.631   8.688  0.3150  1.0462 -0.3817
  659MOL0     O88865   3.211   9.657   8.823  0.0937 -0.7716  0.1874
  659MOL0     C88866   3.272   9.571   8.921  0.0462 -0.2384 -0.0969
  659MOL0     C88867   3.225   9.421   8.935 -0.6147 -0.7762  0.0207
  659MOL0     C88868   3.072   9.413   8.942  0.3997 -0.1923  0.5138
  659MOL0     C88869   2.996   9.373   8.815 -0.6476  1.6411  0.8689
  659MOL0     C88870   2.864   9.456   8.802 -0.3459 -1.2598  0.4517
  659MOL0     C88871   2.765   9.427   8.913  0.3452  0.6271 -0.4983
  659MOL0     C88872   2.635   9.515   8.919 -0.2710  0.4221  0.2078
  659MOL0     C88873   2.537   9.484   9.036 -0.6609  0.0812 -0.2581
  659MOL0    Cl88874   2.607   9.543   9.199 -0.2168  0.0960 -0.2485
  659MOL0     C88875   3.110   9.648   8.605 -0.4821 -0.2378  0.2847
  659MOL0     C88876   3.126   9.637   8.466 -0.2267  0.5724  0.3057
  659MOL0     O88877   3.336   9.370   8.291  0.2645 -0.0011  0.1152
  659MOL0     C88878   3.322   9.577   7.993  0.7269 -0.8278 -0.7201
  659MOL0     C88879   3.357   9.564   7.858  0.7241  0.3368  0.0026
  659MOL0     N88880   3.500   9.591   7.162 -0.1073  0.3052  0.1646
  659MOL0     N88881   3.599   9.633   7.084  0.1523 -0.3103  0.7289
  659MOL0     C88882   4.489   8.645   7.299  0.2324 -0.3679  0.8808
  659MOL0     C88883   4.518   8.574   7.405  0.0008  0.1099 -0.7202
  659MOL0     C88884   4.601   8.431   7.819 -1.0493 -0.3834  0.0710
  659MOL0     C88885   4.528   8.316   7.828 -0.1148  0.7574  0.8459
  659MOL0     C88886   4.572   8.211   7.914  0.2405 -0.0617  0.7743
  659MOL0     C88887   4.679   8.228   8.002  0.0407 -0.6373  0.7271
  659MOL0     O88888   4.722   8.125   8.082  0.4838 -0.3996 -0.2694
  659MOL0     C88889   4.665   7.990   8.079 -0.3736 -0.3450  0.3761
  659MOL0     C88890   4.728   7.918   8.196  0.4814 -0.7553 -0.2662
  659MOL0     C88891   4.697   7.976   8.333  0.9495 -1.0456  0.6662
  659MOL0     C88892   4.791   7.955   8.439 -0.1677 -0.5787  0.4571
  659MOL0     C88893   4.805   7.808   8.462  0.0358  0.4304  0.3061
  659MOL0     C88894   4.784   7.691   8.492  0.0710 -1.0880  0.2815
  659MOL0     C88895   4.748   8.355   7.991  0.5629  0.2289  0.0009
  659MOL0     C88896   4.707   8.455   7.907 -0.6717 -0.6290 -0.1559
  659MOL0     C88897   4.783   8.590   7.899  0.1266  0.3088 -0.5295
  659MOL0     H88898   4.234   8.576   7.587  0.2996  0.0899 -0.5753
  659MOL0     H88899   4.171   8.725   7.390 -1.3364 -2.1708  1.3130
  659MOL0     H88900   4.438   8.925   7.212 -0.1790  1.3387  0.0729
  659MOL0     H88901   4.337   8.930   7.062 -1.3934  0.3111 -0.5970
  659MOL0     H88902   4.241   8.943   7.343  1.4437  2.2792 -1.2434
  659MOL0     H88903   4.126   8.915   7.216  0.9627 -0.5552 -2.3997
  659MOL0     H88904   4.316   9.148   7.176  1.2039 -2.4830 -1.0837
  659MOL0     H88905   4.198   9.157   7.309  2.4022 -0.2831 -0.1252
  659MOL0     H88906   4.133   9.113   7.016  0.5101 -0.7051  0.7355
  659MOL0     H88907   4.019   9.105   7.144 -2.0491  2.4802  0.8751
  659MOL0     H88908   4.094   9.342   7.204  3.2349  0.9469 -0.6903
  659MOL0     H88909   4.155   9.345   7.039 -1.2870  0.7187 -1.1449
  659MOL0     H88910   3.895   9.287   6.949 -2.1177  1.5107 -0.2201
  659MOL0     H88911   3.854   9.301   7.114  1.7578 -1.8559  0.4759
  659MOL0     H88912   4.001   9.533   6.994 -1.0523  1.5522 -0.3517
  659MOL0     H88913   3.893   9.520   7.137 -3.9466  2.9188 -1.4068
  659MOL0     H88914   3.797   9.627   6.924 -2.9211  0.2897 -0.8355
  659MOL0     H88915   3.783   9.475   6.861  0.0714 -1.8389  0.8685
  659MOL0     H88916   3.621   9.307   7.053  2.2829  0.0488  0.1332
  659MOL0     H88917   3.277   9.403   7.141  0.0288  2.4071  1.5702
  659MOL0     H88918   3.391   9.275   7.160 -0.7734  0.4489 -1.3494
  659MOL0     H88919   3.231   9.341   7.367  0.5747  1.8943  0.2376
  659MOL0     H88920   3.400   9.284   7.393 -3.8332 -4.0787  1.8589
  659MOL0     H88921   3.296   9.576   7.382  1.3435  1.9936  0.5332
  659MOL0     H88922   3.463   9.525   7.404  0.4694 -0.8014  0.2325
  659MOL0     H88923   3.204   9.450   7.558  1.8230 -2.6860  0.6103
  659MOL0     H88924   3.299   9.590   7.601  1.7434  0.2137  0.8984
  659MOL0     H88925   3.336   9.216   7.823  1.7457  0.0182  0.4494
  659MOL0     H88926   3.334   9.249   8.084 -1.0607 -0.9804 -1.4873
  659MOL0     H88927   3.460   9.573   8.455 -0.2022  0.2167 -2.2382
  659MOL0     H88928   3.434   9.608   8.684 -0.7519  0.0326  0.2988
  659MOL0     H88929   3.381   9.580   8.921  0.1718 -1.4007  0.8413
  659MOL0     H88930   3.238   9.613   9.016 -0.1157  2.4522 -1.2582
  659MOL0     H88931   3.261   9.359   8.852  2.1281  1.1300 -0.3550
  659MOL0     H88932   3.290   9.376   9.011 -0.5078 -2.4416 -1.0015
  659MOL0     H88933   3.046   9.340   9.020  4.4625 -0.3571  1.9710
  659MOL0     H88934   3.024   9.501   8.987 -0.0876 -1.3435  2.3720
  659MOL0     H88935   2.968   9.267   8.824  0.2888  0.9705 -2.5171
  659MOL0     H88936   3.063   9.376   8.728  1.1341  1.0972  2.1551
  659MOL0     H88937   2.816   9.453   8.704 -3.9334  2.4597  1.8491
  659MOL0     H88938   2.881   9.563   8.814  1.5726 -1.6409  1.6095
  659MOL0     H88939   2.732   9.323   8.910 -1.1062  0.8019  3.7579
  659MOL0     H88940   2.811   9.433   9.012  0.9430 -3.6402 -0.2975
  659MOL0     H88941   2.596   9.503   8.818  4.3101  0.4383 -1.8243
  659MOL0     H88942   2.660   9.621   8.923  0.1576  0.3108  0.5850
  659MOL0     H88943   2.447   9.543   9.015 -0.3807  0.9882  1.0174
  659MOL0     H88944   2.508   9.378   9.036  0.9023 -0.4064 -2.3476
  659MOL0     H88945   3.012   9.676   8.641  0.1959 -0.6409  2.6744
  659MOL0     H88946   3.038   9.648   8.402 -2.3375 -5.6261  1.3605
  659MOL0     H88947   3.301   9.671   8.042  0.3077 -0.9155 -0.7279
  659MOL0     H88948   3.370   9.656   7.801  1.4947 -0.9135 -1.9440
  659MOL0     H88949   4.554   8.663   7.214  0.1694 -0.1557  0.8759
  659MOL0     H88950   4.615   8.528   7.424  0.2453 -0.1416 -2.4437
  659MOL0     H88951   4.452   8.289   7.756  0.1392 -0.4421  1.0132
  659MOL0     H88952   4.512   8.120   7.916 -1.1370  0.8240  0.8855
  659MOL0     H88953   4.677   7.943   7.980 -2.7734 -2.2410  0.8803
  659MOL0     H88954   4.556   7.985   8.082 -0.3569 -1.9331 -0.3423
  659MOL0     H88955   4.836   7.928   8.177  0.1928  1.5615 -0.9986
  659MOL0     H88956   4.695   7.814   8.205 -0.0331 -0.5598  0.1639
  659MOL0     H88957   4.597   7.952   8.369  1.2770  0.6520  2.9327
  659MOL0     H88958   4.691   8.085   8.319  1.8429 -1.0864 -0.1759
  659MOL0     H88959   4.889   8.000   8.418  0.1186 -1.2545  0.2959
  659MOL0     H88960   4.751   8.005   8.528  1.2825  0.2476  0.6830
  659MOL0     H88961   4.778   7.590   8.527  1.7694 -1.8379 -1.4245
  659MOL0     H88962   4.834   8.377   8.054  0.3999  3.4794 -0.6989
  659MOL0     H88963   4.882   8.577   7.943 -1.2740 -1.4585  2.4425
  659MOL0     H88964   4.795   8.619   7.794 -1.8328  1.4226 -0.4936
  659MOL0     H88965   4.725   8.656   7.964 -4.6512 -2.1598 -1.7916
  660MOL0     O88966   7.453   9.761   1.749 -0.0924  0.4131 -0.3335
  660MOL0     C88967   7.437   9.677   1.656  0.0462 -0.2501 -0.0858
  660MOL0     O88968   7.524   9.576   1.629 -0.5688 -0.1479 -0.7447
  660MOL0     C88969   7.633   9.555   1.709 -0.3624  0.5853  0.3174
  660MOL0     C88970   7.634   9.461   1.813 -0.0938 -0.3018 -0.1701
  660MOL0     C88971   7.757   9.447   1.891  1.0308  0.4905 -0.3528
  660MOL0     C88972   7.869   9.513   1.860 -0.3492 -0.3660  0.2435
  660MOL0     O88973   7.992   9.489   1.918 -0.4757 -0.4472 -0.2462
  660MOL0     C88974   8.001   9.404   2.038  0.7200 -0.1844 -0.5249
  660MOL0     C88975   8.125   9.441   2.128 -0.0498 -1.4020 -0.2102
  660MOL0     C88976   8.180   9.582   2.118  0.1539 -0.7895  0.1243
  660MOL0     C88977   8.329   9.578   2.082  0.9620  0.0572 -0.5353
  660MOL0     C88978   8.422   9.519   2.184  0.5330 -0.8202  0.5964
  660MOL0     C88979   8.433   9.608   2.306 -0.0998  0.5638 -0.1104
  660MOL0     C88980   8.475   9.761   2.272 -0.0171 -0.0712 -0.1188
  660MOL0     C88981   8.523   9.833   2.398  0.0765  0.7085  0.2682
  660MOL0     N88982   8.548   9.974   2.362 -0.2285 -0.4943  0.2223
  660MOL0     C88983   8.663  10.045   2.362 -0.2444  0.0080  0.4124
  660MOL0     C88984   8.624  10.163   2.303  0.9601  0.7777  0.0883
  660MOL0     C88985   8.700  10.285   2.281  0.4837 -0.3265  0.0881
  660MOL0     C88986   8.741  10.301   2.135 -0.5675 -0.4226 -0.2932
  660MOL0     C88987   8.626  10.322   2.029  1.0082 -1.1259 -0.0496
  660MOL0     C88988   8.683  10.336   1.890  0.4223 -0.5541  0.3309
  660MOL0     O88989   8.804  10.414   1.882  0.3457 -0.0055 -0.4235
  660MOL0     C88990   8.794  10.548   1.915 -0.0488 -0.3102  0.3969
  660MOL0     C88991   8.682  10.628   1.893 -0.4437  0.1968  0.2146
  660MOL0     C88992   8.685  10.761   1.933  0.4656  0.0688 -0.3670
  660MOL0     C88993   8.806  10.824   1.968  0.2138 -0.8071  0.3014
  660MOL0     C88994   8.796  10.967   2.018 -0.5172  0.5230  0.2054
  660MOL0     O88995   8.911  11.006   2.071  0.4892 -0.0384  0.4993
  660MOL0     C88996   8.934  11.141   2.111  0.7438 -0.2276  0.0679
  660MOL0     C88997   9.008  11.155   2.231 -0.2065 -0.5170  0.8233
  660MOL0     C88998   9.029  11.289   2.283  0.0331  0.1284 -0.3126
  660MOL0     C88999   8.980  11.395   2.210  1.0523  0.8305 -0.2152
  660MOL0     O89000   8.998  11.515   2.271  0.5874  0.9242 -0.2632
  660MOL0     C89001   9.002  11.626   2.193 -0.0183  0.6903 -0.3775
  660MOL0     C89002   9.072  11.736   2.280 -0.3181 -0.1418  0.0520
  660MOL0     C89003   9.040  11.871   2.227 -0.3985 -0.0502  0.3443
  660MOL0     C89004   9.116  11.974   2.316 -0.6621 -1.3516  0.7129
  660MOL0     C89005   9.115  12.113   2.259  0.2198  0.0601 -1.2586
  660MOL0     C89006   9.212  12.208   2.338 -0.1829 -0.2604 -0.1053
  660MOL0     C89007   9.216  12.346   2.264  0.0248  0.9186  0.0503
  660MOL0     C89008   9.338  12.434   2.298  1.2320  0.2890 -0.1467
  660MOL0    Cl89009   9.389  12.547   2.168  0.0128  0.0206  0.1584
  660MOL0     C89010   8.903  11.380   2.097 -0.5581  1.2875  0.2571
  660MOL0     C89011   8.887  11.249   2.049  0.8435 -0.8884  0.0025
  660MOL0     O89012   8.691  11.034   2.018  0.8185  0.0390 -0.5269
  660MOL0     C89013   8.922  10.748   1.980 -0.0850 -0.7411 -0.5135
  660MOL0     C89014   8.918  10.608   1.957  0.4205 -1.2901  0.1276
  660MOL0     N89015   8.483  10.159   2.284 -0.3652 -0.2199 -0.4229
  660MOL0     N89016   8.444  10.043   2.311 -0.7885 -0.1706 -0.1628
  660MOL0     C89017   7.864   9.608   1.763  0.0013 -1.0888  0.2477
  660MOL0     C89018   7.742   9.639   1.690  0.6584 -0.7574 -0.6229
  660MOL0     C89019   7.316   9.683   1.576 -0.1030  0.2410  0.4129
  660MOL0     C89020   7.257   9.568   1.522  0.4242 -0.0739 -0.3364
  660MOL0     C89021   7.152   9.577   1.438 -0.1891 -0.8486 -0.4241
  660MOL0     C89022   7.084   9.702   1.412 -0.2807  0.2225  0.3043
  660MOL0     O89023   6.966   9.716   1.341  0.3164  0.0143  0.4635
  660MOL0     C89024   6.893   9.595   1.313  0.0875  0.6153  0.2480
  660MOL0     C89025   6.751   9.620   1.285 -0.1246  0.3544  0.3234
  660MOL0     C89026   6.687   9.711   1.387 -0.2460  0.7066 -0.0611
  660MOL0     C89027   6.541   9.733   1.346 -0.5321  0.5417  0.4684
  660MOL0     C89028   6.465   9.761   1.465 -0.0333  0.2076  0.3527
  660MOL0     C89029   6.396   9.811   1.562 -0.5678  0.5520 -0.8172
  660MOL0     C89030   7.148   9.817   1.460  1.1422  0.1300 -0.2198
  660MOL0     C89031   7.256   9.816   1.542  1.0848  0.1435  0.5187
  660MOL0     C89032   7.322   9.949   1.583 -0.8780  0.0353 -0.4855
  660MOL0     H89033   7.551   9.392   1.830 -0.0078 -0.3025  0.2397
  660MOL0     H89034   7.746   9.354   1.946 -0.5118 -1.7775 -4.0600
  660MOL0     H89035   7.911   9.424   2.096  1.9119 -0.0641  1.4020
  660MOL0     H89036   8.007   9.299   2.010  0.8494 -0.3293  0.0258
  660MOL0     H89037   8.206   9.370   2.108  0.6549 -0.5302 -0.5145
  660MOL0     H89038   8.108   9.425   2.235  3.6481 -2.1183  0.4026
  660MOL0     H89039   8.183   9.648   2.205  3.9193  0.9966 -1.1417
  660MOL0     H89040   8.116   9.641   2.052  1.0323  3.8863  2.9657
  660MOL0     H89041   8.338   9.526   1.986  0.7536  1.8745 -1.5733
  660MOL0     H89042   8.358   9.680   2.055 -1.3729  1.2562  1.1176
  660MOL0     H89043   8.382   9.423   2.216 -0.9394  0.3347  2.4539
  660MOL0     H89044   8.523   9.501   2.147  1.3367 -1.8571  3.0665
  660MOL0     H89045   8.338   9.607   2.359  0.3983  0.7104  0.7986
  660MOL0     H89046   8.517   9.574   2.367  0.2954  1.0106 -0.3997
  660MOL0     H89047   8.391   9.811   2.224  1.3732  1.0207 -1.5054
  660MOL0     H89048   8.562   9.758   2.205 -0.5102  2.3288 -0.9491
  660MOL0     H89049   8.433   9.829   2.461  1.6411  0.4647  2.6319
  660MOL0     H89050   8.604   9.780   2.448 -0.7882 -0.0079  0.9442
  660MOL0     H89051   8.759  10.006   2.392  0.1314 -0.3102 -1.1079
  660MOL0     H89052   8.633  10.367   2.311 -3.3448 -2.8471 -0.8556
  660MOL0     H89053   8.790  10.276   2.342  0.3866 -2.0156  0.0076
  660MOL0     H89054   8.816  10.380   2.127  0.8994 -1.7284 -0.0458
  660MOL0     H89055   8.787  10.209   2.098 -0.2941  0.3231 -1.8657
  660MOL0     H89056   8.569  10.411   2.055  2.7361 -0.1929  0.7260
  660MOL0     H89057   8.552  10.241   2.029 -0.4478  0.1200  1.9763
  660MOL0     H89058   8.605  10.373   1.822  1.5418  1.2747 -0.0100
  660MOL0     H89059   8.709  10.233   1.863  0.1859 -0.8875  1.3332
  660MOL0     H89060   8.593  10.588   1.846 -0.8200 -0.6414  1.6200
  660MOL0     H89061   8.589  10.812   1.927 -0.2374 -1.0791  0.6131
  660MOL0     H89062   9.048  11.064   2.274  0.5027 -0.1975  0.8659
  660MOL0     H89063   9.084  11.306   2.375  0.1587  0.8133 -0.5102
  660MOL0     H89064   9.079  11.611   2.116  2.0909  0.1267  1.7475
  660MOL0     H89065   8.904  11.643   2.147 -0.1180 -0.9455 -0.8152
  660MOL0     H89066   9.024  11.730   2.378 -0.9800  0.2599 -0.2411
  660MOL0     H89067   9.179  11.713   2.289 -0.0212  1.3091  0.3977
  660MOL0     H89068   9.065  11.880   2.121 -0.8273  1.0813  0.3237
  660MOL0     H89069   8.935  11.898   2.241 -0.9591 -2.4799  1.1424
  660MOL0     H89070   9.220  11.940   2.327 -0.3268 -0.1325  1.4698
  660MOL0     H89071   9.065  11.984   2.412 -1.8241  2.4683 -0.1388
  660MOL0     H89072   9.019  12.164   2.252  0.3976  1.1086  2.0658
  660MOL0     H89073   9.153  12.106   2.157 -0.1116  1.8172 -1.5317
  660MOL0     H89074   9.167  12.233   2.434 -0.1569  1.0874 -0.4204
  660MOL0     H89075   9.313  12.168   2.349  0.6086  1.9011  0.8769
  660MOL0     H89076   9.118  12.393   2.280 -0.4205  0.6449 -1.7048
  660MOL0     H89077   9.223  12.334   2.156 -1.0764 -0.3127  0.0812
  660MOL0     H89078   9.311  12.490   2.388 -0.3739 -0.6422 -0.0112
  660MOL0     H89079   9.415  12.362   2.327  0.0085 -0.7341  0.6893
  660MOL0     H89080   8.861  11.460   2.036  0.0778  1.2272 -0.2670
  660MOL0     H89081   8.856  11.244   1.945  1.1538  2.7910 -0.3630
  660MOL0     H89082   9.017  10.800   1.993 -0.7157  0.3502 -0.1330
  660MOL0     H89083   9.014  10.557   1.962  1.9334  1.4885  3.1429
  660MOL0     H89084   7.955   9.665   1.749 -0.1705 -0.3390  1.9953
  660MOL0     H89085   7.740   9.724   1.623  0.2637  1.7131  2.2962
  660MOL0     H89086   7.297   9.476   1.563  1.6038  1.4411  2.1815
  660MOL0     H89087   7.097   9.493   1.398  0.2540 -1.3688  0.0512
  660MOL0     H89088   6.893   9.532   1.402  1.7325 -2.0227 -1.4722
  660MOL0     H89089   6.948   9.531   1.243 -1.1123  0.3737 -0.5057
  660MOL0     H89090   6.715   9.518   1.300  1.8068 -0.6999 -1.7525
  660MOL0     H89091   6.728   9.670   1.191 -1.0421  1.6738  1.2046
  660MOL0     H89092   6.733   9.809   1.404 -1.7180  1.5528 -0.8011
  660MOL0     H89093   6.693   9.658   1.482  2.8665 -1.0492 -1.0850
  660MOL0     H89094   6.541   9.806   1.264  3.1647 -0.5657 -0.7359
  660MOL0     H89095   6.497   9.640   1.308 -0.5793  1.3428 -1.5736
  660MOL0     H89096   6.348   9.843   1.652  1.5494  0.0779  0.5557
  660MOL0     H89097   7.110   9.912   1.422  0.6013 -0.6622 -1.7445
  660MOL0     H89098   7.293  10.038   1.526 -2.1041 -0.8686 -1.3060
  660MOL0     H89099   7.304   9.968   1.690  2.9719 -0.4170  0.3956
  660MOL0     H89100   7.431   9.950   1.572 -0.9540  1.1864 -1.3678
  661MOL0     O89101   9.584   3.003   5.638 -0.0574 -0.0408 -0.6681
  661MOL0     C89102   9.493   2.938   5.583  0.1211  0.7721  0.4839
  661MOL0     O89103   9.493   2.809   5.553 -0.3059  0.8224  0.0939
  661MOL0     C89104   9.609   2.746   5.581  0.2497 -0.1337  0.4374
  661MOL0     C89105   9.645   2.684   5.702  0.5525  0.8148 -0.2551
  661MOL0     C89106   9.781   2.647   5.723  0.5739 -0.5646 -0.0535
  661MOL0     C89107   9.879   2.643   5.620  0.7481  0.3791 -0.1904
  661MOL0     O89108  10.005   2.592   5.632 -0.0226  0.1211  0.2501
  661MOL0     C89109  10.048   2.562   5.760  0.3699  0.5581 -0.7547
  661MOL0     C89110  10.184   2.506   5.766  0.3322  0.0441  0.1776
  661MOL0     C89111  10.294   2.601   5.726  0.2964 -0.8831 -0.9745
  661MOL0     C89112  10.433   2.535   5.727 -0.0820 -0.5791 -0.4788
  661MOL0     C89113  10.544   2.619   5.671 -0.3024  0.1890 -0.3841
  661MOL0     C89114  10.576   2.751   5.742 -0.3534  0.3049  0.1956
  661MOL0     C89115  10.668   2.827   5.652 -0.5754  0.5753  0.1947
  661MOL0     C89116  10.701   2.972   5.714 -0.4080  0.0081 -0.3465
  661MOL0     N89117  10.776   3.063   5.626 -0.1901 -0.6895 -0.2235
  661MOL0     C89118  10.736   3.162   5.546 -0.2398 -0.3988  0.7755
  661MOL0     C89119  10.835   3.189   5.463  0.5392 -0.6454  0.0549
  661MOL0     C89120  10.826   3.285   5.343  0.4031  1.2726  0.4989
  661MOL0     C89121  10.912   3.417   5.370 -0.1584  0.2694  0.6830
  661MOL0     C89122  10.870   3.508   5.483  0.5349 -0.1169  0.0914
  661MOL0     C89123  10.786   3.631   5.441  0.6675  0.2837 -0.5669
  661MOL0     O89124  10.703   3.622   5.324  0.0830  0.3121 -0.0635
  661MOL0     C89125  10.626   3.723   5.278 -0.2136  0.1474  0.0313
  661MOL0     C89126  10.564   3.694   5.157  1.0397 -0.3918  0.9923
  661MOL0     C89127  10.478   3.782   5.087 -0.6082 -0.4740  1.1491
  661MOL0     C89128  10.451   3.907   5.145  0.1487  0.4680 -0.3393
  661MOL0     C89129  10.358   3.998   5.078 -0.2383  0.7425 -0.1209
  661MOL0     O89130  10.296   3.951   4.963 -0.3225 -0.2173 -0.1421
  661MOL0     C89131  10.180   4.013   4.912  0.0828 -1.2358  0.0338
  661MOL0     C89132  10.153   3.991   4.773  1.2110  0.0944  0.2467
  661MOL0     C89133  10.022   4.014   4.713 -0.2041 -0.3527  0.2303
  661MOL0     C89134   9.919   4.072   4.786 -1.2498  0.4690  0.2439
  661MOL0     O89135   9.794   4.083   4.730  0.3181 -0.0087  0.5326
  661MOL0     C89136   9.686   4.156   4.789 -0.0914  0.7325  0.8728
  661MOL0     C89137   9.600   4.087   4.884  0.0079  0.2742 -0.1972
  661MOL0     C89138   9.563   3.939   4.867  0.4740  0.6354  0.4386
  661MOL0     C89139   9.655   3.852   4.950 -0.1737  0.0862 -0.4395
  661MOL0     C89140   9.630   3.870   5.101  0.0149 -0.0169  0.0879
  661MOL0     C89141   9.733   3.794   5.179  0.0898 -0.1760  0.3764
  661MOL0     C89142   9.874   3.863   5.164  0.9173 -0.0050 -0.8470
  661MOL0     C89143   9.981   3.769   5.213  0.4594  0.1780  0.7186
  661MOL0    Cl89144  10.040   3.792   5.386 -0.1433 -0.6551 -0.0842
  661MOL0     C89145   9.947   4.094   4.919 -0.0608 -1.3607  0.2083
  661MOL0     C89146  10.075   4.078   4.982  0.3816  0.6751 -0.4222
  661MOL0     O89147  10.326   4.100   5.137  0.2336  0.1063 -0.2136
  661MOL0     C89148  10.510   3.937   5.271 -0.7760 -0.1449  0.2604
  661MOL0     C89149  10.598   3.845   5.336  0.2641 -0.6296 -0.3102
  661MOL0     N89150  10.943   3.112   5.495 -0.0493 -0.1047 -0.4848
  661MOL0     N89151  10.913   3.044   5.598  0.6460 -0.1721 -0.3949
  661MOL0     C89152   9.825   2.683   5.497 -0.0628  0.2218 -0.0602
  661MOL0     C89153   9.700   2.745   5.476 -0.1518  0.1515 -0.2205
  661MOL0     C89154   9.381   3.008   5.535 -0.1745  0.0468  0.9827
  661MOL0     C89155   9.330   3.000   5.406 -0.5001  0.0483  0.6145
  661MOL0     C89156   9.222   3.078   5.367 -1.0227 -0.1800  0.4275
  661MOL0     C89157   9.151   3.169   5.449 -0.0983  0.5698 -0.2749
  661MOL0     O89158   9.037   3.243   5.413 -0.2912 -0.5239  0.1425
  661MOL0     C89159   8.980   3.263   5.284  0.2424 -0.0880  0.1699
  661MOL0     C89160   8.894   3.145   5.238  0.5051 -1.1738 -0.2730
  661MOL0     C89161   8.786   3.114   5.350  0.5433  0.4540 -0.0948
  661MOL0     C89162   8.729   2.966   5.347 -0.9225  0.2531  0.6751
  661MOL0     C89163   8.669   2.932   5.224  0.0374 -0.7360 -0.1577
  661MOL0     C89164   8.611   2.919   5.120  0.0910  0.7946 -0.0107
  661MOL0     C89165   9.205   3.182   5.580  0.1881 -0.8023 -0.2524
  661MOL0     C89166   9.311   3.099   5.629  0.3216  1.0165 -0.0873
  661MOL0     C89167   9.352   3.125   5.771  0.3800 -0.3773  0.3013
  661MOL0     H89168   9.582   2.680   5.790 -0.4395  2.8444 -0.8104
  661MOL0     H89169   9.803   2.605   5.820  0.7873  3.0139  1.5867
  661MOL0     H89170  10.035   2.648   5.826 -0.5076 -1.8614  2.4686
  661MOL0     H89171   9.983   2.493   5.815  2.1982 -0.6141  0.0171
  661MOL0     H89172  10.181   2.412   5.710  1.6698  0.2159 -0.2341
  661MOL0     H89173  10.217   2.478   5.867  0.2428  0.7515  0.4103
  661MOL0     H89174  10.302   2.686   5.794  0.7212 -1.5036 -0.2467
  661MOL0     H89175  10.283   2.651   5.629  2.1333  3.1629  0.6703
  661MOL0     H89176  10.450   2.500   5.829  0.2970 -0.4980 -0.5107
  661MOL0     H89177  10.418   2.439   5.675  3.4014 -1.5654  0.0616
  661MOL0     H89178  10.634   2.564   5.641  1.5244  1.9488  1.5649
  661MOL0     H89179  10.511   2.651   5.572 -0.6244  0.4020 -0.2078
  661MOL0     H89180  10.481   2.801   5.764 -0.6263 -0.8532  1.7981
  661MOL0     H89181  10.632   2.739   5.835  1.6319  5.2581 -0.0637
  661MOL0     H89182  10.620   2.839   5.555 -3.3705  2.7897  1.6749
  661MOL0     H89183  10.758   2.770   5.630 -1.3811 -0.1262 -1.4399
  661MOL0     H89184  10.604   3.015   5.738 -1.2882 -2.6011  1.1129
  661MOL0     H89185  10.767   2.951   5.799  0.4572 -0.2695 -1.0648
  661MOL0     H89186  10.633   3.196   5.546 -0.6972 -1.6648 -0.6592
  661MOL0     H89187  10.874   3.234   5.259  1.6084  5.6070 -1.7314
  661MOL0     H89188  10.722   3.303   5.317 -0.2771  0.1486  2.2695
  661MOL0     H89189  11.016   3.389   5.388 -0.1377  0.3113  0.6344
  661MOL0     H89190  10.910   3.469   5.274 -5.0309 -1.7981 -0.6525
  661MOL0     H89191  10.963   3.558   5.511 -0.6601  3.0539 -1.1524
  661MOL0     H89192  10.826   3.450   5.565 -1.6695  1.1708 -0.1063
  661MOL0     H89193  10.855   3.714   5.425  1.7635 -0.5059 -0.0910
  661MOL0     H89194  10.724   3.657   5.527 -1.1167  2.9766 -2.5218
  661MOL0     H89195  10.592   3.600   5.111 -0.0779 -0.8194  1.1729
  661MOL0     H89196  10.428   3.755   4.995 -2.7053  0.6849  1.9008
  661MOL0     H89197  10.236   3.940   4.724  2.4567 -0.2034  2.5384
  661MOL0     H89198  10.011   3.979   4.611 -1.9652 -0.8286  0.5578
  661MOL0     H89199   9.727   4.239   4.847  3.4942  1.3463 -2.1381
  661MOL0     H89200   9.626   4.197   4.707 -1.8074 -0.1788  1.6173
  661MOL0     H89201   9.631   4.109   4.987 -1.5945  1.7066  0.0336
  661MOL0     H89202   9.500   4.132   4.879 -0.0269  0.6848  2.4492
  661MOL0     H89203   9.457   3.931   4.892  1.0142  3.3602  4.5471
  661MOL0     H89204   9.573   3.907   4.763  2.2521 -1.8535  1.2909
  661MOL0     H89205   9.758   3.880   4.924  2.0560 -3.2304  3.6205
  661MOL0     H89206   9.638   3.746   4.927 -1.4654  0.1903 -0.0002
  661MOL0     H89207   9.530   3.828   5.113  0.1537 -0.4921 -0.3667
  661MOL0     H89208   9.630   3.976   5.127  0.9423 -0.4259  1.9007
  661MOL0     H89209   9.693   3.793   5.281  0.7457 -3.6403  0.7307
  661MOL0     H89210   9.737   3.691   5.142 -1.1821  0.4813 -1.7866
  661MOL0     H89211   9.882   3.955   5.223 -1.3692 -0.7396  0.7754
  661MOL0     H89212   9.887   3.889   5.059  1.9449  0.7857 -0.5332
  661MOL0     H89213   9.962   3.665   5.185  0.8445  0.4343 -0.5906
  661MOL0     H89214  10.054   3.796   5.137  0.5818 -4.6509 -1.2801
  661MOL0     H89215   9.873   4.136   4.987  0.3473 -3.7610  2.3223
  661MOL0     H89216  10.069   4.079   5.091 -2.4391  2.4377 -0.4753
  661MOL0     H89217  10.503   4.039   5.309  0.0069 -0.9272  2.6459
  661MOL0     H89218  10.660   3.876   5.419 -1.1584  0.5663  0.3346
  661MOL0     H89219   9.895   2.658   5.418  0.5327 -1.3000  0.9178
  661MOL0     H89220   9.645   2.763   5.383 -2.2327 -2.2868  0.4320
  661MOL0     H89221   9.370   2.932   5.332  0.2550 -0.2311  1.2647
  661MOL0     H89222   9.186   3.062   5.266 -3.0613  1.4226  0.8501
  661MOL0     H89223   9.048   3.287   5.201  1.3802 -4.2798 -0.3583
  661MOL0     H89224   8.907   3.344   5.286 -2.3919 -2.2095 -1.6225
  661MOL0     H89225   8.956   3.061   5.206  1.0829 -0.0613 -2.2433
  661MOL0     H89226   8.841   3.184   5.150 -1.1739  0.2898  1.3029
  661MOL0     H89227   8.713   3.194   5.341  2.5783  2.6124  1.2901
  661MOL0     H89228   8.834   3.121   5.448  4.4449 -0.0914 -1.7465
  661MOL0     H89229   8.801   2.884   5.359 -3.6564 -2.7324 -1.6392
  661MOL0     H89230   8.651   2.941   5.419 -0.5591 -0.3558  0.8724
  661MOL0     H89231   8.563   2.893   5.028 -0.0843 -3.0167  0.9909
  661MOL0     H89232   9.155   3.246   5.652  0.8208  0.8020 -1.1845
  661MOL0     H89233   9.266   3.134   5.838 -0.1569  0.9005 -0.5232
  661MOL0     H89234   9.421   3.054   5.818  2.1152  0.2046 -1.2468
  661MOL0     H89235   9.408   3.219   5.769 -0.0021 -0.0606  2.2088
  662MOL0     O89236   6.341   9.200  10.767  0.6570 -0.1716 -0.0891
  662MOL0     C89237   6.362   9.109  10.846  0.3227 -0.0857 -0.2064
  662MOL0     O89238   6.316   9.099  10.975  0.0274 -0.0676  0.5431
  662MOL0     C89239   6.187   9.146  11.000 -0.1213 -0.5531  0.7116
  662MOL0     C89240   6.076   9.168  10.915  0.7094  0.1028 -0.8350
  662MOL0     C89241   5.945   9.210  10.959 -0.6742 -0.7734  0.1650
  662MOL0     C89242   5.917   9.211  11.100 -0.9445 -0.2795  0.2058
  662MOL0     O89243   5.796   9.235  11.158  0.3515  0.3955 -1.0114
  662MOL0     C89244   5.679   9.267  11.082 -0.0390 -1.5158  0.3482
  662MOL0     C89245   5.695   9.413  11.048 -1.0772 -0.0024  0.7257
  662MOL0     C89246   5.642   9.494  11.167  0.8483  0.4723 -0.3120
  662MOL0     C89247   5.692   9.642  11.163  0.0427  0.1610 -0.7398
  662MOL0     C89248   5.654   9.715  11.298 -0.0628 -0.4849 -1.1486
  662MOL0     C89249   5.720   9.853  11.294  0.6090  0.3401  0.1088
  662MOL0     C89250   5.717   9.933  11.423  0.2141  0.2242 -0.7206
  662MOL0     C89251   5.785  10.068  11.411 -0.3374 -0.0992  0.0955
  662MOL0     N89252   5.697  10.176  11.351  0.6035  0.4828 -0.2198
  662MOL0     C89253   5.748  10.269  11.273  0.9868  0.0296  0.2044
  662MOL0     C89254   5.660  10.368  11.267  0.2915 -0.0523 -0.6158
  662MOL0     C89255   5.673  10.490  11.171  0.6203  0.5369 -1.1035
  662MOL0     C89256   5.579  10.473  11.047 -0.2386 -0.1242 -0.4038
  662MOL0     C89257   5.563  10.609  10.973  0.3118  0.5353 -0.9460
  662MOL0     C89258   5.549  10.591  10.836  0.8378 -0.1379 -0.3699
  662MOL0     O89259   5.553  10.722  10.777 -0.8708  0.3902 -0.0055
  662MOL0     C89260   5.517  10.757  10.649 -0.0712  0.0498 -0.1682
  662MOL0     C89261   5.514  10.892  10.606 -0.0670 -0.9214  0.0331
  662MOL0     C89262   5.454  10.937  10.492 -0.6554  0.1543  0.0961
  662MOL0     C89263   5.392  10.852  10.401 -0.0639 -1.0324 -0.3436
  662MOL0     C89264   5.321  10.896  10.279 -0.2525  0.0073 -0.4642
  662MOL0     O89265   5.267  10.796  10.205 -0.1312  0.1241 -0.3631
  662MOL0     C89266   5.205  10.812  10.080 -1.0985  0.1830 -0.4363
  662MOL0     C89267   5.213  10.709   9.988  0.3354 -0.4627  0.7065
  662MOL0     C89268   5.154  10.719   9.865  0.7101 -0.1822  0.0740
  662MOL0     C89269   5.098  10.834   9.825 -0.0722 -0.6294  0.1162
  662MOL0     O89270   5.039  10.855   9.699  0.5341  0.0273  0.2013
  662MOL0     C89271   5.128  10.834   9.585  0.3246  0.3422 -0.5257
  662MOL0     C89272   5.074  10.878   9.453  0.1776  0.7753  1.2309
  662MOL0     C89273   5.167  10.848   9.331  0.4327 -0.1926 -1.1181
  662MOL0     C89274   5.096  10.893   9.207 -0.7156  0.4141 -0.0997
  662MOL0     C89275   5.158  10.832   9.083 -0.0649 -0.6315 -0.6796
  662MOL0     C89276   5.077  10.862   8.956  0.5625  0.1033 -0.3642
  662MOL0     C89277   5.150  10.791   8.837 -0.4065 -0.5959 -0.9269
  662MOL0     C89278   5.098  10.802   8.695 -1.4666  0.5547 -0.1947
  662MOL0    Cl89279   4.921  10.797   8.684 -0.1974  0.8539  0.2114
  662MOL0     C89280   5.087  10.941   9.918 -0.1780  0.4695 -0.1382
  662MOL0     C89281   5.145  10.929  10.048 -0.4587 -0.4574 -0.5089
  662MOL0     O89282   5.310  11.023  10.260 -0.5726  0.6147 -0.1561
  662MOL0     C89283   5.411  10.705  10.428 -0.4312 -0.2736  0.0743
  662MOL0     C89284   5.473  10.665  10.548  0.1298  0.0148 -0.6830
  662MOL0     N89285   5.547  10.331  11.350 -0.4900 -0.0887 -0.5301
  662MOL0     N89286   5.580  10.222  11.408 -0.2183 -0.3159  0.0202
  662MOL0     C89287   6.026   9.198  11.183 -0.0234  0.2700 -0.2982
  662MOL0     C89288   6.160   9.168  11.136  0.4433 -0.7204  0.0031
  662MOL0     C89289   6.460   9.002  10.797 -0.0915 -0.1530 -0.0035
  662MOL0     C89290   6.556   8.958  10.892 -0.6566 -0.6568 -0.0157
  662MOL0     C89291   6.671   8.885  10.865  0.1478  0.2089  1.0894
  662MOL0     C89292   6.675   8.830  10.736  0.0733  0.4642 -0.2170
  662MOL0     O89293   6.786   8.746  10.716 -0.7901  0.3786  0.4456
  662MOL0     C89294   6.781   8.650  10.611 -0.2169 -0.8576 -0.1668
  662MOL0     C89295   6.891   8.554  10.635  0.0739  0.0851 -0.3613
  662MOL0     C89296   6.863   8.463  10.765  0.5476  0.4630  1.3682
  662MOL0     C89297   6.966   8.343  10.754 -0.0159 -0.6542 -0.0834
  662MOL0     C89298   6.914   8.248  10.657  0.0080 -0.1277 -0.2209
  662MOL0     C89299   6.868   8.156  10.602  0.9108  0.6919 -0.1239
  662MOL0     C89300   6.578   8.865  10.639  0.6318 -0.9050 -0.4569
  662MOL0     C89301   6.463   8.945  10.671  0.3489  0.6562 -0.0137
  662MOL0     C89302   6.356   8.967  10.570  0.2095 -0.3324  0.2628
  662MOL0     H89303   6.070   9.147  10.809 -2.4277  3.1127 -1.4584
  662MOL0     H89304   5.878   9.232  10.877  0.5275 -2.5389 -1.3906
  662MOL0     H89305   5.660   9.211  10.991 -2.2878  1.4256 -1.1787
  662MOL0     H89306   5.595   9.261  11.152 -0.7906  2.0786 -0.0440
  662MOL0     H89307   5.636   9.430  10.958 -1.4744 -2.4067  0.4876
  662MOL0     H89308   5.800   9.426  11.022 -1.4173 -2.9391 -2.8619
  662MOL0     H89309   5.679   9.450  11.259  2.6562  0.1546 -1.1568
  662MOL0     H89310   5.532   9.492  11.168  0.8354 -2.1547  1.3384
  662MOL0     H89311   5.800   9.659  11.150  0.0265  1.5031  0.5465
  662MOL0     H89312   5.637   9.685  11.080 -1.0543 -2.6003 -1.5621
  662MOL0     H89313   5.548   9.712  11.325  0.7638 -0.1872  2.7647
  662MOL0     H89314   5.691   9.661  11.386 -2.6178  1.0675  1.0167
  662MOL0     H89315   5.821   9.848  11.252  0.5989  3.0223 -0.4567
  662MOL0     H89316   5.663   9.922  11.231 -0.6663 -1.6744 -1.0330
  662MOL0     H89317   5.785   9.876  11.487  1.0369 -0.6795 -2.3363
  662MOL0     H89318   5.616   9.936  11.464 -0.6978  2.8900 -2.8608
  662MOL0     H89319   5.834  10.093  11.506  2.3840 -1.3245 -0.8995
  662MOL0     H89320   5.869  10.059  11.343 -0.9141  0.3954 -0.7005
  662MOL0     H89321   5.844  10.262  11.222 -0.1597  0.3333 -2.1191
  662MOL0     H89322   5.634  10.579  11.222 -2.8754 -1.9972  1.1397
  662MOL0     H89323   5.775  10.514  11.139 -0.0935  1.8784 -2.5305
  662MOL0     H89324   5.626  10.400  10.981  2.7560  0.2925  1.0819
  662MOL0     H89325   5.480  10.439  11.080 -0.0180 -0.0659  0.3315
  662MOL0     H89326   5.661  10.656  10.978  1.8012 -2.3646 -0.8962
  662MOL0     H89327   5.479  10.669  11.009  0.8132 -0.1724  1.5418
  662MOL0     H89328   5.453  10.543  10.819  0.7723  0.2861 -1.2593
  662MOL0     H89329   5.633  10.530  10.798  1.6456 -0.9870  2.5384
  662MOL0     H89330   5.549  10.958  10.684 -1.8279 -2.5742  2.3845
  662MOL0     H89331   5.461  11.045  10.489 -2.1163  0.3036  1.1183
  662MOL0     H89332   5.261  10.619  10.023  0.7186 -1.1835 -1.4974
  662MOL0     H89333   5.155  10.647   9.784  2.1404  0.2751 -0.3454
  662MOL0     H89334   5.221  10.888   9.610  0.5712  1.3097 -3.2490
  662MOL0     H89335   5.166  10.733   9.572  0.3227  0.3508 -0.5973
  662MOL0     H89336   4.988  10.814   9.437  0.3124  0.6647  0.9394
  662MOL0     H89337   5.046  10.982   9.471 -4.1109  0.4723 -2.0606
  662MOL0     H89338   5.265  10.897   9.336  1.1404 -1.6015 -0.4849
  662MOL0     H89339   5.190  10.741   9.322  0.8641  0.0220 -2.9640
  662MOL0     H89340   5.106  11.001   9.193  2.1826  0.6565  2.5133
  662MOL0     H89341   4.989  10.872   9.212 -0.6347 -0.8424 -2.2818
  662MOL0     H89342   5.165  10.724   9.098 -0.1048 -0.8891 -2.3103
  662MOL0     H89343   5.258  10.871   9.065 -0.0143 -0.1633  0.4960
  662MOL0     H89344   4.975  10.823   8.961  1.4585 -2.2801  2.0683
  662MOL0     H89345   5.079  10.970   8.939  0.0183 -0.0823 -1.7242
  662MOL0     H89346   5.169  10.688   8.868  0.5085  0.0473  0.7929
  662MOL0     H89347   5.247  10.842   8.838 -2.5731  4.0172 -0.1760
  662MOL0     H89348   5.132  10.898   8.654 -3.9399  1.3250 -0.6069
  662MOL0     H89349   5.158  10.728   8.641  0.6768  2.2922 -0.3535
  662MOL0     H89350   5.034  11.024   9.873  0.1987 -0.8616 -3.3282
  662MOL0     H89351   5.137  11.016  10.112  4.8240 -0.0612  0.1251
  662MOL0     H89352   5.379  10.632  10.355 -2.4710  0.5322  0.0805
  662MOL0     H89353   5.488  10.562  10.579 -1.5168  0.8809  3.7748
  662MOL0     H89354   6.015   9.209  11.291  3.7554 -1.5220  0.4263
  662MOL0     H89355   6.231   9.153  11.217  1.3141  0.7287 -0.4440
  662MOL0     H89356   6.547   9.004  10.991 -2.4354  0.5869 -0.6905
  662MOL0     H89357   6.739   8.859  10.946 -1.7156 -2.2437  2.0279
  662MOL0     H89358   6.807   8.695  10.514 -1.3323 -0.0339 -0.1081
  662MOL0     H89359   6.682   8.606  10.598 -0.5452  0.4122 -2.5757
  662MOL0     H89360   6.983   8.612  10.649 -0.9280  1.7179 -0.2703
  662MOL0     H89361   6.903   8.488  10.549 -0.7915  0.5266 -0.8382
  662MOL0     H89362   6.760   8.425  10.758 -0.1449  2.5073 -1.4670
  662MOL0     H89363   6.880   8.529  10.850 -0.9305  1.7267  0.7406
  662MOL0     H89364   7.071   8.370  10.751  1.1792 -2.9604  5.9973
  662MOL0     H89365   6.969   8.296  10.853 -2.6991  0.3535  0.5629
  662MOL0     H89366   6.805   8.087  10.548  0.4349  1.1998 -0.2337
  662MOL0     H89367   6.584   8.821  10.541 -1.2040 -4.9623  1.0503
  662MOL0     H89368   6.262   8.925  10.606  0.5682 -0.4016  1.1501
  662MOL0     H89369   6.346   9.075  10.557 -0.3250 -0.4492 -0.2950
  662MOL0     H89370   6.395   8.939  10.472 -0.5564  1.0253 -0.4596
  663MOL0     O89371   3.812   1.437   0.990 -0.1719  0.0432  0.4763
  663MOL0     C89372   3.905   1.507   1.020 -0.9419  0.3506  0.2796
  663MOL0     O89373   4.018   1.511   0.952 -0.4676 -0.3110 -0.2444
  663MOL0     C89374   4.062   1.427   0.847  0.1033 -0.3124 -0.0215
  663MOL0     C89375   4.018   1.292   0.825 -0.5410 -0.0520  0.5852
  663MOL0     C89376   4.058   1.219   0.716  0.4552 -0.8588  0.0332
  663MOL0     C89377   4.146   1.277   0.625 -0.0595  1.4422 -0.2315
  663MOL0     O89378   4.177   1.207   0.513 -0.2320  0.7025 -0.0800
  663MOL0     C89379   4.297   1.136   0.526 -0.2909 -0.9667  0.0550
  663MOL0     C89380   4.326   1.030   0.411  0.1378 -0.5431  0.6381
  663MOL0     C89381   4.323   1.107   0.280 -0.2625 -0.4120  0.8657
  663MOL0     C89382   4.326   1.000   0.169  0.4312 -0.5316  0.5841
  663MOL0     C89383   4.310   1.079   0.034 -0.1344 -0.0718 -0.1643
  663MOL0     C89384   4.267   1.007  -0.088 -0.0772 -0.1586  0.1635
  663MOL0     C89385   4.349   0.869  -0.120  0.1473 -0.1877  0.9297
  663MOL0     C89386   4.295   0.806  -0.251 -0.0764  0.1362  0.2492
  663MOL0     N89387   4.327   0.883  -0.376 -0.0565  0.1454 -0.9608
  663MOL0     C89388   4.377   0.817  -0.485 -0.8240 -0.1567 -0.3484
  663MOL0     C89389   4.339   0.883  -0.595 -0.2728  0.3443 -0.1759
  663MOL0     C89390   4.355   0.842  -0.743 -0.2574  0.2877  0.7776
  663MOL0     C89391   4.416   0.956  -0.821 -0.1725  0.0631  0.5388
  663MOL0     C89392   4.504   0.913  -0.933 -0.1029 -0.6434 -0.3855
  663MOL0     C89393   4.539   1.020  -1.046  0.4319 -0.3618 -0.7580
  663MOL0     O89394   4.654   0.987  -1.126  0.3970  0.3993  0.2072
  663MOL0     C89395   4.621   0.896  -1.218  0.8978  0.4800  0.8178
  663MOL0     C89396   4.565   0.915  -1.347 -0.0096 -0.2569 -0.0819
  663MOL0     C89397   4.533   0.811  -1.435 -0.5310  0.8726  0.5363
  663MOL0     C89398   4.567   0.681  -1.396 -0.6927 -1.3176 -0.3488
  663MOL0     C89399   4.534   0.569  -1.485  0.7995  0.0573 -0.1366
  663MOL0     O89400   4.628   0.467  -1.492  0.0301  1.1840  0.3246
  663MOL0     C89401   4.603   0.368  -1.590  0.5176 -0.4542  0.6133
  663MOL0     C89402   4.595   0.236  -1.556  0.1583  0.1763 -0.1795
  663MOL0     C89403   4.587   0.147  -1.658 -0.7098  1.2933  0.3954
  663MOL0     C89404   4.582   0.182  -1.800 -0.0470  0.6669  0.0798
  663MOL0     O89405   4.556   0.082  -1.890  0.1730 -0.0899 -0.5733
  663MOL0     C89406   4.503   0.124  -2.020  0.1571  0.2196 -0.2920
  663MOL0     C89407   4.624   0.120  -2.121  0.5346  0.3681  0.1183
  663MOL0     C89408   4.589   0.147  -2.264 -0.0615 -0.2558  0.3300
  663MOL0     C89409   4.525   0.013  -2.332 -0.6530 -0.4320 -0.7125
  663MOL0     C89410   4.545   0.013  -2.482 -0.6742 -0.5450  0.6408
  663MOL0     C89411   4.459   0.107  -2.570 -0.0540  0.2189 -0.3611
  663MOL0     C89412   4.536   0.122  -2.707  0.2464  0.2730 -0.0770
  663MOL0     C89413   4.479   0.242  -2.782 -0.4615 -1.1417  0.2605
  663MOL0    Cl89414   4.321   0.199  -2.854  0.1549  0.0410 -0.0414
  663MOL0     C89415   4.592   0.316  -1.831 -0.5661 -0.5835  0.9273
  663MOL0     C89416   4.617   0.404  -1.728 -0.1414 -0.2246 -0.2884
  663MOL0     O89417   4.418   0.578  -1.536 -0.2376  0.3860 -0.0009
  663MOL0     C89418   4.637   0.656  -1.274 -0.9898  0.4918 -1.3008
  663MOL0     C89419   4.648   0.761  -1.182  0.4830  1.3362  0.8102
  663MOL0     N89420   4.270   0.992  -0.545  0.1832 -0.5085 -0.2187
  663MOL0     N89421   4.261   0.999  -0.419 -0.3421  1.1390 -0.2286
  663MOL0     C89422   4.204   1.398   0.654 -0.5053 -0.4781 -0.1983
  663MOL0     C89423   4.167   1.480   0.762 -0.3235  0.9140  0.0904
  663MOL0     C89424   3.871   1.605   1.117  0.7391 -0.0636 -0.2338
  663MOL0     C89425   3.837   1.731   1.055 -0.6376 -0.1638  0.1738
  663MOL0     C89426   3.772   1.825   1.136  0.4139 -1.1909  0.5442
  663MOL0     C89427   3.727   1.790   1.266  0.2594  0.2808 -0.3033
  663MOL0     O89428   3.641   1.872   1.343 -0.1244  0.8590 -0.6135
  663MOL0     C89429   3.646   2.018   1.320 -0.7009  0.6057  0.8833
  663MOL0     C89430   3.542   2.091   1.402 -0.8440 -0.6309 -0.2720
  663MOL0     C89431   3.398   2.059   1.358  0.1240 -0.3695 -0.2444
  663MOL0     C89432   3.295   2.147   1.431  0.7243  0.0445 -0.5213
  663MOL0     C89433   3.155   2.113   1.410 -0.7897 -0.3433 -1.1260
  663MOL0     C89434   3.040   2.077   1.392 -0.1164 -0.5002  0.0411
  663MOL0     C89435   3.762   1.668   1.320 -0.0391  0.2013 -0.1156
  663MOL0     C89436   3.839   1.574   1.252  0.0935  0.5133 -0.1733
  663MOL0     C89437   3.883   1.441   1.317  0.7056  0.2298 -0.4892
  663MOL0     H89438   3.955   1.248   0.902 -0.5941  1.9824  1.7599
  663MOL0     H89439   4.023   1.116   0.710 -0.6537 -0.4179 -2.3148
  663MOL0     H89440   4.385   1.200   0.518 -0.9373 -0.2320 -1.9767
  663MOL0     H89441   4.308   1.086   0.622 -0.3806 -0.2540  0.4455
  663MOL0     H89442   4.260   0.943   0.409 -0.3632 -0.1614 -0.6014
  663MOL0     H89443   4.432   1.004   0.403  0.0835 -0.1212 -2.6187
  663MOL0     H89444   4.403   1.181   0.272 -1.0732  0.6546  2.1821
  663MOL0     H89445   4.228   1.160   0.264 -2.0215 -3.5130  0.1680
  663MOL0     H89446   4.404   0.924   0.173  0.0561 -1.0240 -0.8528
  663MOL0     H89447   4.235   0.939   0.176  2.0030 -3.0868  0.2265
  663MOL0     H89448   4.243   1.164   0.050 -0.5223 -0.2099 -1.0385
  663MOL0     H89449   4.409   1.115   0.007 -0.1155  0.0309  0.0427
  663MOL0     H89450   4.161   0.981  -0.089  0.0760 -0.9058 -1.9629
  663MOL0     H89451   4.281   1.073  -0.174  0.9529  0.4012  0.7383
  663MOL0     H89452   4.327   0.791  -0.046 -0.6526 -3.9817 -2.9489
  663MOL0     H89453   4.458   0.885  -0.123  0.0401  0.4581 -1.5551
  663MOL0     H89454   4.348   0.711  -0.257 -3.1817 -1.7284  0.2999
  663MOL0     H89455   4.187   0.794  -0.243  0.0160 -0.9453 -0.0272
  663MOL0     H89456   4.435   0.726  -0.484  0.1422  0.4441  0.7920
  663MOL0     H89457   4.422   0.756  -0.753 -1.1008 -0.1600 -1.5356
  663MOL0     H89458   4.256   0.815  -0.779 -0.4013  1.8035 -0.0485
  663MOL0     H89459   4.328   1.009  -0.858  0.6428 -0.0081 -1.5821
  663MOL0     H89460   4.474   1.031  -0.766 -2.2771  3.8984 -2.0094
  663MOL0     H89461   4.469   0.832  -0.998  1.0487 -0.1193 -1.7227
  663MOL0     H89462   4.596   0.874  -0.888  0.9914  2.7096  0.5958
  663MOL0     H89463   4.567   1.115  -0.998  1.0390 -1.1922  0.6020
  663MOL0     H89464   4.457   1.029  -1.117 -0.5701 -2.0942  0.1029
  663MOL0     H89465   4.546   1.016  -1.382 -1.5445 -0.0651  1.2325
  663MOL0     H89466   4.489   0.834  -1.532  4.5839  0.7375 -2.1506
  663MOL0     H89467   4.577   0.207  -1.453  0.8599 -0.1415 -0.1417
  663MOL0     H89468   4.577   0.040  -1.647 -3.4563  1.0003 -3.2917
  663MOL0     H89469   4.436   0.046  -2.060  1.5589 -2.8982  2.8726
  663MOL0     H89470   4.448   0.218  -2.031  0.7852  0.4522 -1.7469
  663MOL0     H89471   4.685   0.202  -2.083 -0.2084  1.4463 -0.9587
  663MOL0     H89472   4.669   0.020  -2.118 -0.0126  0.0830 -0.8567
  663MOL0     H89473   4.511   0.222  -2.278 -1.1243 -1.5841 -1.1149
  663MOL0     H89474   4.682   0.176  -2.316 -0.6294  0.0161 -0.5652
  663MOL0     H89475   4.419   0.005  -2.306 -0.0013 -3.4983  1.5812
  663MOL0     H89476   4.584  -0.073  -2.298 -1.4875 -1.3032 -1.4216
  663MOL0     H89477   4.527  -0.092  -2.509  1.4679 -1.1817  1.5430
  663MOL0     H89478   4.650   0.036  -2.500 -0.9567 -0.0028 -0.4398
  663MOL0     H89479   4.353   0.081  -2.575  0.0802 -0.4390  0.1062
  663MOL0     H89480   4.455   0.206  -2.523 -0.7294  1.0528 -2.0967
  663MOL0     H89481   4.531   0.026  -2.758  2.3814  0.2866 -0.4364
  663MOL0     H89482   4.641   0.152  -2.695 -0.2166  1.4812  1.1778
  663MOL0     H89483   4.482   0.322  -2.708  1.8914 -2.3825  1.6402
  663MOL0     H89484   4.553   0.265  -2.860 -2.0379  1.8407 -0.5031
  663MOL0     H89485   4.584   0.351  -1.933 -1.3072  2.6682  1.9976
  663MOL0     H89486   4.637   0.504  -1.765  0.5424 -1.0513 -2.2822
  663MOL0     H89487   4.663   0.554  -1.247 -2.7723  0.0857 -0.9532
  663MOL0     H89488   4.698   0.745  -1.087 -1.4209  1.2994  1.8402
  663MOL0     H89489   4.276   1.431   0.580 -1.9714 -0.6153 -1.7281
  663MOL0     H89490   4.210   1.578   0.776 -0.1715  0.4395  3.8104
  663MOL0     H89491   3.843   1.751   0.948 -0.6673  1.9069  0.5104
  663MOL0     H89492   3.728   1.910   1.084  0.5837 -1.1308  0.5004
  663MOL0     H89493   3.620   2.030   1.215  2.1765 -0.9234 -0.0925
  663MOL0     H89494   3.746   2.055   1.343  0.9988 -0.8077 -3.4052
  663MOL0     H89495   3.558   2.198   1.387  0.8283 -0.8474 -0.1983
  663MOL0     H89496   3.552   2.055   1.505 -3.3410 -1.3619 -0.2157
  663MOL0     H89497   3.380   1.962   1.403  0.7482  0.6891  2.4480
  663MOL0     H89498   3.385   2.067   1.249  1.2860  2.1334 -0.2885
  663MOL0     H89499   3.319   2.128   1.536 -0.2398  1.1977 -0.0735
  663MOL0     H89500   3.296   2.256   1.423  1.6848  0.3059  2.1006
  663MOL0     H89501   2.937   2.057   1.370 -0.2560  0.2351 -0.0198
  663MOL0     H89502   3.724   1.667   1.421  2.2436  1.8800  0.8412
  663MOL0     H89503   3.992   1.441   1.329  0.5287  0.8359  1.5583
  663MOL0     H89504   3.837   1.424   1.415 -0.1639  1.5023 -0.6542
  663MOL0     H89505   3.870   1.358   1.247  1.2471  1.7535 -2.4782
  664MOL0     O89506   5.359   6.368   4.458 -0.6842  0.2570  0.5465
  664MOL0     C89507   5.316   6.267   4.522  0.0293 -0.2349  0.0744
  664MOL0     O89508   5.291   6.146   4.472 -0.6127  0.5033 -0.0517
  664MOL0     C89509   5.346   6.119   4.347 -0.0271 -0.1333  0.4847
  664MOL0     C89510   5.457   6.041   4.352 -0.2520 -0.2335  1.1640
  664MOL0     C89511   5.509   6.011   4.228 -0.7335 -0.3746  0.3493
  664MOL0     C89512   5.450   6.044   4.112  1.1941  0.4929  0.6613
  664MOL0     O89513   5.520   6.022   3.997 -0.6808 -0.3636 -0.5937
  664MOL0     C89514   5.455   5.998   3.875 -0.2198  0.4507  0.3427
  664MOL0     C89515   5.559   5.944   3.773  0.1847 -0.4399 -0.0753
  664MOL0     C89516   5.654   6.058   3.726  0.0348 -0.5094  0.4637
  664MOL0     C89517   5.743   5.989   3.618  0.0049  0.0264  0.3404
  664MOL0     C89518   5.867   6.077   3.578 -1.0661 -0.9080 -0.0997
  664MOL0     C89519   5.960   5.989   3.497 -0.5158 -1.1751  0.5117
  664MOL0     C89520   6.112   6.031   3.505  0.7136  0.2738 -0.7472
  664MOL0     C89521   6.187   5.930   3.596  0.5328  0.1435  0.3794
  664MOL0     N89522   6.172   5.925   3.743 -0.1382 -0.2888 -0.2796
  664MOL0     C89523   6.073   5.865   3.811 -0.4547 -0.2200  0.6876
  664MOL0     C89524   6.079   5.916   3.935  0.0208  0.5198  1.0085
  664MOL0     C89525   6.001   5.886   4.060  1.2512 -0.1403 -0.6886
  664MOL0     C89526   5.865   5.950   4.064 -0.2756  0.4195 -0.5719
  664MOL0     C89527   5.868   6.101   4.044  0.9242 -0.0828 -0.1395
  664MOL0     C89528   5.969   6.173   4.138  0.2836  0.0579 -0.0848
  664MOL0     O89529   5.922   6.309   4.137 -0.2383 -0.0410 -0.0343
  664MOL0     C89530   5.854   6.373   4.241 -0.8892 -0.4916  0.0640
  664MOL0     C89531   5.786   6.296   4.335 -0.0750 -0.0057 -0.0040
  664MOL0     C89532   5.714   6.360   4.435  0.2191  0.4403  0.2119
  664MOL0     C89533   5.710   6.493   4.453 -0.0080 -1.1352 -1.1267
  664MOL0     C89534   5.651   6.565   4.566 -0.3261  0.8785  0.6571
  664MOL0     O89535   5.587   6.690   4.533 -0.2421 -0.3364 -0.4984
  664MOL0     C89536   5.535   6.757   4.644 -0.2582 -0.1989 -0.4446
  664MOL0     C89537   5.610   6.784   4.763 -0.1615  1.1068 -0.7698
  664MOL0     C89538   5.541   6.845   4.855  1.0499  0.0292 -0.6139
  664MOL0     C89539   5.401   6.898   4.845 -0.2411 -0.3977  0.4639
  664MOL0     O89540   5.348   6.962   4.952  0.6677 -0.1333 -0.8385
  664MOL0     C89541   5.206   7.004   4.952 -0.7540 -0.7412  0.2468
  664MOL0     C89542   5.118   6.885   4.985 -0.4102 -0.2777 -0.2118
  664MOL0     C89543   4.972   6.926   5.008  0.8070 -0.4152 -0.0290
  664MOL0     C89544   4.904   6.988   4.885  0.3189  0.1531 -0.5621
  664MOL0     C89545   4.761   7.056   4.910 -0.4423 -0.2112 -0.4121
  664MOL0     C89546   4.784   7.185   4.994 -0.5385 -0.4261 -0.3720
  664MOL0     C89547   4.648   7.252   5.027  0.1017 -0.2737 -0.3972
  664MOL0     C89548   4.670   7.399   5.078 -1.3117 -0.5997  0.7945
  664MOL0    Cl89549   4.503   7.466   5.126  0.2980  0.2161 -0.4702
  664MOL0     C89550   5.338   6.877   4.732 -0.0089 -0.0626 -0.3798
  664MOL0     C89551   5.401   6.807   4.629 -0.6138 -0.0085  0.4834
  664MOL0     O89552   5.646   6.515   4.676 -0.1491  0.1516 -0.4563
  664MOL0     C89553   5.766   6.568   4.351 -0.2912 -0.7134 -0.0534
  664MOL0     C89554   5.835   6.510   4.239  0.3497 -0.4033 -0.4375
  664MOL0     N89555   6.192   5.990   3.957  0.4994  0.1465  1.0464
  664MOL0     N89556   6.247   5.995   3.840  0.1933 -0.0737 -0.4451
  664MOL0     C89557   5.325   6.115   4.110  0.1743 -0.4024  0.3909
  664MOL0     C89558   5.269   6.144   4.235 -0.0847 -0.3658  0.8790
  664MOL0     C89559   5.279   6.289   4.660 -0.6468 -0.5743  0.1640
  664MOL0     C89560   5.244   6.426   4.698 -0.4040 -0.3576  1.6321
  664MOL0     C89561   5.206   6.458   4.824 -0.3147 -0.2804 -0.0580
  664MOL0     C89562   5.167   6.365   4.918 -0.1399  0.6640  0.5636
  664MOL0     O89563   5.105   6.417   5.038  0.3779 -0.1907 -0.0140
  664MOL0     C89564   5.047   6.335   5.141 -0.8046 -0.2613  0.4589
  664MOL0     C89565   4.949   6.423   5.223  0.2835 -0.3835 -0.9976
  664MOL0     C89566   4.810   6.412   5.166 -0.6570 -0.6394  0.7587
  664MOL0     C89567   4.798   6.490   5.034 -0.4959 -0.4075  0.0715
  664MOL0     C89568   4.660   6.463   4.981 -0.5636 -0.2440  0.5664
  664MOL0     C89569   4.558   6.438   4.914 -0.1670 -0.5653 -0.0306
  664MOL0     C89570   5.200   6.232   4.891  1.4923  1.0492 -0.0933
  664MOL0     C89571   5.247   6.194   4.761  0.0872 -0.0728  0.5364
  664MOL0     C89572   5.261   6.048   4.730 -0.2832  0.1178  0.7608
  664MOL0     H89573   5.506   6.020   4.446 -0.2062 -1.5895  0.8612
  664MOL0     H89574   5.610   5.975   4.211 -1.8054 -2.6862 -1.6573
  664MOL0     H89575   5.382   5.917   3.884 -0.5826  0.7289 -0.0314
  664MOL0     H89576   5.391   6.078   3.837 -1.6852 -1.6699 -1.9079
  664MOL0     H89577   5.508   5.901   3.686  1.0620 -2.0352  0.1595
  664MOL0     H89578   5.617   5.856   3.805  0.2849 -0.6055 -0.6937
  664MOL0     H89579   5.715   6.104   3.804 -0.8207  1.8645 -0.1969
  664MOL0     H89580   5.597   6.137   3.676  3.7117  1.2461 -1.3014
  664MOL0     H89581   5.783   5.896   3.659  1.3728  0.0081 -0.9085
  664MOL0     H89582   5.687   5.958   3.529  3.2873  0.0714 -1.9628
  664MOL0     H89583   5.831   6.153   3.508  0.2485 -2.4697 -2.6548
  664MOL0     H89584   5.921   6.124   3.660  1.6850 -1.9838 -1.1638
  664MOL0     H89585   5.958   5.884   3.526  1.4453 -1.5410 -0.4958
  664MOL0     H89586   5.924   6.011   3.395  1.5455 -0.6071 -0.1329
  664MOL0     H89587   6.118   6.130   3.551 -1.0227  0.5332 -0.9913
  664MOL0     H89588   6.138   6.032   3.399  1.2850 -2.0483 -0.6964
  664MOL0     H89589   6.163   5.828   3.562  2.3395 -0.6771  1.4131
  664MOL0     H89590   6.294   5.945   3.582  0.6223 -1.2214 -0.5473
  664MOL0     H89591   6.000   5.803   3.760 -1.8743  2.2023 -0.4140
  664MOL0     H89592   5.993   5.779   4.078 -1.9627 -0.3554 -2.5455
  664MOL0     H89593   6.052   5.922   4.150  1.8232 -0.1251 -1.0151
  664MOL0     H89594   5.802   5.909   3.985 -0.0727  1.3134 -1.2169
  664MOL0     H89595   5.818   5.933   4.161 -2.2394 -0.8722 -1.6936
  664MOL0     H89596   5.768   6.134   4.074  1.2479  0.8852 -0.0741
  664MOL0     H89597   5.882   6.137   3.942 -0.8802  2.3147  0.3627
  664MOL0     H89598   6.069   6.168   4.096  0.7756  1.6367  0.8154
  664MOL0     H89599   5.985   6.114   4.229  2.4388  0.5724 -0.0913
  664MOL0     H89600   5.803   6.189   4.338  2.9924  0.3934  1.9004
  664MOL0     H89601   5.673   6.301   4.517 -0.3509 -1.2961 -1.2603
  664MOL0     H89602   5.711   6.754   4.789 -1.1773  0.7223  3.6175
  664MOL0     H89603   5.586   6.865   4.951 -1.3909 -1.5426  0.9811
  664MOL0     H89604   5.204   7.082   5.029 -0.4881  0.0819 -0.5611
  664MOL0     H89605   5.179   7.046   4.855 -0.3430  0.0177  0.4502
  664MOL0     H89606   5.125   6.808   4.907  2.0337  0.1579 -0.4972
  664MOL0     H89607   5.158   6.842   5.077  0.9838  0.9226 -0.2332
  664MOL0     H89608   4.918   6.842   5.053  2.3943 -1.5253 -0.1278
  664MOL0     H89609   4.977   7.002   5.086  1.5727 -0.7150  0.2201
  664MOL0     H89610   4.894   6.905   4.815  0.5880 -1.8474  1.6307
  664MOL0     H89611   4.969   7.061   4.836 -1.9103  1.2339 -2.0717
  664MOL0     H89612   4.705   6.991   4.977 -0.7804  4.6318  4.6425
  664MOL0     H89613   4.715   7.073   4.812 -1.5128  0.0016  0.1219
  664MOL0     H89614   4.823   7.166   5.095 -2.5612  1.5119  0.8823
  664MOL0     H89615   4.850   7.255   4.942 -0.4121  0.2232  0.6319
  664MOL0     H89616   4.599   7.192   5.104  0.2889  3.1248  2.6197
  664MOL0     H89617   4.592   7.262   4.934  1.5267  0.2549 -1.2314
  664MOL0     H89618   4.740   7.389   5.161 -0.2947 -2.3449 -0.2196
  664MOL0     H89619   4.715   7.456   4.996 -0.4771 -2.4032 -0.0423
  664MOL0     H89620   5.237   6.911   4.714 -0.0651 -1.1173 -2.4570
  664MOL0     H89621   5.336   6.788   4.544  0.7311  0.7026 -0.7402
  664MOL0     H89622   5.741   6.673   4.347 -0.3674 -0.7443 -0.3590
  664MOL0     H89623   5.872   6.567   4.155 -2.0372  0.5511 -0.9161
  664MOL0     H89624   5.282   6.160   4.021  0.3106  1.4615  1.2191
  664MOL0     H89625   5.171   6.191   4.243 -1.0448 -1.9067 -1.0337
  664MOL0     H89626   5.279   6.506   4.634 -3.1534  2.9237  3.8986
  664MOL0     H89627   5.188   6.563   4.843 -0.6287 -0.2099 -0.7377
  664MOL0     H89628   5.130   6.316   5.210 -1.1129 -0.8524  0.6757
  664MOL0     H89629   5.006   6.243   5.099  2.4306 -2.1626  1.0939
  664MOL0     H89630   4.983   6.527   5.217 -0.2181 -0.2756 -2.3881
  664MOL0     H89631   4.947   6.395   5.329  3.2597 -3.8279 -1.6836
  664MOL0     H89632   4.741   6.458   5.238 -0.7766 -0.1693  0.3506
  664MOL0     H89633   4.778   6.309   5.149 -0.8478 -0.4573 -0.0474
  664MOL0     H89634   4.819   6.596   5.049 -4.0580  0.3624  0.6017
  664MOL0     H89635   4.873   6.443   4.970 -2.8309 -2.0517 -1.6369
  664MOL0     H89636   4.473   6.400   4.861  0.2717 -0.9925 -0.4330
  664MOL0     H89637   5.166   6.162   4.967  1.6615  0.2534 -0.7328
  664MOL0     H89638   5.344   6.025   4.662 -1.4792 -0.4586 -0.5454
  664MOL0     H89639   5.296   5.998   4.821  2.9173 -1.6482 -1.2534
  664MOL0     H89640   5.175   5.994   4.690  0.0319  0.1389  0.0285
  665MOL0     O89641   6.786   3.196   7.842 -0.7321  0.0744  0.5927
  665MOL0     C89642   6.907   3.235   7.832  0.4294  0.4699 -0.5498
  665MOL0     O89643   7.015   3.154   7.857 -1.1867 -0.5664  0.4170
  665MOL0     C89644   6.991   3.019   7.862  0.5083  0.0002 -0.1438
  665MOL0     C89645   6.956   2.946   7.980  0.2481 -0.1761 -0.2469
  665MOL0     C89646   6.938   2.810   7.968  0.3585 -0.8285 -0.0660
  665MOL0     C89647   6.952   2.740   7.846 -0.2765 -0.1335 -0.3127
  665MOL0     O89648   6.940   2.604   7.835  0.1444 -0.4401 -0.2094
  665MOL0     C89649   7.013   2.527   7.946 -0.0301 -0.8777  0.5595
  665MOL0     C89650   7.169   2.545   7.930 -0.4822 -0.0891 -0.1968
  665MOL0     C89651   7.205   2.516   7.787 -0.5454 -0.4132  0.8767
  665MOL0     C89652   7.352   2.537   7.764  0.0735  0.1159  0.5719
  665MOL0     C89653   7.396   2.692   7.771 -0.7521 -0.0008  0.4325
  665MOL0     C89654   7.536   2.713   7.697  0.5313  0.1539  0.2157
  665MOL0     C89655   7.652   2.688   7.790 -0.3312  0.0794  0.0075
  665MOL0     C89656   7.773   2.679   7.693 -0.8182  0.1017 -0.5093
  665MOL0     N89657   7.900   2.664   7.773 -0.7392 -0.0849  0.0203
  665MOL0     C89658   7.947   2.548   7.823  0.0013 -0.0717 -0.4006
  665MOL0     C89659   8.044   2.585   7.911  0.5238 -0.4136  0.6535
  665MOL0     C89660   8.152   2.507   7.982  1.0930  0.8237  0.5666
  665MOL0     C89661   8.198   2.574   8.115 -0.7879 -0.0388  0.8022
  665MOL0     C89662   8.253   2.478   8.219  0.1209 -0.2877 -0.0301
  665MOL0     C89663   8.137   2.404   8.301  0.0587 -0.1021  0.1329
  665MOL0     O89664   8.064   2.512   8.367 -0.0733 -0.0887 -0.0058
  665MOL0     C89665   8.079   2.528   8.503  0.8623 -0.5432 -0.3552
  665MOL0     C89666   8.125   2.429   8.599  0.4419  0.0002  0.8678
  665MOL0     C89667   8.139   2.457   8.732 -0.7160 -0.7060 -0.0980
  665MOL0     C89668   8.097   2.585   8.788 -0.6305 -0.1927 -0.3379
  665MOL0     C89669   8.116   2.623   8.927 -0.4896 -0.4286  0.5027
  665MOL0     O89670   8.109   2.521   9.016  0.3756  0.8091 -0.3783
  665MOL0     C89671   8.151   2.521   9.147 -0.0538 -0.7238 -0.6409
  665MOL0     C89672   8.072   2.432   9.216  0.3577  0.6008  0.2452
  665MOL0     C89673   8.068   2.439   9.355 -0.5626 -0.7343 -0.5894
  665MOL0     C89674   8.172   2.499   9.424 -0.4776  1.0363 -0.1684
  665MOL0     O89675   8.181   2.494   9.567 -0.1878 -0.1065  0.3235
  665MOL0     C89676   8.096   2.597   9.633 -0.5058  1.1674 -0.2900
  665MOL0     C89677   8.106   2.558   9.791 -0.3304  0.3262 -0.5505
  665MOL0     C89678   7.982   2.583   9.880  0.5060 -0.3507  1.2182
  665MOL0     C89679   8.015   2.575  10.033  1.0748  0.8274  0.5017
  665MOL0     C89680   8.049   2.707  10.119 -0.3441  0.1237  1.3084
  665MOL0     C89681   8.157   2.793  10.051  0.9385 -0.1007  0.4473
  665MOL0     C89682   8.169   2.932  10.126 -0.1048  0.7059  0.1363
  665MOL0     C89683   8.297   3.012  10.118 -0.2748  0.4249 -0.5837
  665MOL0    Cl89684   8.312   3.050   9.945 -0.1791 -0.8159  0.0958
  665MOL0     C89685   8.266   2.576   9.353  0.5612 -0.8418 -1.3718
  665MOL0     C89686   8.256   2.589   9.212  0.2347  0.2651 -0.9053
  665MOL0     O89687   8.141   2.742   8.962 -0.1196  0.6649 -0.5392
  665MOL0     C89688   8.047   2.676   8.698  0.2858 -0.3047 -0.8249
  665MOL0     C89689   8.040   2.652   8.563 -0.0290 -0.1821  0.1255
  665MOL0     N89690   8.047   2.725   7.914 -0.0474  0.1457 -0.4892
  665MOL0     N89691   7.966   2.771   7.830 -0.8044 -0.2992 -1.1172
  665MOL0     C89692   6.993   2.810   7.733  0.0634 -0.4015 -0.6399
  665MOL0     C89693   7.008   2.953   7.741 -0.5501  0.0092 -0.2408
  665MOL0     C89694   6.931   3.367   7.766 -1.0921 -0.3219  0.3729
  665MOL0     C89695   6.856   3.408   7.654  0.2256  0.2738  0.3046
  665MOL0     C89696   6.898   3.523   7.580  0.0171 -0.0085 -0.0768
  665MOL0     C89697   7.018   3.597   7.609 -0.1611  1.0109 -0.5671
  665MOL0     O89698   7.045   3.693   7.521 -0.1493  0.3472  0.1836
  665MOL0     C89699   7.169   3.760   7.543 -0.2701  0.2616 -1.0810
  665MOL0     C89700   7.287   3.709   7.460 -0.2036 -0.2515  0.1069
  665MOL0     C89701   7.384   3.825   7.429  0.7847  0.2709 -0.4206
  665MOL0     C89702   7.533   3.791   7.414 -0.2782 -0.3898  0.0525
  665MOL0     C89703   7.614   3.877   7.321 -0.9678 -0.0064 -0.3033
  665MOL0     C89704   7.688   3.955   7.257 -0.1864  0.3055  0.1357
  665MOL0     C89705   7.093   3.543   7.709 -0.4887  0.2530 -0.2079
  665MOL0     C89706   7.053   3.446   7.798  0.5176  0.7017  0.5970
  665MOL0     C89707   7.160   3.405   7.901  0.4178  0.0199 -0.8547
  665MOL0     H89708   6.943   3.002   8.071 -1.3698 -0.4651 -0.2831
  665MOL0     H89709   6.894   2.758   8.053 -2.2286 -0.5389 -1.1379
  665MOL0     H89710   6.978   2.563   8.044  0.3573  0.6805  0.1568
  665MOL0     H89711   6.988   2.421   7.936 -2.9543 -0.1596 -1.0003
  665MOL0     H89712   7.217   2.478   8.002  0.5954 -4.5068 -4.5261
  665MOL0     H89713   7.201   2.648   7.947  2.8323 -1.1199  0.5340
  665MOL0     H89714   7.154   2.592   7.726  0.8849 -0.1174 -0.0056
  665MOL0     H89715   7.181   2.422   7.736 -0.1485  0.2406 -0.5795
  665MOL0     H89716   7.408   2.473   7.833  1.3197 -0.9771 -1.3771
  665MOL0     H89717   7.379   2.503   7.664  1.3826  0.1812  0.8853
  665MOL0     H89718   7.315   2.755   7.732 -0.1117  1.4630  1.3700
  665MOL0     H89719   7.395   2.704   7.880 -1.1500 -1.4817  0.6096
  665MOL0     H89720   7.548   2.638   7.618  0.0721 -0.3171  0.5908
  665MOL0     H89721   7.550   2.814   7.656  3.2272  0.8358  2.4948
  665MOL0     H89722   7.632   2.592   7.839 -3.1739  1.8235  2.6611
  665MOL0     H89723   7.654   2.776   7.855  1.2994 -0.6183  0.9666
  665MOL0     H89724   7.770   2.591   7.627 -1.5030  0.0685 -0.4433
  665MOL0     H89725   7.779   2.759   7.619  1.2388 -2.1679 -3.0003
  665MOL0     H89726   7.924   2.447   7.790  1.9738  0.5818 -4.4278
  665MOL0     H89727   8.118   2.408   8.014  1.7977  0.5800  0.5623
  665MOL0     H89728   8.245   2.486   7.929 -0.7587 -0.8433 -2.3201
  665MOL0     H89729   8.266   2.653   8.081  0.0930 -1.2228 -0.2582
  665MOL0     H89730   8.111   2.628   8.154 -1.0636  0.7668 -0.8370
  665MOL0     H89731   8.312   2.537   8.290  0.3340 -1.9215  1.2096
  665MOL0     H89732   8.326   2.414   8.169  0.8998  0.3932  0.2113
  665MOL0     H89733   8.190   2.340   8.372 -1.8286  0.7350  2.4159
  665MOL0     H89734   8.081   2.342   8.230  2.1951 -0.0149 -1.7295
  665MOL0     H89735   8.148   2.328   8.566 -0.6319  0.1730 -0.5026
  665MOL0     H89736   8.184   2.385   8.799 -0.3326 -0.2841  0.1039
  665MOL0     H89737   7.983   2.386   9.176  0.3935  1.5662 -0.9985
  665MOL0     H89738   7.985   2.385   9.399 -1.7739  0.7046 -1.0112
  665MOL0     H89739   8.132   2.695   9.601 -0.6499  1.5332  0.6486
  665MOL0     H89740   7.999   2.571   9.589 -1.7823 -0.2107  3.0280
  665MOL0     H89741   8.131   2.452   9.800 -1.0949  0.0566 -1.4495
  665MOL0     H89742   8.191   2.609   9.836 -0.0746  0.3993 -1.1078
  665MOL0     H89743   7.936   2.682   9.871 -0.0719 -0.5365  2.0327
  665MOL0     H89744   7.901   2.519   9.845  0.7793 -0.5082  0.8655
  665MOL0     H89745   8.093   2.500  10.042  2.2697  2.0908  0.9395
  665MOL0     H89746   7.925   2.528  10.074  2.0806 -0.4350  1.3125
  665MOL0     H89747   8.065   2.670  10.220  0.2664  1.9949  1.9412
  665MOL0     H89748   7.964   2.773  10.138  0.0964  0.6438  1.4897
  665MOL0     H89749   8.255   2.743  10.050 -1.4990 -5.8697 -3.7239
  665MOL0     H89750   8.130   2.819   9.949 -0.0689 -1.2729  0.3958
  665MOL0     H89751   8.164   2.910  10.233  0.1655 -1.7803 -0.2996
  665MOL0     H89752   8.094   3.008  10.105  0.8352  1.5282 -0.2864
  665MOL0     H89753   8.289   3.097  10.186 -6.4106  0.2993 -0.6061
  665MOL0     H89754   8.375   2.940  10.145  0.4212  1.4582  0.1930
  665MOL0     H89755   8.347   2.616   9.413 -0.7744  0.3561 -0.2935
  665MOL0     H89756   8.309   2.660   9.151  0.8760  0.9125  0.3537
  665MOL0     H89757   8.022   2.776   8.730  2.2739  0.1395 -0.5197
  665MOL0     H89758   8.004   2.726   8.491  2.0088 -0.8494 -1.6874
  665MOL0     H89759   7.009   2.747   7.647  2.8256 -1.7401  0.7396
  665MOL0     H89760   7.035   3.010   7.653  0.1588 -2.5636 -1.8162
  665MOL0     H89761   6.765   3.354   7.627 -1.3702  2.0985  1.7698
  665MOL0     H89762   6.841   3.563   7.497 -0.8811 -0.4608  0.3022
  665MOL0     H89763   7.183   3.774   7.651 -2.6424  1.1586 -0.8254
  665MOL0     H89764   7.151   3.862   7.506  2.3167  1.0675 -0.3484
  665MOL0     H89765   7.250   3.669   7.365  1.7950 -0.6999 -0.5217
  665MOL0     H89766   7.337   3.628   7.514 -1.6215 -1.9160 -0.9526
  665MOL0     H89767   7.382   3.902   7.506  0.5056  2.1650 -2.2253
  665MOL0     H89768   7.340   3.853   7.333 -1.8732 -2.4376 -0.1312
  665MOL0     H89769   7.571   3.761   7.512 -1.3874  1.0962  0.9634
  665MOL0     H89770   7.519   3.694   7.365  1.5530 -2.0857  2.6417
  665MOL0     H89771   7.766   4.016   7.216 -0.0825 -0.5618 -1.0109
  665MOL0     H89772   7.191   3.587   7.726 -0.5508  2.1020 -3.7563
  665MOL0     H89773   7.120   3.355   7.990  4.4060 -1.7503  0.1717
  665MOL0     H89774   7.224   3.331   7.853 -1.3982 -0.4504 -2.6965
  665MOL0     H89775   7.227   3.486   7.931  2.8418 -1.2298 -2.5795
  666MOL0     O89776   2.544   9.759   2.727  0.4667 -0.7983  0.1534
  666MOL0     C89777   2.446   9.691   2.748  0.5187  0.3789 -0.3100
  666MOL0     O89778   2.443   9.557   2.718  0.3309 -0.1437 -0.3002
  666MOL0     C89779   2.552   9.500   2.668 -0.3408  0.7838  0.2832
  666MOL0     C89780   2.569   9.464   2.533 -0.5107 -0.0710  0.3453
  666MOL0     C89781   2.684   9.387   2.495 -0.1269 -0.2438  0.0420
  666MOL0     C89782   2.777   9.358   2.591  0.3228 -0.2458 -0.2171
  666MOL0     O89783   2.894   9.307   2.557 -0.2088  0.4024  0.8806
  666MOL0     C89784   3.016   9.359   2.611 -0.2501 -0.1751  0.6122
  666MOL0     C89785   3.140   9.302   2.543 -0.1385  0.4052 -0.4006
  666MOL0     C89786   3.152   9.352   2.401 -0.1388 -0.3916  0.2605
  666MOL0     C89787   3.292   9.350   2.339 -0.8510 -0.0831  0.6920
  666MOL0     C89788   3.357   9.203   2.346  0.2991 -0.6409 -0.2338
  666MOL0     C89789   3.446   9.178   2.221 -0.0056 -0.6190  0.1520
  666MOL0     C89790   3.548   9.288   2.177 -0.4694 -0.6338 -0.4279
  666MOL0     C89791   3.614   9.241   2.055 -0.0046 -0.2589 -0.6301
  666MOL0     N89792   3.720   9.325   2.010 -0.1515 -0.0828 -0.4493
  666MOL0     C89793   3.703   9.461   1.959  0.0300  1.8216 -0.8802
  666MOL0     C89794   3.832   9.488   1.923  0.1971  0.7345  0.3129
  666MOL0     C89795   3.853   9.633   1.868 -0.3894  0.6263 -0.6868
  666MOL0     C89796   3.826   9.638   1.719  0.8569  0.8102  0.0289
  666MOL0     C89797   3.920   9.530   1.649 -0.8584  0.0929 -0.2532
  666MOL0     C89798   3.883   9.513   1.503 -0.1759 -0.0393  0.0293
  666MOL0     O89799   3.757   9.437   1.507  0.7459  0.4706 -0.0787
  666MOL0     C89800   3.686   9.420   1.392 -0.0208  0.3285 -0.0799
  666MOL0     C89801   3.731   9.422   1.261  0.2238  0.5935  0.9945
  666MOL0     C89802   3.644   9.386   1.159  0.1860  0.3641  0.4793
  666MOL0     C89803   3.509   9.371   1.185 -0.5277  0.2808 -0.4005
  666MOL0     C89804   3.411   9.345   1.075  0.5544  0.4613  0.9000
  666MOL0     O89805   3.449   9.328   0.956 -0.7783  0.3981  0.3075
  666MOL0     C89806   3.375   9.289   0.852 -0.0204 -0.3705  0.5073
  666MOL0     C89807   3.438   9.247   0.738  0.1529 -0.5263  0.1243
  666MOL0     C89808   3.369   9.210   0.616  0.8651  0.2096 -0.1167
  666MOL0     C89809   3.231   9.192   0.614  0.4741 -0.0642 -0.4587
  666MOL0     O89810   3.169   9.148   0.492 -0.2931 -0.8589 -0.4118
  666MOL0     C89811   3.028   9.143   0.484  0.7173  0.0247  0.5148
  666MOL0     C89812   2.972   9.095   0.346 -0.2014  0.4976  0.7783
  666MOL0     C89813   2.999   8.953   0.320 -1.4667 -0.4269  0.0275
  666MOL0     C89814   2.946   8.917   0.176 -0.1194  0.8205 -0.3332
  666MOL0     C89815   2.933   8.759   0.158 -0.5266  0.4187 -0.3279
  666MOL0     C89816   2.796   8.697   0.208 -0.5367 -0.4968  0.5268
  666MOL0     C89817   2.775   8.555   0.163 -0.4028  0.4072  0.5171
  666MOL0     C89818   2.833   8.478   0.281  0.7886  0.0413 -0.2106
  666MOL0    Cl89819   2.848   8.307   0.219 -0.0920 -0.0714 -0.0289
  666MOL0     C89820   3.168   9.216   0.734  0.5039 -0.3314 -0.0682
  666MOL0     C89821   3.234   9.265   0.847  0.0434  0.0002 -0.0214
  666MOL0     O89822   3.297   9.316   1.118 -0.2828  0.3305  0.3131
  666MOL0     C89823   3.464   9.387   1.314  0.1676 -0.1670 -0.9226
  666MOL0     C89824   3.551   9.393   1.423 -0.0632  0.5049  0.3376
  666MOL0     N89825   3.919   9.390   1.977 -0.5396 -0.2358  0.5943
  666MOL0     N89826   3.849   9.287   2.021  0.0199 -0.0430 -0.5036
  666MOL0     C89827   2.761   9.381   2.734 -0.2045 -0.7510  0.6696
  666MOL0     C89828   2.651   9.453   2.766  0.2931 -0.3684 -0.2453
  666MOL0     C89829   2.321   9.749   2.811 -0.7759 -0.4337  0.2748
  666MOL0     C89830   2.342   9.879   2.863  0.6800  1.0533  0.4786
  666MOL0     C89831   2.247   9.941   2.947 -0.1817  0.9016  0.1520
  666MOL0     C89832   2.129   9.867   2.968 -0.0362 -0.2780  0.8773
  666MOL0     O89833   2.037   9.933   3.051 -0.9325  1.0157  0.5078
  666MOL0     C89834   1.925   9.863   3.105 -0.4917  0.3692  0.4762
  666MOL0     C89835   1.900   9.930   3.233  0.1856 -0.7854  0.1714
  666MOL0     C89836   2.022   9.945   3.323 -0.3175  0.7445 -0.1497
  666MOL0     C89837   1.987  10.014   3.457 -1.1205 -0.4624  0.3530
  666MOL0     C89838   2.024   9.922   3.563  0.4791 -0.6554 -0.3535
  666MOL0     C89839   2.082   9.844   3.637  0.9408 -0.1959 -0.2566
  666MOL0     C89840   2.101   9.749   2.902  0.0112  0.4929 -0.5294
  666MOL0     C89841   2.195   9.690   2.818  0.6019 -0.4019  0.0274
  666MOL0     C89842   2.168   9.561   2.758 -0.5339 -0.5575  0.4943
  666MOL0     H89843   2.512   9.513   2.455 -2.9513 -2.7964  0.2796
  666MOL0     H89844   2.705   9.372   2.389  0.8445  0.6092  0.0959
  666MOL0     H89845   3.011   9.468   2.613 -0.4735 -0.1901  1.1137
  666MOL0     H89846   3.029   9.341   2.718  0.5748 -0.2993  0.5042
  666MOL0     H89847   3.132   9.194   2.558  0.9754  0.6163  2.3341
  666MOL0     H89848   3.222   9.334   2.608 -1.6329  2.2319  0.6622
  666MOL0     H89849   3.107   9.450   2.384 -0.9149 -0.7046  0.4538
  666MOL0     H89850   3.093   9.284   2.338  1.4069 -1.6276  0.0772
  666MOL0     H89851   3.292   9.387   2.236 -0.3802  0.6348  0.9383
  666MOL0     H89852   3.357   9.415   2.400  0.6240  0.8036 -1.6928
  666MOL0     H89853   3.411   9.189   2.441 -2.9594  0.4343  1.9596
  666MOL0     H89854   3.262   9.149   2.345 -2.0486  2.9824  1.5173
  666MOL0     H89855   3.504   9.090   2.250 -0.0659 -0.6335  0.2298
  666MOL0     H89856   3.381   9.154   2.137  0.6183 -0.9186 -0.2483
  666MOL0     H89857   3.620   9.306   2.257 -0.0871 -1.0880 -0.6661
  666MOL0     H89858   3.502   9.386   2.166  1.1285  0.4243  1.6612
  666MOL0     H89859   3.647   9.142   2.085 -0.5577  0.0877  1.2511
  666MOL0     H89860   3.535   9.233   1.979 -1.5117 -3.2033  1.0505
  666MOL0     H89861   3.625   9.534   1.939  2.5593  5.0770  0.2544
  666MOL0     H89862   3.788   9.701   1.924  1.2878  0.9431  0.9804
  666MOL0     H89863   3.958   9.659   1.878 -0.6373  2.0683 -1.5743
  666MOL0     H89864   3.719   9.624   1.699  0.5657  0.0519  1.8205
  666MOL0     H89865   3.849   9.734   1.673 -3.4999  1.1104 -2.0706
  666MOL0     H89866   3.923   9.428   1.688  0.8381  2.0414  5.8107
  666MOL0     H89867   4.021   9.567   1.663 -0.2822 -1.1560 -0.9655
  666MOL0     H89868   3.965   9.459   1.456  1.9717  1.5924  1.6524
  666MOL0     H89869   3.873   9.607   1.447 -1.4260 -0.1250  0.0887
  666MOL0     H89870   3.836   9.442   1.240  0.2894  0.0908  0.8262
  666MOL0     H89871   3.671   9.389   1.054 -2.2457  2.0994 -0.1898
  666MOL0     H89872   3.546   9.255   0.738  0.2010 -0.3772  3.0397
  666MOL0     H89873   3.430   9.200   0.526  2.4859 -2.2814  1.1236
  666MOL0     H89874   2.986   9.081   0.564  2.2512  2.3934  3.3401
  666MOL0     H89875   2.985   9.243   0.491  0.9321  0.1150  0.5257
  666MOL0     H89876   2.866   9.121   0.348 -0.1777  0.7380 -0.2502
  666MOL0     H89877   3.031   9.150   0.272  2.8763 -1.8180  1.3052
  666MOL0     H89878   3.106   8.933   0.328 -1.4208  0.2545  1.5856
  666MOL0     H89879   2.952   8.889   0.395  2.0406 -2.4426  0.7219
  666MOL0     H89880   3.012   8.947   0.094  1.6339 -1.3204  0.2183
  666MOL0     H89881   2.847   8.965   0.172 -0.3241  0.3851 -4.2346
  666MOL0     H89882   3.022   8.716   0.203 -0.7658 -2.7889 -2.6330
  666MOL0     H89883   2.938   8.716   0.058  0.6242 -0.0014 -0.0982
  666MOL0     H89884   2.792   8.695   0.317 -0.5387 -2.4333  0.5271
  666MOL0     H89885   2.720   8.764   0.166 -0.9329 -1.2159  0.0805
  666MOL0     H89886   2.829   8.524   0.073  0.3675 -1.2662  1.5206
  666MOL0     H89887   2.667   8.536   0.159  0.0450 -2.6176  0.6411
  666MOL0     H89888   2.933   8.512   0.308 -0.4750  2.9760  1.1937
  666MOL0     H89889   2.771   8.488   0.370  1.5011 -1.9290  0.5819
  666MOL0     H89890   3.061   9.201   0.722  0.4455  0.8651 -1.2866
  666MOL0     H89891   3.171   9.291   0.931  1.2664  1.2013  0.5618
  666MOL0     H89892   3.358   9.393   1.333  0.7107  1.9865  2.0510
  666MOL0     H89893   3.514   9.402   1.525  1.3744 -0.9536  1.0409
  666MOL0     H89894   2.839   9.357   2.805 -0.4769 -1.1882  0.8219
  666MOL0     H89895   2.623   9.459   2.870  0.8993 -0.1270 -0.0924
  666MOL0     H89896   2.431   9.939   2.847  0.4726  0.6349 -2.8236
  666MOL0     H89897   2.265  10.033   3.000  2.8447  1.7147 -2.0121
  666MOL0     H89898   1.949   9.758   3.124  3.4258  1.1469  0.6020
  666MOL0     H89899   1.839   9.856   3.038 -0.6798 -5.3411  0.8188
  666MOL0     H89900   1.821   9.867   3.275 -1.1753 -1.2381 -2.7988
  666MOL0     H89901   1.854  10.027   3.215  3.5950  1.1147  0.8335
  666MOL0     H89902   2.102  10.002   3.274 -1.4709  1.7025 -0.9722
  666MOL0     H89903   2.058   9.843   3.339 -1.4463  0.2714 -0.4998
  666MOL0     H89904   2.057  10.098   3.459 -0.2746 -1.1341 -0.2073
  666MOL0     H89905   1.882  10.045   3.463 -0.6738  1.4541 -0.7547
  666MOL0     H89906   2.129   9.774   3.703 -3.1997 -1.5533  1.6131
  666MOL0     H89907   2.013   9.691   2.929 -1.3713  3.5795  2.3756
  666MOL0     H89908   2.238   9.492   2.806  0.6299 -0.6981 -1.2793
  666MOL0     H89909   2.069   9.515   2.768 -1.1891  1.1015  2.0806
  666MOL0     H89910   2.190   9.577   2.652 -0.4022  1.4055  0.7791
  667MOL0     O89911   5.125   3.941   0.947  0.2973  0.0206 -0.0350
  667MOL0     C89912   5.131   3.978   1.064 -0.3482  0.0508  0.3189
  667MOL0     O89913   5.224   3.928   1.158  0.1478  0.4155  0.4544
  667MOL0     C89914   5.278   3.806   1.138  0.5696 -0.0844  0.1105
  667MOL0     C89915   5.199   3.690   1.153 -0.3586 -0.3170  0.8432
  667MOL0     C89916   5.269   3.564   1.148  0.1742  0.9222 -0.2150
  667MOL0     C89917   5.409   3.557   1.132 -0.3684 -0.1585  0.0203
  667MOL0     O89918   5.465   3.432   1.137 -0.6445 -0.2060  0.3055
  667MOL0     C89919   5.602   3.428   1.192  0.3936  0.3992 -0.6510
  667MOL0     C89920   5.627   3.286   1.249 -0.5303 -0.3824 -0.4052
  667MOL0     C89921   5.771   3.286   1.317  0.8688 -0.5095 -0.2325
  667MOL0     C89922   5.786   3.168   1.413  0.8778  0.4914 -0.3313
  667MOL0     C89923   5.919   3.179   1.489  0.4763 -0.2736  0.1752
  667MOL0     C89924   5.928   3.076   1.594  0.6187  0.3002 -0.2219
  667MOL0     C89925   6.072   3.043   1.603  0.3674  0.1810 -0.2331
  667MOL0     C89926   6.113   2.927   1.689 -0.4988 -0.2303 -0.0081
  667MOL0     N89927   6.122   2.952   1.833 -0.1215 -0.2418  0.8491
  667MOL0     C89928   6.026   2.921   1.924  0.4723  0.3386  0.4609
  667MOL0     C89929   6.082   2.936   2.045  0.2629 -0.4337 -0.3141
  667MOL0     C89930   6.031   2.928   2.192  0.7871 -0.3812  0.4783
  667MOL0     C89931   5.997   2.782   2.237 -0.2092 -1.0247  0.5459
  667MOL0     C89932   5.854   2.742   2.225 -0.2031  0.0342 -0.5808
  667MOL0     C89933   5.832   2.589   2.256 -0.0211 -0.0857  0.2164
  667MOL0     O89934   5.801   2.568   2.392  0.1511 -0.3010 -1.1609
  667MOL0     C89935   5.735   2.452   2.428  0.8043 -0.4174 -0.6122
  667MOL0     C89936   5.779   2.332   2.368  0.0116 -0.9826  1.0904
  667MOL0     C89937   5.698   2.223   2.386  0.1275 -0.6712  0.7993
  667MOL0     C89938   5.578   2.232   2.458  0.4688 -0.3742 -0.4545
  667MOL0     C89939   5.486   2.121   2.464  0.3144 -0.1499  0.1080
  667MOL0     O89940   5.526   2.002   2.421  0.0147 -0.4990 -0.0996
  667MOL0     C89941   5.440   1.912   2.363  0.9600 -1.2976 -0.2567
  667MOL0     C89942   5.304   1.926   2.320 -0.1280 -0.1628 -1.3162
  667MOL0     C89943   5.233   1.819   2.261 -0.4592 -0.6751 -0.5278
  667MOL0     C89944   5.288   1.694   2.249 -0.6544 -0.5030 -1.0114
  667MOL0     O89945   5.228   1.587   2.198 -0.1507 -0.2006  0.0593
  667MOL0     C89946   5.097   1.585   2.143 -0.0857  0.2185 -0.0470
  667MOL0     C89947   5.058   1.451   2.074 -0.3378 -0.2680  0.3317
  667MOL0     C89948   5.126   1.325   2.139  0.1687  0.5278  0.7416
  667MOL0     C89949   5.079   1.302   2.285 -0.9490  0.7851  1.1160
  667MOL0     C89950   5.111   1.161   2.332 -0.3408  0.5512  0.9876
  667MOL0     C89951   5.264   1.137   2.323 -0.2159 -0.0347  0.7523
  667MOL0     C89952   5.347   1.214   2.425 -0.4650  0.1905 -0.3842
  667MOL0     C89953   5.416   1.123   2.531  0.1951 -0.1421  0.2741
  667MOL0    Cl89954   5.315   1.095   2.674  0.0747 -0.4691 -0.4685
  667MOL0     C89955   5.430   1.686   2.266  0.3156 -0.6241  0.5384
  667MOL0     C89956   5.508   1.793   2.325  0.1511  0.6534  0.5838
  667MOL0     O89957   5.372   2.148   2.494  0.1662 -0.1329 -0.5851
  667MOL0     C89958   5.550   2.349   2.540  0.7211  0.7777  0.0223
  667MOL0     C89959   5.630   2.461   2.513  0.7454  0.0345 -0.2096
  667MOL0     N89960   6.214   2.966   2.037 -0.4074  0.4495  0.9454
  667MOL0     N89961   6.241   2.980   1.907  1.1210  0.5613 -0.5759
  667MOL0     C89962   5.476   3.685   1.105  0.6816  0.4637 -0.0821
  667MOL0     C89963   5.410   3.800   1.105  0.3866 -1.1975 -0.8257
  667MOL0     C89964   5.057   4.105   1.101  0.0312  0.0457  0.2977
  667MOL0     C89965   5.100   4.178   1.213  0.1856 -0.7400  1.1509
  667MOL0     C89966   5.029   4.292   1.253  0.8750 -0.6172  0.7823
  667MOL0     C89967   4.926   4.326   1.179 -0.6313 -0.7900  0.2366
  667MOL0     O89968   4.874   4.454   1.198 -0.5018 -0.7463 -0.1388
  667MOL0     C89969   4.803   4.518   1.090  0.3601  0.2981  0.4111
  667MOL0     C89970   4.653   4.524   1.109 -0.7598 -0.6068  0.7318
  667MOL0     C89971   4.623   4.594   1.247  1.3278  0.2400  0.1969
  667MOL0     C89972   4.476   4.643   1.266  0.1429 -0.9381 -0.7526
  667MOL0     C89973   4.443   4.656   1.405 -0.2309  0.5068  0.1428
  667MOL0     C89974   4.427   4.686   1.521 -0.1454  0.7652 -0.3038
  667MOL0     C89975   4.875   4.246   1.076 -0.9929  0.3811 -0.7434
  667MOL0     C89976   4.939   4.134   1.037 -0.1669  0.3712  0.0301
  667MOL0     C89977   4.876   4.070   0.918 -0.1447  0.6256 -0.2278
  667MOL0     H89978   5.098   3.708   1.189 -0.3379 -1.4073  1.4702
  667MOL0     H89979   5.211   3.473   1.161 -1.0555  1.8099  0.7966
  667MOL0     H89980   5.669   3.458   1.111 -0.0980  3.8262  0.0736
  667MOL0     H89981   5.595   3.498   1.276 -1.9515 -0.5184 -0.0020
  667MOL0     H89982   5.631   3.214   1.167 -3.5004  0.6702 -1.6154
  667MOL0     H89983   5.554   3.264   1.327 -1.6017  3.3661 -0.1484
  667MOL0     H89984   5.800   3.373   1.376  1.7809 -1.8890  1.4613
  667MOL0     H89985   5.843   3.275   1.235  1.0265  1.3750 -0.3740
  667MOL0     H89986   5.695   3.166   1.475  1.8046 -1.3436  1.0691
  667MOL0     H89987   5.784   3.071   1.363  4.0425  0.0846  0.1674
  667MOL0     H89988   5.987   3.186   1.404 -2.7882 -1.1289 -2.7562
  667MOL0     H89989   5.934   3.282   1.523 -3.6630  0.0964  1.5835
  667MOL0     H89990   5.878   3.113   1.683 -0.9569  3.2916 -2.2084
  667MOL0     H89991   5.872   2.987   1.562  1.6684 -0.7744  0.7938
  667MOL0     H89992   6.129   3.121   1.654 -2.0290  0.0078  3.0326
  667MOL0     H89993   6.104   3.035   1.499  0.5855  5.4404 -0.8552
  667MOL0     H89994   6.034   2.854   1.673  0.1851 -0.8492 -0.6425
  667MOL0     H89995   6.206   2.887   1.647  0.0543  0.7994  0.2066
  667MOL0     H89996   5.920   2.903   1.909  0.7933  0.5437 -3.0418
  667MOL0     H89997   6.093   2.984   2.263  1.0855  0.1487 -0.1945
  667MOL0     H89998   5.933   2.976   2.187 -0.1115 -1.9832  1.6581
  667MOL0     H89999   6.064   2.715   2.182 -0.9734 -1.0004 -0.4322
  667MOL0     H90000   6.007   2.776   2.346 -2.4412  1.8144  1.0076
  667MOL0     H90001   5.814   2.756   2.124 -3.1623 -1.6594  0.2204
  667MOL0     H90002   5.796   2.797   2.300 -1.4158 -2.7346  0.6306
  667MOL0     H90003   5.921   2.531   2.230  1.2354  0.1752  3.4609
  667MOL0     H90004   5.739   2.567   2.203 -1.3860  0.8607  2.1410
  667MOL0     H90005   5.869   2.327   2.308 -0.3990 -0.6629  0.4217
  667MOL0     H90006   5.715   2.132   2.330 -0.1107 -0.7239  0.8083
  667MOL0     H90007   5.247   2.017   2.334 -0.0041 -0.2716  0.0994
  667MOL0     H90008   5.140   1.847   2.212 -1.2434  2.6202  2.4314
  667MOL0     H90009   5.018   1.594   2.218 -2.3389 -1.8373 -1.9955
  667MOL0     H90010   5.080   1.671   2.078 -0.4387 -0.4632 -0.8736
  667MOL0     H90011   4.949   1.442   2.068 -0.3263  0.4843 -1.9273
  667MOL0     H90012   5.093   1.451   1.970  0.9966 -3.3308  0.6774
  667MOL0     H90013   5.099   1.240   2.076  4.2158 -0.7327  0.4168
  667MOL0     H90014   5.234   1.322   2.126 -0.1631 -0.6349 -3.0664
  667MOL0     H90015   4.977   1.339   2.302 -1.9116 -1.4178  0.5039
  667MOL0     H90016   5.145   1.366   2.344  1.9248  1.8708 -2.8991
  667MOL0     H90017   5.056   1.094   2.265  2.2789 -0.9830  0.2105
  667MOL0     H90018   5.073   1.141   2.432  2.0050  1.7406  2.1776
  667MOL0     H90019   5.276   1.031   2.352 -1.1075  0.1166  1.7455
  667MOL0     H90020   5.300   1.150   2.221 -0.0367 -0.9713  0.6809
  667MOL0     H90021   5.281   1.283   2.479 -0.3236 -1.6326  2.3081
  667MOL0     H90022   5.430   1.267   2.378 -0.5106  0.6314  0.0149
  667MOL0     H90023   5.433   1.032   2.473 -4.5573  0.6748 -3.0364
  667MOL0     H90024   5.509   1.168   2.565  1.6776 -0.4652 -2.9370
  667MOL0     H90025   5.477   1.596   2.228 -1.2366 -2.1709  2.0539
  667MOL0     H90026   5.613   1.777   2.345 -0.0161 -0.5379  0.5840
  667MOL0     H90027   5.484   2.358   2.626 -2.1738  2.6102 -2.1926
  667MOL0     H90028   5.612   2.554   2.566 -1.4321 -1.1874  1.3834
  667MOL0     H90029   5.585   3.689   1.102  0.7525 -0.4263  0.6759
  667MOL0     H90030   5.458   3.897   1.099  0.4005 -0.7386  3.4598
  667MOL0     H90031   5.185   4.145   1.270  1.7783  0.4720 -0.4041
  667MOL0     H90032   5.089   4.348   1.324  3.1268 -1.5915 -0.2313
  667MOL0     H90033   4.833   4.475   0.993  1.3656  0.1067  0.8009
  667MOL0     H90034   4.835   4.622   1.078  0.5708  0.1532 -0.3956
  667MOL0     H90035   4.610   4.424   1.096  1.8837 -1.8589  0.8847
  667MOL0     H90036   4.614   4.592   1.033 -4.0556  0.9283  3.5553
  667MOL0     H90037   4.684   4.683   1.264 -0.1390  1.2883  0.1564
  667MOL0     H90038   4.631   4.521   1.329 -3.2815  0.3703  1.0270
  667MOL0     H90039   4.465   4.740   1.217 -0.2915  1.4339  3.5611
  667MOL0     H90040   4.401   4.578   1.221 -1.6644  0.9286 -0.5612
  667MOL0     H90041   4.402   4.713   1.622 -2.6484 -1.3250 -0.2696
  667MOL0     H90042   4.785   4.280   1.026  0.7864  3.9389 -1.8757
  667MOL0     H90043   4.931   4.090   0.825  3.4842 -0.8559  1.3822
  667MOL0     H90044   4.884   3.961   0.931  6.2470  0.5597 -1.3176
  667MOL0     H90045   4.773   4.104   0.905  0.3418  2.3100  0.1742
  668MOL0     O90046   7.363   3.246   0.129  0.3499  0.3302 -0.2459
  668MOL0     C90047   7.335   3.213   0.244 -0.5830  0.4381 -0.3953
  668MOL0     O90048   7.265   3.291   0.337 -0.0187 -0.8590  0.5072
  668MOL0     C90049   7.213   3.423   0.303 -0.2692 -0.8486  0.6112
  668MOL0     C90050   7.205   3.518   0.407  0.6388  0.8233 -0.4168
  668MOL0     C90051   7.149   3.640   0.402  0.0928  0.5401 -0.1393
  668MOL0     C90052   7.077   3.677   0.294 -0.5806  0.1857 -0.2845
  668MOL0     O90053   7.015   3.793   0.277 -0.3035 -0.8958  0.0326
  668MOL0     C90054   6.883   3.794   0.337  0.5012 -0.2349  0.3385
  668MOL0     C90055   6.812   3.924   0.299  0.2760  0.2182 -0.7261
  668MOL0     C90056   6.664   3.933   0.325 -0.0442 -0.3236 -0.6732
  668MOL0     C90057   6.641   4.020   0.448 -0.5269  0.2302 -0.5205
  668MOL0     C90058   6.496   4.010   0.509  0.2602 -0.4292  0.1487
  668MOL0     C90059   6.475   4.102   0.644  0.2224 -0.0170  0.4935
  668MOL0     C90060   6.509   4.251   0.638 -0.8860  0.8254 -0.8620
  668MOL0     C90061   6.435   4.345   0.550  0.0076 -0.6466 -0.0351
  668MOL0     N90062   6.325   4.425   0.606 -1.0443 -0.5257  0.5611
  668MOL0     C90063   6.249   4.397   0.719  0.1805 -0.1805  0.1877
  668MOL0     C90064   6.150   4.488   0.717  0.1382 -0.3388 -0.9768
  668MOL0     C90065   6.028   4.494   0.810  0.1033 -0.2753 -0.0012
  668MOL0     C90066   5.891   4.505   0.739  0.0040  0.3499 -0.2181
  668MOL0     C90067   5.852   4.371   0.679  0.2137  0.4801 -0.4411
  668MOL0     C90068   5.701   4.365   0.633 -0.4082 -0.3844 -0.4407
  668MOL0     O90069   5.671   4.268   0.532 -0.2618 -0.9262 -0.4197
  668MOL0     C90070   5.719   4.283   0.409  0.9052 -0.3623 -0.0836
  668MOL0     C90071   5.797   4.387   0.352  0.2798 -0.9071 -0.6723
  668MOL0     C90072   5.806   4.411   0.213 -0.1374  0.1688  0.4119
  668MOL0     C90073   5.754   4.319   0.126 -0.2918 -0.7407  0.3822
  668MOL0     C90074   5.771   4.329  -0.026  0.3249 -1.1338  0.3118
  668MOL0     O90075   5.683   4.269  -0.108 -0.2818  0.5963  0.1887
  668MOL0     C90076   5.724   4.228  -0.230 -0.0339 -0.1904 -0.6913
  668MOL0     C90077   5.828   4.137  -0.247 -0.0198 -0.4723 -0.5763
  668MOL0     C90078   5.868   4.107  -0.384  0.2916 -0.5607 -1.1209
  668MOL0     C90079   5.803   4.165  -0.491 -0.2112 -0.8488  0.6215
  668MOL0     O90080   5.825   4.130  -0.628 -0.6245  0.1977  0.4039
  668MOL0     C90081   5.941   4.049  -0.668  0.8537 -0.4155 -0.7576
  668MOL0     C90082   5.989   4.112  -0.795  0.5679 -0.0138 -0.0533
  668MOL0     C90083   6.087   4.014  -0.876 -0.7553 -0.5014  0.2085
  668MOL0     C90084   6.160   4.092  -0.993  0.3421  0.1862 -0.1743
  668MOL0     C90085   6.236   3.984  -1.081  0.3050  0.3242 -0.9267
  668MOL0     C90086   6.355   3.952  -0.986 -0.1514  0.3626 -0.4207
  668MOL0     C90087   6.451   3.848  -1.066 -0.2703  0.0632 -0.5532
  668MOL0     C90088   6.598   3.843  -1.007 -0.3004 -0.1003 -0.8981
  668MOL0    Cl90089   6.663   3.699  -1.081 -0.0825 -0.2989 -0.1680
  668MOL0     C90090   5.708   4.264  -0.468  1.1236  0.2240  0.3451
  668MOL0     C90091   5.663   4.294  -0.332  0.0963 -0.4229 -0.3087
  668MOL0     O90092   5.881   4.386  -0.058 -0.1895 -0.0747  0.2429
  668MOL0     C90093   5.687   4.206   0.179 -0.7696 -0.3879 -0.0248
  668MOL0     C90094   5.677   4.187   0.322 -0.2262  0.4313  0.9952
  668MOL0     N90095   6.162   4.558   0.598  0.3568  0.1877  0.1471
  668MOL0     N90096   6.276   4.532   0.540  0.4260  0.4901 -0.5363
  668MOL0     C90097   7.080   3.582   0.179 -0.0054 -0.3571 -0.4073
  668MOL0     C90098   7.144   3.459   0.187  0.4149 -0.1460 -0.9543
  668MOL0     C90099   7.381   3.074   0.285  0.6865 -0.3699  0.6583
  668MOL0     C90100   7.397   2.980   0.184  0.3422 -0.5361  0.2191
  668MOL0     C90101   7.446   2.858   0.204 -0.3835  0.3214 -0.3007
  668MOL0     C90102   7.496   2.821   0.335 -0.4737 -0.5673  0.2222
  668MOL0     O90103   7.560   2.703   0.370  0.1851 -0.6070  0.3241
  668MOL0     C90104   7.577   2.603   0.263  0.1305  0.0457 -0.3347
  668MOL0     C90105   7.650   2.477   0.317 -0.4723  0.6348 -0.1473
  668MOL0     C90106   7.789   2.500   0.368  0.1169  0.2998  0.0406
  668MOL0     C90107   7.820   2.396   0.466  0.8056 -0.6220  0.6842
  668MOL0     C90108   7.847   2.260   0.411  0.1571 -0.0563  0.0273
  668MOL0     C90109   7.877   2.147   0.364 -0.5703  0.1990  0.1979
  668MOL0     C90110   7.498   2.918   0.434  0.1283  0.4004 -0.6173
  668MOL0     C90111   7.430   3.038   0.414  0.5204 -0.2967 -0.0951
  668MOL0     C90112   7.411   3.131   0.528  0.5926 -0.0737 -0.7240
  668MOL0     H90113   7.242   3.475   0.499 -2.7202 -0.4699  0.4633
  668MOL0     H90114   7.163   3.700   0.491  0.8117  0.2541 -0.0497
  668MOL0     H90115   6.821   3.707   0.313 -0.4649  0.3171  0.7902
  668MOL0     H90116   6.889   3.799   0.446 -0.5121 -2.4580  0.5455
  668MOL0     H90117   6.824   3.947   0.193 -2.4501  3.5838 -0.4804
  668MOL0     H90118   6.860   4.009   0.349 -1.9187  0.1807  1.6431
  668MOL0     H90119   6.625   3.832   0.342  0.5669 -0.0971  3.0299
  668MOL0     H90120   6.608   3.971   0.239 -0.6449  0.8704  0.2056
  668MOL0     H90121   6.695   3.989   0.538 -1.5256  2.3926  0.9064
  668MOL0     H90122   6.676   4.119   0.420  4.8238 -1.3696 -0.5435
  668MOL0     H90123   6.422   4.035   0.432  0.3778 -0.8466 -0.0985
  668MOL0     H90124   6.476   3.904   0.527  1.2246 -0.8783 -1.2773
  668MOL0     H90125   6.375   4.082   0.683  0.0740  0.0223  0.1340
  668MOL0     H90126   6.536   4.056   0.723 -1.9665 -3.4485  0.4038
  668MOL0     H90127   6.612   4.255   0.603  0.1788 -0.8944  1.7626
  668MOL0     H90128   6.500   4.290   0.740  3.4482  0.3951 -0.1181
  668MOL0     H90129   6.509   4.421   0.526 -3.0844  3.3149  1.8453
  668MOL0     H90130   6.394   4.290   0.464 -2.7479 -1.5752  1.7214
  668MOL0     H90131   6.249   4.317   0.792  0.7038 -0.7889 -0.4552
  668MOL0     H90132   6.028   4.415   0.885 -2.3542  0.1962  0.5842
  668MOL0     H90133   6.028   4.587   0.867 -0.7191 -0.4261  0.2573
  668MOL0     H90134   5.825   4.543   0.817 -0.6728 -2.6573  0.8214
  668MOL0     H90135   5.884   4.583   0.663 -0.1430  0.6033  0.0542
  668MOL0     H90136   5.867   4.300   0.761 -6.1743  1.1857  1.9556
  668MOL0     H90137   5.916   4.347   0.595 -0.0677  2.1832 -1.1824
  668MOL0     H90138   5.647   4.457   0.608 -2.9644 -0.6597  3.2046
  668MOL0     H90139   5.635   4.328   0.712  2.3222 -2.0957  1.1955
  668MOL0     H90140   5.833   4.460   0.423 -3.7935 -3.0319  4.1672
  668MOL0     H90141   5.870   4.493   0.181 -2.4537  3.9534  4.4642
  668MOL0     H90142   5.881   4.091  -0.165  0.2821 -0.5935 -0.8357
  668MOL0     H90143   5.955   4.045  -0.407  0.7168 -0.8802  1.1067
  668MOL0     H90144   6.018   4.050  -0.590  0.9527 -0.6918 -0.8523
  668MOL0     H90145   5.907   3.948  -0.691 -2.0829  0.6884 -1.6742
  668MOL0     H90146   5.907   4.154  -0.854  0.2336 -2.2962 -1.3399
  668MOL0     H90147   6.050   4.198  -0.767  0.9971  0.8121 -3.1457
  668MOL0     H90148   6.157   3.979  -0.800 -1.3043 -1.4171  0.3194
  668MOL0     H90149   6.031   3.927  -0.913 -0.0985 -0.9264  0.1999
  668MOL0     H90150   6.230   4.159  -0.942 -0.7293  0.5934  0.7867
  668MOL0     H90151   6.087   4.131  -1.064  0.2698  1.5655  0.6210
  668MOL0     H90152   6.259   4.023  -1.180  1.1212 -0.4746 -1.0606
  668MOL0     H90153   6.167   3.900  -1.090  1.5253 -0.9954  1.1773
  668MOL0     H90154   6.410   4.042  -0.956  1.7201 -1.9080  3.8278
  668MOL0     H90155   6.320   3.901  -0.897 -1.2517  0.2127 -0.9247
  668MOL0     H90156   6.448   3.852  -1.175 -3.3020 -3.6628 -0.8048
  668MOL0     H90157   6.413   3.750  -1.036  3.6075 -1.0311  1.5013
  668MOL0     H90158   6.655   3.928  -1.045 -0.2286 -0.5612 -1.8562
  668MOL0     H90159   6.597   3.837  -0.898  0.6564 -4.8637 -0.9028
  668MOL0     H90160   5.668   4.314  -0.555  1.1955  0.2634  0.3343
  668MOL0     H90161   5.597   4.377  -0.310  0.2995  0.0902 -1.5640
  668MOL0     H90162   5.656   4.126   0.112 -1.6550  0.5218 -0.7295
  668MOL0     H90163   5.628   4.101   0.366  0.1524  0.3471  1.2612
  668MOL0     H90164   7.030   3.611   0.087  1.0138  3.1628 -0.0270
  668MOL0     H90165   7.128   3.388   0.107 -2.6330 -2.0633  1.1591
  668MOL0     H90166   7.363   3.007   0.084  0.4079 -0.0652  0.3208
  668MOL0     H90167   7.438   2.791   0.118 -2.1712  1.9016 -1.4464
  668MOL0     H90168   7.620   2.646   0.172  0.8211  1.7052  0.7315
  668MOL0     H90169   7.480   2.568   0.225  1.5437 -1.1940 -3.1330
  668MOL0     H90170   7.657   2.396   0.244  0.6706  0.7671 -0.2064
  668MOL0     H90171   7.588   2.442   0.400  2.2790  1.9161  2.6604
  668MOL0     H90172   7.799   2.596   0.418  1.0953 -0.1415  0.7167
  668MOL0     H90173   7.853   2.492   0.280  0.0735  0.0661  0.0275
  668MOL0     H90174   7.909   2.434   0.517  0.0162 -2.2668  3.5693
  668MOL0     H90175   7.739   2.390   0.540 -2.3122  3.3083 -2.0223
  668MOL0     H90176   7.880   2.044   0.335 -2.5520 -0.6085  2.4686
  668MOL0     H90177   7.547   2.895   0.528 -1.6654 -0.0099  0.2705
  668MOL0     H90178   7.448   3.080   0.617 -0.9995  1.9453  1.2127
  668MOL0     H90179   7.465   3.224   0.511  0.7446 -0.5240 -3.1265
  668MOL0     H90180   7.307   3.159   0.549  0.5441  1.4265 -2.6850
  669MOL0     O90181   8.286   3.306   1.611  0.5562  0.5992 -0.3545
  669MOL0     C90182   8.407   3.305   1.650  0.4538 -0.6224  0.2206
  669MOL0     O90183   8.468   3.420   1.698 -0.4603  0.6623  0.8220
  669MOL0     C90184   8.403   3.522   1.746 -0.5566 -0.5893 -1.2237
  669MOL0     C90185   8.418   3.647   1.692 -0.1813  0.5859  0.2892
  669MOL0     C90186   8.352   3.758   1.737 -0.3812 -0.0693 -0.1829
  669MOL0     C90187   8.265   3.752   1.849 -0.2281 -0.5396 -0.1018
  669MOL0     O90188   8.211   3.866   1.891  0.7095  0.4505  0.7023
  669MOL0     C90189   8.215   3.884   2.034  0.2214 -0.7359  0.5935
  669MOL0     C90190   8.156   4.018   2.076  0.2161  0.1132  0.0617
  669MOL0     C90191   8.026   4.046   2.001  0.9621 -0.1272 -0.5722
  669MOL0     C90192   7.960   4.164   2.064  0.8039 -0.6066 -0.1387
  669MOL0     C90193   7.855   4.227   1.969  0.1671  0.1060 -0.3638
  669MOL0     C90194   7.799   4.354   2.038  0.2725  0.6224  0.0060
  669MOL0     C90195   7.744   4.464   1.943  0.3860 -0.7409  0.4681
  669MOL0     C90196   7.856   4.528   1.862  0.7050  0.5488  0.1254
  669MOL0     N90197   7.797   4.618   1.764 -0.2845 -0.8706 -0.7867
  669MOL0     C90198   7.838   4.625   1.626  0.2413  1.0518 -0.8220
  669MOL0     C90199   7.762   4.729   1.575  0.2897 -0.7287 -0.1577
  669MOL0     C90200   7.757   4.770   1.428 -0.3139 -0.7461 -0.5172
  669MOL0     C90201   7.767   4.656   1.316  0.6175 -0.2376 -0.5822
  669MOL0     C90202   7.620   4.590   1.301 -0.6798 -0.3789  0.5226
  669MOL0     C90203   7.614   4.512   1.164  0.2011 -0.2804  0.4398
  669MOL0     O90204   7.656   4.379   1.189 -1.5611  0.0169  0.0165
  669MOL0     C90205   7.677   4.301   1.077 -0.2133  0.6634 -0.6568
  669MOL0     C90206   7.677   4.342   0.948  0.2956  0.7599  0.7153
  669MOL0     C90207   7.735   4.262   0.844  0.0398 -0.4741  0.1140
  669MOL0     C90208   7.798   4.142   0.869 -1.0834 -0.6095 -0.2485
  669MOL0     C90209   7.879   4.065   0.766  0.3473 -0.0393 -0.7049
  669MOL0     O90210   7.898   3.933   0.800 -0.2801  0.2888 -0.5125
  669MOL0     C90211   7.962   3.855   0.700 -0.6357  0.0182 -0.1724
  669MOL0     C90212   7.894   3.800   0.590  0.0607  0.4945 -0.1128
  669MOL0     C90213   7.962   3.719   0.499 -0.4215  0.5983  0.1073
  669MOL0     C90214   8.099   3.695   0.513 -0.2564  0.1940  0.4870
  669MOL0     O90215   8.172   3.611   0.432  1.3779  0.5025  0.1393
  669MOL0     C90216   8.170   3.480   0.478  0.0414  0.0778 -0.3885
  669MOL0     C90217   8.070   3.395   0.407 -0.6460 -0.4704 -0.8862
  669MOL0     C90218   8.096   3.404   0.253  0.6143 -0.6489  0.2466
  669MOL0     C90219   8.196   3.298   0.200 -0.0284  0.1061  0.2856
  669MOL0     C90220   8.184   3.310   0.050  0.3312 -0.4175  0.7505
  669MOL0     C90221   8.293   3.211  -0.021  1.1597  0.4737 -0.8228
  669MOL0     C90222   8.246   3.189  -0.168 -0.2925 -0.7014 -0.0352
  669MOL0     C90223   8.183   3.064  -0.210 -0.3696 -0.4980 -0.2737
  669MOL0    Cl90224   8.001   3.071  -0.181  0.0340 -0.2743 -0.5069
  669MOL0     C90225   8.170   3.755   0.621  0.0609  0.3300 -0.6562
  669MOL0     C90226   8.103   3.837   0.711  0.3075  0.5531  0.3932
  669MOL0     O90227   7.910   4.114   0.661 -0.0424 -0.3675  0.3330
  669MOL0     C90228   7.793   4.097   0.999 -0.0303  0.4189  0.1283
  669MOL0     C90229   7.728   4.172   1.105  0.1671 -0.1998  0.0234
  669MOL0     N90230   7.670   4.776   1.670 -0.0176 -0.6452 -0.0073
  669MOL0     N90231   7.701   4.716   1.781 -0.1867  0.0343  0.5322
  669MOL0     C90232   8.234   3.626   1.904  0.6681 -0.1204  0.3493
  669MOL0     C90233   8.298   3.512   1.847 -0.2865  0.1799 -0.4703
  669MOL0     C90234   8.493   3.182   1.629  0.4457 -0.2492 -0.7848
  669MOL0     C90235   8.615   3.211   1.562 -0.1912  0.1622  0.2344
  669MOL0     C90236   8.706   3.110   1.534 -0.0182 -0.7895  0.0214
  669MOL0     C90237   8.678   2.974   1.544  1.1608 -0.3726 -0.2625
  669MOL0     O90238   8.749   2.859   1.503 -0.6035 -0.4931 -0.0456
  669MOL0     C90239   8.867   2.873   1.423 -0.5913  0.0813  0.2068
  669MOL0     C90240   8.837   2.841   1.276  0.6695 -0.2850  0.0888
  669MOL0     C90241   8.833   2.683   1.248  0.0372 -0.5048 -0.0701
  669MOL0     C90242   8.841   2.650   1.100 -0.1054  0.1881 -0.1290
  669MOL0     C90243   8.712   2.669   1.033 -0.2455  0.6397  1.1651
  669MOL0     C90244   8.614   2.670   0.962  0.0395  0.3159  0.0218
  669MOL0     C90245   8.552   2.949   1.603  0.6456  0.6870 -0.3613
  669MOL0     C90246   8.458   3.048   1.641  0.4715  0.1546 -0.8891
  669MOL0     C90247   8.322   3.019   1.698  0.9175 -0.7129 -1.8440
  669MOL0     H90248   8.479   3.643   1.602 -0.2302 -0.7682  0.2902
  669MOL0     H90249   8.377   3.851   1.686  1.1939 -1.9575 -3.1284
  669MOL0     H90250   8.162   3.804   2.086 -1.6022 -1.2216 -1.8344
  669MOL0     H90251   8.322   3.885   2.057  0.2255 -2.3546  0.7374
  669MOL0     H90252   8.232   4.097   2.064  0.3439 -0.0433 -0.1798
  669MOL0     H90253   8.135   4.011   2.183 -1.4266 -0.2679 -0.2620
  669MOL0     H90254   7.955   3.963   2.006  3.8903 -2.7338  1.0862
  669MOL0     H90255   8.044   4.060   1.894 -0.4103  4.7274 -0.4276
  669MOL0     H90256   7.923   4.153   2.166 -2.2161 -0.1118 -1.0943
  669MOL0     H90257   8.041   4.237   2.073  0.8762 -0.4518 -1.7299
  669MOL0     H90258   7.909   4.247   1.877  0.3492 -0.2230 -0.3273
  669MOL0     H90259   7.770   4.160   1.951  1.0215 -0.4041 -2.7640
  669MOL0     H90260   7.718   4.329   2.108 -0.6316  0.3629 -1.1004
  669MOL0     H90261   7.871   4.396   2.109  2.1800  0.9294 -2.0032
  669MOL0     H90262   7.691   4.540   2.002 -0.3266 -0.7637 -0.1317
  669MOL0     H90263   7.671   4.415   1.878  1.9647 -1.8290 -0.5443
  669MOL0     H90264   7.924   4.581   1.929 -2.1722 -0.5071  4.2510
  669MOL0     H90265   7.895   4.452   1.793 -0.9303 -0.6475  0.4663
  669MOL0     H90266   7.913   4.568   1.573  1.4476  0.2467  1.6251
  669MOL0     H90267   7.660   4.819   1.415 -0.2408  0.1269  1.7524
  669MOL0     H90268   7.841   4.840   1.419 -0.4736 -0.5502 -0.4790
  669MOL0     H90269   7.798   4.708   1.225 -0.9442  1.0956 -0.3978
  669MOL0     H90270   7.851   4.594   1.349  2.1256  2.2148  0.5843
  669MOL0     H90271   7.535   4.658   1.292 -0.9821 -0.8903 -0.7697
  669MOL0     H90272   7.603   4.513   1.378  0.3809 -0.3913  0.7598
  669MOL0     H90273   7.668   4.561   1.083 -0.1989 -0.6278 -0.0419
  669MOL0     H90274   7.510   4.515   1.129  0.5937 -0.7637 -0.8237
  669MOL0     H90275   7.657   4.442   0.913 -0.4874  0.4314  0.2059
  669MOL0     H90276   7.748   4.310   0.748 -0.1334 -0.6755 -0.0130
  669MOL0     H90277   7.789   3.824   0.584 -0.7192 -2.6128 -1.1828
  669MOL0     H90278   7.911   3.665   0.419  1.1857 -3.7463  1.7260
  669MOL0     H90279   8.268   3.436   0.458 -0.5481 -0.9246 -1.1834
  669MOL0     H90280   8.168   3.460   0.585  4.1803 -4.4607 -0.7947
  669MOL0     H90281   8.077   3.293   0.447  2.9457 -1.3616 -3.3508
  669MOL0     H90282   7.970   3.431   0.434 -0.7683 -1.9998  0.8989
  669MOL0     H90283   8.003   3.386   0.198  0.4790 -1.2159  0.6446
  669MOL0     H90284   8.118   3.503   0.213  0.0423 -0.8097 -0.4628
  669MOL0     H90285   8.169   3.198   0.235  3.5746 -1.5231 -1.0650
  669MOL0     H90286   8.302   3.315   0.221  1.1555 -1.3786 -3.5655
  669MOL0     H90287   8.204   3.414   0.021  0.2958 -0.3489  0.9706
  669MOL0     H90288   8.088   3.274   0.012 -0.0928 -0.9617  2.2722
  669MOL0     H90289   8.387   3.266  -0.012  0.4845  1.6182 -0.5663
  669MOL0     H90290   8.299   3.116   0.033 -1.2286 -0.6643 -2.3441
  669MOL0     H90291   8.335   3.208  -0.228 -0.8910 -1.1991 -1.1116
  669MOL0     H90292   8.181   3.267  -0.210 -0.1352  0.1823  1.2913
  669MOL0     H90293   8.205   3.046  -0.316 -0.2230  0.2238 -0.3707
  669MOL0     H90294   8.223   2.976  -0.159  1.8758 -1.3335 -3.1916
  669MOL0     H90295   8.278   3.744   0.626  0.0230  0.4861  2.5738
  669MOL0     H90296   8.154   3.889   0.791  0.7929  0.3764  0.1985
  669MOL0     H90297   7.845   4.010   1.038  1.4460  0.5570 -1.4330
  669MOL0     H90298   7.744   4.139   1.207  0.1933 -0.8666 -0.1871
  669MOL0     H90299   8.161   3.625   1.985 -0.2214  1.8890 -0.3379
  669MOL0     H90300   8.277   3.418   1.897  0.9526 -0.5335 -1.2455
  669MOL0     H90301   8.640   3.314   1.540  1.1185 -0.4089 -1.2123
  669MOL0     H90302   8.798   3.135   1.483 -0.2613 -0.8654 -0.4626
  669MOL0     H90303   8.946   2.807   1.461 -0.8500  0.1317  0.8466
  669MOL0     H90304   8.909   2.973   1.436 -1.3847  0.4148  0.2736
  669MOL0     H90305   8.926   2.880   1.226  0.8947 -1.2725 -0.3123
  669MOL0     H90306   8.749   2.894   1.239  1.1747 -0.8266 -2.0245
  669MOL0     H90307   8.735   2.653   1.286 -1.6905  3.0622 -1.2192
  669MOL0     H90308   8.902   2.630   1.315 -2.0891 -2.0188  1.0577
  669MOL0     H90309   8.908   2.714   1.043 -2.4285  2.5721 -0.3492
  669MOL0     H90310   8.875   2.547   1.083  3.8999  1.7064 -2.7789
  669MOL0     H90311   8.524   2.675   0.904  2.0923 -1.3307 -3.6568
  669MOL0     H90312   8.533   2.843   1.619  0.5093  1.0637  2.3833
  669MOL0     H90313   8.312   2.910   1.697  1.1467 -0.7430 -1.0979
  669MOL0     H90314   8.313   3.042   1.804  1.9889 -0.7546 -1.7338
  669MOL0     H90315   8.245   3.059   1.632  2.2780  0.9121 -2.5228
  670MOL0     O90316  11.003   7.018   7.996 -0.1222 -0.2787 -0.1954
  670MOL0     C90317  11.010   7.124   7.947  0.0838 -0.4573 -0.2237
  670MOL0     O90318  10.939   7.238   7.989  0.5032  0.6773  0.2578
  670MOL0     C90319  10.879   7.230   8.108 -0.1322 -0.2559 -0.4075
  670MOL0     C90320  10.759   7.154   8.128  0.5186 -0.6408  0.2180
  670MOL0     C90321  10.706   7.150   8.259  0.0547 -1.4723 -0.1116
  670MOL0     C90322  10.780   7.208   8.360 -0.4700  0.2430 -0.1555
  670MOL0     O90323  10.736   7.195   8.493 -0.4371  0.1660  0.6613
  670MOL0     C90324  10.743   7.051   8.533  0.4825  0.3473 -0.1376
  670MOL0     C90325  10.641   7.034   8.645 -0.6244 -0.3130 -0.0820
  670MOL0     C90326  10.512   7.000   8.589 -0.2194  0.0531 -0.3235
  670MOL0     C90327  10.406   7.003   8.698 -0.4240  0.4445  0.0285
  670MOL0     C90328  10.264   7.000   8.642 -0.1338  0.6063  0.1024
  670MOL0     C90329  10.152   6.994   8.748  0.1912 -0.6031  0.3630
  670MOL0     C90330  10.146   6.866   8.827 -0.3903 -0.8041 -0.8638
  670MOL0     C90331  10.045   6.869   8.936  0.6011  0.8014 -0.2017
  670MOL0     N90332  10.004   6.731   8.983  0.8830 -0.6245  0.0340
  670MOL0     C90333  10.090   6.620   8.989  0.8200 -0.1426  0.7808
  670MOL0     C90334  10.018   6.517   9.040 -0.1679 -0.7840 -0.0386
  670MOL0     C90335  10.085   6.383   9.076  0.9377  0.5186 -0.7745
  670MOL0     C90336   9.990   6.285   9.151  1.1486 -0.1615  0.1213
  670MOL0     C90337   9.946   6.338   9.293 -0.7553 -0.2549 -0.7036
  670MOL0     C90338   9.807   6.292   9.332  0.0448  0.1266 -0.0969
  670MOL0     O90339   9.779   6.272   9.480 -0.1888 -0.4871  0.4104
  670MOL0     C90340   9.733   6.377   9.550  0.3742  0.0588  0.0124
  670MOL0     C90341   9.803   6.435   9.657 -0.6358  0.1570  0.2207
  670MOL0     C90342   9.762   6.545   9.722  0.5446 -0.5913 -0.3842
  670MOL0     C90343   9.643   6.609   9.676  0.4301  0.5512 -0.1742
  670MOL0     C90344   9.595   6.741   9.734 -0.1409 -1.0816 -0.4027
  670MOL0     O90345   9.667   6.800   9.828 -0.1095 -0.4057  0.0770
  670MOL0     C90346   9.653   6.939   9.856  0.6050 -0.9095  0.8173
  670MOL0     C90347   9.648   6.972   9.994 -0.5015  0.5931  0.3008
  670MOL0     C90348   9.644   7.103  10.033 -1.4499  0.1873 -1.1473
  670MOL0     C90349   9.654   7.207   9.947  0.1375  0.3737  0.2525
  670MOL0     O90350   9.677   7.343   9.994 -0.7551 -0.6420  0.6589
  670MOL0     C90351   9.732   7.436   9.901 -0.4334 -0.4771  0.0254
  670MOL0     C90352   9.789   7.554   9.984 -0.3646 -0.1744  0.2010
  670MOL0     C90353   9.899   7.490  10.073  0.1260 -0.1197 -0.2938
  670MOL0     C90354   9.988   7.608  10.128  0.4125 -0.0337  0.2995
  670MOL0     C90355  10.056   7.578  10.258 -0.8815  1.5425 -1.8754
  670MOL0     C90356  10.163   7.681  10.292  0.7444  0.1209  0.0258
  670MOL0     C90357  10.246   7.673  10.422  0.1794 -0.0204 -0.1710
  670MOL0     C90358  10.338   7.793  10.435 -0.0275  0.3750  0.5103
  670MOL0    Cl90359  10.401   7.791  10.599 -0.4940  0.0519 -0.3768
  670MOL0     C90360   9.644   7.178   9.809 -1.1565  0.0264 -0.1011
  670MOL0     C90361   9.656   7.043   9.762  0.7723 -0.6209  0.2195
  670MOL0     O90362   9.487   6.790   9.693 -0.2829 -0.6947  0.3368
  670MOL0     C90363   9.571   6.543   9.572  0.4639 -0.0620 -0.2086
  670MOL0     C90364   9.619   6.431   9.501 -0.0902  0.2633 -0.7755
  670MOL0     N90365   9.890   6.561   9.064  0.4902 -0.2344 -0.2504
  670MOL0     N90366   9.877   6.686   9.030  0.4486 -0.6576  0.1115
  670MOL0     C90367  10.900   7.279   8.348  0.8745  0.0158  0.6382
  670MOL0     C90368  10.944   7.299   8.219  0.4914 -0.5526  0.4604
  670MOL0     C90369  11.088   7.130   7.815 -0.1004  0.5749 -0.5597
  670MOL0     C90370  11.144   7.009   7.761  0.6801 -0.4309  0.6168
  670MOL0     C90371  11.223   7.009   7.652  0.4131 -0.1826  0.8683
  670MOL0     C90372  11.248   7.126   7.578 -0.3868 -0.6937 -0.1584
  670MOL0     O90373  11.309   7.143   7.458  0.2751  0.0147  0.3891
  670MOL0     C90374  11.369   7.028   7.387 -0.3472  0.2391 -0.1404
  670MOL0     C90375  11.457   7.061   7.262 -0.0290 -0.1556 -0.0738
  670MOL0     C90376  11.537   7.194   7.284  0.2526  0.5678  0.0935
  670MOL0     C90377  11.690   7.177   7.264 -0.2221 -0.2978  1.1338
  670MOL0     C90378  11.726   7.170   7.123 -0.2336  0.5875  0.3355
  670MOL0     C90379  11.741   7.160   7.000 -0.0266 -0.1642 -0.1480
  670MOL0     C90380  11.199   7.246   7.633 -0.1316  0.1243  0.0135
  670MOL0     C90381  11.124   7.252   7.750  0.4458 -0.3751 -0.4425
  670MOL0     C90382  11.080   7.386   7.806  0.9141 -0.6703  0.2730
  670MOL0     H90383  10.727   7.090   8.047 -0.6194  0.1195  0.0437
  670MOL0     H90384  10.612   7.103   8.287 -0.9701  1.0651  1.0543
  670MOL0     H90385  10.720   6.980   8.453 -1.0317  0.9374 -0.2689
  670MOL0     H90386  10.850   7.044   8.552  0.9850  0.5651 -2.5417
  670MOL0     H90387  10.627   7.121   8.709 -0.0132  0.4226 -0.9259
  670MOL0     H90388  10.666   6.943   8.702 -3.5341  0.1636  2.2362
  670MOL0     H90389  10.524   6.897   8.553  2.4278 -0.4302  1.6246
  670MOL0     H90390  10.472   7.061   8.508 -1.3795 -0.1437  0.0836
  670MOL0     H90391  10.419   6.916   8.762 -0.7448  0.7350  0.4899
  670MOL0     H90392  10.422   7.095   8.754  0.5861  0.4713 -0.2861
  670MOL0     H90393  10.249   7.088   8.579 -2.4467  0.3600  0.2474
  670MOL0     H90394  10.252   6.916   8.573 -2.8973  2.1344 -1.4562
  670MOL0     H90395  10.145   7.075   8.822 -2.4261  0.2190 -0.6359
  670MOL0     H90396  10.054   6.997   8.699 -0.5077  0.3926  1.7465
  670MOL0     H90397  10.245   6.852   8.872 -0.2640 -1.3995 -1.3109
  670MOL0     H90398  10.118   6.785   8.759 -2.0500 -0.7536 -0.2853
  670MOL0     H90399  10.086   6.926   9.020  0.8542 -1.2516  1.1472
  670MOL0     H90400   9.951   6.912   8.901  1.0219 -1.9396 -5.5882
  670MOL0     H90401  10.195   6.613   8.962  0.5121 -0.5310 -0.3950
  670MOL0     H90402  10.116   6.350   8.976 -0.4656 -0.2000 -1.0058
  670MOL0     H90403  10.176   6.410   9.129  3.2559  0.9424 -4.6010
  670MOL0     H90404   9.906   6.264   9.085  0.2438  3.0084  0.0904
  670MOL0     H90405  10.037   6.194   9.188  0.2034 -0.0274  1.7688
  670MOL0     H90406   9.949   6.447   9.287  0.8071 -0.3155 -1.6444
  670MOL0     H90407  10.019   6.311   9.369  5.2736 -0.9646 -5.8965
  670MOL0     H90408   9.804   6.194   9.284  0.7669  1.6336 -3.4691
  670MOL0     H90409   9.730   6.361   9.295  0.2704  1.3083  1.5272
  670MOL0     H90410   9.892   6.384   9.694  0.5500  2.0565  0.1259
  670MOL0     H90411   9.817   6.595   9.801  0.0988  1.0435 -1.0672
  670MOL0     H90412   9.650   6.895  10.070 -1.7727  1.6762  1.4790
  670MOL0     H90413   9.648   7.134  10.137 -3.4369  1.0255 -1.2818
  670MOL0     H90414   9.807   7.390   9.836 -0.0387 -0.8994  0.7759
  670MOL0     H90415   9.664   7.482   9.828  0.8622  1.3988 -0.0889
  670MOL0     H90416   9.832   7.629   9.917 -1.0418  0.3326  0.3224
  670MOL0     H90417   9.717   7.609  10.045 -1.2887 -1.3227  0.1742
  670MOL0     H90418   9.846   7.441  10.155 -0.8145 -2.0420 -1.9624
  670MOL0     H90419   9.953   7.422  10.006 -0.8116 -1.0506 -0.1347
  670MOL0     H90420   9.919   7.691  10.142 -1.3425 -0.8737 -2.5131
  670MOL0     H90421  10.067   7.631  10.055 -0.1242  0.0671 -0.2518
  670MOL0     H90422  10.095   7.476  10.264  0.7872  2.1747 -1.5926
  670MOL0     H90423   9.982   7.572  10.339 -1.3558  0.0021 -2.3878
  670MOL0     H90424  10.239   7.654  10.218  1.0101  1.0056 -0.0372
  670MOL0     H90425  10.125   7.783  10.285 -1.2442 -0.5837 -0.1410
  670MOL0     H90426  10.291   7.574  10.427 -0.4313 -0.5194 -2.6729
  670MOL0     H90427  10.186   7.682  10.513 -0.5567 -0.1946 -0.6289
  670MOL0     H90428  10.422   7.799  10.365 -2.4738  0.9734 -2.5656
  670MOL0     H90429  10.279   7.881  10.410 -0.1422 -0.1399 -1.1526
  670MOL0     H90430   9.629   7.262   9.743 -0.2737 -0.2431 -0.6712
  670MOL0     H90431   9.639   7.031   9.655 -2.7486 -1.4588  0.7476
  670MOL0     H90432   9.470   6.575   9.547  1.5954  2.3874 -1.9782
  670MOL0     H90433   9.555   6.393   9.422  1.0131  1.6588 -2.4158
  670MOL0     H90434  10.947   7.342   8.422  2.4456 -1.3130  0.8256
  670MOL0     H90435  11.033   7.360   8.209  1.3094 -1.5360  1.5579
  670MOL0     H90436  11.122   6.912   7.805 -2.4289 -1.5427 -2.9283
  670MOL0     H90437  11.255   6.913   7.611  0.5312  1.0074 -2.0669
  670MOL0     H90438  11.296   6.947   7.371 -1.6844  1.1251  1.2333
  670MOL0     H90439  11.438   6.995   7.464  1.0914  3.6508  0.2020
  670MOL0     H90440  11.388   7.084   7.180 -0.5993 -0.1880  0.3958
  670MOL0     H90441  11.518   6.973   7.238  2.1535  0.8742  1.3437
  670MOL0     H90442  11.523   7.213   7.391  1.0988  0.5218  0.2177
  670MOL0     H90443  11.490   7.276   7.228  0.9584  1.4085  0.7058
  670MOL0     H90444  11.744   7.260   7.310 -2.3024  1.5398  0.4423
  670MOL0     H90445  11.721   7.087   7.316 -0.9654 -1.4342 -0.3003
  670MOL0     H90446  11.748   7.132   6.896  0.0264 -1.5827  0.2071
  670MOL0     H90447  11.215   7.333   7.569  4.4789  0.1517  0.8781
  670MOL0     H90448  10.972   7.405   7.808  1.4171  4.1527 -2.3546
  670MOL0     H90449  11.118   7.395   7.908  2.2797 -1.6731 -0.1217
  670MOL0     H90450  11.114   7.464   7.737 -0.4378 -1.0237 -0.8425
  671MOL0     O90451   7.074   2.561  11.390 -0.4684 -0.0767 -0.2617
  671MOL0     C90452   6.961   2.603  11.347  0.1537  0.0396 -0.8596
  671MOL0     O90453   6.864   2.662  11.424 -0.6364 -0.2017 -0.2472
  671MOL0     C90454   6.890   2.727  11.547  0.5174  0.0773  0.7231
  671MOL0     C90455   7.005   2.779  11.591 -0.8885  1.1704  0.2701
  671MOL0     C90456   7.014   2.861  11.706 -0.1912  1.2934 -1.2464
  671MOL0     C90457   6.895   2.889  11.781  0.1388  0.0548  0.3007
  671MOL0     O90458   6.891   2.972  11.888 -0.1316  0.2751 -0.1890
  671MOL0     C90459   7.013   3.031  11.934  0.0801 -0.4718  0.0243
  671MOL0     C90460   6.976   3.110  12.067  0.5973  0.2256  0.2491
  671MOL0     C90461   6.892   3.241  12.017  0.7739 -0.0037  0.8370
  671MOL0     C90462   6.879   3.342  12.138 -0.2433 -0.9947 -0.2445
  671MOL0     C90463   7.006   3.409  12.197  0.5231  0.5990 -0.1822
  671MOL0     C90464   6.964   3.485  12.325 -0.0877 -0.6306  0.1433
  671MOL0     C90465   7.087   3.549  12.394  0.7170  0.0804  0.1794
  671MOL0     C90466   7.150   3.679  12.331  0.5201  0.3713  0.8812
  671MOL0     N90467   7.042   3.776  12.307  0.2934 -0.1566  0.8385
  671MOL0     C90468   7.021   3.887  12.384  0.1387 -0.3694  1.4194
  671MOL0     C90469   6.932   3.963  12.311 -0.3727  0.1091 -0.4274
  671MOL0     C90470   6.900   4.105  12.335 -0.6343  0.8316  0.3671
  671MOL0     C90471   6.948   4.198  12.213 -0.0526  1.4986  0.0617
  671MOL0     C90472   6.876   4.335  12.225 -0.0278 -0.2400 -0.7248
  671MOL0     C90473   6.869   4.404  12.094 -0.2685  0.2452  1.6970
  671MOL0     O90474   6.760   4.492  12.094  0.2573 -0.2979 -0.1399
  671MOL0     C90475   6.761   4.614  12.153 -0.5139 -0.0965 -0.4905
  671MOL0     C90476   6.869   4.667  12.222 -0.0807  0.3131  0.1317
  671MOL0     C90477   6.860   4.804  12.261  0.4628 -0.3467  0.2896
  671MOL0     C90478   6.743   4.880  12.240 -0.3416 -0.8118  0.9992
  671MOL0     C90479   6.739   5.010  12.298 -0.5793  0.9952 -0.1422
  671MOL0     O90480   6.625   5.085  12.261  0.2430  0.1128  0.6318
  671MOL0     C90481   6.601   5.194  12.336  0.7381  0.2644 -0.0964
  671MOL0     C90482   6.595   5.183  12.474 -0.9283 -0.2309 -0.5382
  671MOL0     C90483   6.593   5.301  12.560 -0.9297 -0.5120  0.4112
  671MOL0     C90484   6.583   5.430  12.501 -0.8405 -0.5751  0.5392
  671MOL0     O90485   6.588   5.542  12.581  0.1331 -0.2999  0.5091
  671MOL0     C90486   6.520   5.661  12.537 -0.5108 -1.0409 -0.7845
  671MOL0     C90487   6.502   5.760  12.656  0.1395 -0.5436  0.6773
  671MOL0     C90488   6.454   5.910  12.617 -0.7243 -0.3990  0.4924
  671MOL0     C90489   6.370   5.918  12.484 -1.0354  0.2653 -0.7089
  671MOL0     C90490   6.305   6.056  12.471 -0.3988 -0.6960 -0.1935
  671MOL0     C90491   6.388   6.172  12.405  0.0796 -0.2594  0.4343
  671MOL0     C90492   6.506   6.210  12.496 -0.2440 -1.4366 -0.9415
  671MOL0     C90493   6.565   6.349  12.462 -0.1757 -0.1306 -0.3079
  671MOL0    Cl90494   6.593   6.389  12.283 -0.1146 -0.0590  0.2009
  671MOL0     C90495   6.588   5.443  12.357 -0.7236  0.3743 -0.2194
  671MOL0     C90496   6.596   5.326  12.275 -0.0476 -0.4547  0.4204
  671MOL0     O90497   6.833   5.059  12.360  0.1332  0.4692  0.4183
  671MOL0     C90498   6.628   4.830  12.180  0.9805 -0.1212 -0.3796
  671MOL0     C90499   6.642   4.690  12.135 -1.2226 -0.6840  0.2322
  671MOL0     N90500   6.884   3.884  12.207  0.0188  0.1531 -0.5499
  671MOL0     N90501   6.964   3.783  12.198  0.7959  0.0561 -1.2422
  671MOL0     C90502   6.768   2.840  11.733 -1.1190 -0.8603 -0.0615
  671MOL0     C90503   6.773   2.755  11.623  0.1808  0.1094  0.0521
  671MOL0     C90504   6.950   2.608  11.203  0.2206  0.3008  0.5808
  671MOL0     C90505   6.880   2.717  11.144 -0.1908 -0.4641 -0.8146
  671MOL0     C90506   6.880   2.725  11.005 -1.3044 -0.4664  0.1073
  671MOL0     C90507   6.948   2.635  10.922  0.2439 -0.6420 -1.1013
  671MOL0     O90508   6.945   2.645  10.793  0.1062 -0.0366 -0.5055
  671MOL0     C90509   6.963   2.773  10.733  1.5020 -0.4976  0.3434
  671MOL0     C90510   6.832   2.819  10.664 -0.0388  0.1851  0.6100
  671MOL0     C90511   6.848   2.954  10.589 -0.1833  0.4415 -0.1839
  671MOL0     C90512   6.734   3.022  10.516 -0.4057  0.2088  0.7071
  671MOL0     C90513   6.744   3.165  10.486 -0.3648  0.5557 -0.2640
  671MOL0     C90514   6.755   3.279  10.460  0.4048 -0.0447  0.6021
  671MOL0     C90515   6.999   2.522  10.980 -0.6025  0.6913 -1.0792
  671MOL0     C90516   7.005   2.500  11.117  0.2736  0.1202 -1.0330
  671MOL0     C90517   7.060   2.366  11.167 -0.5431  1.3130  0.2154
  671MOL0     H90518   7.099   2.763  11.538 -0.3061  1.3917  1.2167
  671MOL0     H90519   7.099   2.914  11.750  0.3235 -0.5154  0.0566
  671MOL0     H90520   7.082   2.954  11.968 -2.3399 -2.0037  1.8068
  671MOL0     H90521   7.055   3.109  11.870  0.2030  0.6202  1.3656
  671MOL0     H90522   7.064   3.142  12.124  1.3278  1.2332 -1.3672
  671MOL0     H90523   6.912   3.040  12.122 -3.4027 -0.5349 -4.6054
  671MOL0     H90524   6.798   3.219  11.966 -0.2174  2.9608  1.2053
  671MOL0     H90525   6.949   3.301  11.945  1.6184  0.0611  1.5327
  671MOL0     H90526   6.815   3.425  12.108  1.1663  1.3318  2.5986
  671MOL0     H90527   6.821   3.291  12.216 -1.3030 -0.2847 -0.5518
  671MOL0     H90528   7.086   3.335  12.210  1.3885  1.6445  0.7443
  671MOL0     H90529   7.038   3.479  12.119 -1.0746  2.2019  0.5109
  671MOL0     H90530   6.877   3.549  12.310  0.0131  0.5004  3.6603
  671MOL0     H90531   6.925   3.407  12.391  2.8526 -0.6164  2.0921
  671MOL0     H90532   7.162   3.470  12.395 -0.1972 -0.8244 -0.8963
  671MOL0     H90533   7.067   3.566  12.500  0.2737  0.8900 -0.0248
  671MOL0     H90534   7.228   3.719  12.396  1.4772  0.6817 -0.4132
  671MOL0     H90535   7.203   3.647  12.241 -1.7960  0.3730 -0.5494
  671MOL0     H90536   7.068   3.903  12.480  1.8559 -2.5749  1.0393
  671MOL0     H90537   6.791   4.106  12.351 -0.6133 -1.1182  0.9215
  671MOL0     H90538   6.941   4.145  12.428 -1.0015  1.2112  0.3715
  671MOL0     H90539   7.055   4.219  12.221  0.5819 -1.6961  1.5695
  671MOL0     H90540   6.930   4.141  12.121  0.6559  1.5894 -0.1411
  671MOL0     H90541   6.935   4.394  12.295 -1.1710  0.8277 -0.6402
  671MOL0     H90542   6.770   4.329  12.253 -0.4910 -1.3177 -2.4987
  671MOL0     H90543   6.857   4.336  12.010  3.5317 -0.7556  1.7774
  671MOL0     H90544   6.961   4.459  12.069  1.2911 -3.4343 -1.6460
  671MOL0     H90545   6.958   4.606  12.237  1.3706  2.0837 -0.7812
  671MOL0     H90546   6.945   4.844  12.316  1.1127  0.4979 -1.2605
  671MOL0     H90547   6.604   5.083  12.515 -2.5973 -0.4852 -0.6905
  671MOL0     H90548   6.611   5.282  12.665  2.6100  0.2127  0.0640
  671MOL0     H90549   6.577   5.712  12.459  2.4500 -2.6526  0.1762
  671MOL0     H90550   6.421   5.638  12.498 -1.2568  2.2095 -1.1166
  671MOL0     H90551   6.424   5.730  12.726 -1.4936 -1.2011 -1.3103
  671MOL0     H90552   6.602   5.777  12.696  0.3272  2.8585 -0.8740
  671MOL0     H90553   6.403   5.959  12.700  0.7145  0.7522  0.7322
  671MOL0     H90554   6.547   5.966  12.606  0.3158 -2.1089  0.2053
  671MOL0     H90555   6.293   5.840  12.480 -3.4881  2.4987  0.5258
  671MOL0     H90556   6.428   5.904  12.392 -0.7106 -0.4032 -0.4137
  671MOL0     H90557   6.266   6.099  12.564  2.8040  0.3138  0.8038
  671MOL0     H90558   6.212   6.044  12.415 -0.9913  3.1703 -0.3273
  671MOL0     H90559   6.435   6.153  12.308 -0.9757  0.9286 -0.3365
  671MOL0     H90560   6.317   6.255  12.401 -1.5507 -1.5140  1.5783
  671MOL0     H90561   6.593   6.144  12.499  2.9537  2.0607 -4.4712
  671MOL0     H90562   6.472   6.223  12.598  1.2825 -0.0514 -0.5598
  671MOL0     H90563   6.486   6.419  12.492  1.0975  1.3327 -0.1942
  671MOL0     H90564   6.655   6.367  12.521 -1.4188  3.2057  0.8210
  671MOL0     H90565   6.582   5.544  12.316  1.6825  1.5682  2.0245
  671MOL0     H90566   6.603   5.346  12.169 -2.5278 -0.0091  0.2990
  671MOL0     H90567   6.538   4.887  12.157 -1.0179 -2.7872  0.2037
  671MOL0     H90568   6.564   4.645  12.074 -3.3473  2.6094  0.3041
  671MOL0     H90569   6.682   2.881  11.785 -0.1283  0.6870  0.4283
  671MOL0     H90570   6.681   2.713  11.584 -0.6347 -2.0293  3.8101
  671MOL0     H90571   6.821   2.774  11.215  0.2147 -3.2921  2.0359
  671MOL0     H90572   6.827   2.810  10.963 -0.5999  0.4895  1.0850
  671MOL0     H90573   7.049   2.765  10.666 -1.2706  2.6821 -4.1813
  671MOL0     H90574   6.980   2.848  10.811 -3.0895 -1.1038  2.2532
  671MOL0     H90575   6.756   2.838  10.741 -1.4573  1.0567 -0.9252
  671MOL0     H90576   6.806   2.736  10.599  0.1318  0.3323  0.3536
  671MOL0     H90577   6.920   2.927  10.510  0.8264 -2.9212  1.6692
  671MOL0     H90578   6.901   3.031  10.646  0.3962 -1.1687  1.5502
  671MOL0     H90579   6.720   2.970  10.421 -1.5960  1.7613 -0.0227
  671MOL0     H90580   6.640   3.008  10.569 -1.4184 -0.3457 -1.1249
  671MOL0     H90581   6.783   3.377  10.427 -0.8021  0.3424  0.6441
  671MOL0     H90582   7.039   2.443  10.918  0.0676 -1.1843  1.5466
  671MOL0     H90583   6.986   2.290  11.140 -1.0428  1.0373  2.2131
  671MOL0     H90584   7.157   2.348  11.120  0.1016  1.3637  1.4907
  671MOL0     H90585   7.098   2.367  11.269  4.8512  1.5564 -1.4777
  672MOL0     O90586   7.580   1.830   0.357  0.0848 -0.5070  0.2159
  672MOL0     C90587   7.537   1.918   0.433 -0.7469 -0.1261  1.2689
  672MOL0     O90588   7.612   1.982   0.525  0.5555 -0.6789 -0.3787
  672MOL0     C90589   7.604   1.955   0.669 -0.3480 -0.0972  0.5962
  672MOL0     C90590   7.499   1.873   0.726 -0.4531 -0.3847 -0.5467
  672MOL0     C90591   7.493   1.832   0.860  0.0751 -0.1210 -0.9368
  672MOL0     C90592   7.599   1.873   0.942  0.9207 -0.0953  0.1616
  672MOL0     O90593   7.597   1.842   1.073 -0.0050  0.0018  0.0266
  672MOL0     C90594   7.509   1.920   1.156  0.6391  0.0668 -0.1543
  672MOL0     C90595   7.573   1.934   1.298  0.4825 -0.3682  0.7475
  672MOL0     C90596   7.701   2.019   1.286  0.4361  0.1038  0.0021
  672MOL0     C90597   7.738   2.064   1.428  0.2501 -0.6544 -0.5552
  672MOL0     C90598   7.659   2.198   1.446  0.1222 -0.4311 -0.9204
  672MOL0     C90599   7.655   2.255   1.583  0.5256  0.9825 -0.4011
  672MOL0     C90600   7.581   2.382   1.581 -0.5264  0.1942 -1.0067
  672MOL0     C90601   7.570   2.427   1.729  0.2727 -0.1287 -0.0470
  672MOL0     N90602   7.496   2.550   1.753 -0.3906 -0.4541 -0.0715
  672MOL0     C90603   7.554   2.656   1.822 -0.4084  0.0428 -0.3455
  672MOL0     C90604   7.448   2.741   1.839  0.4973  0.6030 -0.4983
  672MOL0     C90605   7.445   2.866   1.912  0.0980  0.4650  0.5906
  672MOL0     C90606   7.575   2.949   1.890 -0.8412 -0.4277  0.1647
  672MOL0     C90607   7.561   3.091   1.964 -0.5303  0.8745 -0.2234
  672MOL0     C90608   7.618   3.069   2.112  0.4003 -0.6521 -0.0883
  672MOL0     O90609   7.559   3.168   2.204 -0.7123  0.8937  0.2464
  672MOL0     C90610   7.632   3.281   2.220  0.3077  0.9036 -0.5281
  672MOL0     C90611   7.557   3.399   2.224 -0.2142  0.6080 -0.1902
  672MOL0     C90612   7.606   3.532   2.239 -0.8295  0.6798  0.5927
  672MOL0     C90613   7.748   3.544   2.250 -0.2892  0.1198 -0.5454
  672MOL0     C90614   7.820   3.671   2.274 -0.2805  0.1471  0.3494
  672MOL0     O90615   7.745   3.777   2.309 -0.1389 -0.6653  0.4878
  672MOL0     C90616   7.787   3.893   2.348 -0.5762  0.4160 -0.8654
  672MOL0     C90617   7.883   3.916   2.445 -0.4390  0.3188 -1.1725
  672MOL0     C90618   7.898   4.038   2.507 -0.0294  0.2200  0.1697
  672MOL0     C90619   7.823   4.150   2.476  0.3234  0.2193 -0.8142
  672MOL0     O90620   7.848   4.256   2.560 -0.0388 -0.1589  0.4911
  672MOL0     C90621   7.915   4.359   2.493  0.2563 -1.2340 -0.8156
  672MOL0     C90622   7.979   4.453   2.599  0.1117  0.6366 -0.2189
  672MOL0     C90623   7.888   4.503   2.712  1.4124  0.3576 -0.1096
  672MOL0     C90624   7.976   4.571   2.827 -0.5699  1.4977  0.0321
  672MOL0     C90625   7.894   4.643   2.930 -0.4078  0.2032 -0.1954
  672MOL0     C90626   7.834   4.534   3.030  0.7802 -0.5709  0.4039
  672MOL0     C90627   7.768   4.590   3.156 -0.4453  0.0981  0.2303
  672MOL0     C90628   7.862   4.602   3.276 -0.0816  0.0166  0.2035
  672MOL0    Cl90629   7.945   4.757   3.256 -0.2711 -0.3026  0.0385
  672MOL0     C90630   7.731   4.136   2.373  0.0926 -0.4396  0.8013
  672MOL0     C90631   7.709   4.005   2.316 -0.0540  0.3407  0.1254
  672MOL0     O90632   7.945   3.669   2.277  0.1399  0.8664 -0.1839
  672MOL0     C90633   7.825   3.419   2.242 -1.3192  0.1886 -0.1857
  672MOL0     C90634   7.765   3.293   2.252 -0.2196  0.0222  0.1072
  672MOL0     N90635   7.337   2.684   1.774  0.0037 -0.3804 -0.1887
  672MOL0     N90636   7.362   2.561   1.744  0.6903 -0.0385 -0.3151
  672MOL0     C90637   7.703   1.958   0.891  0.6366 -0.1430 -0.3345
  672MOL0     C90638   7.703   2.002   0.758 -0.6656 -0.1305  0.3338
  672MOL0     C90639   7.392   1.950   0.419 -0.5662  0.4691 -0.1200
  672MOL0     C90640   7.299   1.838   0.395 -0.5196  0.0019  0.5901
  672MOL0     C90641   7.162   1.857   0.377 -1.9604 -0.1239 -0.0369
  672MOL0     C90642   7.124   1.985   0.406  0.2702  0.3970 -0.2644
  672MOL0     O90643   6.986   2.015   0.392 -0.0862 -0.3089 -0.2411
  672MOL0     C90644   6.926   2.033   0.528  0.4741  0.2875 -0.0554
  672MOL0     C90645   6.779   2.068   0.528 -0.8284  0.0317  0.0485
  672MOL0     C90646   6.714   2.087   0.670 -0.1846  0.2352  0.3841
  672MOL0     C90647   6.772   2.222   0.748  0.3348  1.6371  0.9064
  672MOL0     C90648   6.714   2.239   0.880  0.2947  0.2489  0.5054
  672MOL0     C90649   6.675   2.231   0.996  0.0955 -0.8191 -0.5173
  672MOL0     C90650   7.208   2.097   0.430 -0.3970 -0.1098 -0.5847
  672MOL0     C90651   7.343   2.082   0.443 -0.0230 -0.7156  0.8073
  672MOL0     C90652   7.422   2.200   0.464  0.6911 -0.0355 -0.3618
  672MOL0     H90653   7.413   1.836   0.670 -1.7204  0.1531  0.9858
  672MOL0     H90654   7.410   1.782   0.909  0.8159  0.3789  0.8824
  672MOL0     H90655   7.492   2.019   1.113 -0.2903 -0.7963 -1.8646
  672MOL0     H90656   7.411   1.871   1.152 -0.4220  1.9181  1.2074
  672MOL0     H90657   7.596   1.830   1.322  0.4251 -0.7782 -0.8600
  672MOL0     H90658   7.502   1.973   1.372  0.1291  0.7327 -0.1570
  672MOL0     H90659   7.671   2.100   1.219 -1.9741 -1.9349 -1.5095
  672MOL0     H90660   7.783   1.966   1.235  0.3081 -0.8657  0.7747
  672MOL0     H90661   7.705   1.991   1.503 -0.1527  0.8358  0.7623
  672MOL0     H90662   7.844   2.086   1.445  0.0502 -1.7156  2.7266
  672MOL0     H90663   7.703   2.279   1.387 -0.1328 -0.1598 -0.7416
  672MOL0     H90664   7.559   2.170   1.414  0.6246 -3.2696 -0.3164
  672MOL0     H90665   7.593   2.188   1.643 -0.2967 -0.3573 -2.6233
  672MOL0     H90666   7.752   2.277   1.629  1.4643 -0.5811 -1.5543
  672MOL0     H90667   7.478   2.371   1.546 -0.6257  1.2457 -1.0882
  672MOL0     H90668   7.640   2.456   1.524 -0.7339  1.5510  0.4651
  672MOL0     H90669   7.515   2.354   1.790 -0.0186 -0.3293 -0.5433
  672MOL0     H90670   7.668   2.440   1.774  0.8963  2.5930 -1.9494
  672MOL0     H90671   7.651   2.680   1.864  0.3448 -3.7681  0.4081
  672MOL0     H90672   7.362   2.928   1.878 -0.2866  0.7385  1.9676
  672MOL0     H90673   7.421   2.855   2.018 -0.4587  1.2569  0.5527
  672MOL0     H90674   7.662   2.893   1.924  0.3070  0.4042 -1.3003
  672MOL0     H90675   7.584   2.964   1.782  1.0826 -0.5419  0.2823
  672MOL0     H90676   7.460   3.132   1.964 -0.0999  1.9712  0.0438
  672MOL0     H90677   7.618   3.164   1.905 -0.0345  1.5216  1.0043
  672MOL0     H90678   7.727   3.058   2.116  0.4162 -2.6482 -2.9904
  672MOL0     H90679   7.585   2.970   2.147  0.1691 -1.8120 -3.3002
  672MOL0     H90680   7.450   3.387   2.215 -0.0189 -1.3319 -0.2993
  672MOL0     H90681   7.533   3.613   2.249 -0.3802  1.6576 -2.6541
  672MOL0     H90682   7.933   3.826   2.478 -1.9232  0.2342  1.0003
  672MOL0     H90683   7.971   4.049   2.586 -1.1186  2.4430  0.9446
  672MOL0     H90684   7.994   4.321   2.427 -0.0321  0.7415 -2.4106
  672MOL0     H90685   7.844   4.432   2.452  1.7860  0.7726 -0.0675
  672MOL0     H90686   8.075   4.418   2.637 -0.2596  0.6119  0.7037
  672MOL0     H90687   7.997   4.547   2.545  0.3329  2.7848  3.3102
  672MOL0     H90688   7.822   4.582   2.675  2.0614  1.2844  0.6553
  672MOL0     H90689   7.832   4.422   2.762 -1.5714  1.5527 -1.2655
  672MOL0     H90690   8.046   4.634   2.772  3.4896  0.5477  3.5893
  672MOL0     H90691   8.037   4.503   2.887  1.5831 -0.1782 -3.6998
  672MOL0     H90692   7.812   4.688   2.874  1.4049  4.0297 -0.0920
  672MOL0     H90693   7.954   4.716   2.985  0.2167  2.5938 -3.7115
  672MOL0     H90694   7.745   4.500   2.977  0.5670  2.4851 -1.4458
  672MOL0     H90695   7.905   4.458   3.064  2.0615  0.3985 -0.0100
  672MOL0     H90696   7.693   4.516   3.184 -1.4159  0.3568 -1.4854
  672MOL0     H90697   7.711   4.681   3.135  0.3500 -0.0951 -3.5363
  672MOL0     H90698   7.808   4.589   3.371 -0.5922 -3.4113 -0.4310
  672MOL0     H90699   7.939   4.526   3.267 -0.2043 -0.6099  3.2179
  672MOL0     H90700   7.693   4.228   2.328  0.1511 -0.5583  0.5083
  672MOL0     H90701   7.628   3.995   2.244 -0.5823  3.0687  0.2376
  672MOL0     H90702   7.932   3.434   2.237 -1.4450  0.8286 -1.4074
  672MOL0     H90703   7.830   3.208   2.264  2.8011  2.3185  1.1527
  672MOL0     H90704   7.773   2.008   0.958  0.7335  2.1518 -2.0151
  672MOL0     H90705   7.781   2.063   0.711 -1.8727  2.6261  1.7022
  672MOL0     H90706   7.334   1.735   0.393 -1.2562 -0.2897  1.8413
  672MOL0     H90707   7.115   1.761   0.360 -0.6710 -0.7835 -0.0641
  672MOL0     H90708   6.975   2.106   0.593 -0.0466 -0.6018  1.3790
  672MOL0     H90709   6.926   1.943   0.590 -1.9918  1.4167  1.7600
  672MOL0     H90710   6.722   1.988   0.478 -5.8025  2.2066  1.5394
  672MOL0     H90711   6.754   2.162   0.477  1.3476  2.0745  2.4868
  672MOL0     H90712   6.739   1.997   0.728 -2.4631 -1.3927 -0.9685
  672MOL0     H90713   6.606   2.104   0.658  0.0009  0.8339 -0.5128
  672MOL0     H90714   6.881   2.220   0.752  0.4225 -2.4098  1.1617
  672MOL0     H90715   6.732   2.303   0.687 -1.6873 -0.4833 -0.8024
  672MOL0     H90716   6.654   2.215   1.100  2.2644 -4.7528 -0.5123
  672MOL0     H90717   7.168   2.196   0.451  0.0024 -0.0957  0.1363
  672MOL0     H90718   7.362   2.291   0.476 -0.6612 -0.9317 -0.1240
  672MOL0     H90719   7.481   2.190   0.556  0.8632  2.3214 -0.1440
  672MOL0     H90720   7.486   2.211   0.377  0.2121 -1.4006 -0.8999
  673MOL0     O90721   7.943   9.285   2.893  0.9435 -0.1027  0.5911
  673MOL0     C90722   8.059   9.281   2.955  0.2537 -0.7125 -0.7728
  673MOL0     O90723   8.141   9.167   2.971  0.2545  0.5251  0.4219
  673MOL0     C90724   8.132   9.075   2.871 -0.8999 -0.5522 -0.4946
  673MOL0     C90725   8.239   9.054   2.791 -0.0790 -0.0236 -0.2972
  673MOL0     C90726   8.231   8.988   2.672  0.0872  0.6553  0.3316
  673MOL0     C90727   8.112   8.917   2.632  0.4050  0.0194  0.6671
  673MOL0     O90728   8.124   8.845   2.516 -1.0175  0.6736 -0.4177
  673MOL0     C90729   8.006   8.848   2.428 -0.4969 -0.7337  1.0860
  673MOL0     C90730   7.915   8.719   2.445 -0.1902 -0.3587  0.7207
  673MOL0     C90731   7.934   8.608   2.336  0.5032  0.0976  0.0810
  673MOL0     C90732   8.071   8.537   2.326 -0.4965 -0.1521  0.1648
  673MOL0     C90733   8.112   8.449   2.450 -0.1033 -0.0252 -0.0018
  673MOL0     C90734   8.012   8.337   2.481  0.2024 -0.6201 -0.1244
  673MOL0     C90735   8.088   8.204   2.520 -0.9036 -0.7760  0.1974
  673MOL0     C90736   7.998   8.096   2.540 -0.3405  0.3525  0.1445
  673MOL0     N90737   7.917   8.117   2.663 -0.1274  0.3372 -0.3627
  673MOL0     C90738   7.782   8.099   2.667  0.4507  0.0471 -0.8487
  673MOL0     C90739   7.743   8.095   2.796 -1.2458 -0.6055  0.5768
  673MOL0     C90740   7.601   8.080   2.844 -0.4155 -0.3982  0.4883
  673MOL0     C90741   7.591   8.031   2.987  0.7393  0.0447 -0.0993
  673MOL0     C90742   7.435   8.017   3.025 -1.1508  0.4608  0.7084
  673MOL0     C90743   7.377   8.152   3.066  0.2145 -0.0056 -0.4800
  673MOL0     O90744   7.237   8.125   3.068 -0.5156 -1.1172  0.3986
  673MOL0     C90745   7.151   8.125   2.965 -0.0472  0.5283 -0.0087
  673MOL0     C90746   7.020   8.082   2.999 -0.9314 -0.5686 -0.4259
  673MOL0     C90747   6.918   8.065   2.899  1.0233  0.4892  0.2002
  673MOL0     C90748   6.942   8.106   2.771  0.3316  0.3796 -0.1399
  673MOL0     C90749   6.835   8.112   2.673  0.0971  0.6058  0.2974
  673MOL0     O90750   6.714   8.072   2.720 -0.1316 -0.5435 -0.3248
  673MOL0     C90751   6.639   7.978   2.645 -0.1458  0.3456 -1.2680
  673MOL0     C90752   6.672   7.917   2.523 -0.1877  0.2044 -0.0372
  673MOL0     C90753   6.588   7.826   2.456  0.3394  0.1791 -0.8786
  673MOL0     C90754   6.462   7.787   2.501  0.3029 -0.0709  0.8873
  673MOL0     O90755   6.384   7.690   2.454 -0.6374 -0.7942  1.1861
  673MOL0     C90756   6.390   7.655   2.321  0.0109 -0.0684 -0.3479
  673MOL0     C90757   6.313   7.528   2.302 -0.0283  0.7721 -0.8118
  673MOL0     C90758   6.368   7.460   2.177 -0.0988  0.7744  0.7937
  673MOL0     C90759   6.276   7.340   2.139 -0.0292  1.0216  0.5369
  673MOL0     C90760   6.344   7.251   2.032  0.3405  0.9164 -0.2199
  673MOL0     C90761   6.484   7.204   2.069  0.7209  0.8003 -0.6985
  673MOL0     C90762   6.518   7.089   1.975 -0.4070  0.3132 -0.3628
  673MOL0     C90763   6.655   7.028   2.004 -0.1849 -0.4002 -0.5138
  673MOL0    Cl90764   6.662   6.970   2.171  0.0051  0.1316 -0.4967
  673MOL0     C90765   6.432   7.841   2.627 -0.4641  0.0368  0.5885
  673MOL0     C90766   6.514   7.933   2.693 -0.4966 -1.3382  0.2322
  673MOL0     O90767   6.855   8.149   2.559  0.5817  0.1808 -0.1195
  673MOL0     C90768   7.075   8.139   2.731 -0.9823 -0.6850 -0.0429
  673MOL0     C90769   7.177   8.151   2.828 -0.4091 -0.1735 -0.9496
  673MOL0     N90770   7.865   8.113   2.874  0.1501 -0.1387  0.2873
  673MOL0     N90771   7.962   8.114   2.790  0.2522  0.4308  0.0997
  673MOL0     C90772   8.009   8.913   2.730 -0.2221  0.3309 -0.8281
  673MOL0     C90773   8.012   8.999   2.844 -0.1124 -0.0178 -0.0275
  673MOL0     C90774   8.107   9.407   3.027  0.1362  1.3478 -0.2579
  673MOL0     C90775   8.237   9.392   3.087  0.1012  0.7762 -0.0706
  673MOL0     C90776   8.307   9.503   3.139 -0.2528  0.1192 -0.0856
  673MOL0     C90777   8.239   9.625   3.150  0.5358  0.0761  0.0062
  673MOL0     O90778   8.282   9.738   3.214 -0.0798 -0.4329  0.5067
  673MOL0     C90779   8.411   9.722   3.286 -0.5143  0.5607  0.5473
  673MOL0     C90780   8.432   9.855   3.347  0.6127 -0.4670 -0.2253
  673MOL0     C90781   8.322   9.915   3.442 -0.2040  0.7042 -0.5007
  673MOL0     C90782   8.296  10.061   3.408 -0.1422 -0.4771  0.2503
  673MOL0     C90783   8.236  10.127   3.525 -0.4986  0.2316  0.4327
  673MOL0     C90784   8.210  10.186   3.620 -0.3731 -0.4794 -0.4882
  673MOL0     C90785   8.112   9.637   3.089  0.4690 -0.0915  0.2667
  673MOL0     C90786   8.042   9.533   3.024 -0.0045  0.6807  0.1033
  673MOL0     C90787   7.909   9.564   2.963  0.3922 -1.3763 -0.2851
  673MOL0     H90788   8.326   9.117   2.808  0.0531 -0.0027 -1.0045
  673MOL0     H90789   8.307   8.984   2.594 -0.0413  0.3748  0.2201
  673MOL0     H90790   7.956   8.938   2.466  0.7264 -0.4395  2.0856
  673MOL0     H90791   8.042   8.864   2.326 -1.0633 -0.8083  0.8746
  673MOL0     H90792   7.814   8.759   2.430  0.0397  0.1015  0.3793
  673MOL0     H90793   7.928   8.681   2.547 -1.4037 -0.7007  0.7698
  673MOL0     H90794   7.910   8.648   2.237  0.8450  0.8658  0.3072
  673MOL0     H90795   7.860   8.529   2.354 -2.1698  2.2945 -0.6600
  673MOL0     H90796   8.085   8.488   2.229  0.2829  0.0124  0.1831
  673MOL0     H90797   8.145   8.617   2.318  1.3160 -1.9296 -3.4465
  673MOL0     H90798   8.205   8.400   2.421  0.9558  1.3039  1.0176
  673MOL0     H90799   8.117   8.508   2.542 -0.9718  2.2319 -1.3206
  673MOL0     H90800   7.941   8.363   2.561 -0.5732 -2.3982 -0.1808
  673MOL0     H90801   7.944   8.334   2.395 -2.6456  1.7377  1.8606
  673MOL0     H90802   8.146   8.221   2.610  0.1739  0.9432 -0.7599
  673MOL0     H90803   8.152   8.173   2.437 -0.8922  1.1146 -0.5566
  673MOL0     H90804   7.931   8.072   2.457 -0.0620  0.3379 -0.0768
  673MOL0     H90805   8.058   8.005   2.548 -0.6299  0.2084  0.7430
  673MOL0     H90806   7.713   8.082   2.585 -1.7567 -1.7053  1.2173
  673MOL0     H90807   7.556   8.179   2.828  2.5117  0.5163 -3.6203
  673MOL0     H90808   7.557   8.010   2.772 -0.5685 -1.7561  1.8552
  673MOL0     H90809   7.650   7.941   3.009 -1.1084 -0.5823  2.7113
  673MOL0     H90810   7.629   8.107   3.056 -0.1456  0.9455 -0.5767
  673MOL0     H90811   7.430   7.947   3.109 -0.4730 -0.8021 -0.2707
  673MOL0     H90812   7.391   7.974   2.935 -1.0036  0.0388  0.8342
  673MOL0     H90813   7.410   8.229   2.995 -0.5461  0.6308 -0.1571
  673MOL0     H90814   7.419   8.169   3.166  0.5236  1.2103 -0.7990
  673MOL0     H90815   7.001   8.061   3.103  0.6768 -2.1864 -0.4174
  673MOL0     H90816   6.816   8.039   2.927  1.5636 -2.9741 -0.5478
  673MOL0     H90817   6.759   7.954   2.471  0.7662  0.1953  1.5030
  673MOL0     H90818   6.626   7.783   2.364  0.2813 -0.8967 -0.4163
  673MOL0     H90819   6.341   7.739   2.271 -0.8643 -1.4031 -1.8273
  673MOL0     H90820   6.493   7.649   2.283  0.4573 -2.6937  1.0718
  673MOL0     H90821   6.315   7.455   2.383  2.3804 -0.7419 -2.1084
  673MOL0     H90822   6.213   7.567   2.280 -1.2248 -0.7630  1.5133
  673MOL0     H90823   6.367   7.518   2.084 -2.0295 -2.0232 -1.0912
  673MOL0     H90824   6.469   7.422   2.197 -0.1730 -0.9375 -1.6656
  673MOL0     H90825   6.179   7.378   2.105 -2.3589 -3.7153  1.0900
  673MOL0     H90826   6.267   7.274   2.226  1.8220 -2.5712 -1.7257
  673MOL0     H90827   6.348   7.304   1.936  2.1017  1.5124  0.1551
  673MOL0     H90828   6.281   7.166   2.004  3.1786 -1.4963  0.2380
  673MOL0     H90829   6.552   7.289   2.063  0.6238  0.9743  0.3753
  673MOL0     H90830   6.483   7.171   2.174 -1.2792  0.7282 -0.6944
  673MOL0     H90831   6.514   7.128   1.873 -1.3440 -0.6662 -0.7207
  673MOL0     H90832   6.439   7.013   1.973 -0.6307  0.5367  0.0101
  673MOL0     H90833   6.676   6.954   1.926 -1.3493  3.0627 -4.5129
  673MOL0     H90834   6.722   7.114   1.994 -1.4898  0.8265  0.7623
  673MOL0     H90835   6.342   7.814   2.681  0.1670 -2.4953  0.5050
  673MOL0     H90836   6.483   7.974   2.789  0.1768  1.3018 -0.5912
  673MOL0     H90837   7.094   8.163   2.627  0.4120 -1.6238 -0.0267
  673MOL0     H90838   7.272   8.194   2.798 -1.0398  1.7402 -0.4131
  673MOL0     H90839   7.924   8.847   2.715 -0.5333  0.9256 -1.7632
  673MOL0     H90840   7.931   9.003   2.917 -0.6604 -0.7740 -0.5885
  673MOL0     H90841   8.286   9.296   3.084  0.4836  0.9153  1.2385
  673MOL0     H90842   8.408   9.497   3.179  0.3550 -0.2850 -1.6478
  673MOL0     H90843   8.492   9.699   3.215 -1.4916 -0.8343 -0.1758
  673MOL0     H90844   8.406   9.640   3.358  1.6684  1.2864  1.6038
  673MOL0     H90845   8.441   9.927   3.264 -3.0669  2.5304  1.6664
  673MOL0     H90846   8.527   9.852   3.402 -0.5047 -0.4984  1.7926
  673MOL0     H90847   8.358   9.912   3.545 -0.1904  1.1978 -0.4906
  673MOL0     H90848   8.232   9.853   3.429 -0.8745  1.3475  0.8725
  673MOL0     H90849   8.387  10.114   3.380  0.4605 -1.9037 -0.5779
  673MOL0     H90850   8.232  10.070   3.320  1.0441  0.3289 -0.5542
  673MOL0     H90851   8.198  10.247   3.707 -0.0075 -1.7075  0.4434
  673MOL0     H90852   8.063   9.734   3.082 -1.4628 -0.9541  1.2320
  673MOL0     H90853   7.870   9.663   2.989 -0.1435 -1.2554 -1.4886
  673MOL0     H90854   7.916   9.558   2.854 -0.2777 -0.1881 -0.4117
  673MOL0     H90855   7.842   9.484   2.997  0.2446 -1.3514 -0.5221
  674MOL0     O90856   1.925   5.907   0.217 -1.2442 -0.3557  0.4115
  674MOL0     C90857   2.003   5.990   0.272  0.3307  0.1986 -0.1706
  674MOL0     O90858   2.141   6.003   0.251  0.0892 -0.1917 -0.5120
  674MOL0     C90859   2.222   5.914   0.191 -0.8156  0.4931 -0.1105
  674MOL0     C90860   2.183   5.830   0.085  0.7071 -0.4254 -0.4952
  674MOL0     C90861   2.280   5.735   0.032 -0.0597 -0.4643 -0.7538
  674MOL0     C90862   2.416   5.728   0.069  0.1836  0.2529 -0.0803
  674MOL0     O90863   2.498   5.627   0.021 -0.5360 -0.1005 -0.6260
  674MOL0     C90864   2.644   5.642   0.031  0.3333 -0.5832  0.9436
  674MOL0     C90865   2.690   5.502   0.035  0.9681  1.3507 -1.0178
  674MOL0     C90866   2.841   5.494   0.014  0.2176 -0.3787  0.0995
  674MOL0     C90867   2.888   5.355  -0.004  0.6589  1.0384  0.5334
  674MOL0     C90868   3.035   5.351  -0.030  0.6077  0.4077 -0.0118
  674MOL0     C90869   3.066   5.215  -0.096 -0.9426  0.3812  0.1567
  674MOL0     C90870   3.216   5.183  -0.100 -0.3066 -0.4014 -0.1323
  674MOL0     C90871   3.276   5.159   0.040  0.0891  0.2697 -0.4979
  674MOL0     N90872   3.213   5.038   0.098  0.7822  0.9491  0.1174
  674MOL0     C90873   3.249   4.911   0.072 -0.2597 -0.2479 -0.5391
  674MOL0     C90874   3.178   4.831   0.156  0.4382 -0.7825 -0.1230
  674MOL0     C90875   3.185   4.673   0.158  0.3411 -0.4918 -0.5708
  674MOL0     C90876   3.330   4.634   0.209 -0.4064 -0.2492  1.1018
  674MOL0     C90877   3.338   4.479   0.220  0.0010 -0.2469 -0.3400
  674MOL0     C90878   3.285   4.393   0.098 -0.9130  0.0748  0.6142
  674MOL0     O90879   3.347   4.439  -0.025  0.0588 -0.0281  0.3003
  674MOL0     C90880   3.468   4.386  -0.069  0.5737  0.1280  0.3580
  674MOL0     C90881   3.513   4.402  -0.200 -0.0189 -0.5724 -0.0194
  674MOL0     C90882   3.637   4.353  -0.243  0.2634  0.3485 -0.3298
  674MOL0     C90883   3.722   4.263  -0.164 -0.0493 -0.8892  0.1883
  674MOL0     C90884   3.835   4.196  -0.223  0.5164 -0.3025 -0.5420
  674MOL0     O90885   3.860   4.215  -0.361 -0.6055  0.0261  0.2309
  674MOL0     C90886   3.966   4.153  -0.419 -1.1820  0.3802 -0.1137
  674MOL0     C90887   4.080   4.231  -0.445  0.1024  0.1290 -0.0420
  674MOL0     C90888   4.186   4.178  -0.517  0.0113  0.7509  0.5073
  674MOL0     C90889   4.183   4.047  -0.577 -0.6324  0.0635  0.0502
  674MOL0     O90890   4.289   3.998  -0.652  0.0899  0.1836  0.1967
  674MOL0     C90891   4.278   3.911  -0.764  0.1522 -0.2398  0.2413
  674MOL0     C90892   4.229   3.991  -0.893 -0.6697  0.7337  0.2769
  674MOL0     C90893   4.087   4.046  -0.875  0.1701  0.3698  0.5981
  674MOL0     C90894   4.046   4.132  -0.997 -0.3152 -0.8470  0.6250
  674MOL0     C90895   3.934   4.233  -0.962 -0.1199  0.1758 -0.8982
  674MOL0     C90896   3.872   4.272  -1.095 -0.6808 -0.4887 -0.0328
  674MOL0     C90897   3.947   4.378  -1.176  0.0225 -0.5758 -0.0959
  674MOL0     C90898   3.854   4.477  -1.258 -0.8109 -0.0787 -0.9056
  674MOL0    Cl90899   3.743   4.392  -1.363 -0.1447  0.1638 -0.0248
  674MOL0     C90900   4.071   3.969  -0.548  0.9158 -0.0146 -0.3406
  674MOL0     C90901   3.965   4.024  -0.470  0.1111  0.0761  1.1441
  674MOL0     O90902   3.892   4.112  -0.149  0.0191  0.3656  0.5412
  674MOL0     C90903   3.671   4.249  -0.028 -0.0348  0.2699  0.3037
  674MOL0     C90904   3.549   4.309   0.013  0.0221  0.6145 -0.3248
  674MOL0     N90905   3.097   4.912   0.233 -0.6365 -0.3334  0.1616
  674MOL0     N90906   3.124   5.034   0.200 -0.4453 -0.4760 -0.7637
  674MOL0     C90907   2.456   5.833   0.164 -0.5312 -0.4134 -0.2312
  674MOL0     C90908   2.362   5.919   0.222  0.0708  0.4894  0.8240
  674MOL0     C90909   1.943   6.095   0.359 -0.2800 -0.1694  1.4319
  674MOL0     C90910   1.982   6.231   0.334  0.6801  0.1309  0.1121
  674MOL0     C90911   1.935   6.336   0.404 -0.3034 -0.3982  0.2401
  674MOL0     C90912   1.847   6.309   0.506  0.4431  0.4460 -0.4195
  674MOL0     O90913   1.790   6.416   0.574  0.3561 -0.2081  0.3848
  674MOL0     C90914   1.709   6.410   0.694 -0.7411  0.9726  0.5694
  674MOL0     C90915   1.689   6.546   0.758 -0.5119 -0.4955 -0.7919
  674MOL0     C90916   1.810   6.634   0.783  0.3146  0.0009  0.1467
  674MOL0     C90917   1.907   6.569   0.880 -0.2123 -0.4225  0.2666
  674MOL0     C90918   1.846   6.567   1.013 -0.5115  0.2733  0.1418
  674MOL0     C90919   1.789   6.577   1.116  0.0213 -0.8285 -1.0437
  674MOL0     C90920   1.811   6.178   0.536 -0.1549 -0.1951 -0.7822
  674MOL0     C90921   1.859   6.073   0.468  1.0813  1.3207 -0.6138
  674MOL0     C90922   1.816   5.934   0.518  0.0549  0.2023 -0.2653
  674MOL0     H90923   2.084   5.825   0.041  1.2564 -1.1225 -1.6960
  674MOL0     H90924   2.237   5.663  -0.036  3.0615 -1.1221 -2.1992
  674MOL0     H90925   2.681   5.691  -0.060  0.3456 -1.2385  0.5920
  674MOL0     H90926   2.672   5.700   0.120 -0.8408  3.3824 -0.9997
  674MOL0     H90927   2.654   5.444  -0.050  1.9880  0.6766 -1.0086
  674MOL0     H90928   2.660   5.460   0.131 -1.6498  0.2999 -2.2094
  674MOL0     H90929   2.895   5.531   0.102  0.9689 -1.8270  0.2681
  674MOL0     H90930   2.874   5.551  -0.074 -1.0593  3.0689  1.6714
  674MOL0     H90931   2.872   5.287   0.079  5.3683 -0.2862  0.6276
  674MOL0     H90932   2.844   5.308  -0.092  0.1905  1.4191  0.5617
  674MOL0     H90933   3.078   5.436  -0.084  0.9058  2.5880  3.3495
  674MOL0     H90934   3.077   5.367   0.070  0.3737  1.3864 -0.0619
  674MOL0     H90935   3.007   5.132  -0.057 -3.3299  0.4566 -2.8569
  674MOL0     H90936   3.044   5.220  -0.203  2.1263  0.5493 -0.5522
  674MOL0     H90937   3.258   5.272  -0.148 -2.9561  2.1952  1.9810
  674MOL0     H90938   3.238   5.099  -0.166  1.9361  0.8853 -1.1224
  674MOL0     H90939   3.384   5.141   0.035  0.1838 -2.7896  5.0216
  674MOL0     H90940   3.267   5.250   0.099 -2.7236  0.5981 -1.2855
  674MOL0     H90941   3.327   4.874   0.007  1.7444  1.4444  0.7914
  674MOL0     H90942   3.111   4.632   0.227  0.9576  1.0135  1.0665
  674MOL0     H90943   3.153   4.641   0.059  0.3130  0.6763 -0.9610
  674MOL0     H90944   3.399   4.663   0.130 -0.0612  3.5574  2.5991
  674MOL0     H90945   3.344   4.694   0.299 -0.3951 -0.0063  0.9372
  674MOL0     H90946   3.278   4.447   0.306  2.3003 -1.8269  0.7670
  674MOL0     H90947   3.440   4.446   0.239  0.1918 -0.6281 -1.8693
  674MOL0     H90948   3.178   4.401   0.078 -0.8976  0.0345  0.5168
  674MOL0     H90949   3.313   4.289   0.121  2.8941  0.8154  0.0469
  674MOL0     H90950   3.460   4.466  -0.270 -0.7805 -2.7978 -1.6134
  674MOL0     H90951   3.670   4.377  -0.343  1.2620 -2.0206 -0.6504
  674MOL0     H90952   4.094   4.329  -0.401  1.8195 -0.3108  0.5012
  674MOL0     H90953   4.275   4.239  -0.530  1.7517 -1.0682  2.9390
  674MOL0     H90954   4.369   3.853  -0.781 -0.7755 -1.3188 -1.3045
  674MOL0     H90955   4.213   3.833  -0.722 -1.7663  0.8496 -0.5447
  674MOL0     H90956   4.295   4.078  -0.904 -0.9834  0.8701 -0.5818
  674MOL0     H90957   4.243   3.924  -0.978 -1.4142  0.6135  0.2414
  674MOL0     H90958   4.018   3.963  -0.857  0.7123 -1.0113 -2.8572
  674MOL0     H90959   4.087   4.113  -0.788  1.1432  0.6205  0.4113
  674MOL0     H90960   4.019   4.067  -1.081  0.6908  0.7967 -1.0687
  674MOL0     H90961   4.131   4.193  -1.031  2.2470 -3.7297  1.3786
  674MOL0     H90962   3.964   4.320  -0.903  0.9470  0.0206 -1.1946
  674MOL0     H90963   3.847   4.184  -0.917 -0.5012  0.5996 -1.1576
  674MOL0     H90964   3.847   4.184  -1.155  1.2612 -1.4122  0.4485
  674MOL0     H90965   3.778   4.319  -1.064 -2.3076 -2.8002 -1.1955
  674MOL0     H90966   4.012   4.327  -1.247 -0.4611  0.1155 -1.0437
  674MOL0     H90967   4.000   4.446  -1.109 -0.5166  0.0009 -0.2504
  674MOL0     H90968   3.802   4.537  -1.184  2.1566  1.3053  0.1924
  674MOL0     H90969   3.909   4.558  -1.307 -3.1697  2.6163  0.6039
  674MOL0     H90970   4.056   3.871  -0.592 -2.2512 -0.3479  1.2586
  674MOL0     H90971   3.880   3.958  -0.459 -0.0571  0.0894 -0.0300
  674MOL0     H90972   3.722   4.185   0.043  0.0943  1.7240  1.5690
  674MOL0     H90973   3.530   4.299   0.120 -0.5749 -0.3702 -0.5170
  674MOL0     H90974   2.557   5.850   0.198 -0.2296 -0.6625 -0.9774
  674MOL0     H90975   2.405   6.003   0.275 -1.5733  0.9813  1.4565
  674MOL0     H90976   2.039   6.235   0.242  2.8722  2.2302  1.4570
  674MOL0     H90977   1.954   6.438   0.372 -1.5920 -0.9195 -2.4408
  674MOL0     H90978   1.747   6.340   0.769  0.6008  0.5199 -0.5119
  674MOL0     H90979   1.607   6.371   0.681  0.1650 -2.0522  1.5530
  674MOL0     H90980   1.624   6.533   0.845  0.4922 -0.4724 -0.0260
  674MOL0     H90981   1.622   6.605   0.695 -0.0030 -0.9028 -1.7378
  674MOL0     H90982   1.785   6.731   0.825  2.4189  0.2905  0.8578
  674MOL0     H90983   1.859   6.666   0.691  0.4306 -0.9062 -0.1168
  674MOL0     H90984   1.945   6.468   0.866  1.4889  0.5026 -2.6581
  674MOL0     H90985   1.999   6.627   0.867 -1.2169  0.9210 -1.2176
  674MOL0     H90986   1.741   6.595   1.210  0.8685 -0.5007 -0.6596
  674MOL0     H90987   1.764   6.161   0.632  0.6916 -0.7470 -0.4617
  674MOL0     H90988   1.714   5.914   0.483 -0.3198  3.5130 -1.3760
  674MOL0     H90989   1.887   5.862   0.475  0.4508  0.0670  0.5962
  674MOL0     H90990   1.838   5.923   0.624  0.2410  4.3853  0.2894
  675MOL0     O90991   6.160   0.016   4.527  0.2556 -1.8313  0.3267
  675MOL0     C90992   6.069  -0.049   4.471  0.0537 -0.3723  0.4890
  675MOL0     O90993   6.030  -0.167   4.513  0.2804 -0.6957  0.0696
  675MOL0     C90994   6.101  -0.235   4.609  0.8770  0.7825  0.2182
  675MOL0     C90995   6.040  -0.298   4.719  0.2474  0.2468  1.0943
  675MOL0     C90996   6.107  -0.367   4.826 -0.8818 -1.0538  0.3356
  675MOL0     C90997   6.245  -0.356   4.829 -0.7862  1.1100 -0.2956
  675MOL0     O90998   6.328  -0.411   4.928  0.4268  0.2594  0.0470
  675MOL0     C90999   6.259  -0.458   5.049  0.3491 -0.4273 -0.2594
  675MOL0     C91000   6.367  -0.500   5.148 -0.5724 -0.5925  0.2011
  675MOL0     C91001   6.455  -0.380   5.195  0.5525 -0.3671  0.6081
  675MOL0     C91002   6.544  -0.431   5.314  0.5286  0.6103  0.8196
  675MOL0     C91003   6.655  -0.532   5.273 -0.0017  0.1792 -0.2374
  675MOL0     C91004   6.757  -0.566   5.392  0.6910 -0.2823 -0.1346
  675MOL0     C91005   6.876  -0.657   5.379 -0.4967 -0.0947 -0.1307
  675MOL0     C91006   6.847  -0.796   5.429  0.4755  1.8501  1.0670
  675MOL0     N91007   6.889  -0.805   5.572 -0.6133  0.0158  1.1226
  675MOL0     C91008   6.820  -0.769   5.686 -0.5069 -0.3098  0.4524
  675MOL0     C91009   6.914  -0.794   5.787  0.3908  0.1526  1.1862
  675MOL0     C91010   6.899  -0.752   5.932 -0.2801  0.3154 -0.1441
  675MOL0     C91011   6.873  -0.602   5.970  0.6874 -0.1568 -0.9158
  675MOL0     C91012   6.817  -0.589   6.115  0.1714  0.4669  0.9822
  675MOL0     C91013   6.915  -0.606   6.238 -0.1622 -0.0541 -0.0685
  675MOL0     O91014   6.846  -0.615   6.365 -0.3089 -0.9049  0.5511
  675MOL0     C91015   6.914  -0.583   6.475 -0.1761 -0.1588  0.1869
  675MOL0     C91016   7.051  -0.608   6.494  0.2815 -0.6346 -0.5446
  675MOL0     C91017   7.119  -0.560   6.604  0.2850  0.4707  0.2660
  675MOL0     C91018   7.051  -0.482   6.703  0.5493  0.9784  0.4601
  675MOL0     C91019   7.123  -0.435   6.817  0.4623  0.1948  0.1996
  675MOL0     O91020   7.060  -0.419   6.936 -0.1046  0.1277 -0.1775
  675MOL0     C91021   7.145  -0.382   7.042  0.0415  0.5192 -0.1942
  675MOL0     C91022   7.137  -0.253   7.096  0.8126 -0.2258  1.4726
  675MOL0     C91023   7.220  -0.223   7.205  0.3959  0.0981 -0.4421
  675MOL0     C91024   7.320  -0.301   7.248  0.6257  0.7802  0.3239
  675MOL0     O91025   7.383  -0.260   7.367  0.1416 -0.1236 -0.1313
  675MOL0     C91026   7.511  -0.316   7.400  0.3018 -0.5126 -0.8606
  675MOL0     C91027   7.501  -0.434   7.488  0.7214 -0.2490  0.1002
  675MOL0     C91028   7.419  -0.400   7.618 -0.2253 -0.2038  0.5616
  675MOL0     C91029   7.437  -0.514   7.727  0.2519 -0.4940  0.4951
  675MOL0     C91030   7.561  -0.500   7.813 -0.0305  0.2896  0.3486
  675MOL0     C91031   7.570  -0.364   7.882  0.0447  0.3069 -0.0228
  675MOL0     C91032   7.667  -0.376   7.995  0.0720  0.0152 -0.7164
  675MOL0     C91033   7.678  -0.250   8.093 -0.1880  0.0292  0.6728
  675MOL0    Cl91034   7.514  -0.178   8.136 -0.1495  0.3463 -0.1996
  675MOL0     C91035   7.338  -0.421   7.184  0.5825 -1.1033 -0.3549
  675MOL0     C91036   7.243  -0.468   7.085 -0.0298 -0.1332 -0.4077
  675MOL0     O91037   7.238  -0.410   6.790  0.1002 -0.0330 -0.3391
  675MOL0     C91038   6.912  -0.466   6.679 -0.3449 -0.6147 -1.2130
  675MOL0     C91039   6.846  -0.515   6.573 -0.1422 -0.4368  0.3538
  675MOL0     N91040   7.021  -0.867   5.729  0.5072  0.1847 -0.7443
  675MOL0     N91041   7.001  -0.864   5.606 -0.2034 -0.7425  0.4240
  675MOL0     C91042   6.313  -0.306   4.715  0.5102  1.0614  0.1315
  675MOL0     C91043   6.241  -0.244   4.606 -0.1645 -0.3503 -0.8922
  675MOL0     C91044   6.002   0.032   4.371  0.3138  0.1909 -0.1337
  675MOL0     C91045   5.905   0.124   4.412  0.1689  0.5607 -0.2402
  675MOL0     C91046   5.863   0.205   4.317  0.5657 -0.2108 -0.0559
  675MOL0     C91047   5.908   0.209   4.189 -0.5715  0.7352  0.4163
  675MOL0     O91048   5.858   0.301   4.107 -0.4292 -0.3345  0.1025
  675MOL0     C91049   5.961   0.391   4.052 -1.1898  0.0728  0.5537
  675MOL0     C91050   5.917   0.532   4.022  0.8446 -0.5250 -0.5941
  675MOL0     C91051   5.843   0.592   4.148  0.0540 -0.5248 -0.5620
  675MOL0     C91052   5.701   0.554   4.176  0.4304  0.3867 -0.6624
  675MOL0     C91053   5.631   0.639   4.279  0.2234 -0.0168  0.1620
  675MOL0     C91054   5.567   0.698   4.363  0.0190 -0.6798 -0.3012
  675MOL0     C91055   6.006   0.116   4.148  0.3379 -1.0806  0.2037
  675MOL0     C91056   6.053   0.026   4.241  0.3833 -0.5662  0.5585
  675MOL0     C91057   6.139  -0.087   4.178  0.0017  0.5986 -0.0958
  675MOL0     H91058   5.934  -0.286   4.737 -0.3342 -2.5783  0.0569
  675MOL0     H91059   6.051  -0.397   4.914 -1.9043 -0.2502 -0.0175
  675MOL0     H91060   6.196  -0.380   5.092 -1.7414  0.1464 -3.9169
  675MOL0     H91061   6.189  -0.539   5.030 -0.5875  0.6684 -1.7172
  675MOL0     H91062   6.433  -0.571   5.096 -1.4784 -0.7942 -0.7030
  675MOL0     H91063   6.319  -0.546   5.235 -2.5368  1.3910  0.2406
  675MOL0     H91064   6.397  -0.292   5.226  3.8049  2.9636 -1.8765
  675MOL0     H91065   6.519  -0.348   5.112  0.8226 -0.5689  0.7412
  675MOL0     H91066   6.596  -0.343   5.353  3.0744 -0.0025 -0.9334
  675MOL0     H91067   6.487  -0.474   5.396  0.5133 -1.1959 -0.0820
  675MOL0     H91068   6.615  -0.624   5.229 -2.1456  0.9910 -0.1039
  675MOL0     H91069   6.705  -0.487   5.186 -1.0408  0.7451 -0.5553
  675MOL0     H91070   6.795  -0.473   5.434  0.9026 -1.1809  1.7546
  675MOL0     H91071   6.689  -0.600   5.471  0.1979 -1.6520 -1.1018
  675MOL0     H91072   6.957  -0.612   5.438 -0.1681  0.9929 -1.3749
  675MOL0     H91073   6.908  -0.660   5.275  0.5671  2.8210  0.0273
  675MOL0     H91074   6.745  -0.827   5.409  0.4884 -0.1934  3.6863
  675MOL0     H91075   6.912  -0.872   5.384 -0.6156 -0.0680  2.6465
  675MOL0     H91076   6.720  -0.725   5.679 -0.9836 -1.3564  0.5049
  675MOL0     H91077   6.822  -0.809   5.984 -1.9445  3.9653  1.8452
  675MOL0     H91078   6.998  -0.760   5.976  0.4269  2.3681 -1.2274
  675MOL0     H91079   6.963  -0.543   5.952  0.5147  0.7566  0.9681
  675MOL0     H91080   6.804  -0.566   5.893 -1.9152 -1.1477  0.7951
  675MOL0     H91081   6.747  -0.672   6.134  1.1549 -0.7054 -0.3436
  675MOL0     H91082   6.764  -0.493   6.109 -0.5226  0.0055 -2.1891
  675MOL0     H91083   6.980  -0.518   6.235  0.3996 -0.4745 -0.5554
  675MOL0     H91084   6.976  -0.695   6.220  1.1630  0.4993  1.4197
  675MOL0     H91085   7.107  -0.668   6.424 -0.8810 -1.7886 -0.5263
  675MOL0     H91086   7.222  -0.583   6.627  0.7672  2.6217  0.4563
  675MOL0     H91087   7.074  -0.173   7.061  1.6254 -0.3435 -0.3590
  675MOL0     H91088   7.209  -0.124   7.249 -0.4375 -0.5927  0.9598
  675MOL0     H91089   7.585  -0.347   7.326  1.6813  0.4976  0.0537
  675MOL0     H91090   7.566  -0.236   7.449 -3.5125  1.1704  1.0058
  675MOL0     H91091   7.446  -0.513   7.436  0.8107 -1.8897  2.3189
  675MOL0     H91092   7.598  -0.479   7.512 -0.5728 -3.2757  0.1394
  675MOL0     H91093   7.446  -0.300   7.654  3.0486 -1.5214  2.1977
  675MOL0     H91094   7.313  -0.408   7.594 -1.3994 -0.1738  4.9272
  675MOL0     H91095   7.450  -0.609   7.673  5.5217 -0.6909  1.5658
  675MOL0     H91096   7.348  -0.511   7.791  0.5597 -3.8780  1.3069
  675MOL0     H91097   7.654  -0.509   7.757  0.4120  1.6521  0.8286
  675MOL0     H91098   7.564  -0.581   7.886 -0.6528  1.0946  1.2904
  675MOL0     H91099   7.603  -0.287   7.812  0.0948  1.6424  1.4266
  675MOL0     H91100   7.473  -0.330   7.920 -0.1105 -1.1599  1.0111
  675MOL0     H91101   7.767  -0.406   7.965  1.3659  1.4420  1.7941
  675MOL0     H91102   7.633  -0.449   8.070 -1.6541  3.9850  2.7835
  675MOL0     H91103   7.735  -0.283   8.180 -0.2525 -3.0537 -0.3136
  675MOL0     H91104   7.744  -0.167   8.066 -1.0935 -0.0483 -2.1188
  675MOL0     H91105   7.407  -0.495   7.224 -1.1525 -4.4479 -3.0237
  675MOL0     H91106   7.250  -0.567   7.040  0.9048 -0.3127  0.1223
  675MOL0     H91107   6.855  -0.405   6.747  0.3195  1.7851 -2.6906
  675MOL0     H91108   6.739  -0.509   6.554 -0.6826 -2.8139  2.0636
  675MOL0     H91109   6.421  -0.322   4.713  0.2233 -1.0585 -1.0497
  675MOL0     H91110   6.296  -0.191   4.529 -0.5060 -2.0579 -2.3926
  675MOL0     H91111   5.886   0.147   4.517  0.2279  1.3539 -0.3957
  675MOL0     H91112   5.803   0.284   4.360 -0.1400  0.1825 -1.6875
  675MOL0     H91113   5.996   0.346   3.959  1.3533  0.2972  1.3115
  675MOL0     H91114   6.051   0.399   4.113 -2.2335  0.6429  2.0778
  675MOL0     H91115   5.855   0.525   3.932  0.0215 -1.4787  0.0175
  675MOL0     H91116   5.998   0.598   3.991 -1.8110  0.5086 -6.8502
  675MOL0     H91117   5.853   0.701   4.146 -0.1058 -0.4550  1.0311
  675MOL0     H91118   5.902   0.556   4.234 -1.2430  0.7199  0.9040
  675MOL0     H91119   5.633   0.555   4.090 -1.1235 -0.5082  0.5045
  675MOL0     H91120   5.698   0.452   4.213 -2.2074  1.5457  2.8805
  675MOL0     H91121   5.509   0.730   4.447  3.1598  3.5120  0.6118
  675MOL0     H91122   6.051   0.095   4.051  0.2965 -1.2939  0.2288
  675MOL0     H91123   6.246  -0.081   4.200 -0.3151  0.1757  1.6935
  675MOL0     H91124   6.107  -0.188   4.206  3.0965 -1.1525 -2.2251
  675MOL0     H91125   6.150  -0.083   4.069  0.7918  1.7784  0.0074
  676MOL0     O91126   4.998   7.084   0.495  0.5196 -0.4759  0.2336
  676MOL0     C91127   4.948   7.097   0.613 -0.2002 -0.5219 -0.0206
  676MOL0     O91128   4.833   7.171   0.635 -0.7749 -0.0746 -0.5253
  676MOL0     C91129   4.798   7.256   0.542  0.8437  0.3386 -0.7183
  676MOL0     C91130   4.886   7.363   0.500  0.6845  0.6092  0.7176
  676MOL0     C91131   4.842   7.454   0.408 -0.1695 -0.0889 -0.3174
  676MOL0     C91132   4.712   7.449   0.354  0.4835 -0.5739  0.0252
  676MOL0     O91133   4.674   7.540   0.255  0.4896  0.4028 -0.4621
  676MOL0     C91134   4.655   7.671   0.303  0.5294 -0.0145 -0.6941
  676MOL0     C91135   4.756   7.775   0.247 -0.0196 -0.8161 -0.7273
  676MOL0     C91136   4.711   7.911   0.289  0.0943  0.4459  1.3613
  676MOL0     C91137   4.824   8.024   0.279 -0.7099  0.9060  0.0673
  676MOL0     C91138   4.794   8.166   0.341  0.4254  1.1883  0.8859
  676MOL0     C91139   4.792   8.169   0.497  0.9719  0.3497  0.1519
  676MOL0     C91140   4.691   8.277   0.537 -0.5303 -0.3700 -0.0814
  676MOL0     C91141   4.716   8.318   0.683  0.3081 -0.3502  1.1903
  676MOL0     N91142   4.602   8.400   0.724  1.2868  0.0731 -0.1543
  676MOL0     C91143   4.475   8.340   0.730  0.1433  0.1261 -0.7226
  676MOL0     C91144   4.400   8.413   0.812 -0.5129 -0.0607  0.1740
  676MOL0     C91145   4.261   8.374   0.851  0.1548 -0.0355 -0.0507
  676MOL0     C91146   4.144   8.481   0.830  0.2423 -0.4298 -0.7265
  676MOL0     C91147   3.995   8.429   0.830  1.0434  0.5842  1.0461
  676MOL0     C91148   3.879   8.530   0.792  0.0608  0.4124 -0.3910
  676MOL0     O91149   3.877   8.650   0.878 -0.4058  0.1202 -0.2394
  676MOL0     C91150   3.844   8.627   1.016  0.0620 -0.3129  0.6219
  676MOL0     C91151   3.866   8.731   1.105 -0.0451  0.6012  0.6124
  676MOL0     C91152   3.830   8.720   1.243 -0.5403 -0.1687  0.1519
  676MOL0     C91153   3.768   8.607   1.297 -0.4849 -0.7260  0.6534
  676MOL0     C91154   3.733   8.602   1.441  0.1651 -0.9870  0.1232
  676MOL0     O91155   3.670   8.501   1.491  0.2387  0.1611  0.7108
  676MOL0     C91156   3.628   8.487   1.627 -0.8582  0.3562 -0.0995
  676MOL0     C91157   3.658   8.368   1.691  0.4411 -0.2844 -0.0339
  676MOL0     C91158   3.605   8.356   1.825 -0.6322 -0.1486 -0.0294
  676MOL0     C91159   3.535   8.456   1.888  1.0599  0.3025 -0.3742
  676MOL0     O91160   3.480   8.414   2.011 -0.1586 -0.1411 -0.7916
  676MOL0     C91161   3.453   8.521   2.102  0.0888 -0.2797  0.3623
  676MOL0     C91162   3.335   8.495   2.191  0.7681 -0.2504  0.1945
  676MOL0     C91163   3.205   8.469   2.117 -0.1515 -0.0305 -0.2131
  676MOL0     C91164   3.160   8.588   2.029  0.4063  0.3185 -0.5057
  676MOL0     C91165   3.038   8.542   1.958  0.5547 -0.0064  0.1500
  676MOL0     C91166   2.969   8.674   1.902  0.0781  0.2217  0.0480
  676MOL0     C91167   2.819   8.631   1.865  1.3581 -0.1522 -0.6112
  676MOL0     C91168   2.732   8.745   1.805 -1.2375  1.1076 -0.2745
  676MOL0    Cl91169   2.717   8.876   1.922  0.5240 -0.4708  0.3103
  676MOL0     C91170   3.512   8.575   1.813 -0.3247  0.1382  0.5570
  676MOL0     C91171   3.554   8.588   1.691 -0.5495 -0.3545  0.6160
  676MOL0     O91172   3.756   8.703   1.508 -0.3774  0.3682 -0.0563
  676MOL0     C91173   3.753   8.507   1.207  0.1603  0.5961  0.1123
  676MOL0     C91174   3.793   8.503   1.075 -0.2756  0.5391 -0.2452
  676MOL0     N91175   4.473   8.535   0.838  0.3970 -0.0205  0.2007
  676MOL0     N91176   4.595   8.511   0.797 -0.2742 -0.1873  0.5864
  676MOL0     C91177   4.625   7.356   0.396 -0.0402  0.9509  0.7120
  676MOL0     C91178   4.668   7.258   0.487  0.2982  0.2101  0.2225
  676MOL0     C91179   5.019   7.037   0.730  0.5612  0.3674  0.1143
  676MOL0     C91180   5.132   6.952   0.718  0.2663 -0.3944  0.0399
  676MOL0     C91181   5.210   6.901   0.820 -0.4472  0.2786  0.3111
  676MOL0     C91182   5.176   6.934   0.945 -0.4817  0.2730 -0.5440
  676MOL0     O91183   5.234   6.887   1.064  0.5171  0.5155 -0.0150
  676MOL0     C91184   5.373   6.846   1.050  0.0804  0.0846 -0.0190
  676MOL0     C91185   5.434   6.801   1.178  0.2032  0.2705  0.1086
  676MOL0     C91186   5.372   6.672   1.235  0.5114  0.3952 -0.1402
  676MOL0     C91187   5.438   6.630   1.359 -0.5054  0.3694 -0.2876
  676MOL0     C91188   5.362   6.531   1.448 -1.0396 -0.2645  0.6383
  676MOL0     C91189   5.285   6.458   1.510  0.8114 -0.5776 -0.6196
  676MOL0     C91190   5.059   7.003   0.966 -0.0312  0.3347  0.1126
  676MOL0     C91191   4.982   7.069   0.865 -1.0025 -0.5610  0.2275
  676MOL0     C91192   4.854   7.137   0.911  0.3331  0.8138  1.1302
  676MOL0     H91193   4.989   7.347   0.530  0.6776 -1.1844 -0.0755
  676MOL0     H91194   4.910   7.532   0.374  0.4145 -0.9488 -1.2015
  676MOL0     H91195   4.553   7.705   0.285 -0.0091 -2.2200 -2.1037
  676MOL0     H91196   4.682   7.678   0.409  2.9136  1.7398 -1.3377
  676MOL0     H91197   4.764   7.762   0.139 -2.3292 -2.4671 -0.7778
  676MOL0     H91198   4.853   7.762   0.294  1.6349  1.6581 -3.1371
  676MOL0     H91199   4.651   7.926   0.379  2.5515 -0.1466  3.2030
  676MOL0     H91200   4.653   7.954   0.206  0.1398 -0.9074  0.6058
  676MOL0     H91201   4.921   7.995   0.321 -1.0329 -1.9487 -0.9291
  676MOL0     H91202   4.846   8.030   0.173 -2.6333 -3.7170 -0.8249
  676MOL0     H91203   4.864   8.243   0.307  1.4497  0.1671  0.6226
  676MOL0     H91204   4.695   8.195   0.305  1.1222  0.6217 -1.6644
  676MOL0     H91205   4.743   8.082   0.541 -0.3920  0.8707 -0.2650
  676MOL0     H91206   4.895   8.183   0.531  0.9975  2.4030 -0.6054
  676MOL0     H91207   4.590   8.243   0.512 -0.0133  0.0475 -3.1848
  676MOL0     H91208   4.699   8.362   0.469 -2.5370 -1.8824 -2.3599
  676MOL0     H91209   4.729   8.239   0.757 -0.2700 -0.4412  1.1953
  676MOL0     H91210   4.804   8.383   0.689  2.3287 -3.0312  2.4729
  676MOL0     H91211   4.440   8.251   0.677 -1.9009  0.3785  0.1151
  676MOL0     H91212   4.227   8.277   0.813  0.7129 -0.0711 -0.4846
  676MOL0     H91213   4.265   8.352   0.958  0.1399 -0.1094 -0.0650
  676MOL0     H91214   4.155   8.557   0.907 -0.9031  0.1974 -1.1608
  676MOL0     H91215   4.156   8.540   0.738  2.4889  1.5477  0.7196
  676MOL0     H91216   3.974   8.391   0.931 -0.1653 -1.6312  0.0403
  676MOL0     H91217   3.982   8.342   0.764  1.2999  1.5435 -0.3095
  676MOL0     H91218   3.785   8.474   0.799  1.0986 -1.2328  1.6459
  676MOL0     H91219   3.894   8.550   0.685  2.2282  0.1424 -0.1860
  676MOL0     H91220   3.924   8.818   1.077 -1.3308  1.3738  0.2616
  676MOL0     H91221   3.855   8.797   1.315  4.0785 -1.7379  0.5211
  676MOL0     H91222   3.714   8.289   1.642  2.7068  0.8033  0.6748
  676MOL0     H91223   3.625   8.263   1.878 -0.8051  1.7167  3.6086
  676MOL0     H91224   3.545   8.534   2.160 -0.0408  0.1271  0.4831
  676MOL0     H91225   3.433   8.612   2.045  1.3896  1.7919  2.9775
  676MOL0     H91226   3.346   8.402   2.247  1.7496  0.0271  0.4804
  676MOL0     H91227   3.320   8.580   2.258 -1.4497 -0.2396 -0.2486
  676MOL0     H91228   3.220   8.380   2.056 -2.3596  0.8957 -2.2754
  676MOL0     H91229   3.133   8.437   2.192 -4.8258  0.0489 -4.1880
  676MOL0     H91230   3.238   8.607   1.955  2.1261 -2.0188  0.5664
  676MOL0     H91231   3.141   8.679   2.087 -1.7713  1.0170 -2.1926
  676MOL0     H91232   2.968   8.480   2.015 -0.9450  0.2848 -1.2968
  676MOL0     H91233   3.060   8.486   1.867 -2.2598 -1.0288 -0.0023
  676MOL0     H91234   2.953   8.753   1.977  0.8711 -0.2533  0.7288
  676MOL0     H91235   3.024   8.728   1.824 -1.0806  3.6472  1.4060
  676MOL0     H91236   2.766   8.597   1.955  0.0127  0.5824 -1.0909
  676MOL0     H91237   2.814   8.550   1.791 -1.9978  0.6298 -1.4176
  676MOL0     H91238   2.775   8.767   1.707 -0.5308  0.4016 -0.1287
  676MOL0     H91239   2.632   8.709   1.776  0.2328 -2.2654 -1.6362
  676MOL0     H91240   3.455   8.661   1.847 -2.0637  0.2703 -2.3662
  676MOL0     H91241   3.520   8.677   1.641 -0.5362 -0.1078  1.0437
  676MOL0     H91242   3.723   8.412   1.252  3.4662 -0.2174  0.8161
  676MOL0     H91243   3.772   8.414   1.017 -0.5927  1.9176 -2.3502
  676MOL0     H91244   4.524   7.343   0.361  0.9180 -2.3808 -1.2699
  676MOL0     H91245   4.591   7.192   0.527  0.3711 -2.0025 -2.9515
  676MOL0     H91246   5.159   6.928   0.616 -1.5303 -1.8845 -0.1405
  676MOL0     H91247   5.300   6.841   0.805 -0.6020  0.4796 -1.5787
  676MOL0     H91248   5.426   6.932   1.008  0.6189 -0.5610 -0.6795
  676MOL0     H91249   5.376   6.762   0.980 -0.7581  1.0043 -1.2002
  676MOL0     H91250   5.412   6.886   1.243 -2.0222 -0.0408 -0.1695
  676MOL0     H91251   5.542   6.786   1.162  0.0732 -0.3248 -0.2568
  676MOL0     H91252   5.379   6.599   1.154  1.7574  0.0522  0.2554
  676MOL0     H91253   5.268   6.698   1.259  1.6081  2.5991  2.7776
  676MOL0     H91254   5.539   6.595   1.338 -0.2123  1.5488 -0.9338
  676MOL0     H91255   5.455   6.717   1.422 -0.5671 -0.8364  1.4648
  676MOL0     H91256   5.216   6.389   1.555  0.6790  1.0701  1.8756
  676MOL0     H91257   5.014   7.008   1.065 -2.0327  0.6457 -0.7593
  676MOL0     H91258   4.764   7.088   0.876  1.5318  0.6785 -2.0530
  676MOL0     H91259   4.851   7.135   1.021 -1.1076  1.8701  1.1273
  676MOL0     H91260   4.861   7.244   0.889  1.5063 -0.1061 -4.2800
  677MOL0     O91261   5.155   5.443   5.826  0.8414 -0.5413 -0.2239
  677MOL0     C91262   5.169   5.536   5.903 -0.1295  0.2002  0.9983
  677MOL0     O91263   5.093   5.646   5.900  0.2406  0.4893 -0.5635
  677MOL0     C91264   5.027   5.696   5.787 -0.9182 -0.1557  0.6493
  677MOL0     C91265   4.913   5.774   5.814 -0.6268  0.7276 -1.2181
  677MOL0     C91266   4.839   5.825   5.701 -0.3990 -1.1809 -0.1371
  677MOL0     C91267   4.874   5.794   5.568 -1.0256  0.7220 -0.3067
  677MOL0     O91268   4.807   5.847   5.459 -0.7424 -0.4128  0.4197
  677MOL0     C91269   4.818   5.996   5.454 -0.2832  0.8941 -0.3373
  677MOL0     C91270   4.913   6.025   5.338 -0.4634  0.6317  0.0384
  677MOL0     C91271   4.854   5.957   5.206  0.1340  0.5480 -0.8697
  677MOL0     C91272   4.960   5.907   5.109  2.0993  0.4924  0.0198
  677MOL0     C91273   4.894   5.830   4.991  0.4877  0.2373  1.1135
  677MOL0     C91274   4.876   5.677   5.026 -0.2548 -0.1595  0.6905
  677MOL0     C91275   5.005   5.596   4.990 -0.1214 -0.3722 -0.5661
  677MOL0     C91276   5.006   5.445   5.039  0.0667 -0.2307  0.1874
  677MOL0     N91277   5.032   5.419   5.181  0.4450  0.2940 -0.5189
  677MOL0     C91278   5.035   5.292   5.241  0.9495 -0.0093  0.7763
  677MOL0     C91279   5.087   5.303   5.362  0.2036 -0.3814 -0.0854
  677MOL0     C91280   5.095   5.198   5.470 -0.0054 -0.0855 -0.4228
  677MOL0     C91281   4.973   5.159   5.558  1.0913  0.1773 -0.3464
  677MOL0     C91282   4.909   5.276   5.633 -0.9651  0.1237 -0.2450
  677MOL0     C91283   4.837   5.382   5.557  0.7332 -0.5082  0.7094
  677MOL0     O91284   4.725   5.335   5.484 -0.6035  0.0802  0.5041
  677MOL0     C91285   4.655   5.435   5.425  0.2175 -1.3818  0.0933
  677MOL0     C91286   4.641   5.415   5.288  1.7453 -0.2799  1.0239
  677MOL0     C91287   4.570   5.500   5.205  0.3619 -0.8459  0.0795
  677MOL0     C91288   4.517   5.626   5.254 -0.1852  0.1887  0.1864
  677MOL0     C91289   4.448   5.725   5.166 -0.8231 -0.4613 -0.0587
  677MOL0     O91290   4.410   5.842   5.222  0.3069  0.0749  0.2779
  677MOL0     C91291   4.325   5.918   5.142  0.4978 -0.5848  0.0172
  677MOL0     C91292   4.195   5.875   5.099 -0.1924 -1.3340 -0.6676
  677MOL0     C91293   4.121   5.960   5.008 -0.3681  1.1326  0.1184
  677MOL0     C91294   4.159   6.083   4.971 -0.5944 -0.0145 -0.6553
  677MOL0     O91295   4.061   6.146   4.909  0.0694  0.4741  0.1089
  677MOL0     C91296   4.071   6.293   4.899  0.7925 -0.6522 -0.0919
  677MOL0     C91297   3.935   6.363   4.883 -0.6417 -0.4883  0.0051
  677MOL0     C91298   3.870   6.366   4.746 -0.6259  0.4137 -0.3537
  677MOL0     C91299   3.941   6.470   4.648 -0.2779  0.7605  0.0223
  677MOL0     C91300   3.828   6.559   4.587 -0.5176 -0.9518  0.7718
  677MOL0     C91301   3.884   6.648   4.463  0.0620  0.2469 -0.4333
  677MOL0     C91302   3.777   6.743   4.413 -0.2983  0.5727 -1.1765
  677MOL0     C91303   3.722   6.845   4.507  0.1713 -0.7291 -0.0599
  677MOL0    Cl91304   3.858   6.925   4.612  0.1468 -0.0757 -0.0063
  677MOL0     C91305   4.289   6.126   5.014  0.2465 -0.1367  0.1669
  677MOL0     C91306   4.367   6.044   5.091 -0.4382  0.1280  0.8403
  677MOL0     O91307   4.417   5.690   5.056  0.0440  0.5993  0.0120
  677MOL0     C91308   4.535   5.644   5.391 -0.1266  0.4854  0.3253
  677MOL0     C91309   4.612   5.560   5.476 -0.4279  0.6497  0.3280
  677MOL0     N91310   5.118   5.440   5.369 -0.2145 -0.4434 -0.8358
  677MOL0     N91311   5.090   5.507   5.265  0.3988  0.4009  0.0003
  677MOL0     C91312   4.990   5.714   5.553  0.4469  0.0581  0.3253
  677MOL0     C91313   5.066   5.668   5.657  0.1968 -0.0358 -0.3541
  677MOL0     C91314   5.280   5.528   6.004  0.4057  0.1853 -0.6966
  677MOL0     C91315   5.269   5.616   6.112 -0.4556 -0.5915 -0.2483
  677MOL0     C91316   5.361   5.614   6.215 -0.3215  0.2335 -0.2669
  677MOL0     C91317   5.474   5.542   6.218 -0.1268  0.2591  0.5410
  677MOL0     O91318   5.562   5.564   6.325  0.0617 -0.6472  0.9001
  677MOL0     C91319   5.695   5.508   6.324  0.4999  0.9471 -0.4022
  677MOL0     C91320   5.704   5.370   6.394  0.0981  0.2834  0.3244
  677MOL0     C91321   5.856   5.325   6.390 -0.5242 -0.0120  0.0899
  677MOL0     C91322   5.898   5.290   6.248 -0.2703  0.4981 -0.3280
  677MOL0     C91323   6.027   5.219   6.251 -0.4902  0.0343 -0.0967
  677MOL0     C91324   6.123   5.150   6.254  0.6825  0.0287  0.8196
  677MOL0     C91325   5.492   5.453   6.109  0.2520 -0.5579 -1.1856
  677MOL0     C91326   5.391   5.434   6.007  0.1126  0.1120 -0.8093
  677MOL0     C91327   5.423   5.324   5.903 -0.0835  0.6487 -0.4236
  677MOL0     H91328   4.879   5.796   5.915  1.3087 -2.3162  0.2111
  677MOL0     H91329   4.750   5.885   5.717  0.1463 -0.2872 -0.3997
  677MOL0     H91330   4.711   6.014   5.442 -0.8609 -1.1523  1.1481
  677MOL0     H91331   4.846   6.033   5.553 -0.1760 -0.1503  0.0430
  677MOL0     H91332   5.013   5.991   5.368 -0.2927  1.5819  0.5987
  677MOL0     H91333   4.915   6.134   5.331 -0.8267  0.6491  0.2260
  677MOL0     H91334   4.793   6.034   5.158 -4.2556  0.5801  3.8337
  677MOL0     H91335   4.782   5.878   5.228 -2.2161  2.6190 -0.6500
  677MOL0     H91336   5.020   5.992   5.075  0.1439  1.7464 -0.4454
  677MOL0     H91337   5.027   5.839   5.164  1.9831  1.4915  1.4389
  677MOL0     H91338   4.799   5.877   4.963  1.2676  0.8390 -0.6421
  677MOL0     H91339   4.955   5.835   4.901 -0.2271 -0.5306  0.5694
  677MOL0     H91340   4.859   5.673   5.134 -0.7350  1.5783  0.7052
  677MOL0     H91341   4.789   5.641   4.971  0.5829 -2.4921  0.7919
  677MOL0     H91342   5.092   5.647   5.033 -0.5768  0.8851 -1.0732
  677MOL0     H91343   5.018   5.597   4.881 -2.7601 -0.3472 -0.9432
  677MOL0     H91344   4.909   5.397   5.018  0.4573 -1.1463  0.4110
  677MOL0     H91345   5.089   5.405   4.981 -0.2608  0.7220 -0.9773
  677MOL0     H91346   4.982   5.215   5.185  1.0675  0.8752 -0.6058
  677MOL0     H91347   5.112   5.103   5.418  1.1803  0.5995 -1.3375
  677MOL0     H91348   5.182   5.220   5.533  0.4057  0.0475 -1.0302
  677MOL0     H91349   4.892   5.115   5.500 -1.2318  1.3376  1.8167
  677MOL0     H91350   5.006   5.081   5.627 -2.0660 -0.5235  0.5357
  677MOL0     H91351   4.994   5.329   5.675 -1.5112  0.3325  0.6228
  677MOL0     H91352   4.854   5.234   5.718  0.2599 -2.0776 -0.4500
  677MOL0     H91353   4.891   5.449   5.489  0.4249 -0.6481  0.3200
  677MOL0     H91354   4.796   5.449   5.633  0.2676  1.6467 -1.3146
  677MOL0     H91355   4.693   5.326   5.254  0.5061 -1.2405  1.6098
  677MOL0     H91356   4.560   5.488   5.098  2.5061  0.4314 -0.3287
  677MOL0     H91357   4.161   5.780   5.140 -1.2117  0.0311  1.9129
  677MOL0     H91358   4.027   5.922   4.969  0.8252 -2.2498  0.2014
  677MOL0     H91359   4.118   6.333   4.989  1.2835  0.1104 -0.6683
  677MOL0     H91360   4.146   6.330   4.827 -0.0062  1.6438  0.1843
  677MOL0     H91361   3.869   6.304   4.947 -0.7562 -1.5389 -1.0618
  677MOL0     H91362   3.934   6.465   4.922 -2.3345  0.2246 -1.7273
  677MOL0     H91363   3.896   6.264   4.717  4.1539  1.4893 -0.8307
  677MOL0     H91364   3.762   6.379   4.757 -1.3348 -3.4517 -1.1791
  677MOL0     H91365   3.999   6.407   4.580  0.9127 -0.3806  1.9842
  677MOL0     H91366   4.013   6.530   4.705 -1.2031  0.8802  1.1175
  677MOL0     H91367   3.796   6.630   4.664 -4.2904  0.9781 -2.2661
  677MOL0     H91368   3.738   6.505   4.555 -1.5238  0.6001  0.8669
  677MOL0     H91369   3.970   6.709   4.492 -0.3769  0.6353  0.0537
  677MOL0     H91370   3.897   6.579   4.380 -4.3549  1.3137 -2.2738
  677MOL0     H91371   3.696   6.691   4.362  0.3266 -0.9230 -0.6985
  677MOL0     H91372   3.834   6.798   4.338  2.7881  1.8876  1.8464
  677MOL0     H91373   3.675   6.922   4.445  1.3685 -0.0805 -0.2009
  677MOL0     H91374   3.653   6.796   4.576  0.6592 -2.3517 -0.6739
  677MOL0     H91375   4.323   6.225   4.987 -0.3528 -0.4227 -1.8307
  677MOL0     H91376   4.469   6.065   5.120 -1.3239  3.1146  2.1519
  677MOL0     H91377   4.491   5.734   5.432 -0.7294  0.4525 -0.2256
  677MOL0     H91378   4.628   5.583   5.581  2.3626 -0.6284  0.2826
  677MOL0     H91379   5.007   5.689   5.448 -1.3962 -3.9770  0.7865
  677MOL0     H91380   5.160   5.615   5.643 -0.4300 -1.1000 -0.6727
  677MOL0     H91381   5.188   5.687   6.116  2.1149  2.5361  0.9485
  677MOL0     H91382   5.336   5.672   6.304 -1.5065 -0.9863  0.2397
  677MOL0     H91383   5.758   5.573   6.384  1.3565  0.8675 -1.2013
  677MOL0     H91384   5.732   5.504   6.222 -1.5853 -2.7839 -1.1900
  677MOL0     H91385   5.642   5.301   6.337 -1.8044 -0.8140  3.4604
  677MOL0     H91386   5.659   5.381   6.493  0.9734  3.8147  0.4648
  677MOL0     H91387   5.873   5.237   6.454  0.5515  1.2819  1.6640
  677MOL0     H91388   5.923   5.402   6.428  1.4356 -0.7874 -1.6303
  677MOL0     H91389   5.830   5.228   6.187 -0.0705 -0.6665  0.6000
  677MOL0     H91390   5.907   5.379   6.186 -0.7076  1.1430  0.5105
  677MOL0     H91391   6.196   5.078   6.223 -0.7526 -0.4796 -1.6998
  677MOL0     H91392   5.583   5.394   6.106  2.6931  2.7333  1.5408
  677MOL0     H91393   5.508   5.344   5.837  0.8592  0.9824  0.8705
  677MOL0     H91394   5.455   5.235   5.958 -1.3757  1.3784  1.6184
  677MOL0     H91395   5.339   5.294   5.840  0.5383 -1.7092 -0.2219
  678MOL0     O91396   9.831   8.404   4.337 -0.3197  0.6160 -0.1509
  678MOL0     C91397   9.723   8.460   4.329  0.2487  1.2052  0.3369
  678MOL0     O91398   9.598   8.407   4.343  0.0054  0.3047  0.1989
  678MOL0     C91399   9.566   8.294   4.417  0.6905  0.2811  0.2971
  678MOL0     C91400   9.432   8.253   4.400  0.7956  0.0693  0.2253
  678MOL0     C91401   9.379   8.136   4.465 -0.0111  0.1956  1.4846
  678MOL0     C91402   9.461   8.059   4.550  0.7334  0.2077  0.5622
  678MOL0     O91403   9.412   7.951   4.618  0.1766  0.0368  0.2779
  678MOL0     C91404   9.266   7.919   4.617 -0.5562 -0.6637  0.4076
  678MOL0     C91405   9.209   7.965   4.747  1.6123 -0.5133 -0.9869
  678MOL0     C91406   9.052   7.976   4.733  0.1937 -0.1124 -0.3152
  678MOL0     C91407   8.968   7.848   4.770  0.3692  0.3815 -0.1344
  678MOL0     C91408   8.927   7.761   4.643 -0.1515 -0.4127 -0.5159
  678MOL0     C91409   8.886   7.611   4.685 -0.4588  0.2036  0.1011
  678MOL0     C91410   8.782   7.613   4.802 -0.0405 -0.4553 -0.3089
  678MOL0     C91411   8.715   7.465   4.829  0.0448 -0.1695  0.6263
  678MOL0     N91412   8.799   7.342   4.834 -0.0983 -1.1340 -0.3853
  678MOL0     C91413   8.762   7.224   4.784  0.4531  0.2649 -0.3457
  678MOL0     C91414   8.882   7.150   4.773 -0.4470  0.0515  0.0741
  678MOL0     C91415   8.867   7.014   4.717  0.4028  0.9906  0.0977
  678MOL0     C91416   8.821   6.914   4.822  0.3140 -0.1395  0.2937
  678MOL0     C91417   8.696   6.835   4.777 -0.9856 -0.1736  0.6386
  678MOL0     C91418   8.650   6.749   4.892 -0.2576 -0.3872 -0.3504
  678MOL0     O91419   8.617   6.808   5.016  0.3760 -0.5903 -0.3452
  678MOL0     C91420   8.560   6.723   5.112 -0.0857 -0.5870  0.9597
  678MOL0     C91421   8.567   6.577   5.109  0.1739  0.2857  0.3630
  678MOL0     C91422   8.492   6.506   5.201  0.7278  0.1487 -0.0384
  678MOL0     C91423   8.417   6.564   5.298 -0.4334 -0.6927 -0.6090
  678MOL0     C91424   8.356   6.486   5.407  0.8085  0.2810 -0.0746
  678MOL0     O91425   8.392   6.357   5.405  0.1974  0.5908 -0.4889
  678MOL0     C91426   8.343   6.284   5.515 -1.1264  0.2133  0.3542
  678MOL0     C91427   8.209   6.273   5.553  0.2140 -0.7657  0.1974
  678MOL0     C91428   8.167   6.195   5.655  0.3352  0.1745 -0.5651
  678MOL0     C91429   8.262   6.127   5.731  0.3252 -1.2432  0.0524
  678MOL0     O91430   8.213   6.053   5.837  0.3258 -0.1400  0.2456
  678MOL0     C91431   8.307   5.975   5.923 -0.1207 -0.3662  0.6673
  678MOL0     C91432   8.220   5.909   6.034 -1.5483  0.1608 -0.3253
  678MOL0     C91433   8.145   6.006   6.131  0.1687 -0.4447 -0.3472
  678MOL0     C91434   8.089   5.920   6.245 -0.1476 -0.2324  0.4529
  678MOL0     C91435   8.009   6.005   6.343 -0.9760  1.5434 -0.0449
  678MOL0     C91436   7.985   5.928   6.471  0.0597 -0.1546  0.2353
  678MOL0     C91437   7.873   6.003   6.545 -0.3142 -0.3277 -0.3951
  678MOL0     C91438   7.901   6.150   6.575 -0.0797 -0.0266  0.6583
  678MOL0    Cl91439   7.787   6.191   6.712  0.0779  0.4963 -0.2181
  678MOL0     C91440   8.397   6.124   5.691 -0.1935 -0.6234  0.4253
  678MOL0     C91441   8.439   6.205   5.578  0.2163  0.0533  0.6671
  678MOL0     O91442   8.292   6.546   5.494  0.4027 -0.4290 -0.1578
  678MOL0     C91443   8.418   6.706   5.315  0.0757 -0.1252  0.1167
  678MOL0     C91444   8.484   6.783   5.214 -0.4928  0.0869  0.1165
  678MOL0     N91445   8.986   7.230   4.815  0.6130 -0.3317 -0.4238
  678MOL0     N91446   8.933   7.344   4.855  0.7908 -0.5602 -0.5882
  678MOL0     C91447   9.599   8.082   4.557 -0.3688 -0.7051  0.4837
  678MOL0     C91448   9.653   8.209   4.496 -0.0616  0.4885  0.5855
  678MOL0     C91449   9.716   8.615   4.302 -0.8633 -0.7495  0.0758
  678MOL0     C91450   9.594   8.683   4.328  0.5149 -0.5618 -0.0539
  678MOL0     C91451   9.575   8.818   4.303  0.3421  0.5703  0.3692
  678MOL0     C91452   9.669   8.892   4.237 -0.2547 -0.2092 -0.6614
  678MOL0     O91453   9.648   9.018   4.197 -0.0294 -1.1268 -0.7591
  678MOL0     C91454   9.546   9.106   4.262 -0.2418  0.2921  0.1187
  678MOL0     C91455   9.612   9.249   4.257  0.1721 -0.2526  1.0443
  678MOL0     C91456   9.744   9.267   4.335 -0.0874  0.5452 -0.3870
  678MOL0     C91457   9.829   9.392   4.293  0.0778 -0.2020 -1.2475
  678MOL0     C91458   9.955   9.400   4.368 -0.3651 -0.6278 -0.0480
  678MOL0     C91459  10.068   9.410   4.422 -0.8389  0.0467 -0.0308
  678MOL0     C91460   9.785   8.823   4.197 -0.7893  0.1622 -0.0939
  678MOL0     C91461   9.814   8.694   4.237 -1.1608 -0.0027  0.1502
  678MOL0     C91462   9.943   8.636   4.170 -0.1507  0.1816 -0.6355
  678MOL0     H91463   9.369   8.311   4.335  1.2549 -0.8390 -1.0667
  678MOL0     H91464   9.273   8.130   4.446  0.3578 -2.5370 -0.3142
  678MOL0     H91465   9.211   7.962   4.532 -1.6693 -4.8127 -1.1993
  678MOL0     H91466   9.255   7.811   4.609  0.5561 -0.7945  0.5017
  678MOL0     H91467   9.248   8.063   4.777 -0.2297 -0.0490  0.0623
  678MOL0     H91468   9.237   7.893   4.824 -1.9351  0.4160  1.4153
  678MOL0     H91469   9.027   8.015   4.633 -1.1679  0.3330  0.1655
  678MOL0     H91470   9.027   8.054   4.806 -2.3072 -1.9179  0.8980
  678MOL0     H91471   9.036   7.783   4.826 -1.2793  1.0674  2.8054
  678MOL0     H91472   8.886   7.876   4.836  0.1734 -0.2075 -0.1191
  678MOL0     H91473   8.848   7.815   4.591  0.5152  0.8134 -0.2936
  678MOL0     H91474   9.020   7.753   4.586 -0.8429  1.8604 -2.0960
  678MOL0     H91475   8.833   7.570   4.599 -0.0073  0.0514 -0.1105
  678MOL0     H91476   8.980   7.559   4.704  0.6202  2.5623  1.7686
  678MOL0     H91477   8.703   7.680   4.769  1.6858  2.0102  0.3174
  678MOL0     H91478   8.831   7.649   4.893  1.4094  0.9757 -1.5974
  678MOL0     H91479   8.655   7.465   4.920  0.8558 -2.3769  1.2443
  678MOL0     H91480   8.645   7.462   4.745 -0.6298  3.2048  0.9580
  678MOL0     H91481   8.663   7.192   4.754 -0.7302 -0.3216  3.6159
  678MOL0     H91482   8.809   7.010   4.625 -0.9185  3.1788  0.7498
  678MOL0     H91483   8.970   6.990   4.692  0.6351  1.2946  0.7192
  678MOL0     H91484   8.888   6.832   4.849  0.0274 -1.1797 -1.8636
  678MOL0     H91485   8.800   6.970   4.913 -1.8554 -0.6009  0.1385
  678MOL0     H91486   8.722   6.788   4.682 -0.6173  0.5996  0.3423
  678MOL0     H91487   8.612   6.898   4.747 -1.5129  0.5092  3.2560
  678MOL0     H91488   8.719   6.666   4.902 -3.1674 -3.1244 -1.2812
  678MOL0     H91489   8.561   6.695   4.857 -1.0072  0.3710  0.3334
  678MOL0     H91490   8.623   6.528   5.030 -0.2266  0.7054 -0.1886
  678MOL0     H91491   8.486   6.398   5.197 -4.6378  0.0601  1.7837
  678MOL0     H91492   8.143   6.317   5.479 -1.4532 -3.4357 -0.0160
  678MOL0     H91493   8.060   6.182   5.667  0.1051 -0.2164 -2.7081
  678MOL0     H91494   8.365   5.897   5.873  1.6232  1.5381 -0.4319
  678MOL0     H91495   8.381   6.039   5.970 -0.3036  0.3199  0.0409
  678MOL0     H91496   8.150   5.839   5.988  1.8837 -3.9562  0.0492
  678MOL0     H91497   8.290   5.848   6.092  0.4094 -1.6476 -4.2192
  678MOL0     H91498   8.212   6.087   6.164  1.1578 -0.1327 -2.8833
  678MOL0     H91499   8.062   6.050   6.074  0.7895  1.3554  0.0736
  678MOL0     H91500   8.166   5.869   6.304 -0.2171 -1.5293 -0.5280
  678MOL0     H91501   8.025   5.840   6.207 -0.1628  0.3394 -0.7800
  678MOL0     H91502   7.911   6.020   6.296 -2.3407  0.6956  2.3693
  678MOL0     H91503   8.051   6.105   6.355  0.3954  0.8624  1.1126
  678MOL0     H91504   7.949   5.825   6.460 -0.6575 -0.2255  2.5465
  678MOL0     H91505   8.083   5.929   6.521  0.4132  1.6667 -0.4396
  678MOL0     H91506   7.857   5.948   6.638 -0.1201 -1.8534 -1.2277
  678MOL0     H91507   7.777   5.998   6.492 -1.5930  1.2808  1.6497
  678MOL0     H91508   8.007   6.166   6.593  0.6712 -1.3890 -1.9707
  678MOL0     H91509   7.880   6.193   6.476 -1.7054 -0.5403  0.7404
  678MOL0     H91510   8.478   6.081   5.750  1.4229 -0.5182 -1.6113
  678MOL0     H91511   8.542   6.215   5.545 -0.0331  1.0886  0.1666
  678MOL0     H91512   8.363   6.750   5.397 -0.7994 -1.9583  0.5504
  678MOL0     H91513   8.481   6.892   5.216  1.2303  0.1801 -0.7162
  678MOL0     H91514   9.655   8.016   4.623 -1.1955  0.4542  2.4256
  678MOL0     H91515   9.755   8.246   4.506  0.1642 -0.4699  2.1187
  678MOL0     H91516   9.501   8.640   4.362  0.6812 -1.4717 -0.7093
  678MOL0     H91517   9.486   8.875   4.329 -0.8054 -0.6767 -0.6818
  678MOL0     H91518   9.527   9.076   4.365 -1.5219  0.9437  0.0868
  678MOL0     H91519   9.451   9.115   4.209 -0.8804  3.3034  1.5573
  678MOL0     H91520   9.530   9.314   4.290 -0.9462 -0.7365 -0.6437
  678MOL0     H91521   9.628   9.288   4.156 -0.7287 -2.6085 -0.0860
  678MOL0     H91522   9.802   9.175   4.321  4.1784  2.8901  0.1564
  678MOL0     H91523   9.717   9.281   4.440  0.0418  2.5260 -0.5869
  678MOL0     H91524   9.853   9.379   4.187 -0.7013  1.8653 -1.7162
  678MOL0     H91525   9.772   9.485   4.302 -1.9224 -1.3598 -1.3956
  678MOL0     H91526  10.161   9.419   4.474 -1.7795  1.0674  1.5890
  678MOL0     H91527   9.865   8.877   4.147  3.0985 -1.5089  3.6668
  678MOL0     H91528  10.000   8.556   4.219 -2.8766 -2.5818 -1.6718
  678MOL0     H91529   9.908   8.570   4.090 -1.8435  0.2071  0.0382
  678MOL0     H91530  10.014   8.716   4.146  1.3607 -0.2888  1.9441
  679MOL0     O91531   2.966   1.482   2.890 -0.1698  0.1662 -0.3660
  679MOL0     C91532   2.881   1.414   2.936  0.3179 -1.1413  0.0900
  679MOL0     O91533   2.759   1.461   2.970  0.5032  0.2042  0.2188
  679MOL0     C91534   2.761   1.585   3.021 -0.0808 -0.3375  0.5408
  679MOL0     C91535   2.842   1.638   3.124  0.1361  0.1046  0.6584
  679MOL0     C91536   2.823   1.768   3.173  0.5816 -0.1065 -0.1305
  679MOL0     C91537   2.712   1.841   3.140 -0.4978 -0.1620  0.7721
  679MOL0     O91538   2.689   1.960   3.197 -0.1275 -0.6631  0.4327
  679MOL0     C91539   2.562   2.024   3.193 -0.7950  0.5516  0.7290
  679MOL0     C91540   2.547   2.114   3.317 -0.2067 -0.0058  0.3398
  679MOL0     C91541   2.444   2.216   3.296 -0.2745 -0.3338  0.2047
  679MOL0     C91542   2.508   2.354   3.319  0.3489  0.0938 -0.1878
  679MOL0     C91543   2.577   2.403   3.194  0.9803  0.2923 -0.6787
  679MOL0     C91544   2.558   2.556   3.176  0.5515 -0.2936  0.2997
  679MOL0     C91545   2.670   2.594   3.076  0.3257  0.2994 -0.8193
  679MOL0     C91546   2.645   2.726   3.000 -1.7301  0.8970  0.3703
  679MOL0     N91547   2.749   2.747   2.896 -0.0024  0.0700  0.6754
  679MOL0     C91548   2.774   2.877   2.854 -0.1440  0.6059 -0.6498
  679MOL0     C91549   2.824   2.866   2.727 -0.3224  0.6430 -0.7304
  679MOL0     C91550   2.869   2.980   2.643 -0.7374  0.5284  0.7100
  679MOL0     C91551   2.749   3.068   2.598 -0.1306 -0.4984  0.3610
  679MOL0     C91552   2.783   3.145   2.479  0.2664 -0.8986 -0.0421
  679MOL0     C91553   2.698   3.280   2.482 -0.0947  0.0213  0.2988
  679MOL0     O91554   2.563   3.233   2.458 -0.5797  0.3325 -0.2114
  679MOL0     C91555   2.473   3.338   2.442 -0.1122 -0.9832 -0.1948
  679MOL0     C91556   2.351   3.325   2.365  0.3531  0.4756 -0.0130
  679MOL0     C91557   2.263   3.423   2.338 -0.5641  0.5607 -0.1950
  679MOL0     C91558   2.300   3.559   2.371 -0.0913  0.0899 -0.3167
  679MOL0     C91559   2.200   3.672   2.351 -0.9955 -0.4594 -0.5342
  679MOL0     O91560   2.196   3.769   2.448 -0.0243 -0.7273 -0.2008
  679MOL0     C91561   2.098   3.872   2.450 -0.3653  0.0874  0.0493
  679MOL0     C91562   2.135   3.996   2.521  0.7265  0.9986 -1.0580
  679MOL0     C91563   2.058   4.114   2.512  0.0681 -0.6791 -0.2800
  679MOL0     C91564   1.938   4.111   2.433  0.0267  0.4712 -0.5802
  679MOL0     O91565   1.860   4.223   2.421  0.1947  0.1176 -0.0077
  679MOL0     C91566   1.909   4.352   2.436  0.1570  0.1747 -0.5112
  679MOL0     C91567   1.785   4.450   2.430 -0.1963 -0.3226 -0.3160
  679MOL0     C91568   1.683   4.446   2.546 -0.2584 -0.5214  0.1790
  679MOL0     C91569   1.537   4.475   2.504  0.5602  0.0793  0.4416
  679MOL0     C91570   1.447   4.539   2.609  0.4705  0.0528 -0.8548
  679MOL0     C91571   1.404   4.453   2.729  0.5720  0.3413  0.9740
  679MOL0     C91572   1.521   4.397   2.817  1.0316  1.6230 -0.7231
  679MOL0     C91573   1.483   4.339   2.951 -0.3174 -0.6680  0.3703
  679MOL0    Cl91574   1.355   4.231   2.941 -0.1700  0.5687 -0.0546
  679MOL0     C91575   1.891   3.987   2.382 -0.5487 -0.2523  0.2393
  679MOL0     C91576   1.973   3.877   2.382 -0.0464 -0.5090  0.9166
  679MOL0     O91577   2.122   3.655   2.258  0.1884 -0.0177 -0.0109
  679MOL0     C91578   2.407   3.581   2.462 -0.0977  0.6523  0.2685
  679MOL0     C91579   2.494   3.470   2.491  0.0111 -0.3524  0.5977
  679MOL0     N91580   2.820   2.732   2.700 -0.0548 -0.1432  0.0732
  679MOL0     N91581   2.783   2.663   2.798 -0.3302 -0.1487 -0.2958
  679MOL0     C91582   2.632   1.799   3.029  0.3370 -0.4077 -0.8835
  679MOL0     C91583   2.668   1.674   2.968 -0.1456 -0.6673  0.7327
  679MOL0     C91584   2.902   1.268   2.920  0.2252  0.2522  0.7764
  679MOL0     C91585   2.882   1.195   3.032  0.6903  0.5258 -1.4619
  679MOL0     C91586   2.887   1.058   3.032 -0.1372 -1.1821 -0.5775
  679MOL0     C91587   2.918   0.991   2.913 -0.0088 -0.4091  0.1028
  679MOL0     O91588   2.902   0.850   2.924 -0.0761 -0.0923 -0.4022
  679MOL0     C91589   2.975   0.770   2.836 -0.9861  0.0616 -0.5961
  679MOL0     C91590   2.901   0.735   2.713  0.0562  0.1803  0.8365
  679MOL0     C91591   2.979   0.704   2.589 -1.2844 -0.2729  0.2141
  679MOL0     C91592   2.959   0.797   2.468  0.5994  0.5123 -0.9680
  679MOL0     C91593   2.827   0.767   2.408  0.5915  0.4264  0.0301
  679MOL0     C91594   2.718   0.747   2.356 -0.0029  0.7045 -0.6155
  679MOL0     C91595   2.935   1.065   2.795 -0.1100  0.7497  0.1529
  679MOL0     C91596   2.927   1.206   2.795  0.3292  0.0784 -0.2628
  679MOL0     C91597   2.948   1.286   2.667  0.3501  0.7948 -0.5944
  679MOL0     H91598   2.920   1.574   3.162 -0.8657 -0.8683  1.1439
  679MOL0     H91599   2.899   1.799   3.245 -0.0449  0.0260  0.4790
  679MOL0     H91600   2.552   2.067   3.092  4.0202 -1.8981 -1.0922
  679MOL0     H91601   2.484   1.947   3.197 -0.6610  0.2741 -0.9774
  679MOL0     H91602   2.646   2.159   3.336  0.6260 -1.1306 -1.1043
  679MOL0     H91603   2.521   2.049   3.401  0.1367 -1.5753 -0.7207
  679MOL0     H91604   2.356   2.201   3.359 -2.0264  2.4061 -1.3646
  679MOL0     H91605   2.405   2.215   3.194  2.0404  0.0921 -0.7524
  679MOL0     H91606   2.428   2.426   3.339  0.3085  0.2162 -0.7796
  679MOL0     H91607   2.572   2.364   3.407 -0.4259 -1.5974  0.6036
  679MOL0     H91608   2.685   2.386   3.206  0.6552 -0.1449  2.2346
  679MOL0     H91609   2.533   2.346   3.112 -1.1155 -2.7023  2.3121
  679MOL0     H91610   2.462   2.589   3.137  0.2443 -0.4247  0.9409
  679MOL0     H91611   2.573   2.605   3.273 -0.1895  1.0636 -0.2474
  679MOL0     H91612   2.693   2.515   3.004  2.8007 -0.7206  0.9508
  679MOL0     H91613   2.762   2.597   3.135  0.0854  0.7056 -0.4580
  679MOL0     H91614   2.547   2.720   2.952 -1.1334 -0.0118 -0.7884
  679MOL0     H91615   2.650   2.808   3.072 -0.1999 -0.3444  1.7822
  679MOL0     H91616   2.755   2.968   2.911 -0.7102  0.9451 -1.3496
  679MOL0     H91617   2.944   3.040   2.695 -2.0891  0.3421  2.9795
  679MOL0     H91618   2.923   2.930   2.561  0.3685  0.0329  1.7058
  679MOL0     H91619   2.661   3.006   2.580 -1.4535  1.4585 -0.3545
  679MOL0     H91620   2.711   3.136   2.675 -3.8277 -2.6916  0.7232
  679MOL0     H91621   2.760   3.084   2.391  0.6028 -3.3634  1.4706
  679MOL0     H91622   2.888   3.177   2.486  0.3678 -0.4458 -2.6961
  679MOL0     H91623   2.734   3.349   2.404  1.8279 -0.7891  0.3940
  679MOL0     H91624   2.728   3.336   2.571  1.0795  0.5072 -0.3658
  679MOL0     H91625   2.330   3.226   2.325 -2.4720  0.9405  0.1549
  679MOL0     H91626   2.165   3.396   2.299 -0.5595 -3.9368  2.2709
  679MOL0     H91627   2.235   4.012   2.561  0.3881 -1.1123  0.8857
  679MOL0     H91628   2.102   4.206   2.548 -0.4807  0.3922 -2.2100
  679MOL0     H91629   1.953   4.367   2.535  1.0168 -0.7960 -0.7304
  679MOL0     H91630   1.972   4.375   2.350  0.0144 -3.3524 -1.6835
  679MOL0     H91631   1.812   4.555   2.413 -0.9859  0.3268  2.0832
  679MOL0     H91632   1.737   4.416   2.337  0.5798 -1.7842 -0.2072
  679MOL0     H91633   1.677   4.344   2.585 -0.1786 -0.5586  0.0934
  679MOL0     H91634   1.716   4.510   2.628  0.7715  1.5201 -1.7417
  679MOL0     H91635   1.480   4.387   2.471 -3.2937  0.6856  4.5577
  679MOL0     H91636   1.543   4.540   2.416  1.0109 -1.4713 -0.7265
  679MOL0     H91637   1.348   4.561   2.566  0.3022 -1.2563 -1.1928
  679MOL0     H91638   1.487   4.637   2.637 -2.7015  2.9189 -5.1014
  679MOL0     H91639   1.335   4.513   2.790  0.3773 -0.5431  1.6464
  679MOL0     H91640   1.343   4.368   2.695  0.8546  1.6995 -3.6288
  679MOL0     H91641   1.601   4.472   2.825  0.5396  2.5186 -3.2232
  679MOL0     H91642   1.553   4.308   2.762 -0.3787  0.2461  0.5882
  679MOL0     H91643   1.564   4.280   2.994  3.2708  1.2485 -3.1198
  679MOL0     H91644   1.457   4.417   3.022 -2.0687  0.9228 -1.8655
  679MOL0     H91645   1.797   3.983   2.328 -0.9186 -0.0945  0.8701
  679MOL0     H91646   1.938   3.790   2.327 -3.0211 -0.5540  2.6505
  679MOL0     H91647   2.438   3.681   2.494 -2.0611  1.2837  0.3282
  679MOL0     H91648   2.579   3.499   2.554 -0.2648  2.9480 -0.3257
  679MOL0     H91649   2.548   1.850   2.983  0.4373  2.5713  1.8348
  679MOL0     H91650   2.610   1.641   2.882 -1.8622  2.5348  0.5122
  679MOL0     H91651   2.844   1.236   3.126 -0.7297 -3.4418 -0.0846
  679MOL0     H91652   2.872   1.002   3.124 -0.3528  1.8364  1.3682
  679MOL0     H91653   3.002   0.676   2.886 -1.0565 -0.1238 -0.9090
  679MOL0     H91654   3.059   0.828   2.799  0.0914 -0.4339  0.9444
  679MOL0     H91655   2.843   0.826   2.697  4.6403  3.0691 -1.4252
  679MOL0     H91656   2.836   0.652   2.742 -2.5291  2.0807  0.8141
  679MOL0     H91657   2.961   0.602   2.553  1.2676 -1.0468  0.9056
  679MOL0     H91658   3.084   0.720   2.613 -1.6122  1.4380  0.6159
  679MOL0     H91659   2.981   0.902   2.488 -1.1046  0.9614 -1.2887
  679MOL0     H91660   3.028   0.775   2.386 -1.9480  1.3102 -3.4974
  679MOL0     H91661   2.621   0.752   2.310 -1.1677 -1.4950  1.3640
  679MOL0     H91662   2.940   1.015   2.698 -1.5726  0.3705  0.2537
  679MOL0     H91663   3.050   1.326   2.670  0.7361 -0.1371 -0.9032
  679MOL0     H91664   2.924   1.222   2.582  1.2905 -1.8453  1.0091
  679MOL0     H91665   2.875   1.368   2.671 -2.7052 -1.6679  4.6258
  680MOL0     O91666   8.081   3.160   7.882  0.0976 -0.3189 -0.3660
  680MOL0     C91667   8.089   3.087   7.982 -0.5586  0.1918 -0.3594
  680MOL0     O91668   8.207   3.018   8.017  0.5187  0.1904  0.3415
  680MOL0     C91669   8.318   3.035   7.937 -0.2467 -0.7736  0.4960
  680MOL0     C91670   8.407   2.920   7.931  0.4071 -0.0807  0.0055
  680MOL0     C91671   8.532   2.915   7.861  0.7645 -0.3821  0.2269
  680MOL0     C91672   8.573   3.034   7.795 -0.6510  0.6522  0.4806
  680MOL0     O91673   8.704   3.039   7.738 -0.5402  0.3115  0.4826
  680MOL0     C91674   8.741   2.954   7.629 -0.4197 -0.0033 -0.2292
  680MOL0     C91675   8.871   3.014   7.568  0.6883  0.3566  0.9358
  680MOL0     C91676   8.849   3.162   7.498 -0.9637 -0.1777 -0.9112
  680MOL0     C91677   8.771   3.160   7.366 -0.7765  0.4254  0.3031
  680MOL0     C91678   8.702   3.300   7.326  0.6364  0.3996 -0.7388
  680MOL0     C91679   8.790   3.422   7.336  0.3696 -0.2954  0.5759
  680MOL0     C91680   8.739   3.528   7.246 -0.5746  0.7475  0.3960
  680MOL0     C91681   8.615   3.602   7.297  0.5853  0.3296  0.2196
  680MOL0     N91682   8.598   3.735   7.236  0.0191 -0.1363  0.0993
  680MOL0     C91683   8.683   3.842   7.242  0.2504  0.6009 -0.2835
  680MOL0     C91684   8.625   3.945   7.162  0.6100 -0.4930 -0.1537
  680MOL0     C91685   8.681   4.077   7.136 -0.3439 -1.1324 -0.6995
  680MOL0     C91686   8.632   4.176   7.249 -0.3335  0.0600  0.7177
  680MOL0     C91687   8.702   4.304   7.264  0.3702  0.2187  0.0723
  680MOL0     C91688   8.843   4.293   7.320 -0.5760 -0.0825 -0.5677
  680MOL0     O91689   8.909   4.424   7.347  0.0301  0.6453  0.0729
  680MOL0     C91690   9.021   4.422   7.416 -0.0870 -0.1835 -0.2471
  680MOL0     C91691   9.079   4.546   7.446  0.2622  0.2420 -0.2812
  680MOL0     C91692   9.190   4.553   7.533 -0.2812 -0.6611  0.6124
  680MOL0     C91693   9.253   4.432   7.582  0.3218 -1.0713  0.3945
  680MOL0     C91694   9.369   4.442   7.672 -0.0671 -0.7213 -0.5765
  680MOL0     O91695   9.449   4.328   7.674  0.3841 -0.0632  0.5259
  680MOL0     C91696   9.571   4.338   7.728 -0.0472 -0.0678 -1.8002
  680MOL0     C91697   9.599   4.328   7.863 -0.3873 -0.3467 -0.4803
  680MOL0     C91698   9.733   4.332   7.913  0.7633  0.0006  0.4037
  680MOL0     C91699   9.840   4.376   7.835 -0.2310  1.0205 -0.4786
  680MOL0     O91700   9.959   4.395   7.903 -0.9877  0.9368  0.4014
  680MOL0     C91701  10.068   4.474   7.841  0.1420  0.2305  0.1869
  680MOL0     C91702  10.194   4.456   7.920 -0.1403 -0.2732 -0.7307
  680MOL0     C91703  10.274   4.329   7.877  0.2228 -0.6501  0.2664
  680MOL0     C91704  10.391   4.362   7.781 -0.6479 -0.5202  0.3083
  680MOL0     C91705  10.459   4.235   7.710 -1.8103 -0.5184  0.1834
  680MOL0     C91706  10.599   4.272   7.660  1.0354  0.5572 -0.5862
  680MOL0     C91707  10.709   4.281   7.769 -1.3037 -0.0432  0.6980
  680MOL0     C91708  10.767   4.146   7.800  0.5571 -0.0420 -0.0434
  680MOL0    Cl91709  10.877   4.167   7.935  0.5687 -0.5406 -0.2728
  680MOL0     C91710   9.807   4.400   7.698 -1.2904 -0.5760  0.1609
  680MOL0     C91711   9.679   4.368   7.647  0.0339  0.1689  0.8692
  680MOL0     O91712   9.398   4.549   7.728  0.0383 -0.2948 -0.0591
  680MOL0     C91713   9.201   4.316   7.534 -0.2373  0.4654  0.0279
  680MOL0     C91714   9.082   4.308   7.461 -0.6930 -0.0700 -0.0337
  680MOL0     N91715   8.499   3.891   7.128  0.2488 -0.3310  0.2644
  680MOL0     N91716   8.489   3.773   7.168 -0.0350  0.1365 -0.2796
  680MOL0     C91717   8.482   3.147   7.795  0.9528 -0.7501  0.3818
  680MOL0     C91718   8.365   3.158   7.872 -0.2481  0.6868  0.1438
  680MOL0     C91719   7.970   3.067   8.070  0.4267 -0.2444 -0.2476
  680MOL0     C91720   7.961   2.945   8.141 -0.7855 -0.2971  0.3109
  680MOL0     C91721   7.851   2.902   8.213  0.2147 -0.1987 -0.8756
  680MOL0     C91722   7.743   2.993   8.237  0.2304 -0.7829 -0.6092
  680MOL0     O91723   7.627   2.963   8.301  0.4866  0.3813 -0.7546
  680MOL0     C91724   7.609   2.850   8.393  0.3472  0.4028 -0.1504
  680MOL0     C91725   7.613   2.908   8.539 -0.0291 -0.7783 -0.1090
  680MOL0     C91726   7.624   2.795   8.642 -0.2411  1.1698 -0.3246
  680MOL0     C91727   7.661   2.836   8.778  0.2351 -0.5594 -0.8643
  680MOL0     C91728   7.775   2.929   8.777  0.8633 -1.0889  1.6234
  680MOL0     C91729   7.874   2.998   8.777 -0.6144 -0.0840  0.1994
  680MOL0     C91730   7.750   3.108   8.168  0.0584 -0.8280  0.7320
  680MOL0     C91731   7.855   3.149   8.078  0.4605 -0.2806  1.2007
  680MOL0     C91732   7.843   3.280   7.997  0.1686 -0.0711 -0.7068
  680MOL0     H91733   8.358   2.836   7.979  1.4702  0.0197  1.3229
  680MOL0     H91734   8.593   2.826   7.869 -1.1799 -1.6405  2.3941
  680MOL0     H91735   8.756   2.850   7.657  2.5850  0.0945 -1.1560
  680MOL0     H91736   8.652   2.952   7.565 -1.9259  1.2895  1.7165
  680MOL0     H91737   8.892   2.945   7.487 -0.2226  0.2400  0.7966
  680MOL0     H91738   8.949   3.004   7.645  1.8222 -0.2375 -0.2556
  680MOL0     H91739   8.946   3.208   7.476 -0.0184 -1.7585 -0.1762
  680MOL0     H91740   8.794   3.228   7.566  1.5858 -0.0061  1.1735
  680MOL0     H91741   8.852   3.125   7.301 -1.2884  2.0813 -1.3296
  680MOL0     H91742   8.702   3.077   7.380 -0.1021 -0.1939 -0.0018
  680MOL0     H91743   8.665   3.296   7.223  0.4190  3.2973 -0.8692
  680MOL0     H91744   8.618   3.314   7.395  1.4940  3.2110 -0.1414
  680MOL0     H91745   8.800   3.456   7.439  0.7326  2.2409 -0.2296
  680MOL0     H91746   8.890   3.401   7.295 -0.5323 -1.1874 -1.3061
  680MOL0     H91747   8.725   3.492   7.144  1.4808  3.8507 -1.1588
  680MOL0     H91748   8.814   3.607   7.231  0.3698 -0.2648 -0.3623
  680MOL0     H91749   8.528   3.536   7.303  0.0139  0.9552 -0.9032
  680MOL0     H91750   8.640   3.628   7.400  3.2764 -0.4309 -0.1481
  680MOL0     H91751   8.775   3.858   7.298 -0.5809  2.7977  0.6001
  680MOL0     H91752   8.790   4.075   7.126 -0.0337 -3.4533  2.0155
  680MOL0     H91753   8.630   4.109   7.045  0.7040  0.7246 -0.6929
  680MOL0     H91754   8.536   4.205   7.207 -0.4901 -2.6315 -1.0611
  680MOL0     H91755   8.616   4.118   7.340  0.8863  0.7606  1.4025
  680MOL0     H91756   8.637   4.365   7.328 -2.8036 -1.7832 -1.0032
  680MOL0     H91757   8.703   4.353   7.166 -4.5632  0.1751 -0.2413
  680MOL0     H91758   8.909   4.233   7.257 -1.3622 -2.5678  0.8573
  680MOL0     H91759   8.825   4.259   7.422 -1.5863 -1.8759 -1.3001
  680MOL0     H91760   9.018   4.625   7.403 -2.4937 -1.2804  0.6143
  680MOL0     H91761   9.228   4.650   7.563 -0.1578 -1.2868  2.5665
  680MOL0     H91762   9.523   4.300   7.936 -0.1883  0.2644 -0.0333
  680MOL0     H91763   9.737   4.308   8.018  2.1453  1.9112  0.8366
  680MOL0     H91764  10.080   4.447   7.736 -0.9240  1.5245 -0.2920
  680MOL0     H91765  10.042   4.580   7.840 -0.7401  0.0617  1.5381
  680MOL0     H91766  10.254   4.548   7.919 -0.0484 -0.3169 -2.3433
  680MOL0     H91767  10.163   4.447   8.025 -1.2550 -1.7123 -1.1591
  680MOL0     H91768  10.320   4.288   7.968 -1.4999 -1.1469  0.9481
  680MOL0     H91769  10.208   4.254   7.834 -0.7568 -0.5073  1.4551
  680MOL0     H91770  10.467   4.412   7.841 -1.4411 -2.0204  2.7007
  680MOL0     H91771  10.358   4.425   7.698  0.9067  1.0591  0.8572
  680MOL0     H91772  10.396   4.197   7.629 -1.4295  0.9078 -0.8076
  680MOL0     H91773  10.479   4.148   7.774 -0.6368 -2.1066 -2.1989
  680MOL0     H91774  10.626   4.196   7.587 -1.9796 -0.1243 -1.1212
  680MOL0     H91775  10.597   4.370   7.611 -3.2391  1.4471  0.9842
  680MOL0     H91776  10.671   4.321   7.864 -1.0960 -0.5977  1.0202
  680MOL0     H91777  10.794   4.335   7.728 -0.9328 -1.1811 -0.0909
  680MOL0     H91778  10.692   4.077   7.839 -1.8252  0.4887 -3.3376
  680MOL0     H91779  10.810   4.099   7.711 -1.9126 -0.2480 -1.1842
  680MOL0     H91780   9.873   4.443   7.623  2.2317 -3.0970  1.5014
  680MOL0     H91781   9.664   4.355   7.541  1.3010 -0.2499  0.7214
  680MOL0     H91782   9.247   4.228   7.579 -0.2436 -0.0422 -0.9393
  680MOL0     H91783   9.050   4.209   7.430 -1.2686  0.3171 -0.7217
  680MOL0     H91784   8.515   3.237   7.744  1.0637 -0.9359  0.1216
  680MOL0     H91785   8.305   3.248   7.865 -1.8447 -0.4688 -3.5676
  680MOL0     H91786   8.041   2.874   8.121 -2.6706 -2.0048 -1.5602
  680MOL0     H91787   7.854   2.801   8.252  1.4094  0.9575  2.3385
  680MOL0     H91788   7.687   2.774   8.378 -0.2050  0.2312 -2.4916
  680MOL0     H91789   7.518   2.788   8.392  0.7222 -0.3135  2.4989
  680MOL0     H91790   7.535   2.981   8.561  1.5573  2.0283 -2.9601
  680MOL0     H91791   7.708   2.961   8.546 -1.0146  1.0216  0.4468
  680MOL0     H91792   7.708   2.734   8.607  1.0298  2.1046  0.9886
  680MOL0     H91793   7.528   2.743   8.633 -0.6424  1.7681  0.4636
  680MOL0     H91794   7.576   2.896   8.811  0.9588 -0.5088  1.0447
  680MOL0     H91795   7.662   2.759   8.855 -2.0274  0.6845  0.5160
  680MOL0     H91796   7.968   3.050   8.779 -1.0762  0.8704 -1.2603
  680MOL0     H91797   7.659   3.166   8.175 -0.8239 -2.1675  0.6453
  680MOL0     H91798   7.753   3.333   8.030  0.9720  0.4524  0.7711
  680MOL0     H91799   7.932   3.339   8.021 -0.3221 -0.7328  3.6010
  680MOL0     H91800   7.839   3.251   7.892 -1.9327 -0.8364 -0.4702
  681MOL0     O91801  10.621   8.239   4.700 -0.0315  0.4769 -0.5181
  681MOL0     C91802  10.525   8.239   4.773  0.4813 -1.0078 -0.5282
  681MOL0     O91803  10.476   8.124   4.836  0.5522 -0.0181  0.3470
  681MOL0     C91804  10.569   8.020   4.857 -0.5229 -0.1640  0.5230
  681MOL0     C91805  10.617   7.994   4.987  0.9768  0.9042 -0.1240
  681MOL0     C91806  10.717   7.906   5.000 -0.1962 -0.2416 -0.5127
  681MOL0     C91807  10.781   7.844   4.894  0.2215 -0.5061 -0.6015
  681MOL0     O91808  10.885   7.751   4.909  0.6883  0.2569 -0.4633
  681MOL0     C91809  10.854   7.614   4.869 -0.8685 -0.2154 -0.5351
  681MOL0     C91810  10.976   7.536   4.837  0.2926 -0.1192 -0.1991
  681MOL0     C91811  11.033   7.476   4.969  0.9053  0.6279 -0.0346
  681MOL0     C91812  11.169   7.427   4.938 -0.0461 -0.8702  0.8212
  681MOL0     C91813  11.251   7.364   5.046  0.1769 -0.4775  0.8702
  681MOL0     C91814  11.303   7.452   5.161  0.2930  0.1394 -0.1172
  681MOL0     C91815  11.400   7.372   5.250  0.3142 -0.4597  0.6512
  681MOL0     C91816  11.538   7.401   5.191 -0.0876  0.6789  0.6204
  681MOL0     N91817  11.639   7.337   5.274 -0.3927  0.1157 -0.4739
  681MOL0     C91818  11.618   7.225   5.358 -0.5240 -0.2101  0.1291
  681MOL0     C91819  11.734   7.202   5.414  0.5406 -0.3609  0.3271
  681MOL0     C91820  11.788   7.132   5.534  0.4536  0.5089  0.9565
  681MOL0     C91821  11.721   7.174   5.668  0.0037 -0.7201 -0.1202
  681MOL0     C91822  11.762   7.101   5.795 -0.1490 -0.6834  0.2158
  681MOL0     C91823  11.764   6.950   5.781 -0.0129  0.0683  0.5821
  681MOL0     O91824  11.673   6.879   5.686  0.5494 -0.4024  0.4547
  681MOL0     C91825  11.623   6.755   5.711  0.1441 -0.4287  0.6840
  681MOL0     C91826  11.513   6.700   5.648  0.9638  0.7499  1.2138
  681MOL0     C91827  11.481   6.559   5.653 -0.6337 -0.4942  1.0725
  681MOL0     C91828  11.568   6.478   5.726  0.2489 -1.0439 -0.0185
  681MOL0     C91829  11.526   6.337   5.726  0.1305 -0.3180 -0.1914
  681MOL0     O91830  11.498   6.282   5.850  0.4360 -0.4239 -0.3101
  681MOL0     C91831  11.465   6.154   5.869 -0.9193  0.6536 -0.5645
  681MOL0     C91832  11.372   6.111   5.965  1.4553 -0.8204  0.8987
  681MOL0     C91833  11.343   5.978   5.990  0.2744  0.1327 -0.2760
  681MOL0     C91834  11.406   5.879   5.930 -0.0811 -0.2677  0.6190
  681MOL0     O91835  11.362   5.762   5.973 -0.9075  0.0861 -0.2889
  681MOL0     C91836  11.450   5.650   5.966  1.0877 -0.7613  0.0116
  681MOL0     C91837  11.420   5.548   6.083  0.2381 -0.6456 -0.1976
  681MOL0     C91838  11.546   5.471   6.134  0.4511  0.5142  0.0480
  681MOL0     C91839  11.511   5.413   6.273  0.3123  0.2709  0.2228
  681MOL0     C91840  11.611   5.309   6.319  0.0641 -0.2612  0.8165
  681MOL0     C91841  11.566   5.227   6.435 -0.2425  0.9076 -0.3067
  681MOL0     C91842  11.601   5.307   6.567 -0.2393 -0.1563  0.6677
  681MOL0     C91843  11.550   5.224   6.684  0.0830  0.2893 -0.3352
  681MOL0    Cl91844  11.591   5.281   6.845  0.3808  0.2845  0.4028
  681MOL0     C91845  11.504   5.912   5.834  0.4658 -0.3760  0.4487
  681MOL0     C91846  11.526   6.046   5.799  0.7064  0.6670  0.5482
  681MOL0     O91847  11.513   6.280   5.616 -0.4243  0.5610 -0.1819
  681MOL0     C91848  11.675   6.532   5.791 -0.1918 -0.0792 -0.6190
  681MOL0     C91849  11.700   6.671   5.783 -0.4343 -0.2559  0.9500
  681MOL0     N91850  11.823   7.297   5.373 -0.2215  0.2892 -0.7760
  681MOL0     N91851  11.768   7.370   5.284 -0.1796 -0.2042  0.3663
  681MOL0     C91852  10.735   7.870   4.768  0.0404 -0.4758 -0.0306
  681MOL0     C91853  10.627   7.956   4.747  0.4787  0.6816 -0.1909
  681MOL0     C91854  10.458   8.368   4.819 -0.2947  0.3953 -0.0618
  681MOL0     C91855  10.371   8.370   4.922  0.5456  0.2567 -0.9938
  681MOL0     C91856  10.307   8.487   4.949  0.2205 -1.4107 -0.3204
  681MOL0     C91857  10.335   8.608   4.887 -0.0337  0.5808 -0.9862
  681MOL0     O91858  10.275   8.720   4.921  0.2384  0.0454 -0.7701
  681MOL0     C91859  10.220   8.752   5.054 -0.5147  0.4366 -0.3701
  681MOL0     C91860  10.068   8.769   5.060  0.6383 -0.3601  0.5049
  681MOL0     C91861  10.019   8.825   5.187 -0.6915  0.2840 -0.3075
  681MOL0     C91862   9.879   8.863   5.178  1.1584 -0.3179 -0.0634
  681MOL0     C91863   9.864   9.004   5.116  0.0232  0.2787  0.5085
  681MOL0     C91864   9.861   9.107   5.056 -0.0558  0.6019  0.8719
  681MOL0     C91865  10.431   8.613   4.782 -0.1393  0.0254 -0.1073
  681MOL0     C91866  10.483   8.487   4.738  0.6354 -0.8899 -0.6976
  681MOL0     C91867  10.569   8.502   4.609 -0.4413 -0.2797  0.3488
  681MOL0     H91868  10.568   8.031   5.077  1.1740  0.7221  0.0580
  681MOL0     H91869  10.749   7.887   5.102  0.1795  0.9157 -0.3963
  681MOL0     H91870  10.794   7.551   4.935 -1.2509  0.1247 -0.5593
  681MOL0     H91871  10.790   7.622   4.781 -1.6990  1.0814  0.1599
  681MOL0     H91872  11.055   7.591   4.785  0.0016 -0.2218 -0.7548
  681MOL0     H91873  10.942   7.458   4.769 -1.0703  0.5598 -0.3307
  681MOL0     H91874  10.965   7.400   5.008  1.4025 -0.3989 -1.0975
  681MOL0     H91875  11.056   7.550   5.046  2.5175  1.9567 -1.6988
  681MOL0     H91876  11.162   7.361   4.852  0.7296 -0.0035  0.0708
  681MOL0     H91877  11.230   7.513   4.908  0.0111 -0.6334  1.5710
  681MOL0     H91878  11.203   7.268   5.070  0.7987 -0.7399  1.0628
  681MOL0     H91879  11.342   7.335   4.993 -1.8742  0.5408 -3.7232
  681MOL0     H91880  11.356   7.542   5.129 -1.8054  0.9075 -1.7036
  681MOL0     H91881  11.214   7.466   5.222  0.8510 -0.0156  0.7405
  681MOL0     H91882  11.381   7.264   5.243 -0.6210 -0.1699 -3.1417
  681MOL0     H91883  11.395   7.414   5.351 -1.2456  0.3796  0.2535
  681MOL0     H91884  11.549   7.362   5.090 -2.9583 -2.4834  1.3520
  681MOL0     H91885  11.559   7.508   5.198  0.7748  0.4153  3.3786
  681MOL0     H91886  11.523   7.177   5.380 -0.0581 -1.7340 -0.9711
  681MOL0     H91887  11.778   7.023   5.526  3.7796  0.0105  2.1150
  681MOL0     H91888  11.895   7.150   5.540  0.0997  2.9930  0.7444
  681MOL0     H91889  11.731   7.283   5.674 -2.7352 -0.4687  1.0331
  681MOL0     H91890  11.614   7.154   5.659 -0.5430  1.4740  0.9874
  681MOL0     H91891  11.713   7.146   5.882 -0.0820  1.2277 -0.6834
  681MOL0     H91892  11.865   7.136   5.803 -0.4869 -0.0040  2.0873
  681MOL0     H91893  11.763   6.897   5.877  0.8141 -3.3989 -1.1674
  681MOL0     H91894  11.866   6.930   5.747  1.4706  3.1479  2.6681
  681MOL0     H91895  11.448   6.763   5.588 -0.5137 -3.0376 -1.5352
  681MOL0     H91896  11.390   6.518   5.610  0.5508  1.4138 -3.8839
  681MOL0     H91897  11.318   6.184   6.025  0.9875 -1.1897  0.9304
  681MOL0     H91898  11.269   5.948   6.064 -0.0279  0.4867 -0.4352
  681MOL0     H91899  11.431   5.605   5.868 -0.5073 -0.8566  0.3323
  681MOL0     H91900  11.555   5.678   5.966  0.9916 -0.3195  1.4858
  681MOL0     H91901  11.388   5.612   6.166 -0.1512 -1.5576  0.3690
  681MOL0     H91902  11.340   5.479   6.057  0.9892 -1.3379 -0.6845
  681MOL0     H91903  11.562   5.384   6.069 -2.2952 -0.4760  0.5766
  681MOL0     H91904  11.636   5.533   6.122 -0.1031  1.2304 -0.5282
  681MOL0     H91905  11.414   5.362   6.264 -0.0142  0.8427  0.4677
  681MOL0     H91906  11.484   5.484   6.352  2.0270 -0.5177  1.5872
  681MOL0     H91907  11.703   5.361   6.349 -0.7857 -0.3819  4.0430
  681MOL0     H91908  11.636   5.244   6.235 -0.0275  0.1855  0.4395
  681MOL0     H91909  11.464   5.187   6.428  0.0787 -0.2972  1.3657
  681MOL0     H91910  11.631   5.140   6.424  0.2580  1.1448  0.6550
  681MOL0     H91911  11.548   5.403   6.561  1.5966  0.8468 -0.3088
  681MOL0     H91912  11.709   5.324   6.563 -0.0967 -1.0844  0.3852
  681MOL0     H91913  11.444   5.197   6.679  1.1679 -4.7769 -2.6345
  681MOL0     H91914  11.599   5.126   6.681  1.0233  0.6924  1.1964
  681MOL0     H91915  11.569   5.836   5.792 -1.3289 -3.1541  2.3051
  681MOL0     H91916  11.582   6.076   5.712 -0.4336 -2.7676 -1.5745
  681MOL0     H91917  11.745   6.466   5.844 -3.3102 -0.7888  3.1208
  681MOL0     H91918  11.791   6.705   5.832 -0.3393 -0.2078  0.7397
  681MOL0     H91919  10.780   7.821   4.683 -1.7691 -5.3301  1.4402
  681MOL0     H91920  10.581   7.975   4.650  0.8079 -0.7669 -0.6508
  681MOL0     H91921  10.336   8.283   4.977  1.3989  1.7589  2.1509
  681MOL0     H91922  10.239   8.489   5.034 -0.5937  2.1577 -0.9219
  681MOL0     H91923  10.264   8.845   5.092  0.0952  1.1903 -2.7575
  681MOL0     H91924  10.255   8.677   5.125 -2.3455 -0.5945 -0.4951
  681MOL0     H91925  10.028   8.667   5.053  1.5646 -0.6762 -0.2486
  681MOL0     H91926  10.040   8.834   4.977 -1.4025 -2.1801 -0.3448
  681MOL0     H91927  10.074   8.915   5.215  0.8974 -0.4988 -0.8015
  681MOL0     H91928  10.036   8.759   5.273  0.7532  0.9428 -0.0677
  681MOL0     H91929   9.819   8.797   5.114  0.9731  0.1398 -0.3606
  681MOL0     H91930   9.841   8.873   5.280  2.3265 -1.1102  0.4752
  681MOL0     H91931   9.855   9.204   5.009 -0.1432 -0.0543 -0.5159
  681MOL0     H91932  10.450   8.703   4.725 -0.7441  1.2803  1.5796
  681MOL0     H91933  10.534   8.435   4.530  3.7200 -1.7368 -0.5315
  681MOL0     H91934  10.572   8.608   4.580  4.5569 -0.1230  0.4768
  681MOL0     H91935  10.673   8.466   4.615  0.7229  2.1587 -2.5002
  682MOL0     O91936   2.221   5.081   6.945  0.4340  0.7977  0.4337
  682MOL0     C91937   2.277   5.074   7.059 -0.5820  0.4945  0.2983
  682MOL0     O91938   2.394   5.008   7.082 -0.8809  0.5444 -0.0626
  682MOL0     C91939   2.457   4.939   6.978 -0.3129  0.0292  0.2265
  682MOL0     C91940   2.475   4.809   6.994 -0.0768 -0.0627 -0.0318
  682MOL0     C91941   2.566   4.735   6.909  1.3834 -0.1539 -0.5974
  682MOL0     C91942   2.639   4.795   6.805 -0.0807 -0.3225  0.6639
  682MOL0     O91943   2.712   4.716   6.732 -0.3092 -0.3239  0.2731
  682MOL0     C91944   2.690   4.726   6.586  0.2803  0.5718  0.1521
  682MOL0     C91945   2.808   4.661   6.514 -0.3382  0.5574  0.4262
  682MOL0     C91946   2.955   4.721   6.543  1.0723 -0.4369  0.0697
  682MOL0     C91947   3.058   4.614   6.606  0.3017 -0.5337  0.4912
  682MOL0     C91948   3.208   4.640   6.571 -0.3926  0.1840 -0.8134
  682MOL0     C91949   3.277   4.748   6.656 -0.5208  0.0857  0.2992
  682MOL0     C91950   3.433   4.739   6.630  1.3432 -0.1472  0.6784
  682MOL0     C91951   3.519   4.841   6.706  0.2054  0.2836 -0.4418
  682MOL0     N91952   3.498   4.987   6.674 -0.2639  0.4701  0.5714
  682MOL0     C91953   3.525   5.037   6.551  0.3511  0.3056  0.4581
  682MOL0     C91954   3.499   5.174   6.557 -1.1379 -0.2762  0.0407
  682MOL0     C91955   3.537   5.273   6.447  0.0153  0.0597  0.7872
  682MOL0     C91956   3.565   5.408   6.502  0.8096 -0.3296  0.0347
  682MOL0     C91957   3.437   5.498   6.537 -0.4807 -0.3494 -0.6392
  682MOL0     C91958   3.473   5.634   6.598 -1.2787  0.3709  0.1839
  682MOL0     O91959   3.352   5.710   6.586  0.0770  0.4679 -0.0695
  682MOL0     C91960   3.345   5.808   6.685 -0.3180  0.1619 -0.7200
  682MOL0     C91961   3.311   5.764   6.818 -0.0203 -0.3528  0.1900
  682MOL0     C91962   3.294   5.868   6.913 -0.6615 -0.5982 -0.4275
  682MOL0     C91963   3.328   6.004   6.891  0.1668 -0.5710 -0.1046
  682MOL0     C91964   3.331   6.099   7.000  1.0687  0.2328 -0.3882
  682MOL0     O91965   3.263   6.071   7.114  0.0609  0.4239 -0.1348
  682MOL0     C91966   3.230   6.168   7.206  0.0742 -0.1719 -0.2589
  682MOL0     C91967   3.098   6.195   7.225 -0.1943 -0.3329  0.0088
  682MOL0     C91968   3.048   6.299   7.314 -0.2167 -0.0019 -1.0313
  682MOL0     C91969   3.147   6.365   7.393  0.0466  0.2830  0.6834
  682MOL0     O91970   3.115   6.454   7.493 -0.6960  0.3717  0.5796
  682MOL0     C91971   2.998   6.538   7.487 -0.5782 -0.0646 -0.2037
  682MOL0     C91972   2.875   6.491   7.577 -0.4418 -1.0631 -0.2233
  682MOL0     C91973   2.767   6.593   7.581 -1.0878 -0.1749 -0.0813
  682MOL0     C91974   2.742   6.649   7.725  0.3239 -0.1217 -0.0276
  682MOL0     C91975   2.613   6.726   7.746 -0.4735 -0.2851 -0.3709
  682MOL0     C91976   2.622   6.807   7.877  0.1801 -0.0382 -0.0830
  682MOL0     C91977   2.494   6.890   7.896 -0.4930  0.5729 -1.6285
  682MOL0     C91978   2.509   6.990   8.015 -0.4737  0.5058  0.9420
  682MOL0    Cl91979   2.635   7.108   7.960  0.0467  0.2312 -0.2473
  682MOL0     C91980   3.280   6.334   7.367 -0.1157  0.1959 -0.9787
  682MOL0     C91981   3.327   6.235   7.277 -0.3858  0.2913 -0.4635
  682MOL0     O91982   3.397   6.203   6.981 -0.1559  0.2866 -0.4165
  682MOL0     C91983   3.364   6.040   6.764  0.3840  0.2708 -0.4472
  682MOL0     C91984   3.369   5.942   6.654  0.1729  0.2548  0.4805
  682MOL0     N91985   3.462   5.201   6.689  0.5133  0.1945 -0.0006
  682MOL0     N91986   3.458   5.088   6.752  1.1306 -0.6349  0.7314
  682MOL0     C91987   2.619   4.935   6.785  0.0012 -0.3259 -0.6626
  682MOL0     C91988   2.529   4.998   6.873 -0.5935  0.2672  0.6345
  682MOL0     C91989   2.224   5.152   7.175 -0.1740 -1.4124  0.2528
  682MOL0     C91990   2.292   5.149   7.295  0.3461  0.1310  0.0483
  682MOL0     C91991   2.256   5.228   7.403 -0.1330 -0.2049 -0.6014
  682MOL0     C91992   2.137   5.296   7.406 -0.1065  0.2978 -0.6759
  682MOL0     O91993   2.097   5.356   7.514  0.2296  0.0228  0.1901
  682MOL0     C91994   2.036   5.265   7.610  0.5920 -0.5969  0.0048
  682MOL0     C91995   2.069   5.347   7.736  0.3106  0.7134 -1.6692
  682MOL0     C91996   2.007   5.276   7.863 -0.1781 -0.2124 -0.1264
  682MOL0     C91997   1.890   5.347   7.921  0.4470 -0.3917  0.7234
  682MOL0     C91998   1.848   5.283   8.046 -1.2749 -0.5227  0.3599
  682MOL0     C91999   1.841   5.224   8.148  0.8819  0.2206 -0.2942
  682MOL0     C92000   2.065   5.299   7.296 -0.5580 -0.5125  0.6432
  682MOL0     C92001   2.100   5.240   7.170  0.4318 -0.5700 -0.9036
  682MOL0     C92002   2.007   5.262   7.051 -0.2118 -0.4855  0.1852
  682MOL0     H92003   2.425   4.757   7.076 -0.5486 -0.8954 -0.8318
  682MOL0     H92004   2.581   4.628   6.921  0.6363 -0.2350 -0.2859
  682MOL0     H92005   2.594   4.681   6.561 -0.0126  1.9799 -1.4294
  682MOL0     H92006   2.685   4.830   6.553 -3.3575  1.1644  2.0325
  682MOL0     H92007   2.779   4.697   6.414  2.6890  2.5454  0.1381
  682MOL0     H92008   2.815   4.557   6.546  1.1609  0.9133  1.3318
  682MOL0     H92009   2.944   4.814   6.599 -2.2652 -0.2806 -0.6711
  682MOL0     H92010   2.991   4.754   6.445  3.1619 -0.8006  0.6645
  682MOL0     H92011   3.033   4.624   6.712 -1.4114  0.6082  0.0293
  682MOL0     H92012   3.030   4.513   6.573 -0.1467 -0.5364  0.8728
  682MOL0     H92013   3.256   4.542   6.578  1.4983  0.9242 -2.4551
  682MOL0     H92014   3.218   4.652   6.463  1.7689 -1.2723 -0.8304
  682MOL0     H92015   3.245   4.848   6.623  0.4822  0.6842  1.0555
  682MOL0     H92016   3.259   4.752   6.764  0.0380 -0.3885  0.4122
  682MOL0     H92017   3.465   4.757   6.527  2.6809  0.7757  1.2131
  682MOL0     H92018   3.462   4.636   6.654  0.7302 -0.8588 -1.4080
  682MOL0     H92019   3.504   4.825   6.813 -0.7058  0.3368 -0.5562
  682MOL0     H92020   3.616   4.802   6.673 -0.0311 -3.3124  2.4793
  682MOL0     H92021   3.555   4.978   6.465 -3.0127  1.1206 -1.4889
  682MOL0     H92022   3.628   5.226   6.408 -0.2162 -2.1146  2.7123
  682MOL0     H92023   3.456   5.281   6.374 -0.4135  0.3717  1.2930
  682MOL0     H92024   3.629   5.393   6.589  4.7208 -0.7404 -2.6184
  682MOL0     H92025   3.630   5.457   6.428 -0.0990  1.6427  0.4801
  682MOL0     H92026   3.387   5.446   6.620  1.1226 -0.8972  0.0252
  682MOL0     H92027   3.364   5.500   6.456 -1.4353  1.5543  0.2030
  682MOL0     H92028   3.555   5.686   6.547  0.6708 -1.7099  1.0366
  682MOL0     H92029   3.510   5.607   6.697 -0.6033 -0.0344 -0.1681
  682MOL0     H92030   3.288   5.659   6.834 -0.4872 -0.6647 -2.1741
  682MOL0     H92031   3.240   5.837   7.003  0.2491 -1.2230 -0.0838
  682MOL0     H92032   3.024   6.146   7.162 -0.3129 -0.8287  0.5270
  682MOL0     H92033   2.944   6.319   7.336  0.3484  1.6473  0.3192
  682MOL0     H92034   3.043   6.634   7.516 -3.1683  1.6599 -1.5334
  682MOL0     H92035   2.966   6.546   7.383 -1.4658 -3.6050 -0.3174
  682MOL0     H92036   2.836   6.392   7.553  0.0203 -1.4522  0.6067
  682MOL0     H92037   2.915   6.478   7.678 -1.1338  2.4001  0.6400
  682MOL0     H92038   2.799   6.670   7.511  3.2123 -3.0704 -1.6926
  682MOL0     H92039   2.675   6.545   7.545  0.3817 -1.7405 -1.9575
  682MOL0     H92040   2.832   6.703   7.756 -1.0670  2.3375 -0.1099
  682MOL0     H92041   2.728   6.555   7.779  1.1237 -0.1163  0.2109
  682MOL0     H92042   2.521   6.667   7.756 -0.6576 -0.0053 -0.4161
  682MOL0     H92043   2.590   6.805   7.674 -0.3274  0.9882  0.9330
  682MOL0     H92044   2.631   6.733   7.958 -1.6384 -0.9611 -0.6563
  682MOL0     H92045   2.711   6.868   7.866 -0.1453  0.3515 -0.5952
  682MOL0     H92046   2.408   6.823   7.905 -3.0342  3.6092 -1.3290
  682MOL0     H92047   2.474   6.952   7.808 -1.8231  0.1163 -1.6709
  682MOL0     H92048   2.411   7.036   8.030  0.0380  1.6558  0.8577
  682MOL0     H92049   2.536   6.942   8.110 -0.5515 -1.0411  0.2169
  682MOL0     H92050   3.363   6.393   7.407  0.5182 -1.6405  0.5884
  682MOL0     H92051   3.435   6.220   7.283 -0.3139  1.2183  0.9785
  682MOL0     H92052   3.384   6.144   6.739 -1.1109  1.0772  1.4741
  682MOL0     H92053   3.394   5.967   6.552 -0.4028  1.2568  0.5713
  682MOL0     H92054   2.674   4.998   6.716 -3.1203  2.6263 -0.7264
  682MOL0     H92055   2.537   5.105   6.858  1.8583 -0.2511 -3.3368
  682MOL0     H92056   2.386   5.095   7.294  0.5716  0.5118 -1.5668
  682MOL0     H92057   2.303   5.212   7.500  1.0815  0.4235 -1.0717
  682MOL0     H92058   2.078   5.164   7.619  0.0446 -0.6661  2.2622
  682MOL0     H92059   1.929   5.249   7.594  0.9335 -2.2408 -0.8092
  682MOL0     H92060   2.027   5.446   7.720 -0.8780 -0.2042 -5.1529
  682MOL0     H92061   2.178   5.347   7.744  0.3858 -2.6593 -1.0884
  682MOL0     H92062   2.089   5.270   7.936 -0.6096 -2.2505  0.2365
  682MOL0     H92063   1.974   5.180   7.824 -2.7318 -1.0116  3.5044
  682MOL0     H92064   1.911   5.454   7.931  0.1165 -0.0983 -1.2534
  682MOL0     H92065   1.808   5.336   7.849 -1.9975  0.6890  3.1407
  682MOL0     H92066   1.839   5.176   8.244 -0.1077  0.4463 -0.1914
  682MOL0     H92067   1.977   5.361   7.284 -2.5779 -2.6556  3.2258
  682MOL0     H92068   1.914   5.314   7.073  1.0791  1.4640  1.3591
  682MOL0     H92069   2.071   5.316   6.981 -0.4792 -1.6740 -1.0328
  682MOL0     H92070   1.973   5.175   6.993  0.6347 -0.8463  0.2115
  683MOL0     O92071   1.914   6.562   2.809  0.4443 -0.5564  0.5346
  683MOL0     C92072   1.856   6.457   2.798 -0.2613  0.9634 -0.1219
  683MOL0     O92073   1.917   6.332   2.815 -0.3255 -0.2477 -0.3322
  683MOL0     C92074   2.049   6.325   2.853 -0.1515 -0.5182  0.2151
  683MOL0     C92075   2.077   6.339   2.986 -0.6506 -0.1715  0.2617
  683MOL0     C92076   2.203   6.334   3.040  0.3269  0.0780  0.3084
  683MOL0     C92077   2.315   6.311   2.951  0.7645  1.0912 -0.0945
  683MOL0     O92078   2.444   6.298   2.993 -0.2165 -0.3061  0.1599
  683MOL0     C92079   2.471   6.363   3.123  0.3779  0.5916 -0.3521
  683MOL0     C92080   2.618   6.366   3.155 -0.0861 -0.1105  0.6456
  683MOL0     C92081   2.661   6.234   3.199  0.5850  0.4243 -0.4375
  683MOL0     C92082   2.807   6.250   3.257  0.8025 -0.0201  0.4754
  683MOL0     C92083   2.847   6.130   3.349  0.6610 -0.5574  0.6607
  683MOL0     C92084   2.836   5.995   3.278 -0.8870  0.7034  0.7742
  683MOL0     C92085   2.974   5.929   3.263 -0.2862  0.7185 -0.1244
  683MOL0     C92086   3.057   5.975   3.144  0.6902  0.0765  0.0882
  683MOL0     N92087   3.206   5.958   3.165  0.0249 -0.0334  0.2464
  683MOL0     C92088   3.279   5.969   3.284 -0.2937 -0.9457  0.5318
  683MOL0     C92089   3.409   5.963   3.250 -0.6134 -0.6306  0.6239
  683MOL0     C92090   3.525   5.952   3.356 -0.2188  0.5102  0.3642
  683MOL0     C92091   3.655   5.880   3.300 -0.3515  0.5084 -0.7391
  683MOL0     C92092   3.633   5.726   3.281 -0.1286  0.5879 -0.4812
  683MOL0     C92093   3.588   5.644   3.403 -0.1307 -0.0774  0.6629
  683MOL0     O92094   3.453   5.685   3.428 -0.3826  0.5314  0.2957
  683MOL0     C92095   3.395   5.651   3.547  0.1879  0.8312  0.2977
  683MOL0     C92096   3.451   5.573   3.649 -0.3704  0.4747  0.7274
  683MOL0     C92097   3.371   5.540   3.756  0.4055 -0.3664  0.1353
  683MOL0     C92098   3.241   5.599   3.774 -0.0231  1.4463  0.5589
  683MOL0     C92099   3.158   5.567   3.893 -0.4509  1.1542  0.5733
  683MOL0     O92100   3.184   5.441   3.953 -0.6067  0.3953 -0.2063
  683MOL0     C92101   3.110   5.395   4.065 -0.1901  0.7450 -0.7913
  683MOL0     C92102   3.060   5.480   4.173 -0.5540 -0.2349 -0.6553
  683MOL0     C92103   3.015   5.418   4.291 -0.8261  0.3103 -0.2065
  683MOL0     C92104   3.019   5.283   4.306 -1.5282 -0.1637  0.3849
  683MOL0     O92105   2.956   5.233   4.414 -0.3137 -0.0911  0.8490
  683MOL0     C92106   3.037   5.136   4.482 -1.1777 -0.8176 -0.6780
  683MOL0     C92107   2.987   5.130   4.629 -0.2053  0.8004  0.2584
  683MOL0     C92108   2.850   5.073   4.645  0.5512  0.1675  0.5108
  683MOL0     C92109   2.812   5.081   4.795 -0.8589  0.0406  0.1256
  683MOL0     C92110   2.661   5.113   4.811  0.0519 -1.0098 -0.2840
  683MOL0     C92111   2.628   5.127   4.959  0.0193  0.1749  0.0193
  683MOL0     C92112   2.631   4.987   5.028 -0.5275  0.4205 -0.4949
  683MOL0     C92113   2.721   4.993   5.162 -0.0830 -0.9965  0.0847
  683MOL0    Cl92114   2.897   5.026   5.121  0.0142  0.1582 -0.2988
  683MOL0     C92115   3.059   5.201   4.202 -0.4798 -0.0642 -0.0460
  683MOL0     C92116   3.107   5.256   4.082 -0.0212  0.4192 -0.2626
  683MOL0     O92117   3.080   5.644   3.939 -0.1954  0.1570  0.3618
  683MOL0     C92118   3.190   5.680   3.666 -0.0721 -0.1346  0.2364
  683MOL0     C92119   3.271   5.698   3.557 -0.8106 -0.0677  0.9024
  683MOL0     N92120   3.417   5.933   3.116  0.1491 -0.2353 -0.1041
  683MOL0     N92121   3.296   5.936   3.063  0.3299  0.3518  0.6104
  683MOL0     C92122   2.292   6.294   2.820  0.5631 -0.3375  0.3126
  683MOL0     C92123   2.160   6.301   2.763  1.2197  0.3624 -0.5412
  683MOL0     C92124   1.715   6.471   2.750  0.5605  1.1088 -0.2933
  683MOL0     C92125   1.611   6.401   2.812  0.2619 -0.6973  0.5552
  683MOL0     C92126   1.484   6.408   2.772 -0.5704  0.6071 -0.1495
  683MOL0     C92127   1.452   6.509   2.671 -0.0524 -0.8900  0.0374
  683MOL0     O92128   1.327   6.514   2.618 -0.4905  0.4242 -0.9739
  683MOL0     C92129   1.282   6.612   2.536 -0.0061  0.9390  0.4824
  683MOL0     C92130   1.132   6.594   2.507  0.1748 -0.3479  0.4471
  683MOL0     C92131   1.105   6.472   2.423  0.3274  0.7123  0.0723
  683MOL0     C92132   0.968   6.442   2.384 -0.7406 -0.2571  0.8620
  683MOL0     C92133   0.922   6.549   2.288  0.4682 -1.4433  0.2894
  683MOL0     C92134   0.903   6.644   2.212  0.0376  0.1710  0.3302
  683MOL0     C92135   1.561   6.588   2.615  0.5756 -0.1538 -0.1381
  683MOL0     C92136   1.686   6.564   2.649 -0.2774 -0.2128  0.3753
  683MOL0     C92137   1.799   6.633   2.571 -0.4013  0.2659  0.0209
  683MOL0     H92138   1.996   6.356   3.057  0.6545  1.9706  1.3322
  683MOL0     H92139   2.213   6.356   3.145 -1.6614  0.1845  0.5203
  683MOL0     H92140   2.435   6.466   3.119 -0.9106  0.1339 -1.2370
  683MOL0     H92141   2.425   6.315   3.210  0.9034 -1.7773 -1.2936
  683MOL0     H92142   2.636   6.452   3.220  2.9226  0.2327 -0.4666
  683MOL0     H92143   2.665   6.396   3.061 -3.8277  3.5938 -0.3287
  683MOL0     H92144   2.653   6.169   3.111  0.1538  0.0815 -0.1450
  683MOL0     H92145   2.585   6.203   3.270  1.4375  3.7923  2.2234
  683MOL0     H92146   2.878   6.255   3.174  3.0759 -2.1865  2.1523
  683MOL0     H92147   2.809   6.345   3.312 -0.3863  2.0146 -2.7198
  683MOL0     H92148   2.949   6.154   3.381  0.6928  1.1626 -0.5683
  683MOL0     H92149   2.771   6.116   3.426 -0.6439  3.4263  0.3292
  683MOL0     H92150   2.773   5.918   3.324 -1.6342  0.0992 -1.1531
  683MOL0     H92151   2.788   6.003   3.180  1.8575 -2.2903 -1.0305
  683MOL0     H92152   2.970   5.820   3.254  2.3171  0.4711  0.6931
  683MOL0     H92153   3.026   5.952   3.357  0.2483 -0.6285 -0.0718
  683MOL0     H92154   3.024   5.909   3.062 -0.7624 -2.9535  2.8762
  683MOL0     H92155   3.018   6.075   3.121  0.6469 -0.3919 -2.1466
  683MOL0     H92156   3.239   5.989   3.383 -1.8379  1.0842 -0.4176
  683MOL0     H92157   3.551   6.057   3.372 -0.4169  0.6561 -0.2382
  683MOL0     H92158   3.482   5.909   3.447 -1.5192  3.0252  1.0220
  683MOL0     H92159   3.693   5.925   3.208  2.3825  0.8537  0.4779
  683MOL0     H92160   3.739   5.868   3.369 -1.4741 -1.1535  0.4133
  683MOL0     H92161   3.729   5.688   3.247  0.9652  1.8036  1.1169
  683MOL0     H92162   3.566   5.709   3.195  0.4009 -1.1881 -0.5760
  683MOL0     H92163   3.652   5.673   3.487  2.3653 -0.0213 -1.1773
  683MOL0     H92164   3.603   5.537   3.388  1.8680  0.0971  1.1710
  683MOL0     H92165   3.552   5.535   3.643 -0.5762 -0.1131  1.0014
  683MOL0     H92166   3.399   5.463   3.827  0.8671  0.2968  0.6763
  683MOL0     H92167   3.063   5.587   4.154  0.6104 -0.7503 -3.9109
  683MOL0     H92168   2.975   5.487   4.364 -0.8639  0.5808 -0.4789
  683MOL0     H92169   3.029   5.037   4.436 -2.4259 -2.4937  2.7483
  683MOL0     H92170   3.142   5.165   4.495 -0.4716 -3.2063 -0.4243
  683MOL0     H92171   3.062   5.079   4.690  0.2198 -0.5496 -1.3097
  683MOL0     H92172   2.992   5.234   4.661  0.3473 -0.3852  4.6654
  683MOL0     H92173   2.775   5.126   4.586 -0.8528 -4.3284 -2.3066
  683MOL0     H92174   2.841   4.970   4.607 -1.1309  1.2024 -2.1667
  683MOL0     H92175   2.860   5.159   4.854  0.1395  0.5651 -1.3476
  683MOL0     H92176   2.835   4.986   4.845 -0.8350  0.1327  0.2887
  683MOL0     H92177   2.601   5.042   4.753 -2.7390  2.2891 -1.8166
  683MOL0     H92178   2.647   5.213   4.767 -2.0625 -0.9302  0.4395
  683MOL0     H92179   2.694   5.194   5.015  1.0873 -2.4863  2.1919
  683MOL0     H92180   2.525   5.160   4.978  0.5766  1.1346  1.5362
  683MOL0     H92181   2.671   4.910   4.961  1.6180 -1.6426  2.8556
  683MOL0     H92182   2.527   4.961   5.051 -0.2238 -0.2449  0.1848
  683MOL0     H92183   2.694   5.071   5.234  2.7821  0.5126 -0.2773
  683MOL0     H92184   2.700   4.897   5.208 -4.1099 -0.2680  0.1249
  683MOL0     H92185   3.066   5.093   4.209 -1.1237 -0.0288  2.0180
  683MOL0     H92186   3.139   5.190   4.002  2.2235 -0.3854  1.1909
  683MOL0     H92187   3.098   5.734   3.685 -0.3462  0.2819 -2.0445
  683MOL0     H92188   3.220   5.757   3.481 -2.8480  1.6418  3.4315
  683MOL0     H92189   2.381   6.283   2.759  0.8795 -0.4033  0.7762
  683MOL0     H92190   2.142   6.295   2.656  1.1025 -4.1947 -0.4462
  683MOL0     H92191   1.618   6.337   2.899 -3.1733 -1.8102  0.1560
  683MOL0     H92192   1.416   6.336   2.818  0.3730  0.8953  1.7848
  683MOL0     H92193   1.343   6.606   2.445 -2.5595  0.9690 -1.3643
  683MOL0     H92194   1.300   6.704   2.592  0.5360  0.5150  1.0066
  683MOL0     H92195   1.088   6.682   2.459 -0.5967 -1.6566 -1.3665
  683MOL0     H92196   1.075   6.567   2.596  0.7569 -4.7522 -0.2642
  683MOL0     H92197   1.146   6.389   2.482  0.4272  1.3076  0.8489
  683MOL0     H92198   1.169   6.482   2.334  1.0903  2.0684  0.7476
  683MOL0     H92199   0.954   6.343   2.340  1.4901 -1.4543  2.6443
  683MOL0     H92200   0.906   6.428   2.474  0.7225  0.0835  1.9510
  683MOL0     H92201   0.898   6.721   2.137  1.2070  1.4598  1.5388
  683MOL0     H92202   1.544   6.657   2.533 -1.1512 -0.5519 -0.1569
  683MOL0     H92203   1.819   6.733   2.610  4.6812 -1.2666  2.0237
  683MOL0     H92204   1.888   6.572   2.558  0.2941  1.6108 -2.1551
  683MOL0     H92205   1.772   6.639   2.465 -0.6250  1.6738  0.1370
  684MOL0     O92206  10.993   2.456   0.599 -0.0535  0.7713  0.3604
  684MOL0     C92207  10.918   2.407   0.684  0.0044  0.2305  0.3360
  684MOL0     O92208  10.844   2.294   0.666  0.1259 -0.2868 -0.1375
  684MOL0     C92209  10.870   2.210   0.554  0.6727 -0.0889 -0.6034
  684MOL0     C92210  11.001   2.155   0.524  0.3203  0.0052  0.2558
  684MOL0     C92211  11.022   2.075   0.414 -0.3749  0.6862  0.6608
  684MOL0     C92212  10.918   2.058   0.317  0.9582  0.6664 -0.2376
  684MOL0     O92213  10.927   1.990   0.197  0.9451 -0.2128  0.0034
  684MOL0     C92214  11.046   1.932   0.149  0.4221 -0.7708 -0.6720
  684MOL0     C92215  11.086   1.801   0.212  0.1408  0.6435 -0.0967
  684MOL0     C92216  11.207   1.746   0.140  0.4022  0.4233 -0.7362
  684MOL0     C92217  11.159   1.665   0.014  0.0965  0.0470  1.1591
  684MOL0     C92218  11.273   1.600  -0.054  0.6658  0.6974 -0.2546
  684MOL0     C92219  11.232   1.531  -0.193 -0.3525  0.1299  0.4742
  684MOL0     C92220  11.303   1.394  -0.216  0.3484  0.1735  0.3267
  684MOL0     C92221  11.446   1.408  -0.258 -0.3540  0.3811 -0.0130
  684MOL0     N92222  11.520   1.276  -0.265  0.1478  0.1830 -0.2853
  684MOL0     C92223  11.474   1.146  -0.262 -0.6988 -0.0158  0.4532
  684MOL0     C92224  11.590   1.073  -0.265 -0.3314  0.7723 -0.4513
  684MOL0     C92225  11.601   0.924  -0.272 -0.3908 -0.1742 -0.2472
  684MOL0     C92226  11.679   0.863  -0.397 -0.3287  0.0008 -0.6613
  684MOL0     C92227  11.613   0.894  -0.533 -0.0619 -0.3608 -0.3329
  684MOL0     C92228  11.690   0.813  -0.639 -0.4858  0.2356 -0.1508
  684MOL0     O92229  11.613   0.795  -0.756  0.0951 -0.0499 -0.8675
  684MOL0     C92230  11.578   0.910  -0.824 -0.1107  0.1355 -0.0444
  684MOL0     C92231  11.469   0.881  -0.904  0.6248 -0.2392  0.5150
  684MOL0     C92232  11.418   0.986  -0.987  0.7335  0.5449 -0.5432
  684MOL0     C92233  11.473   1.112  -0.995  0.0054 -0.4135 -0.4632
  684MOL0     C92234  11.429   1.209  -1.092  0.0740  0.4262  0.7262
  684MOL0     O92235  11.476   1.340  -1.091 -0.0453 -0.4872 -0.4682
  684MOL0     C92236  11.432   1.436  -1.190 -0.1223  0.0308 -0.6778
  684MOL0     C92237  11.456   1.564  -1.139 -0.6731  0.1217  0.4954
  684MOL0     C92238  11.440   1.673  -1.206 -0.2317 -0.2373 -0.4176
  684MOL0     C92239  11.372   1.673  -1.330 -0.3330  0.3975  0.1740
  684MOL0     O92240  11.336   1.792  -1.377  0.3691  0.3625  0.0697
  684MOL0     C92241  11.231   1.790  -1.473  0.0687  1.1837  0.7979
  684MOL0     C92242  11.240   1.921  -1.547  0.3693 -0.2539  0.5881
  684MOL0     C92243  11.106   1.950  -1.613  0.2152 -0.2329 -0.2755
  684MOL0     C92244  11.116   1.966  -1.768 -0.2032  0.3504  0.1717
  684MOL0     C92245  11.176   2.103  -1.809  0.3077  0.2767 -0.3064
  684MOL0     C92246  11.146   2.120  -1.960 -0.3607  0.3458  0.3256
  684MOL0     C92247  11.235   2.228  -2.022  0.5261 -0.2376  0.2196
  684MOL0     C92248  11.164   2.283  -2.157 -0.7697 -1.3016  0.1352
  684MOL0    Cl92249  11.256   2.429  -2.190 -0.1300 -0.3067  0.1932
  684MOL0     C92250  11.348   1.548  -1.388  1.2576  0.7375 -0.6036
  684MOL0     C92251  11.367   1.429  -1.313 -0.6725  0.1767  0.3706
  684MOL0     O92252  11.342   1.168  -1.173  0.0969 -0.1240 -0.1662
  684MOL0     C92253  11.585   1.137  -0.919 -0.0812  0.6376  0.0393
  684MOL0     C92254  11.635   1.038  -0.823  0.1231 -0.1617 -0.4167
  684MOL0     N92255  11.697   1.163  -0.276  0.0054 -0.2018  0.4372
  684MOL0     N92256  11.654   1.281  -0.265  0.8389 -0.4696 -0.4698
  684MOL0     C92257  10.798   2.132   0.340  0.4080 -0.2312  0.5837
  684MOL0     C92258  10.775   2.195   0.464 -0.0613  0.3457  0.1052
  684MOL0     C92259  10.887   2.497   0.798  0.7868  0.1819  0.3693
  684MOL0     C92260  10.754   2.515   0.828  1.3609  0.2462  0.0612
  684MOL0     C92261  10.708   2.600   0.934  0.3744 -0.5809 -0.7093
  684MOL0     C92262  10.803   2.677   1.007 -0.0731  0.3699 -0.1967
  684MOL0     O92263  10.776   2.761   1.120 -0.1340 -0.4276 -0.9165
  684MOL0     C92264  10.646   2.826   1.137  0.2185  0.0352 -0.0867
  684MOL0     C92265  10.626   2.943   1.034  0.0964 -0.8079  0.7736
  684MOL0     C92266  10.581   3.074   1.094  0.4247 -0.8498 -0.5142
  684MOL0     C92267  10.570   3.188   0.991 -0.0359 -0.4337  0.8004
  684MOL0     C92268  10.464   3.283   1.015  0.7402 -1.3145 -0.6690
  684MOL0     C92269  10.363   3.337   1.057  0.2756 -0.9003  0.1548
  684MOL0     C92270  10.938   2.664   0.973  0.0043 -0.3199  0.1015
  684MOL0     C92271  10.978   2.580   0.867 -0.0523 -0.3859 -0.8841
  684MOL0     C92272  11.124   2.594   0.823  0.7903 -0.6888 -0.5989
  684MOL0     H92273  11.080   2.180   0.594 -1.2408 -0.8286  2.4242
  684MOL0     H92274  11.122   2.036   0.397 -0.9758  0.0749 -1.7924
  684MOL0     H92275  11.037   1.920   0.040 -0.0802 -0.7206 -0.6413
  684MOL0     H92276  11.132   1.996   0.167  1.2550 -1.9630 -0.2525
  684MOL0     H92277  11.002   1.733   0.193  2.1521 -1.1616 -3.4886
  684MOL0     H92278  11.107   1.820   0.317  0.5860 -0.2839 -0.0133
  684MOL0     H92279  11.260   1.675   0.204 -0.2050 -1.0203 -1.7772
  684MOL0     H92280  11.275   1.827   0.113 -2.9355  2.7749 -2.7022
  684MOL0     H92281  11.094   1.578   0.028  0.9052 -0.6148  0.8709
  684MOL0     H92282  11.108   1.739  -0.049  0.6892  1.9182  2.7964
  684MOL0     H92283  11.338   1.679  -0.091 -1.0893  2.2220 -0.2189
  684MOL0     H92284  11.338   1.528  -0.003 -1.2574 -0.0400  1.3451
  684MOL0     H92285  11.123   1.520  -0.194 -0.3497  0.1357 -0.2526
  684MOL0     H92286  11.247   1.581  -0.289 -1.2800 -2.1854 -0.9526
  684MOL0     H92287  11.241   1.350  -0.295  0.7882  0.5572 -0.2353
  684MOL0     H92288  11.292   1.329  -0.128 -2.0180  0.2152  0.1257
  684MOL0     H92289  11.449   1.465  -0.351 -1.3798  3.1642  1.5224
  684MOL0     H92290  11.494   1.473  -0.184 -1.3574  2.5981 -1.1995
  684MOL0     H92291  11.376   1.103  -0.250 -1.3911  0.5310 -2.4018
  684MOL0     H92292  11.662   0.905  -0.183 -0.1424  0.3826 -0.2959
  684MOL0     H92293  11.503   0.875  -0.274  0.0747 -1.2232  1.0630
  684MOL0     H92294  11.773   0.918  -0.405 -1.0255  0.8898 -4.5862
  684MOL0     H92295  11.688   0.755  -0.382  1.0151  0.3075  1.0519
  684MOL0     H92296  11.628   1.001  -0.550 -0.7567 -0.4306 -1.5349
  684MOL0     H92297  11.508   0.862  -0.531 -0.3820  0.6833 -0.0972
  684MOL0     H92298  11.714   0.717  -0.593 -0.7149 -0.0152 -0.5538
  684MOL0     H92299  11.788   0.860  -0.658 -0.0617  0.3732  2.1116
  684MOL0     H92300  11.411   0.790  -0.900 -1.5328  0.6817 -4.1125
  684MOL0     H92301  11.331   0.968  -1.050 -0.0774  2.8582 -0.1934
  684MOL0     H92302  11.504   1.571  -1.041 -1.1290  1.2755  0.6506
  684MOL0     H92303  11.467   1.767  -1.159  1.6038 -0.2079 -1.4511
  684MOL0     H92304  11.229   1.708  -1.545  0.4672 -0.8166  2.9360
  684MOL0     H92305  11.137   1.786  -1.418 -0.7759 -5.4244 -0.3063
  684MOL0     H92306  11.275   2.005  -1.487  0.9348  0.0803 -0.1935
  684MOL0     H92307  11.319   1.908  -1.622 -1.7572 -3.2316 -1.3798
  684MOL0     H92308  11.032   1.871  -1.598  0.1819 -0.4712 -1.6069
  684MOL0     H92309  11.053   2.035  -1.569 -0.3751 -2.3781  3.6302
  684MOL0     H92310  11.016   1.967  -1.813 -0.9694 -0.8742  1.7394
  684MOL0     H92311  11.180   1.890  -1.813 -0.3177  2.5491 -4.1358
  684MOL0     H92312  11.285   2.103  -1.799  0.2550  3.1301  1.2739
  684MOL0     H92313  11.136   2.188  -1.754  4.6746  6.3928 -5.0857
  684MOL0     H92314  11.155   2.022  -2.006 -1.3273 -1.4965  3.6907
  684MOL0     H92315  11.044   2.157  -1.967  0.7997  3.8099 -0.6311
  684MOL0     H92316  11.330   2.180  -2.046  0.7509 -0.3406  1.2542
  684MOL0     H92317  11.259   2.302  -1.945 -2.4606  0.7486  0.3287
  684MOL0     H92318  11.162   2.220  -2.247  2.9374 -0.0880 -0.9541
  684MOL0     H92319  11.060   2.310  -2.133 -0.0682 -0.3604  2.3095
  684MOL0     H92320  11.297   1.531  -1.482  0.2013 -1.7532  0.3226
  684MOL0     H92321  11.352   1.330  -1.357  0.5432  0.7802 -1.5108
  684MOL0     H92322  11.641   1.230  -0.925 -1.9523  1.8186  0.0614
  684MOL0     H92323  11.708   1.067  -0.749  1.4570  1.7693 -2.3803
  684MOL0     H92324  10.724   2.131   0.261  1.7083  0.2905 -0.6883
  684MOL0     H92325  10.684   2.245   0.497 -1.2145 -1.0646 -0.8378
  684MOL0     H92326  10.677   2.454   0.782 -1.3672  3.1170  0.4198
  684MOL0     H92327  10.609   2.589   0.976  0.3437 -5.1152 -1.5338
  684MOL0     H92328  10.639   2.865   1.239  2.4089  1.9277 -0.5787
  684MOL0     H92329  10.562   2.757   1.128  0.5047 -1.2285  4.3238
  684MOL0     H92330  10.549   2.912   0.963 -0.5462 -0.8226  1.4634
  684MOL0     H92331  10.719   2.958   0.977  0.8829  0.9496  2.4062
  684MOL0     H92332  10.645   3.101   1.178 -1.1232 -1.5778  0.9570
  684MOL0     H92333  10.480   3.071   1.135  1.2791 -0.1868  1.7871
  684MOL0     H92334  10.667   3.238   0.985 -0.0100 -0.5553 -5.2811
  684MOL0     H92335  10.559   3.137   0.895 -0.7569 -2.5847  1.9396
  684MOL0     H92336  10.278   3.386   1.101  1.0857  0.2314  0.5232
  684MOL0     H92337  11.010   2.715   1.036  0.1359 -0.4894  0.0903
  684MOL0     H92338  11.135   2.644   0.727  0.6531 -0.1596 -0.3416
  684MOL0     H92339  11.182   2.663   0.885  0.3406  0.5974 -1.5714
  684MOL0     H92340  11.172   2.496   0.827  0.0431 -1.1105 -1.4599
  685MOL0     O92341   9.014   7.151   6.873 -0.1644  0.1666  0.1194
  685MOL0     C92342   9.010   7.025   6.857 -0.8182  0.1571 -0.5494
  685MOL0     O92343   9.123   6.944   6.874 -0.3336  0.1018  0.7232
  685MOL0     C92344   9.232   7.009   6.927  0.9545 -0.1701  0.1621
  685MOL0     C92345   9.255   7.005   7.059  0.8823 -0.7584  0.2252
  685MOL0     C92346   9.370   7.077   7.111  1.1012 -0.7785  0.5735
  685MOL0     C92347   9.463   7.144   7.023 -0.0685  0.7177 -0.6875
  685MOL0     O92348   9.566   7.215   7.080 -0.0984  0.5030 -0.1234
  685MOL0     C92349   9.541   7.305   7.187  0.6845 -0.1190 -0.2208
  685MOL0     C92350   9.621   7.433   7.181  0.0132  1.1364 -0.7107
  685MOL0     C92351   9.771   7.392   7.199  0.2970  0.1881 -0.2223
  685MOL0     C92352   9.858   7.515   7.204  0.4697  1.1980 -0.0410
  685MOL0     C92353  10.005   7.483   7.192 -0.7384  0.1002  0.3609
  685MOL0     C92354  10.054   7.403   7.077 -1.2071 -1.2034 -0.2305
  685MOL0     C92355  10.200   7.383   7.078 -0.9286 -1.1647 -0.4931
  685MOL0     C92356  10.240   7.343   6.936 -0.5874 -0.8756 -0.4110
  685MOL0     N92357  10.385   7.315   6.917  0.7652  0.0475 -0.2290
  685MOL0     C92358  10.476   7.406   6.881 -0.4179 -0.0352 -0.8527
  685MOL0     C92359  10.594   7.342   6.881  0.1277  0.4740  0.2637
  685MOL0     C92360  10.726   7.400   6.837  0.5191 -0.1390  0.8636
  685MOL0     C92361  10.745   7.412   6.683  0.3957 -0.7321 -0.3219
  685MOL0     C92362  10.892   7.442   6.637 -0.0044  0.7192 -0.1686
  685MOL0     C92363  10.895   7.461   6.487  1.1047  0.8835  0.3924
  685MOL0     O92364  10.916   7.334   6.420 -0.3205  0.1640  0.6939
  685MOL0     C92365  11.045   7.283   6.423  0.0272  0.4610 -0.6213
  685MOL0     C92366  11.057   7.169   6.350  0.0290  0.0544 -0.2176
  685MOL0     C92367  11.183   7.098   6.330 -0.3726 -1.0211  0.5152
  685MOL0     C92368  11.304   7.159   6.384  0.0269 -0.1313  0.7438
  685MOL0     C92369  11.438   7.113   6.356  0.4946  0.1285  0.3426
  685MOL0     O92370  11.447   7.004   6.275  0.8824 -0.6245  0.1164
  685MOL0     C92371  11.569   6.937   6.256 -0.3560  0.2116 -0.0098
  685MOL0     C92372  11.559   6.799   6.270  0.6964  0.3944  0.4079
  685MOL0     C92373  11.663   6.714   6.238 -0.6686 -1.0957 -0.4858
  685MOL0     C92374  11.785   6.769   6.186 -0.2702 -0.5975  0.3128
  685MOL0     O92375  11.883   6.684   6.147  0.3807  1.0942 -0.4565
  685MOL0     C92376  11.930   6.603   6.256 -0.2752  0.7661 -0.6449
  685MOL0     C92377  12.044   6.677   6.337  0.6344 -1.3516 -0.0327
  685MOL0     C92378  12.121   6.575   6.412  0.5067 -1.4499  0.3234
  685MOL0     C92379  12.179   6.644   6.539  0.4118 -0.0465 -0.0136
  685MOL0     C92380  12.283   6.764   6.510  0.2885 -0.1243 -0.3970
  685MOL0     C92381  12.358   6.809   6.637 -0.4075 -0.2354  0.2535
  685MOL0     C92382  12.472   6.909   6.607 -0.3266 -0.2712  0.0479
  685MOL0     C92383  12.444   7.034   6.521 -0.1327 -0.1480  1.5153
  685MOL0    Cl92384  12.579   7.150   6.539  0.2567  0.0729  0.4519
  685MOL0     C92385  11.797   6.909   6.176 -0.2952  0.5136 -0.2510
  685MOL0     C92386  11.692   6.992   6.203 -0.3704  0.8452  0.1772
  685MOL0     O92387  11.524   7.159   6.428  0.0880 -0.1345 -0.5974
  685MOL0     C92388  11.287   7.285   6.453  0.9017 -0.2360  0.3112
  685MOL0     C92389  11.166   7.344   6.468 -0.4209 -0.5582 -0.8002
  685MOL0     N92390  10.569   7.207   6.907  1.2674 -0.4744  0.4064
  685MOL0     N92391  10.445   7.190   6.931  0.1863 -0.6762  0.1388
  685MOL0     C92392   9.438   7.144   6.881  0.1304  0.8020 -0.0573
  685MOL0     C92393   9.317   7.085   6.836  0.5295  1.0373 -0.7906
  685MOL0     C92394   8.893   6.948   6.802  0.1271  0.5776 -0.2245
  685MOL0     C92395   8.906   6.818   6.744  0.1284  0.1963  0.5206
  685MOL0     C92396   8.806   6.742   6.686  0.0887  0.5758  0.6032
  685MOL0     C92397   8.677   6.786   6.704  0.0661 -0.1025 -0.5551
  685MOL0     O92398   8.588   6.677   6.680 -0.2254 -0.3910  0.6513
  685MOL0     C92399   8.447   6.692   6.688  0.5649 -1.0078 -1.2059
  685MOL0     C92400   8.367   6.569   6.644 -0.0981 -0.5941 -0.0392
  685MOL0     C92401   8.402   6.531   6.512  0.3792  0.3758 -0.1916
  685MOL0     C92402   8.312   6.413   6.463  0.2623  0.6730 -0.1661
  685MOL0     C92403   8.358   6.371   6.336 -0.0723  0.3307  0.3318
  685MOL0     C92404   8.401   6.323   6.237  0.8822 -0.8573  0.2332
  685MOL0     C92405   8.654   6.904   6.767  0.2755  0.4538  0.8186
  685MOL0     C92406   8.754   6.994   6.811 -0.7327 -0.0803 -0.4479
  685MOL0     C92407   8.724   7.140   6.866 -0.7449 -0.4854  0.4228
  685MOL0     H92408   9.189   6.949   7.124  1.0049 -0.5469  0.5319
  685MOL0     H92409   9.394   7.080   7.217  0.5676 -0.6721  0.6941
  685MOL0     H92410   9.439   7.346   7.183  1.0987  0.8737 -1.1293
  685MOL0     H92411   9.545   7.241   7.275 -1.7187 -2.4131 -1.6329
  685MOL0     H92412   9.598   7.502   7.262  0.7025 -0.0016  0.4952
  685MOL0     H92413   9.600   7.478   7.083  1.0872  3.3612  0.0138
  685MOL0     H92414   9.803   7.319   7.124 -1.3495 -2.8726  1.8430
  685MOL0     H92415   9.799   7.348   7.296 -1.0259  0.0410  0.1105
  685MOL0     H92416   9.836   7.574   7.115  1.2153 -0.6739 -1.5598
  685MOL0     H92417   9.833   7.559   7.300  0.3882  0.2963  0.3663
  685MOL0     H92418  10.052   7.582   7.198 -1.5796  0.6421 -1.2911
  685MOL0     H92419  10.046   7.439   7.283 -3.1101 -1.5803  0.6842
  685MOL0     H92420  10.006   7.307   7.062  0.1094 -1.5982 -2.4508
  685MOL0     H92421  10.034   7.467   6.990 -2.6045 -1.2658  0.0215
  685MOL0     H92422  10.219   7.301   7.148 -0.3951 -2.5094 -2.1297
  685MOL0     H92423  10.258   7.470   7.110 -3.1132  0.2983 -0.3157
  685MOL0     H92424  10.190   7.248   6.913 -1.0488 -0.6849 -0.2037
  685MOL0     H92425  10.217   7.430   6.874 -0.3613 -0.1992  0.4328
  685MOL0     H92426  10.466   7.513   6.861  0.7068  0.1977 -0.2654
  685MOL0     H92427  10.735   7.495   6.891 -2.0619  1.4263 -1.1965
  685MOL0     H92428  10.796   7.324   6.871  1.2963 -1.5556 -3.3273
  685MOL0     H92429  10.711   7.320   6.635  0.6798 -0.4195 -1.1360
  685MOL0     H92430  10.676   7.486   6.642 -0.3606 -1.0184  0.4067
  685MOL0     H92431  10.965   7.364   6.663  1.2074  1.5639 -0.9328
  685MOL0     H92432  10.931   7.530   6.689  1.3127  0.4791 -0.7100
  685MOL0     H92433  10.974   7.530   6.457  0.0422  0.7528 -3.2418
  685MOL0     H92434  10.800   7.502   6.451  0.9031 -0.0696 -0.2213
  685MOL0     H92435  10.973   7.118   6.304 -0.1401  0.9222 -0.8769
  685MOL0     H92436  11.180   7.019   6.256  0.3500  1.3091 -2.1808
  685MOL0     H92437  11.467   6.755   6.308  0.6244  2.5285  2.9973
  685MOL0     H92438  11.646   6.607   6.226  3.4129 -1.7667 -1.8364
  685MOL0     H92439  11.858   6.558   6.324 -0.3881  0.0570 -1.2149
  685MOL0     H92440  11.963   6.512   6.205  0.9685  2.1317 -2.4102
  685MOL0     H92441  12.101   6.734   6.263 -1.2282 -2.6468 -2.6503
  685MOL0     H92442  11.996   6.729   6.420  1.4523 -1.9887  0.8592
  685MOL0     H92443  12.063   6.485   6.433  1.6260 -2.2024  0.2537
  685MOL0     H92444  12.211   6.553   6.353  1.0104  3.1629 -1.0153
  685MOL0     H92445  12.249   6.583   6.597  0.9528  1.5396  1.0900
  685MOL0     H92446  12.096   6.685   6.598 -0.0995  1.3516 -1.6271
  685MOL0     H92447  12.228   6.855   6.483  2.8665  1.6736  0.0273
  685MOL0     H92448  12.358   6.738   6.435  0.5369 -0.6953  0.0392
  685MOL0     H92449  12.285   6.840   6.713  0.2344  0.3589  0.6365
  685MOL0     H92450  12.417   6.727   6.678  0.8417  0.3875 -0.2301
  685MOL0     H92451  12.551   6.849   6.560 -1.8067 -4.1119  1.9877
  685MOL0     H92452  12.507   6.954   6.700  0.9137  3.9842 -2.1872
  685MOL0     H92453  12.432   7.010   6.415 -0.6508 -2.5772  2.0569
  685MOL0     H92454  12.350   7.072   6.562 -1.9557 -2.3397 -0.3467
  685MOL0     H92455  11.891   6.950   6.139 -0.9125  0.0037 -2.5384
  685MOL0     H92456  11.690   7.100   6.195 -0.3650  0.8928  0.7738
  685MOL0     H92457  11.371   7.347   6.481  1.1830  0.0011 -0.9730
  685MOL0     H92458  11.160   7.448   6.497  1.6762 -0.3832 -0.8313
  685MOL0     H92459   9.502   7.179   6.801 -1.4842 -0.3836 -1.9701
  685MOL0     H92460   9.290   7.084   6.731  0.0303  2.0521 -0.6750
  685MOL0     H92461   9.004   6.773   6.732 -0.3977 -0.8924  0.0989
  685MOL0     H92462   8.832   6.644   6.648  0.3980  0.9426 -0.1560
  685MOL0     H92463   8.413   6.779   6.631 -4.3517 -2.5299 -1.0992
  685MOL0     H92464   8.422   6.720   6.791  1.1487 -3.9194 -0.1993
  685MOL0     H92465   8.259   6.587   6.652 -0.1469 -1.0624  0.4125
  685MOL0     H92466   8.391   6.483   6.707 -0.6952 -0.0553  0.9568
  685MOL0     H92467   8.508   6.503   6.512 -0.0691 -1.4842  1.4220
  685MOL0     H92468   8.396   6.611   6.437 -0.6085 -1.0780 -1.7177
  685MOL0     H92469   8.324   6.322   6.524 -3.2392  0.2825  0.1357
  685MOL0     H92470   8.210   6.452   6.460 -0.7522 -1.5494  1.7748
  685MOL0     H92471   8.430   6.278   6.145 -2.7759  2.2768 -2.8121
  685MOL0     H92472   8.548   6.926   6.771  0.2925  0.5639  0.6689
  685MOL0     H92473   8.716   7.137   6.975 -0.6930 -0.5610  0.4249
  685MOL0     H92474   8.795   7.213   6.826  0.7638 -2.2538 -0.2566
  685MOL0     H92475   8.621   7.160   6.834 -1.8900 -2.9801  2.2175
  686MOL0     O92476   5.207   3.823   0.177 -0.2963  0.0367  0.2546
  686MOL0     C92477   5.207   3.948   0.178 -0.3376 -1.3311 -0.6256
  686MOL0     O92478   5.317   4.023   0.156  0.7357 -0.7192 -1.1411
  686MOL0     C92479   5.411   3.957   0.080 -0.6521 -0.8465 -0.1574
  686MOL0     C92480   5.506   3.887   0.156  0.6510  0.1110  1.0131
  686MOL0     C92481   5.621   3.847   0.090  0.2011  0.3457  0.5571
  686MOL0     C92482   5.636   3.871  -0.045 -0.2832 -0.8983  0.6966
  686MOL0     O92483   5.753   3.837  -0.094  0.3744 -0.5084 -0.3784
  686MOL0     C92484   5.742   3.745  -0.193 -0.1812 -0.3447 -0.4454
  686MOL0     C92485   5.868   3.740  -0.276  0.5639  0.3615 -0.4419
  686MOL0     C92486   5.971   3.664  -0.197  1.3398 -0.0496  0.2832
  686MOL0     C92487   6.091   3.672  -0.278 -0.5764 -0.1570  0.1504
  686MOL0     C92488   6.205   3.588  -0.208  1.1637 -0.2128 -0.4576
  686MOL0     C92489   6.265   3.655  -0.083 -0.4627 -0.3038 -0.1893
  686MOL0     C92490   6.356   3.775  -0.117  0.9242  0.5195  0.5384
  686MOL0     C92491   6.427   3.828   0.006 -0.0768  0.9119  0.3046
  686MOL0     N92492   6.489   3.951  -0.046 -0.1265  0.3759 -0.7112
  686MOL0     C92493   6.428   4.057  -0.090  0.0969 -1.5048  0.6940
  686MOL0     C92494   6.535   4.137  -0.121 -0.0675 -0.1885  0.7074
  686MOL0     C92495   6.534   4.262  -0.194  0.7426 -0.0747 -0.2901
  686MOL0     C92496   6.580   4.384  -0.111 -0.4493 -1.3681  0.2897
  686MOL0     C92497   6.533   4.504  -0.201  0.0950  0.4902 -0.2103
  686MOL0     C92498   6.567   4.644  -0.150 -0.3519  0.7104 -0.4637
  686MOL0     O92499   6.674   4.648  -0.058  0.0022 -0.1034  0.3035
  686MOL0     C92500   6.723   4.778  -0.035 -0.7235  1.2028  0.6236
  686MOL0     C92501   6.649   4.896  -0.041  1.0447  0.0136  0.8704
  686MOL0     C92502   6.701   5.025  -0.017 -0.4669  0.3752 -0.2161
  686MOL0     C92503   6.841   5.035   0.008  0.9833 -0.1588  0.4940
  686MOL0     C92504   6.906   5.166   0.027 -0.5675 -0.4080  0.3216
  686MOL0     O92505   6.835   5.266   0.085 -0.1630  0.0764  0.3023
  686MOL0     C92506   6.897   5.368   0.155 -1.0227 -0.4916 -0.5125
  686MOL0     C92507   6.840   5.500   0.149  0.4219  0.7235  1.1237
  686MOL0     C92508   6.900   5.606   0.221 -0.2618  0.3893 -0.4257
  686MOL0     C92509   7.007   5.575   0.300 -0.7746  0.1900  0.3609
  686MOL0     O92510   7.075   5.667   0.379  0.6968 -0.2410  0.3611
  686MOL0     C92511   7.003   5.794   0.421 -1.6067  0.7353  0.7463
  686MOL0     C92512   7.110   5.874   0.499 -0.2771  0.4284 -0.0814
  686MOL0     C92513   7.146   5.793   0.623  0.7556  0.9667 -0.1580
  686MOL0     C92514   7.220   5.900   0.712 -0.7656 -0.1098  0.8196
  686MOL0     C92515   7.266   5.840   0.844 -0.2934 -0.4529 -0.3707
  686MOL0     C92516   7.380   5.752   0.837  0.5822 -0.2402 -0.0160
  686MOL0     C92517   7.388   5.671   0.967  0.2246 -0.3367 -0.2842
  686MOL0     C92518   7.527   5.592   0.970  1.3060 -0.0003  0.2836
  686MOL0    Cl92519   7.523   5.466   0.836 -0.2863 -0.2181  0.5505
  686MOL0     C92520   7.054   5.446   0.324  0.1851 -0.2515  0.4444
  686MOL0     C92521   6.992   5.338   0.254 -0.0452  0.4336  0.5182
  686MOL0     O92522   7.032   5.170   0.009  0.4467 -0.4846  0.3404
  686MOL0     C92523   6.920   4.913   0.006  1.5406 -0.1357  0.5636
  686MOL0     C92524   6.864   4.791  -0.013  1.0054  1.4613  0.2057
  686MOL0     N92525   6.651   4.077  -0.081 -1.0252 -0.0815  0.3382
  686MOL0     N92526   6.626   3.959  -0.038  0.1094  1.0368 -0.0554
  686MOL0     C92527   5.551   3.956  -0.121 -0.6055 -0.1647 -0.7718
  686MOL0     C92528   5.428   3.986  -0.055 -1.3969  0.2893 -0.0515
  686MOL0     C92529   5.088   4.014   0.220  0.7150 -0.7159  0.2401
  686MOL0     C92530   4.965   3.931   0.239  0.6187  0.5537  0.1827
  686MOL0     C92531   4.844   3.983   0.280 -0.1107 -0.2448  0.2374
  686MOL0     C92532   4.822   4.123   0.281 -0.9046  0.1443 -0.2963
  686MOL0     O92533   4.702   4.180   0.307  0.4084  0.0705  0.4222
  686MOL0     C92534   4.587   4.114   0.250 -0.0721  0.1343  0.3668
  686MOL0     C92535   4.470   4.200   0.256 -0.4359  0.3963 -0.4730
  686MOL0     C92536   4.393   4.188   0.394  0.0155  0.6607  0.9052
  686MOL0     C92537   4.258   4.252   0.388 -0.8820  0.9964  0.8835
  686MOL0     C92538   4.280   4.394   0.396 -0.1357 -0.3366 -0.0179
  686MOL0     C92539   4.298   4.512   0.396  0.3281  0.6091  0.0752
  686MOL0     C92540   4.932   4.199   0.256 -0.2347 -0.6606  0.2565
  686MOL0     C92541   5.064   4.161   0.220  0.3063  0.7435 -1.0328
  686MOL0     C92542   5.170   4.259   0.200  0.2227 -0.5977 -0.1237
  686MOL0     H92543   5.488   3.884   0.263  1.5288  2.3472  1.2710
  686MOL0     H92544   5.695   3.785   0.139  1.8684 -1.2670 -3.5463
  686MOL0     H92545   5.722   3.660  -0.128 -2.3661 -0.6515 -1.4401
  686MOL0     H92546   5.657   3.761  -0.259 -0.1165  1.5726 -0.1226
  686MOL0     H92547   5.906   3.842  -0.286  0.1499  0.4199 -1.6564
  686MOL0     H92548   5.834   3.691  -0.368  0.4464  2.7547 -1.7270
  686MOL0     H92549   5.931   3.564  -0.175  0.4093  0.8025  2.9103
  686MOL0     H92550   5.971   3.705  -0.096 -0.4663 -0.0765  0.3203
  686MOL0     H92551   6.079   3.625  -0.376  1.0172 -0.3418  0.0169
  686MOL0     H92552   6.131   3.771  -0.304 -2.0477  0.0141 -1.7214
  686MOL0     H92553   6.175   3.489  -0.172 -2.4694  0.4751 -1.2155
  686MOL0     H92554   6.281   3.579  -0.287  2.5478  1.9974  0.5154
  686MOL0     H92555   6.194   3.678  -0.003 -0.9128 -1.6882 -0.1584
  686MOL0     H92556   6.318   3.579  -0.026  0.1279  1.5222  1.8417
  686MOL0     H92557   6.285   3.843  -0.165 -2.0453 -1.9159  1.1575
  686MOL0     H92558   6.432   3.750  -0.191  2.5226  0.0663  2.2508
  686MOL0     H92559   6.356   3.852   0.085  1.9984 -0.6601  2.7790
  686MOL0     H92560   6.496   3.749   0.037 -0.2773 -0.2899 -2.0931
  686MOL0     H92561   6.323   4.078  -0.106  0.3698 -1.6998 -1.6657
  686MOL0     H92562   6.605   4.256  -0.277  0.8783  1.7101 -0.3366
  686MOL0     H92563   6.434   4.269  -0.236  1.2690  1.2432 -1.3967
  686MOL0     H92564   6.538   4.391  -0.010  5.4157  0.7217  3.0208
  686MOL0     H92565   6.688   4.391  -0.097 -0.2244  1.8599 -1.9255
  686MOL0     H92566   6.427   4.501  -0.227  0.2402  0.8251 -0.8514
  686MOL0     H92567   6.582   4.486  -0.297  0.7192  0.1219  0.1710
  686MOL0     H92568   6.479   4.680  -0.096  1.1867  1.1843  1.8697
  686MOL0     H92569   6.575   4.709  -0.238 -0.7038  2.0161  0.4348
  686MOL0     H92570   6.544   4.884  -0.066  1.4069 -2.4524  0.3166
  686MOL0     H92571   6.648   5.119  -0.026  1.4750  1.5924  0.3209
  686MOL0     H92572   6.751   5.519   0.091 -0.1853 -0.4284  1.6408
  686MOL0     H92573   6.848   5.701   0.216 -2.7015 -0.8997 -1.4205
  686MOL0     H92574   6.973   5.856   0.337  0.2156  0.6584 -0.0177
  686MOL0     H92575   6.916   5.767   0.482 -1.7890 -0.9684 -0.2074
  686MOL0     H92576   7.193   5.878   0.428 -0.4927 -1.7013 -0.5345
  686MOL0     H92577   7.063   5.970   0.519 -0.1424  0.2636  1.0998
  686MOL0     H92578   7.052   5.773   0.674  2.7339 -3.3687  2.3018
  686MOL0     H92579   7.195   5.698   0.601  0.5127  0.4725  1.3448
  686MOL0     H92580   7.150   5.973   0.753 -0.7006 -1.2884  3.2148
  686MOL0     H92581   7.302   5.937   0.650  0.9816 -2.6775  1.4206
  686MOL0     H92582   7.178   5.801   0.895  0.7576  1.8070  3.6660
  686MOL0     H92583   7.298   5.919   0.913  0.7319  0.0809 -1.4141
  686MOL0     H92584   7.344   5.677   0.765 -3.4047 -0.1802  1.6492
  686MOL0     H92585   7.475   5.796   0.805 -0.3798  2.9703  1.1741
  686MOL0     H92586   7.304   5.601   0.976  0.2739 -0.6263 -1.7362
  686MOL0     H92587   7.405   5.733   1.055 -1.3862  3.1375 -2.2284
  686MOL0     H92588   7.607   5.666   0.960  0.3776  1.1980  1.4414
  686MOL0     H92589   7.551   5.542   1.065  1.9110  2.6933  1.6495
  686MOL0     H92590   7.130   5.429   0.399  0.8783  0.2162 -0.1426
  686MOL0     H92591   7.031   5.237   0.262 -0.1601  0.5057  2.4874
  686MOL0     H92592   7.026   4.915   0.027  2.3169 -0.9889 -2.6458
  686MOL0     H92593   6.917   4.698   0.005 -2.1376 -0.3710  0.7776
  686MOL0     H92594   5.572   3.993  -0.220  2.6940 -0.3459 -0.2333
  686MOL0     H92595   5.357   4.051  -0.105 -1.4782  1.0304  0.9908
  686MOL0     H92596   4.969   3.823   0.229  2.7172  0.7032 -1.0675
  686MOL0     H92597   4.764   3.910   0.288  0.1628 -0.5479  0.2176
  686MOL0     H92598   4.565   4.022   0.306  0.3872  0.1319  0.5463
  686MOL0     H92599   4.601   4.091   0.144 -1.7164 -0.6766  0.3032
  686MOL0     H92600   4.407   4.159   0.177  1.3540  1.4399 -2.5531
  686MOL0     H92601   4.495   4.302   0.227  0.8362  0.3087  0.2289
  686MOL0     H92602   4.459   4.234   0.469  1.3689  0.4837 -0.1368
  686MOL0     H92603   4.387   4.082   0.421 -1.3999 -0.5087 -3.2560
  686MOL0     H92604   4.185   4.234   0.309  1.3662  0.5639 -1.2272
  686MOL0     H92605   4.197   4.215   0.470  0.4735  3.7361  3.3379
  686MOL0     H92606   4.303   4.619   0.396  0.1933  0.6212  0.9337
  686MOL0     H92607   4.924   4.307   0.246  2.5169 -0.4888 -0.9193
  686MOL0     H92608   5.142   4.360   0.232 -3.3613 -1.3322 -0.4571
  686MOL0     H92609   5.262   4.227   0.249 -0.5594 -2.4407  0.2340
  686MOL0     H92610   5.193   4.279   0.095 -1.6999  0.3585 -0.4181
  687MOL0     O92611  10.974   6.327   4.239  0.6174 -0.1858 -0.9833
  687MOL0     C92612  10.850   6.327   4.227 -0.4964 -0.5104  0.4395
  687MOL0     O92613  10.774   6.243   4.157 -0.3464 -0.3148  0.3632
  687MOL0     C92614  10.830   6.158   4.059  0.1707  1.1233  0.1651
  687MOL0     C92615  10.951   6.177   3.995  0.0260 -0.2567 -0.4484
  687MOL0     C92616  10.990   6.096   3.883  0.0349  1.0221  0.6556
  687MOL0     C92617  10.906   5.987   3.837 -0.8595 -0.4913 -0.1951
  687MOL0     O92618  10.924   5.908   3.720 -0.4997 -0.6888 -0.0551
  687MOL0     C92619  11.050   5.879   3.670  0.1124  0.4010 -0.5759
  687MOL0     C92620  11.027   5.782   3.546 -0.1874  0.3767 -0.5012
  687MOL0     C92621  11.147   5.689   3.522 -0.1169  0.3470  0.0288
  687MOL0     C92622  11.269   5.746   3.454 -0.6043  0.1675  0.0170
  687MOL0     C92623  11.391   5.653   3.464 -0.7766  0.0367 -0.2830
  687MOL0     C92624  11.485   5.700   3.354  0.2405  0.3190 -1.2170
  687MOL0     C92625  11.634   5.667   3.390 -0.2071 -0.6901  0.1680
  687MOL0     C92626  11.726   5.680   3.266  0.4340 -0.0571  0.0615
  687MOL0     N92627  11.841   5.596   3.279  0.2717 -0.0860 -0.9657
  687MOL0     C92628  11.940   5.577   3.179  0.4639 -0.3304  1.0217
  687MOL0     C92629  12.046   5.525   3.237 -0.3165 -0.6794 -0.0536
  687MOL0     C92630  12.170   5.496   3.153  0.3950 -0.7448 -0.5401
  687MOL0     C92631  12.191   5.344   3.144  0.4661 -0.4170  0.0643
  687MOL0     C92632  12.085   5.251   3.088 -0.1759  0.3629 -0.1853
  687MOL0     C92633  12.067   5.264   2.933 -0.1479 -1.2196  0.9441
  687MOL0     O92634  11.938   5.327   2.912 -0.4592  0.3108 -0.5866
  687MOL0     C92635  11.913   5.403   2.796  0.2310 -0.6167 -0.8286
  687MOL0     C92636  11.836   5.512   2.816  0.9302  0.1677  0.5170
  687MOL0     C92637  11.801   5.608   2.718  0.5198  0.0360  0.2542
  687MOL0     C92638  11.846   5.593   2.589 -0.4485 -1.0499 -0.3767
  687MOL0     C92639  11.809   5.684   2.485  0.8691 -0.3134  0.7501
  687MOL0     O92640  11.691   5.753   2.500  0.7347 -0.5781  0.2589
  687MOL0     C92641  11.664   5.850   2.405  0.2324 -0.4163  0.2559
  687MOL0     C92642  11.583   5.825   2.298  0.7898 -0.6432 -0.1324
  687MOL0     C92643  11.572   5.913   2.191 -0.5671  0.0525 -0.6505
  687MOL0     C92644  11.661   6.025   2.187 -0.4632 -0.0321 -0.2727
  687MOL0     O92645  11.663   6.112   2.084  0.1578  0.3278  0.1012
  687MOL0     C92646  11.603   6.066   1.958 -0.7203 -0.1459 -1.0268
  687MOL0     C92647  11.661   6.117   1.837 -0.0848  1.3130  0.7292
  687MOL0     C92648  11.667   6.274   1.835  0.0724  0.5289 -0.5508
  687MOL0     C92649  11.746   6.308   1.709  1.0376 -0.2780 -0.0412
  687MOL0     C92650  11.784   6.456   1.701 -0.4873  0.4097  0.5240
  687MOL0     C92651  11.870   6.489   1.577  0.2811 -0.0958  0.3782
  687MOL0     C92652  11.874   6.648   1.560 -0.4546  0.7012  0.1278
  687MOL0     C92653  11.933   6.667   1.422  0.3103  0.2031  0.5919
  687MOL0    Cl92654  11.978   6.840   1.383 -0.2140 -0.1466 -0.3900
  687MOL0     C92655  11.744   6.053   2.290  0.0106 -0.0936  0.5103
  687MOL0     C92656  11.747   5.968   2.406  0.5534  0.2210 -0.2874
  687MOL0     O92657  11.894   5.705   2.408 -0.2774  0.2219 -0.3637
  687MOL0     C92658  11.938   5.484   2.565  0.4736 -0.7101 -0.6229
  687MOL0     C92659  11.961   5.388   2.666  0.2266 -0.1555 -0.9714
  687MOL0     N92660  12.018   5.500   3.372 -0.2459  0.0556  0.8280
  687MOL0     N92661  11.911   5.562   3.392  0.5383  0.1727 -0.3699
  687MOL0     C92662  10.795   5.961   3.918 -0.7051  0.2304  0.1876
  687MOL0     C92663  10.755   6.040   4.026  0.0556 -0.1244  0.6293
  687MOL0     C92664  10.780   6.417   4.319 -1.1397  0.4281  0.6285
  687MOL0     C92665  10.841   6.417   4.450 -0.6299 -0.9752 -0.7840
  687MOL0     C92666  10.780   6.490   4.560 -0.6125  0.6453 -0.5195
  687MOL0     C92667  10.654   6.551   4.538 -0.3198 -0.0835  0.1048
  687MOL0     O92668  10.583   6.610   4.638 -0.6047 -0.0841  0.3258
  687MOL0     C92669  10.619   6.586   4.771  0.0319 -0.7715 -0.8240
  687MOL0     C92670  10.521   6.650   4.875  0.5791 -0.1426  0.5817
  687MOL0     C92671  10.496   6.798   4.835 -0.0643 -0.0877 -0.3963
  687MOL0     C92672  10.415   6.879   4.927 -0.3435 -0.6342  0.3831
  687MOL0     C92673  10.329   6.978   4.853 -1.0833  0.3136  0.3607
  687MOL0     C92674  10.253   7.052   4.801 -0.5077 -0.1634 -0.5000
  687MOL0     C92675  10.597   6.549   4.401 -0.4985  0.4380  0.0814
  687MOL0     C92676  10.652   6.482   4.295 -0.1989  0.7607 -0.1702
  687MOL0     C92677  10.602   6.479   4.152  0.0670  0.1642 -0.5693
  687MOL0     H92678  11.011   6.266   4.018 -0.3346  0.3700 -1.8202
  687MOL0     H92679  11.083   6.099   3.828  0.1689  0.2488  0.8276
  687MOL0     H92680  11.098   5.974   3.644 -3.2672  3.0591  1.9510
  687MOL0     H92681  11.113   5.836   3.749 -0.2194  0.4258 -0.2956
  687MOL0     H92682  11.013   5.833   3.450 -0.6433 -0.2847 -0.7905
  687MOL0     H92683  10.936   5.726   3.569  1.4220 -2.0432  0.3508
  687MOL0     H92684  11.115   5.601   3.466 -0.1374  0.6476 -0.4335
  687MOL0     H92685  11.179   5.645   3.617  3.1970 -1.0525 -1.5886
  687MOL0     H92686  11.236   5.750   3.350 -2.4042 -4.4612  0.2060
  687MOL0     H92687  11.293   5.845   3.493  5.1712 -0.9935  0.3085
  687MOL0     H92688  11.434   5.647   3.565 -1.0310 -0.4479 -0.1998
  687MOL0     H92689  11.357   5.554   3.433 -0.9160  0.4034 -1.3263
  687MOL0     H92690  11.467   5.640   3.264  3.2540 -1.3379 -0.8391
  687MOL0     H92691  11.460   5.804   3.328 -2.9167 -0.0347 -0.0480
  687MOL0     H92692  11.639   5.562   3.419 -1.3076 -0.3619  1.7284
  687MOL0     H92693  11.672   5.726   3.474 -2.0682  0.0250  0.5528
  687MOL0     H92694  11.665   5.666   3.177 -0.1455 -0.0910  0.4551
  687MOL0     H92695  11.757   5.785   3.270 -1.4256  0.4938  1.1743
  687MOL0     H92696  11.941   5.600   3.073 -1.6408  0.7818  1.2010
  687MOL0     H92697  12.149   5.525   3.049 -2.8520  0.8177  0.4162
  687MOL0     H92698  12.258   5.555   3.180  0.1993 -0.7220  0.0629
  687MOL0     H92699  12.276   5.327   3.077 -1.4649 -3.6444 -1.8039
  687MOL0     H92700  12.206   5.305   3.245  4.6270  0.0335 -0.1929
  687MOL0     H92701  11.993   5.255   3.147  0.1975 -1.5485  0.5841
  687MOL0     H92702  12.119   5.148   3.100 -2.6657 -0.4894 -0.0850
  687MOL0     H92703  12.072   5.162   2.891  1.8682 -1.1454  0.8875
  687MOL0     H92704  12.141   5.328   2.883  0.3862 -0.3382  2.8063
  687MOL0     H92705  11.791   5.524   2.914  2.2821 -1.4979  1.3821
  687MOL0     H92706  11.755   5.705   2.737  0.7393  0.2026 -0.0692
  687MOL0     H92707  11.520   5.736   2.291 -1.2675  0.5560  1.8233
  687MOL0     H92708  11.503   5.888   2.112  0.5440 -1.0531 -1.2999
  687MOL0     H92709  11.618   5.958   1.950 -2.5726 -0.4427 -1.0355
  687MOL0     H92710  11.497   6.095   1.958 -0.0413  2.6635 -0.9080
  687MOL0     H92711  11.763   6.078   1.838 -0.4654  0.2187 -0.3461
  687MOL0     H92712  11.603   6.083   1.751  2.8388  1.5508 -1.4955
  687MOL0     H92713  11.563   6.306   1.819 -0.5865 -1.6660 -1.0333
  687MOL0     H92714  11.718   6.319   1.920  0.4549 -0.0770 -0.4557
  687MOL0     H92715  11.690   6.285   1.617  3.4329  0.9935 -1.9447
  687MOL0     H92716  11.839   6.251   1.702  0.9130 -0.6953  1.4959
  687MOL0     H92717  11.836   6.488   1.792 -1.3288  2.6211  0.2794
  687MOL0     H92718  11.691   6.512   1.691  0.5848  2.6467  2.2330
  687MOL0     H92719  11.971   6.449   1.591  0.5279 -0.4707 -2.1411
  687MOL0     H92720  11.824   6.441   1.491  0.8840  1.1468 -0.6738
  687MOL0     H92721  11.946   6.696   1.627 -0.5645 -3.0311  3.2517
  687MOL0     H92722  11.776   6.694   1.576  0.3724  1.8804  2.2230
  687MOL0     H92723  12.019   6.604   1.399  1.1786  1.5306  0.1132
  687MOL0     H92724  11.855   6.633   1.354  1.2587  0.6257 -0.7507
  687MOL0     H92725  11.824   6.126   2.288 -0.1566  0.1003  0.8360
  687MOL0     H92726  11.819   5.972   2.486  2.0229  0.8062 -1.5888
  687MOL0     H92727  12.005   5.477   2.480  1.5465  2.2034 -0.1406
  687MOL0     H92728  12.037   5.312   2.654  1.8420  0.7584  2.3009
  687MOL0     H92729  10.739   5.871   3.895  0.7297 -0.5487 -0.4444
  687MOL0     H92730  10.656   6.029   4.068 -1.8571  2.8227 -2.5845
  687MOL0     H92731  10.942   6.381   4.464 -0.5767 -0.4748  0.1965
  687MOL0     H92732  10.835   6.504   4.653  0.9346 -2.7345 -0.8055
  687MOL0     H92733  10.722   6.618   4.790 -0.1747 -1.0536  0.9864
  687MOL0     H92734  10.629   6.479   4.789 -2.1370 -0.9244 -0.2681
  687MOL0     H92735  10.556   6.640   4.978  0.5777 -2.6025  0.3824
  687MOL0     H92736  10.426   6.595   4.870 -0.3746  1.5457 -1.3085
  687MOL0     H92737  10.427   6.800   4.750  1.4583 -1.5446 -1.7178
  687MOL0     H92738  10.592   6.845   4.812  0.7417 -3.1410 -4.4043
  687MOL0     H92739  10.357   6.804   4.981  1.3655 -2.2954  0.0316
  687MOL0     H92740  10.472   6.937   5.000 -0.2071 -2.4732  1.8132
  687MOL0     H92741  10.182   7.123   4.762 -1.1404  1.0060  2.5286
  687MOL0     H92742  10.502   6.602   4.399 -0.4531  0.9194  3.8829
  687MOL0     H92743  10.526   6.401   4.158 -0.1632  0.4981  1.5932
  687MOL0     H92744  10.554   6.570   4.116 -3.6213 -1.1773  0.4935
  687MOL0     H92745  10.672   6.440   4.078  0.0088  1.2946 -1.2516
  688MOL0     O92746  11.142   8.701   1.701 -0.4446 -0.6279 -0.3064
  688MOL0     C92747  11.165   8.824   1.691 -0.2171  0.7411  0.6674
  688MOL0     O92748  11.081   8.923   1.746  0.1749 -0.2843  0.5943
  688MOL0     C92749  11.002   8.884   1.849  0.6237 -0.4675 -1.0172
  688MOL0     C92750  11.047   8.862   1.976 -0.1480  0.6667 -1.2774
  688MOL0     C92751  10.965   8.821   2.088  0.4356  0.2370 -1.0522
  688MOL0     C92752  10.829   8.787   2.057 -0.3511 -1.3640 -0.4955
  688MOL0     O92753  10.754   8.731   2.155 -0.2060  0.4820  0.7454
  688MOL0     C92754  10.665   8.629   2.114  0.0149 -0.5434 -0.3958
  688MOL0     C92755  10.596   8.579   2.249 -0.3230  0.0767 -0.0555
  688MOL0     C92756  10.476   8.499   2.209  0.1769  0.4386 -0.1098
  688MOL0     C92757  10.401   8.445   2.318 -0.4589  0.2845  0.1657
  688MOL0     C92758  10.305   8.328   2.280 -0.0045 -0.2368  1.0728
  688MOL0     C92759  10.159   8.339   2.339 -0.0627  0.0183  0.2955
  688MOL0     C92760  10.067   8.243   2.270 -0.5114  0.8895 -0.3557
  688MOL0     C92761  10.091   8.096   2.299  0.0625  0.0007  0.9928
  688MOL0     N92762   9.980   8.014   2.265  0.2325 -0.3884  0.0513
  688MOL0     C92763   9.933   7.989   2.136  0.3205  0.0392  0.1493
  688MOL0     C92764   9.838   7.889   2.156 -0.8233  0.2341 -0.1730
  688MOL0     C92765   9.727   7.838   2.067  0.4911 -0.1327  0.7343
  688MOL0     C92766   9.618   7.943   2.054 -0.4768  0.1608  0.4034
  688MOL0     C92767   9.565   7.985   2.190  1.2699  0.0567 -0.3592
  688MOL0     C92768   9.420   8.026   2.189 -0.1262 -0.7410  0.2694
  688MOL0     O92769   9.337   7.908   2.214  0.4552  0.3422  0.0495
  688MOL0     C92770   9.202   7.908   2.213 -0.3723 -0.5806 -0.3757
  688MOL0     C92771   9.125   8.024   2.223  0.5997  0.2945  0.6170
  688MOL0     C92772   8.987   8.005   2.221 -0.2079 -0.9740 -0.3485
  688MOL0     C92773   8.924   7.878   2.218 -0.0716 -0.2875  0.1891
  688MOL0     C92774   8.779   7.866   2.230 -0.0970 -0.7472 -0.1135
  688MOL0     O92775   8.739   7.744   2.270 -0.1007  0.5339  0.5431
  688MOL0     C92776   8.604   7.711   2.265 -0.3953 -0.0327 -0.1863
  688MOL0     C92777   8.527   7.702   2.146  0.5716 -0.3233  0.2560
  688MOL0     C92778   8.388   7.680   2.152 -0.0942 -0.1819  0.4091
  688MOL0     C92779   8.331   7.658   2.276  0.3123 -0.5033  0.7259
  688MOL0     O92780   8.195   7.661   2.291 -0.4727  0.4277  0.3493
  688MOL0     C92781   8.132   7.534   2.313 -0.2772  0.7485  0.6232
  688MOL0     C92782   8.016   7.532   2.418  0.4445  0.9747 -0.4222
  688MOL0     C92783   7.938   7.406   2.419 -0.5798 -0.5981 -0.0425
  688MOL0     C92784   8.025   7.285   2.435  0.7235  0.1145  0.2134
  688MOL0     C92785   7.931   7.162   2.462 -0.5546 -0.7595  0.8362
  688MOL0     C92786   8.012   7.032   2.440  0.1119  0.0544  0.2103
  688MOL0     C92787   7.926   6.911   2.487  0.3008  0.8405 -0.8719
  688MOL0     C92788   8.009   6.784   2.505  0.0216  0.9210 -0.0368
  688MOL0    Cl92789   7.886   6.679   2.592 -0.2617  0.2182  0.1391
  688MOL0     C92790   8.405   7.651   2.400  0.1092  0.0668  0.7136
  688MOL0     C92791   8.544   7.667   2.389  0.4099  0.0311 -0.1639
  688MOL0     O92792   8.706   7.963   2.215 -1.2209 -0.1605  0.0497
  688MOL0     C92793   9.009   7.762   2.207 -0.4151 -0.4684  0.2917
  688MOL0     C92794   9.147   7.781   2.216 -0.0692 -0.4301 -0.0721
  688MOL0     N92795   9.846   7.856   2.284  0.2426 -0.3871  0.1070
  688MOL0     N92796   9.922   7.935   2.353  0.2577  0.4991 -0.5472
  688MOL0     C92797  10.780   8.822   1.936  0.9953  0.4157  0.0875
  688MOL0     C92798  10.863   8.869   1.827 -0.1996 -0.3040  0.4807
  688MOL0     C92799  11.283   8.872   1.598 -0.2367  0.3587 -0.8696
  688MOL0     C92800  11.365   8.974   1.636 -0.5715 -0.5446 -0.9194
  688MOL0     C92801  11.444   9.038   1.544 -0.1048  0.6258  0.3850
  688MOL0     C92802  11.476   8.986   1.419  1.4394 -0.6565 -0.2200
  688MOL0     O92803  11.563   9.036   1.325 -0.2155  0.1001 -0.1193
  688MOL0     C92804  11.654   9.141   1.375 -0.4380 -0.3454  0.0437
  688MOL0     C92805  11.769   9.163   1.281 -0.4432 -0.7933  0.2716
  688MOL0     C92806  11.861   9.259   1.350 -0.2110  0.4583  0.1606
  688MOL0     C92807  11.959   9.197   1.462 -0.4948  0.0128 -0.6784
  688MOL0     C92808  11.977   9.304   1.558  0.5104 -0.7977 -0.1263
  688MOL0     C92809  11.997   9.379   1.653  0.5859 -0.1228  0.3751
  688MOL0     C92810  11.413   8.867   1.388 -0.2044  0.0249  0.4976
  688MOL0     C92811  11.313   8.812   1.464 -0.2680 -0.6501 -0.4580
  688MOL0     C92812  11.230   8.700   1.415  0.6531 -0.0609 -0.2934
  688MOL0     H92813  11.155   8.867   1.978  0.4428 -5.4403  1.2283
  688MOL0     H92814  11.005   8.821   2.189 -1.8370 -0.3865 -0.0933
  688MOL0     H92815  10.587   8.678   2.056  0.7090  2.3201  0.9155
  688MOL0     H92816  10.724   8.551   2.065  1.8996 -1.1919  2.6190
  688MOL0     H92817  10.565   8.672   2.297  1.8700  1.2211 -0.7422
  688MOL0     H92818  10.654   8.522   2.323 -2.0984 -2.7884 -0.7062
  688MOL0     H92819  10.513   8.418   2.145  0.5900  1.0130 -0.6088
  688MOL0     H92820  10.410   8.571   2.160  0.8972  3.1617  2.6050
  688MOL0     H92821  10.477   8.417   2.390 -2.0798  1.1290  2.3150
  688MOL0     H92822  10.340   8.532   2.345 -2.8204 -0.1647 -3.0644
  688MOL0     H92823  10.293   8.344   2.172 -0.5508  1.2433  1.3297
  688MOL0     H92824  10.342   8.227   2.299 -0.5388 -0.6448  0.0189
  688MOL0     H92825  10.147   8.328   2.448 -1.8909  2.6192  0.4443
  688MOL0     H92826  10.119   8.438   2.316  2.4316  1.4139  1.4849
  688MOL0     H92827  10.068   8.264   2.162 -0.5198 -0.5041 -0.6413
  688MOL0     H92828   9.962   8.258   2.298 -0.7584  1.7813 -1.6386
  688MOL0     H92829  10.170   8.066   2.228  0.9363 -0.6295  2.1960
  688MOL0     H92830  10.126   8.071   2.399 -2.9009 -1.0444  1.8604
  688MOL0     H92831   9.962   8.045   2.048 -2.0075  3.2258  1.2016
  688MOL0     H92832   9.782   7.825   1.974 -1.1805 -0.5014 -0.2509
  688MOL0     H92833   9.688   7.741   2.098  0.9123 -0.8913 -1.0334
  688MOL0     H92834   9.643   8.038   2.006 -3.5851  1.9447  1.9937
  688MOL0     H92835   9.543   7.891   1.992  1.2421 -0.0075 -1.6438
  688MOL0     H92836   9.622   8.075   2.219  0.8532  0.5848 -1.1388
  688MOL0     H92837   9.581   7.901   2.258 -2.5550  0.4609  1.2624
  688MOL0     H92838   9.389   8.072   2.095 -4.6916 -0.6168  1.6021
  688MOL0     H92839   9.403   8.102   2.265  1.3548  2.2815 -2.1994
  688MOL0     H92840   9.169   8.122   2.205 -3.4804  1.9530 -1.6845
  688MOL0     H92841   8.934   8.099   2.230 -0.9729 -1.4121 -0.2598
  688MOL0     H92842   8.570   7.720   2.048 -0.0745 -1.4683 -0.2433
  688MOL0     H92843   8.334   7.696   2.060 -0.4808  0.7824  0.7962
  688MOL0     H92844   8.092   7.498   2.217  2.1301 -1.4091  0.3095
  688MOL0     H92845   8.195   7.461   2.363  1.4347  0.9289 -1.1449
  688MOL0     H92846   8.059   7.550   2.518  1.6067  1.4462 -0.9908
  688MOL0     H92847   7.946   7.615   2.408  1.2893  2.7934  5.0233
  688MOL0     H92848   7.865   7.404   2.501  1.0991 -0.4539  1.5127
  688MOL0     H92849   7.875   7.403   2.330 -0.1173  1.7300 -0.5076
  688MOL0     H92850   8.094   7.298   2.519 -0.3524  2.3619  0.8077
  688MOL0     H92851   8.087   7.266   2.347  0.7922 -0.7096  0.4284
  688MOL0     H92852   7.843   7.166   2.397 -1.4185 -0.5524  1.9885
  688MOL0     H92853   7.893   7.165   2.565 -1.7190 -2.1823  0.4834
  688MOL0     H92854   8.030   7.021   2.332  1.5139 -0.1251  0.4582
  688MOL0     H92855   8.110   7.035   2.488  0.6256  3.9426 -0.7924
  688MOL0     H92856   7.846   6.889   2.415 -0.6076 -0.5308  0.5069
  688MOL0     H92857   7.874   6.929   2.581 -3.1991 -1.5372 -2.1229
  688MOL0     H92858   8.058   6.748   2.415 -2.0320  1.0255 -1.2493
  688MOL0     H92859   8.092   6.798   2.575 -1.2705  2.5798  1.2545
  688MOL0     H92860   8.359   7.650   2.498  0.5545  0.2526  0.9273
  688MOL0     H92861   8.604   7.663   2.480 -0.4646 -0.3648  0.4124
  688MOL0     H92862   8.959   7.668   2.225  0.2978 -0.6407  1.4804
  688MOL0     H92863   9.208   7.692   2.222 -1.1129 -1.2368 -1.0894
  688MOL0     H92864  10.676   8.803   1.914  0.7567  0.6828  0.9174
  688MOL0     H92865  10.821   8.898   1.732 -1.5504 -2.2960  0.3960
  688MOL0     H92866  11.365   9.022   1.733  1.5005 -2.9662  0.3909
  688MOL0     H92867  11.498   9.127   1.576  0.3106 -0.0239  1.5436
  688MOL0     H92868  11.690   9.091   1.465 -0.6985  0.4584  0.6140
  688MOL0     H92869  11.599   9.233   1.398 -0.8581 -0.6791  0.3958
  688MOL0     H92870  11.735   9.194   1.181  0.7206  0.0394  0.1145
  688MOL0     H92871  11.823   9.070   1.261 -0.3923 -0.2321 -2.6940
  688MOL0     H92872  11.813   9.352   1.380  2.9524  2.8539 -1.5794
  688MOL0     H92873  11.934   9.292   1.276 -0.6744 -0.0859 -0.5506
  688MOL0     H92874  11.904   9.114   1.508 -1.1559  0.0270 -1.4121
  688MOL0     H92875  12.062   9.170   1.438  0.6329 -0.0436  3.3776
  688MOL0     H92876  12.018   9.459   1.721  1.7164  0.4040 -0.5510
  688MOL0     H92877  11.448   8.818   1.298  0.9471 -1.8412  1.8943
  688MOL0     H92878  11.289   8.653   1.335  1.7260 -0.3266  0.6294
  688MOL0     H92879  11.217   8.623   1.491  2.6254  0.0985  0.2566
  688MOL0     H92880  11.135   8.734   1.374  0.4670 -0.3075 -0.0656
  689MOL0     O92881   9.816   1.639   7.764  0.3602 -0.3672  0.6797
  689MOL0     C92882   9.909   1.717   7.794 -0.4061 -0.2990  0.1200
  689MOL0     O92883   9.914   1.860   7.770 -0.2137 -0.4740 -0.2452
  689MOL0     C92884   9.791   1.923   7.761 -0.4370  0.9287 -1.0767
  689MOL0     C92885   9.780   2.036   7.682 -0.6515 -0.1405  0.1787
  689MOL0     C92886   9.662   2.095   7.663 -0.6246  0.4641  0.5753
  689MOL0     C92887   9.547   2.049   7.728 -0.2281  0.4437  0.5762
  689MOL0     O92888   9.423   2.111   7.725 -0.2591  0.1485  0.2789
  689MOL0     C92889   9.384   2.199   7.615  0.1826  0.0676  0.6904
  689MOL0     C92890   9.237   2.231   7.627 -0.8945  0.3397  0.4156
  689MOL0     C92891   9.147   2.105   7.603  0.5516 -0.2330 -0.7113
  689MOL0     C92892   9.001   2.121   7.625  0.3200 -0.4216 -0.5472
  689MOL0     C92893   8.909   2.013   7.584 -0.8653  0.5916 -0.7651
  689MOL0     C92894   8.768   2.047   7.598 -0.0603 -0.4874  0.3098
  689MOL0     C92895   8.716   2.172   7.527  0.8935 -1.2738  0.1611
  689MOL0     C92896   8.560   2.175   7.520 -0.2877 -0.4219  0.7381
  689MOL0     N92897   8.496   2.058   7.451 -0.2638  0.3851  0.6112
  689MOL0     C92898   8.399   1.978   7.501  0.5680 -0.1693 -0.1422
  689MOL0     C92899   8.370   1.890   7.406 -0.3936  0.0319  0.3043
  689MOL0     C92900   8.278   1.774   7.395  0.0338  0.9538  0.3962
  689MOL0     C92901   8.138   1.837   7.385 -0.2876 -0.1962 -1.1314
  689MOL0     C92902   8.034   1.725   7.361 -1.0454  0.3048 -0.1492
  689MOL0     C92903   7.891   1.780   7.355 -0.5209 -0.8641  0.4741
  689MOL0     O92904   7.857   1.867   7.245 -0.6283 -0.5045 -0.2705
  689MOL0     C92905   7.769   1.970   7.252 -0.0034 -0.0047  0.5692
  689MOL0     C92906   7.771   2.086   7.167 -0.6558 -0.0811 -0.7007
  689MOL0     C92907   7.679   2.195   7.184  0.0154  0.0392  0.2123
  689MOL0     C92908   7.578   2.178   7.287 -0.0872  0.6174 -0.6268
  689MOL0     C92909   7.490   2.300   7.312  0.1697  0.1736 -0.1584
  689MOL0     O92910   7.504   2.409   7.230  0.1084 -0.7042 -0.4630
  689MOL0     C92911   7.475   2.534   7.282  0.9724  0.0333  0.0040
  689MOL0     C92912   7.556   2.646   7.282  0.1328  0.6453  0.1502
  689MOL0     C92913   7.516   2.767   7.334  0.6301 -0.4531  0.1812
  689MOL0     C92914   7.377   2.783   7.376 -0.7240  0.7156  0.1860
  689MOL0     O92915   7.367   2.909   7.428  0.1542  0.0957 -0.1029
  689MOL0     C92916   7.247   2.954   7.478  0.4065  0.4126 -0.9168
  689MOL0     C92917   7.265   3.098   7.512  0.4844  0.8422  0.0375
  689MOL0     C92918   7.331   3.180   7.393  0.5135 -0.0537  0.6450
  689MOL0     C92919   7.233   3.199   7.272  0.2000 -0.3093 -0.2725
  689MOL0     C92920   7.288   3.289   7.152  0.2334  0.4771  0.0163
  689MOL0     C92921   7.318   3.440   7.193 -0.0581  0.0111 -0.0724
  689MOL0     C92922   7.405   3.517   7.084 -0.9069  1.0812 -0.8273
  689MOL0     C92923   7.340   3.646   7.030  0.6123  0.6433  0.0208
  689MOL0    Cl92924   7.403   3.679   6.864 -0.4717 -0.1746  0.2445
  689MOL0     C92925   7.284   2.683   7.373  0.7241  0.6160 -0.0390
  689MOL0     C92926   7.336   2.553   7.323 -0.6686  0.1931  0.1002
  689MOL0     O92927   7.419   2.298   7.417 -0.8017 -0.5430 -0.0868
  689MOL0     C92928   7.578   2.063   7.371  0.1933  0.7957 -1.0065
  689MOL0     C92929   7.665   1.959   7.345 -0.0744 -0.0377  0.3330
  689MOL0     N92930   8.437   1.932   7.289  1.0114  0.1723  0.0659
  689MOL0     N92931   8.498   2.040   7.313 -0.0671  0.0974  0.0632
  689MOL0     C92932   9.552   1.944   7.812  0.7490  0.6620 -0.4023
  689MOL0     C92933   9.682   1.883   7.834 -0.0370 -0.2759 -1.5081
  689MOL0     C92934  10.012   1.640   7.873  0.2599  1.0471 -0.0675
  689MOL0     C92935   9.999   1.497   7.889 -0.4305 -0.0667 -0.6841
  689MOL0     C92936  10.093   1.424   7.963  0.5120 -0.1636 -0.2280
  689MOL0     C92937  10.202   1.486   8.020 -1.1093 -0.4526 -0.0596
  689MOL0     O92938  10.276   1.403   8.105 -1.0458  0.3949  0.2050
  689MOL0     C92939  10.315   1.458   8.230  1.0930 -0.3562 -0.9150
  689MOL0     C92940  10.334   1.340   8.324  0.1248  0.2323  0.6891
  689MOL0     C92941  10.429   1.355   8.444 -0.2280 -0.2873  0.6243
  689MOL0     C92942  10.367   1.440   8.555  0.7608 -0.1551  0.6047
  689MOL0     C92943  10.285   1.359   8.636  0.5563  0.2791  0.0777
  689MOL0     C92944  10.215   1.280   8.690  0.3424 -0.4624  0.6741
  689MOL0     C92945  10.214   1.619   8.000 -0.2122 -0.7102  0.9452
  689MOL0     C92946  10.135   1.703   7.917  0.5798  0.9528 -0.7100
  689MOL0     C92947  10.166   1.841   7.902 -0.5497  0.4380  0.8292
  689MOL0     H92948   9.868   2.074   7.631  0.8210 -1.8448  1.3085
  689MOL0     H92949   9.656   2.177   7.593  2.0021 -0.4109 -0.7857
  689MOL0     H92950   9.444   2.287   7.640 -0.4190  0.8462 -0.5425
  689MOL0     H92951   9.408   2.169   7.513  1.8913  1.1735  0.7244
  689MOL0     H92952   9.212   2.308   7.554  0.3780 -0.3877 -0.8362
  689MOL0     H92953   9.225   2.264   7.730  2.0208 -0.7639  1.1909
  689MOL0     H92954   9.183   2.017   7.658 -0.0936  0.5096  0.9781
  689MOL0     H92955   9.161   2.082   7.497 -2.3392 -2.3607 -0.7251
  689MOL0     H92956   8.971   2.134   7.729  0.8829 -0.4954 -0.3732
  689MOL0     H92957   8.985   2.218   7.577  0.9570  1.9984  3.6760
  689MOL0     H92958   8.952   1.983   7.488 -0.4194  1.1509 -0.7393
  689MOL0     H92959   8.927   1.928   7.650  4.2494  2.0327  0.0789
  689MOL0     H92960   8.719   1.952   7.576  0.7055 -1.2546  1.7370
  689MOL0     H92961   8.751   2.067   7.704  0.9615 -0.6265  0.5081
  689MOL0     H92962   8.742   2.158   7.421 -0.5707  0.7249 -0.5202
  689MOL0     H92963   8.745   2.266   7.574  3.8652 -2.3254  0.6514
  689MOL0     H92964   8.529   2.173   7.625 -0.1141 -1.4171  0.7882
  689MOL0     H92965   8.527   2.270   7.479  0.6939 -0.3622  0.0513
  689MOL0     H92966   8.357   1.974   7.601  1.6646  3.4591  0.5835
  689MOL0     H92967   8.298   1.719   7.303 -1.9922 -0.0488  0.4944
  689MOL0     H92968   8.291   1.695   7.469 -1.2768  0.1359 -0.2278
  689MOL0     H92969   8.118   1.900   7.472 -0.9759 -2.3629  0.3757
  689MOL0     H92970   8.136   1.898   7.294 -0.0675  0.2051 -0.8702
  689MOL0     H92971   8.050   1.644   7.432  1.7713  1.5205  0.7494
  689MOL0     H92972   8.063   1.673   7.269  0.0575 -0.8234  0.8142
  689MOL0     H92973   7.874   1.835   7.448 -1.9152 -0.0573 -0.2246
  689MOL0     H92974   7.815   1.701   7.354  0.0034 -1.4183 -2.1215
  689MOL0     H92975   7.854   2.099   7.098  2.9355  0.6608  3.2979
  689MOL0     H92976   7.668   2.292   7.138 -1.4559 -1.0228 -1.8080
  689MOL0     H92977   7.659   2.632   7.251  0.9091  2.3222  1.7788
  689MOL0     H92978   7.587   2.846   7.351 -1.7493  0.9672  5.7906
  689MOL0     H92979   7.160   2.942   7.412 -0.5190  1.7321  0.0150
  689MOL0     H92980   7.221   2.910   7.574 -1.7214  2.5356 -0.4332
  689MOL0     H92981   7.167   3.136   7.542  0.9288  2.6479 -0.6901
  689MOL0     H92982   7.327   3.103   7.602  0.7270 -0.1443 -0.0587
  689MOL0     H92983   7.353   3.280   7.432 -0.7743 -0.1982  1.8150
  689MOL0     H92984   7.427   3.137   7.362  1.5760  3.3370 -1.2213
  689MOL0     H92985   7.138   3.247   7.299 -0.3685 -0.0194 -2.5833
  689MOL0     H92986   7.205   3.100   7.235 -1.8166  0.1515 -0.1050
  689MOL0     H92987   7.215   3.292   7.070 -0.0340 -1.1050  0.1631
  689MOL0     H92988   7.377   3.240   7.111 -0.8682 -3.0746  1.4119
  689MOL0     H92989   7.226   3.495   7.212 -1.0534 -1.3233 -0.8658
  689MOL0     H92990   7.376   3.436   7.286 -0.1040 -1.8824 -0.0815
  689MOL0     H92991   7.420   3.447   7.001 -2.5027 -1.8009  1.1695
  689MOL0     H92992   7.507   3.532   7.121  0.3331 -4.9502 -0.7891
  689MOL0     H92993   7.231   3.645   7.039  0.2389  1.7467 -2.9520
  689MOL0     H92994   7.378   3.728   7.091 -3.2957  1.1176  2.1407
  689MOL0     H92995   7.182   2.708   7.402  0.8283  2.9923 -1.4440
  689MOL0     H92996   7.263   2.473   7.324  0.7710 -1.1777  1.5790
  689MOL0     H92997   7.496   2.065   7.442  0.3445  5.6248 -0.6219
  689MOL0     H92998   7.663   1.872   7.409  1.1512 -0.0147  0.4346
  689MOL0     H92999   9.456   1.918   7.856  1.6399 -0.3469  1.0361
  689MOL0     H93000   9.701   1.806   7.909 -0.9034 -0.1884 -1.1906
  689MOL0     H93001   9.920   1.448   7.833 -2.6178  0.4967  1.7620
  689MOL0     H93002  10.080   1.317   7.968 -0.1048 -0.0942 -0.1768
  689MOL0     H93003  10.235   1.521   8.269 -0.7061 -2.6135 -0.7487
  689MOL0     H93004  10.394   1.531   8.211 -0.9639  2.3264  0.1967
  689MOL0     H93005  10.366   1.255   8.263 -0.6291  0.2062  0.3112
  689MOL0     H93006  10.235   1.310   8.360 -0.3762 -0.3699 -1.0802
  689MOL0     H93007  10.514   1.411   8.403  0.4813 -2.4519 -1.0166
  689MOL0     H93008  10.473   1.257   8.465  0.3948 -0.7619 -2.4126
  689MOL0     H93009  10.440   1.478   8.626 -1.1448 -0.1082  2.6682
  689MOL0     H93010  10.318   1.530   8.519  0.8540 -0.5488 -0.5398
  689MOL0     H93011  10.159   1.206   8.743  1.3313  0.3710  3.0217
  689MOL0     H93012  10.306   1.658   8.040 -0.5740 -2.2056  3.3954
  689MOL0     H93013  10.213   1.855   7.804 -0.4465  3.1201  1.1879
  689MOL0     H93014  10.087   1.916   7.917 -1.7750 -0.6689  0.0977
  689MOL0     H93015  10.250   1.865   7.968  0.7253 -1.6494  0.0779
  690MOL0     O93016   5.845   7.590   5.222  0.1203  0.0812  0.1097
  690MOL0     C93017   5.877   7.592   5.107 -0.3654  1.4845  0.8178
  690MOL0     O93018   5.903   7.482   5.022 -0.0833  0.1095 -0.3595
  690MOL0     C93019   5.901   7.356   5.073 -0.6536  0.5609 -0.7852
  690MOL0     C93020   5.872   7.255   4.984 -0.4125 -0.2138  0.0768
  690MOL0     C93021   5.867   7.123   5.022 -0.1679  0.3330 -0.5445
  690MOL0     C93022   5.904   7.087   5.153  1.1505 -0.2119  0.9027
  690MOL0     O93023   5.924   6.953   5.179  0.1262 -0.4802  0.1743
  690MOL0     C93024   5.819   6.865   5.156  0.4899  0.4002  0.3583
  690MOL0     C93025   5.862   6.744   5.232 -0.4186 -0.2355  0.4302
  690MOL0     C93026   5.785   6.611   5.196 -0.5576 -0.6136  0.7790
  690MOL0     C93027   5.849   6.555   5.067  1.1462 -0.4370  0.6855
  690MOL0     C93028   5.805   6.418   5.047 -0.1902  0.0811  1.0705
  690MOL0     C93029   5.655   6.414   4.994 -0.2696  0.2941 -0.1163
  690MOL0     C93030   5.608   6.273   4.952  0.3786 -0.6216 -1.1236
  690MOL0     C93031   5.692   6.212   4.831  0.2909  0.8732  0.6841
  690MOL0     N93032   5.678   6.069   4.806 -0.2764  0.2414  0.4765
  690MOL0     C93033   5.710   5.953   4.886  0.4428 -0.2411  0.2644
  690MOL0     C93034   5.664   5.853   4.808 -0.0009 -0.1950 -0.7141
  690MOL0     C93035   5.640   5.713   4.849  0.4954 -0.0567  0.0831
  690MOL0     C93036   5.553   5.678   4.971 -0.7713 -0.4873 -0.2813
  690MOL0     C93037   5.632   5.662   5.100  0.0302  0.5719  0.9360
  690MOL0     C93038   5.545   5.639   5.225 -0.6567  0.2659 -0.0169
  690MOL0     O93039   5.426   5.724   5.218  0.3402 -0.7163  0.7592
  690MOL0     C93040   5.434   5.856   5.257 -0.2564 -0.6639 -0.7119
  690MOL0     C93041   5.360   5.945   5.186  0.6317  0.2114 -0.2646
  690MOL0     C93042   5.367   6.083   5.202 -0.0346  0.2129  0.6955
  690MOL0     C93043   5.454   6.133   5.297 -0.0838  0.0468  0.2722
  690MOL0     C93044   5.463   6.271   5.323  0.4737  0.5291 -0.5413
  690MOL0     O93045   5.376   6.346   5.264  0.2364  0.6586 -0.6868
  690MOL0     C93046   5.346   6.463   5.325  1.2864 -0.6462  0.0046
  690MOL0     C93047   5.329   6.576   5.248  0.2010  0.2630  0.0830
  690MOL0     C93048   5.312   6.706   5.304  0.6188 -0.0688  0.9754
  690MOL0     C93049   5.306   6.726   5.446 -0.0162  1.1628 -0.2568
  690MOL0     O93050   5.307   6.856   5.491  0.6124 -0.6664 -0.1490
  690MOL0     C93051   5.238   6.885   5.621  0.0634  0.5537  0.0168
  690MOL0     C93052   5.243   7.037   5.653 -0.2687 -0.0545  0.0147
  690MOL0     C93053   5.133   7.109   5.557  0.7000  0.8616  0.3139
  690MOL0     C93054   5.196   7.147   5.421  0.3352  0.2465  0.2166
  690MOL0     C93055   5.286   7.262   5.427  0.2976 -0.6184  0.5710
  690MOL0     C93056   5.365   7.270   5.293  0.1917 -0.6491  0.8009
  690MOL0     C93057   5.460   7.154   5.261 -1.3330 -1.3297 -0.3915
  690MOL0     C93058   5.558   7.193   5.156  0.4955  0.1933 -0.4898
  690MOL0    Cl93059   5.475   7.277   5.022 -0.2264 -0.2691 -0.0299
  690MOL0     C93060   5.306   6.606   5.524 -0.2211 -0.4826 -0.4375
  690MOL0     C93061   5.315   6.485   5.464  0.1150 -0.0715  0.2456
  690MOL0     O93062   5.547   6.306   5.403 -0.7131  0.4039  0.0945
  690MOL0     C93063   5.536   6.043   5.372  0.2018  0.0352 -0.3229
  690MOL0     C93064   5.528   5.904   5.348 -0.1144  1.0971  1.1200
  690MOL0     N93065   5.616   5.906   4.687 -0.2205  0.3310  0.4891
  690MOL0     N93066   5.632   6.028   4.685  0.1947 -0.1263  0.2413
  690MOL0     C93067   5.919   7.183   5.249  1.0827 -1.3076 -0.2451
  690MOL0     C93068   5.919   7.318   5.214 -0.1630 -0.0389  0.5080
  690MOL0     C93069   5.885   7.727   5.053  0.2051  1.0467 -0.6186
  690MOL0     C93070   5.827   7.837   5.121 -0.2272  0.5214 -0.5086
  690MOL0     C93071   5.847   7.968   5.075  0.6088  0.4687  0.1962
  690MOL0     C93072   5.929   7.999   4.969 -1.0064  0.0903  0.2880
  690MOL0     O93073   5.948   8.136   4.958  0.2152  0.5909  0.0432
  690MOL0     C93074   6.067   8.178   4.884 -0.0531 -0.0679  0.5635
  690MOL0     C93075   6.193   8.153   4.960 -0.5029 -0.8066  0.7379
  690MOL0     C93076   6.322   8.203   4.899  0.8538 -0.0465  0.2748
  690MOL0     C93077   6.458   8.179   4.975 -0.0107 -0.3768 -0.8187
  690MOL0     C93078   6.467   8.250   5.107 -1.1908 -0.5349 -0.2767
  690MOL0     C93079   6.459   8.307   5.211  0.0649 -0.0226  0.9297
  690MOL0     C93080   5.985   7.896   4.892  1.1353 -0.1812 -0.1536
  690MOL0     C93081   5.962   7.757   4.935 -0.6099  1.1119  0.2352
  690MOL0     C93082   6.050   7.655   4.856 -0.4694 -0.1955  0.3026
  690MOL0     H93083   5.872   7.280   4.878  2.6527 -0.6807 -0.1344
  690MOL0     H93084   5.851   7.048   4.944  1.2120  3.3043 -3.9737
  690MOL0     H93085   5.738   6.907   5.215 -1.7949 -0.3811 -2.0274
  690MOL0     H93086   5.787   6.856   5.052  2.1118  0.4082 -0.1706
  690MOL0     H93087   5.830   6.759   5.336 -1.2879 -1.8620  0.4338
  690MOL0     H93088   5.970   6.729   5.235  0.2167  3.1427 -1.2287
  690MOL0     H93089   5.680   6.637   5.184 -0.7109 -1.9014 -1.0385
  690MOL0     H93090   5.798   6.535   5.274  0.1072 -1.3702 -0.0425
  690MOL0     H93091   5.826   6.618   4.981 -1.9411 -1.0014  0.9770
  690MOL0     H93092   5.957   6.559   5.082  1.0497 -0.0394  1.3156
  690MOL0     H93093   5.880   6.381   4.977  0.6598  4.2055 -0.4669
  690MOL0     H93094   5.818   6.361   5.140 -0.8801  0.3427  1.3362
  690MOL0     H93095   5.589   6.457   5.070 -2.6866  2.5207 -3.2412
  690MOL0     H93096   5.644   6.478   4.907  1.5983 -2.3891 -2.5229
  690MOL0     H93097   5.504   6.288   4.921  1.0180 -0.5190 -3.3382
  690MOL0     H93098   5.610   6.202   5.035 -1.0652 -0.5515 -0.9977
  690MOL0     H93099   5.658   6.261   4.740  1.2193 -2.5850 -1.7346
  690MOL0     H93100   5.799   6.237   4.840  0.8340 -1.1031  0.2500
  690MOL0     H93101   5.755   5.945   4.984  0.6850  0.8708  0.2544
  690MOL0     H93102   5.588   5.663   4.767 -0.0285  1.3980 -0.4992
  690MOL0     H93103   5.736   5.661   4.860  0.2646 -1.0777 -2.0879
  690MOL0     H93104   5.474   5.754   4.975 -1.5977 -1.3676  0.3575
  690MOL0     H93105   5.504   5.582   4.958 -2.1523  0.3853 -1.9352
  690MOL0     H93106   5.685   5.757   5.115 -0.6078  1.3152 -1.1258
  690MOL0     H93107   5.706   5.582   5.094 -1.3604 -0.9924  3.2168
  690MOL0     H93108   5.596   5.653   5.321  0.3394 -0.5124 -0.4219
  690MOL0     H93109   5.521   5.532   5.225  1.1202 -0.1568 -0.5613
  690MOL0     H93110   5.291   5.907   5.110 -0.1515 -0.3441  0.6993
  690MOL0     H93111   5.312   6.149   5.135 -0.7606 -0.3238  0.7560
  690MOL0     H93112   5.354   6.561   5.144 -1.1174  1.2103 -0.3892
  690MOL0     H93113   5.298   6.796   5.245 -1.9306 -0.9210  0.1386
  690MOL0     H93114   5.140   6.838   5.627  0.8075 -0.9003  1.8264
  690MOL0     H93115   5.296   6.845   5.705  0.8856  0.2337 -0.6918
  690MOL0     H93116   5.210   7.053   5.756  0.8679  2.9009  0.0180
  690MOL0     H93117   5.341   7.083   5.637  0.1251 -1.0797 -0.5790
  690MOL0     H93118   5.057   7.035   5.531  1.6568 -0.1235  0.2283
  690MOL0     H93119   5.091   7.199   5.602 -1.4632  0.5887 -1.0333
  690MOL0     H93120   5.130   7.161   5.335  1.4662 -1.3215 -0.9572
  690MOL0     H93121   5.244   7.054   5.391 -2.3157 -1.7809  1.8231
  690MOL0     H93122   5.353   7.239   5.511 -1.2176 -0.4129  1.8660
  690MOL0     H93123   5.240   7.357   5.453 -2.1298 -1.6104  0.1136
  690MOL0     H93124   5.301   7.288   5.206  3.9488  3.8243 -1.4845
  690MOL0     H93125   5.405   7.371   5.300 -1.8893  0.2626  0.2737
  690MOL0     H93126   5.402   7.063   5.241 -1.3597 -1.5925  0.7995
  690MOL0     H93127   5.516   7.129   5.352 -3.1822  0.7391  1.4381
  690MOL0     H93128   5.639   7.254   5.198 -0.0613 -0.7795  2.1859
  690MOL0     H93129   5.614   7.107   5.120 -0.6014 -1.8110  2.2421
  690MOL0     H93130   5.301   6.623   5.631 -0.1716  2.0789 -0.7777
  690MOL0     H93131   5.314   6.397   5.528 -0.8660  1.0174  1.7998
  690MOL0     H93132   5.611   6.078   5.443 -2.1006 -0.4411  2.5533
  690MOL0     H93133   5.584   5.829   5.402 -0.3412  0.3199  0.2919
  690MOL0     H93134   5.915   7.153   5.353 -0.6582 -0.3293  0.0232
  690MOL0     H93135   5.932   7.390   5.294  1.1939  1.0527 -0.6402
  690MOL0     H93136   5.772   7.839   5.214  0.1490  1.9337 -0.2800
  690MOL0     H93137   5.802   8.056   5.119 -2.6700 -0.9020 -0.1656
  690MOL0     H93138   6.066   8.287   4.875  0.9906 -0.0472  0.5720
  690MOL0     H93139   6.073   8.139   4.782 -0.0549 -0.2360  0.6282
  690MOL0     H93140   6.212   8.046   4.967 -1.1241 -1.4643 -4.0352
  690MOL0     H93141   6.186   8.205   5.056 -3.8774 -0.4017  0.3955
  690MOL0     H93142   6.307   8.311   4.896 -1.6895 -0.2932  1.3401
  690MOL0     H93143   6.345   8.164   4.800  3.5689  2.8081 -0.3769
  690MOL0     H93144   6.476   8.074   5.001 -0.8731 -0.0084  1.5282
  690MOL0     H93145   6.543   8.215   4.915  0.1728 -0.7016 -0.7572
  690MOL0     H93146   6.449   8.334   5.314  1.1454 -1.2366  1.3842
  690MOL0     H93147   6.040   7.925   4.803 -0.0713 -0.5176 -1.0390
  690MOL0     H93148   6.109   7.696   4.774  1.1021 -2.3254  0.2708
  690MOL0     H93149   6.113   7.625   4.941 -0.6669  2.9070  1.6873
  690MOL0     H93150   5.988   7.574   4.816  1.3617 -1.9835  0.8808
  691MOL0     O93151   8.766   0.449   7.027 -0.1747  0.8709 -0.9760
  691MOL0     C93152   8.842   0.523   6.969 -0.5565  0.5075 -0.4111
  691MOL0     O93153   8.951   0.577   7.021  0.0333 -0.5279  0.4422
  691MOL0     C93154   8.992   0.548   7.153  0.0829  0.1132  0.4608
  691MOL0     C93155   8.935   0.474   7.256 -0.0962 -0.0120  0.6388
  691MOL0     C93156   8.983   0.479   7.387  0.0028 -0.5177  0.4692
  691MOL0     C93157   9.109   0.539   7.411 -0.7791  1.4202  0.0117
  691MOL0     O93158   9.166   0.538   7.536 -0.6830 -0.2131 -0.4413
  691MOL0     C93159   9.074   0.526   7.646 -0.4182 -0.4424 -0.1948
  691MOL0     C93160   9.124   0.599   7.778 -1.0071 -0.3703  0.0565
  691MOL0     C93161   9.250   0.680   7.754  0.2985  1.1977 -0.3282
  691MOL0     C93162   9.224   0.804   7.843  0.3350  0.5939 -0.2650
  691MOL0     C93163   9.353   0.900   7.851 -0.0748  0.0690  0.2200
  691MOL0     C93164   9.378   0.997   7.724  0.5236 -0.7081 -0.6322
  691MOL0     C93165   9.243   1.072   7.679 -1.2824  0.4089 -0.0884
  691MOL0     C93166   9.178   1.012   7.552  0.4271  0.1961  0.0187
  691MOL0     N93167   9.042   1.077   7.528 -0.3552 -0.4450  1.1877
  691MOL0     C93168   8.945   1.098   7.620  0.6464 -0.8732 -0.5022
  691MOL0     C93169   8.857   1.187   7.558 -0.4626 -0.1027 -0.3222
  691MOL0     C93170   8.734   1.242   7.632 -0.7405 -0.7890 -0.1980
  691MOL0     C93171   8.770   1.329   7.752  0.4709  0.0606  0.7826
  691MOL0     C93172   8.661   1.373   7.846  0.0936 -0.5816 -0.0162
  691MOL0     C93173   8.548   1.433   7.779  0.7761  0.0046  0.6362
  691MOL0     O93174   8.462   1.473   7.878  0.5086 -0.1377  0.3604
  691MOL0     C93175   8.341   1.536   7.857 -0.2623 -0.1583 -0.4199
  691MOL0     C93176   8.224   1.493   7.919  0.9772 -0.0687  0.7466
  691MOL0     C93177   8.093   1.546   7.887  0.5072  0.5628  0.0419
  691MOL0     C93178   8.086   1.655   7.798 -0.4311 -0.1649  0.3865
  691MOL0     C93179   7.954   1.730   7.776 -0.0719  0.6405  0.0193
  691MOL0     O93180   7.854   1.712   7.857 -0.3445  0.5468 -0.1984
  691MOL0     C93181   7.734   1.776   7.853  0.3361 -1.0622  0.8723
  691MOL0     C93182   7.669   1.806   7.977  0.6043 -0.3758 -0.5567
  691MOL0     C93183   7.541   1.868   7.980 -0.4281 -1.1122  0.4643
  691MOL0     C93184   7.471   1.909   7.871 -0.8302  0.1479 -0.5036
  691MOL0     O93185   7.349   1.974   7.880  0.6439 -0.5426 -0.4097
  691MOL0     C93186   7.282   2.010   7.762 -0.0674 -0.3932 -0.3747
  691MOL0     C93187   7.152   2.091   7.775 -0.0679 -0.5095 -0.8030
  691MOL0     C93188   7.039   2.030   7.864  0.0671 -0.5919 -1.4417
  691MOL0     C93189   7.088   1.996   8.005 -0.2456  0.4835 -0.4825
  691MOL0     C93190   6.978   1.922   8.090 -1.1637 -0.3292 -0.7221
  691MOL0     C93191   6.847   2.005   8.098 -0.3343  0.2415 -0.7371
  691MOL0     C93192   6.742   1.941   8.200 -0.1502  0.0302  0.2994
  691MOL0     C93193   6.733   2.025   8.325 -0.5394  0.8632 -0.0383
  691MOL0    Cl93194   6.683   2.194   8.289  0.0711 -0.3946  0.0195
  691MOL0     C93195   7.540   1.889   7.748 -0.2093 -0.4767  0.1005
  691MOL0     C93196   7.669   1.828   7.742  0.0540 -0.2340 -1.1830
  691MOL0     O93197   7.962   1.831   7.706  0.2785  0.0011  0.4221
  691MOL0     C93198   8.210   1.717   7.754  0.1085 -0.6057  0.8242
  691MOL0     C93199   8.339   1.663   7.790 -0.1149 -0.2153  0.9137
  691MOL0     N93200   8.910   1.222   7.442  0.4596 -0.7093  0.1744
  691MOL0     N93201   9.012   1.159   7.427  0.1374  0.2290  0.1478
  691MOL0     C93202   9.178   0.587   7.300 -0.1754  0.5081 -0.2245
  691MOL0     C93203   9.115   0.597   7.179 -0.1121  1.1940  0.4291
  691MOL0     C93204   8.806   0.554   6.828 -0.5278  0.4160 -0.5316
  691MOL0     C93205   8.907   0.617   6.744  0.4957  0.8993  0.0227
  691MOL0     C93206   8.885   0.653   6.611 -0.0838  0.2956 -1.0645
  691MOL0     C93207   8.753   0.647   6.563 -0.0145 -0.0983 -0.3411
  691MOL0     O93208   8.732   0.700   6.438  0.6838  0.4463  0.3884
  691MOL0     C93209   8.627   0.678   6.352  0.3602 -0.1519 -0.3574
  691MOL0     C93210   8.633   0.536   6.282  0.3745  0.0243 -0.3099
  691MOL0     C93211   8.510   0.472   6.216  0.6609  0.2795  0.1553
  691MOL0     C93212   8.529   0.388   6.096 -0.0972 -0.9630 -0.3725
  691MOL0     C93213   8.406   0.377   6.022 -0.1320 -0.2017 -0.4545
  691MOL0     C93214   8.319   0.402   5.939 -0.1087 -0.0320  0.7757
  691MOL0     C93215   8.647   0.593   6.645  0.5646 -0.9753 -0.4334
  691MOL0     C93216   8.678   0.541   6.768 -0.0020  0.2942  0.4405
  691MOL0     C93217   8.557   0.485   6.831 -0.1489  0.3306  0.0245
  691MOL0     H93218   8.856   0.402   7.241 -1.3212  1.5910 -1.0367
  691MOL0     H93219   8.931   0.417   7.460  0.2704  0.9507  1.9506
  691MOL0     H93220   8.986   0.582   7.614 -0.7306  0.0986  1.5366
  691MOL0     H93221   9.044   0.421   7.649 -1.3637 -0.5226 -4.7887
  691MOL0     H93222   9.148   0.522   7.852  1.9704  0.8700  0.5158
  691MOL0     H93223   9.044   0.662   7.815  1.3541  3.1257 -0.3117
  691MOL0     H93224   9.263   0.710   7.650  0.5748  1.7064 -0.1515
  691MOL0     H93225   9.328   0.618   7.799 -0.4766  0.4781  0.0773
  691MOL0     H93226   9.138   0.852   7.796 -0.1736 -1.7980 -2.0000
  691MOL0     H93227   9.197   0.766   7.942 -1.9610  0.3563 -0.9330
  691MOL0     H93228   9.359   0.961   7.941 -0.3219  0.7368 -0.2106
  691MOL0     H93229   9.449   0.848   7.863  2.7023  4.5443 -0.1005
  691MOL0     H93230   9.459   1.066   7.748 -0.0032  1.1220 -3.7113
  691MOL0     H93231   9.408   0.934   7.640 -0.6514 -2.6828  0.3368
  691MOL0     H93232   9.274   1.172   7.650  1.7532 -0.6006 -0.6952
  691MOL0     H93233   9.183   1.078   7.770 -0.3571 -1.9010  0.7444
  691MOL0     H93234   9.247   1.036   7.471  0.3838  1.1907  0.2528
  691MOL0     H93235   9.169   0.904   7.560  1.1885  0.0981 -0.3463
  691MOL0     H93236   8.948   1.060   7.721  0.3613  0.5108  0.0595
  691MOL0     H93237   8.667   1.299   7.567 -1.5399 -0.0048  1.2688
  691MOL0     H93238   8.676   1.164   7.683 -1.3158 -0.3873 -0.2170
  691MOL0     H93239   8.826   1.260   7.816  0.1626 -0.8062  0.1289
  691MOL0     H93240   8.836   1.408   7.713 -3.0125  2.5445 -0.5822
  691MOL0     H93241   8.697   1.432   7.931 -0.2171  1.9795 -1.5694
  691MOL0     H93242   8.614   1.283   7.887 -3.0345  0.0203 -2.0058
  691MOL0     H93243   8.495   1.367   7.709  1.2500  0.1234  0.1595
  691MOL0     H93244   8.598   1.507   7.717  3.9369  0.2343  3.1947
  691MOL0     H93245   8.220   1.407   7.985  0.1983  1.2080  2.4447
  691MOL0     H93246   8.001   1.507   7.929  0.8570 -1.0307 -0.6176
  691MOL0     H93247   7.712   1.772   8.070 -0.8342 -0.2008  0.1998
  691MOL0     H93248   7.487   1.886   8.073  3.3222 -0.9473  2.8339
  691MOL0     H93249   7.351   2.081   7.716 -0.3802  1.9237  2.4125
  691MOL0     H93250   7.257   1.920   7.705 -0.5143 -0.3212 -0.2940
  691MOL0     H93251   7.179   2.188   7.816  0.4011 -0.9106 -0.1356
  691MOL0     H93252   7.104   2.091   7.677 -1.0582  0.0487 -0.3274
  691MOL0     H93253   6.956   2.100   7.874  1.6795  1.2077  0.1219
  691MOL0     H93254   7.016   1.933   7.819 -1.2930 -0.8603 -0.2165
  691MOL0     H93255   7.123   2.085   8.059 -0.5700 -0.3593  1.2025
  691MOL0     H93256   7.170   1.923   8.011 -1.1056 -0.4291  4.0292
  691MOL0     H93257   7.007   1.907   8.194 -0.7415 -2.1861 -1.0714
  691MOL0     H93258   6.954   1.820   8.061 -1.3139 -0.1217 -1.3367
  691MOL0     H93259   6.868   2.110   8.118  1.4130  0.3031 -2.5905
  691MOL0     H93260   6.795   1.998   8.002 -2.4022 -2.6541  0.4467
  691MOL0     H93261   6.781   1.844   8.232 -2.2001 -0.4934  1.3581
  691MOL0     H93262   6.643   1.937   8.156  1.6834 -1.5561 -4.3176
  691MOL0     H93263   6.671   1.974   8.399  0.4822 -2.4500 -1.3132
  691MOL0     H93264   6.833   2.040   8.367 -0.6685  2.8698 -0.3389
  691MOL0     H93265   7.498   1.913   7.651  3.0912 -0.2877 -1.4172
  691MOL0     H93266   7.729   1.816   7.652  3.5811 -2.7528  1.2262
  691MOL0     H93267   8.201   1.807   7.693 -0.9291  1.3151  3.6218
  691MOL0     H93268   8.431   1.716   7.766 -0.4677  0.0239  0.0438
  691MOL0     H93269   9.283   0.613   7.310 -0.5470  2.1367 -0.2688
  691MOL0     H93270   9.169   0.641   7.096  1.3220 -1.9936 -0.4597
  691MOL0     H93271   9.011   0.622   6.774 -0.1715  2.4412  2.3390
  691MOL0     H93272   8.967   0.689   6.549  2.5544 -3.1510  0.1124
  691MOL0     H93273   8.632   0.761   6.280 -1.6270  1.0357  0.7725
  691MOL0     H93274   8.529   0.678   6.400  0.4219  0.8132 -0.2064
  691MOL0     H93275   8.662   0.470   6.364 -2.5246 -2.6259 -1.2133
  691MOL0     H93276   8.719   0.521   6.217  0.9418  0.4407  0.3376
  691MOL0     H93277   8.430   0.547   6.224 -2.2835 -2.6558  0.9144
  691MOL0     H93278   8.470   0.406   6.294  2.4528 -0.9130  0.1040
  691MOL0     H93279   8.603   0.440   6.034 -0.1146  1.5704  1.5591
  691MOL0     H93280   8.557   0.286   6.124  2.6552  0.2999  1.9970
  691MOL0     H93281   8.248   0.411   5.859  1.2553  2.3810 -0.2786
  691MOL0     H93282   8.547   0.608   6.606  0.9569  3.2859 -0.2359
  691MOL0     H93283   8.530   0.525   6.930 -0.9945 -1.9762  0.7885
  691MOL0     H93284   8.470   0.488   6.765 -0.2711 -0.6041  0.1385
  691MOL0     H93285   8.578   0.379   6.844  0.5444  0.2720 -1.4434
  692MOL0     O93286   5.879   9.423   5.973  0.0666 -0.2238 -0.2003
  692MOL0     C93287   5.817   9.317   5.983  0.4499 -0.3545 -0.2299
  692MOL0     O93288   5.871   9.192   5.980 -0.2093  0.3697 -0.7722
  692MOL0     C93289   5.989   9.171   5.902  0.3502 -0.3390 -0.2877
  692MOL0     C93290   6.116   9.201   5.961 -0.0740  0.1619 -1.2297
  692MOL0     C93291   6.230   9.173   5.888 -0.1868  0.0105  0.2238
  692MOL0     C93292   6.226   9.108   5.761  0.1251 -0.0926  0.2894
  692MOL0     O93293   6.341   9.090   5.682 -0.2171  0.2001  0.0535
  692MOL0     C93294   6.415   8.975   5.728 -0.1255 -0.2225  1.4966
  692MOL0     C93295   6.366   8.831   5.717 -0.3372  0.3566  0.0591
  692MOL0     C93296   6.307   8.799   5.577 -0.4819 -0.1668 -0.7928
  692MOL0     C93297   6.397   8.839   5.459 -0.1311 -0.7523  0.5462
  692MOL0     C93298   6.519   8.749   5.460 -0.5736 -0.0221 -0.3224
  692MOL0     C93299   6.496   8.601   5.489 -0.0827  0.5245 -0.1757
  692MOL0     C93300   6.631   8.530   5.456 -0.1013 -0.1175  1.1171
  692MOL0     C93301   6.647   8.396   5.530 -0.2082 -0.2118 -0.5655
  692MOL0     N93302   6.679   8.404   5.676 -0.4478  0.1320  0.1768
  692MOL0     C93303   6.612   8.464   5.782  0.3438  0.4563  0.6971
  692MOL0     C93304   6.675   8.445   5.888 -0.7557  0.9303  0.3747
  692MOL0     C93305   6.640   8.469   6.027  0.2560 -0.0155  0.7051
  692MOL0     C93306   6.630   8.624   6.049 -0.5567  1.1872  0.0176
  692MOL0     C93307   6.577   8.651   6.195 -0.6158  0.3441 -0.3033
  692MOL0     C93308   6.494   8.780   6.209  0.1497  0.1020 -0.6715
  692MOL0     O93309   6.500   8.834   6.341  0.8096 -0.0589 -0.0069
  692MOL0     C93310   6.447   8.964   6.356 -0.2978 -0.0006  0.4406
  692MOL0     C93311   6.515   9.037   6.444 -0.1142  1.0661 -1.1069
  692MOL0     C93312   6.456   9.165   6.489 -1.1466 -0.2908 -0.0464
  692MOL0     C93313   6.352   9.222   6.424 -1.2140 -0.8457  0.3541
  692MOL0     C93314   6.283   9.343   6.473  0.0938 -0.0537  0.5488
  692MOL0     O93315   6.298   9.392   6.604  0.1341  0.3380 -0.6107
  692MOL0     C93316   6.232   9.510   6.640 -0.2147  0.9522  0.1441
  692MOL0     C93317   6.095   9.514   6.666 -0.8981 -0.5128  0.6691
  692MOL0     C93318   6.035   9.630   6.690  0.4064 -0.2273 -0.7556
  692MOL0     C93319   6.100   9.745   6.710  0.6518 -0.3121  0.7192
  692MOL0     O93320   6.030   9.861   6.728 -0.2092 -0.1058  0.2675
  692MOL0     C93321   6.060   9.963   6.628 -0.0633  0.4225  0.2008
  692MOL0     C93322   5.976  10.082   6.649  0.3377 -0.6683 -0.1964
  692MOL0     C93323   5.843  10.065   6.588  0.0618 -0.1353 -0.1796
  692MOL0     C93324   5.829  10.063   6.439 -0.3022  1.2729  0.8078
  692MOL0     C93325   5.679  10.069   6.403 -0.8143 -0.7421  0.1690
  692MOL0     C93326   5.669  10.103   6.252 -1.0362 -0.2985 -0.0640
  692MOL0     C93327   5.532  10.163   6.232  0.6660 -0.6154  0.1947
  692MOL0     C93328   5.492  10.210   6.090 -1.0563  0.2518 -0.5396
  692MOL0    Cl93329   5.593  10.363   6.051  0.4451  0.6233 -0.5149
  692MOL0     C93330   6.240   9.742   6.712  0.8667 -0.1534 -0.0828
  692MOL0     C93331   6.303   9.622   6.676 -0.5166 -0.1187 -0.0824
  692MOL0     O93332   6.212   9.396   6.391  0.9054 -0.4086  0.8251
  692MOL0     C93333   6.309   9.160   6.310 -0.2028  0.4650  0.7203
  692MOL0     C93334   6.353   9.029   6.275  0.6317 -1.0946 -0.6420
  692MOL0     N93335   6.796   8.374   5.849 -0.6089  0.1800  0.5584
  692MOL0     N93336   6.798   8.357   5.723  0.5405  0.0115  0.2966
  692MOL0     C93337   6.101   9.080   5.710  0.2331  0.2105  0.7502
  692MOL0     C93338   5.987   9.119   5.777 -0.4689  0.5967 -0.2982
  692MOL0     C93339   5.667   9.313   5.995  1.0687 -0.0960  0.4133
  692MOL0     C93340   5.597   9.199   6.050  0.3857  0.2308 -0.6870
  692MOL0     C93341   5.456   9.193   6.065 -0.5820  0.8121  0.0206
  692MOL0     C93342   5.373   9.296   6.015 -0.1072  0.3654 -0.3621
  692MOL0     O93343   5.245   9.281   6.042  0.4112 -0.2041 -0.0294
  692MOL0     C93344   5.155   9.388   6.005  0.6049  0.4129  0.2653
  692MOL0     C93345   5.008   9.338   6.035 -0.1066  0.4628  0.0964
  692MOL0     C93346   4.988   9.288   6.179 -0.5098  0.3780  0.5112
  692MOL0     C93347   5.028   9.394   6.285 -0.2741  0.4391 -0.3876
  692MOL0     C93348   4.976   9.349   6.417 -0.3100  0.4990  0.3030
  692MOL0     C93349   4.922   9.320   6.518  0.2798 -0.4664  0.1744
  692MOL0     C93350   5.434   9.408   5.964 -0.2563 -0.4110  0.5218
  692MOL0     C93351   5.570   9.417   5.949 -0.5807 -0.1011  0.1584
  692MOL0     C93352   5.611   9.537   5.876 -0.7042 -0.6201 -0.3167
  692MOL0     H93353   6.133   9.235   6.062 -0.5889 -1.9979 -0.3499
  692MOL0     H93354   6.326   9.179   5.940 -0.6866  2.5469  0.9851
  692MOL0     H93355   6.509   8.975   5.672 -0.9763  0.8101 -0.0001
  692MOL0     H93356   6.447   8.996   5.830  1.9723 -2.7231  1.4638
  692MOL0     H93357   6.286   8.821   5.790 -0.7087 -2.7541 -0.6187
  692MOL0     H93358   6.448   8.766   5.749 -0.9120 -0.1535  0.5190
  692MOL0     H93359   6.213   8.853   5.560 -1.0728  0.1786  2.6655
  692MOL0     H93360   6.283   8.693   5.587  0.8213 -0.3289  1.1684
  692MOL0     H93361   6.354   8.834   5.359  1.3984  1.0530 -0.2759
  692MOL0     H93362   6.428   8.943   5.473  0.8517 -1.1293  1.3032
  692MOL0     H93363   6.568   8.758   5.363  2.2894  0.5949  1.0511
  692MOL0     H93364   6.590   8.787   5.535  0.8431  0.8981 -2.0610
  692MOL0     H93365   6.477   8.588   5.596 -0.5828 -0.8362 -0.4087
  692MOL0     H93366   6.413   8.568   5.427  1.1036 -0.3886 -1.3345
  692MOL0     H93367   6.716   8.592   5.483 -1.3051  2.1966 -0.1077
  692MOL0     H93368   6.639   8.528   5.347 -1.1171 -0.4922  1.0324
  692MOL0     H93369   6.561   8.329   5.515 -0.2394 -0.0083 -1.3268
  692MOL0     H93370   6.730   8.340   5.487  1.6751  3.4071 -2.0652
  692MOL0     H93371   6.507   8.492   5.773  0.1261 -0.7581 -1.4331
  692MOL0     H93372   6.538   8.432   6.045  0.1208  0.6625  1.3502
  692MOL0     H93373   6.714   8.446   6.103 -1.1169  1.2017  2.4904
  692MOL0     H93374   6.733   8.661   6.044 -1.1792  3.2402  1.2482
  692MOL0     H93375   6.567   8.667   5.971 -1.8842  2.9830  1.9694
  692MOL0     H93376   6.664   8.662   6.260 -0.1273  3.4194 -1.2851
  692MOL0     H93377   6.501   8.582   6.231 -2.2558  3.1959  2.1374
  692MOL0     H93378   6.389   8.757   6.189 -0.1575  1.2755 -0.4737
  692MOL0     H93379   6.524   8.846   6.128 -1.5349  0.1568 -1.3006
  692MOL0     H93380   6.611   9.003   6.483  0.3117 -2.3390 -4.6415
  692MOL0     H93381   6.506   9.228   6.563 -2.1971  1.8767 -1.1139
  692MOL0     H93382   6.020   9.436   6.652  3.9651 -5.3884 -2.2586
  692MOL0     H93383   5.926   9.635   6.697  0.2659 -1.3226 -1.8658
  692MOL0     H93384   6.163   9.998   6.618 -0.8281  2.1115 -4.1579
  692MOL0     H93385   6.029   9.932   6.527  1.3344  0.5620 -0.2945
  692MOL0     H93386   5.963  10.092   6.757 -0.6181  0.3919 -0.3896
  692MOL0     H93387   6.024  10.171   6.607 -0.9416 -0.0696 -0.4561
  692MOL0     H93388   5.809   9.966   6.618 -1.7500 -0.8045 -3.8600
  692MOL0     H93389   5.784  10.153   6.617  1.9607  1.4052 -0.7806
  692MOL0     H93390   5.866   9.971   6.393  0.1723  1.4743  0.7763
  692MOL0     H93391   5.875  10.155   6.400 -1.4035  1.8256  0.7898
  692MOL0     H93392   5.632  10.152   6.457  0.7017  0.4506 -0.2402
  692MOL0     H93393   5.626   9.977   6.429  2.3917 -2.8537 -0.2180
  692MOL0     H93394   5.739  10.181   6.221 -1.4724  0.3254  0.4837
  692MOL0     H93395   5.694  10.012   6.196 -2.4393  0.5377 -2.1745
  692MOL0     H93396   5.525  10.250   6.298  1.4456  0.3679 -0.9780
  692MOL0     H93397   5.458  10.089   6.263  0.6085 -1.1605 -1.2114
  692MOL0     H93398   5.504  10.131   6.014 -1.0775 -0.0621 -0.2177
  692MOL0     H93399   5.388  10.240   6.079 -1.7546 -1.7705 -0.0067
  692MOL0     H93400   6.292   9.833   6.739  1.3456 -1.1129  2.4823
  692MOL0     H93401   6.411   9.622   6.667 -0.0238 -1.5618  4.0303
  692MOL0     H93402   6.224   9.193   6.251  0.2517  1.0682  0.3904
  692MOL0     H93403   6.295   8.972   6.204 -2.0031 -0.3975  0.8310
  692MOL0     H93404   6.090   9.042   5.609  2.2079 -2.7194  1.4951
  692MOL0     H93405   5.885   9.102   5.744 -0.6011 -0.7543  0.7278
  692MOL0     H93406   5.645   9.110   6.089 -1.9704 -1.3740 -1.2292
  692MOL0     H93407   5.415   9.106   6.116  0.0783  1.2437  1.3197
  692MOL0     H93408   5.163   9.410   5.899 -2.2606  1.1143  0.0935
  692MOL0     H93409   5.173   9.479   6.064 -3.8033  0.6293  1.7057
  692MOL0     H93410   4.980   9.254   5.971  0.1572  0.3797  0.0916
  692MOL0     H93411   4.944   9.425   6.016  1.0221  0.9008 -2.0915
  692MOL0     H93412   5.041   9.193   6.196 -2.9673 -1.4593 -1.3222
  692MOL0     H93413   4.884   9.254   6.184  0.4247 -3.3648 -1.8259
  692MOL0     H93414   5.136   9.397   6.302 -0.4934 -0.6374  1.5103
  692MOL0     H93415   4.982   9.492   6.269 -1.4637 -0.0954 -0.3101
  692MOL0     H93416   4.876   9.310   6.614  0.2601  3.4136  0.7178
  692MOL0     H93417   5.369   9.489   5.934  1.4928  1.3272  1.2281
  692MOL0     H93418   5.688   9.531   5.798 -1.4173 -0.2527 -1.0630
  692MOL0     H93419   5.528   9.593   5.833 -3.6231 -4.0035  0.4146
  692MOL0     H93420   5.666   9.593   5.953 -0.1575 -3.4284  1.4861
  693MOL0     O93421   2.136   7.738   3.864 -0.3311 -0.6452 -1.0288
  693MOL0     C93422   2.236   7.717   3.793 -0.5603 -0.7566  0.5113
  693MOL0     O93423   2.361   7.763   3.820  0.5265  0.5011  0.5063
  693MOL0     C93424   2.375   7.879   3.884  0.2539  0.1066  0.1110
  693MOL0     C93425   2.430   7.871   4.005 -0.0310  0.1605 -0.7163
  693MOL0     C93426   2.449   7.983   4.084 -0.4559 -0.4926 -0.5756
  693MOL0     C93427   2.402   8.109   4.040 -0.8384 -0.3639  0.5851
  693MOL0     O93428   2.397   8.221   4.119  0.2251 -0.2161 -0.7458
  693MOL0     C93429   2.457   8.234   4.248 -0.0986 -0.8381  0.1377
  693MOL0     C93430   2.543   8.359   4.243  0.1213  0.6277  0.4593
  693MOL0     C93431   2.462   8.485   4.192 -0.6737  0.2629  0.1626
  693MOL0     C93432   2.334   8.515   4.276  0.2658  1.4108  0.2743
  693MOL0     C93433   2.313   8.660   4.311  0.5242 -0.1661 -0.7570
  693MOL0     C93434   2.290   8.752   4.196  0.2852 -0.5319 -0.1905
  693MOL0     C93435   2.256   8.895   4.249 -0.1690  0.0484 -0.0548
  693MOL0     C93436   2.376   8.969   4.301  0.2010 -0.6338  0.0281
  693MOL0     N93437   2.363   9.107   4.293 -0.1420 -0.1030 -0.0272
  693MOL0     C93438   2.282   9.186   4.380 -0.4704 -0.0127  0.0706
  693MOL0     C93439   2.302   9.309   4.323 -0.2808 -0.8994 -0.0529
  693MOL0     C93440   2.253   9.442   4.370  0.8852 -0.5191  0.4617
  693MOL0     C93441   2.133   9.434   4.475 -0.7604  0.0218 -0.6355
  693MOL0     C93442   2.018   9.376   4.407  0.0032  0.5320  1.0165
  693MOL0     C93443   1.899   9.357   4.501  0.4125 -0.2321  1.3515
  693MOL0     O93444   1.798   9.322   4.405 -0.4921 -0.6708 -1.0086
  693MOL0     C93445   1.665   9.340   4.434 -0.3916  0.0069 -0.1030
  693MOL0     C93446   1.613   9.343   4.568 -0.3509 -1.0125 -0.8214
  693MOL0     C93447   1.477   9.346   4.583  0.5793  0.9568 -0.2433
  693MOL0     C93448   1.384   9.334   4.483 -0.0454  0.0651 -0.0524
  693MOL0     C93449   1.248   9.292   4.508  0.2838  0.4855  1.2158
  693MOL0     O93450   1.165   9.315   4.398 -0.3023 -0.2649  0.7515
  693MOL0     C93451   1.029   9.288   4.415  0.5936  0.2834 -0.2773
  693MOL0     C93452   0.959   9.335   4.302 -1.1260  0.2046  0.5158
  693MOL0     C93453   0.826   9.340   4.292 -0.0446  0.3835  0.1123
  693MOL0     C93454   0.748   9.278   4.387  0.6236 -0.3256  0.1407
  693MOL0     O93455   0.613   9.282   4.356 -0.5124  0.5515  0.6475
  693MOL0     C93456   0.528   9.211   4.448  0.2755 -0.2185 -0.0797
  693MOL0     C93457   0.480   9.072   4.409 -1.0856 -0.1832  0.3371
  693MOL0     C93458   0.414   8.987   4.519  1.5272  0.3516  0.0715
  693MOL0     C93459   0.297   9.050   4.594 -0.4465  0.4709 -0.8950
  693MOL0     C93460   0.258   8.963   4.723 -0.4428  0.0099 -0.2399
  693MOL0     C93461   0.213   8.819   4.690 -0.6639 -0.2009  0.7185
  693MOL0     C93462   0.082   8.817   4.617 -0.0770 -0.8028  0.0840
  693MOL0     C93463   0.013   8.679   4.590  0.1590 -0.2593 -0.2455
  693MOL0    Cl93464   0.117   8.565   4.504  0.0220  0.1424  0.4836
  693MOL0     C93465   0.812   9.218   4.498 -0.4217 -0.6147 -0.8947
  693MOL0     C93466   0.951   9.228   4.523 -0.1829  0.1518  0.3535
  693MOL0     O93467   1.218   9.254   4.622  0.3794  0.0219 -0.8290
  693MOL0     C93468   1.432   9.334   4.354 -0.5538  0.0592  0.8273
  693MOL0     C93469   1.568   9.340   4.331 -0.3914 -0.0036  0.3510
  693MOL0     N93470   2.375   9.301   4.205 -0.3217 -0.6967 -0.2630
  693MOL0     N93471   2.421   9.180   4.193  0.4814 -0.1133  0.4424
  693MOL0     C93472   2.349   8.123   3.910  0.1701  0.3196 -0.3220
  693MOL0     C93473   2.330   8.005   3.835  0.3219 -0.3923  0.1678
  693MOL0     C93474   2.218   7.655   3.653  0.0144 -0.5522  0.2055
  693MOL0     C93475   2.309   7.691   3.548  0.9720 -0.6180 -0.1797
  693MOL0     C93476   2.293   7.638   3.421  0.2346 -0.3480 -1.1845
  693MOL0     C93477   2.195   7.544   3.390  0.1365 -0.3095 -0.3402
  693MOL0     O93478   2.168   7.493   3.265 -0.2516 -0.7184  0.6225
  693MOL0     C93479   2.253   7.514   3.161 -0.2094 -0.0238  0.6328
  693MOL0     C93480   2.376   7.424   3.154 -0.0745 -0.5308 -0.4346
  693MOL0     C93481   2.471   7.471   3.045  0.3805  1.3956 -0.2442
  693MOL0     C93482   2.583   7.371   3.034  0.1289  0.1280 -0.1401
  693MOL0     C93483   2.534   7.239   2.979 -0.3393  0.7570 -0.5010
  693MOL0     C93484   2.507   7.129   2.944 -0.5073 -0.7987  1.1071
  693MOL0     C93485   2.107   7.515   3.498 -0.3547  0.7448 -0.0513
  693MOL0     C93486   2.120   7.560   3.626 -0.3358  0.4956  0.0362
  693MOL0     C93487   2.030   7.505   3.735  0.4040 -0.3684 -0.6643
  693MOL0     H93488   2.467   7.775   4.041  0.9445  0.8730  0.2462
  693MOL0     H93489   2.499   7.981   4.181 -1.6348  1.4484  0.1410
  693MOL0     H93490   2.381   8.252   4.325  1.8003  3.0423  1.3276
  693MOL0     H93491   2.525   8.153   4.280 -0.7114 -0.8160  1.6022
  693MOL0     H93492   2.634   8.350   4.183  0.1536  0.1542  0.5769
  693MOL0     H93493   2.579   8.372   4.345 -1.5613  0.0081  1.1497
  693MOL0     H93494   2.432   8.480   4.087 -2.9383  3.9661  0.4330
  693MOL0     H93495   2.533   8.565   4.216 -0.7710 -0.3677  2.8547
  693MOL0     H93496   2.236   8.491   4.233  0.0975 -2.1157  2.2613
  693MOL0     H93497   2.349   8.458   4.368  1.2470  2.1661  0.6003
  693MOL0     H93498   2.228   8.667   4.380  0.7135  0.9274 -0.6197
  693MOL0     H93499   2.408   8.682   4.362  1.3008 -0.9602 -1.8221
  693MOL0     H93500   2.381   8.766   4.136 -0.3089 -0.2120 -1.0340
  693MOL0     H93501   2.215   8.713   4.127  2.2786 -3.7501 -0.7299
  693MOL0     H93502   2.183   8.884   4.330 -0.6012 -1.9928 -0.6568
  693MOL0     H93503   2.219   8.946   4.160  5.3506  0.3288 -2.6132
  693MOL0     H93504   2.402   8.949   4.406  5.5370  2.9311 -0.2161
  693MOL0     H93505   2.465   8.948   4.241 -1.4798 -0.0277 -2.8795
  693MOL0     H93506   2.219   9.165   4.466  0.4631 -0.3242  0.6913
  693MOL0     H93507   2.339   9.485   4.423  0.9442 -2.2883  1.8876
  693MOL0     H93508   2.220   9.507   4.288 -0.0906 -1.4685  0.0753
  693MOL0     H93509   2.166   9.384   4.567 -0.5425 -0.7595 -1.1373
  693MOL0     H93510   2.107   9.538   4.500  0.6124  0.6914 -1.8515
  693MOL0     H93511   2.025   9.275   4.365  1.4629  0.8106  0.5280
  693MOL0     H93512   1.994   9.449   4.329  0.1254  0.9347  1.3558
  693MOL0     H93513   1.889   9.457   4.544  1.4421  0.8039 -0.6720
  693MOL0     H93514   1.905   9.278   4.578  0.1666  0.2160  1.8345
  693MOL0     H93515   1.673   9.363   4.655 -0.2126 -1.2501 -0.8597
  693MOL0     H93516   1.443   9.360   4.685  0.1152  3.3847 -0.6611
  693MOL0     H93517   1.029   9.383   4.234  0.0252 -1.6369  0.3066
  693MOL0     H93518   0.779   9.379   4.201  0.0753 -0.1072 -0.1633
  693MOL0     H93519   0.565   9.216   4.551  1.7617 -1.2344 -0.5318
  693MOL0     H93520   0.445   9.282   4.456  3.1220  3.2728  0.9418
  693MOL0     H93521   0.409   9.089   4.327  0.0913 -2.3604 -1.2236
  693MOL0     H93522   0.567   9.016   4.374 -0.3781  1.4721 -0.6743
  693MOL0     H93523   0.370   8.902   4.467 -2.9776  3.5371 -1.9798
  693MOL0     H93524   0.483   8.943   4.592 -1.8319 -4.6276  0.7138
  693MOL0     H93525   0.209   9.069   4.533 -0.7006  1.3477 -0.2791
  693MOL0     H93526   0.333   9.143   4.638  2.3786 -0.4236 -1.1256
  693MOL0     H93527   0.188   8.998   4.800 -1.0831 -3.8243  1.1028
  693MOL0     H93528   0.351   8.953   4.779 -1.3152  2.5454  1.8634
  693MOL0     H93529   0.289   8.760   4.638 -1.7415 -1.3004  0.3442
  693MOL0     H93530   0.201   8.760   4.781  1.8961 -1.7916  0.1376
  693MOL0     H93531   0.108   8.852   4.517  0.9019 -2.6102 -0.3348
  693MOL0     H93532   0.005   8.871   4.673  2.6578  1.4746  1.8932
  693MOL0     H93533  -0.023   8.626   4.679 -1.2271 -4.0384 -2.7658
  693MOL0     H93534  -0.078   8.692   4.531  1.8339  2.7355 -2.4258
  693MOL0     H93535   0.763   9.159   4.575 -0.7753 -0.9254 -1.3532
  693MOL0     H93536   1.010   9.190   4.606 -1.4089 -1.0957  0.6833
  693MOL0     H93537   1.372   9.326   4.263  0.6134  2.1874 -0.2067
  693MOL0     H93538   1.598   9.322   4.228  1.1031 -0.7103  0.8822
  693MOL0     H93539   2.333   8.225   3.876  2.4652  0.3055 -1.6551
  693MOL0     H93540   2.274   7.999   3.742 -0.1512 -1.2250  0.4966
  693MOL0     H93541   2.391   7.760   3.566  0.1065  0.1531  0.9493
  693MOL0     H93542   2.357   7.685   3.347 -2.0523  2.0874 -1.7595
  693MOL0     H93543   2.280   7.618   3.141  1.6739 -0.7998 -1.4013
  693MOL0     H93544   2.205   7.466   3.075  2.3774 -0.8496 -0.4826
  693MOL0     H93545   2.342   7.322   3.131 -5.2031 -0.3343  4.2296
  693MOL0     H93546   2.423   7.428   3.253 -0.0993  2.5717 -0.4707
  693MOL0     H93547   2.526   7.564   3.065  1.8565  0.1435  1.9670
  693MOL0     H93548   2.416   7.482   2.951  1.4732  2.2345 -0.8101
  693MOL0     H93549   2.657   7.411   2.965  1.6719 -1.2024  0.6758
  693MOL0     H93550   2.622   7.356   3.135 -4.1239  1.8824  2.0477
  693MOL0     H93551   2.473   7.035   2.906 -1.0420 -0.1318 -0.1217
  693MOL0     H93552   2.033   7.442   3.470  1.3005 -0.4787 -1.4195
  693MOL0     H93553   1.977   7.412   3.713 -1.7765  0.7162 -0.2625
  693MOL0     H93554   2.096   7.490   3.821  0.1170  1.6336 -0.0286
  693MOL0     H93555   1.949   7.570   3.771 -2.4552 -2.5342 -2.7318
  694MOL0     O93556   4.597   1.322   5.887 -0.7251  0.5754  0.0095
  694MOL0     C93557   4.595   1.389   5.786  0.0478  0.5790 -0.1597
  694MOL0     O93558   4.498   1.485   5.749 -0.0791 -0.4963 -0.4939
  694MOL0     C93559   4.385   1.495   5.829  0.2454  1.0721 -1.0266
  694MOL0     C93560   4.305   1.378   5.837 -0.0423 -0.3891 -0.0502
  694MOL0     C93561   4.184   1.383   5.898  0.6187 -0.8271 -1.0609
  694MOL0     C93562   4.133   1.502   5.954  0.1694  0.1791 -0.0457
  694MOL0     O93563   4.010   1.504   6.006 -0.1464  1.3212  0.1981
  694MOL0     C93564   3.964   1.393   6.095 -0.3076 -0.2138  0.4346
  694MOL0     C93565   4.062   1.377   6.209  0.1879  0.6539  0.3138
  694MOL0     C93566   4.073   1.505   6.300  0.9581 -0.3555 -0.1883
  694MOL0     C93567   4.184   1.497   6.399 -0.5415 -0.1935 -0.7102
  694MOL0     C93568   4.141   1.413   6.522  0.1683 -0.4201  0.1204
  694MOL0     C93569   4.263   1.385   6.615  0.3766 -0.1427  0.5534
  694MOL0     C93570   4.249   1.329   6.751  0.1823 -0.4975  0.0585
  694MOL0     C93571   4.375   1.251   6.797  0.3861  1.1001  0.3285
  694MOL0     N93572   4.488   1.335   6.825 -0.7508 -0.0135  0.1986
  694MOL0     C93573   4.500   1.412   6.940 -0.5381 -0.1737  0.2371
  694MOL0     C93574   4.614   1.488   6.926 -0.4050  1.1453  0.9230
  694MOL0     C93575   4.673   1.578   7.021 -0.0172  0.3290  0.1733
  694MOL0     C93576   4.702   1.496   7.150  0.0985  0.3471 -0.5829
  694MOL0     C93577   4.850   1.463   7.167  0.4621  0.5381 -0.7508
  694MOL0     C93578   4.936   1.583   7.189 -1.0723  0.4018  0.3810
  694MOL0     O93579   4.910   1.636   7.319 -0.1787 -0.1858  0.4078
  694MOL0     C93580   4.966   1.751   7.362  1.1573 -0.4400 -0.2312
  694MOL0     C93581   5.074   1.825   7.314 -0.4918 -0.1139  0.6731
  694MOL0     C93582   5.128   1.929   7.381  0.3472 -0.3333 -0.5864
  694MOL0     C93583   5.062   1.983   7.494  0.5007  1.0448 -0.0077
  694MOL0     C93584   5.123   2.098   7.562 -0.0368  0.1278  0.0399
  694MOL0     O93585   5.235   2.170   7.504 -0.1972 -0.4167  0.1415
  694MOL0     C93586   5.297   2.267   7.581 -0.1614  0.5627 -0.4165
  694MOL0     C93587   5.417   2.231   7.638 -0.3731  0.4053 -1.4325
  694MOL0     C93588   5.494   2.319   7.723  0.1396  1.0022  0.6178
  694MOL0     C93589   5.445   2.450   7.738  0.8311 -0.2052 -1.2597
  694MOL0     O93590   5.508   2.526   7.834  0.4852 -0.6102 -0.7724
  694MOL0     C93591   5.562   2.652   7.792  1.2266  0.0088 -0.7497
  694MOL0     C93592   5.712   2.659   7.816  0.4246 -0.2271  0.4374
  694MOL0     C93593   5.787   2.549   7.731  0.2776 -0.2521 -0.0514
  694MOL0     C93594   5.940   2.578   7.749  0.0405  0.1281 -0.0097
  694MOL0     C93595   6.024   2.464   7.692  0.6839 -0.4123 -0.5296
  694MOL0     C93596   5.995   2.438   7.537  0.3655 -0.8539  0.0426
  694MOL0     C93597   6.103   2.334   7.514 -0.3239  0.3350 -1.1857
  694MOL0     C93598   6.081   2.274   7.370 -0.9460 -0.5871  0.1725
  694MOL0    Cl93599   6.093   2.400   7.227  0.0160  0.4296 -0.5269
  694MOL0     C93600   5.324   2.488   7.678 -0.1524  0.3623 -0.5069
  694MOL0     C93601   5.249   2.397   7.605 -0.2394  0.1679 -0.0829
  694MOL0     O93602   5.072   2.120   7.679 -0.0608  0.8613  0.1761
  694MOL0     C93603   4.930   1.930   7.526  0.8361  0.4115 -0.5094
  694MOL0     C93604   4.885   1.813   7.462 -0.5808  1.2056  0.9279
  694MOL0     N93605   4.660   1.453   6.796  0.0369  0.5427 -0.2765
  694MOL0     N93606   4.589   1.361   6.739  0.8079  0.3655 -0.3954
  694MOL0     C93607   4.210   1.621   5.949  0.3738  0.0778  0.7073
  694MOL0     C93608   4.339   1.614   5.880 -0.0723 -0.4796 -0.8662
  694MOL0     C93609   4.702   1.369   5.687 -0.4081  0.6377 -0.2269
  694MOL0     C93610   4.760   1.487   5.637  0.6848 -0.7603  0.6375
  694MOL0     C93611   4.835   1.477   5.518 -0.5641  0.1440 -0.5890
  694MOL0     C93612   4.885   1.348   5.479 -0.5110  0.5585  0.0521
  694MOL0     O93613   4.990   1.327   5.391 -0.1427  0.4574 -0.0330
  694MOL0     C93614   5.098   1.419   5.403 -0.2628 -0.1166 -0.4626
  694MOL0     C93615   5.219   1.338   5.368  0.6798  0.3312 -0.6323
  694MOL0     C93616   5.208   1.301   5.223 -0.0556 -0.2967 -0.0936
  694MOL0     C93617   5.333   1.234   5.179 -0.6412 -0.7627  0.8233
  694MOL0     C93618   5.354   1.110   5.257  0.6263 -0.4328  0.5276
  694MOL0     C93619   5.343   1.013   5.328  0.2535  0.3614  0.8096
  694MOL0     C93620   4.825   1.227   5.531  0.2060  0.6131 -0.4428
  694MOL0     C93621   4.743   1.235   5.646  0.9548 -0.7167 -0.0467
  694MOL0     C93622   4.682   1.109   5.715  1.2759 -0.6087  0.3158
  694MOL0     H93623   4.357   1.298   5.785  0.1306  0.8020 -1.7910
  694MOL0     H93624   4.123   1.292   5.901 -2.2696  0.9830 -0.8589
  694MOL0     H93625   3.863   1.391   6.136 -0.6235 -2.5268 -0.2863
  694MOL0     H93626   3.975   1.302   6.035  2.7706 -0.1780  0.8191
  694MOL0     H93627   4.157   1.345   6.167 -1.1135 -1.8438 -0.9554
  694MOL0     H93628   4.037   1.296   6.278  0.8444  1.6699  1.8089
  694MOL0     H93629   3.981   1.532   6.353  1.0570  1.7583 -0.9755
  694MOL0     H93630   4.089   1.595   6.239 -2.2629 -0.8464 -2.0096
  694MOL0     H93631   4.284   1.463   6.368  0.7929 -1.0914  3.8412
  694MOL0     H93632   4.190   1.598   6.439 -1.1855 -0.0888 -0.8615
  694MOL0     H93633   4.090   1.481   6.591  1.2957  0.4407  0.1336
  694MOL0     H93634   4.083   1.324   6.495  0.1923 -0.3983 -0.0063
  694MOL0     H93635   4.351   1.353   6.559  0.4321  3.8928 -2.0886
  694MOL0     H93636   4.299   1.486   6.639  1.9610 -0.5592  0.0666
  694MOL0     H93637   4.161   1.266   6.738  0.7226 -1.5470  1.2173
  694MOL0     H93638   4.215   1.399   6.828  0.3775 -0.6561  0.2917
  694MOL0     H93639   4.351   1.197   6.889 -0.2898  1.1774  0.2047
  694MOL0     H93640   4.398   1.179   6.717 -1.4715  1.6412 -0.7480
  694MOL0     H93641   4.421   1.424   7.014  0.4544  1.2125  1.1278
  694MOL0     H93642   4.765   1.609   6.971 -0.7279 -1.7233 -2.7253
  694MOL0     H93643   4.599   1.657   7.038  1.2599  1.3748  0.9882
  694MOL0     H93644   4.673   1.566   7.228  0.6419 -1.0716  0.9525
  694MOL0     H93645   4.639   1.406   7.153 -0.4163  0.6887 -0.9588
  694MOL0     H93646   4.879   1.396   7.085 -1.1457  1.2762 -1.9932
  694MOL0     H93647   4.851   1.398   7.254 -1.2112 -0.2136 -1.2542
  694MOL0     H93648   4.933   1.654   7.107  1.8699 -2.1549 -2.2337
  694MOL0     H93649   5.041   1.551   7.185 -2.2706 -4.2437 -2.4627
  694MOL0     H93650   5.133   1.791   7.230 -0.2901  1.8779 -0.0575
  694MOL0     H93651   5.216   1.979   7.341  0.9138  2.5340  3.5479
  694MOL0     H93652   5.448   2.127   7.629 -1.7984 -0.2606  0.6203
  694MOL0     H93653   5.583   2.277   7.770 -0.0905  0.0762  0.2427
  694MOL0     H93654   5.545   2.661   7.684 -1.3268  0.1120 -0.4166
  694MOL0     H93655   5.507   2.734   7.840  0.7242 -0.8182  0.1208
  694MOL0     H93656   5.744   2.759   7.786 -1.8044  0.0431 -1.3264
  694MOL0     H93657   5.744   2.657   7.921  3.2457 -0.7582 -0.3759
  694MOL0     H93658   5.765   2.454   7.781 -0.7355 -0.3064 -0.5581
  694MOL0     H93659   5.759   2.536   7.626 -2.0802 -1.4908  0.6527
  694MOL0     H93660   5.944   2.578   7.858 -2.2023 -0.8930  0.1411
  694MOL0     H93661   5.969   2.676   7.712 -2.8337  1.1791  0.2851
  694MOL0     H93662   6.012   2.373   7.751  2.9690  0.1917  1.0074
  694MOL0     H93663   6.130   2.488   7.706  1.7181 -3.8982 -1.5250
  694MOL0     H93664   5.895   2.401   7.517  0.2658  1.0013 -3.8332
  694MOL0     H93665   6.005   2.525   7.471  1.6316 -0.6982  0.3990
  694MOL0     H93666   6.087   2.256   7.590  1.1917  1.6379  0.5622
  694MOL0     H93667   6.207   2.364   7.529  0.8539 -2.9788 -1.8377
  694MOL0     H93668   6.158   2.199   7.352  0.7193  0.4749  2.3303
  694MOL0     H93669   5.986   2.221   7.369 -1.5961  0.5365 -0.2564
  694MOL0     H93670   5.270   2.581   7.694 -0.0250  0.3377  0.1021
  694MOL0     H93671   5.155   2.425   7.558  0.2883 -1.1050 -2.0311
  694MOL0     H93672   4.869   1.968   7.607  0.2517  3.3680 -2.2095
  694MOL0     H93673   4.798   1.757   7.496 -0.1053  1.3425  2.4338
  694MOL0     H93674   4.169   1.716   5.983  1.5609  0.6566  0.5441
  694MOL0     H93675   4.389   1.706   5.853  0.2490 -0.7557 -1.2242
  694MOL0     H93676   4.743   1.586   5.678  2.9364 -0.2268  0.4194
  694MOL0     H93677   4.868   1.577   5.489 -0.6192  0.2009 -0.4550
  694MOL0     H93678   5.105   1.466   5.501  1.3042  1.5127 -1.2959
  694MOL0     H93679   5.105   1.499   5.329  1.4411  0.7477  0.5740
  694MOL0     H93680   5.219   1.251   5.435 -0.9652  1.7221  1.2757
  694MOL0     H93681   5.305   1.401   5.390 -0.3238  1.7809 -0.7590
  694MOL0     H93682   5.186   1.392   5.166  1.2647 -1.2129 -2.1392
  694MOL0     H93683   5.126   1.235   5.194 -1.5079  1.5214 -0.3881
  694MOL0     H93684   5.309   1.197   5.079 -0.9319 -1.2632  1.0771
  694MOL0     H93685   5.423   1.293   5.194  3.2044 -5.4334 -1.2768
  694MOL0     H93686   5.340   0.922   5.386  0.5758 -1.4318 -1.8254
  694MOL0     H93687   4.857   1.133   5.485 -1.5181  0.3662 -1.2359
  694MOL0     H93688   4.583   1.117   5.762  2.2718 -2.3317  2.9462
  694MOL0     H93689   4.707   1.031   5.643  1.4060 -0.4161  0.1513
  694MOL0     H93690   4.751   1.092   5.798  2.3465  0.3763 -0.3379
  695MOL0     O93691   3.656   4.140  10.757 -0.7129 -0.5192  0.5354
  695MOL0     C93692   3.607   4.183  10.860 -1.2225 -0.1363 -0.1924
  695MOL0     O93693   3.604   4.315  10.884  0.1436 -0.3047  0.1874
  695MOL0     C93694   3.686   4.396  10.805 -0.0557 -0.5263 -0.3414
  695MOL0     C93695   3.644   4.437  10.677 -0.0294  0.4150  0.0377
  695MOL0     C93696   3.719   4.525  10.595 -0.4055 -1.0344 -0.3307
  695MOL0     C93697   3.839   4.583  10.645 -0.3556 -0.0045  0.5691
  695MOL0     O93698   3.898   4.671  10.561  0.4285 -0.3674  0.4083
  695MOL0     C93699   4.023   4.723  10.603  0.1581  0.2518  0.3318
  695MOL0     C93700   4.071   4.831  10.522  0.0231 -0.7164 -0.4254
  695MOL0     C93701   4.177   4.916  10.585 -0.0222 -0.1028  1.1514
  695MOL0     C93702   4.120   5.022  10.674  0.1458  0.6222  0.1424
  695MOL0     C93703   4.227   5.086  10.755  0.5607 -0.8083  0.4947
  695MOL0     C93704   4.155   5.171  10.869 -0.1740 -0.0217 -1.3091
  695MOL0     C93705   4.271   5.223  10.970  0.7567 -0.0733 -0.0413
  695MOL0     C93706   4.199   5.304  11.081  0.5569 -0.0334  0.3007
  695MOL0     N93707   4.289   5.402  11.137 -0.1808 -0.2472  0.3222
  695MOL0     C93708   4.370   5.380  11.244 -0.1982 -0.2377 -0.5331
  695MOL0     C93709   4.443   5.500  11.261  0.4345  0.3308 -0.5904
  695MOL0     C93710   4.562   5.529  11.361  0.9043  1.0837  0.1079
  695MOL0     C93711   4.541   5.660  11.422 -0.4488 -0.2816 -0.0393
  695MOL0     C93712   4.649   5.715  11.515  0.5411 -0.6158  0.4745
  695MOL0     C93713   4.764   5.760  11.438  0.1717 -0.2547 -0.4427
  695MOL0     O93714   4.862   5.654  11.440 -0.3630  0.7590  0.3038
  695MOL0     C93715   4.915   5.619  11.325  0.3499 -0.1714  0.1970
  695MOL0     C93716   4.942   5.714  11.224 -0.0780  0.4996 -0.1831
  695MOL0     C93717   4.975   5.672  11.097 -0.8164 -0.0658 -0.1800
  695MOL0     C93718   4.994   5.536  11.067 -0.1497 -0.1971 -0.5592
  695MOL0     C93719   5.033   5.497  10.927 -0.3001  0.2673  0.6723
  695MOL0     O93720   5.050   5.362  10.900  0.3544  0.1261  0.6383
  695MOL0     C93721   5.027   5.306  10.770  0.1745  0.4544  0.0435
  695MOL0     C93722   4.981   5.167  10.779 -0.7898  0.0137 -1.0303
  695MOL0     C93723   4.985   5.100  10.659 -0.6227 -0.2708  1.0376
  695MOL0     C93724   5.022   5.165  10.533  0.3637  0.6058  1.1691
  695MOL0     O93725   5.024   5.084  10.421  0.2918 -0.3109 -0.6547
  695MOL0     C93726   5.060   5.131  10.283 -0.2567 -0.2820 -0.2958
  695MOL0     C93727   5.015   5.040  10.164 -0.5126 -0.5346  0.2636
  695MOL0     C93728   4.865   5.045  10.127  0.0728 -0.3179 -0.2967
  695MOL0     C93729   4.822   4.961  10.001 -1.2792  0.0530  0.2656
  695MOL0     C93730   4.674   4.924  10.014 -0.2488 -0.0203  0.1078
  695MOL0     C93731   4.622   4.856   9.882  0.1788  0.1997  0.1503
  695MOL0     C93732   4.470   4.830   9.881  0.0935 -0.4602  0.0968
  695MOL0     C93733   4.439   4.704   9.799  0.6881  0.0404  1.0428
  695MOL0    Cl93734   4.271   4.708   9.739  0.2103 -0.3099  0.6252
  695MOL0     C93735   5.052   5.296  10.524 -0.2131  0.2819 -0.8298
  695MOL0     C93736   5.051   5.367  10.645 -0.3662 -0.4065 -0.1715
  695MOL0     O93737   5.033   5.588  10.845  0.5371  0.0452 -0.2903
  695MOL0     C93738   4.960   5.441  11.171  0.5469 -0.1070  1.2337
  695MOL0     C93739   4.935   5.487  11.292 -0.6399  0.4306 -0.3714
  695MOL0     N93740   4.405   5.588  11.165  0.0805 -0.5909 -0.8503
  695MOL0     N93741   4.308   5.532  11.093  1.3219  0.3951  0.0796
  695MOL0     C93742   3.886   4.540  10.769  1.0710 -0.1395 -0.0563
  695MOL0     C93743   3.806   4.454  10.851 -0.7160  0.1047 -0.5866
  695MOL0     C93744   3.566   4.090  10.966 -0.1608  0.3990 -0.0961
  695MOL0     C93745   3.485   4.139  11.070 -0.8018  0.5487  0.3902
  695MOL0     C93746   3.444   4.059  11.174 -0.0227  0.0638  0.1922
  695MOL0     C93747   3.477   3.928  11.192 -0.4657  0.3884 -1.3489
  695MOL0     O93748   3.423   3.859  11.297  0.4533  0.2697  0.5391
  695MOL0     C93749   3.495   3.749  11.359  0.0035  0.1218  0.1593
  695MOL0     C93750   3.608   3.818  11.428  0.9517 -0.5312 -0.7756
  695MOL0     C93751   3.556   3.905  11.545 -0.2648  0.4491 -0.8264
  695MOL0     C93752   3.686   3.920  11.628 -0.4567  0.1291 -0.0364
  695MOL0     C93753   3.650   3.995  11.747  0.3488 -0.7270  0.1681
  695MOL0     C93754   3.610   4.043  11.853 -0.7505  0.5219 -0.3140
  695MOL0     C93755   3.533   3.867  11.084 -0.4090 -0.9532 -0.4169
  695MOL0     C93756   3.580   3.943  10.969 -0.0362 -0.2942  0.4344
  695MOL0     C93757   3.656   3.864  10.860 -0.0410 -0.5395 -0.3424
  695MOL0     H93758   3.559   4.376  10.648  1.1504 -2.0008  1.3308
  695MOL0     H93759   3.692   4.550  10.493 -0.3335  2.4964  0.3918
  695MOL0     H93760   3.996   4.769  10.699 -5.6304  2.6546 -1.9555
  695MOL0     H93761   4.095   4.641  10.614  0.5208  0.5767  0.3719
  695MOL0     H93762   3.996   4.904  10.491  1.4897  1.3246  0.5990
  695MOL0     H93763   4.114   4.788  10.431 -0.1639 -2.1254  0.1239
  695MOL0     H93764   4.238   4.974  10.516 -0.4759  0.5197  1.2629
  695MOL0     H93765   4.251   4.854  10.636  1.5365 -0.2166 -1.1396
  695MOL0     H93766   4.060   5.085  10.608  1.8405  0.2946 -1.7994
  695MOL0     H93767   4.053   4.972  10.745  0.5037 -0.9344 -0.5695
  695MOL0     H93768   4.298   5.024  10.811  1.6969  0.9873  1.1671
  695MOL0     H93769   4.283   5.153  10.689  0.5531  0.5023  1.7709
  695MOL0     H93770   4.093   5.247  10.822  1.1018  0.5004 -2.2148
  695MOL0     H93771   4.088   5.111  10.931  1.7490 -0.1645  0.7605
  695MOL0     H93772   4.336   5.290  10.914 -0.8464  0.7110 -1.0560
  695MOL0     H93773   4.323   5.140  11.019  1.8831 -0.6382 -2.0991
  695MOL0     H93774   4.123   5.365  11.031  0.9740  0.0352 -0.2644
  695MOL0     H93775   4.145   5.244  11.155 -1.2521  1.3670  0.1868
  695MOL0     H93776   4.370   5.295  11.311  2.2838 -0.0478 -0.1808
  695MOL0     H93777   4.557   5.453  11.440  3.5328  2.1372  1.4269
  695MOL0     H93778   4.662   5.519  11.318  1.2590 -1.7583  1.3636
  695MOL0     H93779   4.510   5.734  11.348 -1.0340  1.1553  1.5616
  695MOL0     H93780   4.447   5.654  11.478 -1.1636 -1.3670 -1.3156
  695MOL0     H93781   4.660   5.644  11.598 -3.5073  0.7261  2.4358
  695MOL0     H93782   4.613   5.806  11.564  0.2815  1.0897 -2.6773
  695MOL0     H93783   4.806   5.846  11.491  0.5548  0.0628 -1.2444
  695MOL0     H93784   4.736   5.786  11.335  2.5204  1.8731 -0.6492
  695MOL0     H93785   4.938   5.819  11.252  0.6443  0.4251  0.2198
  695MOL0     H93786   5.001   5.748  11.024 -0.2822 -1.0790 -1.0719
  695MOL0     H93787   4.959   5.114  10.871  0.4641  3.0969  1.2119
  695MOL0     H93788   4.976   4.992  10.662  0.6237 -0.3983  0.7651
  695MOL0     H93789   5.007   5.225  10.267 -0.1031  0.2076  1.8584
  695MOL0     H93790   5.166   5.156  10.267 -0.3620 -0.2566 -0.9838
  695MOL0     H93791   5.069   5.072  10.074 -1.7543  1.3428  0.1353
  695MOL0     H93792   5.036   4.934  10.182  0.9771 -0.3425 -0.2202
  695MOL0     H93793   4.809   5.003  10.212 -0.5135  1.1024  0.0397
  695MOL0     H93794   4.832   5.149  10.123  0.5820 -0.1942 -2.6865
  695MOL0     H93795   4.891   4.877   9.988 -0.9961  0.2466  0.4813
  695MOL0     H93796   4.824   5.036   9.921 -1.4157  0.8944  1.0286
  695MOL0     H93797   4.621   5.016  10.041 -0.4065 -0.5346  1.6866
  695MOL0     H93798   4.662   4.859  10.102 -2.5015  0.7249  0.4067
  695MOL0     H93799   4.647   4.924   9.800 -1.1965  1.7061  0.9121
  695MOL0     H93800   4.673   4.759   9.879  0.0262  0.1435 -0.8257
  695MOL0     H93801   4.418   4.916   9.838 -0.2538 -0.6268  0.1788
  695MOL0     H93802   4.421   4.831   9.979 -0.7543  1.5059 -0.2932
  695MOL0     H93803   4.501   4.712   9.710 -0.9989  1.6049 -0.0550
  695MOL0     H93804   4.457   4.612   9.856 -3.9214 -0.8014  1.5779
  695MOL0     H93805   5.064   5.342  10.427 -0.7825  1.0617 -0.5481
  695MOL0     H93806   5.095   5.465  10.631  0.2196 -0.5907  0.3100
  695MOL0     H93807   4.965   5.335  11.146 -1.9054 -0.0400  0.1937
  695MOL0     H93808   4.918   5.412  11.369 -2.0291  0.9499 -0.1383
  695MOL0     H93809   3.985   4.564  10.806  0.6488 -0.6404  1.4498
  695MOL0     H93810   3.843   4.420  10.947 -0.4169  1.8689 -0.0395
  695MOL0     H93811   3.455   4.244  11.063  2.7751  1.6467 -0.6646
  695MOL0     H93812   3.378   4.095  11.252 -2.5384 -0.6930 -1.4549
  695MOL0     H93813   3.528   3.681  11.280 -0.1223  1.6386 -1.2565
  695MOL0     H93814   3.441   3.687  11.431 -0.3788 -1.2387 -1.2607
  695MOL0     H93815   3.663   3.880  11.357  0.4093  0.5755 -0.2496
  695MOL0     H93816   3.675   3.740  11.466 -2.1069 -2.7839  0.4793
  695MOL0     H93817   3.481   3.858  11.608  1.2890 -0.9352  0.0604
  695MOL0     H93818   3.516   4.002  11.513 -2.8449 -0.8177 -1.7908
  695MOL0     H93819   3.717   3.818  11.654 -2.2028 -0.6520 -0.8759
  695MOL0     H93820   3.765   3.965  11.567 -2.8701  3.2829 -1.1588
  695MOL0     H93821   3.587   4.086  11.948  3.4004  0.0752  1.0816
  695MOL0     H93822   3.549   3.760  11.095  2.1079 -0.6105 -0.1767
  695MOL0     H93823   3.746   3.911  10.819  0.6513 -2.0316 -0.5891
  695MOL0     H93824   3.669   3.760  10.890 -0.3593 -0.3776  0.3717
  695MOL0     H93825   3.585   3.859  10.776 -0.7904 -0.2044  0.2615
  696MOL0     O93826   4.738  10.247   8.689 -1.0086  0.6303 -0.3403
  696MOL0     C93827   4.669  10.181   8.600 -0.2833  0.0334 -0.3967
  696MOL0     O93828   4.640  10.044   8.608 -0.2550  0.7660 -0.2401
  696MOL0     C93829   4.694   9.976   8.720 -0.3852 -0.3573  0.0735
  696MOL0     C93830   4.631   9.972   8.846 -0.5143 -0.0898 -1.7051
  696MOL0     C93831   4.685   9.901   8.957 -0.7371  0.3648  0.1357
  696MOL0     C93832   4.794   9.812   8.937  0.5521  0.1908  0.3694
  696MOL0     O93833   4.847   9.745   9.049 -0.0343 -0.0356  0.0550
  696MOL0     C93834   4.964   9.669   9.034  0.3169  0.3112 -0.3033
  696MOL0     C93835   5.082   9.764   9.001  0.1709 -0.4198 -0.3759
  696MOL0     C93836   5.212   9.673   9.009  0.1150 -0.1350  0.7106
  696MOL0     C93837   5.214   9.559   8.904  1.3877 -0.2674  0.4248
  696MOL0     C93838   5.345   9.482   8.892  1.6625  0.1461 -0.9580
  696MOL0     C93839   5.320   9.365   8.800 -0.0367 -0.0595 -0.2553
  696MOL0     C93840   5.446   9.275   8.814 -0.1031  0.7613  0.1715
  696MOL0     C93841   5.570   9.327   8.741 -0.8869  0.4606  0.1751
  696MOL0     N93842   5.680   9.238   8.765  0.8471 -0.5470 -0.1023
  696MOL0     C93843   5.685   9.114   8.719  0.2499 -0.5945 -0.0180
  696MOL0     C93844   5.795   9.055   8.781 -0.0288  0.3079 -0.5634
  696MOL0     C93845   5.818   8.909   8.773 -0.5382  0.1246 -0.0500
  696MOL0     C93846   5.967   8.867   8.761 -0.9011  0.1173 -0.7060
  696MOL0     C93847   5.990   8.724   8.733 -0.5266  0.0102  0.1631
  696MOL0     C93848   6.137   8.697   8.714 -0.6707  0.0620  0.1556
  696MOL0     O93849   6.208   8.730   8.832  0.2268  0.1985 -0.0499
  696MOL0     C93850   6.344   8.740   8.807  0.2979 -1.2575  0.0208
  696MOL0     C93851   6.414   8.708   8.688 -0.7170 -0.2341 -0.2952
  696MOL0     C93852   6.551   8.726   8.681 -0.1369 -0.9168 -0.7265
  696MOL0     C93853   6.622   8.779   8.795  1.0574 -0.4757  0.1375
  696MOL0     C93854   6.768   8.787   8.806 -0.6744 -1.4876 -0.3711
  696MOL0     O93855   6.835   8.760   8.696 -0.4724  0.0490  0.1658
  696MOL0     C93856   6.975   8.764   8.703  0.2152  1.1930 -0.0912
  696MOL0     C93857   7.048   8.848   8.625  0.5542 -0.2997  0.6888
  696MOL0     C93858   7.180   8.815   8.589  0.2971  0.0870 -0.5612
  696MOL0     C93859   7.250   8.711   8.652  0.1067 -0.0585 -0.0079
  696MOL0     O93860   7.387   8.701   8.635 -0.0997  0.6043  0.6367
  696MOL0     C93861   7.419   8.711   8.494 -0.1554 -1.2992  0.5851
  696MOL0     C93862   7.534   8.626   8.437  0.1369 -0.4472 -0.9116
  696MOL0     C93863   7.660   8.612   8.517 -0.1662 -0.8289  0.5539
  696MOL0     C93864   7.773   8.568   8.420  0.3007 -0.9135  0.0797
  696MOL0     C93865   7.904   8.528   8.484  0.4962  0.3603 -0.5655
  696MOL0     C93866   7.956   8.637   8.574  0.8130  0.0733 -0.8050
  696MOL0     C93867   8.099   8.694   8.561 -0.1027 -1.0750 -0.3406
  696MOL0     C93868   8.154   8.802   8.663  0.0980 -0.5658  0.9028
  696MOL0    Cl93869   8.150   8.732   8.824  0.0627 -0.1321  0.1277
  696MOL0     C93870   7.182   8.631   8.744  0.9747 -0.4259 -0.1734
  696MOL0     C93871   7.048   8.653   8.762  0.5168 -0.6081 -0.4086
  696MOL0     O93872   6.823   8.818   8.917  0.2414 -0.4940  0.0379
  696MOL0     C93873   6.544   8.819   8.906 -0.0966  0.0639 -0.1441
  696MOL0     C93874   6.413   8.784   8.913  0.4817 -0.1536 -1.3471
  696MOL0     N93875   5.858   9.151   8.862 -0.5014  0.3781  0.4159
  696MOL0     N93876   5.779   9.252   8.857  0.1854 -0.2580  0.2669
  696MOL0     C93877   4.834   9.791   8.796  0.5624  0.4600 -0.3721
  696MOL0     C93878   4.788   9.881   8.701 -0.8458 -0.1100  0.7320
  696MOL0     C93879   4.602  10.257   8.485  0.0845  0.1430 -0.5065
  696MOL0     C93880   4.541  10.182   8.379  0.0293  1.1004  0.3601
  696MOL0     C93881   4.472  10.235   8.278 -0.0820 -0.2587 -0.4931
  696MOL0     C93882   4.463  10.378   8.269 -0.6720  0.3239 -0.3376
  696MOL0     O93883   4.402  10.412   8.155 -0.6279  0.1315 -0.1952
  696MOL0     C93884   4.427  10.551   8.125  0.4244 -0.9496 -0.1023
  696MOL0     C93885   4.363  10.569   7.985 -0.4467 -0.4056  1.0527
  696MOL0     C93886   4.445  10.481   7.885 -0.0626  0.2048 -0.6381
  696MOL0     C93887   4.411  10.511   7.738  0.3765 -0.6932  0.1203
  696MOL0     C93888   4.485  10.458   7.625  0.0078  0.4012 -0.0925
  696MOL0     C93889   4.537  10.419   7.522 -0.1928  0.0022  0.3554
  696MOL0     C93890   4.509  10.455   8.373 -0.7707 -0.4936 -0.0118
  696MOL0     C93891   4.574  10.395   8.485  0.7355  0.6129  0.1315
  696MOL0     C93892   4.614  10.484   8.596 -0.3235 -0.4145  1.7221
  696MOL0     H93893   4.540  10.027   8.869  0.9211  1.0682  2.0043
  696MOL0     H93894   4.638   9.902   9.055 -4.1692 -0.9162 -1.3246
  696MOL0     H93895   4.986   9.620   9.129 -0.8655 -1.2478 -0.7855
  696MOL0     H93896   4.946   9.592   8.958  0.7267  0.4344 -0.5301
  696MOL0     H93897   5.097   9.836   9.082  2.9136 -1.5161  0.2208
  696MOL0     H93898   5.079   9.820   8.907  1.7701  3.1344  1.5029
  696MOL0     H93899   5.241   9.648   9.112  1.7201 -2.6984 -0.2679
  696MOL0     H93900   5.301   9.730   8.980 -0.6449  1.9875  2.2500
  696MOL0     H93901   5.133   9.488   8.923  0.5300  0.8038  0.8932
  696MOL0     H93902   5.181   9.589   8.805 -2.9143 -1.9168  1.1537
  696MOL0     H93903   5.425   9.548   8.859  0.8706  0.8883 -1.4519
  696MOL0     H93904   5.371   9.452   8.994  0.5287  1.1800 -0.3258
  696MOL0     H93905   5.232   9.307   8.828  0.5227 -1.2100 -0.8409
  696MOL0     H93906   5.307   9.391   8.695  1.8085 -2.9779 -1.3238
  696MOL0     H93907   5.423   9.171   8.787  0.1888  1.1464 -1.6949
  696MOL0     H93908   5.469   9.273   8.921 -1.1540 -0.4484  0.4126
  696MOL0     H93909   5.540   9.342   8.637 -2.2518 -0.0363  0.4723
  696MOL0     H93910   5.608   9.424   8.777  0.9981  1.2367 -3.4081
  696MOL0     H93911   5.612   9.067   8.654  1.0753  0.5465 -1.8520
  696MOL0     H93912   5.770   8.868   8.862  1.1862  0.4095  1.0524
  696MOL0     H93913   5.763   8.884   8.682  0.3442 -1.5412 -0.1572
  696MOL0     H93914   6.024   8.931   8.693 -2.5994  0.1387 -2.1870
  696MOL0     H93915   6.008   8.879   8.861  2.2046  0.0310 -1.8410
  696MOL0     H93916   5.936   8.689   8.645  1.4381 -2.8662 -0.0252
  696MOL0     H93917   5.961   8.657   8.815  2.7643 -1.1025  0.5689
  696MOL0     H93918   6.165   8.756   8.627 -0.4193  1.3197  1.0532
  696MOL0     H93919   6.143   8.591   8.687 -2.5419  0.1735 -0.8607
  696MOL0     H93920   6.375   8.654   8.602  2.7741 -2.7834 -0.4960
  696MOL0     H93921   6.621   8.718   8.598  2.2272 -2.8702  1.2591
  696MOL0     H93922   7.004   8.939   8.586 -0.8445 -1.5196 -0.7364
  696MOL0     H93923   7.224   8.875   8.510  5.0316 -1.8858  0.1949
  696MOL0     H93924   7.333   8.682   8.433  0.5035 -2.5077  0.1758
  696MOL0     H93925   7.433   8.814   8.462 -2.6148 -1.1782 -0.2443
  696MOL0     H93926   7.507   8.520   8.435 -2.7561  0.2005 -0.4517
  696MOL0     H93927   7.552   8.667   8.337 -1.5241  0.4772 -0.8791
  696MOL0     H93928   7.678   8.709   8.564 -1.4409 -1.1367  1.7401
  696MOL0     H93929   7.633   8.539   8.593  0.8315 -1.8573 -0.0559
  696MOL0     H93930   7.809   8.639   8.344  0.0893 -0.6448  0.2303
  696MOL0     H93931   7.726   8.490   8.358 -0.9018 -0.2574  0.1366
  696MOL0     H93932   7.978   8.487   8.414 -0.0795 -0.5345 -0.6719
  696MOL0     H93933   7.864   8.443   8.542  0.4745  0.1619 -0.8659
  696MOL0     H93934   7.892   8.726   8.568 -2.1972 -1.9399 -0.6759
  696MOL0     H93935   7.937   8.606   8.677  0.7604 -0.6592 -1.0310
  696MOL0     H93936   8.098   8.747   8.465 -3.3213  1.3728  0.8293
  696MOL0     H93937   8.175   8.617   8.571 -0.9291 -2.2833 -2.6785
  696MOL0     H93938   8.256   8.831   8.638 -0.6547 -0.9066 -3.2254
  696MOL0     H93939   8.099   8.897   8.663 -0.8012 -1.0477 -0.6470
  696MOL0     H93940   7.248   8.566   8.801  0.4060 -1.5965 -0.8042
  696MOL0     H93941   6.987   8.592   8.828 -4.3443  0.9639 -2.9590
  696MOL0     H93942   6.597   8.846   8.997 -0.4786 -2.4462  0.8940
  696MOL0     H93943   6.365   8.795   9.010 -0.9797  0.6796 -2.1294
  696MOL0     H93944   4.898   9.708   8.766  0.5333 -0.2203  1.3607
  696MOL0     H93945   4.825   9.866   8.600  2.1118  1.5002  1.4722
  696MOL0     H93946   4.547  10.073   8.378  1.0800  1.1440 -1.6424
  696MOL0     H93947   4.417  10.174   8.206 -0.1467 -1.9715  0.9422
  696MOL0     H93948   4.533  10.577   8.127  0.1468  0.2510  1.8628
  696MOL0     H93949   4.382  10.619   8.198  2.2839 -0.8160  0.9833
  696MOL0     H93950   4.361  10.674   7.952 -1.1838 -0.4396  0.9639
  696MOL0     H93951   4.261  10.530   7.985 -0.3030 -0.8103  2.4920
  696MOL0     H93952   4.429  10.375   7.906  1.1823 -0.5051 -3.0513
  696MOL0     H93953   4.553  10.488   7.903 -0.2664 -1.2391  1.4998
  696MOL0     H93954   4.304  10.487   7.734  0.3263 -0.8228  1.5488
  696MOL0     H93955   4.416  10.620   7.732 -1.0531 -0.6390 -0.6056
  696MOL0     H93956   4.602  10.389   7.442 -1.4746 -0.4672 -0.5341
  696MOL0     H93957   4.500  10.563   8.382 -0.2695 -0.1963 -2.4396
  696MOL0     H93958   4.558  10.576   8.578  1.0633 -0.1607 -2.1613
  696MOL0     H93959   4.606  10.435   8.694  0.3869 -1.6812  1.1763
  696MOL0     H93960   4.720  10.505   8.576 -0.7160 -1.1884 -1.8217
  697MOL0     O93961   1.027  10.560  11.283 -0.2042  0.0743 -0.1456
  697MOL0     C93962   1.046  10.464  11.366 -0.1843 -1.0738 -0.4696
  697MOL0     O93963   1.068  10.486  11.496  0.5170 -0.6789 -0.3215
  697MOL0     C93964   1.111  10.610  11.527  0.2054  0.7857  0.2015
  697MOL0     C93965   1.246  10.636  11.558 -0.1461  1.0732  0.3176
  697MOL0     C93966   1.289  10.760  11.581 -0.1718  0.1840 -0.2029
  697MOL0     C93967   1.201  10.862  11.610 -0.4728 -0.3846 -0.0770
  697MOL0     O93968   1.237  11.000  11.628  0.8669  0.2476 -0.3137
  697MOL0     C93969   1.373  11.042  11.627  0.6570  0.1182 -0.0948
  697MOL0     C93970   1.373  11.192  11.602  1.4027  0.6715 -1.0497
  697MOL0     C93971   1.520  11.234  11.609  0.8637  0.4462 -0.4995
  697MOL0     C93972   1.571  11.245  11.754  0.9727  0.2079 -0.3575
  697MOL0     C93973   1.717  11.288  11.775 -0.0092  0.9209 -0.5389
  697MOL0     C93974   1.766  11.423  11.713  0.2341  0.6250 -0.8729
  697MOL0     C93975   1.911  11.461  11.747 -0.4062  0.1658 -0.7648
  697MOL0     C93976   1.924  11.522  11.887 -0.9793 -0.3221  0.0340
  697MOL0     N93977   2.059  11.560  11.919 -0.5553  0.3012 -0.1011
  697MOL0     C93978   2.112  11.675  11.874  0.4147 -0.0940 -0.0050
  697MOL0     C93979   2.243  11.673  11.905 -0.1352 -0.2547 -0.5767
  697MOL0     C93980   2.350  11.785  11.898 -0.0603 -0.8942 -0.5482
  697MOL0     C93981   2.336  11.913  11.996  0.1344  0.1936 -0.2288
  697MOL0     C93982   2.203  11.986  11.978  0.0036 -0.5064  0.2102
  697MOL0     C93983   2.215  12.121  12.061  0.5007  0.6212 -0.1236
  697MOL0     O93984   2.096  12.188  12.029 -0.0604 -0.7962  0.0130
  697MOL0     C93985   2.078  12.319  12.070 -0.7078  0.1539 -0.7374
  697MOL0     C93986   2.178  12.398  12.131  1.0147 -0.2514  0.1484
  697MOL0     C93987   2.148  12.528  12.169 -0.6549  0.2967  0.8098
  697MOL0     C93988   2.025  12.584  12.150  0.2376  0.7682 -0.6768
  697MOL0     C93989   1.991  12.713  12.204 -0.3154 -1.3210  0.6932
  697MOL0     O93990   1.864  12.734  12.213 -0.1785  0.2608  0.4415
  697MOL0     C93991   1.821  12.856  12.256 -0.2713 -0.2207  1.2243
  697MOL0     C93992   1.729  12.844  12.357 -0.4584 -0.4524  0.7454
  697MOL0     C93993   1.663  12.964  12.402  0.0871  0.0956 -0.1427
  697MOL0     C93994   1.695  13.084  12.347  0.9627 -0.2004  0.2245
  697MOL0     O93995   1.646  13.211  12.382  0.4222 -0.3494  0.6455
  697MOL0     C93996   1.599  13.243  12.521  1.0774 -0.0406 -0.4209
  697MOL0     C93997   1.582  13.397  12.537 -0.5434 -0.7734  0.3044
  697MOL0     C93998   1.463  13.422  12.450  0.2949 -0.4024 -0.2751
  697MOL0     C93999   1.418  13.563  12.468  1.0840  0.5664  0.3616
  697MOL0     C94000   1.322  13.612  12.356  0.1873 -0.5270  0.5821
  697MOL0     C94001   1.172  13.614  12.395 -0.2496 -0.8256 -0.2173
  697MOL0     C94002   1.112  13.469  12.419 -0.5906 -0.2179 -0.2068
  697MOL0     C94003   0.990  13.433  12.348 -0.0746 -0.7298  0.9356
  697MOL0    Cl94004   0.859  13.533  12.422 -0.0423 -0.9259 -0.5640
  697MOL0     C94005   1.783  13.090  12.241  0.0309 -1.3006 -0.5563
  697MOL0     C94006   1.852  12.981  12.196  0.0414  0.8832 -0.0369
  697MOL0     O94007   2.080  12.801  12.233  1.4248  0.6501  0.8689
  697MOL0     C94008   1.924  12.499  12.103  0.3167  0.4100 -0.0539
  697MOL0     C94009   1.954  12.368  12.053 -0.0172 -0.9880 -0.4792
  697MOL0     N94010   2.268  11.547  11.961  0.7423 -0.3068 -0.4421
  697MOL0     N94011   2.154  11.479  11.967 -0.4776  0.2477 -0.8293
  697MOL0     C94012   1.061  10.841  11.591  0.4383 -0.5268  0.6690
  697MOL0     C94013   1.016  10.712  11.550 -0.3954  0.5035  0.1861
  697MOL0     C94014   1.020  10.325  11.337 -0.2137 -0.3402  0.1301
  697MOL0     C94015   0.997  10.235  11.448 -0.8182  0.1595  0.2833
  697MOL0     C94016   0.957  10.104  11.422 -0.3980  0.9683  0.0577
  697MOL0     C94017   0.955  10.049  11.291 -0.1986  0.1866  0.9289
  697MOL0     O94018   0.918   9.916  11.273 -0.0002 -0.2917 -0.2595
  697MOL0     C94019   0.875   9.872  11.150  0.1370 -0.2029  0.6412
  697MOL0     C94020   0.823   9.738  11.149  0.0980  0.8813  0.0152
  697MOL0     C94021   0.928   9.651  11.203 -0.4671  1.1559  0.2188
  697MOL0     C94022   0.891   9.503  11.180  0.8995  0.2358 -0.1782
  697MOL0     C94023   0.984   9.413  11.247  0.6559 -0.0334  0.1426
  697MOL0     C94024   1.044   9.333  11.317 -0.9218 -0.7974 -0.2935
  697MOL0     C94025   0.989  10.138  11.184  0.8256 -0.5790 -1.0593
  697MOL0     C94026   1.015  10.274  11.209 -0.1541  0.6502  1.5268
  697MOL0     C94027   1.045  10.343  11.081  0.6984 -0.8213 -0.3393
  697MOL0     H94028   1.316  10.559  11.530 -0.3111  1.5875 -1.6327
  697MOL0     H94029   1.395  10.777  11.566 -0.1329 -1.0660 -1.5052
  697MOL0     H94030   1.415  11.015  11.724 -2.7792 -2.3739  0.9003
  697MOL0     H94031   1.436  10.998  11.549  0.2634 -1.7449  0.5735
  697MOL0     H94032   1.318  11.245  11.681  1.5895 -0.2020 -0.3219
  697MOL0     H94033   1.318  11.209  11.509  1.5147  2.1815 -0.8627
  697MOL0     H94034   1.537  11.322  11.546 -2.7340 -0.2622 -2.8029
  697MOL0     H94035   1.575  11.151  11.565 -2.6815 -1.7978 -1.0746
  697MOL0     H94036   1.506  11.312  11.811  0.0561 -0.4139 -0.6340
  697MOL0     H94037   1.561  11.149  11.806 -0.0673 -0.0038 -0.9074
  697MOL0     H94038   1.739  11.283  11.882 -1.1962  1.1883 -0.2695
  697MOL0     H94039   1.785  11.209  11.739 -0.3166  1.0930 -1.5287
  697MOL0     H94040   1.748  11.410  11.606 -2.4679 -1.2142 -0.2818
  697MOL0     H94041   1.689  11.496  11.740 -0.4968  0.2569 -1.9169
  697MOL0     H94042   1.958  11.534  11.680  2.3746 -0.8575 -0.0927
  697MOL0     H94043   1.974  11.371  11.744  1.0116  1.1482 -1.9119
  697MOL0     H94044   1.852  11.604  11.889 -3.4721 -2.3695 -0.1481
  697MOL0     H94045   1.902  11.454  11.970 -0.2230 -0.2132  0.3319
  697MOL0     H94046   2.056  11.760  11.836  2.8450  0.4061 -2.7660
  697MOL0     H94047   2.451  11.742  11.903  1.4441  2.4635  1.3725
  697MOL0     H94048   2.337  11.822  11.795 -0.0628 -1.5650 -0.7969
  697MOL0     H94049   2.364  11.897  12.101  0.9363 -0.4865 -0.5449
  697MOL0     H94050   2.411  11.983  11.957 -0.3866  0.7958 -0.1674
  697MOL0     H94051   2.120  11.923  12.011  0.9525 -1.3011  1.1237
  697MOL0     H94052   2.190  12.009  11.872 -1.1431  0.1592  0.4648
  697MOL0     H94053   2.304  12.173  12.025  0.4017  0.8963  0.0251
  697MOL0     H94054   2.216  12.109  12.169 -2.3179 -0.2076 -0.0979
  697MOL0     H94055   2.274  12.350  12.146  1.5323 -0.9162 -4.0645
  697MOL0     H94056   2.225  12.597  12.204 -0.7049  3.2046 -3.9672
  697MOL0     H94057   1.699  12.750  12.401  0.3276 -0.6673  0.8386
  697MOL0     H94058   1.588  12.958  12.481 -0.2932  1.4991 -0.3711
  697MOL0     H94059   1.510  13.183  12.537 -0.2979  1.5343 -1.7220
  697MOL0     H94060   1.672  13.202  12.592 -0.1750 -1.3084  0.1741
  697MOL0     H94061   1.565  13.413  12.644 -2.1962  2.2480 -0.3012
  697MOL0     H94062   1.666  13.457  12.502 -0.0381 -1.7337 -0.1692
  697MOL0     H94063   1.496  13.400  12.348 -0.0042 -0.5519 -0.3431
  697MOL0     H94064   1.380  13.355  12.476  1.8975 -2.2044  0.4010
  697MOL0     H94065   1.508  13.622  12.489  0.5842  1.2717  0.5516
  697MOL0     H94066   1.354  13.576  12.555 -0.2431  1.5102 -0.7039
  697MOL0     H94067   1.346  13.551  12.268  1.3694 -0.7850  1.0636
  697MOL0     H94068   1.356  13.715  12.337 -0.5271 -0.6153 -1.4324
  697MOL0     H94069   1.166  13.667  12.491  3.7065 -2.8365  1.3595
  697MOL0     H94070   1.108  13.674  12.329 -0.7420 -0.2717  0.7429
  697MOL0     H94071   1.096  13.449  12.525 -1.5711 -2.2439 -0.6794
  697MOL0     H94072   1.186  13.399  12.377  1.4068  1.2918  0.6157
  697MOL0     H94073   0.999  13.455  12.241 -1.0437 -1.2739  0.7272
  697MOL0     H94074   0.987  13.324  12.358  0.5966 -1.1514 -2.2920
  697MOL0     H94075   1.801  13.183  12.187 -0.1415 -1.1076 -0.2818
  697MOL0     H94076   1.928  12.993  12.119 -1.3151  2.6934 -1.1624
  697MOL0     H94077   1.819  12.527  12.101 -0.5360 -2.4424 -2.4521
  697MOL0     H94078   1.889  12.305  11.993 -1.4038  0.9908 -1.1706
  697MOL0     H94079   0.984  10.916  11.608 -0.2103 -1.6154  2.9777
  697MOL0     H94080   0.913  10.681  11.537 -0.0732 -1.8279  2.2804
  697MOL0     H94081   1.007  10.267  11.551 -0.6230  0.6110  0.1252
  697MOL0     H94082   0.926  10.030  11.496  0.1232 -0.0267 -0.6959
  697MOL0     H94083   0.960   9.869  11.081 -0.8043 -2.0271 -0.5070
  697MOL0     H94084   0.800   9.941  11.110 -0.0455 -1.7141 -1.8578
  697MOL0     H94085   0.785   9.699  11.054 -1.6843 -2.5489  1.8999
  697MOL0     H94086   0.735   9.724  11.213 -0.1865 -0.6342 -0.6632
  697MOL0     H94087   0.928   9.665  11.312 -2.9166  4.2478 -0.0387
  697MOL0     H94088   1.026   9.658  11.156  1.5103 -1.8254  3.4134
  697MOL0     H94089   0.786   9.495  11.212  1.4766 -2.7302  1.3115
  697MOL0     H94090   0.884   9.482  11.073  0.8594  1.1951 -0.3701
  697MOL0     H94091   1.103   9.269  11.378 -0.2530  0.0383 -0.0461
  697MOL0     H94092   0.969  10.094  11.086 -1.9018  0.1514 -0.9267
  697MOL0     H94093   1.138  10.396  11.104  0.9789 -2.5597  3.0796
  697MOL0     H94094   1.060  10.262  11.009  2.5522 -1.6061  0.8478
  697MOL0     H94095   0.963  10.410  11.053  0.9212 -0.5236 -0.2880
  698MOL0     O94096   0.808   2.145   4.149  0.1842  0.0742 -0.0826
  698MOL0     C94097   0.741   2.178   4.044 -0.4355  1.0690 -0.6308
  698MOL0     O94098   0.755   2.122   3.915  0.2039 -0.0799  0.1909
  698MOL0     C94099   0.863   2.045   3.879 -0.4591 -1.2631  0.6033
  698MOL0     C94100   0.993   2.091   3.905  0.9403 -0.0698  0.2735
  698MOL0     C94101   1.102   2.025   3.839 -0.8330  0.1376 -0.4018
  698MOL0     C94102   1.080   1.924   3.752 -0.1455  0.2208  0.2984
  698MOL0     O94103   1.190   1.870   3.700  0.1132  0.0343 -0.8484
  698MOL0     C94104   1.169   1.750   3.620 -0.3157  0.3896  0.3347
  698MOL0     C94105   1.303   1.713   3.555  0.0334 -0.1936  0.5162
  698MOL0     C94106   1.301   1.561   3.515  0.5877 -0.5695  0.4015
  698MOL0     C94107   1.431   1.524   3.434  0.9677  0.7012  0.2544
  698MOL0     C94108   1.542   1.476   3.518 -0.0848  0.1262 -0.0870
  698MOL0     C94109   1.523   1.332   3.581  1.0553  0.2322 -0.6662
  698MOL0     C94110   1.562   1.218   3.475  0.3341 -0.2483 -0.0675
  698MOL0     C94111   1.572   1.088   3.549  0.1790  0.4201  0.8384
  698MOL0     N94112   1.444   1.054   3.611 -0.0270 -0.9436  0.4430
  698MOL0     C94113   1.422   1.002   3.736  0.4242  0.9924 -0.2423
  698MOL0     C94114   1.286   0.982   3.748 -0.6501 -0.6514  0.0376
  698MOL0     C94115   1.217   0.913   3.850 -0.2801 -1.5001 -0.7227
  698MOL0     C94116   1.228   0.753   3.857 -0.1543 -0.5884  0.9369
  698MOL0     C94117   1.233   0.696   3.714 -0.0351 -0.0904  0.4334
  698MOL0     C94118   1.257   0.546   3.741  1.2169 -0.8773  0.6551
  698MOL0     O94119   1.242   0.464   3.620  0.2382  0.5056 -0.2115
  698MOL0     C94120   1.112   0.447   3.573 -1.1922 -0.0978 -1.1776
  698MOL0     C94121   0.985   0.469   3.644 -0.7649 -0.0096  0.0202
  698MOL0     C94122   0.870   0.450   3.579  0.5321  0.6014  0.6377
  698MOL0     C94123   0.870   0.413   3.441 -0.1245  0.1026 -0.5872
  698MOL0     C94124   0.740   0.382   3.381  0.3063  0.2590 -0.1684
  698MOL0     O94125   0.636   0.442   3.433  0.6267 -0.2772  0.0719
  698MOL0     C94126   0.504   0.435   3.378 -0.3843 -0.0602 -0.0160
  698MOL0     C94127   0.477   0.417   3.239 -1.3043 -0.4231  0.4990
  698MOL0     C94128   0.342   0.404   3.196 -0.4221 -0.0739  0.3943
  698MOL0     C94129   0.239   0.389   3.290 -0.0471  0.0422  0.4449
  698MOL0     O94130   0.103   0.392   3.260 -0.0223 -0.7792  0.5729
  698MOL0     C94131   0.063   0.526   3.223 -0.4829  0.4660  0.4703
  698MOL0     C94132  -0.079   0.543   3.203 -0.0261  0.3291  0.6072
  698MOL0     C94133  -0.118   0.681   3.147  0.8283  1.6719 -0.3679
  698MOL0     C94134  -0.132   0.773   3.274 -0.1353  0.3538  0.0228
  698MOL0     C94135  -0.151   0.912   3.219  0.2850 -0.2551  0.0450
  698MOL0     C94136  -0.117   1.019   3.319  0.4856 -0.1342 -0.3190
  698MOL0     C94137  -0.113   1.160   3.242 -0.2119  0.6960 -0.7194
  698MOL0     C94138  -0.110   1.281   3.333  0.9139 -0.4904 -0.1377
  698MOL0    Cl94139  -0.271   1.357   3.353  0.0950 -0.5755 -0.1327
  698MOL0     C94140   0.265   0.398   3.429  0.7952 -0.5168 -0.5068
  698MOL0     C94141   0.393   0.428   3.469 -0.8994 -0.1513 -0.7875
  698MOL0     O94142   0.745   0.323   3.277  0.8243 -0.2551 -0.2278
  698MOL0     C94143   0.989   0.389   3.372  0.0635 -0.4649  0.2156
  698MOL0     C94144   1.112   0.403   3.445  0.4510 -0.4791  0.0679
  698MOL0     N94145   1.226   1.012   3.625  0.2516 -0.4259 -0.6563
  698MOL0     N94146   1.318   1.056   3.553 -0.0427  0.2423  0.3670
  698MOL0     C94147   0.950   1.873   3.729 -0.1426  0.2928  1.5174
  698MOL0     C94148   0.841   1.944   3.791  0.1893  0.6950  1.3714
  698MOL0     C94149   0.627   2.268   4.075  0.3872  0.5811 -0.2945
  698MOL0     C94150   0.580   2.261   4.209 -0.2148 -0.2779 -0.0219
  698MOL0     C94151   0.468   2.337   4.246  0.0306  0.0010 -1.0097
  698MOL0     C94152   0.400   2.414   4.151 -0.1974  0.6038 -1.1202
  698MOL0     O94153   0.289   2.477   4.199 -0.0496  0.1784  0.2638
  698MOL0     C94154   0.255   2.605   4.137  0.3533  0.0778 -0.1269
  698MOL0     C94155   0.377   2.705   4.137  0.2144 -1.2287  0.2513
  698MOL0     C94156   0.345   2.841   4.064 -0.1034 -0.6148  0.5021
  698MOL0     C94157   0.459   2.921   4.043 -0.0392  0.7287 -0.3583
  698MOL0     C94158   0.433   3.034   3.956  1.0877 -0.4807  0.4976
  698MOL0     C94159   0.409   3.133   3.887 -0.6570 -0.4687  0.6508
  698MOL0     C94160   0.457   2.427   4.024  0.2153 -0.2252  0.6271
  698MOL0     C94161   0.565   2.355   3.983  0.2126 -0.1253 -0.0363
  698MOL0     C94162   0.615   2.376   3.843 -0.4012  0.0950  1.1966
  698MOL0     H94163   1.009   2.185   3.956 -0.1080  1.3371 -1.8598
  698MOL0     H94164   1.203   2.065   3.835 -0.7374 -0.1796 -1.3136
  698MOL0     H94165   1.155   1.665   3.686  0.9319  0.5958  0.9037
  698MOL0     H94166   1.089   1.761   3.546 -0.8810 -0.5074  0.8109
  698MOL0     H94167   1.387   1.724   3.624  1.0207 -2.3754 -0.2557
  698MOL0     H94168   1.324   1.775   3.468  1.0421 -0.0859  0.8284
  698MOL0     H94169   1.217   1.547   3.446 -1.3261  2.7897  1.7741
  698MOL0     H94170   1.297   1.481   3.589  0.1388 -4.0522 -3.0808
  698MOL0     H94171   1.419   1.441   3.364  1.9280 -2.0049  3.0928
  698MOL0     H94172   1.455   1.615   3.379 -2.5095  2.8432  1.9386
  698MOL0     H94173   1.636   1.470   3.461  0.3940  1.1588  0.5597
  698MOL0     H94174   1.558   1.548   3.599 -1.2608 -0.9664  1.1579
  698MOL0     H94175   1.590   1.314   3.665  0.4861 -5.3189 -1.0646
  698MOL0     H94176   1.420   1.315   3.614  1.4384 -2.0955 -0.5124
  698MOL0     H94177   1.657   1.240   3.426 -1.0791  2.8777 -1.7265
  698MOL0     H94178   1.497   1.221   3.387 -1.7430  0.4146  1.4028
  698MOL0     H94179   1.594   1.017   3.469  1.4213  1.6291  0.0445
  698MOL0     H94180   1.655   1.077   3.619  0.7859 -1.6014 -0.1307
  698MOL0     H94181   1.493   0.980   3.815  0.2617 -1.1462 -0.6403
  698MOL0     H94182   1.251   0.949   3.948 -2.4640 -0.3777 -0.3204
  698MOL0     H94183   1.111   0.937   3.847 -0.7672 -1.7305  4.6602
  698MOL0     H94184   1.301   0.719   3.931  2.0619 -1.0101 -1.2955
  698MOL0     H94185   1.130   0.723   3.894 -0.6874  0.1742  0.1675
  698MOL0     H94186   1.317   0.742   3.661  0.9390 -1.9352  0.3115
  698MOL0     H94187   1.143   0.718   3.657 -0.2937  1.0039  1.2108
  698MOL0     H94188   1.190   0.517   3.822 -1.3189 -0.7147 -1.2820
  698MOL0     H94189   1.357   0.528   3.783  0.8886 -2.9265  0.6505
  698MOL0     H94190   0.981   0.503   3.747  3.4707  0.7034  0.1388
  698MOL0     H94191   0.775   0.453   3.630 -1.2027  1.5228 -2.3827
  698MOL0     H94192   0.562   0.400   3.173 -1.5600  1.5584 -0.4102
  698MOL0     H94193   0.319   0.393   3.091  0.0113 -0.9923  0.3838
  698MOL0     H94194   0.090   0.584   3.312 -2.6751 -1.0036  2.2273
  698MOL0     H94195   0.122   0.563   3.139  3.1270 -2.8912  1.2205
  698MOL0     H94196  -0.096   0.480   3.115 -0.2460  2.7645 -1.1863
  698MOL0     H94197  -0.134   0.505   3.289 -2.5338  1.6205 -0.3447
  698MOL0     H94198  -0.042   0.728   3.084 -0.5272  1.6685 -2.0768
  698MOL0     H94199  -0.217   0.664   3.103  1.0210 -1.4106  0.1479
  698MOL0     H94200  -0.037   0.764   3.328  0.4734  1.8805 -0.7370
  698MOL0     H94201  -0.215   0.733   3.333  0.4968 -0.7591  0.1829
  698MOL0     H94202  -0.255   0.925   3.189 -0.0986 -0.3926  1.2961
  698MOL0     H94203  -0.088   0.929   3.131  1.0979  1.8701  0.9694
  698MOL0     H94204  -0.197   1.035   3.392 -0.9711  0.4389 -1.9635
  698MOL0     H94205  -0.027   0.995   3.375  0.7826 -1.3682 -1.2687
  698MOL0     H94206  -0.208   1.163   3.189 -0.2979 -0.4397 -0.6600
  698MOL0     H94207  -0.026   1.164   3.176 -0.7838 -2.0043 -1.7413
  698MOL0     H94208  -0.070   1.241   3.426  0.9897 -0.4661 -0.1604
  698MOL0     H94209  -0.034   1.345   3.288 -0.5930  0.5347 -1.3071
  698MOL0     H94210   0.187   0.410   3.504  0.0533 -2.9817 -0.7942
  698MOL0     H94211   0.409   0.454   3.574  1.5968  0.9112 -1.3445
  698MOL0     H94212   0.981   0.351   3.271  3.1808 -1.3260  0.1862
  698MOL0     H94213   1.207   0.380   3.397  0.5243  0.8063 -0.4422
  698MOL0     H94214   0.917   1.785   3.674 -1.2549 -1.4548  4.6412
  698MOL0     H94215   0.737   1.920   3.771 -0.0720  2.2442  0.7523
  698MOL0     H94216   0.636   2.206   4.284  2.2686  1.1130 -0.7390
  698MOL0     H94217   0.430   2.324   4.347  1.1296  0.1219 -0.5671
  698MOL0     H94218   0.163   2.650   4.176 -1.5633 -2.9989 -0.7368
  698MOL0     H94219   0.229   2.577   4.034  0.8756 -2.4962  0.3620
  698MOL0     H94220   0.472   2.661   4.105 -0.4043 -3.6241  1.4376
  698MOL0     H94221   0.395   2.728   4.243  1.4150 -1.8016  0.1909
  698MOL0     H94222   0.268   2.896   4.119 -0.7069  0.5801 -1.4323
  698MOL0     H94223   0.298   2.808   3.971 -0.6888 -0.2555  0.6626
  698MOL0     H94224   0.504   2.960   4.134  0.6859  3.5054 -1.8055
  698MOL0     H94225   0.535   2.855   4.000 -0.9378  0.2072 -1.2151
  698MOL0     H94226   0.392   3.217   3.823  0.5928 -0.9764 -0.4128
  698MOL0     H94227   0.402   2.480   3.947 -0.7464 -2.1990 -0.1289
  698MOL0     H94228   0.605   2.277   3.797  0.9573 -2.2033  5.3438
  698MOL0     H94229   0.575   2.465   3.792  0.5368  0.3189  0.8387
  698MOL0     H94230   0.722   2.401   3.843 -0.5821  0.9491  0.3329
  699MOL0     O94231  11.111  11.147   9.557 -0.2302  0.8009 -0.3319
  699MOL0     C94232  11.068  11.211   9.656  0.4922  0.1616  0.2141
  699MOL0     O94233  11.000  11.166   9.767 -0.7687  0.4013  1.0307
  699MOL0     C94234  10.979  11.032   9.774  0.1562  0.5802  0.2767
  699MOL0     C94235  11.067  10.933   9.738  0.0082 -0.6007  1.2432
  699MOL0     C94236  11.023  10.793   9.751  0.4602  0.4002 -0.5833
  699MOL0     C94237  10.895  10.750   9.795 -1.0285  0.1554 -0.0148
  699MOL0     O94238  10.875  10.619   9.800  0.0742 -0.4148 -0.7381
  699MOL0     C94239  10.785  10.553   9.893 -0.3275 -0.6151 -0.8654
  699MOL0     C94240  10.800  10.399   9.863  0.4217 -0.4976 -0.6927
  699MOL0     C94241  10.728  10.330   9.985 -0.7096 -0.3131 -0.3390
  699MOL0     C94242  10.722  10.181   9.976  0.0252 -0.0904  0.1358
  699MOL0     C94243  10.613  10.131  10.069  0.5336 -0.3843  0.4730
  699MOL0     C94244  10.612   9.986  10.061 -0.5360  0.4061  0.1087
  699MOL0     C94245  10.525   9.937  10.182 -0.4823 -0.3451  0.5141
  699MOL0     C94246  10.542   9.782  10.207 -0.7425  0.1063 -0.8755
  699MOL0     N94247  10.497   9.700  10.088  0.5165 -0.1603  0.3149
  699MOL0     C94248  10.361   9.663  10.084 -0.7580  0.3073 -0.2638
  699MOL0     C94249  10.347   9.590   9.972  0.4376  0.6907  0.6010
  699MOL0     C94250  10.221   9.525   9.911  0.1660 -0.9593 -0.0501
  699MOL0     C94251  10.165   9.607   9.780  0.0477  0.1045 -0.7086
  699MOL0     C94252  10.106   9.739   9.819  0.0196 -0.8931  0.0982
  699MOL0     C94253  10.197   9.847   9.887  0.8582 -0.3752 -0.5514
  699MOL0     O94254  10.150   9.969   9.839  0.3989  0.0745  0.2794
  699MOL0     C94255  10.243  10.074   9.827 -0.9062  0.2616 -0.4687
  699MOL0     C94256  10.226  10.191   9.898 -0.4376  0.0783 -0.7128
  699MOL0     C94257  10.302  10.305   9.865 -0.5373 -0.9173 -0.7918
  699MOL0     C94258  10.398  10.300   9.759 -0.6908  0.9287  0.3470
  699MOL0     C94259  10.469  10.420   9.711 -0.4342  0.5599 -0.2528
  699MOL0     O94260  10.427  10.538   9.765 -0.0607  0.5824 -0.0844
  699MOL0     C94261  10.470  10.663   9.720  0.4057 -0.6741  0.3677
  699MOL0     C94262  10.580  10.687   9.644  0.0650 -0.0305  0.1040
  699MOL0     C94263  10.614  10.828   9.613 -0.2437  0.8664  0.1764
  699MOL0     C94264  10.545  10.935   9.649  0.5066 -0.6275  0.2446
  699MOL0     O94265  10.570  11.067   9.614  0.9368 -0.0226  0.4814
  699MOL0     C94266  10.683  11.105   9.539 -1.0940 -0.0102 -0.3549
  699MOL0     C94267  10.677  11.257   9.541 -0.2402  0.6336 -0.3031
  699MOL0     C94268  10.768  11.317   9.425 -0.1573 -0.4132  0.6588
  699MOL0     C94269  10.768  11.471   9.417  0.4221  0.8710 -0.2737
  699MOL0     C94270  10.859  11.514   9.309 -0.5579 -0.4931  0.7946
  699MOL0     C94271  10.916  11.657   9.341 -0.0560 -0.8912  0.7033
  699MOL0     C94272  10.819  11.767   9.295 -0.3226 -0.2069 -0.2546
  699MOL0     C94273  10.801  11.771   9.147 -0.3428  0.0744  0.0993
  699MOL0    Cl94274  10.633  11.819   9.103  0.3297  0.1570  0.2406
  699MOL0     C94275  10.445  10.910   9.741 -0.0790  0.6039  0.7983
  699MOL0     C94276  10.396  10.783   9.771  0.1763 -0.6342  0.1858
  699MOL0     O94277  10.550  10.403   9.611  1.0739  0.5219  0.2723
  699MOL0     C94278  10.430  10.173   9.710  1.1033 -0.1512 -0.1894
  699MOL0     C94279  10.345  10.064   9.733 -0.4516 -0.2651  0.7047
  699MOL0     N94280  10.470   9.598   9.907  0.8583  0.3897 -0.1867
  699MOL0     N94281  10.558   9.660   9.975 -0.4539  0.1148  0.5767
  699MOL0     C94282  10.813  10.853   9.840  0.1098  0.0802 -0.0231
  699MOL0     C94283  10.847  10.993   9.831  0.0549  0.1655  0.1604
  699MOL0     C94284  11.084  11.362   9.671  0.2101 -0.0232  0.4455
  699MOL0     C94285  11.044  11.434   9.784  0.6926  0.3400  0.0385
  699MOL0     C94286  11.044  11.569   9.793  1.2873 -1.3394 -0.2099
  699MOL0     C94287  11.089  11.646   9.688 -0.4972  0.8701 -0.5921
  699MOL0     O94288  11.076  11.780   9.674  0.2456 -0.5305  0.2653
  699MOL0     C94289  11.176  11.856   9.753  0.4893 -0.1549  1.1133
  699MOL0     C94290  11.233  11.973   9.679 -0.0526  0.6344 -0.6266
  699MOL0     C94291  11.128  12.066   9.622 -0.1730 -1.0511  0.6656
  699MOL0     C94292  11.038  11.999   9.507  0.6366  0.2211 -0.4671
  699MOL0     C94293  10.989  12.116   9.430  0.6671  0.3995  0.1369
  699MOL0     C94294  10.965  12.217   9.364 -0.3510  0.8763 -1.2956
  699MOL0     C94295  11.158  11.580   9.589 -0.6001 -0.4445  0.1701
  699MOL0     C94296  11.148  11.444   9.572 -1.1423 -0.1493  0.7320
  699MOL0     C94297  11.214  11.401   9.445  0.2446 -0.0316 -0.0974
  699MOL0     H94298  11.161  10.957   9.689  0.4252 -1.1992  1.7411
  699MOL0     H94299  11.090  10.708   9.740  0.5311  0.1205  1.6190
  699MOL0     H94300  10.805  10.590   9.994 -3.0163 -0.8228 -0.1822
  699MOL0     H94301  10.687  10.589   9.861  0.0468 -0.5911 -2.0137
  699MOL0     H94302  10.899  10.351   9.860  1.9562  2.4444 -0.6258
  699MOL0     H94303  10.751  10.388   9.766  0.9354 -0.5728 -0.9491
  699MOL0     H94304  10.625  10.368   9.986 -0.2533  0.9623  0.7022
  699MOL0     H94305  10.768  10.357  10.083 -1.3547 -0.9011  0.0953
  699MOL0     H94306  10.693  10.156   9.873 -0.6717  0.7068  0.1259
  699MOL0     H94307  10.824  10.142   9.984  1.0067  2.6102  2.8856
  699MOL0     H94308  10.643  10.156  10.171  0.4398  2.9644 -0.2043
  699MOL0     H94309  10.514  10.170  10.043  0.3062 -1.9044 -1.1033
  699MOL0     H94310  10.557   9.962   9.970 -0.6083  0.6005  0.0999
  699MOL0     H94311  10.713   9.946  10.058 -1.2776 -1.5414 -0.0612
  699MOL0     H94312  10.418   9.950  10.163 -0.3737 -1.2945 -0.8903
  699MOL0     H94313  10.566   9.972  10.277  1.0587  0.2613 -0.3301
  699MOL0     H94314  10.647   9.750  10.216 -0.9524 -0.3637 -0.0209
  699MOL0     H94315  10.491   9.755  10.300 -2.6119 -0.1322 -1.9199
  699MOL0     H94316  10.282   9.682  10.156 -1.3897  2.3033 -1.3688
  699MOL0     H94317  10.243   9.420   9.887 -1.9250 -1.2189 -1.0058
  699MOL0     H94318  10.137   9.519   9.980 -0.2916  0.8511 -0.4069
  699MOL0     H94319  10.242   9.610   9.703  0.6335 -0.0501 -0.1438
  699MOL0     H94320  10.089   9.544   9.733 -0.7199  0.0635  0.5502
  699MOL0     H94321  10.018   9.734   9.884 -0.7458  1.4667 -0.6230
  699MOL0     H94322  10.085   9.776   9.718  1.9739 -1.3914 -0.5290
  699MOL0     H94323  10.303   9.828   9.867  0.7341 -0.1200 -1.5494
  699MOL0     H94324  10.168   9.852   9.992 -2.4324 -1.1402 -1.2967
  699MOL0     H94325  10.149  10.208   9.972 -2.2150 -1.7982 -2.0264
  699MOL0     H94326  10.277  10.396   9.918  0.8166 -1.0758  0.1844
  699MOL0     H94327  10.651  10.606   9.628 -2.4211 -2.8099  2.0277
  699MOL0     H94328  10.701  10.853   9.554 -0.0280 -2.5165 -1.1406
  699MOL0     H94329  10.771  11.056   9.582 -0.3654  0.1637 -1.6041
  699MOL0     H94330  10.664  11.078   9.435  0.8090 -2.3360 -0.1652
  699MOL0     H94331  10.573  11.290   9.529 -1.1024 -1.0556  1.7577
  699MOL0     H94332  10.710  11.298   9.637  0.6867 -0.2189 -0.2420
  699MOL0     H94333  10.868  11.284   9.454 -1.2243 -2.5220  2.2297
  699MOL0     H94334  10.734  11.281   9.328 -1.3229  1.1739  0.4477
  699MOL0     H94335  10.798  11.509   9.515 -2.7175  0.7739  0.8550
  699MOL0     H94336  10.666  11.509   9.408 -0.5318 -1.3480  0.2942
  699MOL0     H94337  10.818  11.515   9.208  0.1766 -0.2966  0.4869
  699MOL0     H94338  10.941  11.444   9.292 -2.1183 -2.0428 -0.6603
  699MOL0     H94339  10.928  11.666   9.449  3.1594 -1.7595  0.5135
  699MOL0     H94340  11.013  11.672   9.293 -0.1806  2.3818  1.2296
  699MOL0     H94341  10.852  11.861   9.340 -3.5049  0.2518  1.4331
  699MOL0     H94342  10.722  11.739   9.337 -1.3058  1.6626 -1.1696
  699MOL0     H94343  10.872  11.845   9.107  2.7805 -3.7947 -2.3222
  699MOL0     H94344  10.831  11.677   9.099 -1.5631 -0.3172  0.0714
  699MOL0     H94345  10.392  10.998   9.776  0.2382  0.5596  1.4036
  699MOL0     H94346  10.304  10.777   9.828  0.0862 -0.5736  0.0474
  699MOL0     H94347  10.510  10.156   9.639  0.7593  0.1664 -0.6538
  699MOL0     H94348  10.370   9.973   9.682 -2.1258  0.5179 -1.6875
  699MOL0     H94349  10.716  10.848   9.888  0.0831  0.1552 -0.0689
  699MOL0     H94350  10.779  11.064   9.878  1.9903  0.2394  3.1542
  699MOL0     H94351  11.002  11.375   9.865 -1.4028  1.0228 -0.4873
  699MOL0     H94352  10.994  11.620   9.875  0.9467  1.5727 -2.0528
  699MOL0     H94353  11.262  11.793   9.777  1.2526 -1.0284 -3.1264
  699MOL0     H94354  11.149  11.897   9.851  3.5393  0.3788  1.8631
  699MOL0     H94355  11.295  11.939   9.596  2.0472 -2.1799  1.8607
  699MOL0     H94356  11.296  12.031   9.748 -0.3933 -1.9514  2.0805
  699MOL0     H94357  11.183  12.150   9.579 -0.7492  0.6419  3.0159
  699MOL0     H94358  11.061  12.121   9.688 -2.3370  1.0484 -2.9273
  699MOL0     H94359  11.115  11.944   9.452  0.8718 -0.1419  0.2026
  699MOL0     H94360  10.954  11.945   9.551  0.7829 -0.6303 -1.2106
  699MOL0     H94361  10.953  12.301   9.298 -1.9716  1.0698 -0.8053
  699MOL0     H94362  11.203  11.657   9.527 -0.3120  0.4523  1.4555
  699MOL0     H94363  11.210  11.481   9.370 -0.2679  1.6727  1.6383
  699MOL0     H94364  11.311  11.356   9.468  1.1426  1.1453 -1.3981
  699MOL0     H94365  11.147  11.330   9.395  0.5451 -0.9749  0.8168
  700MOL0     O94366   1.954   4.004   3.230  0.4558 -0.3329  0.4198
  700MOL0     C94367   1.926   3.914   3.307 -0.0927 -1.0825  0.2700
  700MOL0     O94368   1.811   3.908   3.379  0.0301  0.3360 -0.2251
  700MOL0     C94369   1.728   4.015   3.368  0.2149 -0.0878  0.0430
  700MOL0     C94370   1.744   4.147   3.432  0.3253  0.6716 -0.5102
  700MOL0     C94371   1.658   4.245   3.387 -0.5942 -0.7524  0.0814
  700MOL0     C94372   1.544   4.215   3.322  0.7996  0.4927  0.4107
  700MOL0     O94373   1.451   4.309   3.303 -0.4199 -0.2431 -0.3496
  700MOL0     C94374   1.409   4.398   3.403  0.1636 -0.5280  1.1563
  700MOL0     C94375   1.316   4.495   3.325 -1.5093  0.0398 -0.3477
  700MOL0     C94376   1.197   4.410   3.255 -0.8204 -0.4246 -0.2578
  700MOL0     C94377   1.095   4.352   3.357  0.1108 -0.1259  0.1277
  700MOL0     C94378   1.004   4.461   3.433 -0.2872  0.1872 -0.6522
  700MOL0     C94379   0.920   4.393   3.543 -0.7308  0.2010  0.4250
  700MOL0     C94380   0.800   4.477   3.578 -0.7733 -0.7126  0.1569
  700MOL0     C94381   0.703   4.429   3.687 -0.1968 -0.1305 -1.0256
  700MOL0     N94382   0.757   4.428   3.825  0.1540  1.0525 -0.3050
  700MOL0     C94383   0.740   4.516   3.935  0.7244 -0.2318  1.3579
  700MOL0     C94384   0.815   4.458   4.030  0.2252  0.4228  1.0624
  700MOL0     C94385   0.818   4.481   4.183  0.2915  0.2222 -0.1527
  700MOL0     C94386   0.722   4.592   4.237 -0.1538 -0.7042 -0.6736
  700MOL0     C94387   0.749   4.624   4.382  0.7889  0.2354 -0.7234
  700MOL0     C94388   0.671   4.737   4.433 -0.4981 -0.2755  0.6691
  700MOL0     O94389   0.728   4.865   4.390  0.5057  0.4033 -0.1950
  700MOL0     C94390   0.709   4.960   4.478 -0.0750 -1.1475  0.0180
  700MOL0     C94391   0.587   5.011   4.516  0.2627 -0.2197 -0.0419
  700MOL0     C94392   0.578   5.098   4.628  0.9347  0.9354  0.5668
  700MOL0     C94393   0.692   5.144   4.692  0.1771  0.2298  1.0470
  700MOL0     C94394   0.689   5.243   4.792 -1.0022  0.6666 -0.6859
  700MOL0     O94395   0.809   5.270   4.843 -0.5901  0.4699 -0.4627
  700MOL0     C94396   0.812   5.366   4.938  0.5193 -0.4563 -0.3628
  700MOL0     C94397   0.786   5.347   5.074 -0.1387  0.4310  0.1925
  700MOL0     C94398   0.802   5.451   5.169  0.4561 -1.1611 -0.1361
  700MOL0     C94399   0.829   5.582   5.132  0.0633 -0.2768 -0.2789
  700MOL0     O94400   0.835   5.682   5.232  0.2549  0.3311  0.2820
  700MOL0     C94401   0.864   5.822   5.207  1.0480 -0.4269  0.9189
  700MOL0     C94402   0.796   5.921   5.310  0.3035 -0.7765 -0.0403
  700MOL0     C94403   0.855   5.923   5.447 -0.2026 -0.2941  0.1348
  700MOL0     C94404   0.814   6.051   5.536 -1.1350  0.6001 -0.4799
  700MOL0     C94405   0.901   6.173   5.516 -0.1133 -0.3805 -0.4264
  700MOL0     C94406   0.898   6.290   5.621 -0.0368  0.3001  0.9692
  700MOL0     C94407   1.021   6.285   5.720  0.7332 -0.3855 -0.0575
  700MOL0     C94408   1.012   6.159   5.806  0.2826  0.3470 -0.9762
  700MOL0    Cl94409   0.861   6.144   5.903  0.4703 -0.3331  0.5761
  700MOL0     C94410   0.836   5.612   4.993 -0.0087  0.4750  0.0813
  700MOL0     C94411   0.836   5.498   4.900  0.5283 -0.8395 -0.2290
  700MOL0     O94412   0.583   5.282   4.840 -0.0655  0.0583  0.0187
  700MOL0     C94413   0.820   5.102   4.633  0.1614 -0.3134 -0.0800
  700MOL0     C94414   0.821   5.013   4.528  0.0166 -0.2462  0.0751
  700MOL0     N94415   0.894   4.359   3.971 -0.3056  0.1171 -0.0803
  700MOL0     N94416   0.855   4.335   3.848 -0.3386  0.2793 -0.5097
  700MOL0     C94417   1.523   4.090   3.272 -0.3233 -0.7736  0.2054
  700MOL0     C94418   1.618   3.996   3.286 -0.3319 -0.3258 -0.4212
  700MOL0     C94419   2.019   3.794   3.315 -0.1944 -0.0306  0.2703
  700MOL0     C94420   2.105   3.764   3.213 -1.2690 -0.8011 -0.9933
  700MOL0     C94421   2.191   3.655   3.221 -0.6083  0.4046  0.2180
  700MOL0     C94422   2.195   3.578   3.339 -0.0461 -0.2349 -0.5874
  700MOL0     O94423   2.292   3.484   3.362  0.6118 -0.4047 -0.2221
  700MOL0     C94424   2.329   3.416   3.243  0.4327  0.1887 -0.5464
  700MOL0     C94425   2.220   3.330   3.179 -0.3725 -0.2339 -0.6404
  700MOL0     C94426   2.248   3.179   3.163  0.8215 -0.3668  0.5618
  700MOL0     C94427   2.113   3.109   3.188 -0.4237 -0.3524  0.4828
  700MOL0     C94428   2.015   3.147   3.078 -0.0278  0.5095 -0.8858
  700MOL0     C94429   1.943   3.167   2.978 -0.2113 -0.4128 -0.2735
  700MOL0     C94430   2.113   3.611   3.445 -0.7908 -0.0041 -1.0669
  700MOL0     C94431   2.021   3.710   3.430  0.3112 -0.5648 -0.1757
  700MOL0     C94432   1.939   3.726   3.552 -0.1475  0.1956 -0.2016
  700MOL0     H94433   1.827   4.166   3.499  1.2106 -0.3231 -1.2901
  700MOL0     H94434   1.673   4.350   3.409  0.3740 -0.5748 -1.2806
  700MOL0     H94435   1.342   4.351   3.475 -1.8060  2.4511  1.4637
  700MOL0     H94436   1.484   4.457   3.455  0.7972 -0.7815  0.5442
  700MOL0     H94437   1.365   4.548   3.243 -0.3643 -2.1244 -1.1645
  700MOL0     H94438   1.281   4.571   3.395  1.1969  1.9623 -0.9258
  700MOL0     H94439   1.235   4.326   3.196 -1.0162  0.7836 -2.1712
  700MOL0     H94440   1.147   4.475   3.183  1.3818  2.6429  0.7665
  700MOL0     H94441   1.027   4.285   3.305 -0.9620 -0.6682  2.1172
  700MOL0     H94442   1.137   4.294   3.440  3.5563  1.8969 -0.0214
  700MOL0     H94443   1.071   4.531   3.483  0.8501 -2.5222  1.9564
  700MOL0     H94444   0.942   4.524   3.369  0.4943 -0.4622 -2.0976
  700MOL0     H94445   0.894   4.289   3.526  2.7754 -1.0120  1.6063
  700MOL0     H94446   0.986   4.388   3.630 -0.2411 -2.3033 -0.0148
  700MOL0     H94447   0.739   4.489   3.488 -1.9237  2.8400  1.2252
  700MOL0     H94448   0.839   4.578   3.599  1.7444 -1.7533  0.9704
  700MOL0     H94449   0.622   4.502   3.689  2.8643  3.5978  0.9709
  700MOL0     H94450   0.656   4.331   3.674  1.5762 -2.4227  5.6638
  700MOL0     H94451   0.664   4.593   3.943  1.2982  0.3174  1.6218
  700MOL0     H94452   0.791   4.384   4.227  3.1580 -1.2563 -1.4042
  700MOL0     H94453   0.923   4.490   4.213  1.1458 -1.5585 -2.3413
  700MOL0     H94454   0.717   4.680   4.172  0.7247 -0.2202 -0.1113
  700MOL0     H94455   0.623   4.545   4.240 -1.4266  1.8703  1.0954
  700MOL0     H94456   0.858   4.634   4.389  0.7374  0.9590 -0.8649
  700MOL0     H94457   0.728   4.538   4.446 -0.2092  0.3153 -0.9317
  700MOL0     H94458   0.672   4.720   4.541  1.9073  0.2345  0.7745
  700MOL0     H94459   0.568   4.731   4.396 -1.0247 -0.6423  2.1323
  700MOL0     H94460   0.496   4.983   4.464 -2.3133  2.7839  2.3201
  700MOL0     H94461   0.479   5.133   4.653 -0.0525 -0.2124 -1.4739
  700MOL0     H94462   0.769   5.246   5.108  0.3895  0.9423  2.1590
  700MOL0     H94463   0.791   5.427   5.274  0.4145  0.7992  0.3489
  700MOL0     H94464   0.974   5.823   5.209  1.3385 -4.7194 -1.1677
  700MOL0     H94465   0.827   5.837   5.105 -0.0611 -1.8006  1.0886
  700MOL0     H94466   0.806   6.020   5.265  0.4840 -0.1619  1.2966
  700MOL0     H94467   0.692   5.889   5.309 -0.6829  1.4841 -5.4604
  700MOL0     H94468   0.814   5.837   5.500 -1.2988 -1.3751 -2.3063
  700MOL0     H94469   0.963   5.905   5.442  0.5758  2.5860  3.1571
  700MOL0     H94470   0.820   6.028   5.643  1.0135 -2.7964 -1.1593
  700MOL0     H94471   0.710   6.071   5.509 -1.4703 -3.1715 -2.7179
  700MOL0     H94472   0.872   6.224   5.423 -0.0488  1.7401  0.6495
  700MOL0     H94473   1.003   6.134   5.515  1.3808  3.1351 -0.8213
  700MOL0     H94474   0.908   6.391   5.582 -0.7166  0.6279  1.6118
  700MOL0     H94475   0.798   6.282   5.666  0.8182 -0.8680  2.7827
  700MOL0     H94476   1.024   6.370   5.790 -0.1843  1.4989 -2.1645
  700MOL0     H94477   1.117   6.298   5.670  0.8318  1.1407  0.4575
  700MOL0     H94478   1.015   6.072   5.740  0.3600 -0.7770  0.4551
  700MOL0     H94479   1.099   6.140   5.870 -0.5861  3.7029  1.4722
  700MOL0     H94480   0.858   5.709   4.951 -0.5034 -0.0421 -1.4443
  700MOL0     H94481   0.849   5.522   4.795 -1.3635 -1.5161 -0.6444
  700MOL0     H94482   0.914   5.132   4.678  0.1435  0.2660 -0.4132
  700MOL0     H94483   0.911   4.973   4.481 -1.3349  2.3639 -5.6113
  700MOL0     H94484   1.428   4.076   3.222 -0.3451  0.7592 -0.2385
  700MOL0     H94485   1.588   3.902   3.239 -0.9245 -0.1825 -0.3413
  700MOL0     H94486   2.112   3.838   3.134  2.4848 -2.2652 -2.2434
  700MOL0     H94487   2.267   3.649   3.144  0.8991 -0.9739  1.7391
  700MOL0     H94488   2.402   3.343   3.280 -0.9686 -0.7394  0.5244
  700MOL0     H94489   2.391   3.469   3.171 -1.5195  1.9918 -0.9906
  700MOL0     H94490   2.210   3.366   3.076 -0.4304 -2.5017 -1.4669
  700MOL0     H94491   2.117   3.345   3.215 -0.9195  0.0630 -2.2299
  700MOL0     H94492   2.319   3.131   3.230  1.4931 -0.7278 -0.3905
  700MOL0     H94493   2.280   3.155   3.061  5.1826 -0.4336  1.7671
  700MOL0     H94494   2.129   3.002   3.175 -0.0067 -0.2100 -0.2011
  700MOL0     H94495   2.068   3.122   3.287 -1.1760  1.1972 -0.0291
  700MOL0     H94496   1.884   3.200   2.895 -1.1264 -1.7573 -0.1891
  700MOL0     H94497   2.131   3.555   3.537 -0.0729 -0.1241 -1.2698
  700MOL0     H94498   1.835   3.697   3.534  0.2881 -1.0071 -0.8827
  700MOL0     H94499   1.975   3.673   3.641  2.1832 -1.1264 -1.8119
  700MOL0     H94500   1.941   3.833   3.573 -0.5988  0.4488 -1.3648
  701MOL0     O94501   0.448   1.960   8.652  1.5180 -0.7512 -0.3203
  701MOL0     C94502   0.491   2.076   8.649  0.3568  0.2358  0.5239
  701MOL0     O94503   0.572   2.137   8.738 -0.2826  0.2399 -0.9843
  701MOL0     C94504   0.655   2.057   8.820 -0.1687  1.1609  0.6117
  701MOL0     C94505   0.632   2.038   8.955 -0.3569 -1.1906 -0.6561
  701MOL0     C94506   0.707   1.957   9.036  0.8358  0.7126 -0.4066
  701MOL0     C94507   0.823   1.899   8.987 -0.2718  0.5765 -0.4432
  701MOL0     O94508   0.893   1.834   9.079 -0.4579 -0.4883  0.4943
  701MOL0     C94509   0.940   1.704   9.031 -0.1231 -1.8083 -0.3266
  701MOL0     C94510   1.064   1.692   9.108  0.1855  0.4588  0.5291
  701MOL0     C94511   1.082   1.546   9.133  0.2296 -0.2908  0.6999
  701MOL0     C94512   1.210   1.535   9.211 -0.5187  0.4565  0.0786
  701MOL0     C94513   1.218   1.387   9.230  0.3802 -0.2255  0.2785
  701MOL0     C94514   1.332   1.349   9.323  0.2914 -0.4752  0.5276
  701MOL0     C94515   1.349   1.194   9.327  0.0033 -0.1790  0.5780
  701MOL0     C94516   1.479   1.145   9.394  0.7435  0.1624 -0.3876
  701MOL0     N94517   1.494   1.205   9.527  0.0568  0.2169 -0.8096
  701MOL0     C94518   1.563   1.327   9.552  0.5490  0.0834  0.1164
  701MOL0     C94519   1.564   1.329   9.694  0.9088  0.6970  0.0313
  701MOL0     C94520   1.634   1.431   9.771 -0.3512  0.0449 -0.4857
  701MOL0     C94521   1.763   1.394   9.841  0.5532  0.9975  0.2534
  701MOL0     C94522   1.756   1.283   9.948 -0.1507 -0.2921  0.0057
  701MOL0     C94523   1.671   1.298  10.073 -0.0114 -0.7343 -0.3435
  701MOL0     O94524   1.707   1.422  10.137 -0.1919  0.3575  0.2045
  701MOL0     C94525   1.832   1.438  10.195 -0.4914 -0.6755 -0.2894
  701MOL0     C94526   1.915   1.339  10.247 -0.0754  0.3689 -0.6011
  701MOL0     C94527   2.042   1.366  10.291 -0.9136  0.7271 -0.2729
  701MOL0     C94528   2.089   1.498  10.291  0.4071  0.2332 -0.0441
  701MOL0     C94529   2.228   1.532  10.339  0.4793 -0.5438 -0.6509
  701MOL0     O94530   2.253   1.673  10.339  0.0877  0.0184  0.4178
  701MOL0     C94531   2.383   1.721  10.363  0.2934 -0.7732  1.1051
  701MOL0     C94532   2.423   1.827  10.276  0.4893 -0.0382  0.2859
  701MOL0     C94533   2.546   1.878  10.285 -0.7933 -0.3595 -1.0028
  701MOL0     C94534   2.632   1.837  10.386  0.2656  0.3989  0.6411
  701MOL0     O94535   2.756   1.885  10.406 -0.3921  0.3870 -0.1503
  701MOL0     C94536   2.825   1.947  10.301 -0.6894 -0.0573 -0.3936
  701MOL0     C94537   2.978   1.943  10.326 -0.2042  0.7641 -0.7729
  701MOL0     C94538   3.024   1.794  10.346  0.2410  0.3017  0.5922
  701MOL0     C94539   2.991   1.700  10.225 -0.0037  0.3723  0.8724
  701MOL0     C94540   3.088   1.582  10.224 -0.3921 -0.2119  1.1117
  701MOL0     C94541   3.049   1.463  10.131 -0.8380 -0.6791 -0.0548
  701MOL0     C94542   3.068   1.485   9.985 -0.5338 -0.6563 -0.0416
  701MOL0     C94543   3.195   1.406   9.954 -0.3779 -0.0786  0.1923
  701MOL0    Cl94544   3.337   1.477  10.043 -0.1609 -0.0741 -0.7121
  701MOL0     C94545   2.595   1.733  10.478 -0.2656 -0.1815  0.6375
  701MOL0     C94546   2.472   1.675  10.461  0.3855  0.0072  0.7960
  701MOL0     O94547   2.300   1.449  10.384 -0.2306 -0.5478  0.8398
  701MOL0     C94548   2.015   1.595  10.224 -0.1587  0.3578  0.3690
  701MOL0     C94549   1.883   1.566  10.178  0.1624  0.2054 -0.3617
  701MOL0     N94550   1.506   1.212   9.746 -0.3324 -0.0294  0.3996
  701MOL0     N94551   1.468   1.141   9.646  0.0532 -0.6156  0.3934
  701MOL0     C94552   0.859   1.919   8.850 -0.9978  0.7745  0.1343
  701MOL0     C94553   0.774   1.989   8.768  0.0558 -0.5156 -0.2149
  701MOL0     C94554   0.425   2.167   8.550  0.1042 -0.3990 -0.1683
  701MOL0     C94555   0.437   2.313   8.562  0.2696 -0.0473 -0.8096
  701MOL0     C94556   0.382   2.404   8.477 -0.5828  0.1832  0.8949
  701MOL0     C94557   0.320   2.366   8.355  0.7913 -0.2229 -0.3418
  701MOL0     O94558   0.288   2.461   8.256  0.0869 -0.1939  0.0293
  701MOL0     C94559   0.166   2.533   8.292  0.3166  0.2649  0.0809
  701MOL0     C94560   0.037   2.441   8.308 -0.7796  0.0195  0.5171
  701MOL0     C94561  -0.072   2.555   8.332 -0.3725  0.6950 -0.3287
  701MOL0     C94562  -0.132   2.619   8.205 -0.0413  0.0146  0.6089
  701MOL0     C94563  -0.211   2.733   8.248  0.6678 -0.5459  0.1043
  701MOL0     C94564  -0.287   2.819   8.276  0.4232 -0.1957  0.7796
  701MOL0     C94565   0.305   2.230   8.338  0.0301  0.3034 -0.0124
  701MOL0     C94566   0.345   2.137   8.429  1.0139  0.4560 -0.5200
  701MOL0     C94567   0.299   1.992   8.387 -1.0529  0.6898 -0.0519
  701MOL0     H94568   0.545   2.090   8.994  0.1939  1.2784 -2.4871
  701MOL0     H94569   0.670   1.949   9.138  2.6202 -0.1281  0.2171
  701MOL0     H94570   0.855   1.641   9.060  0.3711 -1.5221  1.9521
  701MOL0     H94571   0.963   1.690   8.925  0.4975  2.8906 -1.0127
  701MOL0     H94572   1.058   1.727   9.212  2.3744 -2.5589  1.8205
  701MOL0     H94573   1.143   1.750   9.059 -0.3543 -0.3503 -1.3772
  701MOL0     H94574   1.091   1.496   9.036 -0.1971  0.1385  0.4332
  701MOL0     H94575   1.004   1.506   9.199 -1.1645 -1.1333 -1.3539
  701MOL0     H94576   1.290   1.579   9.151 -0.4234  0.1299 -0.0335
  701MOL0     H94577   1.208   1.589   9.306  0.4803  3.4821 -1.4845
  701MOL0     H94578   1.122   1.361   9.276 -0.7863  0.2251 -1.7564
  701MOL0     H94579   1.213   1.333   9.135 -3.1762  1.1086 -0.4614
  701MOL0     H94580   1.422   1.401   9.288  0.6915 -2.2405 -1.2880
  701MOL0     H94581   1.306   1.385   9.423 -3.8346 -0.0792 -0.4930
  701MOL0     H94582   1.341   1.159   9.224 -2.1517 -0.8695  0.9197
  701MOL0     H94583   1.263   1.147   9.377 -1.5485  1.0464 -0.8076
  701MOL0     H94584   1.484   1.035   9.392  1.4264  0.1305 -3.5281
  701MOL0     H94585   1.567   1.178   9.337  1.3251  0.6074  0.7311
  701MOL0     H94586   1.596   1.394   9.474  0.8337  1.1903  1.1589
  701MOL0     H94587   1.665   1.508   9.700  0.0846 -1.3879 -1.9057
  701MOL0     H94588   1.568   1.469   9.850  0.4770  2.4204 -0.8715
  701MOL0     H94589   1.838   1.365   9.767  0.1102  2.9420 -1.0153
  701MOL0     H94590   1.804   1.483   9.890  2.0656  0.4692 -0.0058
  701MOL0     H94591   1.861   1.258   9.965 -0.1899  0.3422  1.3065
  701MOL0     H94592   1.713   1.201   9.890 -0.4189 -0.3249  0.2467
  701MOL0     H94593   1.684   1.213  10.141 -1.1943 -0.3471  0.3893
  701MOL0     H94594   1.565   1.300  10.046 -0.1104  1.8975  0.0121
  701MOL0     H94595   1.884   1.235  10.246  1.4636 -0.1169 -1.8805
  701MOL0     H94596   2.097   1.282  10.333 -1.9308  2.0157  4.1107
  701MOL0     H94597   2.352   1.859  10.200  1.1569  0.9599  0.0451
  701MOL0     H94598   2.579   1.957  10.218 -0.5154  0.4687  0.0835
  701MOL0     H94599   2.814   1.891  10.208 -1.5695  0.6219 -0.7155
  701MOL0     H94600   2.791   2.049  10.282 -0.6992 -0.3649 -2.2179
  701MOL0     H94601   3.032   1.985  10.240  0.0283 -1.3051 -1.7076
  701MOL0     H94602   3.007   1.998  10.416 -1.4950 -3.0935  2.2747
  701MOL0     H94603   3.129   1.795  10.377 -0.0189  1.5209  1.5134
  701MOL0     H94604   2.971   1.742  10.427  2.2272 -1.4602  0.8668
  701MOL0     H94605   2.997   1.750  10.128  0.3176 -0.6275  0.3662
  701MOL0     H94606   2.888   1.664  10.237 -1.6680  4.0073 -1.0008
  701MOL0     H94607   3.089   1.544  10.326  0.0368 -0.9907  0.8238
  701MOL0     H94608   3.189   1.615  10.198  0.1456 -2.1758  0.5408
  701MOL0     H94609   3.115   1.382  10.164  0.4133  0.2766 -0.1149
  701MOL0     H94610   2.945   1.440  10.152 -0.7751 -0.8296  0.1005
  701MOL0     H94611   3.090   1.592   9.972 -1.6132  0.0815  3.2332
  701MOL0     H94612   2.979   1.444   9.938 -1.5758  0.0845  1.1972
  701MOL0     H94613   3.168   1.301   9.965  1.8298 -0.7052 -0.0057
  701MOL0     H94614   3.226   1.419   9.850  0.9420  1.9894  0.7694
  701MOL0     H94615   2.672   1.699  10.546  1.9102 -0.4297 -1.7892
  701MOL0     H94616   2.448   1.582  10.513  0.6573 -0.5543 -0.0670
  701MOL0     H94617   2.039   1.700  10.210 -6.4967  2.0727 -0.9917
  701MOL0     H94618   1.819   1.641  10.134  0.7254 -0.2556 -2.0352
  701MOL0     H94619   0.951   1.881   8.807 -0.8252  1.0935  0.2136
  701MOL0     H94620   0.802   1.999   8.664  2.0789  0.0866  0.3362
  701MOL0     H94621   0.477   2.354   8.654  0.8547  1.2241 -1.6123
  701MOL0     H94622   0.403   2.507   8.502  2.1527 -0.6810  2.5257
  701MOL0     H94623   0.136   2.602   8.212 -4.1078 -1.3545  0.0698
  701MOL0     H94624   0.181   2.584   8.387 -0.3262  0.4417  0.0914
  701MOL0     H94625   0.045   2.371   8.392 -0.8318 -0.7696 -0.1327
  701MOL0     H94626   0.032   2.389   8.213 -1.7105  0.7916  0.1259
  701MOL0     H94627  -0.034   2.630   8.401 -2.7968  0.6998  1.1354
  701MOL0     H94628  -0.148   2.502   8.390  0.6313  0.0871  0.4478
  701MOL0     H94629  -0.061   2.646   8.126 -1.5093 -1.6080 -1.3735
  701MOL0     H94630  -0.197   2.545   8.157 -0.7521 -1.2977  3.4090
  701MOL0     H94631  -0.360   2.896   8.294  0.6917 -0.1711  1.7692
  701MOL0     H94632   0.250   2.200   8.249 -0.1098 -0.5393  0.3514
  701MOL0     H94633   0.381   1.927   8.356 -1.7227  0.4621 -1.4039
  701MOL0     H94634   0.257   1.950   8.478  2.2498 -1.3917  0.6681
  701MOL0     H94635   0.221   2.001   8.311 -1.3606 -0.8187  0.0669
  702MOL0     O94636   4.519   2.725   8.270  0.2797 -0.6812 -0.4251
  702MOL0     C94637   4.474   2.820   8.206  0.5604 -0.1339 -0.0156
  702MOL0     O94638   4.497   2.949   8.248 -0.0936  0.2445  0.0498
  702MOL0     C94639   4.585   2.974   8.350  0.4383 -1.7371 -0.8389
  702MOL0     C94640   4.718   2.931   8.356  1.2118 -0.0838 -1.2786
  702MOL0     C94641   4.802   2.976   8.458 -0.0282 -0.1017  1.1502
  702MOL0     C94642   4.766   3.076   8.545 -0.0826  0.1872 -0.4693
  702MOL0     O94643   4.854   3.133   8.646  0.5470 -0.0578 -0.5376
  702MOL0     C94644   4.897   3.036   8.738  0.9413  0.1688  0.9576
  702MOL0     C94645   5.014   3.101   8.811 -0.5180 -0.5416  0.3005
  702MOL0     C94646   4.963   3.230   8.891  0.1210 -0.3318  0.1003
  702MOL0     C94647   4.849   3.216   8.987 -0.4056 -0.9954 -0.6513
  702MOL0     C94648   4.821   3.353   9.062 -0.1209  0.2165 -0.0396
  702MOL0     C94649   4.928   3.404   9.167 -0.3013  0.1152 -0.5701
  702MOL0     C94650   4.960   3.297   9.267 -0.7129  0.3228  0.2962
  702MOL0     C94651   5.071   3.346   9.344 -0.7371  0.1293 -0.4231
  702MOL0     N94652   5.156   3.242   9.391  0.0206  0.0552 -0.3725
  702MOL0     C94653   5.111   3.127   9.458  0.6764 -0.1816  0.0078
  702MOL0     C94654   5.208   3.041   9.461 -0.1510 -0.1419  0.1623
  702MOL0     C94655   5.206   2.904   9.521  0.1382 -0.2242 -0.3679
  702MOL0     C94656   5.223   2.937   9.667  0.1124 -0.1817  0.1757
  702MOL0     C94657   5.230   2.814   9.761  0.1238 -0.3138  0.1491
  702MOL0     C94658   5.200   2.871   9.895 -0.3414 -0.1155 -0.3540
  702MOL0     O94659   5.060   2.881   9.927  0.1874  0.2873 -0.8267
  702MOL0     C94660   5.015   2.911  10.060  0.0697  0.2641  0.3219
  702MOL0     C94661   5.071   2.986  10.159 -0.5158  0.4584 -0.0966
  702MOL0     C94662   5.012   3.018  10.286 -0.4542  0.2752 -0.6571
  702MOL0     C94663   4.887   2.963  10.310 -1.0714 -0.7506 -0.0398
  702MOL0     C94664   4.812   3.006  10.435 -0.9543 -0.0231  0.5680
  702MOL0     O94665   4.881   3.054  10.533 -0.5363  0.0384 -0.4283
  702MOL0     C94666   4.822   3.108  10.644  0.6364  0.9323 -0.4730
  702MOL0     C94667   4.689   3.133  10.668  0.3076  1.0264 -0.4639
  702MOL0     C94668   4.642   3.163  10.801 -0.8251  0.5806  1.0849
  702MOL0     C94669   4.728   3.191  10.897 -0.3911  0.1308  0.2853
  702MOL0     O94670   4.677   3.249  11.011  0.0375  0.4893  0.4173
  702MOL0     C94671   4.780   3.305  11.088 -0.2611  0.1533  0.2063
  702MOL0     C94672   4.704   3.387  11.188  0.0407 -0.3227 -0.9151
  702MOL0     C94673   4.597   3.305  11.278  0.2616  1.0196  1.0916
  702MOL0     C94674   4.563   3.380  11.407 -1.3525 -0.9508  0.5216
  702MOL0     C94675   4.419   3.352  11.453 -0.1122 -0.2542 -0.3702
  702MOL0     C94676   4.425   3.217  11.537  0.3989 -0.5736 -0.5331
  702MOL0     C94677   4.297   3.192  11.614 -0.2144  0.3979  0.8108
  702MOL0     C94678   4.188   3.150  11.515 -0.1352 -0.5595  0.2066
  702MOL0    Cl94679   4.094   3.286  11.459  0.0791  0.4260  0.1168
  702MOL0     C94680   4.865   3.158  10.876 -0.2694 -0.5051 -0.4935
  702MOL0     C94681   4.906   3.115  10.753  0.6992  0.0417  0.9215
  702MOL0     O94682   4.692   2.985  10.436 -0.1979  0.0903  0.0053
  702MOL0     C94683   4.821   2.896  10.213 -1.3594  0.4029 -0.6300
  702MOL0     C94684   4.885   2.862  10.095  0.2124  0.5572 -0.5002
  702MOL0     N94685   5.313   3.095   9.394 -0.4960  0.8414 -0.9259
  702MOL0     N94686   5.276   3.209   9.345  0.0757 -0.2151  0.1466
  702MOL0     C94687   4.633   3.136   8.542 -0.3687  0.1477  0.3702
  702MOL0     C94688   4.544   3.073   8.455 -0.6881  0.4674 -0.4859
  702MOL0     C94689   4.403   2.799   8.089  0.4648  0.9061 -0.1575
  702MOL0     C94690   4.475   2.707   8.007  0.3035  0.4762 -0.2485
  702MOL0     C94691   4.427   2.660   7.887 -0.5804 -0.6036  0.2898
  702MOL0     C94692   4.306   2.717   7.842 -0.4812  1.1616 -0.4690
  702MOL0     O94693   4.266   2.678   7.718 -0.0374  0.1446 -0.7354
  702MOL0     C94694   4.120   2.671   7.698  1.0393 -0.0681 -0.4319
  702MOL0     C94695   4.088   2.550   7.601 -0.4468  0.0690  0.1696
  702MOL0     C94696   4.096   2.561   7.449 -0.1223  0.2557 -0.3733
  702MOL0     C94697   4.044   2.438   7.370  0.0320 -0.1718  0.4629
  702MOL0     C94698   4.096   2.447   7.231 -0.8466 -0.2465  0.0879
  702MOL0     C94699   4.126   2.429   7.115 -0.0801 -0.8714 -0.3961
  702MOL0     C94700   4.229   2.814   7.925  0.2558  0.9464 -0.1484
  702MOL0     C94701   4.283   2.851   8.047 -0.4746 -0.3973 -0.9359
  702MOL0     C94702   4.196   2.945   8.125  0.1040  0.5238 -0.7093
  702MOL0     H94703   4.751   2.858   8.283 -0.8625 -1.9377 -0.4550
  702MOL0     H94704   4.903   2.937   8.466  0.8142  1.0680 -2.3387
  702MOL0     H94705   4.811   3.011   8.800  1.6815  0.2013  2.0377
  702MOL0     H94706   4.923   2.938   8.696  0.2703  0.1132  0.6633
  702MOL0     H94707   5.082   3.129   8.730 -0.9582  0.9890  0.4291
  702MOL0     H94708   5.061   3.024   8.872  0.9650  2.0585  2.7143
  702MOL0     H94709   4.935   3.302   8.813 -0.0127 -1.7092 -1.1836
  702MOL0     H94710   5.047   3.268   8.950 -0.1469 -0.9817  0.9086
  702MOL0     H94711   4.754   3.195   8.937 -1.2975  1.9303 -0.3390
  702MOL0     H94712   4.867   3.131   9.054  0.7500  0.7024  1.3257
  702MOL0     H94713   4.811   3.434   8.990  1.5206  0.5399  0.0743
  702MOL0     H94714   4.722   3.348   9.109  0.0583 -0.1626  0.3042
  702MOL0     H94715   5.018   3.431   9.110  1.1365 -2.3488  0.4010
  702MOL0     H94716   4.909   3.500   9.216  2.0505 -0.1079  0.9073
  702MOL0     H94717   5.003   3.210   9.216  0.3411 -0.1010  1.8347
  702MOL0     H94718   4.877   3.261   9.328  1.0603 -1.9223  1.5431
  702MOL0     H94719   5.136   3.417   9.292  0.1210 -1.9295 -2.3378
  702MOL0     H94720   5.030   3.395   9.433  3.6742  1.1616  1.3360
  702MOL0     H94721   5.013   3.126   9.505  0.0871 -2.1339 -1.1580
  702MOL0     H94722   5.109   2.857   9.502  0.1210  0.4549 -2.1407
  702MOL0     H94723   5.284   2.836   9.487  1.1446 -0.2329  1.8233
  702MOL0     H94724   5.313   3.000   9.669 -0.4092  0.6459 -1.1129
  702MOL0     H94725   5.140   3.002   9.695 -2.1789 -2.2266 -1.4372
  702MOL0     H94726   5.332   2.776   9.756  1.1781  2.3316 -0.2810
  702MOL0     H94727   5.155   2.738   9.736 -0.8485  1.1624 -1.7475
  702MOL0     H94728   5.253   2.965   9.911 -0.1250 -0.7025  3.5780
  702MOL0     H94729   5.242   2.803   9.970  1.1611  1.2010  0.0468
  702MOL0     H94730   5.171   3.027  10.148 -0.8585  1.5538  0.7054
  702MOL0     H94731   5.056   3.085  10.360  0.9832 -0.7048 -0.5673
  702MOL0     H94732   4.613   3.114  10.593  0.4983 -1.2216 -0.1476
  702MOL0     H94733   4.535   3.164  10.819 -1.1024 -0.4286 -0.2999
  702MOL0     H94734   4.845   3.230  11.134 -0.2409  0.6971  1.0960
  702MOL0     H94735   4.841   3.367  11.022  2.2608 -1.3180  1.0011
  702MOL0     H94736   4.778   3.416  11.264 -2.0175 -0.4325  1.2705
  702MOL0     H94737   4.657   3.474  11.141 -2.8351 -0.8791  0.6876
  702MOL0     H94738   4.507   3.296  11.217  0.1507  2.1925  1.0723
  702MOL0     H94739   4.633   3.205  11.306 -0.2210 -0.3034 -2.5342
  702MOL0     H94740   4.562   3.486  11.382  0.9746 -0.8647  0.5685
  702MOL0     H94741   4.639   3.363  11.484  0.0315 -0.5566 -0.7160
  702MOL0     H94742   4.357   3.343  11.363  1.8468 -3.6711 -1.5586
  702MOL0     H94743   4.391   3.429  11.525 -0.8721 -2.2977  1.6201
  702MOL0     H94744   4.445   3.140  11.462 -0.5205  0.4454 -1.8867
  702MOL0     H94745   4.505   3.214  11.611  0.1028  1.5285 -0.0601
  702MOL0     H94746   4.273   3.279  11.674  1.9607  0.5946  1.4963
  702MOL0     H94747   4.309   3.100  11.673 -0.9419  0.4670  1.0766
  702MOL0     H94748   4.234   3.093  11.434  0.0101 -0.2411  0.0602
  702MOL0     H94749   4.120   3.085  11.570 -1.2030 -0.0348 -0.4642
  702MOL0     H94750   4.937   3.159  10.957 -1.4683 -2.1854  0.6713
  702MOL0     H94751   5.009   3.084  10.739  0.1611 -2.2352  1.5096
  702MOL0     H94752   4.724   2.852  10.238 -0.8542  1.8476  5.1302
  702MOL0     H94753   4.836   2.812  10.012 -0.7223  0.4483  0.1081
  702MOL0     H94754   4.621   3.216   8.614 -2.1834  0.0348  0.2444
  702MOL0     H94755   4.439   3.101   8.459 -1.4782 -2.0123 -1.9222
  702MOL0     H94756   4.568   2.659   8.036 -1.8917 -4.1544 -0.0740
  702MOL0     H94757   4.485   2.592   7.826  2.6763  2.4844 -0.4233
  702MOL0     H94758   4.081   2.767   7.662  2.0090 -0.0471 -1.4954
  702MOL0     H94759   4.071   2.654   7.794  1.4434  1.6750  0.1282
  702MOL0     H94760   3.981   2.540   7.621 -0.6697 -1.2126 -1.4288
  702MOL0     H94761   4.139   2.459   7.635  0.4050  1.7721  3.9947
  702MOL0     H94762   4.200   2.587   7.425 -0.6411  4.3059  1.0780
  702MOL0     H94763   4.040   2.651   7.423  1.8195  1.9685  0.9916
  702MOL0     H94764   4.069   2.338   7.406  0.6488  0.3410  1.5334
  702MOL0     H94765   3.936   2.453   7.380  0.2735  0.7551  1.9369
  702MOL0     H94766   4.142   2.404   7.012  1.9681 -0.6429 -0.1772
  702MOL0     H94767   4.136   2.841   7.875 -0.2444  1.2563  0.9245
  702MOL0     H94768   4.144   3.023   8.069 -2.2794 -1.3084 -1.2014
  702MOL0     H94769   4.114   2.890   8.172  0.0743  1.0672 -0.1160
  702MOL0     H94770   4.261   2.992   8.199 -0.0643  0.2554 -0.3885
  703MOL0     O94771   4.458   9.582   7.189 -0.4486 -0.9724 -0.3876
  703MOL0     C94772   4.424   9.502   7.280 -0.7559  0.4145 -0.4676
  703MOL0     O94773   4.510   9.413   7.341  0.6743 -0.1449  0.3455
  703MOL0     C94774   4.639   9.415   7.303  0.1609  0.9937  0.8974
  703MOL0     C94775   4.737   9.459   7.392  0.7813  0.7558 -0.0453
  703MOL0     C94776   4.869   9.462   7.336  0.3126 -0.5327 -0.0882
  703MOL0     C94777   4.891   9.424   7.205  0.2260 -0.0871 -0.3303
  703MOL0     O94778   5.025   9.423   7.142  0.0637  0.8446  0.4035
  703MOL0     C94779   5.129   9.510   7.183 -0.0726  0.0233 -0.0699
  703MOL0     C94780   5.266   9.444   7.146  0.5086  1.0337  0.4711
  703MOL0     C94781   5.378   9.538   7.160 -0.4528  0.3220 -0.6393
  703MOL0     C94782   5.414   9.552   7.305 -0.3865 -0.0238 -0.4387
  703MOL0     C94783   5.544   9.646   7.319  0.7767  0.5727 -0.1486
  703MOL0     C94784   5.591   9.655   7.467 -0.6189  0.2790  0.0707
  703MOL0     C94785   5.703   9.750   7.501 -0.5530 -1.0861  0.0364
  703MOL0     C94786   5.719   9.789   7.653 -0.6725  0.1236 -0.8958
  703MOL0     N94787   5.721   9.680   7.742  0.7473 -0.1143  0.7254
  703MOL0     C94788   5.801   9.558   7.741  0.4680 -0.1949  0.5987
  703MOL0     C94789   5.773   9.494   7.855 -0.5902  0.8016  1.9453
  703MOL0     C94790   5.830   9.359   7.905 -0.7563  0.3707  0.0133
  703MOL0     C94791   5.727   9.245   7.915 -1.0873  0.1711  0.5802
  703MOL0     C94792   5.725   9.162   7.789  1.0502  0.3365  0.2406
  703MOL0     C94793   5.576   9.107   7.759  0.1259  0.6277 -1.1963
  703MOL0     O94794   5.517   9.017   7.858  0.4244 -0.2562 -0.1095
  703MOL0     C94795   5.549   8.882   7.861  0.3292 -1.2066  0.6412
  703MOL0     C94796   5.478   8.804   7.953 -0.2748 -0.7926 -0.4388
  703MOL0     C94797   5.489   8.664   7.960 -0.2522 -0.0408 -0.1885
  703MOL0     C94798   5.588   8.596   7.876 -0.4790  0.5093  0.6426
  703MOL0     C94799   5.616   8.452   7.882 -0.0494 -0.0789  0.5740
  703MOL0     O94800   5.699   8.396   7.791 -0.2895 -0.2002 -0.6944
  703MOL0     C94801   5.752   8.261   7.807 -0.3511 -0.1097 -0.2814
  703MOL0     C94802   5.733   8.171   7.917  0.9335  0.7402  0.2997
  703MOL0     C94803   5.798   8.046   7.923 -0.8752 -0.5230  0.4712
  703MOL0     C94804   5.871   8.001   7.808  0.0635 -0.6165  1.1825
  703MOL0     O94805   5.932   7.883   7.807 -0.0391 -0.4314 -1.0516
  703MOL0     C94806   5.890   7.763   7.882  0.8872 -0.0442 -0.0991
  703MOL0     C94807   5.750   7.722   7.823  0.4121 -0.2545  0.2979
  703MOL0     C94808   5.756   7.625   7.712 -0.7261  0.0654 -0.7174
  703MOL0     C94809   5.620   7.594   7.650  0.6375 -0.5447  0.8544
  703MOL0     C94810   5.542   7.711   7.581 -0.1110  0.3320 -0.1435
  703MOL0     C94811   5.435   7.760   7.669  1.5332 -0.5873  0.0404
  703MOL0     C94812   5.367   7.886   7.622 -0.3603 -0.0147 -0.1105
  703MOL0     C94813   5.356   7.975   7.747 -0.1321  0.0936  1.3124
  703MOL0    Cl94814   5.222   8.092   7.716  0.3863 -0.2546  0.0342
  703MOL0     C94815   5.899   8.089   7.697  0.2878  0.1977 -0.8764
  703MOL0     C94816   5.836   8.215   7.708 -0.8236 -0.3664  1.2436
  703MOL0     O94817   5.569   8.397   7.979  0.4134  0.5518 -0.0110
  703MOL0     C94818   5.661   8.677   7.780  0.3232 -0.7615  0.6558
  703MOL0     C94819   5.638   8.813   7.775  1.9724 -0.6666  0.1454
  703MOL0     N94820   5.678   9.560   7.923  0.1107 -0.6107  0.4750
  703MOL0     N94821   5.655   9.673   7.865 -0.3591  0.0771  0.4331
  703MOL0     C94822   4.795   9.379   7.122  0.5031  0.0027  0.2133
  703MOL0     C94823   4.671   9.371   7.172  0.5259  0.6706 -0.0096
  703MOL0     C94824   4.288   9.508   7.333 -0.8187 -0.8196 -0.0596
  703MOL0     C94825   4.256   9.417   7.428 -0.1682  0.1989 -0.0162
  703MOL0     C94826   4.131   9.427   7.501  0.3291 -0.1046  0.3970
  703MOL0     C94827   4.048   9.529   7.474  0.4394  0.0433  0.8091
  703MOL0     O94828   3.928   9.555   7.537 -0.8312 -0.4673  0.5230
  703MOL0     C94829   3.864   9.454   7.611 -0.0644 -0.4703  0.4236
  703MOL0     C94830   3.783   9.369   7.510 -0.0660  0.0030  0.6086
  703MOL0     C94831   3.745   9.236   7.573  0.0766  0.2591 -1.4163
  703MOL0     C94832   3.826   9.125   7.509  0.6747  1.5750 -0.3682
  703MOL0     C94833   3.959   9.117   7.572  0.8924 -0.0726  0.0536
  703MOL0     C94834   4.074   9.112   7.614 -0.2251  0.5079 -0.3981
  703MOL0     C94835   4.073   9.613   7.362 -0.5105  0.4389  0.4508
  703MOL0     C94836   4.197   9.609   7.296 -1.4886  0.2028  0.0424
  703MOL0     C94837   4.216   9.706   7.181 -0.0506  0.0587 -0.3602
  703MOL0     H94838   4.709   9.491   7.492 -0.5253 -0.9318  0.1709
  703MOL0     H94839   4.950   9.487   7.403 -0.6968  0.0294  0.9809
  703MOL0     H94840   5.113   9.606   7.133 -5.4185 -0.2643  0.5992
  703MOL0     H94841   5.121   9.532   7.290 -1.7454 -1.7810  0.2368
  703MOL0     H94842   5.271   9.415   7.041  0.4136  1.3654  0.3751
  703MOL0     H94843   5.287   9.351   7.200  2.4787  1.3015  0.2260
  703MOL0     H94844   5.346   9.637   7.127 -1.5409  0.0925 -0.3216
  703MOL0     H94845   5.463   9.516   7.094 -1.1513 -0.0397 -1.4387
  703MOL0     H94846   5.331   9.601   7.356 -1.0343 -1.1996 -0.3318
  703MOL0     H94847   5.440   9.453   7.343 -0.0135  0.7475  1.4161
  703MOL0     H94848   5.624   9.609   7.254 -0.7178 -2.5351 -0.3633
  703MOL0     H94849   5.542   9.745   7.272  0.3704  0.6144 -0.0439
  703MOL0     H94850   5.502   9.673   7.528  1.3142 -1.0109  3.5535
  703MOL0     H94851   5.623   9.556   7.500  2.7016  0.9299 -0.8422
  703MOL0     H94852   5.677   9.846   7.454  3.5303 -0.0451 -0.5036
  703MOL0     H94853   5.800   9.721   7.460 -0.2597 -2.6019  1.7043
  703MOL0     H94854   5.813   9.845   7.664  0.5103 -2.2009  2.3844
  703MOL0     H94855   5.634   9.854   7.677 -4.6897 -4.1450 -1.9670
  703MOL0     H94856   5.874   9.535   7.664  1.3620 -0.6018  1.5539
  703MOL0     H94857   5.927   9.332   7.861 -1.4410 -2.4911  0.0544
  703MOL0     H94858   5.868   9.370   8.007  1.9692  0.2262 -0.8850
  703MOL0     H94859   5.759   9.189   8.004 -1.6563  3.0355  2.7297
  703MOL0     H94860   5.628   9.289   7.931 -0.7266  0.1787  3.1896
  703MOL0     H94861   5.804   9.087   7.796 -0.1196 -1.3603 -2.8618
  703MOL0     H94862   5.760   9.217   7.701 -1.6396  0.2360 -0.9925
  703MOL0     H94863   5.577   9.071   7.656  0.1853 -0.2282 -0.9033
  703MOL0     H94864   5.516   9.198   7.774 -2.4669 -1.2545  0.8711
  703MOL0     H94865   5.400   8.852   8.011 -0.7454  0.2643 -1.8712
  703MOL0     H94866   5.438   8.607   8.037  0.6663 -0.0864  0.4026
  703MOL0     H94867   5.674   8.194   8.005  1.2102  1.1845  0.3742
  703MOL0     H94868   5.793   7.992   8.017  1.1107  0.2872  1.0936
  703MOL0     H94869   5.970   7.689   7.874  2.1616  1.4157 -1.8231
  703MOL0     H94870   5.882   7.779   7.990 -1.8122 -1.2877 -0.0358
  703MOL0     H94871   5.682   7.683   7.900 -4.8659  2.3660 -2.4979
  703MOL0     H94872   5.690   7.808   7.792 -1.1837 -1.6836 -0.8026
  703MOL0     H94873   5.815   7.670   7.632  0.6279 -2.3132 -1.1358
  703MOL0     H94874   5.799   7.534   7.755 -0.1563  0.7194  0.1390
  703MOL0     H94875   5.553   7.558   7.729 -2.4081  2.5759 -0.0544
  703MOL0     H94876   5.649   7.525   7.570 -0.0892  0.8124 -0.6450
  703MOL0     H94877   5.504   7.651   7.497 -0.3357 -0.7611  0.7176
  703MOL0     H94878   5.611   7.787   7.542  1.0842 -0.9515 -0.6269
  703MOL0     H94879   5.361   7.680   7.679  0.2139  0.8426  2.4544
  703MOL0     H94880   5.486   7.770   7.766  3.0246  0.0499 -0.7684
  703MOL0     H94881   5.272   7.858   7.574  1.2370 -3.1043 -1.7913
  703MOL0     H94882   5.424   7.930   7.540 -1.4831 -3.1826 -2.8250
  703MOL0     H94883   5.336   7.925   7.842 -0.3432 -0.9151  0.7456
  703MOL0     H94884   5.454   8.024   7.748  0.5275 -0.9606 -1.5543
  703MOL0     H94885   5.968   8.061   7.618  0.3931 -0.8250 -0.4393
  703MOL0     H94886   5.888   8.279   7.638 -0.0362 -2.2624  0.0100
  703MOL0     H94887   5.720   8.628   7.703  1.5616 -0.9839  1.7281
  703MOL0     H94888   5.689   8.868   7.696  0.6113 -1.1303 -1.0978
  703MOL0     H94889   4.817   9.341   7.023 -0.3430 -4.7082  1.5730
  703MOL0     H94890   4.592   9.331   7.110  1.3395  0.8797 -1.2086
  703MOL0     H94891   4.319   9.329   7.440  1.0541  1.3129  2.9916
  703MOL0     H94892   4.101   9.366   7.586  0.6400 -1.3881 -0.3904
  703MOL0     H94893   3.798   9.507   7.680  1.5074  1.5764  0.4145
  703MOL0     H94894   3.930   9.389   7.669 -1.7038 -1.7856  0.9334
  703MOL0     H94895   3.849   9.351   7.425 -0.4110  1.0357  0.1060
  703MOL0     H94896   3.692   9.424   7.484 -0.7122 -0.9065  0.8635
  703MOL0     H94897   3.637   9.224   7.563 -0.0425  0.0094 -0.0263
  703MOL0     H94898   3.760   9.235   7.681 -2.9470  1.6998 -0.8740
  703MOL0     H94899   3.770   9.036   7.537  2.0866  1.0330  0.8235
  703MOL0     H94900   3.829   9.118   7.399 -1.4902  2.5008 -0.5298
  703MOL0     H94901   4.178   9.103   7.637  1.0451  2.3007 -4.6330
  703MOL0     H94902   3.994   9.680   7.330 -0.4692 -0.6390 -2.1520
  703MOL0     H94903   4.238   9.653   7.089  1.7986 -3.0595  1.7023
  703MOL0     H94904   4.122   9.764   7.185  0.3881  0.8230  3.7145
  703MOL0     H94905   4.300   9.774   7.198  1.6971 -2.1009 -0.0554
  704MOL0     O94906   7.066  10.984   8.190 -0.3186 -0.3066  1.0394
  704MOL0     C94907   7.179  10.925   8.183  1.4003 -0.1966 -0.3411
  704MOL0     O94908   7.206  10.823   8.089  0.4876  0.1886 -0.5302
  704MOL0     C94909   7.127  10.822   7.970  0.9998 -0.0986 -0.9488
  704MOL0     C94910   7.110  10.703   7.907 -0.3815  0.0634 -0.7872
  704MOL0     C94911   7.055  10.689   7.778 -0.0686  0.0319 -0.7142
  704MOL0     C94912   7.005  10.800   7.714  0.8149 -0.0925 -0.5585
  704MOL0     O94913   6.957  10.800   7.590 -0.1593  0.4257 -0.4512
  704MOL0     C94914   7.036  10.869   7.480  0.0822  0.8635 -0.1193
  704MOL0     C94915   7.164  10.809   7.440 -0.3883  0.0695 -0.0819
  704MOL0     C94916   7.152  10.664   7.423  0.3734  0.4993 -0.3394
  704MOL0     C94917   7.217  10.615   7.295 -1.0223  0.4008 -0.2230
  704MOL0     C94918   7.373  10.618   7.305 -0.3685  0.0230 -0.4438
  704MOL0     C94919   7.446  10.546   7.201 -0.4357 -0.0971  0.3245
  704MOL0     C94920   7.598  10.552   7.221  0.2716 -0.1805  0.4249
  704MOL0     C94921   7.664  10.443   7.142 -0.0172 -0.2810  0.2637
  704MOL0     N94922   7.807  10.451   7.156 -0.5302 -0.0620 -1.1336
  704MOL0     C94923   7.894  10.442   7.260  0.3759 -0.3582 -0.7564
  704MOL0     C94924   8.017  10.453   7.214 -1.2042  1.0936  1.1780
  704MOL0     C94925   8.142  10.455   7.284 -0.6682  0.1552 -0.3083
  704MOL0     C94926   8.163  10.336   7.388 -0.6934 -0.7736 -0.5736
  704MOL0     C94927   8.312  10.319   7.425  0.3041 -0.6765 -0.6445
  704MOL0     C94928   8.400  10.445   7.421 -0.1496  0.1681  0.5456
  704MOL0     O94929   8.343  10.556   7.474 -0.7809 -0.1302 -0.1460
  704MOL0     C94930   8.301  10.569   7.609  0.2350  0.8191  1.0260
  704MOL0     C94931   8.209  10.670   7.641  0.3340 -0.5493  1.2847
  704MOL0     C94932   8.147  10.683   7.765  0.5063 -0.1783 -0.7461
  704MOL0     C94933   8.170  10.593   7.869  0.0445  0.7739  1.0866
  704MOL0     C94934   8.114  10.617   8.001  0.6963 -0.5503  0.0267
  704MOL0     O94935   8.097  10.751   8.039 -1.2012  0.9312  0.4516
  704MOL0     C94936   8.058  10.778   8.159 -0.3390 -0.1131 -0.5960
  704MOL0     C94937   8.146  10.780   8.266  1.0310 -0.0068  0.4643
  704MOL0     C94938   8.103  10.802   8.394 -0.2081  0.2014  0.1287
  704MOL0     C94939   7.964  10.833   8.419  0.0145 -0.4367 -0.6471
  704MOL0     O94940   7.927  10.859   8.549 -0.3250  0.5036  0.5760
  704MOL0     C94941   7.805  10.790   8.582  0.0212 -0.3803 -0.7680
  704MOL0     C94942   7.811  10.759   8.735  0.2710 -0.0956 -0.5968
  704MOL0     C94943   7.684  10.692   8.790  1.0341 -0.9958  0.2352
  704MOL0     C94944   7.695  10.602   8.912  1.1173 -0.5561  0.1299
  704MOL0     C94945   7.713  10.685   9.042 -0.6940 -0.0453 -0.3056
  704MOL0     C94946   7.759  10.609   9.160  1.2412  0.4249  1.3472
  704MOL0     C94947   7.759  10.681   9.294  0.1448 -0.0920 -0.2130
  704MOL0     C94948   7.622  10.738   9.342  0.0281 -1.0406  1.0929
  704MOL0    Cl94949   7.598  10.917   9.293 -0.2389 -0.2521  0.1896
  704MOL0     C94950   7.883  10.854   8.304  0.6366  0.4987  0.4826
  704MOL0     C94951   7.921  10.826   8.176 -0.3607  0.0359  0.0898
  704MOL0     O94952   8.079  10.518   8.061  0.5931  0.3446 -0.8723
  704MOL0     C94953   8.253  10.480   7.838 -0.3113 -0.0654  0.1032
  704MOL0     C94954   8.313  10.468   7.709  0.0675  0.3477  1.4601
  704MOL0     N94955   8.015  10.480   7.089  0.9298 -0.0354  0.0063
  704MOL0     N94956   7.894  10.476   7.049 -0.4153 -0.3115  0.1154
  704MOL0     C94957   7.029  10.922   7.777  0.9881 -0.6721 -0.4301
  704MOL0     C94958   7.082  10.935   7.903 -0.1860  0.6636  0.0987
  704MOL0     C94959   7.278  10.980   8.270 -0.3760  0.1411  0.3114
  704MOL0     C94960   7.237  11.070   8.369 -0.8250 -0.7619  0.4260
  704MOL0     C94961   7.328  11.137   8.446 -0.5094 -0.5454  0.1388
  704MOL0     C94962   7.465  11.120   8.437  0.4515 -0.2570  0.2492
  704MOL0     O94963   7.556  11.181   8.522 -0.2419 -0.0452 -0.1291
  704MOL0     C94964   7.662  11.250   8.451  0.6556 -0.0342 -0.5199
  704MOL0     C94965   7.749  11.300   8.554  0.7297 -0.1399  0.3576
  704MOL0     C94966   7.796  11.187   8.640 -0.3960  0.0069  0.3584
  704MOL0     C94967   7.881  11.226   8.763  0.0004  0.2801 -0.4570
  704MOL0     C94968   7.875  11.138   8.876 -1.8266 -0.2500  0.3940
  704MOL0     C94969   7.867  11.069   8.969 -0.2456 -0.1243  0.2282
  704MOL0     C94970   7.507  11.020   8.345  0.1675  1.0238 -0.4264
  704MOL0     C94971   7.416  10.948   8.267  0.7150  0.4674 -0.2084
  704MOL0     C94972   7.476  10.831   8.183  0.5249  0.8037 -0.2066
  704MOL0     H94973   7.159  10.611   7.938 -0.3498 -0.5284 -2.4792
  704MOL0     H94974   7.041  10.590   7.736  1.3207  0.8244 -3.3283
  704MOL0     H94975   6.980  10.860   7.387  2.1328 -0.1374 -1.3304
  704MOL0     H94976   7.043  10.973   7.513 -2.4617  0.3838  2.3443
  704MOL0     H94977   7.243  10.840   7.509  1.4648 -1.5515 -1.3710
  704MOL0     H94978   7.192  10.858   7.347  0.1020  1.5565  0.8166
  704MOL0     H94979   7.053  10.620   7.410 -0.1382  2.1059 -2.5364
  704MOL0     H94980   7.202  10.622   7.511  0.2747  2.2939  0.6318
  704MOL0     H94981   7.193  10.509   7.282 -0.0678  0.1317  0.1350
  704MOL0     H94982   7.163  10.661   7.211  0.4273  1.0981 -0.8137
  704MOL0     H94983   7.414  10.719   7.309 -0.5731  0.1639 -1.4506
  704MOL0     H94984   7.399  10.578   7.403 -2.1310 -0.1091 -0.0097
  704MOL0     H94985   7.406  10.445   7.189  0.7218 -0.3538 -2.0560
  704MOL0     H94986   7.421  10.583   7.102 -1.9401 -0.1863  0.6523
  704MOL0     H94987   7.631  10.526   7.322  1.2512 -0.4780  0.0378
  704MOL0     H94988   7.638  10.650   7.195  2.0269 -0.2575  2.5343
  704MOL0     H94989   7.621  10.349   7.178 -1.9887  0.1046 -0.8976
  704MOL0     H94990   7.640  10.444   7.036 -0.0532  0.2107  0.2709
  704MOL0     H94991   7.870  10.420   7.364 -3.4033  2.0154 -0.9237
  704MOL0     H94992   8.220  10.461   7.207  0.1544  1.4277  0.5658
  704MOL0     H94993   8.133  10.541   7.350 -1.6908 -0.4081  0.2999
  704MOL0     H94994   8.102  10.357   7.477 -1.9243  2.2146 -1.9722
  704MOL0     H94995   8.115  10.241   7.365 -1.4289 -0.8726  1.1691
  704MOL0     H94996   8.347  10.251   7.346 -0.6508  0.6803 -2.3159
  704MOL0     H94997   8.308  10.266   7.520 -0.2931  0.7411  0.1577
  704MOL0     H94998   8.416  10.475   7.317 -1.0749 -1.4134 -0.0881
  704MOL0     H94999   8.495  10.428   7.472 -0.0739 -0.6032  0.1638
  704MOL0     H95000   8.184  10.739   7.562 -1.2428 -2.3763  0.0708
  704MOL0     H95001   8.086  10.767   7.796 -0.2470 -1.5758  1.9503
  704MOL0     H95002   8.252  10.761   8.252  1.3327  1.7782  0.0731
  704MOL0     H95003   8.166  10.796   8.482  1.1355 -1.3055 -0.8726
  704MOL0     H95004   7.720  10.851   8.551 -0.7829 -2.9122 -4.0440
  704MOL0     H95005   7.796  10.689   8.542 -0.9142 -1.1629  1.2771
  704MOL0     H95006   7.901  10.699   8.751 -0.4044 -0.4418  2.4571
  704MOL0     H95007   7.831  10.852   8.789 -4.0654  0.8262 -0.2312
  704MOL0     H95008   7.615  10.772   8.819  0.1398 -1.9457  0.8035
  704MOL0     H95009   7.624  10.647   8.710  0.5987 -1.9710  1.0868
  704MOL0     H95010   7.774  10.528   8.897  2.1502  0.6658 -0.6304
  704MOL0     H95011   7.600  10.547   8.916 -0.2318  1.3678 -2.3871
  704MOL0     H95012   7.617  10.730   9.071 -0.9123  0.4000 -1.6396
  704MOL0     H95013   7.776  10.773   9.025 -0.2077 -0.5678 -1.3075
  704MOL0     H95014   7.704  10.515   9.160 -1.6015  1.9502 -0.5185
  704MOL0     H95015   7.864  10.585   9.140  0.9498 -1.3715  1.8203
  704MOL0     H95016   7.837  10.757   9.281  2.3910 -2.1244  0.7138
  704MOL0     H95017   7.785  10.613   9.376 -0.6189 -0.3816 -0.2019
  704MOL0     H95018   7.546  10.671   9.301 -1.5058 -0.8669  3.4119
  704MOL0     H95019   7.615  10.727   9.451 -0.1584 -3.0734  0.9092
  704MOL0     H95020   7.778  10.881   8.309  0.7507  1.0189  0.1129
  704MOL0     H95021   7.863  10.833   8.084 -0.5408  0.2127  0.2146
  704MOL0     H95022   8.264  10.402   7.913  0.9729 -2.2904 -2.2446
  704MOL0     H95023   8.369  10.377   7.693 -2.4624 -0.9544 -0.9208
  704MOL0     H95024   6.999  11.006   7.716 -1.2686 -1.0651  0.0309
  704MOL0     H95025   7.075  11.030   7.955 -1.9354 -0.3795  1.8921
  704MOL0     H95026   7.131  11.092   8.382 -1.4139 -0.4487 -3.7172
  704MOL0     H95027   7.279  11.196   8.522  0.3974 -1.6610  1.6265
  704MOL0     H95028   7.635  11.330   8.381 -1.9076 -2.0962 -2.0930
  704MOL0     H95029   7.716  11.185   8.382  2.3043  3.0561 -2.3634
  704MOL0     H95030   7.701  11.378   8.613 -1.1855 -2.0019  1.4240
  704MOL0     H95031   7.832  11.345   8.499 -0.2622 -2.3795 -3.3390
  704MOL0     H95032   7.853  11.113   8.582 -1.3184  1.1780 -2.1758
  704MOL0     H95033   7.704  11.144   8.679 -1.9522 -0.5968 -3.5769
  704MOL0     H95034   7.986  11.254   8.750  0.8369 -1.5482  1.7372
  704MOL0     H95035   7.828  11.317   8.792 -0.3048  0.4191 -1.4230
  704MOL0     H95036   7.857  11.000   9.050  0.9715 -1.0065 -0.3422
  704MOL0     H95037   7.611  10.990   8.341 -0.2400 -0.3750 -1.2293
  704MOL0     H95038   7.571  10.786   8.214 -0.8456 -3.5402 -1.7482
  704MOL0     H95039   7.409  10.745   8.181  3.0507 -1.2774 -1.8205
  704MOL0     H95040   7.476  10.878   8.084 -1.3585  0.4534 -0.4097
  705MOL0     O95041   1.332   0.822   6.638  0.5564 -0.3903 -0.5546
  705MOL0     C95042   1.279   0.734   6.567  0.2408 -0.1744  0.2163
  705MOL0     O95043   1.324   0.686   6.448 -0.3815 -0.0249  0.0584
  705MOL0     C95044   1.448   0.729   6.395  0.4641 -0.0164  1.4124
  705MOL0     C95045   1.492   0.654   6.291 -0.8871 -0.3266  0.8559
  705MOL0     C95046   1.612   0.689   6.228  0.5333  0.0233 -0.2464
  705MOL0     C95047   1.690   0.796   6.268  0.0234  1.2285  0.0077
  705MOL0     O95048   1.803   0.822   6.195  0.3649 -0.0499  0.6069
  705MOL0     C95049   1.920   0.823   6.274  0.1854  0.2184  0.3793
  705MOL0     C95050   1.995   0.953   6.244  0.3531 -0.3918  0.0800
  705MOL0     C95051   2.131   0.955   6.319 -1.1630  0.4671 -0.8603
  705MOL0     C95052   2.190   1.104   6.326  0.2487 -0.7079 -0.4182
  705MOL0     C95053   2.120   1.180   6.442 -0.5838 -0.3195 -0.3480
  705MOL0     C95054   2.189   1.311   6.484 -0.9603 -0.4719  0.9302
  705MOL0     C95055   2.120   1.423   6.393  0.0951  1.4251  0.8251
  705MOL0     C95056   2.201   1.546   6.387  0.1062  0.3489 -0.8891
  705MOL0     N95057   2.206   1.614   6.519 -1.6329  0.4225 -0.0084
  705MOL0     C95058   2.100   1.631   6.599  0.4208 -0.0061  0.1495
  705MOL0     C95059   2.155   1.687   6.709 -0.9860  0.6523  0.1469
  705MOL0     C95060   2.091   1.708   6.845  0.4191 -0.4017  0.5806
  705MOL0     C95061   2.066   1.581   6.917 -0.5657 -0.0588 -0.0714
  705MOL0     C95062   2.190   1.525   6.983  0.3096  0.1378 -0.1601
  705MOL0     C95063   2.198   1.560   7.134 -0.4414  0.0705 -0.0335
  705MOL0     O95064   2.181   1.696   7.167 -1.2640  0.2594  0.7399
  705MOL0     C95065   2.189   1.749   7.285 -0.3230  0.6074 -0.2269
  705MOL0     C95066   2.214   1.883   7.307  0.3933  0.4910  0.0628
  705MOL0     C95067   2.236   1.935   7.435  0.9495  0.2614  0.0665
  705MOL0     C95068   2.233   1.863   7.552  0.9812  1.6160  0.1608
  705MOL0     C95069   2.256   1.917   7.692 -0.6047 -0.0634  0.4491
  705MOL0     O95070   2.312   2.044   7.703  0.2568  0.4204 -0.3033
  705MOL0     C95071   2.355   2.079   7.834 -0.6623  0.4871  0.1864
  705MOL0     C95072   2.298   2.183   7.901  0.4478 -0.5733  0.3332
  705MOL0     C95073   2.317   2.221   8.033 -0.0760  0.7336 -0.0743
  705MOL0     C95074   2.428   2.165   8.096 -0.9430 -0.0498  0.0277
  705MOL0     O95075   2.488   2.203   8.208 -0.3656  0.8509 -0.3090
  705MOL0     C95076   2.435   2.293   8.308  0.3998  0.0510 -1.3960
  705MOL0     C95077   2.548   2.368   8.380  0.1119 -0.0236 -0.6549
  705MOL0     C95078   2.627   2.296   8.488  1.0389 -0.1593 -0.4303
  705MOL0     C95079   2.758   2.372   8.508 -0.0906 -0.2379 -0.2599
  705MOL0     C95080   2.849   2.284   8.598  0.6268 -0.4794  0.4109
  705MOL0     C95081   2.967   2.371   8.633 -0.3849 -0.0028 -0.2448
  705MOL0     C95082   3.060   2.301   8.734 -0.7296  0.1549 -0.4148
  705MOL0     C95083   3.189   2.372   8.775  0.6529 -0.3648  0.3904
  705MOL0    Cl95084   3.296   2.356   8.628  0.5274  0.0805  0.1563
  705MOL0     C95085   2.500   2.059   8.035  0.3534 -0.0073 -0.2148
  705MOL0     C95086   2.464   2.020   7.904 -0.2413  0.0885 -0.4413
  705MOL0     O95087   2.226   1.844   7.787 -0.3634 -0.1955 -1.0596
  705MOL0     C95088   2.193   1.726   7.533 -0.3288 -0.4599 -0.8067
  705MOL0     C95089   2.183   1.672   7.405 -0.1911  0.0799 -0.4987
  705MOL0     N95090   2.294   1.700   6.692  0.2041 -0.2609  0.8265
  705MOL0     N95091   2.328   1.645   6.579  0.5948  0.5177  0.1095
  705MOL0     C95092   1.649   0.879   6.375  0.4557  0.3091  0.5106
  705MOL0     C95093   1.523   0.844   6.434  0.0037 -0.3665 -0.3226
  705MOL0     C95094   1.150   0.691   6.623  0.2643 -0.2600 -0.4860
  705MOL0     C95095   1.143   0.654   6.759  0.1965  0.1430  0.5209
  705MOL0     C95096   1.035   0.584   6.822  0.3551 -0.6048  0.8651
  705MOL0     C95097   0.910   0.578   6.749  0.5660 -0.1887  0.6130
  705MOL0     O95098   0.800   0.513   6.813 -0.0752 -0.1183  0.2225
  705MOL0     C95099   0.681   0.459   6.738 -0.7234  0.6155 -0.2577
  705MOL0     C95100   0.575   0.392   6.829 -0.2188 -1.0812  0.7530
  705MOL0     C95101   0.462   0.320   6.755 -0.3387  0.2305 -0.2362
  705MOL0     C95102   0.333   0.317   6.830  0.2550  0.3864  1.6072
  705MOL0     C95103   0.235   0.254   6.741  0.2501  0.2889 -0.1774
  705MOL0     C95104   0.152   0.223   6.657  1.0293  0.4637  0.2693
  705MOL0     C95105   0.911   0.620   6.613  0.1858 -0.1837 -0.1629
  705MOL0     C95106   1.031   0.669   6.544  0.0400  0.0379 -0.0997
  705MOL0     C95107   1.019   0.719   6.397 -0.0832 -0.7300 -0.5564
  705MOL0     H95108   1.455   0.554   6.274  1.3303 -0.8200 -1.7593
  705MOL0     H95109   1.670   0.634   6.154  3.6802  0.6507  1.5773
  705MOL0     H95110   1.896   0.826   6.380 -2.2738 -2.0344 -0.0276
  705MOL0     H95111   1.981   0.736   6.247 -1.9919 -1.9164  1.9170
  705MOL0     H95112   1.940   1.041   6.277 -0.1020  0.4561 -2.6905
  705MOL0     H95113   2.023   0.961   6.139 -1.2657  3.0803 -0.2101
  705MOL0     H95114   2.205   0.895   6.264 -0.2137  0.9909 -0.1848
  705MOL0     H95115   2.119   0.918   6.421  0.5388 -0.7214 -1.0495
  705MOL0     H95116   2.297   1.093   6.348 -0.1397  0.2917  2.4070
  705MOL0     H95117   2.166   1.160   6.235 -1.9655 -1.4739 -0.3459
  705MOL0     H95118   2.019   1.212   6.414 -0.5580  0.3673  0.2972
  705MOL0     H95119   2.121   1.110   6.526 -2.3279  1.8048  1.5769
  705MOL0     H95120   2.172   1.325   6.591  0.0991 -1.7354  1.2965
  705MOL0     H95121   2.298   1.306   6.473 -0.6275  0.4200  3.2586
  705MOL0     H95122   2.016   1.435   6.425 -1.1071 -1.7681 -1.4206
  705MOL0     H95123   2.115   1.383   6.291 -0.5838  0.8719  1.0723
  705MOL0     H95124   2.296   1.524   6.338 -1.0049 -4.3550 -1.4306
  705MOL0     H95125   2.142   1.603   6.316 -0.4873 -1.3462 -1.8152
  705MOL0     H95126   1.995   1.603   6.594  0.1746  0.6290  1.4348
  705MOL0     H95127   2.152   1.780   6.899  1.5028 -1.2669  0.5394
  705MOL0     H95128   1.997   1.753   6.811  2.0112  2.7512  0.0079
  705MOL0     H95129   1.991   1.594   6.996 -0.5959  0.1693 -0.1368
  705MOL0     H95130   2.035   1.500   6.851 -2.6539  0.0592  0.6931
  705MOL0     H95131   2.279   1.563   6.933 -0.2922 -1.2964 -2.4863
  705MOL0     H95132   2.184   1.417   6.967 -1.8032 -0.0965  1.7317
  705MOL0     H95133   2.304   1.540   7.150 -0.3413 -0.8110 -1.5918
  705MOL0     H95134   2.139   1.495   7.199 -1.4935  0.1800 -0.8592
  705MOL0     H95135   2.234   1.953   7.226 -0.9054  0.6814 -0.1251
  705MOL0     H95136   2.279   2.035   7.442  1.5061  0.0883 -0.6905
  705MOL0     H95137   2.205   2.224   7.862  0.6600  0.7900  1.2191
  705MOL0     H95138   2.259   2.296   8.086 -1.2420  0.1473 -0.4910
  705MOL0     H95139   2.378   2.378   8.269  2.3089  1.2224 -1.7991
  705MOL0     H95140   2.366   2.235   8.369  0.2903 -0.9164 -2.3923
  705MOL0     H95141   2.606   2.411   8.298 -1.8498  1.4994 -1.3498
  705MOL0     H95142   2.497   2.456   8.423  1.2880  1.2198 -1.7214
  705MOL0     H95143   2.565   2.286   8.578  1.4864  2.2928  0.2234
  705MOL0     H95144   2.649   2.196   8.449  0.1756  0.7582 -3.5173
  705MOL0     H95145   2.734   2.464   8.562 -0.4710  0.4796 -1.5884
  705MOL0     H95146   2.805   2.398   8.412  0.2732  1.6293  0.3752
  705MOL0     H95147   2.889   2.204   8.536  0.0862 -0.5085  0.0990
  705MOL0     H95148   2.794   2.237   8.681  1.6594 -1.9143  0.3201
  705MOL0     H95149   3.026   2.407   8.548 -0.5524  1.2265  0.1406
  705MOL0     H95150   2.922   2.452   8.690 -1.4474 -3.0935  3.8207
  705MOL0     H95151   3.084   2.208   8.682  3.1220  1.0003 -0.4893
  705MOL0     H95152   3.001   2.280   8.824 -2.5641  2.9634 -0.8279
  705MOL0     H95153   3.163   2.473   8.808  1.8872  0.0590  0.1213
  705MOL0     H95154   3.245   2.321   8.854  2.0495 -1.1488 -1.0430
  705MOL0     H95155   2.588   2.031   8.092  0.0580 -1.8983 -0.6157
  705MOL0     H95156   2.528   1.948   7.855 -1.9751 -1.2124 -0.8564
  705MOL0     H95157   2.179   1.659   7.616  0.1505 -0.5731 -0.8156
  705MOL0     H95158   2.171   1.565   7.418 -2.4013  0.6136  3.1256
  705MOL0     H95159   1.713   0.961   6.406 -2.0987  3.2582 -1.5186
  705MOL0     H95160   1.490   0.915   6.510 -0.3740  0.4200 -1.1988
  705MOL0     H95161   1.227   0.671   6.825  1.7210 -1.1565 -0.9746
  705MOL0     H95162   1.043   0.574   6.929  0.6784  0.7735  0.9905
  705MOL0     H95163   0.715   0.378   6.673 -1.3434 -0.5528  0.8315
  705MOL0     H95164   0.631   0.534   6.675 -1.3317  0.1057 -0.3899
  705MOL0     H95165   0.545   0.476   6.892 -1.5632 -1.9241  1.2797
  705MOL0     H95166   0.623   0.321   6.897  1.6310 -0.9748 -0.3522
  705MOL0     H95167   0.496   0.219   6.732  1.8661  0.4008  1.8539
  705MOL0     H95168   0.444   0.372   6.661  0.3985  1.5862  0.3486
  705MOL0     H95169   0.337   0.257   6.921 -0.9256  0.7441  1.9150
  705MOL0     H95170   0.304   0.418   6.859 -1.6606  0.4071 -0.1268
  705MOL0     H95171   0.082   0.205   6.578 -1.2552  1.2330  1.9937
  705MOL0     H95172   0.821   0.601   6.555  1.0729 -2.9185 -0.7838
  705MOL0     H95173   0.924   0.694   6.350  0.9536 -1.0586 -2.5933
  705MOL0     H95174   1.027   0.828   6.396  0.8658 -0.7690  0.4790
  705MOL0     H95175   1.110   0.680   6.349  1.7395  1.3468  1.0496
  706MOL0     O95176   7.142   1.938   5.591  0.7772  0.1036  0.3125
  706MOL0     C95177   7.217   2.033   5.614  0.5542 -0.3743 -1.1074
  706MOL0     O95178   7.354   2.033   5.613  0.1940  1.2140  0.2153
  706MOL0     C95179   7.432   1.959   5.523 -0.7684  0.4438  0.9013
  706MOL0     C95180   7.564   1.995   5.522 -0.7622  0.0536 -0.7931
  706MOL0     C95181   7.655   1.945   5.429 -0.0377 -0.8574 -0.8910
  706MOL0     C95182   7.609   1.860   5.326  0.0659  0.6838  0.3655
  706MOL0     O95183   7.683   1.797   5.224  0.1860 -0.2117  0.0300
  706MOL0     C95184   7.806   1.852   5.177 -1.2352 -0.5476 -0.1765
  706MOL0     C95185   7.847   1.800   5.040 -0.1624  1.4465  0.7133
  706MOL0     C95186   7.735   1.804   4.929 -0.2930  1.1514 -0.2525
  706MOL0     C95187   7.728   1.940   4.874  1.0815 -0.5487  0.0627
  706MOL0     C95188   7.656   1.920   4.734 -0.9049  0.0696  0.4960
  706MOL0     C95189   7.646   2.050   4.648 -0.7659  0.3873 -0.7712
  706MOL0     C95190   7.777   2.123   4.632 -1.1145  0.7094 -0.2338
  706MOL0     C95191   7.783   2.188   4.492 -0.0873 -0.5095  0.0261
  706MOL0     N95192   7.906   2.265   4.463 -0.6725  0.2567  0.1026
  706MOL0     C95193   8.001   2.310   4.559  0.0626 -0.0329 -0.7960
  706MOL0     C95194   8.105   2.359   4.474  0.1601 -0.3306 -0.6383
  706MOL0     C95195   8.216   2.435   4.541 -0.4191 -0.1546  0.1141
  706MOL0     C95196   8.342   2.336   4.576 -0.3030 -1.0988  0.2666
  706MOL0     C95197   8.303   2.236   4.685  0.2407 -1.1028 -0.2666
  706MOL0     C95198   8.423   2.173   4.737 -0.8009  0.8942  0.0140
  706MOL0     O95199   8.498   2.269   4.812  0.3441  0.5943  0.2646
  706MOL0     C95200   8.608   2.226   4.886  0.0412  0.2740  0.0317
  706MOL0     C95201   8.637   2.094   4.930  0.9563  0.0211  0.9482
  706MOL0     C95202   8.754   2.064   5.007 -0.4366 -0.6274 -0.1981
  706MOL0     C95203   8.851   2.162   5.040 -0.3386  0.2385 -0.2088
  706MOL0     C95204   8.981   2.133   5.110  0.2635 -0.7381  0.5133
  706MOL0     O95205   9.010   2.003   5.143  0.3504 -0.0719 -0.6444
  706MOL0     C95206   9.136   1.953   5.164  0.2767  0.5401  0.2863
  706MOL0     C95207   9.136   1.841   5.246 -0.0856 -0.2860  0.0334
  706MOL0     C95208   9.260   1.777   5.273 -1.2635  0.3917 -0.5175
  706MOL0     C95209   9.382   1.839   5.228  1.0131  0.6486  0.2918
  706MOL0     O95210   9.509   1.785   5.232  0.2158 -0.1125 -0.1180
  706MOL0     C95211   9.534   1.711   5.344 -0.4821  0.3621  0.9642
  706MOL0     C95212   9.518   1.790   5.475 -0.5322  0.2043  0.2705
  706MOL0     C95213   9.588   1.925   5.465 -0.6739  0.3204  0.7334
  706MOL0     C95214   9.574   1.995   5.602  0.4656 -0.3060 -0.0978
  706MOL0     C95215   9.656   2.127   5.609 -0.9178 -0.9174  0.5719
  706MOL0     C95216   9.687   2.161   5.753 -0.1107 -0.1278  0.5312
  706MOL0     C95217   9.603   2.255   5.835 -1.0013 -0.0364  0.3089
  706MOL0     C95218   9.461   2.192   5.880 -1.1150 -0.2940  0.0379
  706MOL0    Cl95219   9.508   2.046   5.971  0.1350 -0.0611 -0.4085
  706MOL0     C95220   9.379   1.956   5.150 -0.4231 -0.5824 -0.1455
  706MOL0     C95221   9.254   2.015   5.120  0.0393 -0.1359  0.2251
  706MOL0     O95222   9.056   2.235   5.114 -0.0360  0.1054  0.4328
  706MOL0     C95223   8.827   2.292   4.989  0.1039  0.3097  0.7774
  706MOL0     C95224   8.703   2.328   4.926 -0.4935  0.0694  0.4607
  706MOL0     N95225   8.078   2.328   4.339 -0.1098  0.0336 -0.5333
  706MOL0     N95226   7.948   2.284   4.334 -0.3676  0.7941 -1.1978
  706MOL0     C95227   7.468   1.821   5.325 -0.0035  0.0966 -0.0149
  706MOL0     C95228   7.388   1.873   5.422  0.5806 -0.2107  0.1606
  706MOL0     C95229   7.162   2.166   5.615 -0.1583  0.5988  0.2129
  706MOL0     C95230   7.031   2.184   5.559  0.6817 -0.2823 -0.2555
  706MOL0     C95231   6.969   2.315   5.560 -1.0396  0.0582 -0.6043
  706MOL0     C95232   7.032   2.427   5.619 -0.7705 -0.5603  0.6663
  706MOL0     O95233   6.982   2.559   5.611  0.5128  1.1440 -0.2094
  706MOL0     C95234   6.845   2.576   5.644  0.4720 -0.2210  0.4474
  706MOL0     C95235   6.773   2.643   5.524  0.0795  0.3929 -0.7135
  706MOL0     C95236   6.823   2.585   5.387 -0.0125  0.1469 -0.6040
  706MOL0     C95237   6.742   2.640   5.267 -0.0460 -0.1946 -1.0243
  706MOL0     C95238   6.791   2.772   5.236  0.1618 -0.7399  0.8249
  706MOL0     C95239   6.834   2.886   5.216 -0.1095  0.0861 -0.8682
  706MOL0     C95240   7.163   2.411   5.657 -0.5660 -0.1245 -0.2946
  706MOL0     C95241   7.232   2.285   5.667 -0.1066  0.3698  0.1360
  706MOL0     C95242   7.359   2.284   5.732 -0.3650  0.4785  0.5964
  706MOL0     H95243   7.607   2.062   5.596  0.9447 -1.6679 -0.1286
  706MOL0     H95244   7.755   1.985   5.430 -0.3822  0.0905 -2.3705
  706MOL0     H95245   7.791   1.960   5.173  4.1111  0.4359 -2.2466
  706MOL0     H95246   7.876   1.840   5.260 -2.0094  2.7021  1.0941
  706MOL0     H95247   7.885   1.698   5.051  0.5743  1.4440 -1.4809
  706MOL0     H95248   7.939   1.843   4.999  0.7144  0.6251  1.7289
  706MOL0     H95249   7.634   1.780   4.965 -0.9516  0.1114 -2.5676
  706MOL0     H95250   7.758   1.729   4.853 -1.8437  0.9399 -0.5486
  706MOL0     H95251   7.676   2.007   4.944  2.9162  1.6390 -0.5322
  706MOL0     H95252   7.825   1.985   4.851 -0.0631  2.2560  0.2627
  706MOL0     H95253   7.699   1.842   4.670 -2.8460  0.1698 -1.0047
  706MOL0     H95254   7.557   1.887   4.767 -1.3509  0.3035 -0.5800
  706MOL0     H95255   7.609   2.016   4.551  0.4830  1.5561 -1.6932
  706MOL0     H95256   7.566   2.109   4.695 -1.8733 -1.4374 -0.2541
  706MOL0     H95257   7.854   2.046   4.641 -3.9439 -2.7317 -2.6850
  706MOL0     H95258   7.797   2.197   4.710 -0.3657  0.2219  0.0449
  706MOL0     H95259   7.765   2.114   4.414 -0.4271  2.3085 -2.7828
  706MOL0     H95260   7.702   2.261   4.475  2.6011  2.3205 -1.6496
  706MOL0     H95261   8.008   2.303   4.667  2.4623 -5.6815 -0.9833
  706MOL0     H95262   8.267   2.492   4.463 -1.8189 -0.7382 -1.2858
  706MOL0     H95263   8.176   2.499   4.620 -4.7712  1.0552 -2.7286
  706MOL0     H95264   8.371   2.290   4.481 -1.3804  3.2934 -2.4866
  706MOL0     H95265   8.424   2.394   4.618 -0.3733 -2.0411  1.7782
  706MOL0     H95266   8.230   2.167   4.641  1.7348 -2.6017 -0.5132
  706MOL0     H95267   8.259   2.290   4.769  1.3386 -2.2172  1.0755
  706MOL0     H95268   8.483   2.140   4.652 -0.7056  2.7569 -0.6889
  706MOL0     H95269   8.399   2.092   4.806  0.3187 -1.2892 -2.0084
  706MOL0     H95270   8.581   2.004   4.907  1.5950 -0.6059  1.7898
  706MOL0     H95271   8.776   1.965   5.044  0.5011  0.6851  3.0812
  706MOL0     H95272   9.033   1.818   5.271 -1.4364  1.1594 -3.5363
  706MOL0     H95273   9.257   1.679   5.319  3.5206  0.1410 -0.2586
  706MOL0     H95274   9.464   1.627   5.346 -0.0625 -0.0569  4.1004
  706MOL0     H95275   9.635   1.671   5.330 -1.4064 -0.7879 -4.7970
  706MOL0     H95276   9.411   1.804   5.495 -0.5242 -1.2340  1.4951
  706MOL0     H95277   9.556   1.733   5.560 -0.1832  3.2767  2.3435
  706MOL0     H95278   9.694   1.915   5.442 -0.1418  0.4734  2.8658
  706MOL0     H95279   9.541   1.979   5.382  0.4999 -0.3999 -0.4254
  706MOL0     H95280   9.619   1.929   5.677  3.8026 -1.7212 -3.0482
  706MOL0     H95281   9.469   2.012   5.628  0.0849 -0.3625 -1.5470
  706MOL0     H95282   9.603   2.208   5.558  1.3427 -1.1381 -2.4242
  706MOL0     H95283   9.753   2.117   5.560 -1.9887 -0.1008 -1.8766
  706MOL0     H95284   9.701   2.068   5.809 -1.7211  0.1442  1.4401
  706MOL0     H95285   9.783   2.215   5.759 -0.1653 -0.1838  3.0165
  706MOL0     H95286   9.585   2.339   5.767  1.4133 -1.4163 -2.2454
  706MOL0     H95287   9.655   2.287   5.926  4.8036 -1.7190 -1.9526
  706MOL0     H95288   9.395   2.255   5.939 -1.3991 -2.9261  2.7967
  706MOL0     H95289   9.400   2.163   5.793 -2.3200 -0.8813  1.0490
  706MOL0     H95290   9.472   1.984   5.102 -0.6366  2.1868  0.8410
  706MOL0     H95291   9.257   2.089   5.040  1.0374 -0.7388 -0.3150
  706MOL0     H95292   8.895   2.369   5.023 -1.0146  1.1615  1.1185
  706MOL0     H95293   8.699   2.430   4.888  0.3602 -0.0706 -0.0342
  706MOL0     H95294   7.438   1.749   5.249  0.6029 -1.5581  1.2347
  706MOL0     H95295   7.282   1.848   5.423  0.4251  0.0956  3.7734
  706MOL0     H95296   6.983   2.097   5.515  1.4867 -1.2658  0.7704
  706MOL0     H95297   6.871   2.331   5.516 -1.1110  2.9541  0.4305
  706MOL0     H95298   6.822   2.625   5.740  0.4311 -0.5466  0.6041
  706MOL0     H95299   6.797   2.478   5.654 -0.9392  0.4358  0.4499
  706MOL0     H95300   6.801   2.749   5.527  0.4065  0.3876 -2.3061
  706MOL0     H95301   6.664   2.634   5.537  0.3302 -2.0223  0.1219
  706MOL0     H95302   6.788   2.482   5.398 -1.6497  0.6694 -0.5559
  706MOL0     H95303   6.930   2.587   5.367  0.6577 -1.7927  2.1733
  706MOL0     H95304   6.734   2.573   5.181  0.0777  0.6066 -1.6764
  706MOL0     H95305   6.638   2.644   5.299  0.0287 -2.5500 -0.3279
  706MOL0     H95306   6.866   2.988   5.206 -1.8219  0.7181 -0.2715
  706MOL0     H95307   7.208   2.497   5.706 -2.1809  0.6262 -0.0696
  706MOL0     H95308   7.426   2.283   5.646 -4.5701  2.4837 -3.1086
  706MOL0     H95309   7.380   2.375   5.788 -0.8531 -0.2194  1.9791
  706MOL0     H95310   7.372   2.202   5.804  2.1139  0.8885  0.6747
  707MOL0     O95311   9.006   4.732   1.525  0.6853  0.5006 -0.2584
  707MOL0     C95312   8.887   4.770   1.525  0.6937  0.4186 -0.1631
  707MOL0     O95313   8.813   4.801   1.424 -0.1297  0.4544 -0.0473
  707MOL0     C95314   8.867   4.830   1.296  0.7659  0.3228 -0.2468
  707MOL0     C95315   8.770   4.830   1.203 -1.0085 -0.9078 -0.4537
  707MOL0     C95316   8.783   4.856   1.067  0.1559 -0.4135 -0.1992
  707MOL0     C95317   8.923   4.871   1.018 -0.7407  0.1727  0.2652
  707MOL0     O95318   8.960   4.886   0.884 -0.5529  0.4159 -0.5198
  707MOL0     C95319   8.862   4.837   0.789  0.1929  0.3373  0.1072
  707MOL0     C95320   8.900   4.873   0.645 -1.1628  0.6082 -1.3281
  707MOL0     C95321   8.937   5.018   0.624 -0.0108  0.6321 -0.9263
  707MOL0     C95322   8.813   5.109   0.628 -0.5873 -0.3255  0.2066
  707MOL0     C95323   8.854   5.250   0.614  0.4985  0.4302 -0.8078
  707MOL0     C95324   8.941   5.282   0.490  0.9468  0.4839  0.0275
  707MOL0     C95325   8.874   5.245   0.352  0.6776  0.8249 -0.7238
  707MOL0     C95326   8.756   5.345   0.308 -1.1654  1.7407  0.1620
  707MOL0     N95327   8.713   5.303   0.180  0.4497  0.3945  0.6307
  707MOL0     C95328   8.765   5.345   0.057  0.0956  0.0354  0.3890
  707MOL0     C95329   8.689   5.281  -0.033  0.1957 -0.7558 -0.1501
  707MOL0     C95330   8.708   5.294  -0.182  0.2710 -1.4580 -0.2480
  707MOL0     C95331   8.751   5.157  -0.232  0.2546 -0.0962  0.0730
  707MOL0     C95332   8.746   5.145  -0.389 -0.7876  0.2131  0.6440
  707MOL0     C95333   8.801   5.012  -0.440  0.1244  0.4291  0.0630
  707MOL0     O95334   8.944   5.001  -0.399  0.0550 -0.0213 -0.3768
  707MOL0     C95335   9.034   4.926  -0.463  0.4514 -0.1146  0.1874
  707MOL0     C95336   9.135   4.888  -0.376 -0.1196 -0.2843  0.7583
  707MOL0     C95337   9.230   4.800  -0.414 -1.3592 -0.6211  0.4073
  707MOL0     C95338   9.231   4.754  -0.550  0.5852  0.3585 -0.0474
  707MOL0     C95339   9.345   4.672  -0.605 -0.0048  0.2696 -1.0222
  707MOL0     O95340   9.429   4.631  -0.514  0.3033  0.0132 -0.0099
  707MOL0     C95341   9.519   4.531  -0.556 -0.3933 -0.6656  0.5142
  707MOL0     C95342   9.489   4.399  -0.575 -0.1792  0.6484  0.0417
  707MOL0     C95343   9.579   4.314  -0.638  0.1615  0.2638 -0.6777
  707MOL0     C95344   9.706   4.368  -0.681  0.2493  0.2527  0.7464
  707MOL0     O95345   9.797   4.284  -0.740  0.2791  0.7347  0.4365
  707MOL0     C95346   9.888   4.340  -0.827 -0.6338 -0.0259  0.1268
  707MOL0     C95347   9.944   4.218  -0.904 -0.5859  0.5291 -0.3625
  707MOL0     C95348  10.060   4.263  -0.999  0.5081  0.5253  0.3721
  707MOL0     C95349  10.195   4.206  -0.968  0.0097 -0.9077 -0.2883
  707MOL0     C95350  10.303   4.294  -1.044 -0.2740  0.7453  0.6960
  707MOL0     C95351  10.433   4.213  -1.042 -1.0618 -0.2240  0.7741
  707MOL0     C95352  10.556   4.288  -1.105 -0.3117 -0.4504 -0.0513
  707MOL0     C95353  10.539   4.297  -1.252 -0.0680 -0.3443  0.4895
  707MOL0    Cl95354  10.686   4.358  -1.328  0.3411 -0.1782  0.0767
  707MOL0     C95355   9.742   4.499  -0.640  0.1110 -0.4523 -0.8731
  707MOL0     C95356   9.652   4.585  -0.572  0.7645 -0.0277 -0.0671
  707MOL0     O95357   9.357   4.647  -0.730  0.4126 -0.3023 -0.6401
  707MOL0     C95358   9.132   4.799  -0.641 -0.4356  0.9876  0.2009
  707MOL0     C95359   9.036   4.890  -0.598 -1.1002  0.3839 -0.5641
  707MOL0     N95360   8.591   5.204   0.032  0.1385 -0.8129  0.2974
  707MOL0     N95361   8.601   5.226   0.154  0.3490  0.6465 -0.6740
  707MOL0     C95362   9.028   4.861   1.113 -0.0092  0.2556  0.3423
  707MOL0     C95363   9.002   4.850   1.249  0.4934  0.0913 -0.2574
  707MOL0     C95364   8.825   4.774   1.662  0.2818  0.4584 -0.0681
  707MOL0     C95365   8.688   4.798   1.672 -0.0281 -0.3569 -0.8500
  707MOL0     C95366   8.611   4.797   1.784  0.1300 -0.9432 -0.1347
  707MOL0     C95367   8.664   4.765   1.908 -0.2121 -0.2614 -0.7364
  707MOL0     O95368   8.611   4.785   2.034  0.1256 -0.0060  0.2721
  707MOL0     C95369   8.499   4.857   2.064  0.2816  0.0368  0.2410
  707MOL0     C95370   8.377   4.778   2.084  0.3531  0.0265 -0.4606
  707MOL0     C95371   8.258   4.863   2.140 -0.1387  0.0115  0.2672
  707MOL0     C95372   8.121   4.794   2.122 -0.4000  0.9680  0.1101
  707MOL0     C95373   8.056   4.832   1.997  0.6975 -0.2649 -0.7594
  707MOL0     C95374   8.006   4.866   1.899  0.1120  0.0586 -0.6597
  707MOL0     C95375   8.800   4.737   1.905 -0.6925  0.5776 -0.1218
  707MOL0     C95376   8.885   4.739   1.784  0.0694  0.3218 -0.4480
  707MOL0     C95377   9.041   4.707   1.804 -0.3107  0.7685 -0.3561
  707MOL0     H95378   8.674   4.808   1.249 -2.5775 -0.1293 -3.1393
  707MOL0     H95379   8.694   4.873   1.007 -1.5088  1.9030  2.6708
  707MOL0     H95380   8.838   4.731   0.802 -0.4757  0.4986  0.2256
  707MOL0     H95381   8.765   4.884   0.803  0.7406  1.8168 -0.7933
  707MOL0     H95382   8.817   4.850   0.577 -1.8985  2.5830 -1.1623
  707MOL0     H95383   8.995   4.825   0.621  1.3203  4.4824 -0.1321
  707MOL0     H95384   8.986   5.025   0.527  0.5460  0.5878 -0.6496
  707MOL0     H95385   8.998   5.040   0.711 -0.8532 -1.1651  0.1878
  707MOL0     H95386   8.732   5.090   0.556 -0.1705 -0.5797 -0.2021
  707MOL0     H95387   8.764   5.097   0.725 -1.1362  4.1180  0.6791
  707MOL0     H95388   8.761   5.308   0.613  0.1303 -0.1404 -1.8188
  707MOL0     H95389   8.910   5.282   0.701  0.0001 -0.1350 -0.2665
  707MOL0     H95390   8.977   5.384   0.479 -0.8093  1.3960  2.0502
  707MOL0     H95391   9.035   5.227   0.499  1.1607  0.9268  0.5482
  707MOL0     H95392   8.851   5.138   0.348  3.1063  0.0131  2.6219
  707MOL0     H95393   8.946   5.257   0.270 -1.7084 -0.8357 -3.2395
  707MOL0     H95394   8.667   5.331   0.371 -0.2593  0.2484  1.1767
  707MOL0     H95395   8.778   5.452   0.305  0.3036  1.4566  0.2707
  707MOL0     H95396   8.844   5.416   0.035 -0.6080  0.3570 -1.2294
  707MOL0     H95397   8.611   5.322  -0.225  0.2823  0.8531  1.0186
  707MOL0     H95398   8.784   5.371  -0.198 -0.0289 -1.5548 -2.5190
  707MOL0     H95399   8.851   5.134  -0.194  0.5735 -0.2518 -0.8519
  707MOL0     H95400   8.688   5.080  -0.187  1.0949 -1.7524 -1.4800
  707MOL0     H95401   8.800   5.220  -0.447 -1.2767 -0.7235 -1.0879
  707MOL0     H95402   8.642   5.151  -0.425 -1.0408  1.6260  1.5500
  707MOL0     H95403   8.790   5.008  -0.549  1.8298  0.4877 -0.1388
  707MOL0     H95404   8.752   4.924  -0.397  2.1676 -1.0817 -0.5325
  707MOL0     H95405   9.115   4.937  -0.280 -1.0321  1.6344 -0.3435
  707MOL0     H95406   9.314   4.779  -0.348  1.0269  2.8419 -1.2430
  707MOL0     H95407   9.387   4.368  -0.556 -0.5996 -0.6785 -3.6162
  707MOL0     H95408   9.546   4.211  -0.647 -0.2508  0.2127  1.0899
  707MOL0     H95409   9.839   4.405  -0.900 -1.0468  0.8895  1.1949
  707MOL0     H95410   9.972   4.386  -0.773  2.2524 -2.6442 -1.7308
  707MOL0     H95411   9.988   4.147  -0.834 -4.5095 -2.0085 -0.1465
  707MOL0     H95412   9.862   4.175  -0.962  0.1461 -0.8140 -0.4271
  707MOL0     H95413  10.028   4.212  -1.091  0.0199  0.2487  0.6921
  707MOL0     H95414  10.058   4.372  -1.005 -2.3926  0.5336 -0.1599
  707MOL0     H95415  10.213   4.101  -0.994 -0.0855 -0.3238 -3.0261
  707MOL0     H95416  10.210   4.218  -0.860 -2.2956  2.4841 -0.1956
  707MOL0     H95417  10.318   4.390  -0.995 -0.5746  1.8911 -1.3334
  707MOL0     H95418  10.272   4.311  -1.148  0.5789 -1.2561  0.0607
  707MOL0     H95419  10.457   4.199  -0.936  2.2395  0.8398  0.2899
  707MOL0     H95420  10.422   4.123  -1.104  0.6801  0.3425 -0.4468
  707MOL0     H95421  10.648   4.238  -1.074  0.2653  0.1023 -0.8465
  707MOL0     H95422  10.556   4.387  -1.057  0.8172  0.1315 -1.1966
  707MOL0     H95423  10.510   4.201  -1.297 -1.2248 -0.6338  1.7929
  707MOL0     H95424  10.465   4.367  -1.293 -1.7165 -0.2399  3.3566
  707MOL0     H95425   9.842   4.537  -0.662 -0.6296  0.7536 -2.3977
  707MOL0     H95426   9.675   4.686  -0.542  0.9648  0.0295 -0.4131
  707MOL0     H95427   9.145   4.766  -0.743  2.2642  3.5411 -0.4276
  707MOL0     H95428   8.959   4.919  -0.668 -1.2739  2.6048  0.4896
  707MOL0     H95429   9.134   4.873   1.092 -0.4603  1.1878 -1.6757
  707MOL0     H95430   9.090   4.850   1.313  0.1192  1.4346  0.2838
  707MOL0     H95431   8.633   4.830   1.584 -0.7463  0.8808  0.0175
  707MOL0     H95432   8.509   4.832   1.782  1.2390  3.0982  1.9483
  707MOL0     H95433   8.475   4.929   1.985  2.0768 -3.1647 -3.6316
  707MOL0     H95434   8.533   4.897   2.160  1.2471  0.0647 -0.1000
  707MOL0     H95435   8.398   4.682   2.132  2.6234  0.1294 -1.1139
  707MOL0     H95436   8.337   4.760   1.984  0.0927  3.9350 -1.2202
  707MOL0     H95437   8.245   4.966   2.106 -0.5969  0.1961  0.9839
  707MOL0     H95438   8.276   4.859   2.248  0.4034 -4.2753  0.1819
  707MOL0     H95439   8.124   4.684   2.125 -4.0500  0.7487 -0.2894
  707MOL0     H95440   8.060   4.818   2.210 -1.1879 -0.5060  0.0123
  707MOL0     H95441   7.970   4.902   1.805 -2.8726  1.2694  0.8115
  707MOL0     H95442   8.854   4.724   1.999 -0.1185 -2.9867 -0.7930
  707MOL0     H95443   9.070   4.686   1.907  1.1074 -0.3328 -0.9551
  707MOL0     H95444   9.068   4.620   1.744  0.4433  0.5473  0.3058
  707MOL0     H95445   9.118   4.780   1.777  2.6851 -1.7389  0.8179
  708MOL0     O95446   4.176   7.214   6.471  0.7315  0.4062 -0.3373
  708MOL0     C95447   4.058   7.193   6.456 -1.2131  0.0670  0.0087
  708MOL0     O95448   3.962   7.232   6.552 -0.4567  0.4466 -0.6067
  708MOL0     C95449   4.005   7.328   6.642  0.0254  0.8274 -0.1635
  708MOL0     C95450   3.955   7.460   6.632  0.3242  0.0883 -0.0557
  708MOL0     C95451   3.983   7.556   6.725  1.7150  0.2739 -0.4247
  708MOL0     C95452   4.053   7.527   6.841  1.0839  0.2987 -0.4311
  708MOL0     O95453   4.065   7.626   6.935 -0.3228 -0.0223 -0.2448
  708MOL0     C95454   4.167   7.616   7.041 -0.2881  0.5366  0.7814
  708MOL0     C95455   4.108   7.609   7.185 -0.4439 -0.8709 -0.4069
  708MOL0     C95456   4.199   7.544   7.283  0.0222  0.4754 -0.4101
  708MOL0     C95457   4.300   7.637   7.342 -0.7465 -0.4211  0.5980
  708MOL0     C95458   4.385   7.576   7.450 -1.8264  0.8688 -0.4305
  708MOL0     C95459   4.510   7.492   7.397  0.9791 -0.3203  0.7009
  708MOL0     C95460   4.555   7.391   7.503  0.5006  0.4896 -0.2879
  708MOL0     C95461   4.658   7.294   7.441  0.6552 -0.8190 -0.8127
  708MOL0     N95462   4.796   7.343   7.453  0.4345 -0.0193 -0.3635
  708MOL0     C95463   4.857   7.427   7.356 -0.2162 -0.4601  0.1344
  708MOL0     C95464   4.987   7.429   7.388  0.4128 -0.7016 -0.3528
  708MOL0     C95465   5.092   7.521   7.338 -0.3628 -0.1498  0.4276
  708MOL0     C95466   5.098   7.505   7.183 -1.3046 -1.5702 -0.1860
  708MOL0     C95467   5.209   7.595   7.137 -0.6906  1.0993  0.5351
  708MOL0     C95468   5.253   7.560   6.990  0.3027  0.0851  0.4792
  708MOL0     O95469   5.143   7.506   6.920  0.1753  0.1439 -0.5836
  708MOL0     C95470   5.179   7.457   6.799  0.7051 -0.1701  0.2721
  708MOL0     C95471   5.249   7.333   6.789  0.4333  0.1557 -0.0829
  708MOL0     C95472   5.283   7.281   6.663  0.0085 -0.3076 -0.2076
  708MOL0     C95473   5.246   7.348   6.547  0.4682  0.4075  1.2292
  708MOL0     C95474   5.266   7.297   6.412  0.3400 -0.3368 -0.2405
  708MOL0     O95475   5.298   7.168   6.400  0.9679 -0.5902  0.4286
  708MOL0     C95476   5.320   7.111   6.272  0.8079 -0.2296 -0.3379
  708MOL0     C95477   5.447   7.050   6.267 -0.4199 -0.4850  0.1952
  708MOL0     C95478   5.480   6.973   6.162 -0.0405 -0.0029  0.7657
  708MOL0     C95479   5.380   6.949   6.061  0.9919  0.7482  0.4014
  708MOL0     O95480   5.391   6.839   5.983  0.4625 -0.4780  0.1785
  708MOL0     C95481   5.514   6.773   5.965 -0.3693  0.4751 -1.0286
  708MOL0     C95482   5.513   6.686   5.839  0.2730 -0.3583 -0.4291
  708MOL0     C95483   5.610   6.570   5.834  0.7856 -0.6251 -1.1856
  708MOL0     C95484   5.751   6.610   5.869  0.8094 -0.3402 -0.1329
  708MOL0     C95485   5.858   6.515   5.827  0.2296  0.0023 -0.2134
  708MOL0     C95486   5.901   6.524   5.675  0.3630  0.5689  0.4891
  708MOL0     C95487   5.959   6.659   5.634 -0.1958 -0.2067 -0.1937
  708MOL0     C95488   6.105   6.681   5.675  0.5287 -0.1582  0.6530
  708MOL0    Cl95489   6.213   6.565   5.587  0.2518 -0.1478  0.4080
  708MOL0     C95490   5.252   7.009   6.069 -0.2157 -0.7876 -0.0161
  708MOL0     C95491   5.224   7.109   6.169 -0.0432 -0.1911  0.6216
  708MOL0     O95492   5.244   7.378   6.325  0.1346  0.1948  0.5594
  708MOL0     C95493   5.174   7.467   6.564  0.2375 -0.2055 -0.1356
  708MOL0     C95494   5.148   7.524   6.689 -0.2783  0.4137 -0.4955
  708MOL0     N95495   5.013   7.345   7.494 -0.1405  0.7140 -0.9636
  708MOL0     N95496   4.898   7.304   7.529 -0.0782  0.7008 -0.4510
  708MOL0     C95497   4.098   7.393   6.862 -0.4957  0.4562  0.3331
  708MOL0     C95498   4.074   7.298   6.763 -0.2455 -1.1105  0.3976
  708MOL0     C95499   4.019   7.106   6.356  0.5800  0.2632  0.1448
  708MOL0     C95500   3.879   7.084   6.333  0.4565  0.4562 -0.2894
  708MOL0     C95501   3.831   7.009   6.230  0.1232 -0.0812 -0.2194
  708MOL0     C95502   3.912   6.940   6.140 -0.2839  0.2142  0.1716
  708MOL0     O95503   3.852   6.864   6.040  0.2584 -0.5810 -0.1706
  708MOL0     C95504   3.926   6.853   5.917  0.0926  0.7800 -0.3115
  708MOL0     C95505   4.026   6.741   5.917  0.0953 -0.6005 -0.5429
  708MOL0     C95506   3.967   6.597   5.941 -0.7052 -0.0740 -0.5197
  708MOL0     C95507   3.836   6.556   5.867  1.0578  0.4740 -0.0767
  708MOL0     C95508   3.843   6.590   5.726  0.4795  0.6539 -0.5839
  708MOL0     C95509   3.855   6.623   5.612 -0.0996 -1.2008  0.2077
  708MOL0     C95510   4.058   6.966   6.160 -0.3718  1.0128 -0.2250
  708MOL0     C95511   4.112   7.044   6.263 -0.6382 -0.7388  0.4625
  708MOL0     C95512   4.263   7.057   6.264  0.1279  0.1121  0.0566
  708MOL0     H95513   3.896   7.479   6.543 -0.0987  0.1870  0.2455
  708MOL0     H95514   3.940   7.654   6.707 -2.1879 -1.1193  0.3512
  708MOL0     H95515   4.230   7.526   7.035 -1.5180 -0.3717  1.0632
  708MOL0     H95516   4.230   7.704   7.026  0.9349 -0.2294  1.2301
  708MOL0     H95517   4.009   7.561   7.185 -0.6853 -0.3800  0.0022
  708MOL0     H95518   4.084   7.712   7.215  2.2988  1.6316 -5.4811
  708MOL0     H95519   4.259   7.462   7.243  1.2121  0.5267  1.1602
  708MOL0     H95520   4.139   7.508   7.366  0.8329 -1.7006 -0.7211
  708MOL0     H95521   4.362   7.683   7.265 -1.6849  0.4855  0.3543
  708MOL0     H95522   4.241   7.712   7.397 -2.0788 -1.2553  0.3495
  708MOL0     H95523   4.429   7.651   7.517  0.0672  0.6329 -1.3222
  708MOL0     H95524   4.330   7.505   7.513 -1.2047 -0.9129 -1.8002
  708MOL0     H95525   4.479   7.426   7.316  0.5188 -2.4888  2.5413
  708MOL0     H95526   4.591   7.556   7.362  2.2699 -1.6626  1.1609
  708MOL0     H95527   4.465   7.335   7.533  1.5813 -1.9224 -1.3147
  708MOL0     H95528   4.588   7.452   7.587 -2.1973 -1.2480  2.2506
  708MOL0     H95529   4.655   7.210   7.511  1.0789  0.5044  0.8577
  708MOL0     H95530   4.639   7.253   7.341  0.4545  0.2246 -1.2241
  708MOL0     H95531   4.810   7.483   7.276  2.2059 -1.7597 -2.3797
  708MOL0     H95532   5.066   7.625   7.362  3.4800  1.6552 -2.1878
  708MOL0     H95533   5.192   7.495   7.376  0.7058  1.8577 -0.8542
  708MOL0     H95534   5.116   7.398   7.165  0.3093 -0.9889 -2.4240
  708MOL0     H95535   5.002   7.531   7.137 -0.4369 -1.4210 -1.9854
  708MOL0     H95536   5.303   7.587   7.192 -0.6169  3.1002  0.7758
  708MOL0     H95537   5.178   7.699   7.150  1.2831  1.8030 -0.0031
  708MOL0     H95538   5.338   7.491   6.994  0.6035  0.4468  0.3466
  708MOL0     H95539   5.280   7.651   6.935 -2.6137  0.4983 -0.4556
  708MOL0     H95540   5.266   7.281   6.883 -2.9068 -2.5847 -0.7654
  708MOL0     H95541   5.321   7.180   6.656 -1.5064 -0.9044 -0.2295
  708MOL0     H95542   5.512   7.066   6.352 -0.3737 -3.4109  0.7876
  708MOL0     H95543   5.573   6.916   6.162 -0.1962 -0.3007 -0.9234
  708MOL0     H95544   5.610   6.826   5.973 -0.2175  0.0563  0.1656
  708MOL0     H95545   5.517   6.703   6.049 -1.2884 -0.1496 -1.5083
  708MOL0     H95546   5.416   6.637   5.826 -0.9350 -0.2239  5.3950
  708MOL0     H95547   5.542   6.758   5.762  0.1574 -0.8995 -0.9836
  708MOL0     H95548   5.571   6.489   5.896  0.3077  0.7115  0.3371
  708MOL0     H95549   5.600   6.524   5.735 -1.3598 -0.2074 -1.2137
  708MOL0     H95550   5.761   6.628   5.977 -1.8496 -2.9095  0.6619
  708MOL0     H95551   5.764   6.708   5.821 -1.4387  0.4877  0.7960
  708MOL0     H95552   5.854   6.412   5.862  3.6105 -0.2047 -0.1104
  708MOL0     H95553   5.948   6.548   5.880 -1.0823 -0.9946  2.8001
  708MOL0     H95554   5.958   6.433   5.653 -2.0010 -0.5823 -1.3997
  708MOL0     H95555   5.814   6.517   5.609 -0.1031 -0.3003  1.1674
  708MOL0     H95556   5.886   6.732   5.669 -1.3810 -2.6587  2.9496
  708MOL0     H95557   5.957   6.670   5.525 -0.5032  0.2091 -0.1476
  708MOL0     H95558   6.136   6.785   5.659  1.5702 -0.5363  0.1775
  708MOL0     H95559   6.113   6.662   5.783 -0.3288  1.9163  1.1378
  708MOL0     H95560   5.178   6.994   5.991  3.1553  2.4866 -4.3941
  708MOL0     H95561   5.127   7.155   6.180 -0.2568 -0.5572  0.2682
  708MOL0     H95562   5.143   7.528   6.480 -2.3504 -1.1726  0.0130
  708MOL0     H95563   5.090   7.616   6.691 -2.0520 -0.6442 -1.3785
  708MOL0     H95564   4.160   7.361   6.946  1.1106 -1.1073 -1.3589
  708MOL0     H95565   4.109   7.196   6.776 -2.4228 -1.8500  0.8197
  708MOL0     H95566   3.816   7.133   6.407  2.2134  0.3629  1.3513
  708MOL0     H95567   3.725   6.986   6.236  0.3591 -1.1204  0.2354
  708MOL0     H95568   3.980   6.941   5.882  3.4067 -0.6204  0.8588
  708MOL0     H95569   3.850   6.846   5.839 -0.5273  2.9645  0.0263
  708MOL0     H95570   4.110   6.753   5.986 -3.2807  4.2038  3.4895
  708MOL0     H95571   4.083   6.758   5.826  0.5692  0.2837 -0.1010
  708MOL0     H95572   3.948   6.583   6.048 -1.2776 -0.0624 -0.6159
  708MOL0     H95573   4.047   6.525   5.916  3.0686  3.7261 -0.5146
  708MOL0     H95574   3.816   6.449   5.876 -2.3798  1.0992  1.1579
  708MOL0     H95575   3.756   6.605   5.923  1.8800  1.4602  0.2689
  708MOL0     H95576   3.878   6.628   5.508 -0.6537  0.5819  0.1529
  708MOL0     H95577   4.129   6.911   6.098 -1.5414 -1.6547  0.6227
  708MOL0     H95578   4.300   7.012   6.356 -0.5293  0.6479  0.5866
  708MOL0     H95579   4.307   7.007   6.177  0.6549 -2.0258  1.4942
  708MOL0     H95580   4.300   7.159   6.273 -1.3099  0.4997  2.5358
  709MOL0     O95581   5.635   5.733   2.083 -0.1709  0.5448  0.1573
  709MOL0     C95582   5.610   5.641   2.164  0.8094 -0.0697  0.1382
  709MOL0     O95583   5.509   5.652   2.261  0.1588 -0.1186  0.1011
  709MOL0     C95584   5.477   5.770   2.314 -0.4670 -0.4595  1.6484
  709MOL0     C95585   5.563   5.828   2.413  0.3461 -0.7233 -0.0384
  709MOL0     C95586   5.529   5.958   2.463 -0.8776  0.3593  1.0248
  709MOL0     C95587   5.414   6.026   2.428 -0.0555  0.0032  0.6307
  709MOL0     O95588   5.387   6.137   2.501  0.1405 -0.7675 -0.0485
  709MOL0     C95589   5.261   6.210   2.474 -0.4169 -0.8852  0.7291
  709MOL0     C95590   5.138   6.148   2.541 -0.6145 -0.4461  0.0439
  709MOL0     C95591   5.013   6.219   2.512 -0.0860 -0.0201  0.6133
  709MOL0     C95592   4.890   6.142   2.565  0.3857  0.7391 -0.1400
  709MOL0     C95593   4.767   6.215   2.517  0.1196  0.1637 -0.1981
  709MOL0     C95594   4.752   6.356   2.580  0.2573 -0.3732 -0.5265
  709MOL0     C95595   4.601   6.387   2.627  0.7290  0.0533  0.0487
  709MOL0     C95596   4.505   6.387   2.497 -0.6212 -0.2004 -1.2438
  709MOL0     N95597   4.371   6.433   2.532 -0.1871 -0.4939  0.0338
  709MOL0     C95598   4.337   6.559   2.587  0.0882  0.6969 -0.6634
  709MOL0     C95599   4.197   6.547   2.608  0.0322 -0.0785  0.1237
  709MOL0     C95600   4.115   6.662   2.670  0.1233 -0.6501 -0.0781
  709MOL0     C95601   4.025   6.744   2.571 -0.8517  0.9609  0.2493
  709MOL0     C95602   3.962   6.852   2.654  0.0920 -0.3905  0.0817
  709MOL0     C95603   3.900   6.963   2.570  0.2617  0.5507 -0.6333
  709MOL0     O95604   3.765   6.912   2.533  0.2019 -0.2182 -0.5727
  709MOL0     C95605   3.714   6.975   2.429  0.5426 -0.0833 -0.3688
  709MOL0     C95606   3.753   6.939   2.301  0.0643 -0.4992  0.1405
  709MOL0     C95607   3.671   6.986   2.198  0.1676 -0.3257 -1.0076
  709MOL0     C95608   3.559   7.069   2.214  1.0666  0.3541 -0.3552
  709MOL0     C95609   3.489   7.122   2.093  0.8175 -0.6221 -0.3417
  709MOL0     O95610   3.540   7.120   1.968 -0.5026  0.0330  0.1568
  709MOL0     C95611   3.491   7.198   1.872  0.9673  0.7505  0.0297
  709MOL0     C95612   3.514   7.336   1.860  0.1914  0.2913  0.1470
  709MOL0     C95613   3.421   7.419   1.793  0.2688 -0.0117  0.3507
  709MOL0     C95614   3.311   7.367   1.714 -0.4912 -0.7533 -0.3947
  709MOL0     O95615   3.231   7.461   1.651  0.2401 -0.0468  0.4754
  709MOL0     C95616   3.123   7.401   1.580  0.6931  1.1758  1.0728
  709MOL0     C95617   3.057   7.503   1.492  0.3172 -0.1062 -0.0591
  709MOL0     C95618   3.027   7.625   1.575  0.1652 -0.5357  0.4391
  709MOL0     C95619   2.981   7.746   1.487 -0.8903  0.8342 -0.0345
  709MOL0     C95620   2.933   7.861   1.585 -0.5159 -0.1544  0.1358
  709MOL0     C95621   2.863   7.977   1.511  0.8245  0.6108  0.3698
  709MOL0     C95622   2.717   7.944   1.517  0.5777 -0.2917 -0.1727
  709MOL0     C95623   2.640   8.068   1.452  0.1213  0.3918 -0.0835
  709MOL0    Cl95624   2.454   8.041   1.473  0.2290  0.1760  0.1659
  709MOL0     C95625   3.298   7.227   1.707 -0.8072 -0.2823  0.0409
  709MOL0     C95626   3.389   7.149   1.784 -0.2384  0.1202 -0.6304
  709MOL0     O95627   3.385   7.181   2.126  0.0826  0.2831 -0.0900
  709MOL0     C95628   3.520   7.106   2.339  0.0375  0.0578 -0.3792
  709MOL0     C95629   3.594   7.053   2.445 -1.0644 -0.2464 -0.9943
  709MOL0     N95630   4.157   6.421   2.571 -0.7953  0.8972 -0.5221
  709MOL0     N95631   4.264   6.362   2.515  0.0248  0.3131  0.2605
  709MOL0     C95632   5.320   5.954   2.344  0.0919 -0.2218  0.8381
  709MOL0     C95633   5.354   5.836   2.276  0.3547  0.5372  0.5829
  709MOL0     C95634   5.660   5.511   2.125 -0.3532 -0.5949 -0.4943
  709MOL0     C95635   5.574   5.401   2.116  0.1305  0.1366  0.1393
  709MOL0     C95636   5.627   5.279   2.072 -0.8593 -0.0469 -0.3453
  709MOL0     C95637   5.765   5.262   2.050  0.6008 -1.4786  0.6322
  709MOL0     O95638   5.804   5.133   2.025 -0.5262 -1.0319  0.3667
  709MOL0     C95639   5.779   5.083   1.891  0.4299 -0.7628  0.8383
  709MOL0     C95640   5.920   5.016   1.850  0.8030  0.2237 -0.0508
  709MOL0     C95641   5.976   4.908   1.943 -0.0169  0.6098  0.1336
  709MOL0     C95642   5.896   4.783   1.955 -0.3369 -0.8512  0.1948
  709MOL0     C95643   5.807   4.739   1.847  0.5728  0.5581 -0.1220
  709MOL0     C95644   5.722   4.685   1.778  0.6942  0.3637 -0.5453
  709MOL0     C95645   5.854   5.366   2.063 -0.0833  0.1681  0.4931
  709MOL0     C95646   5.803   5.488   2.099  0.5498 -0.9191 -0.8409
  709MOL0     C95647   5.912   5.590   2.138  0.4715  0.3952  0.5697
  709MOL0     H95648   5.663   5.796   2.441 -0.4607 -1.2930  2.4135
  709MOL0     H95649   5.611   5.992   2.524 -1.2288 -0.9453  2.2622
  709MOL0     H95650   5.275   6.312   2.511 -2.3098 -0.9297  1.7132
  709MOL0     H95651   5.252   6.220   2.366 -1.1643  0.1495  0.8691
  709MOL0     H95652   5.156   6.156   2.649 -0.2193  1.7899 -0.1220
  709MOL0     H95653   5.134   6.044   2.510  2.1781 -0.6105  0.0235
  709MOL0     H95654   4.995   6.215   2.404 -1.3608 -2.6472  0.8449
  709MOL0     H95655   5.032   6.322   2.543  3.0464 -0.4319  0.3968
  709MOL0     H95656   4.887   6.037   2.535  0.8874  0.9966 -1.1212
  709MOL0     H95657   4.897   6.144   2.675  0.1001 -0.3053 -0.0935
  709MOL0     H95658   4.737   6.212   2.412  0.1451 -1.4527 -0.1851
  709MOL0     H95659   4.688   6.156   2.564 -0.9866  0.8482 -1.1447
  709MOL0     H95660   4.820   6.378   2.663  0.1932  0.0714 -0.5894
  709MOL0     H95661   4.780   6.427   2.502  3.1116 -1.3703 -0.5286
  709MOL0     H95662   4.605   6.484   2.677 -0.1474  0.3387 -0.4056
  709MOL0     H95663   4.570   6.307   2.695  1.3264 -1.1486 -1.0606
  709MOL0     H95664   4.549   6.462   2.431 -2.5064  2.2889  0.1292
  709MOL0     H95665   4.512   6.292   2.443  1.0128  0.4155 -2.1830
  709MOL0     H95666   4.412   6.636   2.602  3.2323 -2.5931  2.6253
  709MOL0     H95667   4.062   6.624   2.758  0.4821 -3.4937 -0.9928
  709MOL0     H95668   4.184   6.736   2.712 -0.3155  0.6649 -1.5829
  709MOL0     H95669   4.087   6.794   2.497 -0.4424  0.4180  0.2239
  709MOL0     H95670   3.964   6.669   2.519 -0.5005  0.8888 -0.0598
  709MOL0     H95671   4.034   6.899   2.721 -0.7523  3.8319 -1.6868
  709MOL0     H95672   3.887   6.805   2.718 -2.6301  1.5282 -1.4606
  709MOL0     H95673   3.971   6.988   2.490  0.3867  0.6641 -0.4878
  709MOL0     H95674   3.888   7.049   2.636 -0.1944 -0.8367  1.1719
  709MOL0     H95675   3.844   6.881   2.287  0.9537  0.7926  0.4269
  709MOL0     H95676   3.703   6.963   2.097  2.3721  0.2048 -0.5011
  709MOL0     H95677   3.582   7.382   1.931 -0.9827  1.5936  0.4771
  709MOL0     H95678   3.438   7.525   1.807  3.3836 -0.2444 -0.8611
  709MOL0     H95679   3.143   7.314   1.517 -3.1209  1.5708 -0.9503
  709MOL0     H95680   3.039   7.372   1.643  0.6004 -0.1256  0.3895
  709MOL0     H95681   3.132   7.535   1.419 -0.9381 -0.4865 -1.5784
  709MOL0     H95682   2.973   7.466   1.432  0.1184 -2.4102  1.5076
  709MOL0     H95683   2.953   7.594   1.650 -0.5488  3.8730  1.8636
  709MOL0     H95684   3.122   7.652   1.624  2.4282 -1.4663 -3.1034
  709MOL0     H95685   2.899   7.710   1.425  0.0538  0.0831 -0.8797
  709MOL0     H95686   3.070   7.773   1.430 -0.9415  0.2871 -0.3816
  709MOL0     H95687   3.028   7.898   1.625  0.0730  0.1093 -1.4369
  709MOL0     H95688   2.872   7.815   1.663 -2.3371  0.5211 -0.8394
  709MOL0     H95689   2.889   8.064   1.572 -2.2973  0.5080  2.1004
  709MOL0     H95690   2.903   7.977   1.409  0.9141  3.6825  0.3184
  709MOL0     H95691   2.688   7.942   1.622 -0.7661  2.2919 -0.4046
  709MOL0     H95692   2.700   7.845   1.473  0.1569 -0.1695 -0.2908
  709MOL0     H95693   2.660   8.160   1.509  2.1631 -0.4616  0.6561
  709MOL0     H95694   2.668   8.084   1.348  1.8132  4.9558  0.8273
  709MOL0     H95695   3.214   7.185   1.653  0.3490 -0.0565 -2.0331
  709MOL0     H95696   3.376   7.041   1.787 -1.3314  0.2310  2.4094
  709MOL0     H95697   3.443   7.178   2.368  0.0191  0.3892 -1.2108
  709MOL0     H95698   3.565   7.065   2.549  2.3503 -0.3605  0.1140
  709MOL0     H95699   5.221   5.995   2.328 -0.7012 -2.0936  0.6597
  709MOL0     H95700   5.285   5.791   2.206 -0.1358  2.2329 -0.0680
  709MOL0     H95701   5.474   5.382   2.154 -1.4053  0.8113 -3.1953
  709MOL0     H95702   5.567   5.189   2.081 -3.9842  1.6558 -2.1289
  709MOL0     H95703   5.767   5.157   1.812  0.0445 -2.8497 -1.1768
  709MOL0     H95704   5.692   5.016   1.887 -1.3198  1.4444 -0.2461
  709MOL0     H95705   5.996   5.095   1.854  2.0589 -0.9437  0.0643
  709MOL0     H95706   5.924   4.968   1.752 -0.2622 -0.3009  0.1437
  709MOL0     H95707   5.994   4.940   2.046 -1.2400 -0.3471  0.6835
  709MOL0     H95708   6.073   4.881   1.900  0.0676  1.2816 -0.0993
  709MOL0     H95709   5.953   4.693   1.978 -1.7071 -2.0788 -1.0399
  709MOL0     H95710   5.837   4.803   2.045  0.0671 -4.8647  1.5213
  709MOL0     H95711   5.664   4.622   1.713  0.1330  0.5102 -0.2010
  709MOL0     H95712   5.960   5.346   2.068 -0.6304 -2.8861  1.6816
  709MOL0     H95713   5.931   5.656   2.053  4.2899  2.5604  2.8180
  709MOL0     H95714   5.896   5.661   2.219  2.5880  0.2230  1.1947
  709MOL0     H95715   6.004   5.538   2.167  2.0081  2.9383  0.5385
  710MOL0     O95716   2.700   4.886   7.338 -0.1085  0.5090 -0.3736
  710MOL0     C95717   2.629   4.976   7.384  0.7892  0.5295 -0.8815
  710MOL0     O95718   2.618   5.108   7.345 -0.6140 -0.0053  0.0545
  710MOL0     C95719   2.711   5.154   7.259  0.4462 -0.0473 -0.2064
  710MOL0     C95720   2.669   5.221   7.142 -0.8999 -0.8837 -0.0192
  710MOL0     C95721   2.764   5.267   7.045  0.1180  0.4244 -0.6150
  710MOL0     C95722   2.896   5.245   7.075 -0.5124  0.0502 -0.4503
  710MOL0     O95723   2.998   5.275   6.985  0.7546 -0.4321 -0.7975
  710MOL0     C95724   2.975   5.257   6.850 -0.2977 -0.1675  0.1308
  710MOL0     C95725   3.088   5.298   6.765 -0.0909 -0.5663 -0.0803
  710MOL0     C95726   3.077   5.245   6.627  0.2209  0.3181  0.4195
  710MOL0     C95727   3.120   5.100   6.609  0.5716 -0.1452  0.7229
  710MOL0     C95728   3.064   5.049   6.474  0.6149 -0.1802  0.0433
  710MOL0     C95729   3.132   5.137   6.370  0.2649  0.2956 -0.0918
  710MOL0     C95730   3.133   5.049   6.236 -0.1217 -0.2799  0.2280
  710MOL0     C95731   3.258   4.961   6.211  0.7618 -0.3116 -0.4230
  710MOL0     N95732   3.385   5.033   6.178  0.6811 -0.2751 -0.1746
  710MOL0     C95733   3.396   5.128   6.078 -0.6163  0.6977 -0.3644
  710MOL0     C95734   3.530   5.136   6.066 -0.5515 -0.1928  0.4546
  710MOL0     C95735   3.603   5.242   5.981  0.7095  0.0161 -0.3658
  710MOL0     C95736   3.619   5.367   6.057  0.2771 -0.1060  0.0175
  710MOL0     C95737   3.498   5.465   6.069 -1.0541  0.4171  0.4755
  710MOL0     C95738   3.527   5.594   6.141  0.9879 -1.3619 -0.6183
  710MOL0     O95739   3.616   5.679   6.065 -0.1707 -0.8447  0.7781
  710MOL0     C95740   3.561   5.721   5.948  0.7384 -0.0238 -0.0834
  710MOL0     C95741   3.498   5.846   5.945 -0.6940 -0.3534  0.5419
  710MOL0     C95742   3.446   5.906   5.829  0.0882  0.0026 -0.3184
  710MOL0     C95743   3.454   5.834   5.708  0.5596  0.7142 -0.1966
  710MOL0     C95744   3.403   5.888   5.592  0.3503 -0.0850 -1.1667
  710MOL0     O95745   3.442   5.835   5.471 -0.3172 -0.8048 -0.0361
  710MOL0     C95746   3.419   5.915   5.355 -0.1316  0.3516 -0.1031
  710MOL0     C95747   3.473   6.043   5.343 -0.1725  0.4441 -0.2752
  710MOL0     C95748   3.436   6.129   5.240  1.3163 -0.4472 -0.9588
  710MOL0     C95749   3.372   6.085   5.130  0.5631 -0.1802 -0.2076
  710MOL0     O95750   3.348   6.177   5.026 -0.4007 -0.0890 -0.1193
  710MOL0     C95751   3.344   6.138   4.886 -0.8878  0.2047  0.2243
  710MOL0     C95752   3.403   6.244   4.793 -0.1260 -0.3283  0.4267
  710MOL0     C95753   3.290   6.333   4.742 -0.8374  0.8564 -0.4709
  710MOL0     C95754   3.354   6.447   4.643 -0.2133  0.8999 -1.0097
  710MOL0     C95755   3.244   6.551   4.612  0.4401 -0.4867 -0.3948
  710MOL0     C95756   3.301   6.682   4.563  1.6374  0.2405 -0.1053
  710MOL0     C95757   3.331   6.671   4.415 -0.7828 -0.6755  0.2744
  710MOL0     C95758   3.389   6.806   4.369  0.2612 -0.0011 -0.6434
  710MOL0    Cl95759   3.267   6.929   4.396  0.1500 -0.0288  0.2868
  710MOL0     C95760   3.327   5.948   5.123 -0.5206 -0.7203 -0.4837
  710MOL0     C95761   3.349   5.873   5.244 -0.1402  0.2897 -0.2163
  710MOL0     O95762   3.333   5.990   5.604 -0.1931  0.0842 -0.4452
  710MOL0     C95763   3.547   5.722   5.701  0.4280  0.3122 -0.4902
  710MOL0     C95764   3.605   5.675   5.819  1.2121  0.4164 -1.1999
  710MOL0     N95765   3.593   5.046   6.146 -0.1648 -0.6279  0.0558
  710MOL0     N95766   3.505   5.000   6.225  0.5104 -0.0051 -0.1851
  710MOL0     C95767   2.944   5.176   7.194 -0.4162 -0.2699  0.2079
  710MOL0     C95768   2.851   5.128   7.280 -0.6854 -0.5579  0.7144
  710MOL0     C95769   2.532   4.948   7.500 -0.1252 -0.3674  0.3814
  710MOL0     C95770   2.541   5.023   7.620 -0.4534  0.4439  1.0447
  710MOL0     C95771   2.445   5.011   7.724 -0.3691 -0.1133 -0.1675
  710MOL0     C95772   2.346   4.909   7.717 -0.2336  0.2094  0.0210
  710MOL0     O95773   2.248   4.888   7.817 -0.1500 -0.0279  0.2611
  710MOL0     C95774   2.282   4.935   7.946 -0.0401  0.2690 -0.0832
  710MOL0     C95775   2.188   4.867   8.041  1.0989 -0.6968 -0.0430
  710MOL0     C95776   2.048   4.928   8.050  0.7160 -0.6114  0.6009
  710MOL0     C95777   1.958   4.817   8.117 -0.7706  0.1604  0.0598
  710MOL0     C95778   1.825   4.861   8.149 -1.0775 -0.0741 -0.2456
  710MOL0     C95779   1.712   4.875   8.193  0.2386  0.7467  0.0499
  710MOL0     C95780   2.338   4.832   7.600  0.0623  0.0447  0.9261
  710MOL0     C95781   2.430   4.850   7.489  0.1811 -0.0612 -0.7743
  710MOL0     C95782   2.408   4.754   7.373 -0.3950  0.6785  0.6343
  710MOL0     H95783   2.562   5.240   7.136 -0.8743  0.0490  1.9642
  710MOL0     H95784   2.737   5.311   6.949  0.2034  1.5245 -0.1450
  710MOL0     H95785   2.933   5.158   6.828 -2.1572  0.1728  1.8117
  710MOL0     H95786   2.889   5.317   6.818 -1.0315 -1.5175 -0.5160
  710MOL0     H95787   3.176   5.251   6.809  0.4730 -0.1364 -0.7258
  710MOL0     H95788   3.110   5.405   6.766  2.2524 -0.9815  1.9252
  710MOL0     H95789   3.153   5.309   6.581  2.3877 -3.0597 -1.1689
  710MOL0     H95790   2.975   5.267   6.596  1.1537  2.2260 -1.5300
  710MOL0     H95791   3.229   5.092   6.610  0.6846  1.0490 -0.0940
  710MOL0     H95792   3.088   5.032   6.688  1.3892  0.4351  1.5685
  710MOL0     H95793   3.113   4.952   6.462 -0.7869 -0.7565 -1.4794
  710MOL0     H95794   2.955   5.052   6.465  0.5182  4.0010  0.5881
  710MOL0     H95795   3.074   5.230   6.368 -0.3325  0.0138  1.8841
  710MOL0     H95796   3.235   5.163   6.396  1.1551 -4.1670  1.6014
  710MOL0     H95797   3.127   5.115   6.149 -2.3955  1.5186  1.6314
  710MOL0     H95798   3.045   4.985   6.224  0.6003 -1.1544 -0.5403
  710MOL0     H95799   3.265   4.900   6.302 -2.0126 -1.5975 -0.9927
  710MOL0     H95800   3.229   4.909   6.120  1.8219  1.0328 -1.5833
  710MOL0     H95801   3.311   5.183   6.041 -1.4544 -0.0229  0.4514
  710MOL0     H95802   3.695   5.202   5.939  1.0194 -0.0393  0.3550
  710MOL0     H95803   3.544   5.277   5.896 -2.2188 -1.7419  0.7968
  710MOL0     H95804   3.667   5.342   6.152  0.7983  2.2291  0.4142
  710MOL0     H95805   3.694   5.415   5.993  1.3016 -1.4206  0.1586
  710MOL0     H95806   3.426   5.413   6.132 -0.9570 -0.1103  0.1611
  710MOL0     H95807   3.461   5.481   5.967  2.4340  1.0227 -0.8369
  710MOL0     H95808   3.562   5.583   6.244  0.0898 -0.7871 -0.2428
  710MOL0     H95809   3.434   5.652   6.141  0.3867 -2.2306  1.6170
  710MOL0     H95810   3.493   5.904   6.037  0.1913 -0.3193  0.5764
  710MOL0     H95811   3.405   6.007   5.829  0.8968  0.3466 -1.3537
  710MOL0     H95812   3.530   6.081   5.427 -2.0048 -0.2095  1.3455
  710MOL0     H95813   3.449   6.236   5.232 -0.3952 -0.3395 -4.2824
  710MOL0     H95814   3.417   6.057   4.878 -0.4708  0.3721  2.0149
  710MOL0     H95815   3.242   6.115   4.855 -0.3442 -1.9514 -0.1151
  710MOL0     H95816   3.478   6.292   4.855 -0.0406 -0.7089  0.6226
  710MOL0     H95817   3.456   6.206   4.705  0.8190  0.8301  0.4734
  710MOL0     H95818   3.239   6.266   4.673  0.6380  0.4707 -1.2235
  710MOL0     H95819   3.242   6.382   4.827 -0.2319  1.8618 -0.6901
  710MOL0     H95820   3.382   6.401   4.548 -0.6184 -1.1091 -0.2156
  710MOL0     H95821   3.442   6.490   4.692 -0.3909 -0.9083  1.0946
  710MOL0     H95822   3.179   6.582   4.695  1.7298 -0.2702  0.5663
  710MOL0     H95823   3.179   6.502   4.539  1.5454 -2.7314  0.0403
  710MOL0     H95824   3.231   6.758   4.599  0.3311 -1.5474  1.2674
  710MOL0     H95825   3.386   6.708   4.627  2.1400 -4.5593  1.5322
  710MOL0     H95826   3.246   6.655   4.347 -0.5868  2.4569 -0.8811
  710MOL0     H95827   3.400   6.590   4.394  0.3038 -0.3267  2.2849
  710MOL0     H95828   3.480   6.833   4.424 -0.1327 -0.8117  0.4311
  710MOL0     H95829   3.428   6.790   4.267  3.3522 -1.3142  0.6049
  710MOL0     H95830   3.279   5.908   5.035 -2.3576  0.7541 -0.2113
  710MOL0     H95831   3.316   5.770   5.254 -0.0061  0.0763 -1.6698
  710MOL0     H95832   3.566   5.660   5.614  1.2708 -0.8098  0.4713
  710MOL0     H95833   3.668   5.589   5.803  1.1527  0.4990 -1.9137
  710MOL0     H95834   3.050   5.160   7.210  0.3049  2.9969 -0.5556
  710MOL0     H95835   2.888   5.068   7.362  2.9989 -0.0492 -0.3913
  710MOL0     H95836   2.607   5.108   7.626 -0.5159  0.8810 -2.6289
  710MOL0     H95837   2.468   5.077   7.807 -1.0864 -0.4912  0.3470
  710MOL0     H95838   2.265   5.043   7.948 -3.6355 -0.1872 -0.2879
  710MOL0     H95839   2.386   4.909   7.970 -0.0910  0.0268 -0.1228
  710MOL0     H95840   2.236   4.868   8.139  1.1885 -1.1545 -0.0815
  710MOL0     H95841   2.174   4.761   8.017  4.8222 -1.6535  1.2273
  710MOL0     H95842   2.011   4.938   7.948 -1.7149 -0.7848  1.4110
  710MOL0     H95843   2.050   5.020   8.110 -0.5338 -0.5621  0.5836
  710MOL0     H95844   1.942   4.730   8.053  1.6279 -2.4837  2.7693
  710MOL0     H95845   2.005   4.771   8.204 -1.4639 -5.5131 -2.0983
  710MOL0     H95846   1.616   4.873   8.241 -2.8341  0.0874 -5.2784
  710MOL0     H95847   2.265   4.752   7.590 -0.4143  0.0496  3.6118
  710MOL0     H95848   2.359   4.659   7.400  1.8382 -0.6750  0.1896
  710MOL0     H95849   2.348   4.788   7.288  0.6851  0.8717 -0.0644
  710MOL0     H95850   2.509   4.732   7.336 -0.6764 -0.9457  0.7291
  711MOL0     O95851   9.139   3.906   7.519  0.3969  0.7228 -0.2094
  711MOL0     C95852   9.157   3.836   7.618  0.9549  0.0376  0.3275
  711MOL0     O95853   9.063   3.802   7.702  0.0423  0.5087 -0.6143
  711MOL0     C95854   8.944   3.873   7.693  0.4719 -0.4076  0.0587
  711MOL0     C95855   8.923   3.992   7.767  0.8702  0.8008 -0.3055
  711MOL0     C95856   8.798   4.061   7.750  0.2188  0.8634  0.6522
  711MOL0     C95857   8.702   3.997   7.671 -0.2290  0.2673  0.2564
  711MOL0     O95858   8.581   4.057   7.651 -0.0044 -0.6045  0.5733
  711MOL0     C95859   8.547   4.180   7.709  0.2306  0.8587  0.0818
  711MOL0     C95860   8.407   4.213   7.703  0.7726 -0.3142  0.8542
  711MOL0     C95861   8.379   4.286   7.570  1.1082 -0.3608 -0.1624
  711MOL0     C95862   8.368   4.438   7.588 -0.3408 -0.4833  0.2291
  711MOL0     C95863   8.329   4.517   7.464 -0.5355 -1.0394  0.6260
  711MOL0     C95864   8.182   4.497   7.415 -0.2319  1.4513  0.7706
  711MOL0     C95865   8.131   4.598   7.315  0.8035 -0.0955  0.2242
  711MOL0     C95866   8.097   4.746   7.343  0.0955 -0.0409 -0.6674
  711MOL0     N95867   8.030   4.800   7.230 -0.1429  0.2155  0.4410
  711MOL0     C95868   8.093   4.833   7.112 -0.0580 -0.3085 -0.0598
  711MOL0     C95869   8.008   4.921   7.052  0.5142 -0.3253 -0.6308
  711MOL0     C95870   8.027   4.967   6.909  0.0414 -0.3720 -0.5647
  711MOL0     C95871   7.965   4.861   6.806  0.4074  0.4904  0.8060
  711MOL0     C95872   8.024   4.730   6.806 -0.0560 -0.1210 -0.3279
  711MOL0     C95873   7.920   4.614   6.786 -0.1868 -0.4215  0.0266
  711MOL0     O95874   7.985   4.489   6.778 -0.1032  0.4749  0.1717
  711MOL0     C95875   8.053   4.444   6.665  0.4453  0.2412 -0.4389
  711MOL0     C95876   8.048   4.513   6.542  0.4096 -0.6622  0.5956
  711MOL0     C95877   8.094   4.448   6.431  0.6368  0.1220  1.2404
  711MOL0     C95878   8.162   4.333   6.430 -0.2341  0.4996 -0.0876
  711MOL0     C95879   8.234   4.282   6.303  0.3791  0.3440  1.0588
  711MOL0     O95880   8.254   4.369   6.191  0.3423 -0.4075 -0.4264
  711MOL0     C95881   8.333   4.328   6.088 -0.1787  1.4980 -0.4816
  711MOL0     C95882   8.462   4.270   6.101 -0.1659 -0.4208 -0.1874
  711MOL0     C95883   8.545   4.232   5.994 -0.8522  0.4887 -0.1952
  711MOL0     C95884   8.499   4.248   5.865  0.3660 -0.6660  1.4083
  711MOL0     O95885   8.588   4.204   5.766 -0.9362  0.7748  0.8960
  711MOL0     C95886   8.539   4.182   5.637  0.4025 -0.6878 -0.6196
  711MOL0     C95887   8.630   4.093   5.537 -0.8195 -0.1482 -0.3133
  711MOL0     C95888   8.769   4.162   5.498  0.0862 -0.0143  0.6669
  711MOL0     C95889   8.855   4.082   5.392  1.0805  0.1978  0.2215
  711MOL0     C95890   9.001   4.133   5.404  0.2097 -0.1811 -0.9983
  711MOL0     C95891   9.084   4.115   5.276  1.0814 -0.3519  0.4464
  711MOL0     C95892   9.203   4.022   5.303  1.0978 -0.6374 -0.6184
  711MOL0     C95893   9.304   4.026   5.185  0.7849 -0.0328  0.0375
  711MOL0    Cl95894   9.364   4.191   5.127 -0.0708  0.0697  0.3994
  711MOL0     C95895   8.373   4.314   5.852  0.2014  0.7667  0.0314
  711MOL0     C95896   8.295   4.357   5.966 -0.2357  0.6363  0.4477
  711MOL0     O95897   8.250   4.160   6.297 -0.2402  0.5067 -0.6618
  711MOL0     C95898   8.168   4.264   6.545 -0.5625 -0.8823  0.0400
  711MOL0     C95899   8.111   4.316   6.664 -0.9224  0.5421  0.9271
  711MOL0     N95900   7.897   4.945   7.129 -0.4726  0.2833 -0.2090
  711MOL0     N95901   7.921   4.883   7.235 -0.6803 -0.1681  0.4245
  711MOL0     C95902   8.719   3.877   7.606 -0.3028  0.5616  0.4509
  711MOL0     C95903   8.841   3.814   7.617  0.1105  0.0257  0.7943
  711MOL0     C95904   9.302   3.815   7.649  0.5536  0.6724 -0.3340
  711MOL0     C95905   9.388   3.924   7.628 -0.5828  0.4362 -0.1432
  711MOL0     C95906   9.518   3.908   7.659  0.6084 -0.1576 -0.8324
  711MOL0     C95907   9.570   3.803   7.724 -1.3549  0.4451  1.0777
  711MOL0     O95908   9.702   3.765   7.734 -0.0680  0.9908  0.0255
  711MOL0     C95909   9.799   3.866   7.708  1.0012  0.3970  0.2735
  711MOL0     C95910   9.820   3.951   7.834 -0.4262 -0.4454 -0.2033
  711MOL0     C95911   9.930   4.059   7.812 -0.9021  0.4640  0.2947
  711MOL0     C95912  10.067   3.993   7.785 -0.4885 -0.0841 -0.7041
  711MOL0     C95913  10.114   3.911   7.896  0.2311  0.9832 -0.4223
  711MOL0     C95914  10.146   3.854   7.998  0.9970 -0.3931 -1.1485
  711MOL0     C95915   9.474   3.698   7.754  0.2640 -0.0979  0.0667
  711MOL0     C95916   9.346   3.698   7.709 -0.1956  0.3330 -0.4444
  711MOL0     C95917   9.273   3.565   7.724  0.4013  0.8883 -0.3721
  711MOL0     H95918   8.997   4.033   7.835 -1.1831  0.9112  1.9998
  711MOL0     H95919   8.778   4.146   7.814 -1.2774 -2.2698  4.7625
  711MOL0     H95920   8.560   4.172   7.818 -0.1374  0.8165  0.1256
  711MOL0     H95921   8.602   4.263   7.664  0.7359  2.1503  2.8559
  711MOL0     H95922   8.380   4.264   7.797 -0.1612  1.2104 -0.1971
  711MOL0     H95923   8.338   4.128   7.701 -0.2237  0.4790  0.8266
  711MOL0     H95924   8.280   4.255   7.534 -0.6515  1.6062  2.6103
  711MOL0     H95925   8.453   4.273   7.491  0.8072  1.9030 -0.8926
  711MOL0     H95926   8.306   4.463   7.674 -2.0893  1.7055 -1.5414
  711MOL0     H95927   8.462   4.485   7.618  0.8217 -1.0878 -2.1700
  711MOL0     H95928   8.335   4.622   7.496  1.3085 -1.5896  2.2258
  711MOL0     H95929   8.398   4.491   7.384 -1.7812 -0.8794 -0.5445
  711MOL0     H95930   8.173   4.393   7.382  2.7589  0.2785  3.0956
  711MOL0     H95931   8.133   4.501   7.513 -0.4668  2.3016  0.6274
  711MOL0     H95932   8.048   4.559   7.255  1.2160 -0.4045 -0.1500
  711MOL0     H95933   8.210   4.608   7.240 -0.7182 -0.6473 -1.5364
  711MOL0     H95934   8.021   4.746   7.421  0.5797  2.9874 -0.0511
  711MOL0     H95935   8.186   4.804   7.370  1.9500 -2.0200 -2.1883
  711MOL0     H95936   8.188   4.801   7.071  0.5288  1.0414  0.2027
  711MOL0     H95937   7.963   5.051   6.881 -1.0505 -1.6914 -2.2389
  711MOL0     H95938   8.134   4.980   6.894  0.4593 -2.1466  0.5633
  711MOL0     H95939   7.859   4.846   6.826 -0.4250 -3.7575 -4.3849
  711MOL0     H95940   7.963   4.891   6.701 -1.4964  2.2007  1.2796
  711MOL0     H95941   8.080   4.707   6.897 -0.8362  0.8258  0.4118
  711MOL0     H95942   8.106   4.725   6.735  0.3351 -2.1819  0.1817
  711MOL0     H95943   7.846   4.615   6.705 -1.4931  0.2559  1.1687
  711MOL0     H95944   7.849   4.614   6.870 -1.3608  1.3613 -0.9021
  711MOL0     H95945   8.009   4.613   6.525 -0.7638 -0.7056  2.6429
  711MOL0     H95946   8.097   4.505   6.339 -0.9511  3.1002  2.9011
  711MOL0     H95947   8.494   4.250   6.203  2.1333  4.7253  0.4503
  711MOL0     H95948   8.637   4.180   6.016 -0.6065  0.6564 -0.8029
  711MOL0     H95949   8.440   4.136   5.634  0.3354 -0.5116 -2.5853
  711MOL0     H95950   8.540   4.279   5.587 -0.4361 -1.0630 -1.3891
  711MOL0     H95951   8.651   4.000   5.590 -0.5709  1.0919  1.8931
  711MOL0     H95952   8.574   4.078   5.444 -1.4083  1.7043 -0.3072
  711MOL0     H95953   8.737   4.259   5.458  1.6494  1.1428  2.0819
  711MOL0     H95954   8.822   4.167   5.593 -0.5677 -1.6421  1.1549
  711MOL0     H95955   8.836   4.095   5.285  1.5700 -1.5209 -0.1004
  711MOL0     H95956   8.848   3.976   5.419 -0.8762  0.8982  2.8694
  711MOL0     H95957   9.047   4.102   5.498  0.5559  3.3779  0.1510
  711MOL0     H95958   8.990   4.237   5.435 -0.4123 -0.5676  0.1523
  711MOL0     H95959   9.031   4.071   5.191 -0.1787 -0.2570  1.1652
  711MOL0     H95960   9.121   4.214   5.250  0.0381  1.4753  5.0315
  711MOL0     H95961   9.167   3.921   5.321 -1.4638  0.2542 -0.3658
  711MOL0     H95962   9.255   4.057   5.393 -1.4514 -0.3887  0.8494
  711MOL0     H95963   9.381   3.956   5.219 -1.1469 -1.7238  1.1543
  711MOL0     H95964   9.255   3.981   5.098  3.7074 -0.8681 -1.2835
  711MOL0     H95965   8.335   4.334   5.752  1.1402 -0.3894 -0.5824
  711MOL0     H95966   8.201   4.410   5.953  0.2542  1.3355 -0.3674
  711MOL0     H95967   8.240   4.183   6.552  2.4565  1.7396  2.4080
  711MOL0     H95968   8.118   4.264   6.759 -0.9115 -1.2338  0.0000
  711MOL0     H95969   8.638   3.829   7.552  0.3544 -4.0033  3.0045
  711MOL0     H95970   8.850   3.721   7.563 -2.3902  0.6141 -0.8415
  711MOL0     H95971   9.352   4.022   7.599  1.3310  0.9442 -0.9175
  711MOL0     H95972   9.572   3.992   7.616 -0.4788  0.8317 -0.3038
  711MOL0     H95973   9.778   3.942   7.632 -0.4023 -0.1822  0.0575
  711MOL0     H95974   9.887   3.801   7.699  1.0825 -0.0565  3.3420
  711MOL0     H95975   9.835   3.887   7.921 -0.3384 -1.2607 -0.8046
  711MOL0     H95976   9.732   4.013   7.855 -0.2972 -0.6020  0.8748
  711MOL0     H95977   9.942   4.103   7.911 -0.9113 -1.7758  1.3586
  711MOL0     H95978   9.899   4.124   7.730 -0.1650 -0.8815 -1.0986
  711MOL0     H95979  10.058   3.937   7.691 -0.8848  0.5890 -1.0866
  711MOL0     H95980  10.152   4.058   7.760 -0.3442 -0.5167 -1.3669
  711MOL0     H95981  10.183   3.809   8.088  0.3936  0.6406 -0.3550
  711MOL0     H95982   9.528   3.618   7.803 -0.7771 -1.7765 -1.4059
  711MOL0     H95983   9.344   3.483   7.736  1.0862  1.6360  0.8470
  711MOL0     H95984   9.200   3.561   7.805  2.0802  2.5478  1.3139
  711MOL0     H95985   9.220   3.543   7.630  0.4166 -0.1218 -0.1572
  712MOL0     O95986   1.548   0.456   3.349 -0.2508 -0.1999 -0.8859
  712MOL0     C95987   1.544   0.554   3.419 -0.3892 -0.0029  0.2006
  712MOL0     O95988   1.484   0.668   3.391 -0.9375  0.0725  0.7025
  712MOL0     C95989   1.410   0.662   3.278  0.5932  1.0555  0.9069
  712MOL0     C95990   1.462   0.639   3.150  0.7604  0.7697  0.0314
  712MOL0     C95991   1.379   0.637   3.042 -0.7028 -0.3646  0.9825
  712MOL0     C95992   1.235   0.650   3.056  0.7865 -0.4251  0.1917
  712MOL0     O95993   1.140   0.653   2.954 -0.2193  0.3635  0.2266
  712MOL0     C95994   1.185   0.665   2.820 -0.4145 -0.1765 -0.0010
  712MOL0     C95995   1.071   0.716   2.735  0.8157 -0.0490  1.3916
  712MOL0     C95996   1.113   0.741   2.587 -0.0032 -0.4363 -0.1068
  712MOL0     C95997   1.185   0.879   2.573  0.8939 -0.5520  0.8936
  712MOL0     C95998   1.237   0.891   2.428  0.1629  0.3807  0.8790
  712MOL0     C95999   1.248   1.037   2.382  0.4272  0.5501 -0.3270
  712MOL0     C96000   1.252   1.036   2.226 -0.1314 -1.0730  0.1721
  712MOL0     C96001   1.290   1.177   2.174  0.3666  0.1633  0.0452
  712MOL0     N96002   1.430   1.218   2.164 -0.0036 -0.0165 -0.3031
  712MOL0     C96003   1.492   1.262   2.051  0.3781  0.3586  0.1774
  712MOL0     C96004   1.623   1.265   2.088  0.8819 -1.0106  0.8434
  712MOL0     C96005   1.748   1.321   2.018  1.5627 -0.4054  0.8004
  712MOL0     C96006   1.750   1.295   1.868 -0.3985  0.0002  0.1641
  712MOL0     C96007   1.863   1.358   1.795 -1.0700 -0.7056  0.7230
  712MOL0     C96008   1.860   1.361   1.644  0.5303  0.0261  0.5349
  712MOL0     O96009   1.863   1.221   1.593 -0.3224 -0.0594 -0.0788
  712MOL0     C96010   1.980   1.156   1.569  0.0540  0.2232 -0.0078
  712MOL0     C96011   1.962   1.034   1.501 -0.3134 -0.7354 -0.2087
  712MOL0     C96012   2.066   0.944   1.485  0.7152 -0.0476  0.7678
  712MOL0     C96013   2.191   0.975   1.527 -0.4066  0.2956 -0.2535
  712MOL0     C96014   2.305   0.888   1.500 -0.3121  0.1121 -0.9062
  712MOL0     O96015   2.288   0.763   1.460 -0.8782  0.3328 -0.0959
  712MOL0     C96016   2.389   0.671   1.450  0.0459  0.6732 -1.2507
  712MOL0     C96017   2.387   0.574   1.547 -0.0832  0.5702  0.0100
  712MOL0     C96018   2.467   0.459   1.540  0.4048  0.3646 -0.2133
  712MOL0     C96019   2.553   0.452   1.428 -0.8726  0.3354 -0.1977
  712MOL0     O96020   2.635   0.342   1.419  0.3321  0.1093  0.3864
  712MOL0     C96021   2.771   0.356   1.466  0.3361  0.3534 -1.1230
  712MOL0     C96022   2.822   0.214   1.515  1.0145 -0.0723  0.3105
  712MOL0     C96023   2.721   0.152   1.617  0.3124 -0.6604 -0.6598
  712MOL0     C96024   2.757   0.199   1.755 -0.4251 -0.2038 -0.9097
  712MOL0     C96025   2.649   0.203   1.868 -0.5099 -0.0943  0.3294
  712MOL0     C96026   2.591   0.068   1.903  0.6446  0.2346  0.3915
  712MOL0     C96027   2.688  -0.037   1.959  0.6364  0.6280 -0.0716
  712MOL0     C96028   2.612  -0.141   2.037 -1.0582  0.0289  0.3911
  712MOL0    Cl96029   2.546  -0.054   2.191  0.1315  0.2477  1.1329
  712MOL0     C96030   2.554   0.548   1.327  0.2291 -0.7363 -0.3494
  712MOL0     C96031   2.472   0.657   1.335  0.1592  0.9421  0.6344
  712MOL0     O96032   2.419   0.936   1.524 -0.6565 -0.4591  0.3886
  712MOL0     C96033   2.215   1.099   1.606  1.1441  0.3765 -0.5259
  712MOL0     C96034   2.106   1.184   1.632  0.6320 -0.8985  0.1949
  712MOL0     N96035   1.639   1.216   2.216  0.4146 -0.2763  0.2673
  712MOL0     N96036   1.524   1.199   2.257 -0.5369  0.2510  0.3336
  712MOL0     C96037   1.184   0.680   3.173  0.0324 -0.2427  0.7650
  712MOL0     C96038   1.275   0.695   3.280 -0.9010 -1.4353 -0.0493
  712MOL0     C96039   1.606   0.554   3.558 -0.1702 -0.4711 -0.5261
  712MOL0     C96040   1.607   0.674   3.635 -1.0263 -0.5211 -0.5740
  712MOL0     C96041   1.679   0.683   3.757 -0.8982  0.1673 -0.6328
  712MOL0     C96042   1.748   0.573   3.804 -0.5475 -0.2103  0.3430
  712MOL0     O96043   1.795   0.589   3.929  0.4675  0.3420 -0.7650
  712MOL0     C96044   1.780   0.478   4.011  0.2312  0.7492 -0.4399
  712MOL0     C96045   1.899   0.381   4.030  0.0931 -0.3993  0.2215
  712MOL0     C96046   2.017   0.448   4.084  0.2763  0.2488  0.2094
  712MOL0     C96047   2.145   0.362   4.124  0.2273 -0.4417 -1.0676
  712MOL0     C96048   2.205   0.276   4.027  0.0798 -0.2312 -0.4201
  712MOL0     C96049   2.251   0.217   3.931  1.0237 -0.4196  0.0815
  712MOL0     C96050   1.762   0.464   3.725 -0.4824 -0.2230  0.0090
  712MOL0     C96051   1.683   0.445   3.608  0.2526 -0.8474 -0.1017
  712MOL0     C96052   1.703   0.311   3.541 -0.7538  0.2038  0.7039
  712MOL0     H96053   1.566   0.609   3.144  0.6406  0.3685 -0.0599
  712MOL0     H96054   1.415   0.606   2.945 -0.3448 -0.7362  1.2337
  712MOL0     H96055   1.268   0.735   2.803 -2.6436  2.1210 -2.3010
  712MOL0     H96056   1.209   0.566   2.780 -0.4278 -0.0103 -0.4251
  712MOL0     H96057   1.043   0.815   2.772  0.4498  0.0779  0.7779
  712MOL0     H96058   0.993   0.639   2.747 -0.4509  0.8429 -0.6734
  712MOL0     H96059   1.016   0.759   2.539  0.2992  1.0649 -0.1994
  712MOL0     H96060   1.151   0.649   2.541 -2.6231 -0.1049 -3.3007
  712MOL0     H96061   1.111   0.959   2.583  1.1781  0.5750 -3.8013
  712MOL0     H96062   1.264   0.903   2.645 -0.3164  3.1097  1.2129
  712MOL0     H96063   1.338   0.852   2.416  0.7079  2.4402 -2.2872
  712MOL0     H96064   1.164   0.838   2.365  0.3687  0.0846  0.8903
  712MOL0     H96065   1.164   1.093   2.424 -0.4247 -1.6826  1.1713
  712MOL0     H96066   1.342   1.069   2.427  0.5634  1.7475 -1.4242
  712MOL0     H96067   1.149   1.018   2.193  0.2038 -0.5629 -1.1645
  712MOL0     H96068   1.327   0.968   2.184 -1.4738 -0.2777 -3.9107
  712MOL0     H96069   1.246   1.186   2.074 -1.3081 -1.0462  0.6168
  712MOL0     H96070   1.236   1.245   2.239  2.9662 -1.1825  3.9597
  712MOL0     H96071   1.457   1.302   1.957  0.1166 -4.7378 -2.2440
  712MOL0     H96072   1.735   1.429   2.030 -2.6313 -0.3284 -2.3051
  712MOL0     H96073   1.843   1.283   2.057  2.5742 -1.1633 -2.1363
  712MOL0     H96074   1.754   1.186   1.856 -1.8662  0.0958 -1.5310
  712MOL0     H96075   1.660   1.321   1.813  1.2858 -0.4391 -3.0815
  712MOL0     H96076   1.953   1.308   1.834  0.8789  3.2980  1.8923
  712MOL0     H96077   1.870   1.465   1.818  0.3026  0.0008 -2.4341
  712MOL0     H96078   1.953   1.405   1.607  2.5952 -0.7883  4.2407
  712MOL0     H96079   1.776   1.421   1.607  1.9628  0.1558 -2.8991
  712MOL0     H96080   1.865   1.005   1.465 -0.2609 -1.0385 -0.1081
  712MOL0     H96081   2.049   0.859   1.420 -1.6075  2.2555 -1.9225
  712MOL0     H96082   2.319   0.584   1.631 -0.9322 -3.0110 -0.0906
  712MOL0     H96083   2.466   0.386   1.620  2.6584  0.0746 -0.3760
  712MOL0     H96084   2.839   0.404   1.394  4.2069  3.0866  3.7187
  712MOL0     H96085   2.779   0.420   1.554 -0.2286 -0.0715 -0.7615
  712MOL0     H96086   2.824   0.145   1.431  1.0605 -0.2355  0.4449
  712MOL0     H96087   2.924   0.226   1.555  1.3025 -1.1476 -0.0704
  712MOL0     H96088   2.619   0.180   1.589  0.0041  0.3879  1.2947
  712MOL0     H96089   2.722   0.042   1.612 -3.2076 -1.2669  4.0869
  712MOL0     H96090   2.783   0.302   1.727 -1.6353  0.3842  0.0460
  712MOL0     H96091   2.837   0.137   1.797 -1.0227 -0.6533 -0.4101
  712MOL0     H96092   2.570   0.267   1.827 -0.7586 -1.6257 -1.7516
  712MOL0     H96093   2.683   0.257   1.956 -2.5020 -1.2155  1.8644
  712MOL0     H96094   2.519   0.092   1.982  0.8405  2.1170  0.0608
  712MOL0     H96095   2.542   0.042   1.809 -2.4306  4.5036  0.5093
  712MOL0     H96096   2.756   0.014   2.028  0.3820  2.0703 -0.8495
  712MOL0     H96097   2.743  -0.083   1.877 -0.0164 -0.7696  0.2449
  712MOL0     H96098   2.521  -0.162   1.979 -2.2964  0.0854  2.2464
  712MOL0     H96099   2.677  -0.224   2.064 -0.6163 -0.3988 -1.7889
  712MOL0     H96100   2.628   0.540   1.248  0.8598  2.2251 -0.1634
  712MOL0     H96101   2.457   0.729   1.255 -0.1113 -1.0426 -1.2248
  712MOL0     H96102   2.310   1.142   1.636  1.4349  0.3613 -1.3809
  712MOL0     H96103   2.122   1.281   1.679 -2.0324 -0.2169 -0.1208
  712MOL0     H96104   1.078   0.690   3.195  0.4022 -0.0216  2.6237
  712MOL0     H96105   1.232   0.726   3.375 -0.5469 -1.0069 -0.0223
  712MOL0     H96106   1.540   0.759   3.626 -1.9126 -1.1794 -0.2990
  712MOL0     H96107   1.678   0.764   3.830  5.1720 -0.8971  1.2168
  712MOL0     H96108   1.699   0.416   3.970  0.3190  1.2118 -1.3402
  712MOL0     H96109   1.743   0.514   4.107 -1.8114 -2.2120  0.0114
  712MOL0     H96110   1.933   0.328   3.941  2.3700  0.5058  0.4725
  712MOL0     H96111   1.870   0.307   4.105  2.3021  0.6953  2.2780
  712MOL0     H96112   1.990   0.506   4.173 -0.1928 -0.9651  0.8913
  712MOL0     H96113   2.053   0.516   4.006 -0.5207  2.4413  1.6507
  712MOL0     H96114   2.222   0.439   4.132  0.4577 -0.6569 -1.1862
  712MOL0     H96115   2.129   0.301   4.214  4.9683 -1.8009 -0.8933
  712MOL0     H96116   2.279   0.166   3.841 -3.0818  0.4122 -1.8582
  712MOL0     H96117   1.817   0.377   3.759 -1.8923 -0.9249  0.5791
  712MOL0     H96118   1.609   0.254   3.536  0.0661 -1.1474 -2.5751
  712MOL0     H96119   1.743   0.340   3.444  0.7692  3.6807  2.2325
  712MOL0     H96120   1.781   0.250   3.586 -0.5183  0.5116  0.7094
  713MOL0     O96121   4.800   1.296   9.271 -0.4138 -0.2439 -0.2590
  713MOL0     C96122   4.683   1.271   9.307 -0.7332  0.0831 -0.2682
  713MOL0     O96123   4.622   1.333   9.413  0.2170 -0.2152 -0.1654
  713MOL0     C96124   4.685   1.433   9.477 -0.9146  1.4928  0.8564
  713MOL0     C96125   4.649   1.573   9.467  0.4019 -0.0733 -0.3539
  713MOL0     C96126   4.708   1.665   9.546 -0.7009  0.2030  0.6266
  713MOL0     C96127   4.816   1.628   9.626  0.2425 -0.7620 -1.1882
  713MOL0     O96128   4.879   1.721   9.700  1.0128 -0.1490  0.1902
  713MOL0     C96129   4.808   1.773   9.814 -0.0469  0.1091 -0.4706
  713MOL0     C96130   4.807   1.682   9.936  0.4510 -0.9007 -0.2308
  713MOL0     C96131   4.957   1.690   9.992  0.7430 -0.5679  0.3802
  713MOL0     C96132   4.939   1.734  10.144  1.5103  1.0156 -0.2401
  713MOL0     C96133   5.054   1.676  10.229  0.3793 -0.5842 -0.8927
  713MOL0     C96134   5.178   1.757  10.219  0.4007 -0.2753  0.8517
  713MOL0     C96135   5.265   1.750  10.347  0.4591  0.1609  0.6784
  713MOL0     C96136   5.195   1.822  10.466  0.7950 -0.9390 -0.2431
  713MOL0     N96137   5.276   1.843  10.587  0.2930  0.6912 -0.5868
  713MOL0     C96138   5.254   1.767  10.705 -0.8761  0.6179 -0.1264
  713MOL0     C96139   5.365   1.801  10.782  0.3088  0.6358 -0.3874
  713MOL0     C96140   5.415   1.744  10.909 -0.5372 -0.8155 -0.5072
  713MOL0     C96141   5.493   1.607  10.906  0.0053  0.8874  0.3145
  713MOL0     C96142   5.543   1.561  11.053 -0.4975  0.4846  0.6445
  713MOL0     C96143   5.597   1.415  11.049  0.7442  1.2693  0.9165
  713MOL0     O96144   5.482   1.329  11.016 -0.2204  0.3622  0.2168
  713MOL0     C96145   5.399   1.289  11.124 -0.5568  0.1346 -0.2608
  713MOL0     C96146   5.445   1.194  11.223  0.4626  0.1171  0.0432
  713MOL0     C96147   5.372   1.175  11.342  0.6814  0.3943 -0.6056
  713MOL0     C96148   5.259   1.254  11.369  0.2295  0.8926  0.1189
  713MOL0     C96149   5.183   1.245  11.497 -1.0313  0.4884  0.2418
  713MOL0     O96150   5.243   1.184  11.606 -0.1526 -0.3945 -0.0645
  713MOL0     C96151   5.199   1.204  11.741 -0.0064 -0.0009  0.0609
  713MOL0     C96152   5.116   1.305  11.798  0.8931 -0.2260  0.0935
  713MOL0     C96153   5.071   1.294  11.931  0.3830  0.4803 -0.0648
  713MOL0     C96154   5.110   1.198  12.015 -0.1505  0.2477  0.8948
  713MOL0     O96155   5.063   1.199  12.141  0.0476 -0.2439  0.1478
  713MOL0     C96156   5.148   1.168  12.250  0.0443 -0.2559  0.1534
  713MOL0     C96157   5.072   1.167  12.379 -1.0557  0.8002 -0.0809
  713MOL0     C96158   5.159   1.119  12.507 -0.3802  0.5690 -0.1638
  713MOL0     C96159   5.162   0.963  12.510 -0.2809  0.7846  0.5935
  713MOL0     C96160   5.232   0.939  12.643 -0.3508  0.0698 -0.0334
  713MOL0     C96161   5.264   0.796  12.683 -0.3881  0.5088 -0.7129
  713MOL0     C96162   5.313   0.777  12.826 -0.2073 -1.2152  0.8697
  713MOL0     C96163   5.358   0.633  12.846 -0.1424 -0.5502  0.3111
  713MOL0    Cl96164   5.230   0.507  12.814 -0.0372  0.0867  0.2706
  713MOL0     C96165   5.199   1.102  11.969 -0.5674  0.0613 -0.6528
  713MOL0     C96166   5.243   1.110  11.833 -0.2281  0.0218 -0.9610
  713MOL0     O96167   5.078   1.296  11.502  0.9334 -0.8097  0.1353
  713MOL0     C96168   5.208   1.344  11.264  0.0852  0.6614 -0.2430
  713MOL0     C96169   5.283   1.359  11.148  0.4259  0.0307  0.3787
  713MOL0     N96170   5.438   1.896  10.709  0.1929 -0.4465  0.3589
  713MOL0     N96171   5.388   1.919  10.597  0.4202  1.0513 -0.5308
  713MOL0     C96172   4.852   1.489   9.633 -0.3694 -0.2412  0.6012
  713MOL0     C96173   4.788   1.391   9.567  0.1183 -0.1467 -0.1089
  713MOL0     C96174   4.606   1.161   9.238  0.6351  0.2253 -0.5589
  713MOL0     C96175   4.483   1.118   9.300 -1.8439 -0.1249 -0.6773
  713MOL0     C96176   4.411   1.007   9.265  0.9433  1.1014 -0.0081
  713MOL0     C96177   4.459   0.933   9.153 -0.4418 -0.6943 -0.4466
  713MOL0     O96178   4.385   0.839   9.082  0.1466 -1.1531 -0.1876
  713MOL0     C96179   4.283   0.765   9.150 -0.4574  0.1552  0.1064
  713MOL0     C96180   4.243   0.643   9.075  0.4143 -1.1155 -0.5806
  713MOL0     C96181   4.186   0.539   9.182 -0.9145  0.6367  0.6474
  713MOL0     C96182   4.166   0.389   9.119 -0.6493 -0.1845 -0.1977
  713MOL0     C96183   4.077   0.391   9.003  0.3007 -0.1899  0.6290
  713MOL0     C96184   3.985   0.387   8.926 -0.3317 -0.7155 -0.4497
  713MOL0     C96185   4.571   0.979   9.083 -0.0097 -0.4268 -0.4428
  713MOL0     C96186   4.650   1.089   9.125  0.0577 -0.3288  0.2981
  713MOL0     C96187   4.781   1.120   9.051  0.0978  0.1838 -0.1002
  713MOL0     H96188   4.564   1.590   9.401 -0.1853 -0.6315  0.2405
  713MOL0     H96189   4.669   1.766   9.543  1.5844  1.1732 -3.0814
  713MOL0     H96190   4.841   1.872   9.844 -3.9295  0.4646  3.5938
  713MOL0     H96191   4.704   1.790   9.783  0.7044  3.4143 -1.5108
  713MOL0     H96192   4.790   1.578   9.909  2.6735 -2.0544  2.3296
  713MOL0     H96193   4.724   1.713  10.002  1.3354  0.6358  0.2225
  713MOL0     H96194   5.018   1.764   9.940 -1.4261 -0.6532 -2.4996
  713MOL0     H96195   4.998   1.589   9.989 -0.4594 -1.1021  1.0171
  713MOL0     H96196   4.928   1.843  10.154 -2.0319  0.9514 -2.0346
  713MOL0     H96197   4.847   1.687  10.179  0.2063  2.1602 -1.9366
  713MOL0     H96198   5.017   1.685  10.331 -0.3140 -0.1694 -1.1763
  713MOL0     H96199   5.076   1.571  10.204 -0.7160 -2.1554  3.7662
  713MOL0     H96200   5.233   1.724  10.130 -2.4683 -3.1066 -0.0332
  713MOL0     H96201   5.169   1.866  10.212  1.4756 -0.2055  0.1811
  713MOL0     H96202   5.358   1.799  10.316  0.0753  0.0015 -0.7938
  713MOL0     H96203   5.284   1.645  10.369 -3.7110 -1.6642 -2.9847
  713MOL0     H96204   5.151   1.919  10.441  0.9521 -0.7113  0.3496
  713MOL0     H96205   5.117   1.753  10.498 -0.4267  0.3009 -0.4362
  713MOL0     H96206   5.170   1.701  10.722  1.6589 -2.4126  1.8159
  713MOL0     H96207   5.488   1.816  10.948 -1.7265  0.6991 -0.9670
  713MOL0     H96208   5.334   1.731  10.982 -1.8981 -0.3480 -1.8612
  713MOL0     H96209   5.424   1.536  10.859 -1.4230  1.8926  0.8202
  713MOL0     H96210   5.577   1.621  10.838  0.6812  2.3979  1.4055
  713MOL0     H96211   5.466   1.564  11.130  0.0661  1.1718  1.1999
  713MOL0     H96212   5.621   1.629  11.089  0.6453 -0.0171 -0.7856
  713MOL0     H96213   5.653   1.394  11.141  0.6741  1.7890  1.0816
  713MOL0     H96214   5.672   1.410  10.969  1.2994 -0.9949  1.4921
  713MOL0     H96215   5.538   1.145  11.196  0.8377  1.2129 -0.7238
  713MOL0     H96216   5.399   1.093  11.408  1.1999  0.7276 -0.3974
  713MOL0     H96217   5.072   1.386  11.741  0.4761 -0.1936  0.4581
  713MOL0     H96218   5.002   1.367  11.974 -1.3060 -1.3891  0.5546
  713MOL0     H96219   5.190   1.068  12.238 -0.0964 -0.1012 -2.1153
  713MOL0     H96220   5.226   1.245  12.254  0.5559 -0.8098  1.1347
  713MOL0     H96221   5.020   1.263  12.391 -1.0056  0.6296  1.9853
  713MOL0     H96222   4.987   1.101  12.357 -0.5942  0.4287 -0.7858
  713MOL0     H96223   5.259   1.159  12.484  0.3365 -0.7956  0.4492
  713MOL0     H96224   5.111   1.160  12.596 -1.8193 -2.5544  0.6528
  713MOL0     H96225   5.211   0.924  12.421  0.6005  0.8569  1.0344
  713MOL0     H96226   5.061   0.921  12.513 -0.6080  1.1931 -2.3287
  713MOL0     H96227   5.164   0.976  12.720 -0.6908  0.7465 -0.6431
  713MOL0     H96228   5.328   0.991  12.639 -0.9478  1.1495 -0.8571
  713MOL0     H96229   5.177   0.736  12.657  0.3725 -0.7292 -0.4842
  713MOL0     H96230   5.347   0.777  12.615 -0.6654  1.5380 -1.3552
  713MOL0     H96231   5.226   0.780  12.893 -0.8638 -2.9609  0.1648
  713MOL0     H96232   5.389   0.853  12.848 -0.9095  0.5286 -2.1875
  713MOL0     H96233   5.432   0.610  12.770  1.0645 -0.0893  1.3152
  713MOL0     H96234   5.391   0.605  12.947 -1.4873  1.3633  1.3463
  713MOL0     H96235   5.240   1.025  12.033  5.0972  2.5339 -0.6692
  713MOL0     H96236   5.320   1.046  11.791  0.0409  0.4162 -1.0739
  713MOL0     H96237   5.123   1.407  11.289 -0.5824  0.3926 -1.6929
  713MOL0     H96238   5.260   1.440  11.080 -3.3633  1.4417  2.9973
  713MOL0     H96239   4.921   1.455   9.709 -1.8362  0.3372  2.2588
  713MOL0     H96240   4.822   1.289   9.582  0.6503  0.0280 -0.1155
  713MOL0     H96241   4.464   1.163   9.398 -0.0859  2.5140 -1.4314
  713MOL0     H96242   4.309   0.988   9.297  0.7391  0.7385 -0.8563
  713MOL0     H96243   4.199   0.835   9.153 -0.3826  0.2217  0.6486
  713MOL0     H96244   4.318   0.745   9.252 -1.8397  1.4441  0.8658
  713MOL0     H96245   4.329   0.608   9.017 -2.0328 -1.6795 -4.1673
  713MOL0     H96246   4.162   0.664   9.005  0.9039  2.2966 -0.3044
  713MOL0     H96247   4.098   0.574   9.237 -0.0229  0.7243  2.0637
  713MOL0     H96248   4.263   0.511   9.254  1.9814 -0.2685 -2.5120
  713MOL0     H96249   4.259   0.341   9.090 -0.6130 -0.1754 -0.0986
  713MOL0     H96250   4.137   0.329   9.206  1.6967 -0.8728  0.1594
  713MOL0     H96251   3.898   0.387   8.863 -0.4887  1.1632 -0.2892
  713MOL0     H96252   4.610   0.916   9.004  1.7748  3.3172 -2.8724
  713MOL0     H96253   4.779   1.074   8.952 -1.1349 -3.5787  1.4752
  713MOL0     H96254   4.804   1.226   9.034  1.6703  0.8427  4.6101
  713MOL0     H96255   4.869   1.088   9.108  0.6063  3.0222  0.8929
  714MOL0     O96256   2.099   2.350   4.322 -0.5417  0.0001 -0.2747
  714MOL0     C96257   2.001   2.410   4.296  0.6989  0.2402 -0.1368
  714MOL0     O96258   1.901   2.433   4.383 -0.3967  0.2215 -0.0824
  714MOL0     C96259   1.869   2.349   4.487 -0.2037 -0.5273 -0.7292
  714MOL0     C96260   1.891   2.208   4.490 -1.0056 -0.0344 -0.5081
  714MOL0     C96261   1.843   2.141   4.607  0.0630 -0.4403 -0.9194
  714MOL0     C96262   1.785   2.199   4.714  0.0694 -0.2674 -0.4000
  714MOL0     O96263   1.730   2.114   4.804  0.0769 -0.2290  0.2247
  714MOL0     C96264   1.676   2.166   4.930  0.6115 -0.6633  0.1023
  714MOL0     C96265   1.782   2.183   5.032  0.2856  0.3368  0.2259
  714MOL0     C96266   1.834   2.053   5.097  0.7759 -0.3826 -0.3188
  714MOL0     C96267   1.757   2.007   5.228  0.2636 -0.5212 -0.9461
  714MOL0     C96268   1.848   1.941   5.329  0.2096 -0.0086  0.1729
  714MOL0     C96269   1.906   1.812   5.273 -0.6370  0.5496  0.1842
  714MOL0     C96270   1.989   1.743   5.394  0.5784  0.6106 -0.2031
  714MOL0     C96271   2.139   1.718   5.363  0.5156  0.5250  0.0458
  714MOL0     N96272   2.207   1.649   5.483  0.1633  0.1078  0.4823
  714MOL0     C96273   2.199   1.516   5.502  0.1155  0.1636 -0.1904
  714MOL0     C96274   2.297   1.488   5.593 -0.7970 -0.1658 -0.0841
  714MOL0     C96275   2.328   1.355   5.662 -0.0805 -0.0418  0.6142
  714MOL0     C96276   2.236   1.362   5.787 -0.1725  0.2242  0.4424
  714MOL0     C96277   2.255   1.230   5.867  1.0397  0.0464 -0.5875
  714MOL0     C96278   2.178   1.116   5.807 -0.3123  0.3093 -0.8024
  714MOL0     O96279   2.044   1.116   5.873 -0.0726 -0.2238  0.6269
  714MOL0     C96280   1.966   1.007   5.858  0.1011  0.3472 -0.0617
  714MOL0     C96281   1.850   1.008   5.941 -0.0855  0.1440  0.3934
  714MOL0     C96282   1.754   0.907   5.928 -0.7569 -0.5168  0.4588
  714MOL0     C96283   1.752   0.824   5.817 -0.9409 -0.0731 -0.2143
  714MOL0     C96284   1.631   0.742   5.777  0.1667 -0.2890 -0.8162
  714MOL0     O96285   1.539   0.722   5.879  0.3519 -0.2792  0.4742
  714MOL0     C96286   1.464   0.606   5.872 -0.3123  0.5271  0.1414
  714MOL0     C96287   1.471   0.498   5.961 -0.6518 -0.5140 -0.4280
  714MOL0     C96288   1.407   0.379   5.949 -0.4573  0.5628 -0.1697
  714MOL0     C96289   1.329   0.354   5.835 -0.1426  0.6031 -0.1789
  714MOL0     O96290   1.272   0.233   5.832  0.5168 -0.2920 -0.5163
  714MOL0     C96291   1.294   0.130   5.726  0.0267  0.6416  0.0499
  714MOL0     C96292   1.386   0.024   5.786  0.3662 -0.0328  0.4832
  714MOL0     C96293   1.420  -0.081   5.680 -0.3409  0.8099  0.6884
  714MOL0     C96294   1.304  -0.141   5.600 -0.1678 -0.4808  0.8020
  714MOL0     C96295   1.365  -0.239   5.500  0.4428  0.1388  0.5174
  714MOL0     C96296   1.267  -0.326   5.424  0.4286  0.9125 -0.1594
  714MOL0     C96297   1.184  -0.262   5.316 -0.0852  0.3011 -0.5069
  714MOL0     C96298   1.263  -0.214   5.193  0.4831  0.3693 -0.4104
  714MOL0    Cl96299   1.154  -0.209   5.053 -0.0463  0.1229 -0.2670
  714MOL0     C96300   1.309   0.459   5.746 -0.2308  0.1498  0.0630
  714MOL0     C96301   1.372   0.581   5.767  0.1093  0.4183  0.2202
  714MOL0     O96302   1.627   0.690   5.673 -0.5857  0.1639  0.4337
  714MOL0     C96303   1.863   0.823   5.734 -0.1588  0.4078 -0.2563
  714MOL0     C96304   1.971   0.913   5.757  0.4936  0.3404 -0.4312
  714MOL0     N96305   2.363   1.598   5.637 -0.7433  0.0725  0.4187
  714MOL0     N96306   2.309   1.693   5.565 -0.1659 -0.7955 -0.3279
  714MOL0     C96307   1.781   2.338   4.718  0.1415 -0.8480 -0.0699
  714MOL0     C96308   1.820   2.410   4.599 -0.1104  0.2419 -0.1446
  714MOL0     C96309   1.996   2.481   4.167 -0.5405 -0.4052 -0.4009
  714MOL0     C96310   2.114   2.561   4.135  1.2572 -1.4859 -1.2312
  714MOL0     C96311   2.100   2.671   4.042 -0.9467  0.2194 -0.0624
  714MOL0     C96312   1.984   2.674   3.964 -0.0215 -0.3090  0.1016
  714MOL0     O96313   1.944   2.766   3.865  0.2211  0.5736  0.2096
  714MOL0     C96314   2.000   2.723   3.736 -0.3952 -0.8050 -0.2974
  714MOL0     C96315   1.990   2.839   3.644  0.2371 -0.2734  0.7936
  714MOL0     C96316   1.875   2.945   3.662 -0.2680  0.5440  0.2380
  714MOL0     C96317   1.892   3.063   3.564  0.4867  0.8531  1.4250
  714MOL0     C96318   2.004   3.153   3.580  1.0242 -0.4733  0.0821
  714MOL0     C96319   2.094   3.227   3.585 -0.2152 -0.2035 -1.5632
  714MOL0     C96320   1.882   2.586   3.995 -0.1889 -0.1077  0.9881
  714MOL0     C96321   1.885   2.493   4.093 -0.2238 -0.0201 -0.3878
  714MOL0     C96322   1.756   2.408   4.110 -0.7915  0.1288 -0.1186
  714MOL0     H96323   1.936   2.149   4.411 -0.7979 -1.1255  0.4074
  714MOL0     H96324   1.853   2.033   4.612 -1.0466 -0.5332 -0.6446
  714MOL0     H96325   1.626   2.263   4.918  0.8757 -0.7182 -1.5982
  714MOL0     H96326   1.593   2.104   4.966  0.2094  0.8792  1.9802
  714MOL0     H96327   1.723   2.234   5.109 -3.8595 -4.4156  0.7479
  714MOL0     H96328   1.858   2.251   4.992  0.1468 -1.3113 -3.3046
  714MOL0     H96329   1.942   2.064   5.114  0.6722 -0.0797  0.1529
  714MOL0     H96330   1.814   1.975   5.023  0.6232 -1.6868  1.0442
  714MOL0     H96331   1.721   2.099   5.274 -3.6243 -1.2475 -2.1778
  714MOL0     H96332   1.677   1.936   5.210 -1.4872  1.4983 -1.5750
  714MOL0     H96333   1.921   2.020   5.351 -0.6360  0.1591  2.7598
  714MOL0     H96334   1.786   1.908   5.413 -1.1827 -1.0394 -1.2177
  714MOL0     H96335   1.838   1.739   5.230  2.9815 -4.4732  1.9513
  714MOL0     H96336   1.970   1.834   5.187 -0.8300  3.7330  0.7240
  714MOL0     H96337   1.936   1.649   5.407 -0.3091  1.0878 -0.3142
  714MOL0     H96338   1.969   1.794   5.488 -1.3454 -0.3159 -0.0728
  714MOL0     H96339   2.144   1.660   5.270 -1.8365  0.4054 -0.0832
  714MOL0     H96340   2.179   1.817   5.338 -0.7275  1.5705  1.9488
  714MOL0     H96341   2.125   1.457   5.450  1.0666  0.8750 -2.4756
  714MOL0     H96342   2.306   1.263   5.605  0.6601  0.0104  0.2292
  714MOL0     H96343   2.431   1.362   5.698 -1.2054  2.9043  3.6932
  714MOL0     H96344   2.258   1.451   5.848 -1.9849  2.4379 -1.9248
  714MOL0     H96345   2.133   1.369   5.752 -0.2977  1.7046  1.0170
  714MOL0     H96346   2.229   1.248   5.972  0.8719 -2.4014 -0.1583
  714MOL0     H96347   2.363   1.211   5.864  0.8300 -1.1638 -0.8847
  714MOL0     H96348   2.224   1.021   5.837 -1.0323  0.0189 -0.6038
  714MOL0     H96349   2.171   1.132   5.699 -4.1098  1.4319 -0.5390
  714MOL0     H96350   1.849   1.085   6.018 -0.5588  3.3839 -2.6089
  714MOL0     H96351   1.667   0.900   5.992 -0.7625  2.7708  1.0191
  714MOL0     H96352   1.545   0.503   6.039 -2.2199 -2.4771  1.3010
  714MOL0     H96353   1.402   0.316   6.037 -0.5575  0.1848 -0.4433
  714MOL0     H96354   1.199   0.088   5.691  0.5123 -0.5386  0.0937
  714MOL0     H96355   1.340   0.165   5.633 -0.6564  0.3467 -0.4104
  714MOL0     H96356   1.481   0.056   5.830 -0.3198 -0.4282  2.3082
  714MOL0     H96357   1.346  -0.023   5.876  3.1847  0.1210  1.9256
  714MOL0     H96358   1.495  -0.038   5.613  1.6675 -0.1067  2.2267
  714MOL0     H96359   1.475  -0.158   5.734 -0.1334 -0.1716 -0.8701
  714MOL0     H96360   1.251  -0.065   5.541  0.4431 -1.3995 -0.9923
  714MOL0     H96361   1.236  -0.194   5.666 -0.3677  1.6127  2.3874
  714MOL0     H96362   1.421  -0.305   5.568  1.7497  1.2665  0.5929
  714MOL0     H96363   1.439  -0.189   5.436 -0.9117  2.4343  0.6339
  714MOL0     H96364   1.337  -0.406   5.400  0.4465  0.6030  0.8662
  714MOL0     H96365   1.196  -0.363   5.498  0.3386  1.6616  0.1423
  714MOL0     H96366   1.139  -0.170   5.354  0.5469 -0.1596  1.4747
  714MOL0     H96367   1.104  -0.327   5.281 -1.1198  0.9775  0.5085
  714MOL0     H96368   1.309  -0.118   5.217  2.5592 -1.0456  1.7155
  714MOL0     H96369   1.342  -0.277   5.150 -2.0510 -1.4788 -2.6853
  714MOL0     H96370   1.241   0.435   5.665  2.0694  0.5970 -2.1302
  714MOL0     H96371   1.360   0.667   5.703  2.2300 -0.6776 -1.8184
  714MOL0     H96372   1.888   0.754   5.654  0.5522  2.5144 -1.9581
  714MOL0     H96373   2.048   0.914   5.681  0.7163  0.0092 -0.2165
  714MOL0     H96374   1.729   2.399   4.791  0.0118 -0.2315 -0.6648
  714MOL0     H96375   1.801   2.517   4.609  0.3858  0.3021  0.1580
  714MOL0     H96376   2.206   2.541   4.188  0.9485  3.0356  1.5096
  714MOL0     H96377   2.175   2.747   4.021 -1.0732  0.4299  0.2360
  714MOL0     H96378   1.932   2.647   3.697  0.9505 -3.1347  1.6728
  714MOL0     H96379   2.101   2.683   3.738 -0.6487 -1.7030 -2.3657
  714MOL0     H96380   1.995   2.803   3.541  0.6326  0.0280  0.7040
  714MOL0     H96381   2.085   2.892   3.663  0.3784 -0.7498  1.4513
  714MOL0     H96382   1.859   2.973   3.767 -0.7681 -0.6454  0.4877
  714MOL0     H96383   1.778   2.898   3.644  1.3063 -2.1955 -1.8923
  714MOL0     H96384   1.920   3.015   3.470  1.9775  1.1478  1.7014
  714MOL0     H96385   1.795   3.113   3.557  0.4914  0.6643 -0.7516
  714MOL0     H96386   2.178   3.293   3.578 -0.5202  0.5028  0.6744
  714MOL0     H96387   1.784   2.605   3.953 -0.9681  0.5568  2.9691
  714MOL0     H96388   1.691   2.436   4.026 -1.5687  0.8694  0.7030
  714MOL0     H96389   1.772   2.300   4.108  0.9719  0.3315  0.9323
  714MOL0     H96390   1.705   2.442   4.201  0.0843  0.9656  0.0784
  715MOL0     O96391   5.628  11.102   3.983  0.0006 -0.6089  0.7285
  715MOL0     C96392   5.706  11.124   4.076  0.3920  0.4762  0.8147
  715MOL0     O96393   5.817  11.196   4.066 -1.0243 -0.1101  0.5226
  715MOL0     C96394   5.824  11.282   3.968  0.2509 -0.6082  0.7992
  715MOL0     C96395   5.866  11.241   3.844 -1.0098  0.2919  0.8680
  715MOL0     C96396   5.872  11.338   3.743  0.1160  0.2034  0.6508
  715MOL0     C96397   5.818  11.472   3.764  0.9002 -1.0432  0.2158
  715MOL0     O96398   5.810  11.574   3.671 -0.4481  0.4046  0.5278
  715MOL0     C96399   5.898  11.583   3.565 -0.5558  0.2615  0.3626
  715MOL0     C96400   6.037  11.598   3.628 -0.0093  0.3425  0.3527
  715MOL0     C96401   6.143  11.642   3.523  0.1628 -0.1854  0.2840
  715MOL0     C96402   6.187  11.544   3.418 -0.4285  0.1079  1.0911
  715MOL0     C96403   6.310  11.596   3.337 -0.7356  0.5634  0.1220
  715MOL0     C96404   6.383  11.474   3.280 -0.0490  0.9471  0.6299
  715MOL0     C96405   6.500  11.520   3.190 -0.2560  0.4833 -0.0664
  715MOL0     C96406   6.542  11.394   3.107  0.2064 -0.6468 -0.7392
  715MOL0     N96407   6.640  11.438   3.007  0.1696 -0.4451 -0.7290
  715MOL0     C96408   6.734  11.359   2.955  0.0043  0.6824 -0.4659
  715MOL0     C96409   6.804  11.428   2.863  0.5754 -0.5847 -0.5877
  715MOL0     C96410   6.921  11.386   2.776  0.2258  0.9566 -0.5917
  715MOL0     C96411   7.041  11.419   2.869 -0.2041 -0.4006  0.4714
  715MOL0     C96412   7.073  11.329   2.988  0.5295 -0.0656  0.3599
  715MOL0     C96413   7.216  11.330   3.043  1.0942  1.2698 -0.1140
  715MOL0     O96414   7.228  11.281   3.181  0.4697  0.2522 -0.3106
  715MOL0     C96415   7.361  11.249   3.228  0.0678 -0.5184  0.7589
  715MOL0     C96416   7.479  11.285   3.162  0.2976 -1.0144 -1.4283
  715MOL0     C96417   7.603  11.275   3.227  0.5379  0.3630 -0.5135
  715MOL0     C96418   7.610  11.214   3.356  0.3029 -0.1131  0.4208
  715MOL0     C96419   7.737  11.206   3.427  0.2104  1.1618  0.4530
  715MOL0     O96420   7.740  11.128   3.541  0.3292 -0.2208  0.6422
  715MOL0     C96421   7.858  11.116   3.612  0.2377  0.5438 -1.3653
  715MOL0     C96422   7.988  11.111   3.568 -1.1067 -1.0124 -0.2003
  715MOL0     C96423   8.097  11.089   3.656  0.1772 -0.1477  0.0724
  715MOL0     C96424   8.074  11.064   3.792 -0.5538 -0.5055  0.1902
  715MOL0     O96425   8.191  11.024   3.856  0.6135 -0.9043 -0.1748
  715MOL0     C96426   8.178  11.047   3.994 -0.3653 -0.4024 -0.5252
  715MOL0     C96427   8.299  11.010   4.082  0.4399 -0.2436 -0.1687
  715MOL0     C96428   8.338  10.865   4.038 -0.5165 -0.0960 -0.3755
  715MOL0     C96429   8.275  10.755   4.123 -0.1233  0.3393  0.7205
  715MOL0     C96430   8.137  10.707   4.092 -0.5717 -0.0333  0.0614
  715MOL0     C96431   8.091  10.675   3.948 -0.4769  0.2035 -0.6033
  715MOL0     C96432   7.945  10.624   3.955 -0.3040  0.6975 -0.2997
  715MOL0     C96433   7.943  10.477   3.974  0.5191  0.2338 -0.6702
  715MOL0    Cl96434   7.988  10.396   3.818  0.4938 -0.0245 -0.1219
  715MOL0     C96435   7.943  11.070   3.837 -0.3766  0.2471 -0.4446
  715MOL0     C96436   7.837  11.084   3.749 -0.2283  0.1051  0.9412
  715MOL0     O96437   7.832  11.249   3.370  0.2370 -0.5877  0.1372
  715MOL0     C96438   7.495  11.158   3.411 -1.2843 -0.0812  0.2908
  715MOL0     C96439   7.370  11.181   3.348 -0.7218  0.4294 -0.2766
  715MOL0     N96440   6.757  11.560   2.874  0.0558 -0.2873  0.5450
  715MOL0     N96441   6.653  11.568   2.956 -0.6092  0.1155 -0.5682
  715MOL0     C96442   5.781  11.503   3.893  0.2916 -0.0428  0.2030
  715MOL0     C96443   5.782  11.412   3.996 -0.3648 -0.6681  0.7836
  715MOL0     C96444   5.683  11.047   4.198  0.2751 -0.2090 -0.1379
  715MOL0     C96445   5.627  10.918   4.198  0.3949 -0.3786 -1.0473
  715MOL0     C96446   5.600  10.848   4.319  0.1705  0.1693 -0.8009
  715MOL0     C96447   5.633  10.902   4.443 -0.1402  0.1352 -0.1522
  715MOL0     O96448   5.596  10.823   4.548  0.2962 -0.9740  0.1507
  715MOL0     C96449   5.646  10.862   4.676  0.2248  0.2233  0.7236
  715MOL0     C96450   5.653  10.730   4.751  0.5177 -0.5446 -0.1006
  715MOL0     C96451   5.704  10.742   4.887 -0.5440 -0.2704 -0.3551
  715MOL0     C96452   5.838  10.816   4.884 -0.2613  0.0898 -0.6362
  715MOL0     C96453   5.872  10.833   5.027  0.7600  0.3537 -0.9380
  715MOL0     C96454   5.897  10.858   5.147  0.7306 -0.1689 -0.8655
  715MOL0     C96455   5.681  11.034   4.443 -0.0321  0.2841 -0.9440
  715MOL0     C96456   5.703  11.108   4.326  0.2032  0.0221  0.8578
  715MOL0     C96457   5.753  11.243   4.338  0.1266 -0.3741 -0.1171
  715MOL0     H96458   5.903  11.142   3.822  2.0136  1.1660  1.5804
  715MOL0     H96459   5.924  11.308   3.653  0.2503  0.2433  0.7139
  715MOL0     H96460   5.886  11.492   3.505  1.6203  1.7098 -2.4695
  715MOL0     H96461   5.878  11.664   3.496  4.2031  0.8492 -0.6954
  715MOL0     H96462   6.075  11.506   3.673  2.0388  0.6355 -0.6267
  715MOL0     H96463   6.032  11.679   3.700 -0.9491  1.6317 -1.1105
  715MOL0     H96464   6.235  11.664   3.579  0.2984  0.2797 -0.1077
  715MOL0     H96465   6.111  11.733   3.472 -0.3163 -0.1593  0.6326
  715MOL0     H96466   6.185  11.438   3.445 -2.0711  0.3978  2.2206
  715MOL0     H96467   6.105  11.538   3.346 -2.5853 -2.7219  3.5084
  715MOL0     H96468   6.269  11.652   3.252 -2.9257 -4.4520 -2.5450
  715MOL0     H96469   6.386  11.658   3.386  0.5951  0.4952 -1.7696
  715MOL0     H96470   6.421  11.406   3.356  0.8931 -2.3736 -2.4903
  715MOL0     H96471   6.305  11.421   3.224 -1.2266  2.6784  0.5263
  715MOL0     H96472   6.581  11.566   3.248 -0.0961  2.4155 -1.7112
  715MOL0     H96473   6.453  11.596   3.128  1.0333  1.0232 -0.4177
  715MOL0     H96474   6.584  11.319   3.175  0.3921  0.5175  0.4624
  715MOL0     H96475   6.456  11.356   3.050 -1.5781  2.0138 -0.0347
  715MOL0     H96476   6.734  11.252   2.973 -3.0017  0.8325  0.8697
  715MOL0     H96477   6.921  11.278   2.756  2.3240  1.0444 -1.3022
  715MOL0     H96478   6.921  11.434   2.678 -0.0810  0.8139 -0.6590
  715MOL0     H96479   7.131  11.429   2.808 -0.3015  2.6097  0.6853
  715MOL0     H96480   7.025  11.520   2.908 -0.5433 -0.5836  0.8099
  715MOL0     H96481   7.043  11.225   2.969  5.6910 -2.5232  3.4593
  715MOL0     H96482   7.012  11.358   3.074 -0.9963  2.5920 -1.4833
  715MOL0     H96483   7.269  11.421   3.014  2.0231  0.5047 -0.9190
  715MOL0     H96484   7.268  11.253   2.984 -0.2566  1.2623 -1.3402
  715MOL0     H96485   7.480  11.334   3.065 -3.0216 -0.3090 -1.2278
  715MOL0     H96486   7.696  11.307   3.180 -0.4473  2.8733 -0.8786
  715MOL0     H96487   8.023  11.117   3.466 -1.2251 -1.8646 -0.3001
  715MOL0     H96488   8.200  11.085   3.622 -0.9643  1.2101 -4.0744
  715MOL0     H96489   8.150  11.147   4.027  0.8535 -0.4110  0.6281
  715MOL0     H96490   8.096  10.978   4.017 -0.0820 -1.0961 -1.5078
  715MOL0     H96491   8.389  11.071   4.076 -0.8674  1.8665  0.6610
  715MOL0     H96492   8.284  11.021   4.190 -0.3844 -0.3309 -0.2731
  715MOL0     H96493   8.327  10.841   3.932  0.1943 -0.7034 -0.3169
  715MOL0     H96494   8.446  10.864   4.054 -0.6524 -0.0820  0.5840
  715MOL0     H96495   8.264  10.792   4.225 -0.0108  1.7867  0.2406
  715MOL0     H96496   8.342  10.669   4.119 -0.6206 -0.0102 -0.9421
  715MOL0     H96497   8.066  10.786   4.119  0.1863  0.9737 -0.7974
  715MOL0     H96498   8.119  10.623   4.160  2.5314  0.0792  1.1814
  715MOL0     H96499   8.100  10.760   3.881 -3.2391  0.6021 -0.5973
  715MOL0     H96500   8.153  10.597   3.904 -1.1724 -0.6202 -0.1662
  715MOL0     H96501   7.890  10.640   3.862 -1.3042 -2.4772 -0.3920
  715MOL0     H96502   7.893  10.682   4.032 -1.1887 -2.5275  1.7752
  715MOL0     H96503   8.025  10.451   4.040  0.2348 -3.0160 -1.4432
  715MOL0     H96504   7.843  10.442   4.004 -0.6398  0.8603 -3.4659
  715MOL0     H96505   7.920  11.065   3.943 -0.1047 -0.4397 -0.4122
  715MOL0     H96506   7.734  11.101   3.781 -0.4138  0.7641  0.0188
  715MOL0     H96507   7.494  11.113   3.510 -0.4685 -0.3736  0.1706
  715MOL0     H96508   7.279  11.147   3.396  0.5443 -1.3782  0.9792
  715MOL0     H96509   5.737  11.602   3.903 -0.6795 -0.3883 -0.5617
  715MOL0     H96510   5.750  11.445   4.094 -0.5597  1.3358  0.1084
  715MOL0     H96511   5.597  10.875   4.103 -2.2610 -1.5763  0.2193
  715MOL0     H96512   5.558  10.749   4.308  1.0726 -0.5023  1.3151
  715MOL0     H96513   5.574  10.923   4.731 -1.2149 -1.2471  0.5542
  715MOL0     H96514   5.748  10.900   4.660  0.9375 -2.6719 -2.8282
  715MOL0     H96515   5.709  10.657   4.692 -0.5336  0.1926 -2.0913
  715MOL0     H96516   5.556  10.685   4.773  0.7596 -1.2510 -0.4244
  715MOL0     H96517   5.707  10.651   4.948 -1.6383  0.9748  1.6756
  715MOL0     H96518   5.627  10.792   4.947  0.7545  2.6333 -0.9772
  715MOL0     H96519   5.905  10.760   4.818 -1.0381 -3.2899  1.1958
  715MOL0     H96520   5.825  10.921   4.860  0.8772  0.3262 -0.2706
  715MOL0     H96521   5.933  10.881   5.245  2.9998  1.0719 -1.9091
  715MOL0     H96522   5.697  11.075   4.543 -1.3245 -1.3966  0.0130
  715MOL0     H96523   5.861  11.248   4.321  0.2442 -2.3446 -0.2022
  715MOL0     H96524   5.708  11.309   4.263  0.6243 -1.5812 -1.5345
  715MOL0     H96525   5.726  11.286   4.434 -0.6020 -1.5060  0.2068
  716MOL0     O96526   5.732   6.475   6.428 -0.1314 -0.0475 -0.8954
  716MOL0     C96527   5.693   6.382   6.354 -0.2311 -0.1543 -0.5293
  716MOL0     O96528   5.779   6.294   6.294 -0.1777  0.4125 -0.5718
  716MOL0     C96529   5.907   6.323   6.263 -0.1627  0.2647  0.1200
  716MOL0     C96530   6.001   6.223   6.274 -0.8893 -0.5679  0.5055
  716MOL0     C96531   6.130   6.252   6.232  0.3267 -0.0692 -0.0702
  716MOL0     C96532   6.155   6.368   6.169 -1.4274  0.0411  0.4864
  716MOL0     O96533   6.283   6.393   6.121  0.2383 -0.4726  0.3580
  716MOL0     C96534   6.302   6.382   5.979 -0.7409  0.5479 -0.1409
  716MOL0     C96535   6.354   6.238   5.955  0.5172 -0.1604 -0.1250
  716MOL0     C96536   6.383   6.229   5.802 -0.3877 -1.0468  0.2655
  716MOL0     C96537   6.439   6.094   5.758 -0.6731  0.1617  0.1625
  716MOL0     C96538   6.417   6.062   5.610 -0.6265 -0.4185  0.6912
  716MOL0     C96539   6.487   5.932   5.566 -0.1194 -1.0616 -1.3170
  716MOL0     C96540   6.585   5.965   5.445  0.1353  0.2769 -0.3788
  716MOL0     C96541   6.655   5.842   5.395  1.4128 -1.0337 -0.1025
  716MOL0     N96542   6.583   5.716   5.401  0.9323 -0.0432  0.7914
  716MOL0     C96543   6.597   5.614   5.488  0.7295  0.5436  0.8776
  716MOL0     C96544   6.539   5.503   5.431  0.8216  0.3304 -0.3836
  716MOL0     C96545   6.531   5.368   5.466  0.2635 -0.4071  0.0837
  716MOL0     C96546   6.560   5.286   5.337 -0.3862  0.6458  0.6548
  716MOL0     C96547   6.708   5.275   5.302 -0.4415 -0.0264  1.2580
  716MOL0     C96548   6.767   5.223   5.169  0.0948 -0.6500 -0.3685
  716MOL0     O96549   6.906   5.240   5.197 -0.8644  1.3255 -0.0452
  716MOL0     C96550   7.007   5.217   5.106  0.6938  0.7988  0.4303
  716MOL0     C96551   6.981   5.181   4.970 -0.1536 -0.3786  0.6121
  716MOL0     C96552   7.079   5.161   4.872 -0.0390  0.6124  0.6916
  716MOL0     C96553   7.211   5.170   4.909 -0.1174  0.1885  0.1471
  716MOL0     C96554   7.329   5.165   4.812  0.9351 -0.2682  0.3802
  716MOL0     O96555   7.300   5.142   4.691 -0.5548 -0.0292  0.5996
  716MOL0     C96556   7.391   5.145   4.590 -0.0569 -0.2060 -0.3037
  716MOL0     C96557   7.368   5.223   4.473 -0.1503  0.9589  0.0631
  716MOL0     C96558   7.447   5.224   4.368  0.6378 -0.3844 -0.1095
  716MOL0     C96559   7.571   5.159   4.375  0.0622  0.5921  0.0204
  716MOL0     O96560   7.661   5.151   4.268 -0.3933 -0.3496  0.4689
  716MOL0     C96561   7.614   5.180   4.134 -0.5540  0.4570 -0.2266
  716MOL0     C96562   7.518   5.079   4.075 -0.0371 -0.2010  0.0337
  716MOL0     C96563   7.501   5.083   3.921 -0.7461 -0.2718 -0.2803
  716MOL0     C96564   7.622   5.038   3.855  0.0682 -0.1876  0.0807
  716MOL0     C96565   7.588   5.005   3.709  0.7062 -0.1605 -0.0666
  716MOL0     C96566   7.677   4.895   3.657 -1.2220  0.7098  0.7377
  716MOL0     C96567   7.710   4.918   3.501  0.0646 -0.0165 -0.2185
  716MOL0     C96568   7.592   4.889   3.403 -0.2704 -1.4564  0.4037
  716MOL0    Cl96569   7.552   4.717   3.421 -0.3334  0.1047  0.0034
  716MOL0     C96570   7.600   5.074   4.484  0.2243  0.1833  1.1093
  716MOL0     C96571   7.503   5.060   4.585 -0.5442  0.2204 -0.2650
  716MOL0     O96572   7.447   5.172   4.858  0.1405  0.7982  1.0198
  716MOL0     C96573   7.246   5.192   5.045 -0.5033 -1.6460 -0.6330
  716MOL0     C96574   7.140   5.224   5.141  0.4263 -0.7112  0.4638
  716MOL0     N96575   6.478   5.551   5.312  0.3002  0.1638  0.0126
  716MOL0     N96576   6.510   5.668   5.286 -0.2413 -0.4870 -0.4334
  716MOL0     C96577   6.058   6.471   6.148  1.1037 -0.0764 -0.1664
  716MOL0     C96578   5.930   6.448   6.204 -0.7214 -0.3490 -0.0205
  716MOL0     C96579   5.542   6.377   6.329 -0.0473 -0.9428  0.1000
  716MOL0     C96580   5.502   6.256   6.288  0.2101 -0.8431  0.0538
  716MOL0     C96581   5.367   6.233   6.241 -0.1111 -0.0022  0.0805
  716MOL0     C96582   5.273   6.340   6.253  0.5461 -0.8640 -1.0405
  716MOL0     O96583   5.152   6.301   6.215  0.1908  0.8175  0.7514
  716MOL0     C96584   5.049   6.400   6.238 -0.4370 -0.3593 -0.8753
  716MOL0     C96585   4.918   6.369   6.160 -0.6188  0.2408 -0.8512
  716MOL0     C96586   4.868   6.229   6.210 -0.9437 -0.1524 -0.0052
  716MOL0     C96587   4.915   6.111   6.114 -0.7812 -1.1932 -0.1730
  716MOL0     C96588   4.808   6.086   6.023  0.5455  0.0945  0.7302
  716MOL0     C96589   4.710   6.070   5.952  0.5386  0.2509 -0.3527
  716MOL0     C96590   5.315   6.474   6.301 -0.5459  0.3564  0.0557
  716MOL0     C96591   5.451   6.488   6.341  0.3068  0.3003 -0.4615
  716MOL0     C96592   5.486   6.623   6.395  0.2232 -0.6965  0.4719
  716MOL0     H96593   5.975   6.130   6.324  1.3578 -2.1314 -1.0283
  716MOL0     H96594   6.200   6.170   6.237  0.1224 -0.3340 -1.2344
  716MOL0     H96595   6.213   6.401   5.918  1.1957  0.5070 -3.1488
  716MOL0     H96596   6.372   6.451   5.932  0.6728 -1.0183 -0.4145
  716MOL0     H96597   6.271   6.173   5.983  1.3255 -0.3009  2.1282
  716MOL0     H96598   6.449   6.214   6.004  0.5330 -0.2815 -0.2143
  716MOL0     H96599   6.456   6.304   5.773 -1.5984 -0.7237 -2.2623
  716MOL0     H96600   6.293   6.251   5.743 -0.4638 -0.0774  0.7186
  716MOL0     H96601   6.546   6.086   5.775 -1.0634 -0.4032  2.8017
  716MOL0     H96602   6.375   6.026   5.815  0.5661 -0.8017  0.4402
  716MOL0     H96603   6.309   6.055   5.595 -0.7618  1.6559  0.3925
  716MOL0     H96604   6.453   6.151   5.557 -0.3213 -0.7189  0.3869
  716MOL0     H96605   6.531   5.878   5.650 -3.5245 -0.9326  0.7188
  716MOL0     H96606   6.402   5.869   5.539 -1.7942  0.6122 -0.1703
  716MOL0     H96607   6.662   6.040   5.466  4.3858 -3.0396 -2.6468
  716MOL0     H96608   6.528   6.017   5.368  0.8787  2.5351  0.5095
  716MOL0     H96609   6.672   5.868   5.290  0.7128 -0.4728 -0.0803
  716MOL0     H96610   6.749   5.822   5.448  1.4317  0.2146  0.3830
  716MOL0     H96611   6.657   5.617   5.578  4.2589  3.5600 -1.2863
  716MOL0     H96612   6.609   5.353   5.541  0.5845  0.8648  0.0271
  716MOL0     H96613   6.433   5.336   5.503  0.7442 -0.9856  0.8912
  716MOL0     H96614   6.530   5.181   5.349  0.7505  0.2652  0.3653
  716MOL0     H96615   6.505   5.329   5.253  2.3249  2.3795 -0.3940
  716MOL0     H96616   6.754   5.206   5.374 -0.7908 -1.2999  0.3040
  716MOL0     H96617   6.753   5.375   5.309 -2.0540  0.6018  4.6200
  716MOL0     H96618   6.733   5.288   5.087  1.7876  1.1648  0.2783
  716MOL0     H96619   6.738   5.119   5.159  0.1181 -0.5337 -1.9518
  716MOL0     H96620   6.879   5.179   4.932 -0.5004 -1.5166  1.5413
  716MOL0     H96621   7.056   5.158   4.766  3.1984 -1.1641 -0.1056
  716MOL0     H96622   7.279   5.283   4.460 -2.3022 -1.9461  0.3558
  716MOL0     H96623   7.430   5.290   4.283  0.2467 -0.0384  0.2313
  716MOL0     H96624   7.583   5.282   4.112  1.7243  1.4216  0.7160
  716MOL0     H96625   7.710   5.166   4.083  0.6944  2.0785  1.5278
  716MOL0     H96626   7.536   4.978   4.114 -3.3676 -0.9519 -0.0852
  716MOL0     H96627   7.418   5.113   4.105 -1.0987 -2.1446 -1.0665
  716MOL0     H96628   7.420   5.010   3.915 -1.2539  0.3728 -1.9667
  716MOL0     H96629   7.465   5.185   3.904 -4.0370 -1.0976  0.9112
  716MOL0     H96630   7.648   4.942   3.902 -2.3347 -0.9449 -0.0230
  716MOL0     H96631   7.710   5.103   3.855 -1.2491  1.6560 -1.1502
  716MOL0     H96632   7.604   5.093   3.646  1.3828 -1.1635 -1.3544
  716MOL0     H96633   7.483   4.979   3.695  1.0980 -1.9515  0.0842
  716MOL0     H96634   7.775   4.891   3.707 -0.8830 -1.2164  0.0326
  716MOL0     H96635   7.630   4.799   3.683 -1.7917  0.9822  0.7270
  716MOL0     H96636   7.791   4.848   3.478 -0.0794 -0.1135 -0.4457
  716MOL0     H96637   7.735   5.023   3.489 -0.8271 -0.0858 -3.7445
  716MOL0     H96638   7.506   4.953   3.423  0.6940  1.1481 -2.9282
  716MOL0     H96639   7.625   4.900   3.299  1.0491  1.3635  1.0370
  716MOL0     H96640   7.692   5.017   4.489  2.9365  4.0212  0.1263
  716MOL0     H96641   7.522   5.001   4.674 -1.0383  1.5835  0.7936
  716MOL0     H96642   7.349   5.213   5.072 -0.2706 -1.3177 -1.7313
  716MOL0     H96643   7.171   5.253   5.241  3.8898 -0.6275 -0.4953
  716MOL0     H96644   6.086   6.567   6.106 -0.8454  2.6738  4.1374
  716MOL0     H96645   5.850   6.521   6.206  0.1562  0.6250  2.2208
  716MOL0     H96646   5.568   6.171   6.305  1.3730  0.4174  2.3195
  716MOL0     H96647   5.341   6.141   6.190  0.0742  1.2284 -2.3852
  716MOL0     H96648   5.082   6.498   6.201 -3.5181  0.8393 -0.7079
  716MOL0     H96649   5.022   6.417   6.343 -0.5474 -1.6947 -0.6767
  716MOL0     H96650   4.940   6.378   6.053 -1.3239 -0.2514 -1.0464
  716MOL0     H96651   4.840   6.441   6.187  0.6699  0.6389  2.3292
  716MOL0     H96652   4.760   6.217   6.226 -0.4917 -2.1712  2.0636
  716MOL0     H96653   4.916   6.203   6.305  0.7614 -0.2702 -0.8580
  716MOL0     H96654   5.008   6.134   6.061 -0.1295  3.2179  2.4675
  716MOL0     H96655   4.936   6.029   6.184  1.7923  0.7247  1.4532
  716MOL0     H96656   4.626   6.060   5.886  2.2838  0.5150 -2.7461
  716MOL0     H96657   5.250   6.560   6.316  0.0006  0.4860  2.0337
  716MOL0     H96658   5.398   6.688   6.382 -1.3662 -2.8373 -0.1309
  716MOL0     H96659   5.497   6.616   6.503  0.3550  0.6543  0.5618
  716MOL0     H96660   5.574   6.661   6.343 -1.7854  3.6704 -0.2247
  717MOL0     O96661   6.510   5.014   4.552 -0.4933 -0.0076 -1.1892
  717MOL0     C96662   6.551   5.086   4.644  0.1690  0.9198 -0.4140
  717MOL0     O96663   6.634   5.037   4.747  0.0990 -0.5537 -0.3651
  717MOL0     C96664   6.650   4.900   4.740  0.0390 -0.6742  0.4744
  717MOL0     C96665   6.771   4.849   4.688  0.2629 -0.0942 -0.5002
  717MOL0     C96666   6.794   4.713   4.690 -0.2060 -0.7949 -1.0167
  717MOL0     C96667   6.715   4.622   4.763  0.0695 -0.2380  0.4841
  717MOL0     O96668   6.737   4.489   4.774 -0.8833  0.0851 -0.3583
  717MOL0     C96669   6.874   4.449   4.805 -0.9155 -0.1305  0.1161
  717MOL0     C96670   6.861   4.303   4.858 -0.3424 -0.0279  0.5616
  717MOL0     C96671   6.996   4.268   4.936  0.4370  0.6192 -0.2086
  717MOL0     C96672   6.975   4.193   5.072 -0.1062 -0.0634  0.3952
  717MOL0     C96673   6.965   4.287   5.190  0.0954  0.2519  0.1083
  717MOL0     C96674   7.101   4.352   5.239  0.1198  1.0587  0.3420
  717MOL0     C96675   7.083   4.477   5.330  0.8737 -0.7258 -0.3514
  717MOL0     C96676   7.083   4.609   5.249 -0.2750 -1.6601 -0.3501
  717MOL0     N96677   7.213   4.640   5.191  0.6667 -0.5712  0.3310
  717MOL0     C96678   7.255   4.625   5.064  0.3265  1.0758 -0.2872
  717MOL0     C96679   7.372   4.698   5.055 -0.3492  0.1165  1.0880
  717MOL0     C96680   7.467   4.700   4.940  0.0839 -0.3241  1.3686
  717MOL0     C96681   7.388   4.680   4.808  0.0519 -0.6738  0.6613
  717MOL0     C96682   7.489   4.656   4.695 -0.1273 -1.3345  0.1442
  717MOL0     C96683   7.419   4.677   4.556 -0.2559  0.1470  1.5137
  717MOL0     O96684   7.338   4.796   4.542  0.0088  0.7514 -0.0965
  717MOL0     C96685   7.287   4.844   4.419 -0.8969 -0.1623 -0.6843
  717MOL0     C96686   7.186   4.942   4.424  0.1817 -0.5899 -0.5090
  717MOL0     C96687   7.140   4.997   4.304  0.5153 -0.0910 -0.5861
  717MOL0     C96688   7.166   4.941   4.183 -0.3061  0.2874 -0.3516
  717MOL0     C96689   7.098   4.983   4.058 -0.6501  0.6582  0.5027
  717MOL0     O96690   6.972   5.028   4.062 -0.5456  0.2711  0.2840
  717MOL0     C96691   6.917   5.070   3.950 -0.0191 -0.6268  0.2400
  717MOL0     C96692   6.905   4.973   3.849  0.6323 -0.4212  0.2173
  717MOL0     C96693   6.838   4.996   3.724  0.7689 -0.3262  0.1193
  717MOL0     C96694   6.803   5.132   3.705 -0.8638  0.0962 -0.3684
  717MOL0     O96695   6.750   5.159   3.577  0.4831 -1.0235  0.2793
  717MOL0     C96696   6.726   5.292   3.531  0.7854 -0.3766 -0.0285
  717MOL0     C96697   6.738   5.290   3.377  0.9463 -0.4761 -0.3946
  717MOL0     C96698   6.865   5.261   3.316 -0.5156 -0.2214  0.5003
  717MOL0     C96699   6.841   5.266   3.164 -0.5641 -0.1558  0.1638
  717MOL0     C96700   6.965   5.221   3.080  0.5303 -0.7603 -0.7314
  717MOL0     C96701   7.017   5.089   3.113 -0.9344 -0.4959 -1.0354
  717MOL0     C96702   7.133   5.079   3.008  0.0961 -0.2355  0.3430
  717MOL0     C96703   7.222   4.960   3.041  0.2719  0.5677  0.3828
  717MOL0    Cl96704   7.106   4.809   3.032 -0.2396  0.6696 -0.0469
  717MOL0     C96705   6.806   5.228   3.809 -0.4607  0.3942  0.5424
  717MOL0     C96706   6.864   5.197   3.935 -1.1380  0.5963  1.1795
  717MOL0     O96707   7.170   4.971   3.956 -0.0109  0.1350  0.2793
  717MOL0     C96708   7.266   4.837   4.181  0.9099  0.5655 -0.5272
  717MOL0     C96709   7.328   4.797   4.298 -0.0687  0.4069  0.1435
  717MOL0     N96710   7.406   4.755   5.171 -0.0192 -0.0955  0.8650
  717MOL0     N96711   7.304   4.725   5.249 -0.2133 -0.5815 -0.1372
  717MOL0     C96712   6.607   4.684   4.824 -0.6904  0.3896  0.3112
  717MOL0     C96713   6.571   4.821   4.818  0.3035 -0.0309 -0.2355
  717MOL0     C96714   6.508   5.228   4.667 -0.0362 -0.8897 -0.4352
  717MOL0     C96715   6.515   5.292   4.796 -0.3807  0.4258  0.7059
  717MOL0     C96716   6.457   5.411   4.823 -0.2012  0.7715  0.3735
  717MOL0     C96717   6.400   5.490   4.727 -0.4247  0.3524  1.0809
  717MOL0     O96718   6.346   5.610   4.771  0.7120 -0.6353 -0.2249
  717MOL0     C96719   6.359   5.723   4.691  0.1326  0.0125  0.0315
  717MOL0     C96720   6.381   5.850   4.777 -0.3295 -1.1455  0.2492
  717MOL0     C96721   6.254   5.902   4.846 -0.6900  0.0005 -0.6791
  717MOL0     C96722   6.260   6.050   4.891 -0.6238 -0.5430  0.0690
  717MOL0     C96723   6.138   6.099   4.958  0.1313  0.1402  0.9098
  717MOL0     C96724   6.034   6.127   5.002 -0.1607 -0.5277 -0.1263
  717MOL0     C96725   6.406   5.443   4.593  0.7700 -1.0265  0.4701
  717MOL0     C96726   6.460   5.311   4.558 -0.0928 -1.4427 -0.0185
  717MOL0     C96727   6.453   5.268   4.414  0.1232 -0.1453 -0.0512
  717MOL0     H96728   6.842   4.915   4.640  0.4351  0.1864  0.1309
  717MOL0     H96729   6.889   4.672   4.656  1.0757 -1.4943  2.8777
  717MOL0     H96730   6.934   4.459   4.714  1.9023  0.9883  1.9559
  717MOL0     H96731   6.918   4.523   4.873 -1.3801  0.2052  0.0575
  717MOL0     H96732   6.826   4.236   4.778  1.0148  1.3490 -1.2764
  717MOL0     H96733   6.783   4.295   4.934  0.3566 -0.9491  1.2040
  717MOL0     H96734   7.058   4.357   4.946 -2.5290  2.4995  5.1782
  717MOL0     H96735   7.037   4.199   4.861  0.0593  1.4943 -1.2342
  717MOL0     H96736   6.879   4.142   5.085  1.3372 -2.1737  4.8817
  717MOL0     H96737   7.058   4.123   5.087 -0.2166 -0.8369 -2.1472
  717MOL0     H96738   6.909   4.372   5.150  2.4926  0.8791 -2.2075
  717MOL0     H96739   6.918   4.241   5.277  1.4232 -0.9212  0.2371
  717MOL0     H96740   7.146   4.279   5.307 -2.3516  1.9209  3.0605
  717MOL0     H96741   7.163   4.384   5.155 -1.3625  2.5946 -0.2180
  717MOL0     H96742   7.156   4.474   5.412 -0.5914  0.5385  1.0618
  717MOL0     H96743   6.988   4.477   5.383  1.0498  4.1176  0.4410
  717MOL0     H96744   7.007   4.614   5.170  0.6300  1.1037 -1.1789
  717MOL0     H96745   7.057   4.692   5.316 -1.0721  0.2022 -2.7916
  717MOL0     H96746   7.196   4.574   4.989 -2.6126  5.3619 -1.2680
  717MOL0     H96747   7.504   4.802   4.930 -0.4231 -0.2066  0.5993
  717MOL0     H96748   7.553   4.634   4.950  0.7026  0.1539 -0.4454
  717MOL0     H96749   7.322   4.593   4.814 -1.1471  0.1708  0.1228
  717MOL0     H96750   7.327   4.768   4.786 -0.5203 -0.7015  2.0329
  717MOL0     H96751   7.540   4.560   4.708  0.5652 -1.0996 -0.7049
  717MOL0     H96752   7.570   4.729   4.703  0.3136 -1.4116 -2.7385
  717MOL0     H96753   7.348   4.596   4.540 -2.4214  1.8615  1.8499
  717MOL0     H96754   7.482   4.660   4.468 -0.7235 -0.3333  1.2627
  717MOL0     H96755   7.162   5.001   4.512  0.8675  0.4759 -1.0221
  717MOL0     H96756   7.079   5.086   4.301  1.8494  0.8351 -2.3557
  717MOL0     H96757   6.924   4.868   3.869 -0.6005 -0.7070 -0.0734
  717MOL0     H96758   6.807   4.927   3.647  1.8697  0.7831 -1.3814
  717MOL0     H96759   6.626   5.316   3.569  1.8405  1.2347  1.9927
  717MOL0     H96760   6.785   5.362   3.591 -1.6489 -1.3624  3.9523
  717MOL0     H96761   6.663   5.222   3.337 -0.6829  0.8324  0.2756
  717MOL0     H96762   6.713   5.390   3.339  3.4347  1.5779  2.8459
  717MOL0     H96763   6.940   5.336   3.340 -0.3731  0.5432 -2.0039
  717MOL0     H96764   6.890   5.160   3.348 -2.0226  0.4570  4.3850
  717MOL0     H96765   6.818   5.369   3.135 -1.4702  1.5052  5.5743
  717MOL0     H96766   6.762   5.193   3.144 -0.1266 -0.2557 -1.2750
  717MOL0     H96767   7.037   5.297   3.112  0.4032 -0.7377 -0.4942
  717MOL0     H96768   6.938   5.228   2.975 -0.4236 -2.6484 -0.6671
  717MOL0     H96769   7.059   5.086   3.214  1.0035 -2.7367 -1.8036
  717MOL0     H96770   6.943   5.009   3.103 -0.5832 -0.6913 -2.1858
  717MOL0     H96771   7.186   5.174   2.999 -0.4445  0.2460  1.9461
  717MOL0     H96772   7.094   5.062   2.907  0.4538  1.7606 -0.1574
  717MOL0     H96773   7.300   4.945   2.966  0.2690 -4.4352  1.0197
  717MOL0     H96774   7.262   4.968   3.143 -1.1799 -1.2261  1.1520
  717MOL0     H96775   6.762   5.326   3.796 -0.2628  0.1300 -3.1398
  717MOL0     H96776   6.870   5.272   4.014  1.1267  1.5224  0.2269
  717MOL0     H96777   7.304   4.784   4.094  2.5709  0.4464  0.2174
  717MOL0     H96778   7.399   4.716   4.285 -1.3634 -0.8245  0.5303
  717MOL0     H96779   6.543   4.625   4.889 -0.0668 -0.8699 -0.1805
  717MOL0     H96780   6.486   4.863   4.871  2.0015  1.4944  1.4480
  717MOL0     H96781   6.555   5.240   4.882 -1.2748  0.5409  1.2105
  717MOL0     H96782   6.470   5.435   4.928  1.6681  2.4249 -0.1850
  717MOL0     H96783   6.271   5.732   4.627 -0.5538 -1.3676  0.7465
  717MOL0     H96784   6.443   5.711   4.622 -0.8520 -0.0241 -1.1922
  717MOL0     H96785   6.419   5.929   4.712 -1.0709 -0.1784  0.9591
  717MOL0     H96786   6.469   5.844   4.841  3.0459 -2.1947 -4.0054
  717MOL0     H96787   6.250   5.834   4.931  2.2239 -0.7963 -1.0821
  717MOL0     H96788   6.166   5.885   4.782 -0.5718 -2.2797 -0.2888
  717MOL0     H96789   6.351   6.076   4.945 -0.0553  0.0700 -1.1433
  717MOL0     H96790   6.277   6.117   4.806 -2.6903 -1.6007 -1.2774
  717MOL0     H96791   5.933   6.159   5.016 -0.7558 -0.6127 -3.3342
  717MOL0     H96792   6.339   5.498   4.528  0.0184 -1.5337  0.8009
  717MOL0     H96793   6.382   5.186   4.403 -0.5074  0.3547  0.2682
  717MOL0     H96794   6.419   5.358   4.361 -0.7035 -0.6993 -0.4882
  717MOL0     H96795   6.554   5.230   4.395 -1.1779 -4.0106 -0.1566
  718MOL0     O96796  11.340   9.604   6.728 -0.1433 -0.5434  0.0433
  718MOL0     C96797  11.224   9.622   6.759  0.2991 -0.3702  0.7827
  718MOL0     O96798  11.135   9.522   6.785 -0.3732 -0.9114 -0.7873
  718MOL0     C96799  11.162   9.385   6.792 -0.1700 -0.8075  0.5562
  718MOL0     C96800  11.270   9.320   6.737  0.8118  0.3750  0.7563
  718MOL0     C96801  11.294   9.189   6.773 -0.5279  1.0788 -0.3074
  718MOL0     C96802  11.206   9.119   6.834 -0.1585 -0.3187  0.2691
  718MOL0     O96803  11.227   8.989   6.854 -0.0106  0.2069  0.8378
  718MOL0     C96804  11.117   8.907   6.873 -0.3220  0.8253 -1.1885
  718MOL0     C96805  11.151   8.763   6.864  0.7701  0.1386  0.6781
  718MOL0     C96806  11.043   8.670   6.900  0.0512 -0.0244 -0.9962
  718MOL0     C96807  11.095   8.521   6.905  0.2988 -0.2888 -0.4018
  718MOL0     C96808  11.146   8.474   7.046  1.0279 -0.2043 -0.2784
  718MOL0     C96809  11.296   8.510   7.078  0.1967  0.6099 -0.4089
  718MOL0     C96810  11.420   8.486   6.980  0.3473  0.2763  0.2677
  718MOL0     C96811  11.421   8.338   6.933 -0.0727  0.5806  0.2427
  718MOL0     N96812  11.524   8.321   6.827  0.1928  0.0103  0.1050
  718MOL0     C96813  11.658   8.331   6.853 -0.6498 -0.3928 -0.1577
  718MOL0     C96814  11.727   8.308   6.739 -0.3417 -1.0706 -0.8293
  718MOL0     C96815  11.879   8.317   6.730  0.7811 -0.2665 -0.8716
  718MOL0     C96816  11.947   8.321   6.595  0.1562  0.1219 -0.6754
  718MOL0     C96817  11.912   8.450   6.527  0.3511 -0.2184  0.2034
  718MOL0     C96818  11.970   8.443   6.381  0.0493  0.0601 -0.3056
  718MOL0     O96819  12.111   8.411   6.381  0.7412 -0.7869 -0.0072
  718MOL0     C96820  12.200   8.514   6.382  0.1055  0.4206 -0.0372
  718MOL0     C96821  12.256   8.549   6.258  0.8740 -0.2746 -0.5838
  718MOL0     C96822  12.345   8.662   6.256 -0.2083 -0.4890 -0.5607
  718MOL0     C96823  12.390   8.722   6.376 -0.1127 -0.2308 -0.1240
  718MOL0     C96824  12.487   8.830   6.384  0.3906  0.4217 -0.1281
  718MOL0     O96825  12.526   8.871   6.509 -0.1361  0.0177 -0.3060
  718MOL0     C96826  12.625   8.958   6.527  0.2844 -0.6569  0.0393
  718MOL0     C96827  12.639   9.015   6.653  0.0947  0.3064 -0.0122
  718MOL0     C96828  12.752   9.092   6.688  0.4136  0.2775  0.5177
  718MOL0     C96829  12.843   9.125   6.591 -0.0592 -0.4086  0.0174
  718MOL0     O96830  12.954   9.192   6.613 -0.2839  0.7660  0.3392
  718MOL0     C96831  12.976   9.249   6.744  0.3055  0.0221 -0.0955
  718MOL0     C96832  13.105   9.328   6.748  0.3906 -0.3089  0.2399
  718MOL0     C96833  13.229   9.256   6.780  0.2323  0.0089  0.0825
  718MOL0     C96834  13.248   9.124   6.707  0.4463  0.0384 -0.2007
  718MOL0     C96835  13.397   9.076   6.720 -0.5157 -0.6140 -0.1295
  718MOL0     C96836  13.409   8.932   6.759  0.3375  0.0566 -0.3187
  718MOL0     C96837  13.358   8.836   6.650 -0.7304 -0.8293 -0.3212
  718MOL0     C96838  13.411   8.705   6.684  0.1501  0.6058  0.0058
  718MOL0    Cl96839  13.354   8.639   6.834 -0.3353  0.1709  0.5101
  718MOL0     C96840  12.836   9.060   6.465 -0.1799 -0.6598  0.1405
  718MOL0     C96841  12.728   8.969   6.443 -0.5228 -0.0105  0.9380
  718MOL0     O96842  12.515   8.886   6.273  0.3993 -0.8729  0.0223
  718MOL0     C96843  12.335   8.679   6.498  0.0335 -0.2291 -0.1486
  718MOL0     C96844  12.239   8.572   6.503  0.5838 -0.5413 -0.4907
  718MOL0     N96845  11.634   8.287   6.641 -0.5634 -0.4450 -0.3461
  718MOL0     N96846  11.516   8.305   6.698  0.1903  0.0065  0.3487
  718MOL0     C96847  11.086   9.185   6.873 -0.4394 -0.0655  0.0227
  718MOL0     C96848  11.058   9.314   6.860 -0.1982  0.1032 -0.1594
  718MOL0     C96849  11.168   9.754   6.750  0.9559 -0.9449  0.0795
  718MOL0     C96850  11.265   9.860   6.772 -0.0957  0.6801 -0.6831
  718MOL0     C96851  11.231   9.994   6.786  0.7717 -0.2987 -0.5346
  718MOL0     C96852  11.095  10.033   6.780  0.4237  0.0732  0.2297
  718MOL0     O96853  11.043  10.165   6.779 -0.4593  1.1627 -0.0153
  718MOL0     C96854  11.114  10.262   6.692 -0.0885 -0.8101 -0.1585
  718MOL0     C96855  11.015  10.370   6.635  0.5551 -0.3686  0.4396
  718MOL0     C96856  10.976  10.480   6.737 -0.2158 -0.2575  0.3510
  718MOL0     C96857  10.864  10.563   6.685 -0.2058 -0.4557  0.2076
  718MOL0     C96858  10.851  10.699   6.746  0.3142  0.4693  0.1143
  718MOL0     C96859  10.839  10.814   6.772  0.2319 -0.1957 -0.4704
  718MOL0     C96860  11.004   9.941   6.733  0.6929  0.3831  0.6839
  718MOL0     C96861  11.032   9.800   6.727 -0.4363 -0.1069 -0.1230
  718MOL0     C96862  10.916   9.712   6.712  0.6098  0.1845 -0.0390
  718MOL0     H96863  11.345   9.377   6.683  0.5032  0.9447  0.9073
  718MOL0     H96864  11.384   9.141   6.735 -0.8573 -0.7319  1.0794
  718MOL0     H96865  11.067   8.925   6.969 -0.4185 -4.9118  0.2127
  718MOL0     H96866  11.041   8.924   6.796 -1.6285  2.3718  0.3603
  718MOL0     H96867  11.240   8.745   6.927 -0.9544 -1.5481  2.7938
  718MOL0     H96868  11.174   8.738   6.761 -0.3594 -1.2948  0.7480
  718MOL0     H96869  10.956   8.677   6.833  1.6276 -1.7117 -3.3658
  718MOL0     H96870  11.010   8.698   7.001 -1.7823 -1.1897 -1.2210
  718MOL0     H96871  11.009   8.460   6.877  1.5734 -1.5546 -1.7553
  718MOL0     H96872  11.180   8.505   6.838  0.6873 -0.3370  0.0945
  718MOL0     H96873  11.087   8.515   7.129 -0.9306 -2.8143 -0.2635
  718MOL0     H96874  11.135   8.366   7.039 -1.3374  0.0791 -3.7895
  718MOL0     H96875  11.304   8.614   7.110 -3.2029  1.2833 -1.2922
  718MOL0     H96876  11.304   8.454   7.171 -2.2437  3.2396  1.5919
  718MOL0     H96877  11.517   8.501   7.029  0.4063 -0.7017  0.4534
  718MOL0     H96878  11.406   8.551   6.893 -2.5996  0.5627  0.8267
  718MOL0     H96879  11.442   8.286   7.027 -1.9738 -0.7633 -0.0313
  718MOL0     H96880  11.325   8.301   6.898 -1.1160  0.2483  3.1328
  718MOL0     H96881  11.706   8.344   6.949  0.0425  0.3623 -0.5857
  718MOL0     H96882  11.919   8.394   6.796  3.9709  0.7439 -3.6916
  718MOL0     H96883  11.899   8.225   6.787 -0.8781  1.0703  2.1087
  718MOL0     H96884  12.054   8.314   6.617  0.0785 -0.9939 -0.5674
  718MOL0     H96885  11.921   8.238   6.528  1.5940 -0.4864 -0.5001
  718MOL0     H96886  11.965   8.537   6.569  0.6059  1.4301 -3.2202
  718MOL0     H96887  11.804   8.465   6.519  0.2369 -0.5572  1.0374
  718MOL0     H96888  11.947   8.539   6.333  1.2894  0.4008 -0.2326
  718MOL0     H96889  11.916   8.364   6.326 -1.3606 -0.1714  1.3192
  718MOL0     H96890  12.212   8.508   6.169  0.6649  1.7344 -1.4727
  718MOL0     H96891  12.388   8.700   6.163 -0.8959 -2.2128 -1.6420
  718MOL0     H96892  12.559   9.005   6.725 -0.0502 -2.1553 -0.4250
  718MOL0     H96893  12.747   9.148   6.781 -2.0624 -2.9543  2.5212
  718MOL0     H96894  12.894   9.316   6.770 -0.1214 -0.3572 -0.4565
  718MOL0     H96895  12.971   9.161   6.808  1.5574  0.6370  0.8825
  718MOL0     H96896  13.111   9.398   6.664 -0.4176  2.4803  2.3318
  718MOL0     H96897  13.086   9.399   6.830  0.1854 -0.1239  0.0331
  718MOL0     H96898  13.322   9.311   6.759  0.0243  0.1357 -0.5270
  718MOL0     H96899  13.226   9.251   6.889 -1.8237  2.9291  0.2723
  718MOL0     H96900  13.227   9.138   6.600 -4.3325  0.2720  0.5833
  718MOL0     H96901  13.169   9.061   6.748 -1.4571  2.3219 -0.1641
  718MOL0     H96902  13.455   9.136   6.789 -1.1839  0.1239 -0.1961
  718MOL0     H96903  13.440   9.082   6.620  0.1102 -2.9915 -0.0603
  718MOL0     H96904  13.513   8.910   6.784  0.2085  1.7786  2.0607
  718MOL0     H96905  13.369   8.904   6.857 -0.4616 -0.8706 -0.8904
  718MOL0     H96906  13.367   8.861   6.544  1.7992 -0.6431 -0.1066
  718MOL0     H96907  13.249   8.842   6.661 -0.9354  1.0094 -2.5429
  718MOL0     H96908  13.372   8.631   6.613 -2.1314 -0.8312  2.5669
  718MOL0     H96909  13.520   8.706   6.671  0.2348  0.5242  0.6971
  718MOL0     H96910  12.912   9.085   6.391 -1.8015 -2.0008 -2.1109
  718MOL0     H96911  12.727   8.930   6.342 -1.4133  0.0861  0.9024
  718MOL0     H96912  12.349   8.735   6.590 -2.3887  1.3395 -0.6319
  718MOL0     H96913  12.198   8.536   6.597  3.5902  0.9169  1.5676
  718MOL0     H96914  11.005   9.138   6.930 -1.2416  1.7769  0.4693
  718MOL0     H96915  10.972   9.363   6.905  0.3901  1.9222 -0.9098
  718MOL0     H96916  11.366   9.826   6.789 -0.8355 -0.6503  1.3649
  718MOL0     H96917  11.304  10.070   6.811 -0.1386 -0.2139  2.1480
  718MOL0     H96918  11.171  10.220   6.609 -0.0987  3.5745 -2.6782
  718MOL0     H96919  11.184  10.306   6.764 -2.3431  0.4315  1.4053
  718MOL0     H96920  10.931  10.310   6.599  2.1035 -1.3462 -1.7625
  718MOL0     H96921  11.053  10.421   6.546 -4.3807  1.3460 -0.9950
  718MOL0     H96922  11.071  10.535   6.731  1.2129 -2.7468 -3.6474
  718MOL0     H96923  10.953  10.439   6.836 -1.6464 -1.9340 -0.6357
  718MOL0     H96924  10.876  10.589   6.580  0.0158 -0.3635  0.2534
  718MOL0     H96925  10.777  10.498   6.692 -0.5014 -0.0970 -0.0952
  718MOL0     H96926  10.822  10.914   6.806 -1.6543 -0.2044 -1.2369
  718MOL0     H96927  10.903   9.967   6.703  1.1096  0.5528 -0.6437
  718MOL0     H96928  10.941   9.621   6.657 -1.5431 -0.1510 -0.5761
  718MOL0     H96929  10.860   9.686   6.803  1.9226 -0.1192  0.7049
  718MOL0     H96930  10.849   9.765   6.644 -0.4562 -1.3826 -0.2843
  719MOL0     O96931   3.712   3.004  11.264 -0.3291  0.3016 -0.4810
  719MOL0     C96932   3.787   3.023  11.357 -0.7811 -1.0170 -0.0977
  719MOL0     O96933   3.923   3.035  11.348  0.8102 -0.3192 -0.4028
  719MOL0     C96934   3.978   3.029  11.220  0.1544 -0.8230  0.0651
  719MOL0     C96935   4.062   2.923  11.196 -0.2464 -0.0153  0.3707
  719MOL0     C96936   4.119   2.910  11.066 -0.9939 -0.2350 -0.4200
  719MOL0     C96937   4.100   3.004  10.963 -0.0868 -1.2803  1.0068
  719MOL0     O96938   4.162   2.981  10.844  0.4130  0.0132 -0.2490
  719MOL0     C96939   4.191   3.096  10.764 -0.2487  0.9607 -0.2051
  719MOL0     C96940   4.268   3.035  10.646 -0.9502 -0.4419 -0.1626
  719MOL0     C96941   4.273   3.139  10.533  0.5387 -1.0898  0.6032
  719MOL0     C96942   4.207   3.076  10.412 -0.1016 -0.1112  0.4490
  719MOL0     C96943   4.225   3.161  10.284  0.3254 -0.2626  0.6093
  719MOL0     C96944   4.111   3.138  10.184 -0.3575 -0.0119  0.1127
  719MOL0     C96945   4.149   3.205  10.056 -0.1825  0.6099 -0.5111
  719MOL0     C96946   4.145   3.354  10.075 -0.5662 -0.1111 -0.2247
  719MOL0     N96947   4.209   3.408   9.946 -0.3910 -0.8508 -0.2769
  719MOL0     C96948   4.153   3.487   9.844  0.4773  0.1592 -0.0446
  719MOL0     C96949   4.263   3.519   9.758 -0.0816  0.9549  0.4069
  719MOL0     C96950   4.248   3.575   9.615 -0.0262  0.3222 -0.8891
  719MOL0     C96951   4.358   3.672   9.580  0.4739 -0.3563  0.2518
  719MOL0     C96952   4.306   3.753   9.464 -0.0940 -0.6479 -0.8742
  719MOL0     C96953   4.410   3.859   9.430 -0.3896  0.4844  0.4510
  719MOL0     O96954   4.361   3.951   9.322 -0.1373  0.5845 -0.1466
  719MOL0     C96955   4.461   4.029   9.265 -0.0950  0.3641 -0.1229
  719MOL0     C96956   4.432   4.114   9.163  0.5597 -0.5016 -0.0947
  719MOL0     C96957   4.524   4.209   9.110 -0.0428 -0.2759  0.6456
  719MOL0     C96958   4.655   4.224   9.168  0.6935 -0.0726  0.6092
  719MOL0     C96959   4.756   4.324   9.122 -0.5529  0.3872  0.5368
  719MOL0     O96960   4.728   4.408   9.024 -0.1276  0.0303 -0.4198
  719MOL0     C96961   4.803   4.533   8.999  0.0917 -0.1839  0.0876
  719MOL0     C96962   4.759   4.601   8.886 -0.1986 -0.0531 -0.0793
  719MOL0     C96963   4.820   4.727   8.846 -0.0695  0.0197 -0.3908
  719MOL0     C96964   4.913   4.782   8.929  0.2490  0.3709 -0.0716
  719MOL0     O96965   4.974   4.900   8.887  0.8560 -0.1285  0.3475
  719MOL0     C96966   4.940   5.024   8.961 -0.3927 -0.0017  0.1064
  719MOL0     C96967   4.821   5.094   8.906  0.3878 -0.8288  0.2257
  719MOL0     C96968   4.699   5.050   8.990  0.0701  0.1289 -0.0605
  719MOL0     C96969   4.599   5.156   9.015  0.1940 -1.0440  0.2549
  719MOL0     C96970   4.465   5.108   9.029  0.6885  0.1835  0.3334
  719MOL0     C96971   4.376   5.220   9.080 -0.3824 -0.0510 -0.5356
  719MOL0     C96972   4.312   5.301   8.976  0.2652 -0.4495  0.0398
  719MOL0     C96973   4.236   5.239   8.864  0.4190  0.1152 -1.1505
  719MOL0    Cl96974   4.132   5.106   8.918  0.4696  0.2687  0.2483
  719MOL0     C96975   4.952   4.716   9.043 -0.4299 -0.7501  0.0075
  719MOL0     C96976   4.900   4.592   9.080 -0.0918 -0.3581  0.0109
  719MOL0     O96977   4.859   4.313   9.182  0.3351 -0.5247 -0.2110
  719MOL0     C96978   4.672   4.147   9.284  0.0024  0.1110  0.0687
  719MOL0     C96979   4.586   4.052   9.331  0.0226  0.6070  0.0710
  719MOL0     N96980   4.375   3.469   9.812 -0.5893 -0.3139  0.7433
  719MOL0     N96981   4.343   3.392   9.907  0.9358 -0.2011 -0.4577
  719MOL0     C96982   4.020   3.116  11.002 -1.1468  0.3085 -0.1899
  719MOL0     C96983   3.970   3.131  11.125  1.0156 -0.0167 -0.2877
  719MOL0     C96984   3.723   3.033  11.499 -0.5929  0.0607 -1.1369
  719MOL0     C96985   3.768   3.123  11.590  0.1875 -0.3726 -0.2324
  719MOL0     C96986   3.706   3.137  11.716 -0.3441 -0.5367 -0.4345
  719MOL0     C96987   3.586   3.070  11.749 -0.2059 -0.3733 -0.7209
  719MOL0     O96988   3.529   3.082  11.882 -0.4019 -0.3057  0.3496
  719MOL0     C96989   3.624   3.087  11.990  0.1501 -0.7076 -0.2580
  719MOL0     C96990   3.553   3.036  12.120 -0.1564 -0.2297  0.0067
  719MOL0     C96991   3.412   3.091  12.138 -0.2973  0.1098  0.3460
  719MOL0     C96992   3.358   3.069  12.286  0.3231 -0.3033 -0.5178
  719MOL0     C96993   3.214   3.116  12.309 -0.7245 -0.0499  0.8707
  719MOL0     C96994   3.106   3.152  12.343  1.0054  0.5009 -0.3550
  719MOL0     C96995   3.544   2.980  11.652 -1.2501 -0.3317 -0.3239
  719MOL0     C96996   3.611   2.948  11.541 -0.4290 -0.6664  0.8620
  719MOL0     C96997   3.579   2.835  11.449  0.3069 -0.1978 -0.0299
  719MOL0     H96998   4.081   2.863  11.284  2.3967 -0.4960 -0.4488
  719MOL0     H96999   4.188   2.830  11.042  1.6196  1.3653  1.2093
  719MOL0     H97000   4.097   3.135  10.725  0.0051  0.8845 -0.9248
  719MOL0     H97001   4.241   3.184  10.806 -1.1315  0.8684  1.0952
  719MOL0     H97002   4.217   2.949  10.602 -5.1091  1.7863 -0.1262
  719MOL0     H97003   4.375   3.016  10.664 -1.2580 -0.5585  1.8521
  719MOL0     H97004   4.370   3.173  10.495 -0.0067  0.5142  0.5691
  719MOL0     H97005   4.221   3.230  10.564 -0.6587 -1.1721 -1.0208
  719MOL0     H97006   4.243   2.974  10.395  1.5470  0.1842  1.9064
  719MOL0     H97007   4.101   3.056  10.433 -0.2954 -0.4610 -0.7646
  719MOL0     H97008   4.223   3.264  10.322 -0.7151  0.6984 -1.8973
  719MOL0     H97009   4.325   3.135  10.247 -0.3560 -0.2732 -1.2706
  719MOL0     H97010   4.109   3.031  10.166  1.7590 -0.0811  0.0787
  719MOL0     H97011   4.016   3.169  10.229  0.5636  0.4042  1.8848
  719MOL0     H97012   4.078   3.172   9.979  1.4118  1.1152 -2.2713
  719MOL0     H97013   4.250   3.176  10.027 -0.1795  1.5323 -1.4643
  719MOL0     H97014   4.039   3.378  10.087 -0.3195  1.7582 -1.4451
  719MOL0     H97015   4.205   3.393  10.158 -0.7439 -2.0616  0.9045
  719MOL0     H97016   4.047   3.492   9.821  1.0531 -0.9442 -3.5365
  719MOL0     H97017   4.251   3.485   9.553  3.5354 -2.3828  2.6485
  719MOL0     H97018   4.145   3.611   9.611 -0.6576 -1.5080 -3.6341
  719MOL0     H97019   4.378   3.738   9.664 -0.5001 -1.2244  1.2020
  719MOL0     H97020   4.451   3.628   9.544 -0.0058 -1.4951  0.3500
  719MOL0     H97021   4.215   3.801   9.502  1.2414  0.4335  1.1380
  719MOL0     H97022   4.271   3.707   9.371 -0.0906 -0.7563 -0.8216
  719MOL0     H97023   4.503   3.813   9.397 -0.9866 -1.0159  0.7859
  719MOL0     H97024   4.432   3.918   9.520 -0.9411 -1.2646  1.7817
  719MOL0     H97025   4.334   4.119   9.117  0.1474 -0.6300  0.7512
  719MOL0     H97026   4.505   4.278   9.028  0.5390  0.2932  0.9845
  719MOL0     H97027   4.682   4.555   8.825  1.9759  0.3484 -3.4519
  719MOL0     H97028   4.776   4.770   8.757 -2.4371 -1.3120  0.0450
  719MOL0     H97029   4.943   4.997   9.067  0.9035 -0.8506 -0.1298
  719MOL0     H97030   5.027   5.088   8.947  0.5947 -1.5956 -1.2517
  719MOL0     H97031   4.830   5.202   8.893 -2.4617 -0.6429 -0.8018
  719MOL0     H97032   4.806   5.061   8.803  3.0620  1.6127 -1.1088
  719MOL0     H97033   4.656   4.964   8.937  1.5844 -0.6271 -0.1029
  719MOL0     H97034   4.735   5.032   9.092  0.3063  2.5911  0.3682
  719MOL0     H97035   4.604   5.217   8.924 -1.1083  0.1826  0.9572
  719MOL0     H97036   4.619   5.221   9.101 -1.2715 -3.5548  2.6590
  719MOL0     H97037   4.469   5.023   9.098  0.7729  0.9313  1.2776
  719MOL0     H97038   4.426   5.076   8.933 -1.2263 -1.2228  1.5221
  719MOL0     H97039   4.296   5.172   9.138  0.6886 -0.2232  0.8301
  719MOL0     H97040   4.430   5.285   9.149  2.5179 -1.3724 -1.4069
  719MOL0     H97041   4.385   5.373   8.938  0.2958  1.4472  3.2504
  719MOL0     H97042   4.245   5.361   9.039  2.8693  1.9192  0.7730
  719MOL0     H97043   4.169   5.310   8.815  0.3582  0.9628  0.0996
  719MOL0     H97044   4.311   5.207   8.792  0.2253 -2.3570 -0.3590
  719MOL0     H97045   5.028   4.768   9.099 -1.6601  0.0837  0.9587
  719MOL0     H97046   4.936   4.545   9.170  1.0445 -0.0008 -0.2378
  719MOL0     H97047   4.764   4.147   9.342  0.4544 -0.1606 -0.6374
  719MOL0     H97048   4.620   3.995   9.417 -1.0958  2.6482  1.9878
  719MOL0     H97049   4.013   3.193  10.925  2.7087 -0.9118 -1.9797
  719MOL0     H97050   3.924   3.227  11.147  1.9299  0.3374  0.1306
  719MOL0     H97051   3.856   3.183  11.573 -1.8170  2.2779 -2.1025
  719MOL0     H97052   3.751   3.206  11.787  0.8067 -1.2065 -0.4908
  719MOL0     H97053   3.649   3.190  12.017 -3.0708 -0.1727  1.1618
  719MOL0     H97054   3.711   3.032  11.954 -0.7858 -2.4568  0.0379
  719MOL0     H97055   3.609   3.070  12.209 -2.8836 -1.3356  2.3022
  719MOL0     H97056   3.558   2.927  12.120 -0.2318 -0.2405 -1.4116
  719MOL0     H97057   3.340   3.050  12.067 -0.9547  2.6361 -0.5601
  719MOL0     H97058   3.430   3.197  12.118  1.5324 -0.3503 -0.6207
  719MOL0     H97059   3.358   2.966  12.323  2.1896  0.0801  0.6745
  719MOL0     H97060   3.426   3.117  12.357  0.0775  3.1769 -2.4374
  719MOL0     H97061   3.007   3.190  12.358  0.4938  0.1931 -2.5611
  719MOL0     H97062   3.456   2.918  11.671 -1.8581  0.5187 -0.2944
  719MOL0     H97063   3.543   2.872  11.352  1.0576 -0.6983 -0.5153
  719MOL0     H97064   3.664   2.773  11.417 -0.1600 -0.0458 -1.6986
  719MOL0     H97065   3.491   2.781  11.485 -1.8286  1.5007 -2.3408
  720MOL0     O97066   5.294  11.214   6.736  1.0178  0.1250  0.3293
  720MOL0     C97067   5.194  11.277   6.749  0.3799  0.3083 -1.0838
  720MOL0     O97068   5.136  11.321   6.874  0.4627 -0.4551  0.6779
  720MOL0     C97069   5.182  11.292   6.997  0.1137  0.7762 -0.7766
  720MOL0     C97070   5.291  11.205   7.026 -0.4179 -0.4310  0.0695
  720MOL0     C97071   5.338  11.193   7.160 -0.3958  1.2803  0.4534
  720MOL0     C97072   5.274  11.257   7.266  0.3422  0.4657 -0.7711
  720MOL0     O97073   5.317  11.241   7.395  0.8174  0.7517 -0.1910
  720MOL0     C97074   5.453  11.231   7.425  0.8712  0.6773  0.4538
  720MOL0     C97075   5.475  11.276   7.571  0.5185 -0.7160  0.5741
  720MOL0     C97076   5.455  11.427   7.585  0.1903 -0.3985 -0.1059
  720MOL0     C97077   5.478  11.471   7.722 -0.0322  0.0168 -0.0563
  720MOL0     C97078   5.493  11.622   7.738 -0.3476 -0.6325 -0.0516
  720MOL0     C97079   5.614  11.677   7.671  0.4761 -0.3016  0.9091
  720MOL0     C97080   5.625  11.830   7.686 -0.1071 -0.2984  0.4946
  720MOL0     C97081   5.743  11.881   7.602  0.3916 -0.2014 -0.0225
  720MOL0     N97082   5.804  11.985   7.687  0.1056  0.0239  1.1053
  720MOL0     C97083   5.765  12.113   7.695  0.1405 -0.2255 -0.7890
  720MOL0     C97084   5.848  12.173   7.778  0.8175 -0.4357  0.8707
  720MOL0     C97085   5.837  12.308   7.835  0.4213  1.1450 -0.4527
  720MOL0     C97086   5.952  12.339   7.932  1.1398 -0.6706 -0.8350
  720MOL0     C97087   6.075  12.387   7.867 -0.9052  0.4700 -0.8988
  720MOL0     C97088   6.179  12.411   7.985 -0.3516 -0.4204  0.1411
  720MOL0     O97089   6.231  12.284   8.035 -0.0795 -0.0934 -0.0160
  720MOL0     C97090   6.340  12.230   7.961  0.4812 -0.1481 -0.1161
  720MOL0     C97091   6.394  12.112   8.001 -0.1818 -0.3130  0.1398
  720MOL0     C97092   6.523  12.063   7.966 -0.5061  0.2010  0.0345
  720MOL0     C97093   6.586  12.120   7.856 -0.5805 -0.6057  0.3837
  720MOL0     C97094   6.724  12.068   7.804  1.0486  0.1256 -0.3364
  720MOL0     O97095   6.794  11.965   7.863 -0.5340  0.3871  0.1481
  720MOL0     C97096   6.915  11.939   7.810 -0.2330 -0.6137  0.4074
  720MOL0     C97097   7.015  12.036   7.824 -1.0111 -0.2176  0.4480
  720MOL0     C97098   7.148  12.011   7.786 -0.7936 -0.3007 -0.4620
  720MOL0     C97099   7.188  11.885   7.719  0.6531 -0.5744  0.5077
  720MOL0     O97100   7.320  11.852   7.700  0.8499  0.4297  0.1003
  720MOL0     C97101   7.341  11.765   7.595  0.2604  1.1681  0.5781
  720MOL0     C97102   7.489  11.757   7.556 -0.1011 -0.7748  0.7019
  720MOL0     C97103   7.527  11.640   7.472  0.0707  0.1534  0.3201
  720MOL0     C97104   7.476  11.648   7.327 -0.5388  0.6283 -0.6383
  720MOL0     C97105   7.561  11.562   7.233 -0.2368  0.2296 -0.1822
  720MOL0     C97106   7.496  11.557   7.089 -0.4193 -0.3204  0.5704
  720MOL0     C97107   7.583  11.488   6.990  0.0362  0.4049 -0.6326
  720MOL0     C97108   7.587  11.337   6.998 -0.0838 -1.1618  0.2117
  720MOL0    Cl97109   7.696  11.272   6.870  0.1220 -0.5213  0.0148
  720MOL0     C97110   7.083  11.794   7.697 -0.4954  0.9678  0.1776
  720MOL0     C97111   6.950  11.826   7.741  0.6551 -0.7769  0.8167
  720MOL0     O97112   6.770  12.143   7.723 -0.4831  0.3075  1.0345
  720MOL0     C97113   6.518  12.231   7.794 -0.2152 -0.0958 -0.5485
  720MOL0     C97114   6.406  12.288   7.844  0.0124 -0.6538 -0.6845
  720MOL0     N97115   5.931  12.073   7.826  0.0754  0.2468  0.3305
  720MOL0     N97116   5.907  11.962   7.767  0.2778  0.5804 -0.4392
  720MOL0     C97117   5.165  11.340   7.237  0.4549 -0.6539  0.1668
  720MOL0     C97118   5.114  11.352   7.107 -0.4720 -0.4979 -0.0857
  720MOL0     C97119   5.104  11.296   6.630 -0.1387  0.6239 -1.2224
  720MOL0     C97120   5.008  11.403   6.642  0.5142 -0.7621 -0.0881
  720MOL0     C97121   4.934  11.439   6.533 -0.0981 -0.3847 -0.0220
  720MOL0     C97122   4.930  11.372   6.410 -0.1219  0.2155 -0.6488
  720MOL0     O97123   4.840  11.414   6.315  0.0510 -0.1590  0.3066
  720MOL0     C97124   4.815  11.333   6.198  0.4273 -0.2385  0.1131
  720MOL0     C97125   4.729  11.210   6.239 -0.3848 -0.1163 -0.1118
  720MOL0     C97126   4.594  11.246   6.297 -0.5562 -0.4244 -0.8090
  720MOL0     C97127   4.495  11.131   6.301  0.4769  0.3048  0.1960
  720MOL0     C97128   4.355  11.163   6.275 -0.1142 -0.9139 -0.0547
  720MOL0     C97129   4.240  11.184   6.293  0.2529  1.2435  0.1742
  720MOL0     C97130   5.011  11.256   6.402 -0.4044 -0.2692 -1.2195
  720MOL0     C97131   5.102  11.214   6.509  0.0230  0.5672 -0.6302
  720MOL0     C97132   5.202  11.104   6.490 -0.0477 -0.1944  0.4723
  720MOL0     H97133   5.356  11.159   6.953  0.4200  0.3981  0.2670
  720MOL0     H97134   5.425  11.130   7.175 -1.3848 -0.4460 -0.7095
  720MOL0     H97135   5.491  11.131   7.407 -1.1016 -0.5303  2.4338
  720MOL0     H97136   5.514  11.296   7.363 -2.1405  2.2321 -1.1045
  720MOL0     H97137   5.573  11.248   7.610  0.4797  1.1678  2.1711
  720MOL0     H97138   5.398  11.219   7.622 -0.9462  1.1254  0.5551
  720MOL0     H97139   5.349  11.438   7.562 -0.3824 -1.3899  1.8463
  720MOL0     H97140   5.514  11.488   7.516 -0.0132  0.6828  0.6442
  720MOL0     H97141   5.403  11.432   7.792 -0.5643  2.3113  0.7361
  720MOL0     H97142   5.575  11.428   7.751 -1.1718 -2.5988  0.1443
  720MOL0     H97143   5.411  11.673   7.687 -1.0563 -0.3692  1.3265
  720MOL0     H97144   5.501  11.641   7.845  0.4150  0.3544 -0.2659
  720MOL0     H97145   5.707  11.638   7.715  2.9314  0.6391 -2.9379
  720MOL0     H97146   5.616  11.672   7.562  3.1425  3.2734  0.6209
  720MOL0     H97147   5.620  11.845   7.794  0.4353  0.2627  0.4500
  720MOL0     H97148   5.530  11.863   7.643 -0.0990  0.2063  0.8669
  720MOL0     H97149   5.818  11.801   7.597  1.3533  0.7455 -1.1481
  720MOL0     H97150   5.717  11.910   7.500  1.1574 -0.9043 -0.4248
  720MOL0     H97151   5.685  12.162   7.641  0.6175 -1.7248 -2.9840
  720MOL0     H97152   5.822  12.380   7.755 -0.9242  1.6403  0.2243
  720MOL0     H97153   5.740  12.309   7.884  0.7311 -1.0254  0.3470
  720MOL0     H97154   5.909  12.411   8.003  0.4477  1.1177 -2.9571
  720MOL0     H97155   5.963  12.244   7.986 -0.6004 -1.9195 -2.5087
  720MOL0     H97156   6.055  12.480   7.813 -0.2595  1.0008 -0.2321
  720MOL0     H97157   6.124  12.318   7.797  2.5307 -0.7127  2.3547
  720MOL0     H97158   6.126  12.444   8.074  0.4870  0.8679  0.1879
  720MOL0     H97159   6.257  12.483   7.957  0.8399 -1.3956  0.8448
  720MOL0     H97160   6.347  12.060   8.084 -1.6889 -0.9540 -1.0571
  720MOL0     H97161   6.570  11.974   8.008  0.3805  0.9464  0.6342
  720MOL0     H97162   6.991  12.122   7.884 -1.7114 -0.6926  0.8495
  720MOL0     H97163   7.229  12.080   7.811  1.2689 -2.7725  0.1145
  720MOL0     H97164   7.317  11.662   7.623  0.2696  1.3337  1.2174
  720MOL0     H97165   7.285  11.801   7.508  1.8083 -0.6833 -1.2681
  720MOL0     H97166   7.532  11.843   7.504  1.1063 -0.8940  1.4615
  720MOL0     H97167   7.541  11.748   7.653 -2.2410  3.3131  2.5057
  720MOL0     H97168   7.636  11.633   7.477 -0.0303 -0.4864  2.3156
  720MOL0     H97169   7.498  11.546   7.519  1.0397 -0.3021  0.0197
  720MOL0     H97170   7.487  11.751   7.292 -0.3677  0.7664 -0.1839
  720MOL0     H97171   7.375  11.605   7.325  0.2614 -1.4164  0.3700
  720MOL0     H97172   7.565  11.461   7.275  1.6692  0.2950 -0.1292
  720MOL0     H97173   7.665  11.593   7.223 -0.4909  0.4668 -3.2711
  720MOL0     H97174   7.395  11.515   7.095 -1.8368  2.9775  1.6638
  720MOL0     H97175   7.498  11.654   7.039  2.4081 -1.0734 -1.0312
  720MOL0     H97176   7.683  11.524   7.016 -0.4373  1.2424  0.0815
  720MOL0     H97177   7.552  11.517   6.889  1.0037  1.2411 -0.7066
  720MOL0     H97178   7.619  11.308   7.098  0.9483 -0.7986 -0.0001
  720MOL0     H97179   7.489  11.289   6.989 -1.1438  0.4662  2.1480
  720MOL0     H97180   7.093  11.700   7.645 -0.1473 -0.1260  2.1142
  720MOL0     H97181   6.870  11.757   7.716  1.5950 -1.9909  1.1048
  720MOL0     H97182   6.561  12.268   7.701 -1.3913  0.7881 -0.7598
  720MOL0     H97183   6.367  12.380   7.804  1.6633 -0.5351 -2.1671
  720MOL0     H97184   5.106  11.394   7.310 -2.5017 -2.8610 -0.4180
  720MOL0     H97185   5.036  11.420   7.074 -0.2036  0.6557  1.5621
  720MOL0     H97186   5.004  11.466   6.730 -0.5831 -1.6674  0.5407
  720MOL0     H97187   4.880  11.533   6.529 -2.3349 -1.6481 -1.1651
  720MOL0     H97188   4.905  11.301   6.145  0.3071 -0.1897 -0.1250
  720MOL0     H97189   4.762  11.386   6.118 -0.5256 -0.4057  0.6151
  720MOL0     H97190   4.780  11.138   6.305 -3.2412 -3.9009 -1.6411
  720MOL0     H97191   4.714  11.145   6.153 -0.6467  1.6123 -1.4120
  720MOL0     H97192   4.544  11.307   6.221 -1.8616 -2.9661 -2.1292
  720MOL0     H97193   4.600  11.299   6.393 -0.2193  0.7316 -1.4462
  720MOL0     H97194   4.526  11.048   6.236 -2.3634  0.0496 -0.9712
  720MOL0     H97195   4.486  11.086   6.400  1.3038  3.5453  1.8590
  720MOL0     H97196   4.135  11.191   6.313  0.1884 -0.3256  0.4954
  720MOL0     H97197   4.993  11.200   6.311 -1.6090  1.0343 -1.8234
  720MOL0     H97198   5.172  11.020   6.553 -1.0846  0.2465  0.5893
  720MOL0     H97199   5.196  11.065   6.388  1.1954 -0.2174  0.4007
  720MOL0     H97200   5.303  11.140   6.509 -0.6566  2.6229 -1.0262
  721MOL0     O97201   0.709   1.979  10.880  1.2847 -0.7736 -0.1995
  721MOL0     C97202   0.759   1.970  10.772  0.0638 -0.6323  0.2518
  721MOL0     O97203   0.893   1.977  10.748 -0.2933  0.1350 -0.0391
  721MOL0     C97204   0.983   1.978  10.848 -0.6116  1.0734 -0.9629
  721MOL0     C97205   0.959   1.894  10.962 -0.9253  0.4879 -0.5365
  721MOL0     C97206   1.054   1.888  11.070 -0.3423 -0.1070  1.6938
  721MOL0     C97207   1.169   1.965  11.062 -0.0887 -0.0819 -0.2673
  721MOL0     O97208   1.248   1.951  11.175  0.3231  0.1691 -0.0593
  721MOL0     C97209   1.388   1.935  11.153  0.3494 -0.4252 -0.0521
  721MOL0     C97210   1.457   1.905  11.288  1.1726  0.2360 -0.0639
  721MOL0     C97211   1.607   1.904  11.267 -0.5052  0.6693 -0.1796
  721MOL0     C97212   1.688   1.849  11.398 -0.6137 -0.8300 -0.3930
  721MOL0     C97213   1.837   1.808  11.371  0.1495 -0.3041 -0.2819
  721MOL0     C97214   1.852   1.667  11.313 -0.6571  0.0343 -0.2482
  721MOL0     C97215   1.843   1.651  11.171 -0.4232  0.0319 -0.9120
  721MOL0     C97216   1.881   1.506  11.123 -1.3466  0.8133  0.1126
  721MOL0     N97217   2.019   1.448  11.147 -1.0982  1.2562 -0.4216
  721MOL0     C97218   2.139   1.521  11.123 -0.2691  0.7224 -0.4392
  721MOL0     C97219   2.240   1.453  11.194  0.0129  0.2327 -0.8558
  721MOL0     C97220   2.384   1.482  11.197  0.0358  0.4502  0.0190
  721MOL0     C97221   2.444   1.484  11.336  0.1733 -0.2237 -0.1865
  721MOL0     C97222   2.596   1.459  11.341  1.5930  0.6325  0.1926
  721MOL0     C97223   2.647   1.438  11.484  1.1065 -0.1966  1.0578
  721MOL0     O97224   2.565   1.363  11.568 -0.1294  0.1128 -0.2876
  721MOL0     C97225   2.588   1.370  11.703  0.0831 -0.0529  0.2806
  721MOL0     C97226   2.478   1.328  11.781 -0.1158 -0.3596 -0.0491
  721MOL0     C97227   2.497   1.325  11.917  0.1026  0.2454  0.6813
  721MOL0     C97228   2.617   1.377  11.977 -0.0146 -0.2635 -0.3162
  721MOL0     C97229   2.640   1.383  12.116 -0.3769 -0.3020 -0.2054
  721MOL0     O97230   2.717   1.488  12.162  0.1500  0.3550 -0.9750
  721MOL0     C97231   2.744   1.485  12.293 -0.6244  0.0466 -0.3365
  721MOL0     C97232   2.844   1.403  12.351 -0.0932  0.9938 -0.6172
  721MOL0     C97233   2.872   1.418  12.489 -0.0491  0.1764  0.3092
  721MOL0     C97234   2.825   1.520  12.563  0.6574 -0.1223 -0.5280
  721MOL0     O97235   2.887   1.538  12.690  0.3638  0.4290 -0.0666
  721MOL0     C97236   2.889   1.673  12.730 -0.2319  0.7600 -0.0247
  721MOL0     C97237   2.969   1.663  12.860  0.6818  0.1924 -0.1468
  721MOL0     C97238   2.870   1.646  12.982 -0.4140 -0.0441 -0.2072
  721MOL0     C97239   2.949   1.625  13.121 -0.6521 -0.0117  0.0197
  721MOL0     C97240   2.857   1.614  13.242 -0.6176 -0.4779  0.4306
  721MOL0     C97241   2.919   1.662  13.375 -0.0008 -0.0386  0.7279
  721MOL0     C97242   3.036   1.582  13.433 -0.6024 -0.1853  0.0214
  721MOL0     C97243   3.011   1.429  13.429 -0.7511  0.5729  0.0517
  721MOL0    Cl97244   3.102   1.364  13.279 -0.4705  0.0922  0.5090
  721MOL0     C97245   2.732   1.607  12.504 -0.7206  0.2353 -0.1859
  721MOL0     C97246   2.702   1.590  12.370  0.3621 -0.0447 -1.0486
  721MOL0     O97247   2.584   1.298  12.190  0.6169  0.2461 -0.1826
  721MOL0     C97248   2.719   1.433  11.888  0.3631  1.1093  1.0817
  721MOL0     C97249   2.709   1.416  11.759  1.3013 -0.1533  0.4773
  721MOL0     N97250   2.184   1.337  11.242  0.1632  0.1148  0.5316
  721MOL0     N97251   2.060   1.330  11.213  0.9335 -0.5634 -0.1253
  721MOL0     C97252   1.194   2.041  10.947  0.5010 -0.6057  0.8251
  721MOL0     C97253   1.102   2.051  10.836 -0.5100 -0.0379  0.2703
  721MOL0     C97254   0.666   1.949  10.655  1.0736 -0.7935 -0.0818
  721MOL0     C97255   0.729   1.941  10.527  0.2735  0.3538 -0.2924
  721MOL0     C97256   0.660   1.955  10.405 -0.0302 -0.0828 -0.2355
  721MOL0     C97257   0.517   1.948  10.404 -1.0304  0.8609  0.1391
  721MOL0     O97258   0.451   1.928  10.283 -0.4865 -0.6281 -0.5397
  721MOL0     C97259   0.369   2.032  10.238 -0.3540  0.3452 -0.9566
  721MOL0     C97260   0.313   2.002  10.106  0.3815  1.4111  0.7001
  721MOL0     C97261   0.234   2.098  10.020  0.4726  0.2849 -0.0284
  721MOL0     C97262   0.084   2.104  10.051 -0.1956 -0.4889 -0.4404
  721MOL0     C97263   0.014   2.172   9.946 -1.3148 -0.3299 -0.6459
  721MOL0     C97264  -0.034   2.238   9.860 -0.1877 -1.0331  0.2765
  721MOL0     C97265   0.450   1.944  10.530  0.1775  0.0856 -0.4299
  721MOL0     C97266   0.520   1.950  10.653  0.4073  0.5222 -0.3343
  721MOL0     C97267   0.434   1.978  10.771  0.1013  0.0320 -0.5321
  721MOL0     H97268   0.870   1.834  10.980  0.4455 -1.7878 -0.9078
  721MOL0     H97269   1.043   1.828  11.160 -1.5893 -0.6603  1.2026
  721MOL0     H97270   1.425   1.870  11.073 -0.2787  0.7385 -1.3186
  721MOL0     H97271   1.419   2.036  11.127 -0.3461 -0.3456 -0.6019
  721MOL0     H97272   1.424   1.805  11.317  3.1795  0.1673  2.2556
  721MOL0     H97273   1.431   1.987  11.355 -0.5307 -0.7546  0.5402
  721MOL0     H97274   1.648   2.005  11.256  0.4890  0.2605 -0.3489
  721MOL0     H97275   1.631   1.843  11.180 -1.0908 -0.7893  0.6418
  721MOL0     H97276   1.693   1.935  11.466 -0.7894  1.4943 -3.1464
  721MOL0     H97277   1.649   1.765  11.456  1.5917 -3.8770 -2.9994
  721MOL0     H97278   1.888   1.879  11.305 -1.9859  1.3659 -0.2609
  721MOL0     H97279   1.891   1.817  11.465  0.9656  1.9349 -0.8866
  721MOL0     H97280   1.953   1.636  11.343  0.6108  0.7070 -3.4481
  721MOL0     H97281   1.784   1.610  11.377 -2.7194  0.5856 -1.8491
  721MOL0     H97282   1.899   1.731  11.121 -0.4159  0.2586 -0.5454
  721MOL0     H97283   1.741   1.659  11.132  0.4192  1.7711 -2.9627
  721MOL0     H97284   1.816   1.433  11.172  0.2300  0.5793  1.9911
  721MOL0     H97285   1.866   1.495  11.015 -1.1475 -2.7969  0.3151
  721MOL0     H97286   2.153   1.612  11.065 -1.2041  1.3030  0.2172
  721MOL0     H97287   2.436   1.398  11.151 -0.9903 -0.1065 -0.1656
  721MOL0     H97288   2.405   1.577  11.146  0.7494 -0.9935 -2.5254
  721MOL0     H97289   2.421   1.577  11.388  0.4554 -0.1709 -0.1529
  721MOL0     H97290   2.390   1.405  11.388 -0.6975 -1.5981 -2.9512
  721MOL0     H97291   2.658   1.539  11.299  3.2359  0.8226  2.7118
  721MOL0     H97292   2.617   1.374  11.277 -0.7585  1.2408 -1.4982
  721MOL0     H97293   2.647   1.535  11.536 -1.1939  2.1157 -2.7337
  721MOL0     H97294   2.747   1.395  11.475  1.5738  1.0490  0.0487
  721MOL0     H97295   2.392   1.288  11.728  1.0342  0.8208 -3.0491
  721MOL0     H97296   2.423   1.287  11.987  0.7801  1.2736  2.0095
  721MOL0     H97297   2.898   1.333  12.288  0.4689  1.8222 -1.0741
  721MOL0     H97298   2.944   1.354  12.540 -0.8169 -0.3819  0.7108
  721MOL0     H97299   2.928   1.740  12.653  0.3988 -3.2411 -3.5793
  721MOL0     H97300   2.798   1.710  12.777 -0.5788 -0.2070  0.0713
  721MOL0     H97301   3.037   1.578  12.852 -2.0867 -2.1271 -0.6038
  721MOL0     H97302   3.015   1.761  12.880  1.5004  0.1452 -1.6660
  721MOL0     H97303   2.816   1.741  12.983 -3.7492 -1.7488 -1.9340
  721MOL0     H97304   2.795   1.567  12.975  0.5512 -0.9251 -0.9668
  721MOL0     H97305   3.020   1.705  13.139 -0.0090 -1.0343  2.3711
  721MOL0     H97306   3.021   1.542  13.125  1.1670  1.4047 -1.5149
  721MOL0     H97307   2.828   1.509  13.253  0.3955 -0.5210  3.6680
  721MOL0     H97308   2.767   1.676  13.232 -0.2554 -0.0261 -0.0613
  721MOL0     H97309   2.939   1.769  13.357 -0.6465 -0.2290 -1.3223
  721MOL0     H97310   2.845   1.661  13.456  0.3255  1.4385  1.0902
  721MOL0     H97311   3.046   1.622  13.534  0.9856 -0.5658  0.0373
  721MOL0     H97312   3.127   1.604  13.377  0.7036 -3.0876  0.8264
  721MOL0     H97313   3.052   1.381  13.517 -0.7824  1.3199  0.4878
  721MOL0     H97314   2.905   1.403  13.439 -0.9839  1.9454  1.5117
  721MOL0     H97315   2.700   1.702  12.547 -0.6345  1.6393 -2.9898
  721MOL0     H97316   2.644   1.668  12.322 -0.5752 -0.5690 -0.8005
  721MOL0     H97317   2.815   1.476  11.916  0.8009 -0.6382  2.4761
  721MOL0     H97318   2.793   1.451  11.699 -0.4358 -0.1635 -2.1416
  721MOL0     H97319   1.286   2.098  10.942 -1.2992  2.5217  0.6341
  721MOL0     H97320   1.126   2.116  10.753  1.8031 -0.6577  0.4019
  721MOL0     H97321   0.837   1.932  10.521  0.7124  3.2893  1.4680
  721MOL0     H97322   0.717   1.945  10.313 -1.4096  0.1877 -1.1400
  721MOL0     H97323   0.431   2.123  10.236  1.0721 -0.5446  0.4894
  721MOL0     H97324   0.293   2.038  10.317 -1.6013 -1.6167 -1.9405
  721MOL0     H97325   0.264   1.906  10.124  3.1154  0.4143  3.8370
  721MOL0     H97326   0.393   1.965  10.040  0.1825 -1.3619  1.9034
  721MOL0     H97327   0.245   2.074   9.914  1.9144 -2.6108  0.6679
  721MOL0     H97328   0.283   2.196  10.024  1.8906 -0.4032  3.5703
  721MOL0     H97329   0.045   2.004  10.069 -1.4950  0.3400  1.6586
  721MOL0     H97330   0.073   2.164  10.141  0.8228  3.3114 -2.6262
  721MOL0     H97331  -0.088   2.304   9.795  2.5612  0.9950 -0.0854
  721MOL0     H97332   0.342   1.941  10.534  0.2287 -0.8198  2.4766
  721MOL0     H97333   0.454   2.069  10.828 -1.9668  0.2044  0.0057
  721MOL0     H97334   0.329   1.974  10.741  0.3502 -0.6301 -1.3690
  721MOL0     H97335   0.451   1.901  10.846  2.7963 -0.1009 -1.1829
  722MOL0     O97336   4.170   3.242   6.376  0.2846  0.2481  0.0070
  722MOL0     C97337   4.150   3.128   6.412  0.2940  0.4534  0.7947
  722MOL0     O97338   4.194   3.080   6.528  0.6439  0.9981  0.3621
  722MOL0     C97339   4.232   3.160   6.638  1.3822 -0.1075 -0.4561
  722MOL0     C97340   4.193   3.291   6.661 -0.8859 -0.1988  0.9287
  722MOL0     C97341   4.216   3.362   6.782  0.6659 -0.6340 -0.0263
  722MOL0     C97342   4.286   3.298   6.882  0.2684  0.5064 -0.5629
  722MOL0     O97343   4.312   3.375   6.998 -0.1288 -0.4982  0.3011
  722MOL0     C97344   4.391   3.333   7.108 -0.1510  0.2902 -0.3389
  722MOL0     C97345   4.506   3.436   7.132 -0.0393 -0.1547 -0.3191
  722MOL0     C97346   4.445   3.562   7.184  0.3546  0.7572  0.3596
  722MOL0     C97347   4.547   3.648   7.251 -0.3205 -1.5691 -0.8848
  722MOL0     C97348   4.470   3.786   7.281  0.7681  0.1164  0.4147
  722MOL0     C97349   4.479   3.847   7.430  0.4704  1.0617 -0.3003
  722MOL0     C97350   4.423   3.751   7.533  0.0121  0.1569  0.0793
  722MOL0     C97351   4.328   3.834   7.625  0.1776 -0.2187 -0.8798
  722MOL0     N97352   4.186   3.844   7.573  0.7596 -0.4175  0.0815
  722MOL0     C97353   4.089   3.751   7.536  0.9592  0.3841  0.0805
  722MOL0     C97354   3.981   3.809   7.473 -0.5895 -0.3740  0.1632
  722MOL0     C97355   3.858   3.739   7.426  0.7643 -0.0046 -0.6998
  722MOL0     C97356   3.869   3.596   7.378 -0.9180 -0.4262  0.1733
  722MOL0     C97357   3.745   3.549   7.331  0.2145 -0.2058  0.8296
  722MOL0     C97358   3.745   3.391   7.318  1.1035 -0.3603 -0.8104
  722MOL0     O97359   3.822   3.347   7.209 -0.0871 -0.4869  0.2735
  722MOL0     C97360   3.784   3.380   7.071  0.7627 -0.1713  0.0382
  722MOL0     C97361   3.885   3.389   6.979  0.3741  0.4443 -0.8720
  722MOL0     C97362   3.863   3.411   6.845 -1.0780 -0.0238  0.6703
  722MOL0     C97363   3.731   3.408   6.792  0.2056  0.0682 -0.2765
  722MOL0     C97364   3.700   3.424   6.650  0.5558  0.0378 -0.6796
  722MOL0     O97365   3.573   3.406   6.608  0.4795  0.1822  0.2511
  722MOL0     C97366   3.543   3.451   6.482  0.5049 -0.9722 -0.2536
  722MOL0     C97367   3.443   3.388   6.410 -0.6944  0.2660  0.1242
  722MOL0     C97368   3.398   3.436   6.288 -0.5458 -0.6214  0.1478
  722MOL0     C97369   3.458   3.546   6.235 -0.5045  1.3917  0.5989
  722MOL0     O97370   3.412   3.591   6.109 -0.3596  0.6793  0.6680
  722MOL0     C97371   3.461   3.711   6.047 -0.6395  0.3011  0.1244
  722MOL0     C97372   3.453   3.706   5.893 -0.1765  0.1801  0.8970
  722MOL0     C97373   3.319   3.682   5.830 -0.2503  0.2214 -0.2501
  722MOL0     C97374   3.275   3.538   5.833  0.8889 -0.2627  0.0593
  722MOL0     C97375   3.119   3.537   5.800 -0.2055 -0.3720 -0.8557
  722MOL0     C97376   3.092   3.591   5.658 -1.0435 -0.2689  0.4944
  722MOL0     C97377   2.943   3.571   5.631  0.5940  0.1571 -0.3461
  722MOL0     C97378   2.877   3.678   5.539 -0.1795  0.2569  0.2551
  722MOL0    Cl97379   2.915   3.656   5.362  0.1956  0.0072  0.5034
  722MOL0     C97380   3.554   3.619   6.304 -0.0227  0.3823 -0.7266
  722MOL0     C97381   3.596   3.568   6.433  0.5153  0.6223  0.0877
  722MOL0     O97382   3.803   3.434   6.582  0.4445 -0.3268  0.1925
  722MOL0     C97383   3.623   3.411   6.887  0.3136  0.3495 -0.8851
  722MOL0     C97384   3.651   3.391   7.024 -0.0334  0.8917  0.0425
  722MOL0     N97385   4.020   3.947   7.462 -0.5761 -1.3464  0.1382
  722MOL0     N97386   4.142   3.961   7.517  0.1027 -0.5438  0.1399
  722MOL0     C97387   4.316   3.157   6.870 -0.0441 -0.2387  0.7012
  722MOL0     C97388   4.293   3.099   6.745 -0.7657  0.1192 -0.3316
  722MOL0     C97389   4.092   3.034   6.314  0.0622 -0.9742  0.3911
  722MOL0     C97390   4.140   2.905   6.324 -0.0481 -0.4603  0.0981
  722MOL0     C97391   4.097   2.803   6.244  0.4538  0.5071 -0.3923
  722MOL0     C97392   4.009   2.832   6.142  1.0187 -0.0985  0.9672
  722MOL0     O97393   3.950   2.744   6.051 -0.2116  0.1255 -0.2586
  722MOL0     C97394   3.959   2.597   6.074 -0.1529 -0.6697 -0.3806
  722MOL0     C97395   3.947   2.515   5.952 -0.7111 -0.4732  0.4837
  722MOL0     C97396   3.809   2.528   5.880  0.5013 -0.0571  0.0191
  722MOL0     C97397   3.673   2.484   5.948 -0.0535 -0.7290 -0.5355
  722MOL0     C97398   3.695   2.373   6.034  0.8082 -0.3208 -0.4185
  722MOL0     C97399   3.727   2.274   6.102 -0.2463 -0.1290  0.3114
  722MOL0     C97400   3.972   2.959   6.122 -0.3077 -0.3742  0.2909
  722MOL0     C97401   4.009   3.067   6.208  0.2015 -0.2180  0.1813
  722MOL0     C97402   3.948   3.209   6.184  0.5069  0.2385  0.0554
  722MOL0     H97403   4.152   3.347   6.577  1.1691  1.5408  1.0115
  722MOL0     H97404   4.189   3.466   6.790 -0.2569 -0.6382 -2.2866
  722MOL0     H97405   4.324   3.311   7.192 -0.9867  0.9353 -0.8170
  722MOL0     H97406   4.438   3.235   7.095 -2.7411 -0.9571 -0.9455
  722MOL0     H97407   4.545   3.453   7.031 -0.7364  1.1665 -0.3959
  722MOL0     H97408   4.584   3.406   7.202 -0.6269  1.1802  0.9708
  722MOL0     H97409   4.364   3.540   7.254  3.9932 -1.5396  4.4097
  722MOL0     H97410   4.405   3.622   7.103 -1.0176 -0.1061  0.3749
  722MOL0     H97411   4.596   3.615   7.343  4.1700  3.4754 -0.9917
  722MOL0     H97412   4.628   3.650   7.177  1.2964 -0.1558  0.8311
  722MOL0     H97413   4.497   3.857   7.202 -2.6114  0.3612 -0.6611
  722MOL0     H97414   4.364   3.762   7.272  1.1744 -1.4690 -0.7181
  722MOL0     H97415   4.584   3.872   7.452  0.2145  1.3847  0.5756
  722MOL0     H97416   4.429   3.944   7.434 -0.3524  0.8000 -2.5333
  722MOL0     H97417   4.508   3.728   7.598  1.1739  1.5425 -0.8749
  722MOL0     H97418   4.383   3.667   7.474 -0.2704  3.2366 -4.6826
  722MOL0     H97419   4.333   3.789   7.725 -0.3294 -0.0344 -0.7709
  722MOL0     H97420   4.364   3.935   7.646  0.2593 -0.7958  2.1248
  722MOL0     H97421   4.102   3.646   7.559  2.5567  0.2009 -1.4127
  722MOL0     H97422   3.796   3.730   7.516  0.3450  0.4154 -0.9430
  722MOL0     H97423   3.810   3.806   7.355  0.8745 -0.9327 -1.6759
  722MOL0     H97424   3.945   3.596   7.299 -1.8204 -1.2315 -0.7256
  722MOL0     H97425   3.903   3.539   7.465  2.4296  5.9789  3.8248
  722MOL0     H97426   3.720   3.604   7.240  1.9436  2.6207  1.9371
  722MOL0     H97427   3.670   3.582   7.403  0.3413 -0.4797  1.0898
  722MOL0     H97428   3.640   3.360   7.314 -0.2288  3.0622  2.1672
  722MOL0     H97429   3.790   3.348   7.407  2.5346  1.6481 -0.5100
  722MOL0     H97430   3.983   3.381   7.026 -0.0293  2.7451  0.5368
  722MOL0     H97431   3.950   3.419   6.780  1.7571  1.6001  4.3680
  722MOL0     H97432   3.401   3.303   6.462  1.4615  0.1801  1.8578
  722MOL0     H97433   3.325   3.377   6.233  0.0506 -1.7791  0.5704
  722MOL0     H97434   3.406   3.803   6.067 -0.6616  0.3062  0.0432
  722MOL0     H97435   3.568   3.718   6.065 -0.6054 -0.6388  0.3574
  722MOL0     H97436   3.482   3.802   5.849 -3.0559 -0.9572 -4.3904
  722MOL0     H97437   3.535   3.642   5.860  0.1206  1.6738 -1.5018
  722MOL0     H97438   3.254   3.751   5.885  3.0809  2.4876  1.1895
  722MOL0     H97439   3.314   3.718   5.727 -2.2219 -1.5998 -0.8770
  722MOL0     H97440   3.271   3.491   5.932 -1.6774 -1.2937 -0.4291
  722MOL0     H97441   3.325   3.477   5.758  0.0837  0.5781 -1.1940
  722MOL0     H97442   3.064   3.591   5.877  0.4005 -0.1254 -0.5894
  722MOL0     H97443   3.088   3.432   5.799 -3.1786  0.4067  0.8476
  722MOL0     H97444   3.128   3.694   5.660 -0.2717 -0.5341  0.6538
  722MOL0     H97445   3.150   3.538   5.581 -3.2322 -1.6666 -0.2983
  722MOL0     H97446   2.893   3.575   5.728  0.5994 -0.8692 -0.2843
  722MOL0     H97447   2.934   3.478   5.573 -0.8424  0.7086 -1.0621
  722MOL0     H97448   2.768   3.666   5.538  0.0568 -3.9738  1.9144
  722MOL0     H97449   2.918   3.775   5.566  1.2355 -0.9088  2.6419
  722MOL0     H97450   3.584   3.718   6.271  0.3188  0.8609  0.9385
  722MOL0     H97451   3.664   3.624   6.496  3.9115 -3.6295  0.6653
  722MOL0     H97452   3.526   3.434   6.845  0.0543  3.0942  0.9767
  722MOL0     H97453   3.568   3.392   7.093 -0.5651 -1.2315 -0.5073
  722MOL0     H97454   4.346   3.094   6.953  0.1345 -0.0009  0.8208
  722MOL0     H97455   4.320   2.994   6.743  0.3713  0.4133 -1.2063
  722MOL0     H97456   4.229   2.894   6.385  0.7225 -1.1824 -1.1025
  722MOL0     H97457   4.151   2.709   6.255 -2.3416 -1.0240  1.6815
  722MOL0     H97458   3.888   2.568   6.152 -0.7885  3.4628  0.8366
  722MOL0     H97459   4.061   2.580   6.108 -0.8844 -1.5311  1.5158
  722MOL0     H97460   3.961   2.410   5.977  1.8170 -0.5313 -0.8612
  722MOL0     H97461   4.015   2.564   5.882 -0.8210 -0.4519  0.3918
  722MOL0     H97462   3.819   2.476   5.785 -1.8799  1.4605 -1.1668
  722MOL0     H97463   3.793   2.629   5.843  1.1955  0.0820  0.0906
  722MOL0     H97464   3.639   2.575   5.998  2.0380  0.3276 -0.9322
  722MOL0     H97465   3.600   2.472   5.868 -0.5694 -2.0023  0.0876
  722MOL0     H97466   3.755   2.184   6.152  2.0376  1.1225  1.4670
  722MOL0     H97467   3.895   2.987   6.050 -1.3991  2.4509  2.3342
  722MOL0     H97468   3.922   3.256   6.280  1.0677  1.2525 -0.2685
  722MOL0     H97469   4.022   3.279   6.142 -0.1025 -0.3330 -2.0850
  722MOL0     H97470   3.859   3.211   6.121 -0.8721  2.6337  1.9152
  723MOL0     O97471   5.639   4.039   1.163 -0.2594 -0.3211 -0.2447
  723MOL0     C97472   5.689   4.110   1.071  0.3712 -0.6405  0.2504
  723MOL0     O97473   5.719   4.071   0.952 -0.7813 -0.8336  0.0510
  723MOL0     C97474   5.713   3.931   0.921 -0.0709 -0.7348 -0.7416
  723MOL0     C97475   5.815   3.861   0.973 -0.2084 -0.9221  0.1369
  723MOL0     C97476   5.827   3.731   0.937 -0.4613 -1.0950  0.3984
  723MOL0     C97477   5.749   3.669   0.842 -0.2469  0.4650  0.2371
  723MOL0     O97478   5.772   3.535   0.839  0.5259  0.2855  0.2558
  723MOL0     C97479   5.693   3.451   0.751  0.1556  0.3249  0.0896
  723MOL0     C97480   5.735   3.306   0.757 -0.1788 -0.9535  0.4425
  723MOL0     C97481   5.736   3.231   0.889  0.3099 -0.3941  0.5067
  723MOL0     C97482   5.784   3.090   0.876  0.4781 -0.4370 -0.0396
  723MOL0     C97483   5.737   3.005   0.995 -0.5065 -0.5483 -0.6389
  723MOL0     C97484   5.765   2.858   0.979 -0.1404 -0.1517  0.1448
  723MOL0     C97485   5.709   2.771   1.084 -0.0335  0.4459  0.8644
  723MOL0     C97486   5.794   2.795   1.208 -0.3624 -0.3048 -0.6646
  723MOL0     N97487   5.750   2.694   1.310  0.1097 -0.0015 -0.1570
  723MOL0     C97488   5.763   2.554   1.301  0.0299  0.1941  0.2914
  723MOL0     C97489   5.704   2.504   1.409  0.5486  0.0451 -0.4117
  723MOL0     C97490   5.715   2.353   1.438  0.1859  0.4887 -1.1884
  723MOL0     C97491   5.818   2.318   1.557 -0.8168 -0.2465 -0.5561
  723MOL0     C97492   5.825   2.171   1.580  0.0397  0.2532  0.3180
  723MOL0     C97493   5.939   2.132   1.680  0.5500  0.4226  0.9392
  723MOL0     O97494   5.980   1.990   1.674  0.2532 -0.2869 -0.6068
  723MOL0     C97495   6.037   1.944   1.563 -0.2372 -0.1759  0.5155
  723MOL0     C97496   6.033   1.806   1.550  0.7573  0.1993 -0.7052
  723MOL0     C97497   6.065   1.744   1.431  0.2001  0.1877  0.3879
  723MOL0     C97498   6.107   1.825   1.329 -0.0011 -0.1318 -0.0745
  723MOL0     C97499   6.150   1.753   1.201 -0.3592 -0.6625 -0.9051
  723MOL0     O97500   6.151   1.611   1.213 -0.1418 -0.1585 -0.1076
  723MOL0     C97501   6.190   1.548   1.096  1.0431  0.5346 -0.0465
  723MOL0     C97502   6.318   1.494   1.089 -0.1415  0.5151 -0.3300
  723MOL0     C97503   6.351   1.408   0.986 -0.2907  0.6734 -0.1567
  723MOL0     C97504   6.263   1.389   0.870 -0.3293  0.6865 -1.1363
  723MOL0     O97505   6.307   1.322   0.754  0.4528  0.7223  0.1876
  723MOL0     C97506   6.349   1.188   0.779 -0.0096  0.3503 -0.1078
  723MOL0     C97507   6.400   1.113   0.660 -0.6012 -0.3872 -0.0937
  723MOL0     C97508   6.417   0.955   0.676  1.0985  0.3830  1.1944
  723MOL0     C97509   6.541   0.917   0.765  0.1920  0.1931  0.2710
  723MOL0     C97510   6.529   0.772   0.813  0.4224  0.2325  0.6167
  723MOL0     C97511   6.408   0.728   0.905 -0.6986 -0.0683  0.3673
  723MOL0     C97512   6.420   0.591   0.968 -0.5079  0.5952 -0.4687
  723MOL0     C97513   6.428   0.475   0.868 -0.4275 -0.7333 -0.2178
  723MOL0    Cl97514   6.420   0.309   0.944 -0.1415 -0.0557 -0.2882
  723MOL0     C97515   6.140   1.456   0.878 -0.2578 -0.4112 -0.2328
  723MOL0     C97516   6.104   1.531   0.988 -0.8117 -0.7388 -0.4218
  723MOL0     O97517   6.155   1.821   1.101  1.0637  0.2576 -0.1835
  723MOL0     C97518   6.132   1.962   1.350 -0.1620 -0.2753  0.3481
  723MOL0     C97519   6.102   2.021   1.471  0.1095 -0.2353  0.5658
  723MOL0     N97520   5.686   2.609   1.495 -0.1849 -0.3969 -0.7698
  723MOL0     N97521   5.714   2.723   1.439  0.3533 -0.4960 -0.3614
  723MOL0     C97522   5.646   3.744   0.780  0.1907 -0.1239 -0.0636
  723MOL0     C97523   5.639   3.877   0.823  0.4544  0.8820 -0.5556
  723MOL0     C97524   5.700   4.252   1.104 -0.0586 -0.5421 -0.5656
  723MOL0     C97525   5.822   4.315   1.071  0.6930 -0.2400  0.8877
  723MOL0     C97526   5.854   4.446   1.114  0.5394 -0.3209 -0.2923
  723MOL0     C97527   5.769   4.508   1.198  0.3720  0.0806 -0.7311
  723MOL0     O97528   5.775   4.633   1.260  0.0236  0.7221  0.2547
  723MOL0     C97529   5.879   4.718   1.222 -1.0289  0.6064 -1.0726
  723MOL0     C97530   5.863   4.864   1.260  0.3149 -0.1074  0.5869
  723MOL0     C97531   5.994   4.943   1.239 -0.7440  0.4850  0.7508
  723MOL0     C97532   5.988   5.096   1.243 -0.4098 -0.1141  0.0629
  723MOL0     C97533   5.928   5.147   1.369 -0.1941 -0.2359 -0.9286
  723MOL0     C97534   5.886   5.189   1.473 -0.7937  0.0634 -0.6662
  723MOL0     C97535   5.650   4.444   1.233 -0.4065 -0.5561  0.4961
  723MOL0     C97536   5.611   4.319   1.188 -0.3561 -0.4605  0.2857
  723MOL0     C97537   5.474   4.271   1.228  0.2674 -0.7876 -0.0063
  723MOL0     H97538   5.884   3.903   1.046 -1.2094  2.0365 -0.5000
  723MOL0     H97539   5.910   3.676   0.979  0.2427 -0.4934 -0.1808
  723MOL0     H97540   5.585   3.461   0.767 -0.4062  0.5646 -3.1766
  723MOL0     H97541   5.711   3.490   0.650 -0.6934  1.0815  0.2205
  723MOL0     H97542   5.839   3.308   0.721 -0.2210 -2.6199  0.1402
  723MOL0     H97543   5.669   3.254   0.686  1.3880  1.1315 -2.8089
  723MOL0     H97544   5.632   3.232   0.924  0.1818 -3.1896  0.4268
  723MOL0     H97545   5.789   3.288   0.965  0.5659  1.9799 -1.3416
  723MOL0     H97546   5.737   3.048   0.787 -1.1516  1.8539 -0.3479
  723MOL0     H97547   5.892   3.083   0.866  0.8206 -1.1630  3.0932
  723MOL0     H97548   5.795   3.032   1.084  1.9109 -1.0011 -1.9768
  723MOL0     H97549   5.632   3.017   1.020 -0.4933 -3.3109  1.1016
  723MOL0     H97550   5.735   2.830   0.877  1.2866  1.0060 -0.6381
  723MOL0     H97551   5.871   2.839   0.960  0.0525  0.0762  0.9691
  723MOL0     H97552   5.716   2.665   1.056 -1.7629  0.9563 -1.9787
  723MOL0     H97553   5.603   2.795   1.099  0.8258  3.1566  3.4468
  723MOL0     H97554   5.900   2.792   1.181 -0.2625  1.7530 -0.6546
  723MOL0     H97555   5.769   2.892   1.252 -0.1024 -0.3716 -0.3715
  723MOL0     H97556   5.815   2.502   1.221 -1.6893 -0.7442 -0.2647
  723MOL0     H97557   5.615   2.310   1.449  1.8650 -3.5042  0.5328
  723MOL0     H97558   5.735   2.293   1.348 -0.7229 -0.8543 -0.5325
  723MOL0     H97559   5.920   2.355   1.544 -1.0145  0.6386  0.2644
  723MOL0     H97560   5.778   2.371   1.644 -0.9457  0.4678 -1.0388
  723MOL0     H97561   5.845   2.113   1.490 -1.7506 -3.7560  2.2422
  723MOL0     H97562   5.725   2.142   1.614  0.8025 -0.1581  2.3456
  723MOL0     H97563   5.919   2.137   1.788  0.3258 -1.4506  1.0228
  723MOL0     H97564   6.024   2.197   1.655 -0.2875  1.0359 -0.4343
  723MOL0     H97565   5.988   1.743   1.626  2.8834  0.8189  1.2008
  723MOL0     H97566   6.056   1.637   1.416 -1.6254  0.2238  0.9814
  723MOL0     H97567   6.382   1.502   1.176  0.3897  3.0432 -0.8683
  723MOL0     H97568   6.441   1.353   1.010 -1.8428 -1.6715  0.6051
  723MOL0     H97569   6.438   1.189   0.843  2.0480  2.8233 -2.7242
  723MOL0     H97570   6.263   1.140   0.826  1.1995 -0.0418  1.8037
  723MOL0     H97571   6.313   1.125   0.594 -3.4899 -2.4875  3.0139
  723MOL0     H97572   6.488   1.153   0.608 -0.8170 -1.3589 -1.2483
  723MOL0     H97573   6.323   0.909   0.709  2.2147 -2.5942  0.5496
  723MOL0     H97574   6.435   0.914   0.576 -2.2861 -0.6096  0.8564
  723MOL0     H97575   6.545   0.982   0.852  4.1623  0.4594  0.0699
  723MOL0     H97576   6.634   0.937   0.710  0.8086  2.0097  1.8693
  723MOL0     H97577   6.614   0.746   0.875  2.7363  1.7221 -1.7199
  723MOL0     H97578   6.527   0.713   0.720 -0.4449  1.7498 -0.3803
  723MOL0     H97579   6.406   0.798   0.989  0.6937 -0.2938  0.6156
  723MOL0     H97580   6.315   0.738   0.848 -0.8005  3.1368  0.8971
  723MOL0     H97581   6.331   0.584   1.032 -0.2833 -1.6895 -0.3271
  723MOL0     H97582   6.506   0.581   1.034 -1.5851 -1.1139  0.7761
  723MOL0     H97583   6.341   0.494   0.805 -0.2757  1.9992  0.2511
  723MOL0     H97584   6.519   0.473   0.807  1.0811 -3.4267  1.8960
  723MOL0     H97585   6.084   1.463   0.785 -0.3995 -1.3642 -0.2215
  723MOL0     H97586   6.013   1.591   0.981  1.4324  2.8219 -1.4234
  723MOL0     H97587   6.174   2.016   1.266  0.2823 -0.5122  0.4148
  723MOL0     H97588   6.123   2.126   1.490 -0.0023 -0.1857  0.4222
  723MOL0     H97589   5.577   3.711   0.703 -3.2854  2.8586  1.4572
  723MOL0     H97590   5.559   3.943   0.792 -1.3261 -0.3933  1.0588
  723MOL0     H97591   5.884   4.259   1.002 -0.0536  1.9407 -1.7193
  723MOL0     H97592   5.937   4.505   1.076 -1.4021  1.7075 -1.6666
  723MOL0     H97593   5.907   4.706   1.117 -1.3610  0.2016 -1.1145
  723MOL0     H97594   5.957   4.677   1.287 -0.8877  0.6080 -1.2400
  723MOL0     H97595   5.827   4.877   1.362 -2.9096 -0.5377 -0.4028
  723MOL0     H97596   5.794   4.911   1.190  1.3821  1.3594  0.4583
  723MOL0     H97597   6.033   4.907   1.143 -2.1768 -2.6259  1.1803
  723MOL0     H97598   6.062   4.916   1.320 -5.6037 -1.8300  4.6261
  723MOL0     H97599   6.089   5.139   1.233 -0.2225 -0.1534  1.5672
  723MOL0     H97600   5.938   5.138   1.155  2.0657  2.2265 -0.3969
  723MOL0     H97601   5.851   5.220   1.570  0.9858 -0.1495  0.0960
  723MOL0     H97602   5.581   4.495   1.299 -1.4285  0.4016 -1.2530
  723MOL0     H97603   5.437   4.217   1.140  3.7538  0.1399 -2.2596
  723MOL0     H97604   5.487   4.209   1.317  1.0845  1.6466  1.6758
  723MOL0     H97605   5.415   4.359   1.254  2.6137  0.2394  2.2984
  724MOL0     O97606   1.215   0.320   6.412  0.3918  0.0504  0.2938
  724MOL0     C97607   1.228   0.290   6.534 -0.2810 -0.0194 -0.0696
  724MOL0     O97608   1.158   0.194   6.595  0.6509 -0.0225 -0.1982
  724MOL0     C97609   1.048   0.141   6.537  0.2718  0.0698 -0.9825
  724MOL0     C97610   0.925   0.193   6.542 -0.3088 -0.0923 -0.0286
  724MOL0     C97611   0.814   0.135   6.483 -0.3736 -0.1050 -1.0485
  724MOL0     C97612   0.834   0.016   6.407  1.1473 -0.2338 -0.8064
  724MOL0     O97613   0.727  -0.046   6.345 -0.4724  0.2075  1.0941
  724MOL0     C97614   0.748  -0.144   6.239  0.0281 -0.2383 -0.4330
  724MOL0     C97615   0.617  -0.145   6.151 -0.2594  0.2881 -0.7207
  724MOL0     C97616   0.633  -0.214   6.020 -0.1906  0.0111 -0.5867
  724MOL0     C97617   0.675  -0.364   6.024 -0.7159 -0.5525 -0.3114
  724MOL0     C97618   0.688  -0.438   5.901  0.3750 -0.5037  0.1166
  724MOL0     C97619   0.699  -0.596   5.917 -0.5438 -0.1241 -0.9940
  724MOL0     C97620   0.828  -0.649   5.986  0.8253 -0.3667  0.0137
  724MOL0     C97621   0.805  -0.782   6.065 -1.3282 -0.3589  0.5744
  724MOL0     N97622   0.790  -0.896   5.975 -0.1618  0.0800 -0.6814
  724MOL0     C97623   0.796  -1.029   6.017  0.6459 -0.2304  0.3089
  724MOL0     C97624   0.768  -1.110   5.910 -1.0962  0.2841  0.1578
  724MOL0     C97625   0.799  -1.254   5.887 -0.7837  0.1762 -0.5722
  724MOL0     C97626   0.702  -1.337   5.971 -0.2970 -0.2139 -0.1276
  724MOL0     C97627   0.554  -1.285   5.947 -0.3443 -0.1005  0.2040
  724MOL0     C97628   0.483  -1.261   6.079 -0.0678 -0.3127 -0.2120
  724MOL0     O97629   0.558  -1.183   6.172 -0.0573 -0.4581  0.7756
  724MOL0     C97630   0.512  -1.163   6.298  0.7630 -0.1186 -0.8665
  724MOL0     C97631   0.592  -1.093   6.381  0.8388 -0.4534 -0.6556
  724MOL0     C97632   0.551  -1.066   6.514  1.0979 -0.6863 -0.1577
  724MOL0     C97633   0.429  -1.114   6.566 -0.0232 -0.1046  0.5976
  724MOL0     C97634   0.384  -1.091   6.700  0.2852  0.1434 -0.3362
  724MOL0     O97635   0.479  -1.047   6.786 -0.1659 -0.6511 -0.4627
  724MOL0     C97636   0.471  -1.033   6.920  0.4386 -0.1819  0.2391
  724MOL0     C97637   0.440  -1.147   6.997  0.2720  0.0868 -0.8641
  724MOL0     C97638   0.439  -1.135   7.136  0.7920  0.4945  0.5375
  724MOL0     C97639   0.461  -1.012   7.194 -1.1532  0.2386  0.6222
  724MOL0     O97640   0.466  -1.020   7.328 -0.5424 -0.6528 -0.4442
  724MOL0     C97641   0.598  -1.060   7.376  0.4030 -0.5077 -0.1285
  724MOL0     C97642   0.597  -1.151   7.497 -0.8199  0.3228  0.5916
  724MOL0     C97643   0.582  -1.073   7.628 -0.3881  0.0580  0.3561
  724MOL0     C97644   0.590  -1.165   7.747 -0.3049  0.1994  0.4900
  724MOL0     C97645   0.451  -1.196   7.810 -0.5135  0.5905  0.3969
  724MOL0     C97646   0.437  -1.312   7.907  0.2598  0.1589  1.0894
  724MOL0     C97647   0.295  -1.335   7.948  0.7362  0.3694  0.3384
  724MOL0     C97648   0.277  -1.478   8.005 -0.1900 -0.1959  0.2814
  724MOL0    Cl97649   0.364  -1.492   8.162 -0.1640 -0.1484  0.3933
  724MOL0     C97650   0.495  -0.895   7.114 -0.3598 -0.0436 -0.1944
  724MOL0     C97651   0.501  -0.907   6.973  0.8347 -0.1218 -0.2483
  724MOL0     O97652   0.267  -1.120   6.733  0.4925  0.3274 -0.6194
  724MOL0     C97653   0.347  -1.182   6.478 -0.2393 -0.3280 -0.3087
  724MOL0     C97654   0.383  -1.205   6.346 -0.0514  0.0502  0.3462
  724MOL0     N97655   0.757  -1.028   5.798  1.5434 -0.3200 -0.5721
  724MOL0     N97656   0.763  -0.904   5.843 -0.5130 -1.0197  0.6341
  724MOL0     C97657   0.959  -0.031   6.402 -0.1739 -0.1061 -0.2165
  724MOL0     C97658   1.071   0.022   6.461 -0.3391  0.1112 -0.0469
  724MOL0     C97659   1.334   0.350   6.620 -0.1297  1.0211  0.1522
  724MOL0     C97660   1.444   0.405   6.558  0.2017  0.1962 -0.2998
  724MOL0     C97661   1.555   0.461   6.614 -0.3528 -0.0962 -0.6166
  724MOL0     C97662   1.567   0.461   6.756 -0.6493  0.1298  0.8713
  724MOL0     O97663   1.670   0.535   6.818  0.1709 -0.1014  0.3520
  724MOL0     C97664   1.721   0.651   6.749  0.5985  0.9592 -0.0672
  724MOL0     C97665   1.861   0.628   6.675  0.5138  0.1052  0.2268
  724MOL0     C97666   1.960   0.568   6.773 -0.0288  0.5290 -0.6326
  724MOL0     C97667   2.102   0.619   6.742 -0.2292  0.3231  0.6283
  724MOL0     C97668   2.129   0.588   6.600  0.5145  0.0143 -0.4416
  724MOL0     C97669   2.161   0.538   6.496 -0.8635  0.1318  0.8611
  724MOL0     C97670   1.457   0.404   6.833 -0.3532 -0.6451  0.9837
  724MOL0     C97671   1.344   0.343   6.768 -0.3308 -0.5009 -0.0926
  724MOL0     C97672   1.246   0.261   6.849 -0.0075 -0.1845  1.1842
  724MOL0     H97673   0.920   0.294   6.580  1.7453  1.4408 -3.3454
  724MOL0     H97674   0.713   0.174   6.489 -2.0616 -3.8652 -1.8573
  724MOL0     H97675   0.828  -0.127   6.166 -1.0624  3.0881 -1.0268
  724MOL0     H97676   0.777  -0.242   6.277  1.6479  0.2319 -0.3826
  724MOL0     H97677   0.587  -0.046   6.115  1.0088  0.8960 -0.1625
  724MOL0     H97678   0.536  -0.198   6.203  0.4721 -3.6513 -3.2038
  724MOL0     H97679   0.711  -0.162   5.963 -0.2720  1.2565  0.3920
  724MOL0     H97680   0.546  -0.203   5.955 -1.1593 -2.3694  0.1933
  724MOL0     H97681   0.779  -0.364   6.058 -0.4472  0.1767 -1.1082
  724MOL0     H97682   0.623  -0.421   6.102 -1.4593  1.5186  0.7684
  724MOL0     H97683   0.604  -0.410   5.838  0.0287  0.9573  1.1658
  724MOL0     H97684   0.775  -0.397   5.847  0.1185 -1.9034 -1.4443
  724MOL0     H97685   0.608  -0.625   5.971  0.6963  0.2380  1.4352
  724MOL0     H97686   0.698  -0.629   5.813  1.0089 -0.1719 -1.0174
  724MOL0     H97687   0.855  -0.569   6.055 -3.9737  3.2601 -1.7697
  724MOL0     H97688   0.902  -0.660   5.906  0.2864 -0.2777 -0.5003
  724MOL0     H97689   0.889  -0.797   6.133 -0.5304  3.0242  0.5107
  724MOL0     H97690   0.712  -0.772   6.121 -1.1704  0.4691  0.6980
  724MOL0     H97691   0.839  -1.070   6.108  3.6814  0.0981 -0.8533
  724MOL0     H97692   0.782  -1.282   5.782 -2.6191  2.8754 -1.1014
  724MOL0     H97693   0.898  -1.282   5.924 -1.4869 -0.7406  0.7125
  724MOL0     H97694   0.717  -1.443   5.951  1.3984  0.0953 -0.6589
  724MOL0     H97695   0.730  -1.327   6.076 -2.9190 -0.6817  0.6995
  724MOL0     H97696   0.500  -1.360   5.889 -1.4318 -2.5361  3.9516
  724MOL0     H97697   0.547  -1.200   5.878 -1.0738  0.6204  1.1325
  724MOL0     H97698   0.458  -1.354   6.130  0.5776  0.0320  0.7734
  724MOL0     H97699   0.396  -1.198   6.062  1.9689  2.3240 -1.6761
  724MOL0     H97700   0.696  -1.067   6.366  1.8725 -1.3785  3.5258
  724MOL0     H97701   0.623  -1.006   6.566  2.0184  1.1803 -3.3135
  724MOL0     H97702   0.406  -1.241   6.955 -0.8096  0.2196 -0.3386
  724MOL0     H97703   0.396  -1.218   7.191  1.2868 -1.4585 -1.8386
  724MOL0     H97704   0.651  -1.116   7.299  0.4384  1.6405 -1.7353
  724MOL0     H97705   0.658  -0.976   7.411 -0.1981  0.3030 -1.0004
  724MOL0     H97706   0.517  -1.226   7.497 -0.3954 -0.2493  3.4672
  724MOL0     H97707   0.692  -1.206   7.501 -0.9845 -0.5367 -3.5510
  724MOL0     H97708   0.661  -1.000   7.646  1.0347 -1.0311 -1.1988
  724MOL0     H97709   0.483  -1.026   7.627 -0.9916 -1.1448 -1.2851
  724MOL0     H97710   0.649  -1.125   7.830 -1.5104  0.0210  1.4647
  724MOL0     H97711   0.635  -1.261   7.718  1.3330  1.5142 -1.6366
  724MOL0     H97712   0.397  -1.220   7.718 -1.1482  0.5387  0.7799
  724MOL0     H97713   0.405  -1.106   7.851  0.5875  0.8628  1.0789
  724MOL0     H97714   0.490  -1.399   7.867 -0.6617  1.0799 -2.5334
  724MOL0     H97715   0.502  -1.275   7.987 -0.8301  2.8551  0.8237
  724MOL0     H97716   0.216  -1.338   7.873  1.8654  0.1962 -0.8698
  724MOL0     H97717   0.259  -1.263   8.022  1.4078  4.5702 -3.0854
  724MOL0     H97718   0.173  -1.505   8.027 -0.2825  0.5486  0.8246
  724MOL0     H97719   0.312  -1.553   7.934 -2.2559 -1.9073  0.9491
  724MOL0     H97720   0.516  -0.805   7.170 -0.1913  0.9435 -1.7818
  724MOL0     H97721   0.525  -0.819   6.915  1.4089 -0.9755 -1.3672
  724MOL0     H97722   0.246  -1.202   6.512 -0.2507  3.2823  2.4068
  724MOL0     H97723   0.307  -1.252   6.284  1.1473  1.0622 -2.0146
  724MOL0     H97724   0.991  -0.116   6.343  0.4989  1.0142 -1.5613
  724MOL0     H97725   1.169  -0.023   6.468  0.0536  0.9423 -0.0833
  724MOL0     H97726   1.447   0.387   6.451 -1.6676  3.3038 -1.0075
  724MOL0     H97727   1.635   0.489   6.546 -2.0966 -1.1994 -3.2906
  724MOL0     H97728   1.741   0.732   6.820 -0.2276  1.5232 -0.4691
  724MOL0     H97729   1.654   0.703   6.679  0.7672  0.7770 -0.3647
  724MOL0     H97730   1.887   0.725   6.630  0.5150 -0.3724 -0.8349
  724MOL0     H97731   1.849   0.558   6.592 -0.7894  0.9571 -0.3327
  724MOL0     H97732   1.958   0.458   6.768  2.4710  0.3734  0.4341
  724MOL0     H97733   1.938   0.591   6.878  1.3985 -0.3897 -0.1017
  724MOL0     H97734   2.108   0.728   6.754  0.4564  0.2237  1.2565
  724MOL0     H97735   2.172   0.569   6.810 -0.8314  1.5959  2.2599
  724MOL0     H97736   2.185   0.501   6.398  3.2436  2.7930  0.6218
  724MOL0     H97737   1.477   0.416   6.939 -1.6708 -0.7029  1.2494
  724MOL0     H97738   1.263   0.288   6.953  2.2882  0.3798  0.7296
  724MOL0     H97739   1.142   0.275   6.817 -1.0235 -2.4968  3.1935
  724MOL0     H97740   1.257   0.154   6.832 -1.9600 -0.7898  3.2707
  725MOL0     O97741   5.994  11.440   0.421  0.2259  0.2423 -0.0992
  725MOL0     C97742   5.899  11.487   0.482  0.3148 -0.4010  1.2976
  725MOL0     O97743   5.768  11.497   0.444  0.7109 -0.1438  1.0062
  725MOL0     C97744   5.734  11.451   0.317  0.3694 -1.1648  0.2663
  725MOL0     C97745   5.661  11.343   0.292 -0.4033 -0.0142 -0.8232
  725MOL0     C97746   5.599  11.308   0.169 -0.9967 -0.1197  0.1635
  725MOL0     C97747   5.623  11.395   0.065 -0.6636  0.3265  0.8237
  725MOL0     O97748   5.574  11.373  -0.059 -0.3424  0.2244 -0.2574
  725MOL0     C97749   5.620  11.248  -0.113 -0.0406 -0.8005 -1.2873
  725MOL0     C97750   5.611  11.259  -0.273  0.2677  0.6803  0.2298
  725MOL0     C97751   5.722  11.350  -0.311 -0.0484  0.5318 -0.0781
  725MOL0     C97752   5.735  11.391  -0.458  0.1404  0.8174  0.6799
  725MOL0     C97753   5.819  11.513  -0.480  0.6562  0.1710  0.3215
  725MOL0     C97754   5.974  11.502  -0.474  0.2889  0.0880  0.0691
  725MOL0     C97755   6.027  11.447  -0.605  0.6115  0.1755  0.2614
  725MOL0     C97756   6.170  11.399  -0.596 -0.3414  0.6238 -0.9024
  725MOL0     N97757   6.202  11.318  -0.468  0.3849  0.0826  0.0994
  725MOL0     C97758   6.244  11.360  -0.343  0.1178 -0.0941  0.3817
  725MOL0     C97759   6.308  11.258  -0.280  0.4594  0.2954  0.4319
  725MOL0     C97760   6.381  11.234  -0.151 -0.0160 -0.2168 -0.5718
  725MOL0     C97761   6.425  11.365  -0.082 -0.1200  0.5709 -0.0254
  725MOL0     C97762   6.471  11.352   0.065  0.6701  0.3721  0.5871
  725MOL0     C97763   6.506  11.489   0.123  0.9277 -0.4148  0.0036
  725MOL0     O97764   6.584  11.563   0.031  0.3725 -0.6699  0.7281
  725MOL0     C97765   6.658  11.674   0.059 -0.2857  0.4161  0.2046
  725MOL0     C97766   6.646  11.747   0.182 -0.4258  1.6423  0.4264
  725MOL0     C97767   6.733  11.847   0.200 -0.2934  0.0787 -0.0620
  725MOL0     C97768   6.838  11.879   0.106  0.5447 -0.2897 -0.5442
  725MOL0     C97769   6.955  11.968   0.141  0.6002  0.2193  0.0370
  725MOL0     O97770   6.973  11.992   0.273  0.7009 -0.1678  0.7502
  725MOL0     C97771   7.091  12.052   0.311  0.8907  0.9101  0.1473
  725MOL0     C97772   7.108  12.188   0.302  0.1074 -0.0855 -0.1038
  725MOL0     C97773   7.224  12.253   0.357  0.8495  0.7108 -0.3545
  725MOL0     C97774   7.319  12.168   0.428 -0.3764 -0.2725  0.5669
  725MOL0     O97775   7.434  12.221   0.489  0.0094  0.5511 -0.2582
  725MOL0     C97776   7.536  12.257   0.402  0.3551 -0.5695  0.0934
  725MOL0     C97777   7.614  12.141   0.333 -0.3186  0.2845  0.5587
  725MOL0     C97778   7.754  12.195   0.298  0.0945 -0.1378 -0.3786
  725MOL0     C97779   7.824  12.096   0.206  0.1529  0.1693 -1.1183
  725MOL0     C97780   7.942  12.165   0.151 -0.0227  0.0861  0.0631
  725MOL0     C97781   8.059  12.175   0.256  0.1832  0.1077 -0.3030
  725MOL0     C97782   8.188  12.217   0.195 -0.0737  0.7554  0.1087
  725MOL0     C97783   8.295  12.278   0.290 -0.9522  0.5336 -0.7615
  725MOL0    Cl97784   8.255  12.445   0.332  0.2265  0.3606 -0.0378
  725MOL0     C97785   7.300  12.027   0.436  0.2258 -0.2128  0.1554
  725MOL0     C97786   7.186  11.976   0.380  0.5441  0.2926  0.8273
  725MOL0     O97787   7.029  12.000   0.053 -0.7320  0.2294 -0.5022
  725MOL0     C97788   6.843  11.816  -0.026 -0.2272 -0.4716  0.1119
  725MOL0     C97789   6.751  11.712  -0.043 -0.5336  0.4731 -0.7779
  725MOL0     N97790   6.298  11.148  -0.371 -0.1787 -0.4021  0.9526
  725MOL0     N97791   6.239  11.188  -0.476 -0.5293  0.3260 -0.1039
  725MOL0     C97792   5.689  11.516   0.082 -0.8362  0.5052  0.3705
  725MOL0     C97793   5.749  11.538   0.208 -0.8796  0.2485 -0.0261
  725MOL0     C97794   5.932  11.533   0.622  0.1798  0.0586 -0.1132
  725MOL0     C97795   5.829  11.583   0.708 -0.5341 -0.8923 -0.0342
  725MOL0     C97796   5.851  11.628   0.836  0.3655 -1.2934  0.2564
  725MOL0     C97797   5.975  11.619   0.895  0.2154 -0.1603  0.1818
  725MOL0     O97798   5.980  11.677   1.023 -0.6744  1.0088  0.4239
  725MOL0     C97799   6.099  11.733   1.067 -0.3894  0.1600  0.0701
  725MOL0     C97800   6.097  11.766   1.220  0.8794  0.8095  0.5452
  725MOL0     C97801   6.186  11.881   1.258  0.2464 -0.4394 -0.2614
  725MOL0     C97802   6.330  11.832   1.283 -0.5556 -1.1211  0.1456
  725MOL0     C97803   6.411  11.954   1.310 -0.8146  0.6792 -0.2960
  725MOL0     C97804   6.479  12.041   1.354  1.0930  0.1840 -0.3476
  725MOL0     C97805   6.079  11.561   0.818  0.9774 -0.2258 -1.0185
  725MOL0     C97806   6.058  11.517   0.686 -0.2569 -1.1190  0.3392
  725MOL0     C97807   6.190  11.481   0.617  0.5632  0.0944  0.2908
  725MOL0     H97808   5.638  11.280   0.377 -0.3651  0.6596 -0.3118
  725MOL0     H97809   5.547  11.213   0.163 -0.6896 -0.1966 -1.9403
  725MOL0     H97810   5.718  11.219  -0.075 -0.9635 -1.8287  0.4342
  725MOL0     H97811   5.559  11.164  -0.078  0.1223  0.9960  4.2561
  725MOL0     H97812   5.512  11.297  -0.301 -0.7672 -1.3417  1.0133
  725MOL0     H97813   5.627  11.161  -0.319  0.5953  0.5684  0.5829
  725MOL0     H97814   5.814  11.294  -0.296  0.0584 -0.1848 -2.9364
  725MOL0     H97815   5.721  11.442  -0.251  0.2595  1.9243 -2.0914
  725MOL0     H97816   5.754  11.304  -0.521 -0.3758  1.1468  0.0642
  725MOL0     H97817   5.636  11.424  -0.491  0.3211 -0.5958 -1.4174
  725MOL0     H97818   5.788  11.574  -0.565 -0.4168  2.7438  2.4377
  725MOL0     H97819   5.796  11.580  -0.396 -0.2005  0.3916 -0.0794
  725MOL0     H97820   6.011  11.600  -0.442  0.0107  0.1360  0.2423
  725MOL0     H97821   5.988  11.426  -0.396 -0.0493  1.3363  1.3850
  725MOL0     H97822   6.011  11.509  -0.693  2.1078  0.3538  0.0911
  725MOL0     H97823   5.977  11.354  -0.632 -1.2839  1.4169 -0.6784
  725MOL0     H97824   6.197  11.333  -0.678 -0.1605  1.2101 -1.3267
  725MOL0     H97825   6.238  11.484  -0.614  1.7520 -1.5331 -4.1654
  725MOL0     H97826   6.241  11.457  -0.296 -0.0153 -0.3395  0.8877
  725MOL0     H97827   6.309  11.187  -0.083  1.0849 -1.2358 -0.0883
  725MOL0     H97828   6.471  11.174  -0.162  0.1272 -0.0892 -0.1313
  725MOL0     H97829   6.515  11.395  -0.136  1.5336  0.2138  2.3291
  725MOL0     H97830   6.348  11.442  -0.085 -0.8595  0.0376  2.4519
  725MOL0     H97831   6.545  11.271   0.069  0.7204  0.4291  0.8572
  725MOL0     H97832   6.382  11.314   0.115 -1.4120 -0.0190 -3.0918
  725MOL0     H97833   6.547  11.466   0.222  2.1861  2.9287  0.3812
  725MOL0     H97834   6.417  11.544   0.156  1.0481  0.2017 -0.6964
  725MOL0     H97835   6.564  11.725   0.250 -0.7128 -1.7157 -0.8205
  725MOL0     H97836   6.740  11.908   0.289  4.0126  0.4872 -0.4605
  725MOL0     H97837   7.020  12.242   0.269  1.2594  3.5013  2.1274
  725MOL0     H97838   7.241  12.360   0.350  1.7000  0.6786  0.9472
  725MOL0     H97839   7.499  12.337   0.337 -3.2067  0.0648  2.5758
  725MOL0     H97840   7.608  12.305   0.469  0.2375  0.6409 -0.6137
  725MOL0     H97841   7.637  12.061   0.405  3.3473 -0.4512 -1.1543
  725MOL0     H97842   7.572  12.102   0.240  1.0557 -0.2711  0.1484
  725MOL0     H97843   7.735  12.298   0.266 -0.4704  0.6645  2.3436
  725MOL0     H97844   7.808  12.203   0.392  1.1849 -0.3266 -0.9760
  725MOL0     H97845   7.754  12.058   0.131 -2.1449  0.5229  0.7214
  725MOL0     H97846   7.847  12.004   0.260 -2.0405  1.2400  1.8550
  725MOL0     H97847   7.934  12.268   0.114  0.9675  0.3462  0.5303
  725MOL0     H97848   7.969  12.107   0.063 -2.9746  3.3524 -3.3213
  725MOL0     H97849   8.043  12.261   0.323  3.6404 -1.0245  2.2698
  725MOL0     H97850   8.068  12.087   0.320  1.5756  0.6433  0.2883
  725MOL0     H97851   8.169  12.287   0.113  2.7396  0.5862 -0.8184
  725MOL0     H97852   8.228  12.126   0.150 -3.1289 -0.2643 -0.7602
  725MOL0     H97853   8.309  12.214   0.378 -2.8802  1.1695  0.0804
  725MOL0     H97854   8.394  12.275   0.243  0.5992  3.3506  1.9852
  725MOL0     H97855   7.375  11.964   0.481  0.4778  0.2648  0.4091
  725MOL0     H97856   7.176  11.868   0.382 -1.0491  0.4290  2.0995
  725MOL0     H97857   6.918  11.852  -0.096 -0.3775  2.5354  1.3672
  725MOL0     H97858   6.760  11.660  -0.137 -0.2043 -1.5986  0.3270
  725MOL0     H97859   5.718  11.570  -0.007 -0.3965 -2.0612 -1.1411
  725MOL0     H97860   5.793  11.636   0.226 -2.0867  0.5416  1.5690
  725MOL0     H97861   5.725  11.595   0.678 -0.4426  0.3813  0.1055
  725MOL0     H97862   5.786  11.680   0.905  2.6648  0.5744  1.1564
  725MOL0     H97863   6.114  11.827   1.013  1.6688 -0.0567  0.1960
  725MOL0     H97864   6.182  11.665   1.046  0.1977  1.6093 -2.8359
  725MOL0     H97865   6.126  11.671   1.266 -0.9534 -0.8342 -1.4343
  725MOL0     H97866   5.993  11.784   1.247  1.1572 -0.2477  2.5014
  725MOL0     H97867   6.158  11.915   1.358  0.6530  1.5347 -0.7591
  725MOL0     H97868   6.188  11.966   1.189  1.3540 -0.5835 -0.4236
  725MOL0     H97869   6.342  11.763   1.367  1.1591 -0.6287  0.3463
  725MOL0     H97870   6.362  11.768   1.200 -1.8927  0.3719 -1.6102
  725MOL0     H97871   6.534  12.122   1.398 -0.9927  1.2985  0.3568
  725MOL0     H97872   6.169  11.532   0.870  1.6079 -0.5835 -2.2765
  725MOL0     H97873   6.210  11.554   0.538 -0.8677 -0.8026 -0.9654
  725MOL0     H97874   6.276  11.495   0.682  1.3841  3.2681 -1.2643
  725MOL0     H97875   6.200  11.383   0.570  3.6943 -0.4511  1.8348
  726MOL0     O97876   8.422   9.703   7.536 -0.2971 -0.4413  0.5377
  726MOL0     C97877   8.447   9.825   7.535  0.2779  0.4866 -0.3106
  726MOL0     O97878   8.457   9.902   7.649 -0.2026 -0.7040  0.6451
  726MOL0     C97879   8.434   9.855   7.775 -0.6905 -0.2090  0.8236
  726MOL0     C97880   8.464   9.721   7.821  0.3458  0.3552  0.0357
  726MOL0     C97881   8.434   9.687   7.954  0.1177 -0.1098  0.2633
  726MOL0     C97882   8.365   9.780   8.036 -0.8501  0.8942 -0.2299
  726MOL0     O97883   8.330   9.727   8.159  0.8741  0.3020 -0.1979
  726MOL0     C97884   8.321   9.821   8.273 -1.1870  0.1857 -0.4162
  726MOL0     C97885   8.177   9.846   8.325 -0.3681 -1.0207  0.6919
  726MOL0     C97886   8.165   9.905   8.462  0.1922 -0.4022 -0.4912
  726MOL0     C97887   8.240  10.044   8.475  0.0088 -0.2734  0.1615
  726MOL0     C97888   8.212  10.094   8.615 -1.0660 -1.1039 -0.1314
  726MOL0     C97889   8.328  10.079   8.706 -0.5955  0.3719  0.3235
  726MOL0     C97890   8.305  10.151   8.845  0.1444  0.4391  0.1304
  726MOL0     C97891   8.354  10.292   8.849 -0.4908  0.7717 -0.3166
  726MOL0     N97892   8.428  10.319   8.969 -0.2164 -0.3629 -0.3838
  726MOL0     C97893   8.562  10.315   8.990 -0.0062 -0.5539  0.8146
  726MOL0     C97894   8.587  10.364   9.110 -0.3637  0.1743 -0.1543
  726MOL0     C97895   8.722  10.398   9.183  0.2865  0.4745  0.1667
  726MOL0     C97896   8.691  10.491   9.301  0.6258  0.2528  0.3892
  726MOL0     C97897   8.805  10.547   9.380 -1.2252  0.6460 -0.8033
  726MOL0     C97898   8.939  10.481   9.351 -0.1228 -0.8305  0.0479
  726MOL0     O97899   9.051  10.532   9.429  0.1956 -0.8395  0.4141
  726MOL0     C97900   9.145  10.598   9.349  0.4132  0.5104 -0.3046
  726MOL0     C97901   9.106  10.722   9.293 -1.0516  0.3222  0.3550
  726MOL0     C97902   9.213  10.791   9.237 -1.0387 -0.0943  0.7226
  726MOL0     C97903   9.342  10.752   9.208 -0.3195 -0.9511  0.0519
  726MOL0     C97904   9.435  10.823   9.123  0.4050  0.7912  0.5959
  726MOL0     O97905   9.394  10.949   9.072 -0.2665  0.0160  0.7138
  726MOL0     C97906   9.480  11.042   9.009  0.2940  0.0229 -1.0282
  726MOL0     C97907   9.423  11.145   8.932 -0.5013  0.4976 -0.1439
  726MOL0     C97908   9.505  11.243   8.879 -0.2072  0.4075  0.4323
  726MOL0     C97909   9.647  11.244   8.906 -0.0176 -0.4701  0.5440
  726MOL0     O97910   9.725  11.338   8.849 -0.9746  0.2497 -0.2390
  726MOL0     C97911   9.712  11.363   8.711 -0.3300 -0.5594  0.7318
  726MOL0     C97912   9.843  11.435   8.664 -0.3021 -0.2410  0.1954
  726MOL0     C97913   9.861  11.457   8.508  0.8146 -0.6556  0.3689
  726MOL0     C97914   9.845  11.325   8.426  0.3296 -1.1354 -0.5553
  726MOL0     C97915   9.892  11.350   8.289 -0.4639 -0.5235 -0.2192
  726MOL0     C97916   9.903  11.212   8.220 -0.1537  0.4819 -0.4340
  726MOL0     C97917   9.982  11.219   8.088  0.0306  0.5953  0.4593
  726MOL0     C97918  10.130  11.246   8.106  0.6016  0.1898  0.4961
  726MOL0    Cl97919  10.228  11.224   7.958 -0.0463 -0.2025 -0.0843
  726MOL0     C97920   9.705  11.142   8.987  0.1211  0.7185  0.5884
  726MOL0     C97921   9.621  11.048   9.037 -0.0164  0.9888  0.4184
  726MOL0     O97922   9.538  10.767   9.091 -0.0703 -0.0576 -0.7946
  726MOL0     C97923   9.371  10.630   9.272  0.0961 -1.5123  0.2565
  726MOL0     C97924   9.276  10.560   9.350  0.0756  0.1544 -0.3261
  726MOL0     N97925   8.461  10.392   9.175 -0.7749 -0.9108 -0.0741
  726MOL0     N97926   8.369  10.363   9.087 -0.2412  0.5317 -0.2892
  726MOL0     C97927   8.334   9.913   7.983  0.1267  0.1921  0.2129
  726MOL0     C97928   8.378   9.951   7.853  0.8208  0.1079 -0.3643
  726MOL0     C97929   8.460   9.892   7.407 -1.1428 -0.2279  0.7789
  726MOL0     C97930   8.542  10.003   7.406 -0.0072 -0.6386  1.3876
  726MOL0     C97931   8.567  10.076   7.285  0.0241  0.2385 -0.5894
  726MOL0     C97932   8.501  10.045   7.172 -0.3515  0.1531 -0.1087
  726MOL0     O97933   8.539  10.123   7.066  0.6277 -0.1932 -0.7213
  726MOL0     C97934   8.493  10.098   6.936 -0.3685  0.3048  0.2974
  726MOL0     C97935   8.366  10.170   6.889 -0.5264  0.1702 -0.7245
  726MOL0     C97936   8.245  10.145   6.975 -0.0624 -0.0850 -0.3615
  726MOL0     C97937   8.119  10.216   6.917  0.4609 -0.3848 -0.3708
  726MOL0     C97938   8.078  10.145   6.793 -0.7301  0.4696 -0.6879
  726MOL0     C97939   8.040  10.089   6.692 -1.6063 -0.4822  0.5056
  726MOL0     C97940   8.425   9.925   7.166  0.8464  0.7795  0.3386
  726MOL0     C97941   8.403   9.847   7.282 -0.4159 -0.8508 -0.6756
  726MOL0     C97942   8.294   9.740   7.278 -0.2777 -0.8198  0.3808
  726MOL0     H97943   8.499   9.633   7.768 -1.1913  0.2097 -0.7800
  726MOL0     H97944   8.469   9.593   7.996  1.5890  0.5026  0.4533
  726MOL0     H97945   8.379   9.766   8.348 -2.9500 -0.0745  0.8287
  726MOL0     H97946   8.370   9.917   8.253  0.1907 -0.8218 -2.0222
  726MOL0     H97947   8.124   9.749   8.322 -1.9081 -0.2223  0.9156
  726MOL0     H97948   8.133   9.912   8.249  2.3624  0.2150  0.0656
  726MOL0     H97949   8.203   9.833   8.535 -0.2844 -1.3106 -1.1238
  726MOL0     H97950   8.057   9.911   8.475  0.1081  0.1107 -1.3404
  726MOL0     H97951   8.349  10.041   8.468  0.1683  3.3916 -0.9493
  726MOL0     H97952   8.197  10.110   8.400  0.8567  1.7653  1.3761
  726MOL0     H97953   8.185  10.200   8.617 -1.9295 -1.2361 -2.0213
  726MOL0     H97954   8.124  10.034   8.639 -1.7571 -0.9972 -2.1629
  726MOL0     H97955   8.349   9.973   8.720  0.3619  0.1098 -2.4499
  726MOL0     H97956   8.423  10.105   8.658  0.3655  0.3143  2.0916
  726MOL0     H97957   8.363  10.094   8.919  2.0807  0.0458 -1.6172
  726MOL0     H97958   8.200  10.145   8.877  0.5007 -1.5505  1.1168
  726MOL0     H97959   8.411  10.305   8.756 -2.7002  0.0221 -1.8647
  726MOL0     H97960   8.266  10.357   8.847 -1.0560  0.0123 -0.5646
  726MOL0     H97961   8.632  10.281   8.914 -1.2589 -0.2303 -0.5098
  726MOL0     H97962   8.740  10.293   9.206  4.1036  0.2599 -2.9297
  726MOL0     H97963   8.802  10.438   9.120 -0.5107  1.8637 -0.0107
  726MOL0     H97964   8.633  10.575   9.261 -2.8917 -2.2478 -0.1501
  726MOL0     H97965   8.628  10.441   9.374  0.9005 -1.6028 -0.5982
  726MOL0     H97966   8.777  10.525   9.483  1.3606  0.9054  0.0177
  726MOL0     H97967   8.819  10.655   9.367 -0.3077  0.5155 -1.0005
  726MOL0     H97968   8.949  10.499   9.243 -0.9453 -1.2251 -0.1018
  726MOL0     H97969   8.927  10.374   9.367  1.6898 -0.9049  1.2091
  726MOL0     H97970   9.003  10.757   9.293 -1.7766 -1.6580 -0.3914
  726MOL0     H97971   9.189  10.886   9.191 -0.1205  0.2182  0.8633
  726MOL0     H97972   9.316  11.148   8.916 -0.9844  1.2972  2.6831
  726MOL0     H97973   9.448  11.296   8.803  1.0986  0.7082 -0.3865
  726MOL0     H97974   9.670  11.277   8.658 -0.6956  0.6187 -0.9751
  726MOL0     H97975   9.633  11.437   8.698 -2.1900 -2.3924  1.1066
  726MOL0     H97976   9.837  11.535   8.709  0.2836 -0.4064  0.6431
  726MOL0     H97977   9.924  11.371   8.698 -0.4168  0.6958  2.4146
  726MOL0     H97978   9.792  11.526   8.459  1.4038 -2.1948 -2.9229
  726MOL0     H97979   9.960  11.501   8.495 -0.9010  2.5724 -4.1133
  726MOL0     H97980   9.737  11.307   8.421  0.3302 -0.8695 -2.0170
  726MOL0     H97981   9.894  11.243   8.480 -0.4240 -2.7601 -2.2035
  726MOL0     H97982   9.988  11.402   8.296  1.4544 -3.8249  0.3562
  726MOL0     H97983   9.826  11.421   8.238 -2.0625  1.1095  3.7133
  726MOL0     H97984   9.946  11.146   8.296 -0.8237  0.3393 -0.1664
  726MOL0     H97985   9.811  11.160   8.192  0.1936 -1.5608  1.8651
  726MOL0     H97986   9.933  11.300   8.033 -1.0560 -0.0511  0.4493
  726MOL0     H97987   9.964  11.125   8.036  4.1247  1.0868 -2.3636
  726MOL0     H97988  10.140  11.350   8.135 -1.6008  0.2579  1.1554
  726MOL0     H97989  10.168  11.184   8.188 -1.2381  0.4684  1.6028
  726MOL0     H97990   9.812  11.155   8.989  0.3064  3.7642 -5.4538
  726MOL0     H97991   9.661  10.964   9.092 -1.8483 -0.0373  0.2483
  726MOL0     H97992   9.473  10.594   9.273  0.9277  0.5134  3.5674
  726MOL0     H97993   9.309  10.467   9.395 -1.0872  0.5407  1.4148
  726MOL0     H97994   8.271   9.983   8.037  0.1267  0.6067 -0.3187
  726MOL0     H97995   8.369  10.052   7.816 -0.5171 -0.4323 -1.6416
  726MOL0     H97996   8.588  10.028   7.501  1.6150 -1.4294  0.8559
  726MOL0     H97997   8.639  10.157   7.287  3.1050 -2.2003 -2.8669
  726MOL0     H97998   8.475   9.991   6.925 -2.6466  0.5028  1.5841
  726MOL0     H97999   8.574  10.120   6.866 -2.7773 -0.2926 -2.9002
  726MOL0     H98000   8.343  10.136   6.788  3.8713 -1.1438 -1.4703
  726MOL0     H98001   8.391  10.277   6.887  0.6194 -0.0968 -1.2117
  726MOL0     H98002   8.266  10.196   7.070  3.3362 -0.8005 -0.6173
  726MOL0     H98003   8.230  10.038   6.993  0.7009  0.1084  1.7481
  726MOL0     H98004   8.027  10.222   6.975 -1.6920  1.2565 -3.6572
  726MOL0     H98005   8.147  10.319   6.896  1.0680 -0.3666  0.4749
  726MOL0     H98006   8.003  10.065   6.595 -1.6868  0.0890  0.3892
  726MOL0     H98007   8.373   9.887   7.078 -1.5493 -6.4434  4.0942
  726MOL0     H98008   8.232   9.748   7.369 -0.8061  0.1640 -0.0472
  726MOL0     H98009   8.236   9.739   7.185  0.3895 -1.2361 -0.0353
  726MOL0     H98010   8.348   9.646   7.291  1.6223  0.4011  1.9385
  727MOL0     O98011   8.668   3.147   8.617 -0.0145  0.2056  0.0224
  727MOL0     C98012   8.704   3.191   8.729  0.4459  0.2864  0.4935
  727MOL0     O98013   8.739   3.319   8.750 -0.0746  0.3109 -0.1319
  727MOL0     C98014   8.735   3.400   8.641 -0.8085  0.2443 -0.0325
  727MOL0     C98015   8.630   3.487   8.623 -0.8071  0.1971  0.0517
  727MOL0     C98016   8.618   3.568   8.508  0.6612  0.6677 -0.2153
  727MOL0     C98017   8.717   3.557   8.405  0.1460 -0.5581  0.0240
  727MOL0     O98018   8.724   3.622   8.277 -0.1246 -0.4583 -0.5568
  727MOL0     C98019   8.613   3.713   8.253  0.5602  0.2018 -0.6241
  727MOL0     C98020   8.626   3.795   8.128  1.1132 -0.5278  0.6841
  727MOL0     C98021   8.490   3.859   8.095  0.2846 -0.8094  0.7054
  727MOL0     C98022   8.456   3.988   8.168  0.2837 -0.4030 -0.4649
  727MOL0     C98023   8.367   4.091   8.090  0.0432  0.2468  0.3866
  727MOL0     C98024   8.220   4.042   8.076  1.0725 -0.1334  0.2255
  727MOL0     C98025   8.131   4.159   8.023 -0.3920 -0.1417  0.0454
  727MOL0     C98026   8.000   4.114   7.964  0.4649  0.1963 -0.6366
  727MOL0     N98027   7.927   4.215   7.900  0.5681 -0.1559  0.3776
  727MOL0     C98028   7.872   4.208   7.770 -0.0930  0.3495 -0.5083
  727MOL0     C98029   7.806   4.326   7.750  0.8803  0.2846 -1.5049
  727MOL0     C98030   7.732   4.382   7.631 -0.7422 -0.0855  0.2952
  727MOL0     C98031   7.711   4.268   7.529 -0.3962 -0.2922  0.0489
  727MOL0     C98032   7.624   4.314   7.405 -0.0565  0.5085  0.2528
  727MOL0     C98033   7.700   4.342   7.276  0.4980  0.5630  0.6229
  727MOL0     O98034   7.635   4.449   7.206 -0.5712  0.1227 -0.9139
  727MOL0     C98035   7.629   4.440   7.072  1.2532 -0.0551 -0.1251
  727MOL0     C98036   7.709   4.348   6.998 -0.1571 -0.1803 -0.2966
  727MOL0     C98037   7.697   4.328   6.860  0.4055 -0.1801  0.2497
  727MOL0     C98038   7.611   4.417   6.790 -0.4624 -0.1619  0.3658
  727MOL0     C98039   7.600   4.406   6.642 -0.3944 -0.3454  0.4261
  727MOL0     O98040   7.707   4.329   6.583  0.4697 -0.2069  0.5370
  727MOL0     C98041   7.719   4.315   6.449 -0.4596  0.2552  0.8450
  727MOL0     C98042   7.706   4.184   6.391  0.6061  1.2839 -0.3912
  727MOL0     C98043   7.732   4.157   6.253  0.0198 -0.0769 -0.5431
  727MOL0     C98044   7.777   4.260   6.177 -0.1601  0.5326  0.1355
  727MOL0     O98045   7.806   4.234   6.042 -0.1931  0.0667 -0.4558
  727MOL0     C98046   7.835   4.327   5.940  0.1953  0.1770  0.2279
  727MOL0     C98047   7.762   4.282   5.804  0.3159 -0.1162 -0.9027
  727MOL0     C98048   7.623   4.208   5.830  0.8829 -0.3217  0.8164
  727MOL0     C98049   7.573   4.141   5.700 -0.4740 -0.2305  0.8061
  727MOL0     C98050   7.539   4.236   5.587  0.7234  1.0124 -0.4458
  727MOL0     C98051   7.591   4.188   5.453 -0.5719 -0.0721 -1.2823
  727MOL0     C98052   7.505   4.233   5.342  0.3710 -0.0451 -1.3274
  727MOL0     C98053   7.537   4.162   5.206 -0.0225  0.1735  0.3547
  727MOL0    Cl98054   7.422   4.258   5.096 -0.0497  0.3958 -0.1432
  727MOL0     C98055   7.781   4.393   6.233  0.3707 -0.0733  0.0154
  727MOL0     C98056   7.741   4.418   6.365  0.2720  0.0296  0.1867
  727MOL0     O98057   7.519   4.465   6.572 -0.3012  0.2199  0.5710
  727MOL0     C98058   7.539   4.517   6.862 -0.7736 -0.0935 -0.5273
  727MOL0     C98059   7.532   4.521   7.005 -0.5223  1.3944 -0.2639
  727MOL0     N98060   7.815   4.392   7.873  0.8097  0.1075 -0.2549
  727MOL0     N98061   7.892   4.333   7.958 -0.8748  0.0577 -0.3648
  727MOL0     C98062   8.825   3.479   8.422 -0.0701 -0.3918  0.1980
  727MOL0     C98063   8.834   3.404   8.540 -1.2832 -0.3783 -0.6420
  727MOL0     C98064   8.716   3.095   8.837 -0.5265  0.2654  0.0775
  727MOL0     C98065   8.816   3.126   8.927 -0.2895 -0.8661  0.5296
  727MOL0     C98066   8.845   3.036   9.027 -0.3082  0.1851 -0.4566
  727MOL0     C98067   8.772   2.918   9.046  1.2030  0.4836 -0.3415
  727MOL0     O98068   8.787   2.851   9.163  0.4595  0.1651  0.2850
  727MOL0     C98069   8.912   2.789   9.186 -0.1089 -0.0807 -0.4784
  727MOL0     C98070   8.967   2.818   9.323 -0.3091  0.8402  0.2863
  727MOL0     C98071   9.062   2.936   9.333 -0.0307 -0.4256 -0.1808
  727MOL0     C98072   9.111   2.957   9.481  0.0871  0.0473  0.1907
  727MOL0     C98073   9.175   3.091   9.490  1.8088  0.3382 -0.3205
  727MOL0     C98074   9.229   3.196   9.502  0.6899  0.5910  1.4358
  727MOL0     C98075   8.668   2.890   8.955 -0.7774 -0.8692  0.4407
  727MOL0     C98076   8.647   2.978   8.846  0.0556  0.0849 -0.0606
  727MOL0     C98077   8.515   2.932   8.771 -0.0778 -0.6589 -0.0490
  727MOL0     H98078   8.559   3.491   8.705 -1.8092 -1.2483 -0.7023
  727MOL0     H98079   8.530   3.629   8.490 -0.4903 -0.1844  2.1136
  727MOL0     H98080   8.524   3.651   8.237 -0.7698  1.6369  0.7429
  727MOL0     H98081   8.593   3.778   8.339  1.6983 -1.3439  0.8749
  727MOL0     H98082   8.655   3.732   8.043 -2.0546  0.1851 -1.0907
  727MOL0     H98083   8.702   3.872   8.142  1.2008 -0.6516  0.8898
  727MOL0     H98084   8.414   3.780   8.095  0.2077 -0.7498 -0.4519
  727MOL0     H98085   8.496   3.882   7.989 -0.4350 -0.9240  0.6346
  727MOL0     H98086   8.415   3.973   8.268  0.1268  1.8538 -0.1300
  727MOL0     H98087   8.552   4.039   8.180  1.6397 -2.3987 -2.1128
  727MOL0     H98088   8.362   4.192   8.133 -1.9543  0.1052  0.5756
  727MOL0     H98089   8.408   4.092   7.988 -3.0071 -1.0204 -0.9714
  727MOL0     H98090   8.202   3.953   8.015 -0.3765  0.5648 -0.4193
  727MOL0     H98091   8.183   4.018   8.176 -1.4309 -1.8637 -1.0168
  727MOL0     H98092   8.172   4.225   7.946 -3.0820  0.4686 -0.9701
  727MOL0     H98093   8.118   4.227   8.108  0.3736 -0.8862  0.7813
  727MOL0     H98094   8.008   4.026   7.899  1.3703  0.3513 -0.7476
  727MOL0     H98095   7.923   4.083   8.035  1.6934 -1.1229  0.1739
  727MOL0     H98096   7.874   4.122   7.703 -2.3252 -2.0969  2.2631
  727MOL0     H98097   7.638   4.420   7.673 -1.1828  0.3490 -1.0296
  727MOL0     H98098   7.783   4.462   7.577  0.0729 -0.7076  0.1363
  727MOL0     H98099   7.811   4.242   7.492  0.3821  0.1753  1.7203
  727MOL0     H98100   7.666   4.185   7.584 -0.5100 -0.4061 -0.2151
  727MOL0     H98101   7.556   4.394   7.436 -2.8068 -1.3804 -0.5383
  727MOL0     H98102   7.550   4.237   7.380 -0.1861  1.2195 -1.7494
  727MOL0     H98103   7.707   4.247   7.223 -4.4959 -0.8498  1.9836
  727MOL0     H98104   7.799   4.381   7.303  0.1916  3.2539 -1.7353
  727MOL0     H98105   7.788   4.288   7.043 -1.2542 -1.0689  0.4921
  727MOL0     H98106   7.751   4.254   6.802 -0.0138  0.7710 -1.4099
  727MOL0     H98107   7.669   4.103   6.453  1.8172  0.5783 -0.5712
  727MOL0     H98108   7.740   4.055   6.218  2.2197 -0.6793  1.4870
  727MOL0     H98109   7.798   4.424   5.976 -1.6229 -0.6577  0.7054
  727MOL0     H98110   7.944   4.329   5.927  0.2206 -1.1212  0.1415
  727MOL0     H98111   7.738   4.368   5.741 -3.9049 -0.6499 -0.3431
  727MOL0     H98112   7.825   4.212   5.748  1.3806  0.4039 -0.3954
  727MOL0     H98113   7.642   4.126   5.900  0.8095 -0.8304  0.2520
  727MOL0     H98114   7.542   4.275   5.861  1.1012  0.6139 -0.5526
  727MOL0     H98115   7.482   4.084   5.718 -1.3683  0.8057 -0.2238
  727MOL0     H98116   7.656   4.075   5.672 -0.8085 -0.9819  1.5317
  727MOL0     H98117   7.562   4.342   5.602 -0.9578  1.6509 -1.9941
  727MOL0     H98118   7.431   4.243   5.571  0.5614  1.5407  0.7500
  727MOL0     H98119   7.697   4.211   5.447  0.0224 -2.3783 -0.7608
  727MOL0     H98120   7.586   4.079   5.454 -1.1433 -0.1564  2.3527
  727MOL0     H98121   7.518   4.341   5.352 -1.2655  0.0731  0.0302
  727MOL0     H98122   7.402   4.213   5.372  1.5192 -0.6228  2.8553
  727MOL0     H98123   7.641   4.169   5.171  0.2914  1.1538  1.4257
  727MOL0     H98124   7.499   4.060   5.215 -0.9936  0.6016  1.3905
  727MOL0     H98125   7.819   4.476   6.175 -0.7677  0.8691  0.5850
  727MOL0     H98126   7.753   4.511   6.419 -0.4306 -1.7781  3.7053
  727MOL0     H98127   7.483   4.595   6.812  2.1513  0.2494 -3.6508
  727MOL0     H98128   7.470   4.597   7.052 -0.7478  1.8426 -1.2527
  727MOL0     H98129   8.909   3.494   8.355  0.0342 -2.2582 -0.1425
  727MOL0     H98130   8.914   3.332   8.557 -2.5740 -2.3365 -2.3902
  727MOL0     H98131   8.868   3.221   8.932  0.1635 -1.1598  1.7584
  727MOL0     H98132   8.930   3.066   9.087  1.3181  0.3682 -2.7261
  727MOL0     H98133   8.982   2.816   9.106 -0.6650  0.6496 -0.7263
  727MOL0     H98134   8.892   2.684   9.165 -0.2918  0.2830 -2.3543
  727MOL0     H98135   9.031   2.733   9.349 -3.4435 -1.8599 -0.1881
  727MOL0     H98136   8.885   2.838   9.392 -0.1190  2.7342  0.0037
  727MOL0     H98137   9.023   3.031   9.294  1.2455 -0.1922 -0.9284
  727MOL0     H98138   9.150   2.906   9.276  0.9625 -2.1385  2.0858
  727MOL0     H98139   9.021   2.968   9.543 -0.1579 -0.9306  0.0246
  727MOL0     H98140   9.176   2.879   9.524 -0.5662  0.6775  2.4911
  727MOL0     H98141   9.282   3.289   9.498  0.5275  0.7037  1.8216
  727MOL0     H98142   8.600   2.807   8.973 -0.9357 -1.4859 -2.5031
  727MOL0     H98143   8.542   2.838   8.723  2.0340 -1.1039  1.8595
  727MOL0     H98144   8.431   2.926   8.841 -0.0165  3.2198  0.6235
  727MOL0     H98145   8.477   3.004   8.697 -3.3660 -1.6240  0.5226
  728MOL0     O98146   5.715  10.329   2.945  0.3497 -0.6003 -0.3806
  728MOL0     C98147   5.832  10.357   2.966 -0.5082 -0.6761  0.9095
  728MOL0     O98148   5.882  10.406   3.087  0.1074 -0.0253 -0.5723
  728MOL0     C98149   5.789  10.428   3.179 -0.3997 -0.3747 -0.3188
  728MOL0     C98150   5.750  10.557   3.214  0.5191  0.9819 -0.8163
  728MOL0     C98151   5.651  10.591   3.302  0.0060  0.5666  0.2342
  728MOL0     C98152   5.585  10.493   3.365 -0.3784 -0.2094  0.3079
  728MOL0     O98153   5.470  10.528   3.435 -0.2089  0.0454  0.1123
  728MOL0     C98154   5.372  10.427   3.453 -0.3987 -0.8757 -0.4807
  728MOL0     C98155   5.258  10.496   3.527 -0.2741 -0.2100  0.3066
  728MOL0     C98156   5.184  10.386   3.593  0.3084  0.4705 -0.3134
  728MOL0     C98157   5.081  10.445   3.693  0.2620 -0.3195 -1.1076
  728MOL0     C98158   4.981  10.351   3.757  0.2241  0.0804 -0.9088
  728MOL0     C98159   4.885  10.409   3.855  0.4506 -0.1183  0.1550
  728MOL0     C98160   4.947  10.463   3.988  0.2675 -0.1051 -0.3934
  728MOL0     C98161   4.857  10.542   4.090  0.1020  0.3703 -0.5291
  728MOL0     N98162   4.927  10.598   4.203 -0.2228 -0.0005 -0.3404
  728MOL0     C98163   5.008  10.545   4.296 -0.9774  0.7176 -0.1872
  728MOL0     C98164   5.041  10.646   4.376  0.8617  0.3945 -0.2620
  728MOL0     C98165   5.135  10.630   4.489  0.2701 -0.7089 -0.2720
  728MOL0     C98166   5.277  10.630   4.444 -0.1137  0.6413  0.1071
  728MOL0     C98167   5.373  10.572   4.550 -0.1568  0.1416  0.8167
  728MOL0     C98168   5.348  10.428   4.582  0.0330 -0.9179 -0.2808
  728MOL0     O98169   5.449  10.375   4.661 -0.5044 -0.3735  0.3922
  728MOL0     C98170   5.462  10.245   4.654 -0.1408 -1.2137 -0.2936
  728MOL0     C98171   5.392  10.147   4.585 -0.0589 -0.4345 -0.4797
  728MOL0     C98172   5.429  10.019   4.578  0.4533  0.7266  0.6826
  728MOL0     C98173   5.537   9.968   4.636 -1.2741 -0.2047  0.0853
  728MOL0     C98174   5.586   9.831   4.616  0.5903  0.3835  0.6928
  728MOL0     O98175   5.514   9.765   4.529  0.9013 -0.2016  0.5647
  728MOL0     C98176   5.569   9.655   4.478 -0.5036  0.1082 -0.1344
  728MOL0     C98177   5.653   9.669   4.362 -0.0412 -0.8611 -0.2339
  728MOL0     C98178   5.711   9.555   4.308 -0.4577  0.8217 -0.1774
  728MOL0     C98179   5.706   9.425   4.363 -0.4923  0.6778 -0.1884
  728MOL0     O98180   5.769   9.319   4.300 -0.3589 -0.7152 -0.0794
  728MOL0     C98181   5.768   9.194   4.353 -0.9075 -1.0821 -0.4452
  728MOL0     C98182   5.805   9.096   4.250 -0.6209 -0.9230 -0.1912
  728MOL0     C98183   5.835   8.951   4.303  0.0521  1.0654  0.1966
  728MOL0     C98184   5.983   8.944   4.352  0.3271  0.0939  0.9037
  728MOL0     C98185   6.021   8.813   4.418 -0.3641  0.7391 -0.1904
  728MOL0     C98186   5.929   8.766   4.543  0.4839 -1.0186  0.0612
  728MOL0     C98187   5.889   8.865   4.653  0.8967 -0.0367  0.7476
  728MOL0     C98188   6.002   8.935   4.723 -0.3801  1.1220 -0.3684
  728MOL0    Cl98189   5.935   9.044   4.838 -0.4109 -0.2484  0.0404
  728MOL0     C98190   5.633   9.412   4.481  0.1362  0.1698 -0.6520
  728MOL0     C98191   5.565   9.526   4.534 -0.2343  0.0413 -0.4445
  728MOL0     O98192   5.682   9.788   4.683 -0.2607 -0.3667  0.7008
  728MOL0     C98193   5.607  10.055   4.723 -0.1915 -0.1520  0.9956
  728MOL0     C98194   5.571  10.193   4.724 -0.1642 -0.8849 -0.1445
  728MOL0     N98195   4.989  10.761   4.324 -0.6823 -0.9380 -0.0166
  728MOL0     N98196   4.912  10.734   4.221 -0.4084  0.6841 -0.5639
  728MOL0     C98197   5.617  10.360   3.333  0.9849  0.7893 -0.0822
  728MOL0     C98198   5.715  10.325   3.232  0.0570  0.2391 -0.1650
  728MOL0     C98199   5.936  10.343   2.855 -1.1311  0.9313 -0.2947
  728MOL0     C98200   6.060  10.415   2.869  0.0587  0.1371  1.1776
  728MOL0     C98201   6.163  10.403   2.766 -0.2781  0.1725  0.8025
  728MOL0     C98202   6.133  10.332   2.645 -0.2116  0.9125  0.2366
  728MOL0     O98203   6.214  10.305   2.541  0.4218  0.5981  0.3734
  728MOL0     C98204   6.320  10.404   2.516  0.2915  0.9304  1.0707
  728MOL0     C98205   6.264  10.523   2.432  0.0365  0.0331 -0.0962
  728MOL0     C98206   6.342  10.583   2.313  0.2702  0.5292 -0.1973
  728MOL0     C98207   6.478  10.619   2.357 -0.8304 -0.9132  0.2342
  728MOL0     C98208   6.541  10.681   2.243  0.7065  0.2205  1.2533
  728MOL0     C98209   6.592  10.719   2.148 -0.6222  0.2473  1.4194
  728MOL0     C98210   6.011  10.271   2.638  0.2326  0.0931  0.2398
  728MOL0     C98211   5.917  10.257   2.741 -0.4900  0.1212 -0.0752
  728MOL0     C98212   5.792  10.164   2.718  0.9043 -0.2165  0.1659
  728MOL0     H98213   5.805  10.642   3.174 -1.0436  1.2549 -2.5240
  728MOL0     H98214   5.631  10.695   3.324 -1.0887  0.3057  0.5732
  728MOL0     H98215   5.326  10.392   3.360 -6.3162 -0.9136  1.9571
  728MOL0     H98216   5.430  10.348   3.501 -0.1626 -0.3768  0.0674
  728MOL0     H98217   5.203  10.553   3.451 -0.4209 -0.0393  0.5397
  728MOL0     H98218   5.303  10.565   3.599 -0.6446 -2.5875  2.9777
  728MOL0     H98219   5.249  10.321   3.652  1.9793  2.4008  0.0914
  728MOL0     H98220   5.138  10.318   3.521 -1.3521  2.4595 -1.2241
  728MOL0     H98221   5.145  10.484   3.773  2.0073 -1.2168 -2.0190
  728MOL0     H98222   5.020  10.528   3.657 -3.7170 -2.7292 -0.5542
  728MOL0     H98223   4.932  10.306   3.670  2.4232 -1.5294 -1.4249
  728MOL0     H98224   5.030  10.270   3.812 -0.0946  0.5858  0.1332
  728MOL0     H98225   4.825  10.481   3.799  0.2871 -0.4227 -0.0700
  728MOL0     H98226   4.813  10.329   3.876  0.1119 -0.6409 -2.6154
  728MOL0     H98227   5.010  10.544   3.950  1.6113 -1.6135 -1.5237
  728MOL0     H98228   5.009  10.385   4.032 -0.4398  0.5522  1.9293
  728MOL0     H98229   4.800  10.620   4.038 -0.9743  0.3720  0.6183
  728MOL0     H98230   4.785  10.469   4.129  0.2879  2.2962  4.0468
  728MOL0     H98231   5.017  10.438   4.308  2.7899  1.0528  1.2715
  728MOL0     H98232   5.124  10.715   4.557  2.8436 -1.4314  1.1749
  728MOL0     H98233   5.090  10.542   4.536 -0.9036 -1.3880 -2.5057
  728MOL0     H98234   5.283  10.583   4.345  0.6437 -0.2526  0.5609
  728MOL0     H98235   5.307  10.733   4.424  1.6769  0.0319 -0.5163
  728MOL0     H98236   5.362  10.632   4.641 -1.3462  4.6607 -2.0095
  728MOL0     H98237   5.475  10.574   4.511 -1.7448  0.9434 -3.8418
  728MOL0     H98238   5.336  10.373   4.489  1.1341  0.4801 -1.2915
  728MOL0     H98239   5.257  10.430   4.643  1.7987  2.4078  2.6309
  728MOL0     H98240   5.303  10.178   4.532  0.9498  2.2346 -0.7446
  728MOL0     H98241   5.353   9.956   4.532 -0.8318  2.1053  0.8722
  728MOL0     H98242   5.648   9.757   4.299  0.8565 -0.9835 -0.4899
  728MOL0     H98243   5.775   9.569   4.221  0.8531 -1.4525  0.3397
  728MOL0     H98244   5.842   9.188   4.434  0.7297 -0.9802 -1.8909
  728MOL0     H98245   5.670   9.163   4.392 -1.2109 -0.2860 -0.5617
  728MOL0     H98246   5.725   9.092   4.176 -0.7811 -2.5462  0.0295
  728MOL0     H98247   5.896   9.135   4.203 -2.0833 -1.1068 -3.4280
  728MOL0     H98248   5.764   8.912   4.377  0.9115  0.5277  0.7491
  728MOL0     H98249   5.823   8.883   4.218 -0.7565 -1.5066  2.2210
  728MOL0     H98250   5.990   9.021   4.429 -0.6194 -0.8149  1.9410
  728MOL0     H98251   6.051   8.948   4.267 -1.4387 -0.7871 -0.6167
  728MOL0     H98252   6.127   8.822   4.444 -1.0148  0.3053  3.1391
  728MOL0     H98253   6.015   8.731   4.346 -0.2910  0.8305 -0.2987
  728MOL0     H98254   5.841   8.713   4.506  0.1570 -2.3162  2.4988
  728MOL0     H98255   5.984   8.697   4.608 -2.2404 -2.4774  0.9482
  728MOL0     H98256   5.835   8.805   4.727 -3.7560  4.2271  1.3419
  728MOL0     H98257   5.823   8.944   4.614  1.0560 -1.0379 -1.7241
  728MOL0     H98258   6.068   8.871   4.782  0.7332  1.5473 -1.1262
  728MOL0     H98259   6.060   8.984   4.644  1.8559 -2.6835 -1.3414
  728MOL0     H98260   5.620   9.323   4.541  1.1477  0.0555 -0.5804
  728MOL0     H98261   5.512   9.499   4.625  0.1450  1.2880  0.1625
  728MOL0     H98262   5.703  10.027   4.765  0.1566  2.1727  1.9142
  728MOL0     H98263   5.637  10.259   4.779 -0.4562  0.4906 -1.3978
  728MOL0     H98264   5.572  10.270   3.371  2.1623  0.9328  1.7466
  728MOL0     H98265   5.753  10.228   3.200 -1.1958  0.2786 -1.9472
  728MOL0     H98266   6.074  10.457   2.968 -0.7295 -0.6231  1.6348
  728MOL0     H98267   6.259  10.453   2.775 -2.2375  5.0603 -1.8202
  728MOL0     H98268   6.389  10.352   2.448 -0.4160 -0.7172  1.5595
  728MOL0     H98269   6.370  10.433   2.610  0.7683  0.4158  0.9827
  728MOL0     H98270   6.249  10.596   2.512  1.9602 -1.8986  2.1678
  728MOL0     H98271   6.168  10.498   2.385  0.7731  1.7718 -2.7758
  728MOL0     H98272   6.274  10.656   2.270 -0.9570 -0.1360  0.5617
  728MOL0     H98273   6.340  10.509   2.232 -1.3008  0.3624 -0.0293
  728MOL0     H98274   6.479  10.699   2.432  2.8935  1.7112 -2.2895
  728MOL0     H98275   6.535  10.534   2.395 -2.2947 -2.5457 -1.0571
  728MOL0     H98276   6.660  10.754   2.073  0.0637 -1.1649  1.3509
  728MOL0     H98277   5.999  10.217   2.545 -1.8350 -0.3536  0.7094
  728MOL0     H98278   5.700  10.220   2.705  0.3381 -1.1350  0.1044
  728MOL0     H98279   5.794  10.105   2.626  1.7658  1.9496 -1.2896
  728MOL0     H98280   5.790  10.100   2.807 -2.1528 -0.7031 -0.1453
  729MOL0     O98281   7.255   0.059   4.851 -0.0996 -0.0131  0.0069
  729MOL0     C98282   7.258   0.082   4.968  0.2113 -0.1125 -1.1164
  729MOL0     O98283   7.249  -0.011   5.072  0.0598  0.1379 -0.2110
  729MOL0     C98284   7.218  -0.144   5.044  1.0014 -0.7888 -0.1609
  729MOL0     C98285   7.159  -0.213   5.155  0.2007 -0.0944 -0.4631
  729MOL0     C98286   7.137  -0.353   5.141  0.8496  0.3345  0.2119
  729MOL0     C98287   7.160  -0.425   5.016  0.0020 -0.1623 -0.1661
  729MOL0     O98288   7.134  -0.559   4.991 -0.0384  0.6572  0.0612
  729MOL0     C98289   7.241  -0.652   5.040  0.0926  0.9348 -0.5853
  729MOL0     C98290   7.201  -0.799   5.024 -0.0012 -0.6398 -0.3990
  729MOL0     C98291   7.316  -0.889   5.015 -0.3964  0.9523 -0.1174
  729MOL0     C98292   7.404  -0.884   4.890  1.0524  0.4529  0.5086
  729MOL0     C98293   7.329  -0.887   4.745 -0.3143  0.0628 -0.1512
  729MOL0     C98294   7.418  -0.964   4.643 -0.9766  0.0373 -0.3610
  729MOL0     C98295   7.356  -0.961   4.505 -0.0604 -0.0854 -0.1678
  729MOL0     C98296   7.237  -1.057   4.490  0.2480 -0.1080  0.6591
  729MOL0     N98297   7.283  -1.190   4.439 -0.0991 -0.2850  0.5969
  729MOL0     C98298   7.264  -1.240   4.317  0.3913 -0.7784 -0.2528
  729MOL0     C98299   7.348  -1.348   4.308  0.3152  0.3743 -0.3095
  729MOL0     C98300   7.318  -1.462   4.216  0.4953  0.1003  0.5501
  729MOL0     C98301   7.255  -1.578   4.283 -0.8114 -0.2912 -0.7588
  729MOL0     C98302   7.241  -1.703   4.195  0.6080  0.1149  0.1735
  729MOL0     C98303   7.152  -1.817   4.254  0.1204 -0.3797 -0.0907
  729MOL0     O98304   7.007  -1.801   4.231  0.2090 -0.7056  0.1846
  729MOL0     C98305   6.919  -1.910   4.255  0.5165  0.2012  0.6528
  729MOL0     C98306   6.779  -1.889   4.246 -0.0422 -0.5105  0.8402
  729MOL0     C98307   6.677  -1.981   4.294  0.0538 -0.1576 -0.1485
  729MOL0     C98308   6.721  -2.114   4.336  0.2184 -0.3992 -0.5776
  729MOL0     C98309   6.613  -2.220   4.376  0.3357 -1.2607 -0.2074
  729MOL0     O98310   6.656  -2.350   4.377  0.1361 -0.2626 -0.1760
  729MOL0     C98311   6.580  -2.454   4.429 -0.3617 -0.2654 -0.5653
  729MOL0     C98312   6.616  -2.586   4.400 -0.5508  0.6967  0.1653
  729MOL0     C98313   6.549  -2.701   4.444  1.3951  0.4838  0.0262
  729MOL0     C98314   6.430  -2.696   4.518  0.9436 -0.5670  0.6591
  729MOL0     O98315   6.385  -2.815   4.562  0.5867  0.8221  0.5333
  729MOL0     C98316   6.311  -2.841   4.679 -0.0118 -0.2679 -0.1357
  729MOL0     C98317   6.407  -2.806   4.794  0.5981 -0.4418 -1.0150
  729MOL0     C98318   6.361  -2.879   4.915 -0.3035  0.1970 -0.4080
  729MOL0     C98319   6.209  -2.864   4.948 -0.7852  0.4523  0.3806
  729MOL0     C98320   6.182  -2.946   5.071 -1.2945  0.0218  0.1019
  729MOL0     C98321   6.032  -2.948   5.097  0.1250 -0.4321  0.4347
  729MOL0     C98322   5.990  -3.043   5.205  0.8667 -0.5597  0.2394
  729MOL0     C98323   6.047  -3.028   5.343  0.6488 -0.3268 -1.1121
  729MOL0    Cl98324   6.018  -2.862   5.399 -0.0936  0.3957  0.2783
  729MOL0     C98325   6.381  -2.565   4.546 -0.0930  0.3396  0.1084
  729MOL0     C98326   6.462  -2.450   4.505 -0.1284 -1.1136 -0.2206
  729MOL0     O98327   6.497  -2.187   4.404 -0.4583  0.3366 -0.3062
  729MOL0     C98328   6.861  -2.135   4.347  0.3020  0.1742 -0.3610
  729MOL0     C98329   6.955  -2.041   4.310 -0.2927  0.0812  0.1961
  729MOL0     N98330   7.429  -1.355   4.423  0.2701 -0.1197  0.8488
  729MOL0     N98331   7.375  -1.263   4.505 -0.3394  0.5270  0.1894
  729MOL0     C98332   7.205  -0.349   4.906  0.0389 -0.6555 -1.0669
  729MOL0     C98333   7.228  -0.216   4.920  0.7732 -0.1937  0.0144
  729MOL0     C98334   7.310   0.208   5.014 -0.0173  0.3646 -1.0730
  729MOL0     C98335   7.245   0.274   5.130  0.3297  1.1606  0.4926
  729MOL0     C98336   7.292   0.392   5.176  0.1829 -0.6149  0.1914
  729MOL0     C98337   7.405   0.453   5.118  0.9156 -0.4879  1.1635
  729MOL0     O98338   7.457   0.574   5.155 -0.0450 -0.6544 -0.5491
  729MOL0     C98339   7.359   0.664   5.223 -0.4761 -0.3798  0.4931
  729MOL0     C98340   7.397   0.660   5.370 -0.1229 -0.6198  0.7882
  729MOL0     C98341   7.547   0.658   5.410 -0.2101  0.4422  0.4775
  729MOL0     C98342   7.578   0.711   5.550  0.4669  0.9227  0.6782
  729MOL0     C98343   7.521   0.631   5.654  0.5072 -0.3450  0.1323
  729MOL0     C98344   7.453   0.566   5.740  0.0642 -0.7652  0.3263
  729MOL0     C98345   7.465   0.401   5.003  0.0061 -0.6849 -0.9330
  729MOL0     C98346   7.414   0.283   4.951 -0.7212  1.1785  0.1284
  729MOL0     C98347   7.479   0.260   4.822  0.1883  0.5191 -0.2859
  729MOL0     H98348   7.140  -0.173   5.254 -0.1313  2.2861 -1.4224
  729MOL0     H98349   7.104  -0.401   5.232  2.2383  2.1573  1.7575
  729MOL0     H98350   7.336  -0.630   4.991  1.3416  0.2445  1.4223
  729MOL0     H98351   7.256  -0.623   5.145 -0.5306 -0.2905 -0.1362
  729MOL0     H98352   7.128  -0.808   4.942 -1.4472  1.1018  0.6216
  729MOL0     H98353   7.143  -0.816   5.115  1.1238  3.7496  1.3882
  729MOL0     H98354   7.275  -0.991   5.015  2.3250 -0.2320 -0.1881
  729MOL0     H98355   7.383  -0.875   5.100 -1.7558  0.9503  0.9892
  729MOL0     H98356   7.458  -0.789   4.892 -0.3602  1.4235 -2.2247
  729MOL0     H98357   7.476  -0.967   4.894  0.0320 -0.4084  1.8627
  729MOL0     H98358   7.231  -0.936   4.751 -0.2574 -0.3244 -1.8009
  729MOL0     H98359   7.316  -0.784   4.710  1.3258  1.1097  2.0481
  729MOL0     H98360   7.515  -0.913   4.634 -0.5294 -0.9367 -1.2941
  729MOL0     H98361   7.434  -1.067   4.676  3.7739  1.1227  1.5410
  729MOL0     H98362   7.435  -0.979   4.431  0.3306  0.7671  0.0301
  729MOL0     H98363   7.319  -0.859   4.491  0.7883  0.1926 -0.4721
  729MOL0     H98364   7.194  -1.078   4.588  0.3187  2.2081  1.2469
  729MOL0     H98365   7.159  -1.016   4.426  0.5050  0.3447  0.6346
  729MOL0     H98366   7.191  -1.214   4.241  1.3859 -1.7362 -1.5693
  729MOL0     H98367   7.242  -1.425   4.147  1.5004 -0.1605 -0.7329
  729MOL0     H98368   7.413  -1.483   4.165  0.0124 -0.5667 -0.1051
  729MOL0     H98369   7.329  -1.605   4.359  1.9918  0.9292 -2.8834
  729MOL0     H98370   7.157  -1.539   4.313 -0.4208  1.1849 -1.3471
  729MOL0     H98371   7.346  -1.731   4.198  0.6518  0.1824 -0.7272
  729MOL0     H98372   7.208  -1.687   4.092 -0.5169 -1.5702  0.2354
  729MOL0     H98373   7.167  -1.828   4.362 -0.1973 -1.6164 -0.1457
  729MOL0     H98374   7.187  -1.914   4.216 -0.5862 -0.7082  0.0612
  729MOL0     H98375   6.740  -1.803   4.193  2.5108 -1.8674 -3.8374
  729MOL0     H98376   6.573  -1.948   4.300  0.3105  0.5086  1.1061
  729MOL0     H98377   6.692  -2.601   4.324 -1.6410 -0.6445 -0.7144
  729MOL0     H98378   6.583  -2.801   4.417  0.0125  0.4380 -1.7164
  729MOL0     H98379   6.219  -2.783   4.688 -0.2130 -0.3083 -1.7168
  729MOL0     H98380   6.297  -2.950   4.679  1.0767 -0.4535  1.6436
  729MOL0     H98381   6.514  -2.824   4.782  1.9338  0.2331  5.8258
  729MOL0     H98382   6.402  -2.700   4.820  2.5133 -0.0417 -2.0639
  729MOL0     H98383   6.406  -2.977   4.896  1.7989  1.0223  0.0745
  729MOL0     H98384   6.415  -2.853   5.007 -1.3471 -1.0520  0.6075
  729MOL0     H98385   6.136  -2.894   4.872  1.1997 -0.4398 -1.2614
  729MOL0     H98386   6.182  -2.758   4.960 -1.0546  0.4169  0.1036
  729MOL0     H98387   6.247  -2.914   5.152  1.2460 -1.1709 -1.3557
  729MOL0     H98388   6.213  -3.048   5.048  1.3441  1.3190 -2.8588
  729MOL0     H98389   6.001  -2.846   5.123 -2.5968 -1.2594  0.7921
  729MOL0     H98390   5.977  -2.970   5.005  3.0964 -0.0326 -1.5657
  729MOL0     H98391   5.999  -3.144   5.164  0.2835 -0.5616  0.1113
  729MOL0     H98392   5.881  -3.033   5.210  0.4483 -3.5521 -0.7912
  729MOL0     H98393   5.995  -3.090   5.417  0.9074 -0.8301 -1.3426
  729MOL0     H98394   6.155  -3.048   5.347  1.0670  1.8472 -0.2886
  729MOL0     H98395   6.280  -2.554   4.584  0.4439  0.9993  1.4080
  729MOL0     H98396   6.407  -2.359   4.529  2.1811 -0.2472  2.2144
  729MOL0     H98397   6.904  -2.224   4.392  0.3844  1.3109  1.9459
  729MOL0     H98398   7.060  -2.066   4.317  0.0370  0.9001 -1.4990
  729MOL0     H98399   7.211  -0.399   4.810 -0.2543 -0.3377 -1.2531
  729MOL0     H98400   7.267  -0.173   4.829 -2.5893  1.1771 -0.9470
  729MOL0     H98401   7.157   0.236   5.180  2.3872 -3.6419  0.9900
  729MOL0     H98402   7.255   0.420   5.274  0.9465  0.3517  0.2177
  729MOL0     H98403   7.253   0.655   5.195 -0.2412  0.5814 -0.7897
  729MOL0     H98404   7.385   0.765   5.191  1.5486 -1.1229 -0.3542
  729MOL0     H98405   7.337   0.579   5.412 -5.1637 -0.1858 -4.3174
  729MOL0     H98406   7.363   0.753   5.416  4.4612  1.4319  0.6367
  729MOL0     H98407   7.605   0.717   5.339 -0.5399  0.5023  0.2538
  729MOL0     H98408   7.591   0.559   5.418  3.3984  2.0066  2.3553
  729MOL0     H98409   7.687   0.713   5.557  0.5691 -2.4518  2.4781
  729MOL0     H98410   7.535   0.811   5.556 -1.0785  0.4174 -0.9616
  729MOL0     H98411   7.388   0.497   5.790 -0.0026 -3.0734 -2.6437
  729MOL0     H98412   7.543   0.458   4.955  2.0020 -2.1782  0.3649
  729MOL0     H98413   7.583   0.292   4.830 -0.2970  2.1359 -0.0757
  729MOL0     H98414   7.477   0.152   4.806 -2.2117  0.4493  0.0381
  729MOL0     H98415   7.420   0.306   4.742 -1.3384  1.4050  1.2847
  730MOL0     O98416   4.342   9.102   9.854  0.4578 -0.6347  0.1286
  730MOL0     C98417   4.397   9.210   9.884 -0.2920  0.1829  1.0205
  730MOL0     O98418   4.351   9.305   9.962 -0.5384 -0.3013  0.0791
  730MOL0     C98419   4.235   9.270  10.023  0.8686 -0.0959  0.6463
  730MOL0     C98420   4.231   9.208  10.148  1.4454 -0.1387 -1.0846
  730MOL0     C98421   4.103   9.190  10.212 -0.5670  0.4496  0.1257
  730MOL0     C98422   3.979   9.226  10.146 -0.5923 -0.0120 -0.4715
  730MOL0     O98423   3.861   9.222  10.211 -0.4122  0.7263  0.1091
  730MOL0     C98424   3.760   9.325  10.183  0.5402 -0.3183  0.0308
  730MOL0     C98425   3.634   9.299  10.271  0.3407 -0.9028 -0.2508
  730MOL0     C98426   3.519   9.261  10.180 -0.5741 -0.2119 -0.1875
  730MOL0     C98427   3.466   9.375  10.088  0.3795  0.5281  0.7612
  730MOL0     C98428   3.321   9.366  10.045  0.4573 -0.4322  0.2202
  730MOL0     C98429   3.303   9.240   9.949 -0.0265  0.9774  0.7518
  730MOL0     C98430   3.177   9.255   9.871  0.4327  0.8795 -0.0565
  730MOL0     C98431   3.061   9.203   9.955  0.5970  0.8991  0.0819
  730MOL0     N98432   2.966   9.116   9.885  0.8919 -0.0618  0.0901
  730MOL0     C98433   2.826   9.125   9.880 -0.0665  0.9376 -0.8768
  730MOL0     C98434   2.790   9.005   9.828  0.7017 -0.3701 -0.0849
  730MOL0     C98435   2.645   8.985   9.791  0.8382  0.2583 -0.3291
  730MOL0     C98436   2.599   8.836   9.761 -0.4170  0.2472 -0.2765
  730MOL0     C98437   2.669   8.768   9.645 -0.5671  0.6857  0.1565
  730MOL0     C98438   2.592   8.641   9.609  0.6323  0.4336 -0.0181
  730MOL0     O98439   2.685   8.562   9.525 -0.2650 -0.0363 -0.3669
  730MOL0     C98440   2.646   8.441   9.477  0.0133  0.0528  0.1039
  730MOL0     C98441   2.723   8.382   9.381  0.4258  0.6037  0.6667
  730MOL0     C98442   2.684   8.267   9.321 -0.5598 -0.4899  1.2083
  730MOL0     C98443   2.555   8.204   9.346 -0.9919  0.2491 -0.6267
  730MOL0     C98444   2.521   8.083   9.275 -1.1892 -0.0732  1.0383
  730MOL0     O98445   2.621   8.024   9.213 -0.1292 -0.1793 -0.2023
  730MOL0     C98446   2.631   7.901   9.159  0.5466 -0.1186  0.6429
  730MOL0     C98447   2.520   7.818   9.120 -0.0229 -0.1462 -0.3330
  730MOL0     C98448   2.538   7.694   9.064 -0.1527  1.3112 -0.2149
  730MOL0     C98449   2.662   7.645   9.030  0.2708 -0.2672 -0.0272
  730MOL0     O98450   2.673   7.525   8.960 -0.4203 -0.0969 -0.0825
  730MOL0     C98451   2.781   7.503   8.878  0.0805 -0.0868  0.4861
  730MOL0     C98452   2.747   7.372   8.803  0.3573 -0.0108  0.2200
  730MOL0     C98453   2.826   7.367   8.671 -0.2904 -0.2376  0.1784
  730MOL0     C98454   2.973   7.391   8.677  0.2660  0.1015  0.5564
  730MOL0     C98455   3.032   7.334   8.550  0.5100  0.1852 -0.1940
  730MOL0     C98456   3.183   7.363   8.520  0.6831 -0.3514  1.5978
  730MOL0     C98457   3.218   7.291   8.384 -0.6087  0.5406 -0.1691
  730MOL0     C98458   3.173   7.361   8.259 -0.1584  0.2332  0.2459
  730MOL0    Cl98459   3.257   7.312   8.113  0.1656  0.1178 -0.3046
  730MOL0     C98460   2.773   7.729   9.054  0.3398  1.1412 -1.1727
  730MOL0     C98461   2.756   7.854   9.115 -0.1573 -0.3519 -0.2826
  730MOL0     O98462   2.411   8.044   9.283  0.1873 -0.0038 -0.4747
  730MOL0     C98463   2.463   8.271   9.428 -0.9487  0.3464  0.3420
  730MOL0     C98464   2.511   8.386   9.497  0.2951  0.6424 -0.5530
  730MOL0     N98465   2.893   8.924   9.810 -0.2204 -0.3168  0.0912
  730MOL0     N98466   3.001   8.987   9.848  0.9331  0.7994 -1.0368
  730MOL0     C98467   3.995   9.293  10.019  0.0100 -0.8064 -0.0441
  730MOL0     C98468   4.119   9.306   9.958 -0.3839  0.1172 -0.8261
  730MOL0     C98469   4.529   9.255   9.822 -0.3306 -0.3702 -0.0627
  730MOL0     C98470   4.546   9.393   9.798 -0.0828 -0.6564 -0.5732
  730MOL0     C98471   4.664   9.437   9.742  0.4071 -1.1730  0.0276
  730MOL0     C98472   4.766   9.344   9.697  0.1828  0.3996  0.1969
  730MOL0     O98473   4.865   9.390   9.602  0.7710  0.2215 -0.1395
  730MOL0     C98474   4.817   9.500   9.534 -0.2527 -0.0669 -0.0405
  730MOL0     C98475   4.901   9.514   9.404 -0.8312  0.3117  0.1211
  730MOL0     C98476   5.047   9.558   9.428  0.8020  0.3579 -0.1434
  730MOL0     C98477   5.145   9.443   9.433 -0.6533  0.8489  0.2745
  730MOL0     C98478   5.148   9.355   9.312 -0.3188  0.5292  0.4881
  730MOL0     C98479   5.161   9.287   9.209  0.2535  0.7603 -0.7633
  730MOL0     C98480   4.754   9.212   9.718  0.1677  0.4593  0.3457
  730MOL0     C98481   4.637   9.169   9.778  0.0975 -0.1804 -0.6383
  730MOL0     C98482   4.615   9.022   9.783  0.6013  0.2809 -0.0438
  730MOL0     H98483   4.322   9.190  10.204  1.1103 -0.5966 -0.6770
  730MOL0     H98484   4.099   9.157  10.315  0.5876  0.8657  0.3194
  730MOL0     H98485   3.805   9.422  10.208 -1.6221  1.3698 -2.1676
  730MOL0     H98486   3.740   9.338  10.076  3.0372 -0.6149 -0.5550
  730MOL0     H98487   3.619   9.390  10.330  1.7237 -0.7307 -0.1226
  730MOL0     H98488   3.647   9.214  10.339  0.4490 -0.0995  0.7544
  730MOL0     H98489   3.429   9.227  10.232 -1.5364 -1.2753 -2.3992
  730MOL0     H98490   3.542   9.172  10.122 -1.5570  1.0474 -2.6794
  730MOL0     H98491   3.469   9.472  10.139 -5.0746  1.1017  0.6053
  730MOL0     H98492   3.531   9.370  10.000  1.9135 -1.4472  1.9256
  730MOL0     H98493   3.252   9.355  10.130 -1.6872 -0.2637 -1.4022
  730MOL0     H98494   3.291   9.457   9.992 -1.0209 -0.7301  0.4952
  730MOL0     H98495   3.376   9.264   9.872  0.1148  1.1428  0.9343
  730MOL0     H98496   3.318   9.144   9.998 -1.7962 -0.0401 -0.5916
  730MOL0     H98497   3.176   9.214   9.770 -1.8096  2.7532 -0.8985
  730MOL0     H98498   3.147   9.358   9.850 -3.5998  0.2217  1.5795
  730MOL0     H98499   3.087   9.150  10.047 -1.1894 -0.8898 -0.3816
  730MOL0     H98500   2.995   9.287   9.977 -4.7035 -2.1598 -2.3140
  730MOL0     H98501   2.768   9.214   9.900 -1.4935  0.0916 -1.0897
  730MOL0     H98502   2.583   9.006   9.878 -0.3216 -3.7211  0.0278
  730MOL0     H98503   2.616   9.058   9.715  0.4199 -1.6593 -2.1290
  730MOL0     H98504   2.614   8.782   9.855 -2.6751  2.9673  1.8097
  730MOL0     H98505   2.493   8.838   9.738 -0.9432  1.4201  1.9828
  730MOL0     H98506   2.772   8.739   9.665 -0.7681  0.2936  0.6576
  730MOL0     H98507   2.662   8.838   9.561 -3.0703 -1.7351 -1.8523
  730MOL0     H98508   2.496   8.667   9.563  1.7721  0.5722 -2.4752
  730MOL0     H98509   2.551   8.584   9.693  1.1531  1.1067  0.6997
  730MOL0     H98510   2.815   8.429   9.347  2.0868 -1.0055  2.6901
  730MOL0     H98511   2.756   8.225   9.251 -0.8561  1.8276 -0.5744
  730MOL0     H98512   2.416   7.848   9.129  0.3120  0.5627  1.7359
  730MOL0     H98513   2.461   7.623   9.034  0.8678  0.8253 -1.7927
  730MOL0     H98514   2.814   7.589   8.820 -3.3611  0.2694 -1.1362
  730MOL0     H98515   2.864   7.486   8.948 -1.0224  2.3640  2.5625
  730MOL0     H98516   2.761   7.287   8.870 -0.9484  2.0451  3.3224
  730MOL0     H98517   2.639   7.365   8.784  0.2257  0.0351  0.9277
  730MOL0     H98518   2.817   7.265   8.635 -0.8937 -0.4667  0.9539
  730MOL0     H98519   2.783   7.440   8.602 -2.2532 -0.3627  1.1839
  730MOL0     H98520   3.017   7.342   8.765 -1.7039  0.5726  1.8684
  730MOL0     H98521   2.995   7.497   8.688  0.2612  0.0937  0.6473
  730MOL0     H98522   2.969   7.364   8.466 -1.7234  1.6050  1.8839
  730MOL0     H98523   3.015   7.226   8.560 -0.3298  0.4479  1.3749
  730MOL0     H98524   3.198   7.470   8.503  3.7106 -0.8006  0.7747
  730MOL0     H98525   3.243   7.323   8.603 -0.9534 -2.9790  1.6302
  730MOL0     H98526   3.183   7.188   8.384 -3.9241  1.4199 -3.9267
  730MOL0     H98527   3.327   7.292   8.391 -0.3828  2.9981 -2.2601
  730MOL0     H98528   3.065   7.352   8.257 -0.4338  2.0177  2.5562
  730MOL0     H98529   3.202   7.466   8.270 -1.5638  0.8861 -1.7873
  730MOL0     H98530   2.872   7.687   9.042  0.7076  1.3598  0.8095
  730MOL0     H98531   2.836   7.927   9.117 -0.7713  0.3279  0.5382
  730MOL0     H98532   2.364   8.230   9.450  0.1972 -3.0957 -0.3510
  730MOL0     H98533   2.446   8.422   9.576  0.1618 -4.0401  1.8012
  730MOL0     H98534   3.909   9.328   9.961  1.7366 -1.0615 -2.9505
  730MOL0     H98535   4.127   9.337   9.854  1.5581 -0.1821 -0.7938
  730MOL0     H98536   4.466   9.461   9.826  0.0818 -1.4190  1.9470
  730MOL0     H98537   4.677   9.545   9.740 -0.1706 -1.1029 -0.4563
  730MOL0     H98538   4.809   9.596   9.586 -2.9255 -0.8199  1.1594
  730MOL0     H98539   4.718   9.484   9.490  1.1919 -0.1106 -3.6140
  730MOL0     H98540   4.859   9.595   9.344 -0.7420  0.0919 -0.2393
  730MOL0     H98541   4.893   9.416   9.356  2.2334 -1.4191  2.7451
  730MOL0     H98542   5.045   9.611   9.524 -0.7305  2.4580 -1.2489
  730MOL0     H98543   5.083   9.632   9.356  1.3636 -0.4446 -0.7011
  730MOL0     H98544   5.245   9.486   9.436  0.1424 -0.7718 -1.1411
  730MOL0     H98545   5.134   9.382   9.523 -2.0019 -0.3329 -0.6482
  730MOL0     H98546   5.166   9.222   9.125 -1.3122 -0.6884  0.2114
  730MOL0     H98547   4.832   9.139   9.698  0.1393 -0.3025  2.6614
  730MOL0     H98548   4.529   8.987   9.725  2.8030  0.0079 -3.4611
  730MOL0     H98549   4.684   8.967   9.719  0.4685  0.8032 -0.6585
  730MOL0     H98550   4.611   8.986   9.886 -2.6134  1.7953  0.4875
  731MOL0     O98551   6.646   7.536   1.059 -0.7827 -0.3077 -0.9340
  731MOL0     C98552   6.652   7.446   0.974 -0.2123 -0.2870 -0.2789
  731MOL0     O98553   6.588   7.454   0.855  0.1881  0.4713 -0.4242
  731MOL0     C98554   6.543   7.573   0.797  0.9755 -0.7077 -0.6506
  731MOL0     C98555   6.626   7.690   0.783 -0.0303 -0.0418 -0.4034
  731MOL0     C98556   6.579   7.793   0.702  0.3821  0.8224  0.8210
  731MOL0     C98557   6.446   7.792   0.656  0.8179 -0.4417  0.2735
  731MOL0     O98558   6.391   7.887   0.577 -0.2449 -0.1185  0.1341
  731MOL0     C98559   6.478   7.926   0.459  0.6223  0.5212  0.2686
  731MOL0     C98560   6.468   7.825   0.334  0.7734 -0.0256  0.0505
  731MOL0     C98561   6.321   7.788   0.316  0.1403  0.5479 -0.5578
  731MOL0     C98562   6.276   7.741   0.186  0.0231 -0.4677  0.1109
  731MOL0     C98563   6.337   7.607   0.136  0.4270  0.8433 -0.2453
  731MOL0     C98564   6.350   7.500   0.247 -0.2564 -0.6910 -0.3983
  731MOL0     C98565   6.224   7.447   0.301 -0.0328 -0.6689  0.0180
  731MOL0     C98566   6.201   7.305   0.244  0.5259  0.8056  0.3440
  731MOL0     N98567   6.090   7.247   0.321  0.4708 -0.0760 -0.1142
  731MOL0     C98568   6.109   7.148   0.417  0.7838  1.1553  0.3672
  731MOL0     C98569   5.984   7.097   0.447  0.7811  0.2865  0.7436
  731MOL0     C98570   5.937   6.984   0.545 -0.3043 -0.6645  0.5190
  731MOL0     C98571   5.990   6.844   0.503  0.2065  0.0871 -0.4006
  731MOL0     C98572   5.895   6.728   0.536  0.4766  0.0930 -0.1741
  731MOL0     C98573   5.774   6.720   0.440  1.1432  1.2142  0.1015
  731MOL0     O98574   5.718   6.586   0.437  0.8894  0.1179  0.2742
  731MOL0     C98575   5.657   6.548   0.324  0.1031 -0.4014 -0.2323
  731MOL0     C98576   5.607   6.419   0.319  0.2924  0.6662  0.5412
  731MOL0     C98577   5.536   6.373   0.209 -1.1849 -0.3931  0.7997
  731MOL0     C98578   5.523   6.449   0.090  0.1246  0.1055 -0.5251
  731MOL0     C98579   5.441   6.403  -0.024 -0.6066 -0.4459  0.0000
  731MOL0     O98580   5.422   6.263  -0.044 -0.5510 -0.1892 -0.3547
  731MOL0     C98581   5.367   6.217  -0.160 -0.1871  1.1283 -0.0496
  731MOL0     C98582   5.439   6.140  -0.247  0.2265 -1.0880 -0.6182
  731MOL0     C98583   5.385   6.096  -0.365 -0.4316  0.5618  0.4698
  731MOL0     C98584   5.250   6.127  -0.399  0.2723 -0.0223  0.4760
  731MOL0     O98585   5.192   6.089  -0.511  0.6795  0.3180  0.0820
  731MOL0     C98586   5.272   6.080  -0.626  1.0948  0.2280  0.5643
  731MOL0     C98587   5.178   6.119  -0.744 -0.7340  0.0013  0.0108
  731MOL0     C98588   5.087   6.012  -0.780  0.0802 -0.4267 -0.4290
  731MOL0     C98589   4.985   6.056  -0.882 -0.3651  0.5440 -0.8632
  731MOL0     C98590   4.891   5.951  -0.931 -0.0629  0.1879  0.2294
  731MOL0     C98591   4.958   5.819  -0.984  0.8528 -0.0287 -0.0264
  731MOL0     C98592   4.866   5.721  -1.068  0.4333 -0.7007 -0.2200
  731MOL0     C98593   4.911   5.570  -1.063 -0.8909 -0.8332  0.1182
  731MOL0    Cl98594   4.829   5.476  -1.183  0.8000  0.0078  0.0998
  731MOL0     C98595   5.180   6.213  -0.320  0.0643  0.3116 -0.8274
  731MOL0     C98596   5.236   6.262  -0.198  0.0821 -0.1274  0.0333
  731MOL0     O98597   5.408   6.489  -0.105  0.2223  0.1495 -0.1935
  731MOL0     C98598   5.582   6.576   0.086 -0.7378  0.6452 -0.1088
  731MOL0     C98599   5.645   6.623   0.201 -0.3924  0.8959 -0.4728
  731MOL0     N98600   5.894   7.185   0.381  0.5815  0.2934 -0.5185
  731MOL0     N98601   5.960   7.255   0.297 -0.2886 -1.0912 -0.1580
  731MOL0     C98602   6.366   7.677   0.673  0.0837  0.9048 -0.7931
  731MOL0     C98603   6.409   7.570   0.741  0.3576  0.1235  0.0280
  731MOL0     C98604   6.689   7.306   1.014 -0.4372 -0.3549  0.8293
  731MOL0     C98605   6.635   7.194   0.938  0.4124 -0.0290 -0.2752
  731MOL0     C98606   6.658   7.066   0.980 -0.6180 -0.0762 -0.4160
  731MOL0     C98607   6.725   7.036   1.101 -0.1223 -1.1836  0.3503
  731MOL0     O98608   6.737   6.904   1.141 -0.2867  0.3620 -0.4286
  731MOL0     C98609   6.862   6.850   1.103 -0.4659 -0.7119  0.3465
  731MOL0     C98610   6.834   6.705   1.096  0.7386 -0.1478  0.7058
  731MOL0     C98611   6.960   6.633   1.036  0.3867 -0.2464  0.1723
  731MOL0     C98612   6.923   6.499   0.961 -0.7958 -0.5407  0.1418
  731MOL0     C98613   7.011   6.460   0.843 -0.3961  0.5009 -0.4290
  731MOL0     C98614   7.072   6.434   0.744 -0.0746 -0.1637  1.3788
  731MOL0     C98615   6.763   7.137   1.180 -0.4055  0.2718  0.1103
  731MOL0     C98616   6.762   7.272   1.130 -0.9495 -0.6901  0.5913
  731MOL0     C98617   6.852   7.369   1.212  0.0761  0.2052 -0.1062
  731MOL0     H98618   6.726   7.680   0.822  0.0544  0.8553 -0.3821
  731MOL0     H98619   6.648   7.873   0.679 -4.1671  5.0762  0.1040
  731MOL0     H98620   6.438   8.020   0.419 -0.3956 -0.9492 -2.3716
  731MOL0     H98621   6.578   7.954   0.491  0.4625 -0.2831  1.5772
  731MOL0     H98622   6.529   7.740   0.365  1.9209  0.3841 -0.9975
  731MOL0     H98623   6.506   7.867   0.240  1.5954 -0.7242  0.0684
  731MOL0     H98624   6.262   7.879   0.329  1.2373  1.2221 -0.2039
  731MOL0     H98625   6.280   7.722   0.393 -2.6811  2.1414 -0.5512
  731MOL0     H98626   6.168   7.728   0.198 -0.3169  1.5884 -0.4100
  731MOL0     H98627   6.288   7.813   0.105  3.0648  0.7876  1.5067
  731MOL0     H98628   6.274   7.571   0.054 -0.3621  1.9236 -0.1339
  731MOL0     H98629   6.435   7.623   0.090  0.1314  0.1474 -1.1425
  731MOL0     H98630   6.409   7.415   0.210  0.7091  0.3396 -1.2869
  731MOL0     H98631   6.413   7.537   0.329 -0.1192 -2.4381  0.3289
  731MOL0     H98632   6.143   7.519   0.284 -0.6230 -1.3823 -0.2925
  731MOL0     H98633   6.233   7.439   0.410 -1.8444  2.8678  0.5648
  731MOL0     H98634   6.173   7.325   0.140 -1.6427 -0.9530  0.5191
  731MOL0     H98635   6.288   7.239   0.254  1.3328  1.7659 -0.1069
  731MOL0     H98636   6.207   7.111   0.448 -0.5368 -1.5100  1.7106
  731MOL0     H98637   5.959   7.004   0.650  0.2082 -2.9201  0.8811
  731MOL0     H98638   5.829   6.976   0.529 -0.1987  0.9342 -1.4901
  731MOL0     H98639   6.009   6.837   0.395  1.7022 -0.1769 -0.1335
  731MOL0     H98640   6.090   6.825   0.543  2.1866 -0.2300 -4.8310
  731MOL0     H98641   5.860   6.713   0.638  1.2289  3.4731  0.6964
  731MOL0     H98642   5.956   6.640   0.517 -0.6949 -0.9998  0.9333
  731MOL0     H98643   5.811   6.748   0.341  0.9592  0.4695 -0.1851
  731MOL0     H98644   5.702   6.797   0.469  0.6376  1.2593 -1.2042
  731MOL0     H98645   5.614   6.348   0.402  2.5903 -2.8582 -2.3430
  731MOL0     H98646   5.483   6.278   0.218  0.4589 -1.3217  1.1740
  731MOL0     H98647   5.545   6.133  -0.224  0.3351  3.0811  0.8880
  731MOL0     H98648   5.447   6.049  -0.440 -1.8024  1.1584 -1.0909
  731MOL0     H98649   5.353   6.153  -0.629  0.2848  1.1074 -0.2230
  731MOL0     H98650   5.316   5.981  -0.644  2.4994  1.4545 -3.9329
  731MOL0     H98651   5.124   6.209  -0.716  1.6556  1.2749  0.8093
  731MOL0     H98652   5.244   6.154  -0.824 -0.9998 -0.1057 -0.2527
  731MOL0     H98653   5.144   5.929  -0.824  2.6248  1.2707 -0.5493
  731MOL0     H98654   5.035   5.979  -0.690  2.1340  2.5849  2.0508
  731MOL0     H98655   5.039   6.092  -0.971  1.4544 -1.0111 -0.4476
  731MOL0     H98656   4.934   6.140  -0.833 -0.9614 -0.3705  0.1171
  731MOL0     H98657   4.836   5.988  -1.018 -1.0078 -0.0166  0.7286
  731MOL0     H98658   4.824   5.919  -0.851 -1.9522 -1.4818 -1.8867
  731MOL0     H98659   5.038   5.848  -1.052 -0.2124 -1.3577 -1.9603
  731MOL0     H98660   5.008   5.757  -0.909  0.6640 -0.7545 -0.4815
  731MOL0     H98661   4.863   5.756  -1.171 -0.8764 -0.9839 -0.3022
  731MOL0     H98662   4.765   5.729  -1.025  0.0697 -2.8292 -0.5868
  731MOL0     H98663   5.015   5.567  -1.098 -1.6131 -2.0522 -2.1237
  731MOL0     H98664   4.906   5.525  -0.964  1.0071  2.2571  1.8033
  731MOL0     H98665   5.083   6.237  -0.362  0.4052  0.3620 -1.6211
  731MOL0     H98666   5.165   6.321  -0.142  0.2480  0.1432 -0.0429
  731MOL0     H98667   5.564   6.644   0.004  1.4747  0.3637 -0.8950
  731MOL0     H98668   5.684   6.724   0.195  2.6684 -0.1878 -1.1046
  731MOL0     H98669   6.266   7.685   0.629 -1.0266 -1.7927  0.9955
  731MOL0     H98670   6.340   7.487   0.729 -1.2707  1.2524  1.0852
  731MOL0     H98671   6.573   7.217   0.852 -1.4333 -1.0917  0.7036
  731MOL0     H98672   6.630   6.980   0.920  2.7512  0.3809 -2.9313
  731MOL0     H98673   6.945   6.878   1.168  0.8610 -1.1779 -1.0740
  731MOL0     H98674   6.888   6.887   1.003  2.1189  0.9438  1.5534
  731MOL0     H98675   6.751   6.700   1.026  1.3942 -1.8415  0.0058
  731MOL0     H98676   6.799   6.664   1.191 -1.3640 -0.5253 -0.1802
  731MOL0     H98677   7.029   6.612   1.119  0.2626 -1.6611 -0.0564
  731MOL0     H98678   7.011   6.704   0.971  1.6037  2.3151  3.6091
  731MOL0     H98679   6.943   6.424   1.038  2.3307  1.3107  1.3199
  731MOL0     H98680   6.826   6.499   0.911 -0.5336 -1.2825 -0.3906
  731MOL0     H98681   7.127   6.422   0.653 -1.1628 -0.0759  0.6954
  731MOL0     H98682   6.812   7.107   1.272  0.4430  0.6698 -0.2050
  731MOL0     H98683   6.828   7.474   1.193 -1.7529 -0.5786 -2.6637
  731MOL0     H98684   6.833   7.355   1.319  0.5273  2.3009  0.2897
  731MOL0     H98685   6.957   7.344   1.195 -0.2164 -2.1742  1.1887
  732MOL0     O98686   2.429   6.372   4.979  0.3052 -0.4752 -0.1170
  732MOL0     C98687   2.472   6.406   4.867  0.9458 -0.5353 -0.0898
  732MOL0     O98688   2.428   6.363   4.747  0.3128  0.1832 -0.4074
  732MOL0     C98689   2.341   6.251   4.742 -0.0602 -0.7015 -0.0712
  732MOL0     C98690   2.389   6.144   4.681  0.1227  0.7861  1.3325
  732MOL0     C98691   2.312   6.032   4.653  0.0614 -0.0973  0.2626
  732MOL0     C98692   2.182   6.037   4.689  0.1584  0.1041  0.0326
  732MOL0     O98693   2.106   5.924   4.656 -0.7522 -0.9713 -0.0841
  732MOL0     C98694   1.963   5.941   4.640 -0.3132  0.0681 -0.7443
  732MOL0     C98695   1.902   5.800   4.616 -0.2558  0.2420  0.7968
  732MOL0     C98696   1.964   5.682   4.698 -0.2036  0.4896  0.1713
  732MOL0     C98697   1.910   5.545   4.642 -0.5805  0.0861 -0.7575
  732MOL0     C98698   1.998   5.427   4.683 -0.4151  0.7911 -0.1714
  732MOL0     C98699   1.933   5.291   4.628  0.7393 -1.7311  0.3553
  732MOL0     C98700   1.979   5.165   4.689  0.2470 -0.0116 -0.9588
  732MOL0     C98701   1.916   5.130   4.830 -0.2259 -0.3498  0.3665
  732MOL0     N98702   2.008   5.165   4.943 -0.1470  0.7330  0.0892
  732MOL0     C98703   2.115   5.084   4.985 -0.3841  0.3186 -1.6236
  732MOL0     C98704   2.169   5.154   5.094  0.4223 -0.9584 -0.0097
  732MOL0     C98705   2.264   5.091   5.185 -0.4047 -0.4317  0.5166
  732MOL0     C98706   2.258   5.123   5.332  0.4775 -0.7250 -0.4402
  732MOL0     C98707   2.390   5.062   5.389  0.5359  0.8450  0.2544
  732MOL0     C98708   2.414   5.120   5.524 -0.3047  0.6023 -0.1966
  732MOL0     O98709   2.314   5.077   5.616 -0.3203  0.4690  0.0169
  732MOL0     C98710   2.308   5.119   5.751 -0.9404 -0.4580 -0.1399
  732MOL0     C98711   2.318   5.255   5.782  0.1861  0.2010  0.3243
  732MOL0     C98712   2.291   5.304   5.918  0.9119  0.2187 -0.8953
  732MOL0     C98713   2.258   5.216   6.025 -0.3404 -0.7352  0.1224
  732MOL0     C98714   2.223   5.254   6.158  0.2311  0.5338 -0.3101
  732MOL0     O98715   2.265   5.171   6.261  1.0522 -0.1835  0.4382
  732MOL0     C98716   2.269   5.211   6.392  1.0254 -1.2859 -0.1601
  732MOL0     C98717   2.362   5.313   6.431  0.3524 -0.8596 -0.4202
  732MOL0     C98718   2.382   5.350   6.563  0.3832 -0.0627 -0.5188
  732MOL0     C98719   2.310   5.295   6.669  1.3125  0.4928 -0.1391
  732MOL0     O98720   2.323   5.325   6.800  0.4813 -0.0237 -0.4482
  732MOL0     C98721   2.403   5.431   6.828 -0.1925  0.1216  0.8638
  732MOL0     C98722   2.381   5.447   6.971  0.0575  0.7853 -0.4755
  732MOL0     C98723   2.487   5.552   7.034  0.6020  0.1600  0.2068
  732MOL0     C98724   2.431   5.611   7.167 -0.6999  1.0760  0.6287
  732MOL0     C98725   2.437   5.515   7.291  0.0204  0.4534 -0.3124
  732MOL0     C98726   2.433   5.587   7.430 -0.6607  0.7020 -0.0569
  732MOL0     C98727   2.315   5.699   7.460  0.8394  0.4674 -0.6105
  732MOL0     C98728   2.329   5.774   7.587  0.6958 -0.6423 -0.5783
  732MOL0    Cl98729   2.255   5.666   7.713  0.6810 -0.0616 -0.4328
  732MOL0     C98730   2.207   5.203   6.631  0.5207  1.0742  0.2902
  732MOL0     C98731   2.188   5.166   6.499  0.3813 -0.0356  1.1726
  732MOL0     O98732   2.172   5.366   6.179  0.6093 -0.0854  0.5961
  732MOL0     C98733   2.252   5.077   5.996  0.6249  0.3820  0.9224
  732MOL0     C98734   2.284   5.027   5.865  0.4143  0.3536 -0.6982
  732MOL0     N98735   2.100   5.279   5.098 -0.3323  0.9825  0.5073
  732MOL0     N98736   2.013   5.286   5.006  0.2031  1.1014 -0.8586
  732MOL0     C98737   2.125   6.151   4.748  0.3162  0.2937 -0.0568
  732MOL0     C98738   2.209   6.259   4.780  0.9464  0.9678  0.5972
  732MOL0     C98739   2.574   6.513   4.879  0.1685  0.2674 -0.0197
  732MOL0     C98740   2.566   6.601   4.983  0.9608  0.2920 -0.7745
  732MOL0     C98741   2.657   6.696   5.014 -0.9105 -1.4089  0.5263
  732MOL0     C98742   2.766   6.731   4.930 -0.2944  0.4305  0.9734
  732MOL0     O98743   2.849   6.828   4.955  0.1636  0.0777 -0.2848
  732MOL0     C98744   2.937   6.812   5.060 -0.2303 -0.3639 -1.0042
  732MOL0     C98745   3.023   6.928   5.069  0.5777 -0.4387 -0.1938
  732MOL0     C98746   3.096   6.976   4.938 -0.0168 -0.3962  1.3373
  732MOL0     C98747   3.208   6.875   4.903  0.4026 -0.4494  0.5863
  732MOL0     C98748   3.313   6.953   4.833 -0.2453 -1.1055 -0.4066
  732MOL0     C98749   3.393   7.020   4.775 -0.1608 -0.4627 -1.4345
  732MOL0     C98750   2.771   6.650   4.813 -0.3367  1.1369 -0.9953
  732MOL0     C98751   2.682   6.536   4.791 -0.8542  0.5123  0.0510
  732MOL0     C98752   2.706   6.457   4.666 -0.4605 -0.3724 -0.7962
  732MOL0     H98753   2.493   6.136   4.650 -0.4998 -4.0741 -0.4599
  732MOL0     H98754   2.367   5.953   4.604  1.4217 -0.1451  1.7839
  732MOL0     H98755   1.920   5.983   4.731 -0.0177  0.7191 -0.8960
  732MOL0     H98756   1.940   6.016   4.563 -0.5321  1.5763  0.7214
  732MOL0     H98757   1.910   5.777   4.509 -3.1211  0.8079  0.3636
  732MOL0     H98758   1.797   5.792   4.645 -0.0884 -2.0289  0.9546
  732MOL0     H98759   1.946   5.704   4.804 -0.0987  3.4163 -0.3269
  732MOL0     H98760   2.073   5.687   4.683  0.3111 -0.5268  2.9802
  732MOL0     H98761   1.806   5.532   4.674 -1.0024  1.6743 -1.4327
  732MOL0     H98762   1.907   5.549   4.533  2.5008  0.0501 -0.9454
  732MOL0     H98763   2.097   5.451   4.643 -0.0171  2.0115  1.4729
  732MOL0     H98764   2.015   5.428   4.791 -0.2802  2.4836 -0.1890
  732MOL0     H98765   1.825   5.303   4.637  0.7794  1.2068 -1.9101
  732MOL0     H98766   1.962   5.284   4.523 -0.6592 -0.2641 -0.1608
  732MOL0     H98767   2.087   5.175   4.706  0.0728  4.0751 -1.1068
  732MOL0     H98768   1.960   5.086   4.616  2.9040 -2.2175  0.5581
  732MOL0     H98769   1.824   5.187   4.844  0.4743  1.4631 -1.8874
  732MOL0     H98770   1.882   5.026   4.838 -0.9996 -0.1196  0.1261
  732MOL0     H98771   2.134   4.984   4.949  1.1074 -0.3285  0.7741
  732MOL0     H98772   2.258   4.983   5.172  3.5745 -0.6340 -0.9967
  732MOL0     H98773   2.360   5.126   5.146 -0.3537 -2.2940 -1.1881
  732MOL0     H98774   2.259   5.229   5.355  3.6014 -0.9509  0.8928
  732MOL0     H98775   2.169   5.074   5.373  0.2706  0.2066  0.2412
  732MOL0     H98776   2.474   5.085   5.323 -0.4695  2.2322 -0.6065
  732MOL0     H98777   2.373   4.954   5.386  2.7314  0.3509  2.4044
  732MOL0     H98778   2.416   5.229   5.518 -2.2677  0.7987  1.4774
  732MOL0     H98779   2.504   5.098   5.582 -1.6655 -1.2500  1.3245
  732MOL0     H98780   2.331   5.340   5.715 -0.3736  0.7364  0.8826
  732MOL0     H98781   2.304   5.412   5.924  0.9099  0.1965 -0.4564
  732MOL0     H98782   2.425   5.367   6.361 -2.2671 -1.6197 -3.6218
  732MOL0     H98783   2.460   5.424   6.581  0.6903 -1.0805  2.9353
  732MOL0     H98784   2.509   5.408   6.818 -0.3037  0.1284 -0.4988
  732MOL0     H98785   2.377   5.516   6.764  0.8317 -0.3710 -0.2219
  732MOL0     H98786   2.285   5.495   6.989  1.1151  2.2979  1.4811
  732MOL0     H98787   2.393   5.352   7.024  7.0275  1.0651 -0.6092
  732MOL0     H98788   2.581   5.507   7.066  0.9378  0.8501  0.2266
  732MOL0     H98789   2.498   5.625   6.953 -0.5302  0.2767  0.1443
  732MOL0     H98790   2.328   5.646   7.159 -1.3782 -0.9409 -0.0409
  732MOL0     H98791   2.498   5.696   7.182  0.7818  0.4614 -1.7980
  732MOL0     H98792   2.516   5.439   7.287 -1.7921 -1.5132 -0.9996
  732MOL0     H98793   2.347   5.453   7.285  2.6704 -3.8274  0.1948
  732MOL0     H98794   2.412   5.507   7.502 -2.6961  0.1766 -1.1562
  732MOL0     H98795   2.528   5.640   7.436 -0.3947  0.1828  0.3347
  732MOL0     H98796   2.214   5.657   7.459  1.0532 -0.1063  0.3057
  732MOL0     H98797   2.326   5.766   7.375  0.4598  0.0102 -1.0250
  732MOL0     H98798   2.437   5.784   7.603  0.9691 -2.1230 -1.3535
  732MOL0     H98799   2.278   5.871   7.589 -1.0416 -1.4482  3.7966
  732MOL0     H98800   2.142   5.168   6.711  0.9477 -1.1243 -0.2751
  732MOL0     H98801   2.111   5.093   6.475  2.0065 -1.0280 -1.4920
  732MOL0     H98802   2.225   4.997   6.065 -1.9275  2.2375  2.2383
  732MOL0     H98803   2.263   4.922   5.845 -2.6600  0.5724  0.7672
  732MOL0     H98804   2.017   6.154   4.758  0.0607 -2.8027 -0.7583
  732MOL0     H98805   2.152   6.351   4.791  1.0454  1.4369 -2.0696
  732MOL0     H98806   2.484   6.584   5.052  2.2441 -2.0608  0.3014
  732MOL0     H98807   2.652   6.758   5.104  1.0883  1.1373 -0.9808
  732MOL0     H98808   3.001   6.724   5.055  3.6999  2.1676 -0.0846
  732MOL0     H98809   2.882   6.811   5.155 -0.1154 -0.8347 -0.9409
  732MOL0     H98810   3.101   6.919   5.145  2.0033 -0.3421 -1.5932
  732MOL0     H98811   2.949   7.007   5.085 -0.9252 -1.7841 -0.3140
  732MOL0     H98812   3.151   7.065   4.969  0.6929  0.0807 -1.0803
  732MOL0     H98813   3.039   6.997   4.847  2.8488 -0.9367 -0.7139
  732MOL0     H98814   3.250   6.832   4.994  2.3624 -0.6272 -0.3523
  732MOL0     H98815   3.167   6.788   4.851 -1.0698  0.9708 -0.7395
  732MOL0     H98816   3.438   7.098   4.717  0.0594  0.7337  0.2751
  732MOL0     H98817   2.854   6.667   4.745  1.1974  0.0320  0.5046
  732MOL0     H98818   2.615   6.474   4.608 -1.0949 -1.5998 -0.1877
  732MOL0     H98819   2.793   6.494   4.610 -0.1700 -0.3154 -0.3157
  732MOL0     H98820   2.727   6.352   4.689  3.1359 -0.5268 -3.7086
  733MOL0     O98821   5.683   7.942  10.736 -0.6416  0.2355  0.2643
  733MOL0     C98822   5.611   7.852  10.690  0.3840  0.7037 -0.5696
  733MOL0     O98823   5.588   7.840  10.560  0.1865  0.4185  0.2457
  733MOL0     C98824   5.591   7.959  10.487 -0.8632  0.5386  0.3779
  733MOL0     C98825   5.527   8.078  10.520 -0.9236  0.6980 -0.6058
  733MOL0     C98826   5.516   8.181  10.434  0.9268 -0.0821 -0.8658
  733MOL0     C98827   5.569   8.171  10.300  0.3105 -0.0829  0.3583
  733MOL0     O98828   5.571   8.269  10.205 -0.0792 -0.3241 -0.5163
  733MOL0     C98829   5.487   8.389  10.201 -0.1416  0.0334  0.6071
  733MOL0     C98830   5.350   8.343  10.147  0.2979 -0.8508 -0.5971
  733MOL0     C98831   5.246   8.450  10.114 -0.3365  0.5589  0.0297
  733MOL0     C98832   5.312   8.560  10.029 -1.1378  0.4283 -0.2658
  733MOL0     C98833   5.205   8.657   9.978  0.0981 -1.0422 -0.5942
  733MOL0     C98834   5.267   8.770   9.898  0.3559 -0.2329 -0.1667
  733MOL0     C98835   5.155   8.884   9.872  0.2149 -0.1725  0.3818
  733MOL0     C98836   5.032   8.835   9.796  0.5173 -0.4724 -0.3572
  733MOL0     N98837   4.907   8.794   9.871 -0.4880  0.5519 -0.1810
  733MOL0     C98838   4.837   8.684   9.846  0.6212  0.4231 -0.6035
  733MOL0     C98839   4.742   8.682   9.949 -0.6456  0.0105 -0.0203
  733MOL0     C98840   4.634   8.581   9.980 -0.9814  0.3528  0.2307
  733MOL0     C98841   4.504   8.615   9.913  0.3027  0.6933 -0.4299
  733MOL0     C98842   4.501   8.556   9.768 -0.0582  0.2210 -0.3794
  733MOL0     C98843   4.425   8.657   9.680  1.1958  0.2655 -0.1029
  733MOL0     O98844   4.425   8.611   9.542 -0.3352 -0.3493  0.1113
  733MOL0     C98845   4.359   8.689   9.451  0.3369  0.4353 -0.0572
  733MOL0     C98846   4.335   8.625   9.327 -0.1504 -0.9840  0.0033
  733MOL0     C98847   4.259   8.696   9.231  1.6673 -0.6088 -0.3241
  733MOL0     C98848   4.202   8.828   9.254 -0.2499  0.5424 -1.2340
  733MOL0     C98849   4.110   8.890   9.155  0.3952  0.6254  0.3865
  733MOL0     O98850   4.065   9.017   9.200  0.0927 -0.3191 -0.0239
  733MOL0     C98851   3.981   9.082   9.122  0.1554  0.3889 -0.4215
  733MOL0     C98852   4.031   9.197   9.066 -0.2363 -0.2426  0.6742
  733MOL0     C98853   3.953   9.277   8.985 -0.3450  0.8447 -1.0845
  733MOL0     C98854   3.824   9.230   8.951 -0.1502  0.8267  0.8440
  733MOL0     O98855   3.750   9.285   8.851  0.2751 -0.1794  0.3475
  733MOL0     C98856   3.760   9.427   8.827 -0.9964 -0.5494 -0.5715
  733MOL0     C98857   3.681   9.506   8.935 -0.8101  0.4961  0.0656
  733MOL0     C98858   3.708   9.655   8.946 -0.8582  0.5212  0.1220
  733MOL0     C98859   3.649   9.712   9.070 -0.1135  0.8667 -0.5816
  733MOL0     C98860   3.734   9.711   9.197  0.3742  0.2657 -0.3351
  733MOL0     C98861   3.654   9.750   9.322 -0.9495  0.8743 -0.1828
  733MOL0     C98862   3.579   9.879   9.306  0.3304 -0.3745 -0.1654
  733MOL0     C98863   3.514   9.928   9.435 -0.7875 -0.3908  1.6279
  733MOL0    Cl98864   3.628   9.987   9.561  0.4528 -0.2581  0.2076
  733MOL0     C98865   3.778   9.117   9.000  0.4022 -0.1290 -0.3205
  733MOL0     C98866   3.850   9.040   9.093 -0.4100  0.1336 -0.4225
  733MOL0     O98867   4.068   8.831   9.059  0.4327  0.7067  0.1713
  733MOL0     C98868   4.248   8.889   9.373  0.8599 -0.4051  0.7165
  733MOL0     C98869   4.321   8.817   9.466 -0.1897  0.0752 -0.2629
  733MOL0     N98870   4.747   8.798  10.025  0.7973 -0.5010  0.9239
  733MOL0     N98871   4.847   8.863   9.972 -0.7318 -0.2218 -0.6512
  733MOL0     C98872   5.647   8.056  10.274  0.0221  0.0365  0.1943
  733MOL0     C98873   5.662   7.946  10.365 -0.7053 -0.3644  0.5391
  733MOL0     C98874   5.572   7.742  10.778  1.1606 -0.7229 -0.3495
  733MOL0     C98875   5.542   7.622  10.723  0.4057 -0.0908 -0.8374
  733MOL0     C98876   5.506   7.516  10.803  0.2992 -0.7454 -0.0307
  733MOL0     C98877   5.501   7.524  10.947 -1.0709 -0.4544  0.3388
  733MOL0     O98878   5.458   7.418  11.017  0.2416  0.1898  0.0189
  733MOL0     C98879   5.570   7.346  11.064  0.3466  0.0380 -0.0649
  733MOL0     C98880   5.530   7.204  11.059 -0.3880 -0.2262  0.0680
  733MOL0     C98881   5.466   7.151  10.924 -0.3569  0.3227 -0.6200
  733MOL0     C98882   5.428   7.010  10.922  0.4494  0.8175 -0.4605
  733MOL0     C98883   5.539   6.923  10.947 -1.6072 -0.2701 -0.7859
  733MOL0     C98884   5.639   6.850  10.971 -0.2210  0.7092 -0.1497
  733MOL0     C98885   5.549   7.637  10.996 -0.9942  0.0570  0.1357
  733MOL0     C98886   5.582   7.745  10.917 -0.5255 -0.0360  1.1012
  733MOL0     C98887   5.605   7.875  10.989 -0.6004  0.2735  0.2732
  733MOL0     H98888   5.486   8.086  10.620 -0.4775  0.3869 -0.3919
  733MOL0     H98889   5.468   8.272  10.468  2.2705 -0.1198  1.3302
  733MOL0     H98890   5.490   8.443  10.296 -1.2737 -3.0245  2.5027
  733MOL0     H98891   5.540   8.452  10.129  1.1910  0.3809  1.8653
  733MOL0     H98892   5.308   8.267  10.213  2.3488 -1.6592 -0.1238
  733MOL0     H98893   5.376   8.301  10.049 -0.3032  0.0968 -1.1736
  733MOL0     H98894   5.200   8.497  10.202 -0.8606 -0.8304  0.5306
  733MOL0     H98895   5.171   8.404  10.049 -0.6580 -0.1384  0.8624
  733MOL0     H98896   5.387   8.622  10.079  1.2763 -0.7163 -2.2255
  733MOL0     H98897   5.342   8.507   9.938  0.7317 -2.4464  1.8660
  733MOL0     H98898   5.135   8.606   9.912  0.1648  1.5043 -2.8450
  733MOL0     H98899   5.139   8.692  10.058 -1.2620 -5.3561  0.4382
  733MOL0     H98900   5.344   8.825   9.953 -3.5391  2.1973  3.4003
  733MOL0     H98901   5.305   8.723   9.807  0.4240 -2.7730  1.0870
  733MOL0     H98902   5.205   8.954   9.806  0.3586  1.5870  2.2561
  733MOL0     H98903   5.114   8.928   9.964  2.0522  0.6226  0.8575
  733MOL0     H98904   4.992   8.911   9.728 -1.6581 -1.1996  0.0160
  733MOL0     H98905   5.055   8.752   9.728 -1.3255 -1.4502  0.1470
  733MOL0     H98906   4.847   8.607   9.769  1.0476  0.3121 -0.4441
  733MOL0     H98907   4.682   8.483   9.966 -0.7987  0.6760 -1.5656
  733MOL0     H98908   4.613   8.582  10.088  1.2881 -4.2189  0.9804
  733MOL0     H98909   4.427   8.569   9.975  0.6823  1.2844  0.5125
  733MOL0     H98910   4.489   8.721   9.936 -2.0774 -0.0881  2.1523
  733MOL0     H98911   4.459   8.455   9.762  0.6163  0.0209 -2.3225
  733MOL0     H98912   4.598   8.556   9.718 -0.7670 -1.6754 -1.8753
  733MOL0     H98913   4.470   8.755   9.694  1.3009  0.1404  0.4632
  733MOL0     H98914   4.323   8.663   9.719  1.5089  0.2480  0.7529
  733MOL0     H98915   4.371   8.523   9.311 -0.3793 -1.8982  4.1947
  733MOL0     H98916   4.224   8.649   9.140  0.6852  0.1478 -0.3513
  733MOL0     H98917   4.133   9.227   9.085 -0.2464 -0.3199  0.8512
  733MOL0     H98918   3.987   9.378   8.963 -2.3224  2.0345  0.8823
  733MOL0     H98919   3.865   9.457   8.817 -1.1930  0.4210  0.1036
  733MOL0     H98920   3.712   9.451   8.732 -1.4889  2.0243  0.2589
  733MOL0     H98921   3.577   9.475   8.923 -0.6083 -0.0069 -0.4461
  733MOL0     H98922   3.708   9.463   9.032 -1.2460 -2.2776 -0.9690
  733MOL0     H98923   3.814   9.683   8.954 -1.2376  2.3987 -0.7734
  733MOL0     H98924   3.670   9.704   8.856  1.0427  2.8221  0.4635
  733MOL0     H98925   3.561   9.652   9.095  0.4213 -0.9698 -2.8266
  733MOL0     H98926   3.607   9.807   9.037 -2.7424 -1.1022 -3.4365
  733MOL0     H98927   3.808   9.790   9.180 -1.0464  1.8143  0.4093
  733MOL0     H98928   3.799   9.626   9.219 -0.8492 -0.9228 -1.1368
  733MOL0     H98929   3.585   9.668   9.343  0.3066 -0.5461 -1.3985
  733MOL0     H98930   3.719   9.765   9.408  0.8284  1.2961 -1.5507
  733MOL0     H98931   3.499   9.861   9.234  0.8894  0.9602 -1.1742
  733MOL0     H98932   3.650   9.957   9.276  0.4540 -1.3501 -2.6873
  733MOL0     H98933   3.447  10.011   9.411  0.6185  0.5184  0.7140
  733MOL0     H98934   3.447   9.857   9.485 -1.4222  2.1721  4.7158
  733MOL0     H98935   3.681   9.084   8.963  0.9458 -0.6407 -1.3323
  733MOL0     H98936   3.815   8.943   9.128  2.9201 -1.1845 -0.4179
  733MOL0     H98937   4.212   8.990   9.391 -0.0584 -0.7004  0.5523
  733MOL0     H98938   4.358   8.867   9.556 -0.1864  2.8832 -1.7083
  733MOL0     H98939   5.708   8.059  10.185 -1.7764 -1.3172 -1.1571
  733MOL0     H98940   5.712   7.857  10.330  1.7727  1.1549 -0.0013
  733MOL0     H98941   5.556   7.608  10.616  0.1795  1.3315 -1.0748
  733MOL0     H98942   5.472   7.423  10.758  1.6789 -0.9914 -0.6327
  733MOL0     H98943   5.595   7.364  11.169  5.4090 -1.6446 -0.6914
  733MOL0     H98944   5.669   7.359  11.019  0.8516 -2.1147  0.3160
  733MOL0     H98945   5.465   7.191  11.146  3.9865  1.8698  4.1396
  733MOL0     H98946   5.621   7.147  11.081 -0.3662 -0.1116  0.2849
  733MOL0     H98947   5.535   7.158  10.839 -3.1849 -4.0235 -3.7332
  733MOL0     H98948   5.381   7.217  10.903 -0.8867 -0.0601  0.2581
  733MOL0     H98949   5.357   7.006  11.005  2.5188 -0.1019  1.3941
  733MOL0     H98950   5.382   6.978  10.828  2.6135  0.9031 -1.6244
  733MOL0     H98951   5.728   6.797  10.995 -0.1126  1.0116  0.1256
  733MOL0     H98952   5.539   7.661  11.101 -2.7323  2.2593 -0.4615
  733MOL0     H98953   5.536   7.954  10.957 -1.2130 -0.6053 -0.6449
  733MOL0     H98954   5.593   7.846  11.094 -0.5685  3.1066  1.1320
  733MOL0     H98955   5.705   7.910  10.962 -0.7546  0.4833 -0.0402
  734MOL0     O98956   9.244   0.554   6.776 -0.0797  0.2350 -0.2529
  734MOL0     C98957   9.285   0.438   6.775 -0.4247 -0.0348  0.0234
  734MOL0     O98958   9.277   0.356   6.664 -0.0855  0.1766 -0.0818
  734MOL0     C98959   9.182   0.380   6.571 -0.6739 -1.1000  0.3105
  734MOL0     C98960   9.080   0.279   6.552  0.3227 -0.6291 -0.3859
  734MOL0     C98961   8.990   0.294   6.440 -0.5167 -0.6183 -0.4412
  734MOL0     C98962   9.001   0.400   6.352 -0.8946 -0.2386  0.6488
  734MOL0     O98963   8.932   0.412   6.235 -0.2044  0.0649 -0.2874
  734MOL0     C98964   8.987   0.326   6.134 -0.1603  0.6369  0.3451
  734MOL0     C98965   8.976   0.377   5.988 -0.4039  0.1815  0.4689
  734MOL0     C98966   9.042   0.523   5.960 -0.4355  0.6599 -0.0809
  734MOL0     C98967   9.005   0.590   5.821 -0.0515  0.9918  0.0823
  734MOL0     C98968   8.903   0.700   5.844 -0.2580 -0.0514 -0.2448
  734MOL0     C98969   8.762   0.647   5.891  0.2658  0.1802 -0.5067
  734MOL0     C98970   8.641   0.733   5.856  0.3291 -0.4086  0.3266
  734MOL0     C98971   8.613   0.759   5.703  0.7246  0.4948 -0.3744
  734MOL0     N98972   8.482   0.835   5.681 -0.3263 -0.3571 -0.5056
  734MOL0     C98973   8.472   0.976   5.692 -0.0036 -0.4879  0.2857
  734MOL0     C98974   8.333   0.996   5.673 -0.7678 -1.2434  0.1812
  734MOL0     C98975   8.259   1.128   5.665 -1.0579 -0.0530  0.0874
  734MOL0     C98976   8.151   1.152   5.557 -0.3806  0.4338 -1.2328
  734MOL0     C98977   8.192   1.106   5.422 -0.2914  0.5091 -0.2472
  734MOL0     C98978   8.280   1.205   5.353 -0.2201  0.2208  0.1331
  734MOL0     O98979   8.262   1.204   5.209  0.2951 -0.5184  0.0653
  734MOL0     C98980   8.299   1.318   5.132  0.6155  1.9451 -0.5580
  734MOL0     C98981   8.301   1.453   5.180  0.4873  0.0760  0.3559
  734MOL0     C98982   8.359   1.551   5.111  0.1727 -0.3676  0.2698
  734MOL0     C98983   8.423   1.515   4.983 -0.0422  0.0781 -0.1694
  734MOL0     C98984   8.488   1.627   4.911  0.1416 -0.6225 -0.2964
  734MOL0     O98985   8.544   1.585   4.803 -0.7714  0.2521  0.1259
  734MOL0     C98986   8.631   1.682   4.746  0.2089 -1.0515 -0.8702
  734MOL0     C98987   8.605   1.708   4.612  0.6488  0.3606  0.4582
  734MOL0     C98988   8.676   1.811   4.548  0.1318  0.1755 -0.2171
  734MOL0     C98989   8.784   1.878   4.616 -0.0182  0.3193  0.2490
  734MOL0     O98990   8.855   1.978   4.563 -0.2725 -0.2466  0.6663
  734MOL0     C98991   8.775   2.091   4.547  0.7132 -0.6130  0.5717
  734MOL0     C98992   8.847   2.168   4.433 -0.1083  0.1792  0.3429
  734MOL0     C98993   8.763   2.298   4.397  0.2117  0.1603  0.3601
  734MOL0     C98994   8.695   2.270   4.266 -0.0788 -1.1779  0.1198
  734MOL0     C98995   8.618   2.401   4.223 -0.1002 -0.2616 -0.3735
  734MOL0     C98996   8.509   2.400   4.114  0.4003  0.6540 -0.1337
  734MOL0     C98997   8.559   2.354   3.973 -1.1185  0.4723 -0.2925
  734MOL0     C98998   8.449   2.371   3.858 -0.5373  0.4618 -0.1476
  734MOL0    Cl98999   8.456   2.256   3.724  0.1868  0.7071  0.3754
  734MOL0     C99000   8.818   1.836   4.742 -0.3874  0.3368  0.7172
  734MOL0     C99001   8.737   1.748   4.810 -0.4605 -0.1251 -0.4454
  734MOL0     O99002   8.464   1.743   4.944  0.7368  0.0549 -0.0186
  734MOL0     C99003   8.440   1.378   4.938 -1.2383 -0.2344 -0.4035
  734MOL0     C99004   8.373   1.284   5.014  0.7320  0.0712 -0.3958
  734MOL0     N99005   8.271   0.874   5.651 -0.2339 -0.3451  0.0932
  734MOL0     N99006   8.362   0.779   5.651 -0.2086 -0.3492  0.0899
  734MOL0     C99007   9.098   0.498   6.370  0.7392 -0.2819  0.1078
  734MOL0     C99008   9.187   0.489   6.480 -0.6281  0.1546 -0.8718
  734MOL0     C99009   9.365   0.408   6.892 -0.5613 -0.7817 -0.8373
  734MOL0     C99010   9.410   0.520   6.977 -0.3247 -0.1011  0.1085
  734MOL0     C99011   9.511   0.492   7.075 -0.0843  0.4124  0.7375
  734MOL0     C99012   9.549   0.355   7.105 -0.0660 -1.3864  0.5780
  734MOL0     O99013   9.640   0.317   7.200  0.8178  0.1354  0.9457
  734MOL0     C99014   9.588   0.360   7.325  0.2658 -0.4432 -0.2111
  734MOL0     C99015   9.608   0.234   7.407 -0.2614 -0.2485  0.1258
  734MOL0     C99016   9.563   0.265   7.556 -0.4054 -0.4150  0.2252
  734MOL0     C99017   9.416   0.318   7.571  0.5439 -0.6501 -0.6314
  734MOL0     C99018   9.369   0.312   7.707 -0.0803 -0.2109 -0.2719
  734MOL0     C99019   9.321   0.284   7.821 -0.1507  0.4639 -0.4389
  734MOL0     C99020   9.500   0.262   7.028  0.6388  1.1953  0.5898
  734MOL0     C99021   9.412   0.281   6.918 -0.1774  0.7152 -0.3331
  734MOL0     C99022   9.361   0.168   6.844  0.6866  0.4238  0.3105
  734MOL0     H99023   9.075   0.199   6.625  0.7176 -2.4210 -2.2389
  734MOL0     H99024   8.917   0.214   6.428  0.6168 -3.2426  6.0471
  734MOL0     H99025   9.092   0.303   6.156  0.0458 -0.5424 -1.6973
  734MOL0     H99026   8.938   0.229   6.138 -2.4372  1.7333  0.7078
  734MOL0     H99027   8.868   0.386   5.980 -0.4803 -0.3070  0.8306
  734MOL0     H99028   9.013   0.302   5.918  0.4079  2.3826 -1.6081
  734MOL0     H99029   9.150   0.520   5.973 -0.4429 -0.1157 -0.1596
  734MOL0     H99030   9.000   0.585   6.040 -0.4671  0.8517 -0.2458
  734MOL0     H99031   9.100   0.623   5.778 -0.1276  0.3052 -0.6286
  734MOL0     H99032   8.963   0.526   5.742  1.0924  1.5409 -1.0081
  734MOL0     H99033   8.955   0.777   5.902 -0.3529 -0.7478  0.7906
  734MOL0     H99034   8.899   0.745   5.744 -1.5954 -3.5732 -1.9417
  734MOL0     H99035   8.741   0.546   5.855 -2.7332  2.0047 -4.7346
  734MOL0     H99036   8.756   0.632   5.999 -0.4480 -1.8554 -0.7803
  734MOL0     H99037   8.653   0.835   5.894 -5.1239 -0.0471  1.9901
  734MOL0     H99038   8.545   0.699   5.897 -1.2855  0.1799 -2.6844
  734MOL0     H99039   8.692   0.828   5.671 -1.0098  2.7773  0.0150
  734MOL0     H99040   8.617   0.662   5.653  0.5749  0.6495 -0.6880
  734MOL0     H99041   8.549   1.048   5.717  4.3334 -4.1570 -1.0866
  734MOL0     H99042   8.231   1.157   5.766  1.0463  1.0547  0.4069
  734MOL0     H99043   8.339   1.194   5.631 -1.7212  0.5614 -0.3015
  734MOL0     H99044   8.055   1.108   5.585 -0.9574  2.3312 -0.0360
  734MOL0     H99045   8.136   1.260   5.552  1.1367  0.9108  2.1723
  734MOL0     H99046   8.100   1.098   5.363 -0.1769  0.0206 -0.3675
  734MOL0     H99047   8.243   1.009   5.419  0.0377  0.6976 -1.0309
  734MOL0     H99048   8.382   1.171   5.373  0.7912  2.2223 -1.2799
  734MOL0     H99049   8.279   1.304   5.400 -0.7032 -0.5272  1.7534
  734MOL0     H99050   8.260   1.463   5.280  2.9190 -3.0006  1.8308
  734MOL0     H99051   8.370   1.654   5.143  0.0084 -0.9464  2.3108
  734MOL0     H99052   8.522   1.654   4.567  2.4571 -2.5498  0.3824
  734MOL0     H99053   8.674   1.839   4.443 -0.6082 -1.2303 -0.6070
  734MOL0     H99054   8.669   2.073   4.527  0.2525  2.9874 -0.8975
  734MOL0     H99055   8.774   2.148   4.640  0.6612  0.3484 -0.0056
  734MOL0     H99056   8.944   2.203   4.469  0.8138  1.1619 -2.8199
  734MOL0     H99057   8.869   2.108   4.344  1.9486 -0.8793  1.4886
  734MOL0     H99058   8.697   2.310   4.483  0.9873  1.1261  0.8391
  734MOL0     H99059   8.824   2.388   4.391 -2.5204  2.2839  1.9542
  734MOL0     H99060   8.627   2.185   4.280  1.2906 -1.9364  2.4934
  734MOL0     H99061   8.771   2.253   4.189  1.3948 -2.9181  1.8603
  734MOL0     H99062   8.682   2.488   4.208 -1.5610  0.7282 -1.1240
  734MOL0     H99063   8.561   2.419   4.314  1.5167 -0.0643  0.6378
  734MOL0     H99064   8.436   2.322   4.139  0.9653 -0.9731 -3.0933
  734MOL0     H99065   8.456   2.495   4.102  1.7967  1.6141  1.0596
  734MOL0     H99066   8.597   2.252   3.968  0.4663  1.0394 -0.4469
  734MOL0     H99067   8.650   2.411   3.954 -1.8833  0.7615 -4.0198
  734MOL0     H99068   8.351   2.365   3.907 -0.3571  0.1119  0.1760
  734MOL0     H99069   8.460   2.475   3.827  0.4014  1.5555  3.3662
  734MOL0     H99070   8.894   1.886   4.800  2.2289 -4.2504  1.7782
  734MOL0     H99071   8.768   1.736   4.913  3.3140  2.3910 -1.1018
  734MOL0     H99072   8.488   1.359   4.843 -1.8285  1.2949 -1.0380
  734MOL0     H99073   8.356   1.185   4.973  1.7454  0.6803 -2.4087
  734MOL0     H99074   9.117   0.572   6.293  4.6236 -0.6939  0.4974
  734MOL0     H99075   9.263   0.565   6.498  0.3403 -0.7819 -0.9097
  734MOL0     H99076   9.373   0.619   6.956 -1.8659 -0.9660 -1.5312
  734MOL0     H99077   9.558   0.571   7.133  0.4420  0.1612  0.6582
  734MOL0     H99078   9.482   0.390   7.326  0.2149 -0.6121  1.0101
  734MOL0     H99079   9.655   0.438   7.363  2.1158 -2.7564  1.5944
  734MOL0     H99080   9.708   0.191   7.404 -1.8874 -4.4614 -1.2341
  734MOL0     H99081   9.547   0.152   7.369  1.4071 -0.8028 -1.5212
  734MOL0     H99082   9.636   0.332   7.602  1.1642 -1.8130 -0.1398
  734MOL0     H99083   9.557   0.170   7.609  0.1759  0.5228  2.0648
  734MOL0     H99084   9.415   0.417   7.524 -0.4756  0.1648  1.0333
  734MOL0     H99085   9.359   0.253   7.503  1.3780 -2.4394  0.3152
  734MOL0     H99086   9.270   0.253   7.910 -0.2517  0.7702 -0.3901
  734MOL0     H99087   9.533   0.160   7.045 -2.8572  0.2292  2.4822
  734MOL0     H99088   9.253   0.177   6.829  0.2700 -3.3600  0.1767
  734MOL0     H99089   9.407   0.166   6.745 -0.1159  1.9475 -0.1212
  734MOL0     H99090   9.371   0.072   6.895 -1.2829 -2.0909 -3.5894
  735MOL0     O99091   0.765   7.640   4.111  0.1681 -0.0932 -1.0466
  735MOL0     C99092   0.834   7.736   4.129  0.5383 -0.7973  0.8756
  735MOL0     O99093   0.806   7.863   4.133 -1.2407 -0.2147 -0.1033
  735MOL0     C99094   0.670   7.896   4.125  0.0252  0.0736 -0.0834
  735MOL0     C99095   0.620   7.967   4.012  0.1390 -0.7101 -0.4025
  735MOL0     C99096   0.480   7.985   4.005  0.3623  0.2381 -0.2459
  735MOL0     C99097   0.395   7.946   4.112  0.1979 -0.7637  0.4013
  735MOL0     O99098   0.256   7.962   4.091  1.0964  1.0273  0.2359
  735MOL0     C99099   0.202   8.087   4.050 -1.1242 -0.0363 -0.0690
  735MOL0     C99100   0.211   8.201   4.159  0.3354  0.2153 -0.2032
  735MOL0     C99101   0.182   8.159   4.296 -1.0793  0.4260  0.3559
  735MOL0     C99102   0.036   8.181   4.339 -0.3799 -0.2803 -0.3444
  735MOL0     C99103   0.033   8.145   4.491 -0.3263  0.0259 -0.4769
  735MOL0     C99104  -0.101   8.177   4.562  1.1529  0.4075 -0.2586
  735MOL0     C99105  -0.093   8.156   4.714 -0.2452 -1.2651  0.2730
  735MOL0     C99106  -0.004   8.272   4.775 -0.1565  0.5446 -0.4186
  735MOL0     N99107  -0.031   8.283   4.922  0.4476  0.1086  0.5549
  735MOL0     C99108  -0.127   8.345   4.990  0.6595  0.2943 -0.2939
  735MOL0     C99109  -0.088   8.352   5.121 -0.5831  0.3933  1.7186
  735MOL0     C99110  -0.173   8.402   5.234  0.5143  1.2228 -0.1323
  735MOL0     C99111  -0.125   8.383   5.371  0.0248  0.4362 -0.5082
  735MOL0     C99112  -0.153   8.249   5.429 -0.1715  0.3425  1.6888
  735MOL0     C99113  -0.056   8.216   5.551 -0.9087 -0.5322  0.0002
  735MOL0     O99114  -0.058   8.319   5.649  0.1392 -0.2423 -0.2474
  735MOL0     C99115  -0.179   8.356   5.711  0.2112  0.0420 -0.1040
  735MOL0     C99116  -0.180   8.482   5.760  0.7365 -0.1205 -0.3883
  735MOL0     C99117  -0.290   8.531   5.834 -0.0398  0.2801 -0.2046
  735MOL0     C99118  -0.408   8.454   5.852 -0.4423  0.1891  0.4075
  735MOL0     C99119  -0.531   8.516   5.898 -0.8597 -0.6467 -0.1082
  735MOL0     O99120  -0.515   8.611   5.994  1.0401 -0.1899 -0.2348
  735MOL0     C99121  -0.638   8.678   6.037  0.3542  0.4848 -0.1620
  735MOL0     C99122  -0.679   8.675   6.172  0.1171 -1.0039  0.1893
  735MOL0     C99123  -0.782   8.765   6.217 -0.1506  0.1410 -0.4451
  735MOL0     C99124  -0.848   8.841   6.122  0.0910  0.4093  0.0972
  735MOL0     O99125  -0.966   8.901   6.139 -0.2079 -0.8096 -0.6668
  735MOL0     C99126  -1.024   8.938   6.272 -0.6536  0.5985 -0.7417
  735MOL0     C99127  -0.956   9.075   6.313  0.3922  0.3668 -0.0425
  735MOL0     C99128  -0.972   9.188   6.210  0.1853  0.0510  0.1537
  735MOL0     C99129  -1.119   9.240   6.228 -0.1821 -0.1427 -0.5396
  735MOL0     C99130  -1.161   9.346   6.140  0.0361 -1.2266  1.0820
  735MOL0     C99131  -1.187   9.301   5.996  0.7895 -0.0412 -0.0014
  735MOL0     C99132  -1.267   9.410   5.916  1.1008  0.1582  0.6103
  735MOL0     C99133  -1.332   9.349   5.786  0.1773  0.1624 -0.4571
  735MOL0    Cl99134  -1.359   9.476   5.661 -0.0347 -0.1076  0.4497
  735MOL0     C99135  -0.800   8.845   5.989 -0.1231  0.8800  0.2378
  735MOL0     C99136  -0.696   8.763   5.943 -0.7965  0.0661  0.2775
  735MOL0     O99137  -0.633   8.498   5.839  0.0144  0.2879 -0.5136
  735MOL0     C99138  -0.408   8.316   5.804  0.0544  0.3765 -1.1325
  735MOL0     C99139  -0.296   8.280   5.724 -0.6311 -0.5316 -0.0844
  735MOL0     N99140   0.034   8.270   5.120  0.5460  1.3269 -0.0580
  735MOL0     N99141   0.058   8.230   5.001  0.7554 -0.7197 -0.2818
  735MOL0     C99142   0.450   7.885   4.225 -0.2230  0.5424  0.0891
  735MOL0     C99143   0.589   7.871   4.231  0.7511 -0.3813  0.1331
  735MOL0     C99144   0.966   7.712   4.164 -0.5164 -0.2806  0.5437
  735MOL0     C99145   1.029   7.785   4.272  0.4933  0.3133  1.1905
  735MOL0     C99146   1.165   7.793   4.289 -0.2760  0.2903  0.2245
  735MOL0     C99147   1.253   7.724   4.199  0.4323  0.1566  0.8614
  735MOL0     O99148   1.390   7.715   4.215 -0.3734 -0.1342  0.0576
  735MOL0     C99149   1.457   7.841   4.222 -0.1891  0.3811  0.3194
  735MOL0     C99150   1.543   7.851   4.103 -0.0739  0.0022  0.4588
  735MOL0     C99151   1.603   7.994   4.095 -0.1237 -0.0009 -0.6516
  735MOL0     C99152   1.642   8.037   3.962  0.6065  0.0100  0.8390
  735MOL0     C99153   1.762   7.963   3.934 -0.4170 -1.0841  0.0374
  735MOL0     C99154   1.858   7.903   3.891  0.7299 -0.0512 -0.0892
  735MOL0     C99155   1.192   7.656   4.093 -0.0971 -0.0785 -0.1102
  735MOL0     C99156   1.054   7.654   4.072  0.8191  0.4247 -0.9127
  735MOL0     C99157   1.014   7.588   3.940  0.1906 -0.3106 -0.3406
  735MOL0     H99158   0.684   7.983   3.927  1.0614  2.1077  0.6746
  735MOL0     H99159   0.438   8.021   3.912 -0.5677 -0.1047  0.0259
  735MOL0     H99160   0.251   8.110   3.955  3.9147 -2.6381  1.5360
  735MOL0     H99161   0.094   8.076   4.031 -1.2230  2.3050 -1.2899
  735MOL0     H99162   0.155   8.287   4.120  1.3020  0.6352 -0.7185
  735MOL0     H99163   0.317   8.226   4.157  0.2757  0.6509  1.2938
  735MOL0     H99164   0.252   8.215   4.359 -3.3535  1.9052  1.7582
  735MOL0     H99165   0.206   8.053   4.305  1.1024  0.5751 -2.3620
  735MOL0     H99166   0.010   8.287   4.335  0.1426 -0.1606 -0.6725
  735MOL0     H99167  -0.027   8.128   4.267  1.4009 -0.2670 -1.9930
  735MOL0     H99168   0.070   8.043   4.506 -3.9983 -1.2686  0.8366
  735MOL0     H99169   0.107   8.214   4.532 -0.3582 -0.0190 -0.3460
  735MOL0     H99170  -0.133   8.278   4.535 -1.5373 -1.1785 -3.7880
  735MOL0     H99171  -0.174   8.105   4.524 -1.3351  2.0003  1.2241
  735MOL0     H99172  -0.050   8.059   4.742  2.9501  0.1319  0.7113
  735MOL0     H99173  -0.193   8.158   4.757 -0.2039  0.8771  0.4053
  735MOL0     H99174   0.102   8.249   4.768  0.1087  1.3084  0.7222
  735MOL0     H99175  -0.020   8.370   4.728 -0.4389  1.4778  1.5290
  735MOL0     H99176  -0.220   8.395   4.963 -0.3261 -1.7910 -0.9729
  735MOL0     H99177  -0.190   8.509   5.218 -3.1721  0.8914  0.5808
  735MOL0     H99178  -0.273   8.358   5.223  0.9764 -0.7349  2.6684
  735MOL0     H99179  -0.017   8.404   5.374 -0.1805  1.4922  2.3893
  735MOL0     H99180  -0.174   8.459   5.432  3.4746  2.0921  0.4576
  735MOL0     H99181  -0.131   8.167   5.360 -0.3511  0.6136  1.3074
  735MOL0     H99182  -0.259   8.259   5.456 -0.6309 -3.1051  1.6721
  735MOL0     H99183   0.048   8.212   5.519 -0.9983 -0.4630 -0.3044
  735MOL0     H99184  -0.078   8.118   5.594  0.2844  0.3286  2.7055
  735MOL0     H99185  -0.088   8.536   5.741  2.6686 -2.5158  1.4792
  735MOL0     H99186  -0.307   8.628   5.879  1.5554 -1.6314  5.4406
  735MOL0     H99187  -0.623   8.615   6.242 -0.5420 -2.1329 -0.2273
  735MOL0     H99188  -0.818   8.749   6.318 -0.9789 -1.8401 -0.9838
  735MOL0     H99189  -1.133   8.934   6.282 -0.6616 -0.4679 -1.1166
  735MOL0     H99190  -1.005   8.866   6.352  1.7468 -0.8991 -2.5147
  735MOL0     H99191  -1.020   9.101   6.398 -2.0435 -1.5293 -1.1882
  735MOL0     H99192  -0.851   9.066   6.342  0.3689  3.4659  1.4894
  735MOL0     H99193  -0.907   9.273   6.233 -0.1157 -0.2362  2.2630
  735MOL0     H99194  -0.956   9.156   6.107 -0.9177  3.2406 -1.1702
  735MOL0     H99195  -1.127   9.262   6.335  4.3219 -0.0895  0.0025
  735MOL0     H99196  -1.190   9.158   6.221 -0.6619 -0.0166  1.9208
  735MOL0     H99197  -1.086   9.426   6.132 -4.3552  3.2909 -0.1332
  735MOL0     H99198  -1.252   9.393   6.179 -0.9677  2.7916 -4.6152
  735MOL0     H99199  -1.089   9.282   5.952  1.3425 -0.1936  1.2314
  735MOL0     H99200  -1.234   9.202   5.997  1.0836 -0.2227  2.1790
  735MOL0     H99201  -1.202   9.495   5.894  0.9048  0.2891  0.5338
  735MOL0     H99202  -1.358   9.446   5.965  0.6748 -0.7202  0.4948
  735MOL0     H99203  -1.264   9.281   5.734 -0.0901  1.6333 -2.8997
  735MOL0     H99204  -1.420   9.286   5.797  2.0628 -3.0560 -2.3692
  735MOL0     H99205  -0.851   8.893   5.905 -0.8710 -0.9422 -0.3914
  735MOL0     H99206  -0.661   8.768   5.840 -1.2059 -0.0730  0.1317
  735MOL0     H99207  -0.494   8.251   5.820  2.1506 -1.7734  3.5085
  735MOL0     H99208  -0.291   8.189   5.665  2.5049 -0.7318  0.3341
  735MOL0     H99209   0.373   7.855   4.295 -1.8960  3.1114 -0.5131
  735MOL0     H99210   0.640   7.831   4.317  1.7970 -0.7002 -0.6173
  735MOL0     H99211   0.970   7.850   4.336 -0.2754  1.6834 -0.8070
  735MOL0     H99212   1.213   7.844   4.372 -0.3036  1.2271 -0.3265
  735MOL0     H99213   1.499   7.857   4.322  0.2176 -0.6320  0.3216
  735MOL0     H99214   1.379   7.915   4.201 -1.5418 -1.7801 -2.9651
  735MOL0     H99215   1.489   7.824   4.012  2.9839 -1.4549 -1.0809
  735MOL0     H99216   1.629   7.786   4.119 -1.3410 -1.9356 -0.3196
  735MOL0     H99217   1.684   8.004   4.167 -2.3587  2.8316  1.7410
  735MOL0     H99218   1.526   8.065   4.128  0.7269  0.6207  0.0569
  735MOL0     H99219   1.575   8.013   3.880 -0.3772 -1.5607  2.0259
  735MOL0     H99220   1.654   8.145   3.963 -0.5395  0.1491  0.4136
  735MOL0     H99221   1.925   7.827   3.855 -0.3871 -2.1320  1.9678
  735MOL0     H99222   1.251   7.610   4.015 -0.9087 -2.6473  0.6781
  735MOL0     H99223   0.930   7.522   3.965 -1.0648  0.9428 -1.0565
  735MOL0     H99224   0.978   7.653   3.859 -2.3136 -2.0162 -0.7465
  735MOL0     H99225   1.083   7.510   3.906 -2.8545 -3.8843  0.9180
  736MOL0     O99226   0.089   3.622   0.911  0.3189 -0.8501  0.0782
  736MOL0     C99227   0.112   3.738   0.878 -0.5192 -0.7788  0.0381
  736MOL0     O99228   0.016   3.836   0.888 -0.3808 -0.5340  0.4512
  736MOL0     C99229  -0.106   3.800   0.936  0.2637  0.2188 -0.4328
  736MOL0     C99230  -0.127   3.796   1.069 -0.0579 -0.3341 -0.6282
  736MOL0     C99231  -0.260   3.769   1.115  0.7935 -0.6291 -0.4812
  736MOL0     C99232  -0.363   3.751   1.033  0.1829 -1.5993  0.7556
  736MOL0     O99233  -0.494   3.736   1.067 -0.3807 -1.1573 -0.4177
  736MOL0     C99234  -0.529   3.697   1.204 -0.5827  0.6867 -0.0991
  736MOL0     C99235  -0.663   3.630   1.193 -0.2475 -0.9430 -0.6153
  736MOL0     C99236  -0.737   3.592   1.323 -0.4829  0.2521  0.7886
  736MOL0     C99237  -0.668   3.493   1.398  0.1710 -1.1312  0.9727
  736MOL0     C99238  -0.764   3.466   1.516 -0.1874  0.9032 -0.0158
  736MOL0     C99239  -0.690   3.368   1.616  1.1187  0.9903  0.3450
  736MOL0     C99240  -0.764   3.235   1.626  0.0089  0.0587  0.2360
  736MOL0     C99241  -0.786   3.157   1.498 -0.6491  0.7562 -0.0203
  736MOL0     N99242  -0.913   3.090   1.500  0.2193 -0.3847  0.7178
  736MOL0     C99243  -1.018   3.113   1.423  0.4136  0.0132  0.0109
  736MOL0     C99244  -1.108   3.011   1.426 -1.1637  0.2951  0.6521
  736MOL0     C99245  -1.216   2.996   1.325 -0.2589 -0.2825 -0.5723
  736MOL0     C99246  -1.300   3.122   1.292  0.0659  0.3735  0.0241
  736MOL0     C99247  -1.352   3.184   1.424 -0.2154  0.0542  0.8413
  736MOL0     C99248  -1.397   3.329   1.408  0.1971 -0.6643  0.0407
  736MOL0     O99249  -1.293   3.399   1.344 -0.4890 -0.0354  0.0658
  736MOL0     C99250  -1.250   3.528   1.388 -1.4053  0.2310 -0.2222
  736MOL0     C99251  -1.124   3.566   1.345  0.0799  0.8974 -0.7048
  736MOL0     C99252  -1.072   3.694   1.373  0.3073 -0.0271 -0.8160
  736MOL0     C99253  -1.159   3.780   1.442  0.7429  0.1673  0.5319
  736MOL0     C99254  -1.117   3.922   1.451  0.7648  0.1376  0.5660
  736MOL0     O99255  -1.214   4.013   1.453 -0.3894  0.5389 -0.4946
  736MOL0     C99256  -1.191   4.148   1.430 -0.1358 -0.6046  0.4189
  736MOL0     C99257  -1.095   4.207   1.335  0.0959  0.1707 -0.0325
  736MOL0     C99258  -1.104   4.346   1.306  0.7437 -0.0004  0.6557
  736MOL0     C99259  -1.203   4.428   1.362  0.4026  0.5162 -0.3446
  736MOL0     O99260  -1.224   4.562   1.339 -0.8021 -0.3845  0.6640
  736MOL0     C99261  -1.158   4.631   1.236 -0.6638  0.2560  0.9635
  736MOL0     C99262  -1.027   4.703   1.294 -0.0968  0.2001 -0.0245
  736MOL0     C99263  -1.049   4.863   1.293 -0.4807 -0.1866 -0.1616
  736MOL0     C99264  -1.037   4.910   1.143 -0.2838 -0.4404  0.1479
  736MOL0     C99265  -1.065   5.058   1.108 -1.4431 -0.9098  0.4447
  736MOL0     C99266  -0.962   5.162   1.164  0.4370  0.7444 -0.4711
  736MOL0     C99267  -1.023   5.308   1.141  0.3512  0.4744 -0.3665
  736MOL0     C99268  -0.949   5.406   1.229 -0.4844  0.2879 -0.0059
  736MOL0    Cl99269  -1.049   5.552   1.241  0.2238  0.5860 -0.1860
  736MOL0     C99270  -1.290   4.371   1.457 -0.1167 -0.4051 -0.2195
  736MOL0     C99271  -1.283   4.237   1.493  0.8956 -0.1400 -0.2167
  736MOL0     O99272  -0.998   3.944   1.440 -0.6506  0.4901 -0.1324
  736MOL0     C99273  -1.280   3.737   1.493 -0.0747 -0.2530 -0.5140
  736MOL0     C99274  -1.324   3.612   1.467 -0.7798  0.5277 -1.0043
  736MOL0     N99275  -1.053   2.916   1.516 -0.8458 -0.9422  0.5227
  736MOL0     N99276  -0.931   2.960   1.552  0.1075  0.2501 -0.0460
  736MOL0     C99277  -0.337   3.748   0.892  0.9573  0.0644  0.8578
  736MOL0     C99278  -0.211   3.776   0.849  0.3088  0.4541  0.2293
  736MOL0     C99279   0.232   3.772   0.797 -0.1877  1.0260 -0.3058
  736MOL0     C99280   0.217   3.874   0.695 -0.4692  0.9066 -0.1252
  736MOL0     C99281   0.323   3.904   0.619 -0.5808 -0.2602 -0.4120
  736MOL0     C99282   0.440   3.830   0.633 -0.6748  0.7936  0.3491
  736MOL0     O99283   0.552   3.858   0.559  0.4132  0.4886 -0.1051
  736MOL0     C99284   0.580   3.993   0.541 -0.7768 -0.2635  0.6342
  736MOL0     C99285   0.728   3.979   0.503  0.5697 -0.1541  0.6090
  736MOL0     C99286   0.766   3.914   0.361 -0.1063  0.3516 -0.2290
  736MOL0     C99287   0.697   3.985   0.240 -0.1439 -0.2325  0.1411
  736MOL0     C99288   0.747   4.126   0.232  0.0610  0.5422  0.0942
  736MOL0     C99289   0.792   4.238   0.247  0.4656  0.3969  0.2726
  736MOL0     C99290   0.455   3.734   0.729  0.2130  0.0416  0.3590
  736MOL0     C99291   0.355   3.702   0.812  0.0268 -0.6229  0.4412
  736MOL0     C99292   0.379   3.587   0.896  0.3936  0.3940 -0.1815
  736MOL0     H99293  -0.046   3.804   1.140 -1.6988  0.2155  1.2602
  736MOL0     H99294  -0.278   3.781   1.221  1.6685 -1.1299 -0.2729
  736MOL0     H99295  -0.469   3.626   1.261 -1.8205 -3.2166 -3.2343
  736MOL0     H99296  -0.557   3.787   1.261 -0.3046 -1.4001  3.6441
  736MOL0     H99297  -0.648   3.546   1.125 -1.0654 -4.1637  2.8068
  736MOL0     H99298  -0.725   3.711   1.154 -0.7651 -1.1363 -0.2249
  736MOL0     H99299  -0.837   3.556   1.298  0.5482  0.1520 -4.2629
  736MOL0     H99300  -0.751   3.683   1.383  2.8433  0.7674  0.9677
  736MOL0     H99301  -0.642   3.407   1.336  2.2581  1.4594 -2.0773
  736MOL0     H99302  -0.575   3.529   1.442 -1.1582  5.2486 -0.4947
  736MOL0     H99303  -0.802   3.545   1.582  0.0676  2.1091 -1.2682
  736MOL0     H99304  -0.848   3.416   1.465  1.3325 -2.3406  0.4224
  736MOL0     H99305  -0.584   3.357   1.594  1.7855 -0.0144  3.5505
  736MOL0     H99306  -0.670   3.413   1.713  5.8507  2.8575 -1.2271
  736MOL0     H99307  -0.858   3.251   1.680  1.6350  0.3944  3.1213
  736MOL0     H99308  -0.708   3.162   1.685 -0.4451 -1.2684 -0.9253
  736MOL0     H99309  -0.780   3.224   1.411  0.4962  0.0110 -0.5498
  736MOL0     H99310  -0.703   3.085   1.494 -1.3245 -0.3269  2.9677
  736MOL0     H99311  -1.045   3.195   1.356 -2.0911 -0.9444 -0.2884
  736MOL0     H99312  -1.184   2.948   1.232  0.8940  3.3198 -2.2182
  736MOL0     H99313  -1.287   2.926   1.370  1.1470 -0.2856  1.8067
  736MOL0     H99314  -1.251   3.190   1.223 -0.5069  1.3903  0.5906
  736MOL0     H99315  -1.393   3.089   1.244  0.6527  0.5927 -1.2873
  736MOL0     H99316  -1.270   3.188   1.496  0.9792  2.7939 -0.5133
  736MOL0     H99317  -1.440   3.127   1.456 -3.0420  1.6620 -3.2877
  736MOL0     H99318  -1.428   3.376   1.502 -0.7753 -0.2732 -0.4595
  736MOL0     H99319  -1.480   3.326   1.336 -0.8015 -0.7828  1.1641
  736MOL0     H99320  -1.068   3.495   1.285 -2.8652 -0.5342 -1.9506
  736MOL0     H99321  -0.979   3.739   1.339 -0.8442  4.5912  1.2313
  736MOL0     H99322  -1.010   4.155   1.293  0.4444  0.9868 -0.3542
  736MOL0     H99323  -1.033   4.390   1.236 -1.2718  2.0028 -0.2605
  736MOL0     H99324  -1.137   4.571   1.147 -0.3139  0.8291  0.6559
  736MOL0     H99325  -1.230   4.701   1.192 -0.6951 -0.1216  0.3973
  736MOL0     H99326  -0.997   4.671   1.394  0.3103 -0.4014 -0.3357
  736MOL0     H99327  -0.948   4.679   1.223  0.2235  1.5457 -0.1564
  736MOL0     H99328  -1.143   4.891   1.342 -0.8168  2.8167 -2.2390
  736MOL0     H99329  -0.964   4.901   1.350 -1.4651  0.8446  0.6795
  736MOL0     H99330  -1.107   4.857   1.078 -1.8946  1.4098  0.2835
  736MOL0     H99331  -0.933   4.889   1.116  0.0565  0.3069  0.8328
  736MOL0     H99332  -1.173   5.074   1.118 -1.8184 -2.6151 -0.5707
  736MOL0     H99333  -1.038   5.049   1.003 -1.4098  0.6891  0.2864
  736MOL0     H99334  -0.939   5.138   1.268 -1.2192  1.7425  0.1618
  736MOL0     H99335  -0.870   5.155   1.105  0.9835  0.4235  0.3882
  736MOL0     H99336  -1.122   5.318   1.186  1.0615  4.3917  0.7168
  736MOL0     H99337  -1.026   5.342   1.037 -1.0953  3.4580  0.5280
  736MOL0     H99338  -0.920   5.374   1.329 -1.1650  1.5591  0.6339
  736MOL0     H99339  -0.862   5.439   1.172  0.0872  0.2771  0.8525
  736MOL0     H99340  -1.353   4.423   1.529  2.1465  3.0646 -0.5284
  736MOL0     H99341  -1.349   4.203   1.572  2.4180 -0.4541  0.9894
  736MOL0     H99342  -1.341   3.821   1.526  1.0375  0.3494  0.0866
  736MOL0     H99343  -1.423   3.587   1.503 -0.1703  0.1208  0.4666
  736MOL0     H99344  -0.428   3.738   0.833  0.1231  0.5142  2.0308
  736MOL0     H99345  -0.182   3.768   0.744  1.1721  0.0762  0.4840
  736MOL0     H99346   0.123   3.928   0.683 -3.2980 -3.1476  1.5844
  736MOL0     H99347   0.316   3.984   0.546  0.7507 -0.2781 -0.5803
  736MOL0     H99348   0.574   4.049   0.634 -3.6134 -0.1583  0.4661
  736MOL0     H99349   0.521   4.044   0.464  0.4295 -3.1603 -2.5055
  736MOL0     H99350   0.788   3.922   0.574 -0.0099 -4.5851 -2.0645
  736MOL0     H99351   0.766   4.081   0.494  0.6276 -0.3664 -2.8068
  736MOL0     H99352   0.728   3.811   0.360  0.6604 -0.0186  2.3492
  736MOL0     H99353   0.873   3.912   0.339 -0.2974 -0.0013 -1.1953
  736MOL0     H99354   0.738   3.926   0.157  0.4113 -0.3046  0.4643
  736MOL0     H99355   0.588   3.988   0.231  0.0288  0.8249 -2.6243
  736MOL0     H99356   0.818   4.339   0.271 -2.0486  0.5752  2.7665
  736MOL0     H99357   0.540   3.667   0.728 -1.2386 -1.8955 -1.0982
  736MOL0     H99358   0.319   3.504   0.858  0.0652 -0.1407  1.4181
  736MOL0     H99359   0.486   3.563   0.906  0.1086 -0.4221  1.1708
  736MOL0     H99360   0.343   3.618   0.995 -0.5948  1.5060 -0.8745
  737MOL0     O99361   1.521   2.773   1.213 -0.5301 -0.1135 -0.5693
  737MOL0     C99362   1.405   2.730   1.234  0.4594 -0.3824 -0.8354
  737MOL0     O99363   1.356   2.715   1.359 -0.0355 -0.1004  1.0559
  737MOL0     C99364   1.422   2.756   1.468  0.3066  0.1124 -0.2912
  737MOL0     C99365   1.422   2.889   1.512 -0.4340 -0.7970 -0.1923
  737MOL0     C99366   1.476   2.926   1.636 -0.1477 -0.1826 -0.2602
  737MOL0     C99367   1.515   2.821   1.723 -0.4526 -0.5798 -0.2924
  737MOL0     O99368   1.553   2.860   1.844 -0.8939  0.2067  0.7229
  737MOL0     C99369   1.657   2.794   1.921  0.1735 -0.4840  0.9141
  737MOL0     C99370   1.674   2.879   2.043 -0.0899  0.5232  1.0543
  737MOL0     C99371   1.566   2.854   2.157  0.2108  0.4898  0.2543
  737MOL0     C99372   1.583   2.938   2.284  1.3467 -0.6709 -1.0433
  737MOL0     C99373   1.501   2.883   2.390 -0.2101 -1.3285  0.5949
  737MOL0     C99374   1.527   2.949   2.526  0.1878 -0.3509  0.5924
  737MOL0     C99375   1.500   2.846   2.630  0.3716  0.3339  0.6193
  737MOL0     C99376   1.492   2.903   2.765  0.1127 -0.6292 -0.9402
  737MOL0     N99377   1.472   2.796   2.857 -0.4274  0.0377  0.0592
  737MOL0     C99378   1.351   2.742   2.874  1.7346 -0.2976  0.1936
  737MOL0     C99379   1.369   2.617   2.913  0.6175  0.1432  0.3396
  737MOL0     C99380   1.247   2.528   2.922  0.5633 -0.4975  0.0522
  737MOL0     C99381   1.183   2.495   2.784  0.1928 -0.0905  1.2381
  737MOL0     C99382   1.068   2.398   2.806  0.1900 -0.1009  0.5088
  737MOL0     C99383   1.014   2.345   2.674 -0.5862  1.4698  0.5437
  737MOL0     O99384   0.883   2.292   2.688 -0.1705 -0.0047 -0.2699
  737MOL0     C99385   0.851   2.181   2.766  0.1664  0.6108  0.0073
  737MOL0     C99386   0.714   2.152   2.803  0.2945 -0.4998 -0.1703
  737MOL0     C99387   0.677   2.039   2.878 -0.0217 -0.6645 -1.1526
  737MOL0     C99388   0.782   1.954   2.930 -0.3875 -0.4752 -0.3025
  737MOL0     C99389   0.750   1.840   3.031  0.1689  0.6661  0.0784
  737MOL0     O99390   0.848   1.761   3.060 -0.3505  0.8900  0.5742
  737MOL0     C99391   0.842   1.678   3.170  0.0491 -0.2119  0.2018
  737MOL0     C99392   0.885   1.550   3.162  0.6570 -0.2041  0.5410
  737MOL0     C99393   0.873   1.456   3.271 -0.4544  0.3938 -0.2308
  737MOL0     C99394   0.839   1.504   3.400 -0.2674  0.1334 -0.3600
  737MOL0     O99395   0.826   1.429   3.513  0.4700  0.5295  0.6669
  737MOL0     C99396   0.890   1.303   3.513 -0.1124  0.0142  0.1574
  737MOL0     C99397   0.896   1.245   3.658 -0.0423  0.5823  0.0138
  737MOL0     C99398   0.959   1.357   3.744  0.3297  0.4231  0.6946
  737MOL0     C99399   0.969   1.298   3.894  0.7492  0.4988 -0.7214
  737MOL0     C99400   1.029   1.408   3.984 -0.1156 -0.6006  0.7190
  737MOL0     C99401   1.171   1.469   3.950  0.7855  0.5901  1.0910
  737MOL0     C99402   1.288   1.375   3.926 -0.3572  0.2924  0.0902
  737MOL0     C99403   1.421   1.448   3.888 -0.1145 -0.3514  0.1504
  737MOL0    Cl99404   1.439   1.595   3.984 -0.4849  0.6389  0.2389
  737MOL0     C99405   0.790   1.630   3.409  0.3134 -0.2464 -0.1576
  737MOL0     C99406   0.796   1.720   3.297 -0.1334  0.2290 -0.0601
  737MOL0     O99407   0.634   1.828   3.058  0.7027  0.2351 -0.2501
  737MOL0     C99408   0.912   1.986   2.905  0.0405  0.8519  2.0388
  737MOL0     C99409   0.943   2.097   2.826 -0.4466 -0.3038 -0.2283
  737MOL0     N99410   1.500   2.597   2.928  0.1065 -0.3525 -0.7441
  737MOL0     N99411   1.567   2.700   2.882 -0.0576 -0.7425  0.3086
  737MOL0     C99412   1.524   2.689   1.679 -0.5998 -1.1508  0.5093
  737MOL0     C99413   1.474   2.659   1.552 -0.5744  0.5485 -0.5772
  737MOL0     C99414   1.310   2.686   1.130  0.0226  0.1904 -0.9225
  737MOL0     C99415   1.173   2.683   1.157 -0.3292  0.0397  0.7734
  737MOL0     C99416   1.081   2.633   1.060 -0.3780  1.3224 -0.4822
  737MOL0     C99417   1.117   2.613   0.934  0.2933 -0.6239  0.0394
  737MOL0     O99418   1.008   2.604   0.853 -0.4412  0.6595 -0.7167
  737MOL0     C99419   1.019   2.638   0.714 -0.5610  0.2539  0.0438
  737MOL0     C99420   1.050   2.788   0.695  0.2621 -0.6850  0.2038
  737MOL0     C99421   1.059   2.833   0.550 -0.1111  1.0441 -0.0230
  737MOL0     C99422   1.175   2.763   0.477  0.0554  0.2542 -0.4628
  737MOL0     C99423   1.138   2.741   0.335  0.5123  0.3686  0.5499
  737MOL0     C99424   1.111   2.693   0.228  0.0853  0.3348  0.2402
  737MOL0     C99425   1.254   2.624   0.898  0.9708 -0.2873 -0.6555
  737MOL0     C99426   1.349   2.661   0.992 -0.5835  0.2814 -0.1083
  737MOL0     C99427   1.490   2.684   0.939 -0.3919 -0.6540  0.4361
  737MOL0     H99428   1.378   2.963   1.446 -0.5162  0.6259  1.3875
  737MOL0     H99429   1.491   3.026   1.676  1.1251 -0.5237  0.1468
  737MOL0     H99430   1.620   2.697   1.956 -0.2169 -0.2543  1.1483
  737MOL0     H99431   1.752   2.783   1.868  0.1517  1.4114  0.4213
  737MOL0     H99432   1.669   2.983   2.008 -0.7671  1.0063  2.4803
  737MOL0     H99433   1.779   2.878   2.074  1.0858 -0.5200 -2.4724
  737MOL0     H99434   1.583   2.751   2.191 -0.9207  0.4465  0.7378
  737MOL0     H99435   1.466   2.857   2.115  0.4440  0.8737 -0.2836
  737MOL0     H99436   1.688   2.946   2.313  0.8111 -0.9655  1.1178
  737MOL0     H99437   1.552   3.043   2.273  1.3588 -0.6097 -0.5276
  737MOL0     H99438   1.394   2.890   2.365  0.2676  3.1467 -1.1561
  737MOL0     H99439   1.523   2.776   2.400 -1.0659 -1.8020 -1.8255
  737MOL0     H99440   1.629   2.985   2.542  0.0057  0.3770  0.1497
  737MOL0     H99441   1.465   3.039   2.536  1.8747  1.4397 -3.0637
  737MOL0     H99442   1.577   2.769   2.624 -0.9380 -1.0561  0.9203
  737MOL0     H99443   1.405   2.799   2.600 -0.4257  1.8241  0.7127
  737MOL0     H99444   1.582   2.964   2.777 -0.6499  1.3034 -3.7900
  737MOL0     H99445   1.405   2.970   2.766  0.8959  0.4492 -1.7551
  737MOL0     H99446   1.255   2.787   2.855  0.6832 -2.8142 -0.9595
  737MOL0     H99447   1.284   2.437   2.969  3.8053  0.8045  0.3034
  737MOL0     H99448   1.180   2.565   3.000  0.9472  1.0088 -0.3010
  737MOL0     H99449   1.145   2.587   2.739 -0.3518  0.2280  2.3164
  737MOL0     H99450   1.262   2.446   2.728  1.5609 -1.2453  4.0088
  737MOL0     H99451   0.983   2.442   2.859 -0.0062  0.0585  0.0700
  737MOL0     H99452   1.101   2.314   2.866  0.2652 -1.2712 -1.0960
  737MOL0     H99453   1.071   2.264   2.627 -1.2922 -0.0885  2.2303
  737MOL0     H99454   1.004   2.425   2.600  0.1432  0.5210 -0.6215
  737MOL0     H99455   0.639   2.215   2.756  2.9079  2.4466 -0.7265
  737MOL0     H99456   0.574   2.016   2.903 -0.1025  1.7267  1.1807
  737MOL0     H99457   0.913   1.517   3.063 -2.1871 -0.5095 -0.2556
  737MOL0     H99458   0.903   1.352   3.262  1.7436  1.1841 -6.0201
  737MOL0     H99459   0.844   1.233   3.443  2.6178 -0.1862 -1.6293
  737MOL0     H99460   0.994   1.314   3.480  1.1609 -2.6387  2.7635
  737MOL0     H99461   0.793   1.213   3.677 -0.9459 -1.3508 -5.9904
  737MOL0     H99462   0.957   1.155   3.646 -3.9097 -1.8986 -3.3366
  737MOL0     H99463   1.063   1.375   3.713  0.9221 -3.6673 -0.2677
  737MOL0     H99464   0.891   1.442   3.736  0.9512  1.0238  1.5778
  737MOL0     H99465   1.030   1.207   3.896 -1.1613 -0.8507  1.4669
  737MOL0     H99466   0.875   1.262   3.936 -0.5904  1.3887 -2.7683
  737MOL0     H99467   1.032   1.369   4.086 -0.7342  0.3249  1.1087
  737MOL0     H99468   0.964   1.496   3.987 -1.1346 -1.3246  0.7359
  737MOL0     H99469   1.161   1.541   3.867  2.4762  0.7920  1.0404
  737MOL0     H99470   1.184   1.527   4.042 -0.2646  1.3683  0.7821
  737MOL0     H99471   1.271   1.293   3.855 -1.1279 -1.6034  2.3654
  737MOL0     H99472   1.311   1.324   4.020  2.5740  1.0075 -0.1183
  737MOL0     H99473   1.503   1.376   3.882  0.5466  0.4740 -1.1338
  737MOL0     H99474   1.413   1.491   3.788 -0.9689  1.5793  0.9906
  737MOL0     H99475   0.755   1.664   3.506 -0.3672  1.9906 -1.1338
  737MOL0     H99476   0.780   1.827   3.303  3.2030  0.7630  1.4488
  737MOL0     H99477   0.984   1.914   2.942 -1.0167 -1.4537 -0.0952
  737MOL0     H99478   1.050   2.103   2.807 -0.8164  2.1365 -1.8865
  737MOL0     H99479   1.543   2.609   1.750  0.1085 -2.1176 -0.7249
  737MOL0     H99480   1.482   2.558   1.513 -0.2775 -0.6302  2.2967
  737MOL0     H99481   1.136   2.723   1.251 -0.2890  3.7217 -0.6065
  737MOL0     H99482   0.974   2.633   1.079 -0.5947 -2.0418 -1.0492
  737MOL0     H99483   0.921   2.616   0.669 -1.1211 -1.3956  1.9411
  737MOL0     H99484   1.097   2.577   0.669 -1.0104 -1.4064  1.3988
  737MOL0     H99485   1.139   2.814   0.752 -0.3932  2.3993 -0.0345
  737MOL0     H99486   0.964   2.844   0.733 -0.9683 -2.8063  0.6875
  737MOL0     H99487   1.073   2.939   0.529  2.3079  0.7568 -0.1825
  737MOL0     H99488   0.963   2.802   0.508 -0.9733  2.4950  0.8242
  737MOL0     H99489   1.267   2.820   0.492 -0.6120  1.6604 -1.4749
  737MOL0     H99490   1.188   2.663   0.520  1.4765  0.9423  0.8042
  737MOL0     H99491   1.089   2.661   0.128 -0.7800  0.6385  0.3182
  737MOL0     H99492   1.280   2.607   0.794  2.6493 -1.0933 -0.1407
  737MOL0     H99493   1.565   2.627   0.994  0.5407 -1.4202 -1.5369
  737MOL0     H99494   1.509   2.646   0.839  3.5339 -0.6267  1.0159
  737MOL0     H99495   1.508   2.792   0.942 -2.4179 -0.2811  2.1539
  738MOL0     O99496   5.787   9.585   8.418  0.1534  0.1610 -0.6745
  738MOL0     C99497   5.702   9.503   8.385 -0.6389  0.1816  0.0018
  738MOL0     O99498   5.586   9.525   8.306 -0.4386  0.5326  0.1575
  738MOL0     C99499   5.546   9.653   8.315 -1.1842  0.2657  0.6300
  738MOL0     C99500   5.564   9.749   8.213 -0.0622 -0.2049 -0.0166
  738MOL0     C99501   5.486   9.862   8.202 -0.4087 -0.7229  0.4354
  738MOL0     C99502   5.401   9.895   8.305 -1.2871  0.2670 -0.5677
  738MOL0     O99503   5.348  10.018   8.290 -0.7036 -0.2937 -0.6449
  738MOL0     C99504   5.203  10.017   8.266  0.8341 -0.3270  0.0813
  738MOL0     C99505   5.111  10.069   8.377 -0.7310  0.1198 -1.0543
  738MOL0     C99506   5.149  10.205   8.428  0.1912 -0.5707 -0.2763
  738MOL0     C99507   5.034  10.243   8.517 -0.5426 -1.3017 -0.5845
  738MOL0     C99508   5.073  10.334   8.633  0.4054 -0.5894 -0.1069
  738MOL0     C99509   5.137  10.254   8.744  0.3187  0.0412 -0.2069
  738MOL0     C99510   5.062  10.131   8.813 -0.1471  0.3592 -0.5068
  738MOL0     C99511   4.942  10.170   8.908 -0.1559  0.6915  1.5046
  738MOL0     N99512   4.991  10.189   9.039 -0.1034 -0.4550  0.0760
  738MOL0     C99513   5.066  10.309   9.077  0.0097 -0.0068  0.8402
  738MOL0     C99514   5.110  10.281   9.200 -0.7493 -0.7318 -0.3698
  738MOL0     C99515   5.206  10.373   9.274 -0.2458  0.1762 -0.1053
  738MOL0     C99516   5.140  10.464   9.381  0.0922 -0.2126  0.4637
  738MOL0     C99517   5.037  10.388   9.472 -0.6709  0.6229 -0.3527
  738MOL0     C99518   5.003  10.449   9.598  0.7427 -0.0961  1.0811
  738MOL0     O99519   5.011  10.349   9.696  0.2531 -0.0369 -0.3484
  738MOL0     C99520   5.112  10.356   9.792  0.6313 -0.2870  0.1249
  738MOL0     C99521   5.073  10.326   9.920 -1.0297  0.0772  0.5126
  738MOL0     C99522   5.160  10.333  10.025  0.5310  0.2309  0.1722
  738MOL0     C99523   5.292  10.375  10.013 -0.0075  0.2627  0.1736
  738MOL0     C99524   5.396  10.365  10.118 -0.0878  0.0702 -0.6189
  738MOL0     O99525   5.352  10.320  10.234  0.1867 -1.1714  0.0520
  738MOL0     C99526   5.432  10.298  10.344  0.0778 -0.5063  1.5793
  738MOL0     C99527   5.370  10.314  10.466 -0.7087 -0.1998  0.5183
  738MOL0     C99528   5.428  10.287  10.590 -0.0894 -0.6311  1.0551
  738MOL0     C99529   5.566  10.243  10.588  2.0967  0.5897  1.1849
  738MOL0     O99530   5.638  10.214  10.709  0.7433 -0.8279  0.0710
  738MOL0     C99531   5.568  10.164  10.828 -0.6943  0.3743 -0.0111
  738MOL0     C99532   5.667  10.125  10.941 -0.6360  1.0844 -1.3300
  738MOL0     C99533   5.800  10.061  10.898  0.4934 -0.0014 -0.5749
  738MOL0     C99534   5.776   9.933  10.821 -0.5366 -0.6184  0.0615
  738MOL0     C99535   5.904   9.884  10.753 -0.5023 -0.2520  1.1803
  738MOL0     C99536   5.954   9.763  10.837 -0.4104  0.3151  0.9246
  738MOL0     C99537   6.100   9.710  10.826 -0.4518 -0.0999  0.8620
  738MOL0     C99538   6.114   9.574  10.892 -0.1237 -0.0317 -0.8920
  738MOL0    Cl99539   6.117   9.585  11.066  0.0693  0.3488 -0.0776
  738MOL0     C99540   5.631  10.239  10.467 -0.3357  0.3053 -0.5287
  738MOL0     C99541   5.565  10.257  10.343  0.3322 -1.1131  0.5005
  738MOL0     O99542   5.516  10.371  10.078  0.8961 -0.1029  0.2227
  738MOL0     C99543   5.332  10.406   9.880  0.1056 -0.4630  0.1727
  738MOL0     C99544   5.246  10.388   9.770  0.0682  0.1058  0.8800
  738MOL0     N99545   5.070  10.159   9.240  0.3013 -0.4811  0.0743
  738MOL0     N99546   4.996  10.107   9.149  0.5036 -0.0442  0.2798
  738MOL0     C99547   5.372   9.801   8.405  0.2211  0.0686 -1.0296
  738MOL0     C99548   5.446   9.686   8.409 -0.3368  0.4955 -0.7965
  738MOL0     C99549   5.735   9.362   8.408 -0.1693  0.9584 -0.2214
  738MOL0     C99550   5.657   9.273   8.328  0.2585  1.0298 -0.3619
  738MOL0     C99551   5.690   9.134   8.323  0.7011 -0.1680 -0.1708
  738MOL0     C99552   5.808   9.084   8.381  0.1798  0.0953 -0.1179
  738MOL0     O99553   5.840   8.951   8.378 -0.2130  0.0052 -0.0234
  738MOL0     C99554   5.757   8.864   8.306 -0.0124  0.2150  0.3980
  738MOL0     C99555   5.808   8.719   8.338  0.1203  1.4429 -0.8658
  738MOL0     C99556   5.930   8.674   8.268 -0.5803  1.0901 -0.1741
  738MOL0     C99557   5.968   8.534   8.312 -0.8026 -0.0024 -0.0504
  738MOL0     C99558   5.866   8.438   8.275 -0.2781  0.5898 -0.4196
  738MOL0     C99559   5.780   8.362   8.235  0.1706 -0.2577 -0.4158
  738MOL0     C99560   5.874   9.165   8.464 -0.1022 -0.4696  0.1281
  738MOL0     C99561   5.846   9.306   8.478 -0.3251  0.2696 -0.4300
  738MOL0     C99562   5.947   9.393   8.551 -0.0305 -0.0362  0.1408
  738MOL0     H99563   5.631   9.720   8.132  1.7127  1.0687  0.9117
  738MOL0     H99564   5.507   9.926   8.116  1.7297 -1.1038  0.6228
  738MOL0     H99565   5.183  10.074   8.175  3.9054 -0.2455 -0.6357
  738MOL0     H99566   5.171   9.920   8.227  0.1794 -0.7476  1.6089
  738MOL0     H99567   5.111  10.000   8.462 -0.8688 -0.3790 -1.4603
  738MOL0     H99568   5.009  10.070   8.337 -2.4635  1.3727  2.8412
  738MOL0     H99569   5.152  10.264   8.336  2.4606 -1.7877 -1.0845
  738MOL0     H99570   5.244  10.215   8.482 -0.4720 -0.4047  0.8722
  738MOL0     H99571   4.969  10.296   8.447 -0.2567 -3.6874 -2.8160
  738MOL0     H99572   4.987  10.155   8.563 -0.5631 -0.8068  0.3491
  738MOL0     H99573   5.145  10.402   8.586 -0.5080 -1.1896 -2.5450
  738MOL0     H99574   4.983  10.384   8.671  0.5453  0.5271 -1.1890
  738MOL0     H99575   5.230  10.219   8.697 -0.8700 -1.2902 -1.6402
  738MOL0     H99576   5.145  10.327   8.825 -2.2256 -0.0693  0.2260
  738MOL0     H99577   5.133  10.065   8.863 -0.9622 -0.8931 -0.9409
  738MOL0     H99578   5.029  10.066   8.731 -1.0702  0.9763 -0.6413
  738MOL0     H99579   4.899  10.264   8.872 -1.3741  1.5023  4.7167
  738MOL0     H99580   4.869  10.088   8.908 -2.0622  2.1969 -1.6199
  738MOL0     H99581   5.094  10.400   9.024 -0.2757  0.9735  2.3158
  738MOL0     H99582   5.270  10.302   9.327  0.3819 -0.4397 -1.6280
  738MOL0     H99583   5.266  10.422   9.198  2.2767 -1.0944  0.9550
  738MOL0     H99584   5.212  10.516   9.444 -1.7223  0.0022  2.4878
  738MOL0     H99585   5.077  10.541   9.336 -0.7361 -0.6046  0.9306
  738MOL0     H99586   5.085  10.292   9.495  3.1119  2.9107  2.3067
  738MOL0     H99587   4.946  10.364   9.416 -0.2602 -2.8726  0.2297
  738MOL0     H99588   4.900  10.488   9.600  0.4438  0.0470 -4.1505
  738MOL0     H99589   5.069  10.532   9.626  1.0716  0.4203 -1.0949
  738MOL0     H99590   4.967  10.313   9.937 -0.6367 -3.2031  1.1272
  738MOL0     H99591   5.119  10.300  10.121 -2.8472  1.2239 -0.7978
  738MOL0     H99592   5.267  10.344  10.479 -0.9257 -0.6524 -0.1284
  738MOL0     H99593   5.377  10.292  10.686 -0.3437  5.1902  1.0147
  738MOL0     H99594   5.503  10.240  10.873 -0.8914  0.9855 -1.2879
  738MOL0     H99595   5.495  10.084  10.809 -1.0295  0.4930  0.7367
  738MOL0     H99596   5.693  10.217  10.995  2.0338 -1.6904  2.6231
  738MOL0     H99597   5.627  10.058  11.017  2.6834 -1.6434 -1.7699
  738MOL0     H99598   5.856  10.127  10.831 -0.0882  0.8114 -0.2880
  738MOL0     H99599   5.863  10.042  10.985  1.5667  2.3923 -0.7350
  738MOL0     H99600   5.696   9.962  10.752  0.1625  0.0869 -0.4784
  738MOL0     H99601   5.730   9.861  10.889 -1.7256  0.2687  0.2173
  738MOL0     H99602   5.986   9.955  10.739 -1.9620  1.5094  1.2553
  738MOL0     H99603   5.865   9.860  10.654 -1.0906 -3.2653  2.0473
  738MOL0     H99604   5.934   9.781  10.943 -2.4236  3.1847  0.1720
  738MOL0     H99605   5.884   9.683  10.813 -1.6237  1.0578  1.8726
  738MOL0     H99606   6.182   9.779  10.849 -0.3847  0.7109 -1.5233
  738MOL0     H99607   6.117   9.701  10.719 -0.4512  1.7619  0.6595
  738MOL0     H99608   6.025   9.514  10.873 -1.1824  0.1743  2.6426
  738MOL0     H99609   6.205   9.523  10.859 -0.4308 -0.0104 -1.8163
  738MOL0     H99610   5.737  10.220  10.472  0.3345  3.6742  2.5823
  738MOL0     H99611   5.632  10.249  10.257  1.2053  1.5332  0.8199
  738MOL0     H99612   5.429  10.443   9.849  0.6060 -2.3712 -0.7254
  738MOL0     H99613   5.286  10.405   9.671 -3.2227 -2.5851 -1.1352
  738MOL0     H99614   5.302   9.831   8.482 -0.9809  1.3005 -2.5096
  738MOL0     H99615   5.433   9.615   8.490  1.9004 -0.0822 -0.8929
  738MOL0     H99616   5.567   9.312   8.281 -1.2276 -0.4565  1.0781
  738MOL0     H99617   5.625   9.078   8.255 -1.2837  1.9929 -0.1852
  738MOL0     H99618   5.764   8.870   8.197  2.6759 -0.5466  0.4468
  738MOL0     H99619   5.656   8.871   8.346 -0.4267 -3.1943  0.2245
  738MOL0     H99620   5.739   8.646   8.294  2.2677 -0.2501 -1.5557
  738MOL0     H99621   5.824   8.696   8.443  1.1897 -1.3758 -1.5544
  738MOL0     H99622   6.015   8.740   8.289  1.6958 -0.6802 -3.0693
  738MOL0     H99623   5.924   8.682   8.159 -2.3405 -1.3184 -0.3167
  738MOL0     H99624   6.063   8.510   8.263 -0.9200  0.9099 -0.7529
  738MOL0     H99625   5.981   8.515   8.419 -2.9006 -2.9304 -0.1953
  738MOL0     H99626   5.714   8.287   8.195  2.4335 -2.7896  0.2705
  738MOL0     H99627   5.956   9.115   8.514  0.1139  0.5688  0.8583
  738MOL0     H99628   5.991   9.464   8.480  0.9984 -2.4691 -1.7804
  738MOL0     H99629   5.890   9.453   8.623  0.8025  0.6788  0.2194
  738MOL0     H99630   6.027   9.329   8.590  0.4195 -2.2470 -3.9065
  739MOL0     O99631   9.476   2.931   2.527  0.2417  0.3667  0.4225
  739MOL0     C99632   9.401   2.994   2.456 -1.4957  0.4185 -0.0250
  739MOL0     O99633   9.369   2.955   2.327  0.1936  0.5736  0.2152
  739MOL0     C99634   9.329   2.824   2.313  0.3932 -0.0488  0.0964
  739MOL0     C99635   9.211   2.784   2.375  0.3130 -0.1378  1.0617
  739MOL0     C99636   9.151   2.651   2.361 -0.0921 -0.1722 -0.0364
  739MOL0     C99637   9.234   2.552   2.299 -0.0764  0.7493 -0.0575
  739MOL0     O99638   9.199   2.413   2.288  0.5204  0.7508 -0.5280
  739MOL0     C99639   9.192   2.356   2.422 -0.2328 -0.0717  0.8900
  739MOL0     C99640   9.224   2.210   2.408  0.0285 -0.8975 -0.0854
  739MOL0     C99641   9.360   2.164   2.358  0.6367 -0.0136 -0.9509
  739MOL0     C99642   9.368   2.010   2.348 -0.0243  0.4359  0.0845
  739MOL0     C99643   9.507   1.962   2.327 -0.2177  0.1148 -1.4386
  739MOL0     C99644   9.504   1.811   2.331 -0.3277 -0.2211 -0.3238
  739MOL0     C99645   9.636   1.747   2.300  0.1901  0.8196 -0.2175
  739MOL0     C99646   9.636   1.592   2.323  0.0925  0.8736 -0.1840
  739MOL0     N99647   9.524   1.521   2.263  0.2029  0.5806 -0.4077
  739MOL0     C99648   9.430   1.455   2.338  0.8623 -0.2017  0.6665
  739MOL0     C99649   9.356   1.390   2.245 -0.1767  0.3788 -0.3466
  739MOL0     C99650   9.234   1.298   2.271 -0.5000 -0.5588 -0.5935
  739MOL0     C99651   9.109   1.382   2.300 -0.2628 -1.1488  0.3819
  739MOL0     C99652   8.991   1.279   2.307 -0.2963 -0.6055  0.7519
  739MOL0     C99653   8.861   1.335   2.368 -0.4969  0.4599 -0.1095
  739MOL0     O99654   8.880   1.350   2.508 -0.3810  0.4337 -0.1541
  739MOL0     C99655   8.783   1.416   2.580 -0.2977 -0.3646  0.5265
  739MOL0     C99656   8.824   1.461   2.705 -0.5315 -0.8019 -0.3190
  739MOL0     C99657   8.739   1.529   2.797  0.5647 -0.3022  0.5324
  739MOL0     C99658   8.618   1.575   2.749  0.0989 -1.3101 -0.0177
  739MOL0     C99659   8.525   1.639   2.842 -0.0696  1.2247 -0.3926
  739MOL0     O99660   8.548   1.625   2.977  0.4285 -0.9815 -0.0442
  739MOL0     C99661   8.442   1.650   3.067  0.9593 -0.0056  1.0081
  739MOL0     C99662   8.345   1.745   3.058  0.2410 -0.6460  0.5701
  739MOL0     C99663   8.240   1.762   3.155  1.4075  0.1724  0.1921
  739MOL0     C99664   8.253   1.678   3.271  0.7154  2.0257  0.2187
  739MOL0     O99665   8.166   1.698   3.374 -0.1149 -0.6323 -0.1802
  739MOL0     C99666   8.224   1.692   3.513 -0.4344 -0.2803 -0.4870
  739MOL0     C99667   8.291   1.820   3.555 -0.1135 -0.6401 -0.2719
  739MOL0     C99668   8.413   1.861   3.471 -0.5173  1.1856  0.6473
  739MOL0     C99669   8.492   1.985   3.526 -0.2599 -0.6631  0.1072
  739MOL0     C99670   8.622   2.033   3.441  0.3694 -0.4225 -0.2853
  739MOL0     C99671   8.611   1.991   3.286  0.0023  0.3997  0.5413
  739MOL0     C99672   8.721   2.063   3.210  0.8030  0.4018 -0.6617
  739MOL0     C99673   8.732   2.013   3.070  0.0485 -0.3584  0.1743
  739MOL0    Cl99674   8.590   2.050   2.985 -0.1671 -0.4046 -0.1011
  739MOL0     C99675   8.346   1.570   3.273 -0.5321  0.9097 -0.1244
  739MOL0     C99676   8.434   1.557   3.171 -0.5081  0.2295  0.1646
  739MOL0     O99677   8.420   1.676   2.792  0.9010 -0.1052  0.4637
  739MOL0     C99678   8.583   1.550   2.614  0.0426  0.6215  0.7015
  739MOL0     C99679   8.660   1.470   2.533 -1.5734  0.2391 -0.8164
  739MOL0     N99680   9.402   1.421   2.112  0.2734  0.8651  0.1423
  739MOL0     N99681   9.501   1.504   2.131  0.1764  0.3307  0.4269
  739MOL0     C99682   9.354   2.589   2.240 -1.1523 -0.1348  0.2121
  739MOL0     C99683   9.398   2.725   2.242 -0.2618 -0.5092  0.7723
  739MOL0     C99684   9.392   3.138   2.489 -0.5557  0.6592  0.4265
  739MOL0     C99685   9.444   3.233   2.395 -0.1453  0.1467 -0.0712
  739MOL0     C99686   9.422   3.371   2.413 -0.0688  0.1765 -0.3326
  739MOL0     C99687   9.370   3.424   2.528  0.0638 -0.3821 -0.3818
  739MOL0     O99688   9.356   3.557   2.537  0.2090  0.6180  0.2892
  739MOL0     C99689   9.350   3.609   2.670  0.5766 -0.0068  0.4860
  739MOL0     C99690   9.479   3.589   2.739 -0.0962 -0.4994  0.5264
  739MOL0     C99691   9.609   3.640   2.663 -0.3567 -0.3398 -0.0033
  739MOL0     C99692   9.729   3.536   2.675 -0.0421  0.1910  0.9903
  739MOL0     C99693   9.777   3.512   2.811 -0.4609  0.2295  0.8224
  739MOL0     C99694   9.804   3.493   2.923 -0.8790 -0.2058 -1.0098
  739MOL0     C99695   9.325   3.328   2.621 -0.1022 -0.6513 -0.0406
  739MOL0     C99696   9.333   3.182   2.609 -0.9937 -0.2578 -0.1225
  739MOL0     C99697   9.283   3.086   2.714 -0.6154 -0.9723 -0.4907
  739MOL0     H99698   9.155   2.859   2.430  2.2953  1.9136  0.4034
  739MOL0     H99699   9.062   2.609   2.408  0.0673 -2.1498 -1.3784
  739MOL0     H99700   9.266   2.403   2.488  0.5978  1.5008 -1.0179
  739MOL0     H99701   9.092   2.365   2.465 -0.3468  2.2270  0.3032
  739MOL0     H99702   9.154   2.184   2.328 -0.2038  3.0871 -1.3880
  739MOL0     H99703   9.199   2.168   2.506  1.0249  1.1373  1.1020
  739MOL0     H99704   9.425   2.195   2.441 -2.7742  0.2685  1.8301
  739MOL0     H99705   9.396   2.221   2.272  3.5245  0.8745  0.6813
  739MOL0     H99706   9.313   1.960   2.428  1.8568 -1.3833  0.3234
  739MOL0     H99707   9.311   1.983   2.258 -1.0000 -1.8490  1.3150
  739MOL0     H99708   9.558   1.999   2.239  1.2886  2.8731  0.4605
  739MOL0     H99709   9.566   2.002   2.410  0.4198  0.6053 -2.1257
  739MOL0     H99710   9.479   1.776   2.431  1.1199  0.7248  0.3959
  739MOL0     H99711   9.430   1.776   2.258 -1.1556 -1.8169  1.2067
  739MOL0     H99712   9.714   1.786   2.365 -0.2510 -1.5134  1.8648
  739MOL0     H99713   9.673   1.763   2.198  2.2613  0.0860  0.3630
  739MOL0     H99714   9.723   1.557   2.267 -1.0073  0.0629 -1.4386
  739MOL0     H99715   9.653   1.560   2.427 -0.2426 -0.9558 -0.6641
  739MOL0     H99716   9.410   1.457   2.445  0.5936 -0.8292  0.6348
  739MOL0     H99717   9.215   1.236   2.183 -3.1384 -0.1102 -0.4339
  739MOL0     H99718   9.254   1.230   2.354 -0.7471  1.6370  1.3887
  739MOL0     H99719   9.119   1.442   2.391  0.8197 -0.9234  0.1307
  739MOL0     H99720   9.094   1.449   2.215  0.2349 -3.3942 -1.5958
  739MOL0     H99721   9.015   1.185   2.356 -0.2035 -1.1082 -0.2322
  739MOL0     H99722   8.981   1.241   2.205  1.0519 -0.8646  0.6976
  739MOL0     H99723   8.777   1.271   2.342 -2.2815  2.5727  0.2056
  739MOL0     H99724   8.837   1.434   2.330 -1.3695  0.1785 -0.3080
  739MOL0     H99725   8.928   1.442   2.730  0.5618  0.5205 -3.3287
  739MOL0     H99726   8.773   1.548   2.898  0.9624 -0.3903  0.4155
  739MOL0     H99727   8.363   1.830   2.993  1.2503  0.3489  2.0916
  739MOL0     H99728   8.167   1.842   3.147  0.6774 -0.0919  2.9985
  739MOL0     H99729   8.136   1.676   3.575 -1.0815 -0.3190 -1.3920
  739MOL0     H99730   8.283   1.600   3.523 -1.5565 -1.1179 -1.2362
  739MOL0     H99731   8.217   1.900   3.541 -0.9321 -1.3049  0.1674
  739MOL0     H99732   8.325   1.813   3.659 -2.2133 -2.4753  0.3807
  739MOL0     H99733   8.482   1.777   3.460  1.8754  3.3221 -2.0659
  739MOL0     H99734   8.385   1.896   3.371 -1.2704 -2.0580 -0.4079
  739MOL0     H99735   8.527   1.946   3.622 -0.8436 -2.7040 -0.4539
  739MOL0     H99736   8.416   2.062   3.538  2.1239  2.6388 -3.5801
  739MOL0     H99737   8.709   1.985   3.486  1.2250  2.9718  2.0928
  739MOL0     H99738   8.632   2.141   3.458  2.3519 -1.0285  3.0778
  739MOL0     H99739   8.621   1.883   3.277  0.6900  0.5379 -0.5226
  739MOL0     H99740   8.512   2.021   3.248  1.2498  2.9480 -0.9290
  739MOL0     H99741   8.815   2.024   3.250  1.1317 -0.4921 -2.2230
  739MOL0     H99742   8.721   2.172   3.224  1.8195  0.3748 -0.3779
  739MOL0     H99743   8.811   2.065   3.016 -1.6723  0.8460 -1.2880
  739MOL0     H99744   8.744   1.904   3.076  3.7615 -0.2378 -2.0613
  739MOL0     H99745   8.341   1.491   3.347 -1.2293 -1.7933 -2.8499
  739MOL0     H99746   8.506   1.477   3.184 -1.2890 -0.6884 -0.9950
  739MOL0     H99747   8.502   1.601   2.563  1.1113  2.8671  1.1331
  739MOL0     H99748   8.625   1.435   2.436 -1.9930  0.7770 -0.8622
  739MOL0     H99749   9.417   2.513   2.193 -1.2483  1.1353 -2.0920
  739MOL0     H99750   9.484   2.754   2.181 -1.3163 -0.0631 -0.5709
  739MOL0     H99751   9.484   3.191   2.303 -5.3343 -1.2472 -2.0444
  739MOL0     H99752   9.445   3.433   2.327  0.6904 -1.4117 -1.3128
  739MOL0     H99753   9.266   3.568   2.727  0.0048  0.9287  0.3389
  739MOL0     H99754   9.337   3.716   2.651 -0.1003 -0.2672 -0.6148
  739MOL0     H99755   9.487   3.482   2.759 -2.6042 -0.8144  0.1683
  739MOL0     H99756   9.474   3.648   2.830 -0.5606 -0.4913  0.4990
  739MOL0     H99757   9.646   3.737   2.699  0.9566 -1.4360  1.7529
  739MOL0     H99758   9.582   3.644   2.557 -0.0630 -0.9272 -0.0996
  739MOL0     H99759   9.693   3.441   2.634  0.3703  0.3454  0.2680
  739MOL0     H99760   9.811   3.570   2.611  0.3447  0.8779  1.8330
  739MOL0     H99761   9.837   3.509   3.024 -1.2346 -0.1738 -0.9001
  739MOL0     H99762   9.281   3.365   2.713  0.3881 -1.2440  0.4380
  739MOL0     H99763   9.258   3.139   2.806  4.4363  1.0058  0.0392
  739MOL0     H99764   9.188   3.047   2.675 -2.0956  2.4634 -0.6569
  739MOL0     H99765   9.361   3.014   2.741  2.6352  2.4801  0.0109
  740MOL0     O99766   3.744   6.205   8.525 -0.2390 -0.1607 -0.5296
  740MOL0     C99767   3.647   6.264   8.476  0.6079 -0.8480  0.5296
  740MOL0     O99768   3.599   6.383   8.525  0.3262  0.3256 -0.3657
  740MOL0     C99769   3.670   6.442   8.628  0.6508 -0.4460  0.2784
  740MOL0     C99770   3.809   6.462   8.637  0.4999 -0.0636 -0.1706
  740MOL0     C99771   3.861   6.554   8.728 -0.4771  0.4858 -0.3649
  740MOL0     C99772   3.779   6.602   8.839 -0.1312 -0.1146 -0.5007
  740MOL0     O99773   3.847   6.668   8.936 -0.1928 -0.2335  0.2353
  740MOL0     C99774   3.936   6.776   8.900 -0.6877 -0.8883 -0.2168
  740MOL0     C99775   3.852   6.893   8.855  0.0919  0.0162 -0.0210
  740MOL0     C99776   3.761   6.946   8.965  0.0598  0.6558 -0.3821
  740MOL0     C99777   3.678   7.070   8.908  0.1628  0.8801 -0.6661
  740MOL0     C99778   3.769   7.194   8.896 -0.3254 -0.2384  0.2256
  740MOL0     C99779   3.767   7.284   9.018  0.6694 -0.5868 -0.8629
  740MOL0     C99780   3.869   7.394   8.986  0.4986 -0.1471 -0.0006
  740MOL0     C99781   4.006   7.357   9.050  0.3102 -0.6281 -0.1518
  740MOL0     N99782   4.067   7.239   8.973  0.1234 -0.4261 -0.8541
  740MOL0     C99783   4.120   7.234   8.848 -0.0112  0.1821  1.4159
  740MOL0     C99784   4.184   7.116   8.845 -0.2050 -0.2402  0.9342
  740MOL0     C99785   4.261   7.049   8.722 -1.4213 -1.0930 -1.0788
  740MOL0     C99786   4.188   6.997   8.605  0.0982 -0.6528 -1.3398
  740MOL0     C99787   4.273   6.912   8.512 -0.1732  0.6040  0.0486
  740MOL0     C99788   4.318   6.779   8.576 -0.0238  0.1567 -0.0992
  740MOL0     O99789   4.326   6.686   8.470  0.3557 -0.1979 -0.0927
  740MOL0     C99790   4.447   6.677   8.405 -0.6427  0.0952  0.8821
  740MOL0     C99791   4.560   6.767   8.418 -0.7712  1.1716 -0.4008
  740MOL0     C99792   4.684   6.726   8.362 -0.3276 -0.3610  0.8528
  740MOL0     C99793   4.712   6.606   8.301 -0.8568 -0.8878  0.6519
  740MOL0     C99794   4.846   6.575   8.248  0.1054  0.2659  0.4971
  740MOL0     O99795   4.862   6.464   8.178 -0.1256 -0.2905 -0.3748
  740MOL0     C99796   4.991   6.435   8.158 -0.9171 -1.3519  0.0015
  740MOL0     C99797   5.075   6.515   8.073  0.6796 -0.2821 -0.4278
  740MOL0     C99798   5.200   6.466   8.042  0.5683  0.2244 -0.2304
  740MOL0     C99799   5.249   6.346   8.107  0.4595 -0.0977 -0.1816
  740MOL0     O99800   5.378   6.330   8.085  0.2470  0.2386  0.4775
  740MOL0     C99801   5.443   6.219   8.147 -0.0126 -0.3344 -0.1973
  740MOL0     C99802   5.569   6.193   8.072 -0.4693 -0.3770  0.0472
  740MOL0     C99803   5.562   6.165   7.929  0.4185  0.3579  0.0032
  740MOL0     C99804   5.696   6.097   7.870  0.8734  0.9378 -1.4099
  740MOL0     C99805   5.680   6.020   7.735  0.4921 -0.2408  0.0786
  740MOL0     C99806   5.610   5.880   7.757 -1.5169 -0.4006 -0.0492
  740MOL0     C99807   5.596   5.806   7.627  0.1936 -0.3405  0.4116
  740MOL0     C99808   5.474   5.700   7.639  0.9101  0.1356  0.2406
  740MOL0    Cl99809   5.547   5.552   7.704 -0.0134  0.1359 -0.2289
  740MOL0     C99810   5.177   6.279   8.201  0.3304  1.1955  0.4357
  740MOL0     C99811   5.044   6.317   8.221 -0.1437  0.5467 -0.1004
  740MOL0     O99812   4.929   6.670   8.266  0.2509 -0.0691 -0.1308
  740MOL0     C99813   4.603   6.522   8.281 -0.5264 -0.0886 -0.7182
  740MOL0     C99814   4.479   6.551   8.341  1.0980 -0.1681 -0.9774
  740MOL0     N99815   4.157   7.051   8.961  0.9810  1.2521  0.2681
  740MOL0     N99816   4.096   7.124   9.040 -0.2537  0.4567 -1.1245
  740MOL0     C99817   3.639   6.571   8.837  0.1008 -0.9010  0.5023
  740MOL0     C99818   3.586   6.498   8.731 -0.0868 -0.5739 -0.9928
  740MOL0     C99819   3.578   6.200   8.364  0.4657  0.1759 -0.0015
  740MOL0     C99820   3.649   6.105   8.284 -0.3038  0.4879  0.6617
  740MOL0     C99821   3.592   6.059   8.163  0.2289  0.2881 -0.2713
  740MOL0     C99822   3.461   6.073   8.137 -0.0760  0.1255  0.0433
  740MOL0     O99823   3.404   5.997   8.042 -0.7479 -0.2226  0.1682
  740MOL0     C99824   3.438   5.856   8.027  0.1279  0.2916  0.1968
  740MOL0     C99825   3.316   5.763   7.990  0.4639 -0.3822 -0.2421
  740MOL0     C99826   3.343   5.612   8.002  0.2121  0.2098  0.5500
  740MOL0     C99827   3.421   5.553   7.880 -0.4667 -0.2270  0.0060
  740MOL0     C99828   3.449   5.409   7.904 -0.2328 -0.9690  0.7407
  740MOL0     C99829   3.492   5.301   7.921 -0.4357  1.6354  0.3715
  740MOL0     C99830   3.390   6.166   8.207 -0.4361  0.3471 -0.0226
  740MOL0     C99831   3.439   6.224   8.326 -1.1755 -0.5392 -0.3441
  740MOL0     C99832   3.347   6.315   8.409  0.4866 -0.6060 -0.5371
  740MOL0     H99833   3.871   6.409   8.566 -0.2641  2.2227 -2.7346
  740MOL0     H99834   3.965   6.568   8.700 -0.4984 -0.0076 -0.6824
  740MOL0     H99835   3.994   6.805   8.987  1.1543 -1.3844 -1.2314
  740MOL0     H99836   4.016   6.739   8.835  0.2213 -1.9819  1.4653
  740MOL0     H99837   3.798   6.854   8.768 -0.1334 -3.9037  1.6327
  740MOL0     H99838   3.920   6.968   8.815 -0.2277  0.9831  1.2088
  740MOL0     H99839   3.818   6.964   9.056 -1.4690 -1.9918  1.2493
  740MOL0     H99840   3.692   6.866   8.992  1.3413  0.5607  3.1389
  740MOL0     H99841   3.643   7.041   8.809  2.6251 -2.9563 -0.6421
  740MOL0     H99842   3.590   7.080   8.971  0.8777  0.8548  0.3647
  740MOL0     H99843   3.868   7.154   8.872 -0.9626 -0.6206 -1.9903
  740MOL0     H99844   3.741   7.242   8.801 -0.8035  1.3348  1.1335
  740MOL0     H99845   3.672   7.335   9.036  2.4537  2.3414  0.9344
  740MOL0     H99846   3.784   7.223   9.107 -1.1842 -2.3988 -1.6642
  740MOL0     H99847   3.828   7.480   9.039 -0.0100 -0.4208  0.0630
  740MOL0     H99848   3.870   7.416   8.879 -2.4850  3.4682  0.5157
  740MOL0     H99849   4.068   7.448   9.042 -0.1065 -0.4432 -1.7141
  740MOL0     H99850   4.010   7.333   9.156  0.2568 -1.0958 -0.2539
  740MOL0     H99851   4.111   7.312   8.774  1.2954 -1.7506 -0.9367
  740MOL0     H99852   4.356   7.099   8.701 -0.7699 -1.6665  0.3556
  740MOL0     H99853   4.301   6.958   8.767  0.7192  0.5061  0.4922
  740MOL0     H99854   4.100   6.944   8.642 -1.0247 -0.4540 -3.5311
  740MOL0     H99855   4.157   7.080   8.540  1.8968 -1.0666 -2.8168
  740MOL0     H99856   4.367   6.960   8.482  0.1725  0.8364  1.4355
  740MOL0     H99857   4.216   6.891   8.421  0.5787  0.2146 -0.3417
  740MOL0     H99858   4.237   6.744   8.642  1.2302 -1.0042  0.8968
  740MOL0     H99859   4.410   6.780   8.635  0.0099  0.2547 -0.1539
  740MOL0     H99860   4.560   6.865   8.466  3.0111  1.2767 -0.2730
  740MOL0     H99861   4.767   6.795   8.376  0.5918 -0.8204 -1.6269
  740MOL0     H99862   5.043   6.604   8.021  1.6546 -0.3823 -1.2246
  740MOL0     H99863   5.263   6.515   7.969  1.1549  0.7672  0.6202
  740MOL0     H99864   5.459   6.248   8.252  0.2485  1.0522 -0.5994
  740MOL0     H99865   5.382   6.128   8.142  0.9468 -1.0904  1.1959
  740MOL0     H99866   5.639   6.277   8.080  2.2320 -1.8429 -4.5086
  740MOL0     H99867   5.626   6.114   8.123 -0.2597 -0.3690 -0.1718
  740MOL0     H99868   5.473   6.103   7.920 -1.0011  2.5277 -1.9712
  740MOL0     H99869   5.543   6.254   7.868  1.5010 -0.0351 -0.9343
  740MOL0     H99870   5.750   6.033   7.940  4.0194  1.4556 -3.1832
  740MOL0     H99871   5.764   6.182   7.855 -0.2619  1.8134 -1.7713
  740MOL0     H99872   5.781   6.012   7.694 -0.2461 -0.2226 -1.8280
  740MOL0     H99873   5.619   6.072   7.661 -0.0514 -0.7768  0.1460
  740MOL0     H99874   5.670   5.822   7.828 -1.4654  2.0190  2.0316
  740MOL0     H99875   5.517   5.887   7.814 -2.8495 -2.0918 -1.8700
  740MOL0     H99876   5.688   5.766   7.584  0.2988 -1.9560  1.9875
  740MOL0     H99877   5.553   5.870   7.550  0.8564 -1.0401 -0.5560
  740MOL0     H99878   5.402   5.734   7.714 -0.2706 -2.2102  0.2460
  740MOL0     H99879   5.420   5.691   7.544  2.0459 -1.3092 -0.3131
  740MOL0     H99880   5.210   6.192   8.256 -4.0898 -0.2988  1.1243
  740MOL0     H99881   4.984   6.266   8.295  0.1007  0.8302  0.2999
  740MOL0     H99882   4.620   6.429   8.228 -0.2148 -1.4740  1.6371
  740MOL0     H99883   4.403   6.473   8.346  0.6102  0.2005 -2.3053
  740MOL0     H99884   3.588   6.616   8.922 -0.7399 -0.8941  0.0013
  740MOL0     H99885   3.478   6.506   8.721  0.2380  2.3055 -3.6604
  740MOL0     H99886   3.753   6.077   8.300  0.6259  1.8012 -2.2290
  740MOL0     H99887   3.648   5.997   8.092 -0.0370  1.4171 -1.5124
  740MOL0     H99888   3.480   5.816   8.120 -1.3542  2.1346  1.7345
  740MOL0     H99889   3.512   5.849   7.947  1.2006 -0.0691  1.1814
  740MOL0     H99890   3.273   5.776   7.890 -1.1527 -4.2781 -0.2407
  740MOL0     H99891   3.237   5.781   8.064  0.1589 -1.8194 -0.1746
  740MOL0     H99892   3.243   5.566   7.996  0.6670 -0.6184 -1.9333
  740MOL0     H99893   3.386   5.590   8.099 -1.8035  2.4974  2.0915
  740MOL0     H99894   3.358   5.562   7.792  0.5934  0.3689 -0.7251
  740MOL0     H99895   3.514   5.602   7.850 -0.3682 -0.5410 -0.2062
  740MOL0     H99896   3.523   5.201   7.943 -3.6490  0.8153  1.7559
  740MOL0     H99897   3.289   6.184   8.170 -0.5427  1.9399  0.9408
  740MOL0     H99898   3.334   6.290   8.515  0.4134  0.1470 -0.3584
  740MOL0     H99899   3.380   6.418   8.388  1.2217 -0.8177 -0.4485
  740MOL0     H99900   3.246   6.310   8.368  1.3199 -2.3657 -2.5822
  741MOL0     O99901   4.289  10.760   7.088 -0.2070  0.1285  0.4354
  741MOL0     C99902   4.168  10.744   7.091  0.6298  0.5461  0.0532
  741MOL0     O99903   4.082  10.782   7.187  0.5011 -1.1050  0.2829
  741MOL0     C99904   4.138  10.827   7.297 -0.8902  0.0419 -0.8221
  741MOL0     C99905   4.128  10.969   7.326 -0.1055 -0.0642 -0.0810
  741MOL0     C99906   4.186  11.011   7.455 -0.2098  0.4333  0.1762
  741MOL0     C99907   4.247  10.914   7.541 -0.2076 -1.1211 -0.1473
  741MOL0     O99908   4.307  10.970   7.648  0.2954  0.3998  0.3044
  741MOL0     C99909   4.261  10.908   7.775  0.1548  0.0219  0.1966
  741MOL0     C99910   4.282  10.990   7.914 -0.0033 -0.1979 -0.6793
  741MOL0     C99911   4.192  11.115   7.929 -0.3536 -0.4305 -0.4264
  741MOL0     C99912   4.140  11.122   8.067 -0.2683 -0.0467  0.7009
  741MOL0     C99913   4.049  11.242   8.065 -0.7971  0.4042 -0.3451
  741MOL0     C99914   3.954  11.216   8.177 -0.4675 -0.9882 -0.0486
  741MOL0     C99915   3.810  11.159   8.136 -0.6500 -0.1504  0.6416
  741MOL0     C99916   3.830  11.015   8.096 -1.1243  0.2409 -0.4625
  741MOL0     N99917   3.690  10.962   8.067  1.2039 -0.6530  0.7777
  741MOL0     C99918   3.608  11.000   7.959  0.8097  0.5279  0.1942
  741MOL0     C99919   3.500  10.907   7.963 -1.6922 -0.1818 -0.8553
  741MOL0     C99920   3.393  10.879   7.863  0.0928 -0.1334  0.6043
  741MOL0     C99921   3.436  10.867   7.715 -0.1664 -0.2750 -0.3610
  741MOL0     C99922   3.496  10.734   7.695  0.0302 -0.3906  0.4599
  741MOL0     C99923   3.391  10.621   7.690  0.2903 -0.4969  0.4350
  741MOL0     O99924   3.475  10.504   7.702  0.1667  0.6092 -0.2767
  741MOL0     C99925   3.511  10.450   7.828  0.1384  0.1320 -0.5559
  741MOL0     C99926   3.606  10.354   7.827  0.3226  0.3835 -0.0825
  741MOL0     C99927   3.657  10.295   7.939  0.0674 -0.4361  0.3088
  741MOL0     C99928   3.612  10.346   8.064 -0.3015  0.4423 -1.0403
  741MOL0     C99929   3.683  10.294   8.178  0.5726  0.5438 -0.5585
  741MOL0     O99930   3.800  10.225   8.153 -0.1314  0.8094 -0.7209
  741MOL0     C99931   3.881  10.216   8.263 -0.3533  0.1461  0.5113
  741MOL0     C99932   3.860  10.117   8.357  0.5464  0.5107  0.1248
  741MOL0     C99933   3.965  10.084   8.451 -0.1854  0.1135  0.6211
  741MOL0     C99934   4.066  10.173   8.465 -0.1507  0.4693  0.6948
  741MOL0     O99935   4.158  10.140   8.562 -0.0418  0.4398  0.1721
  741MOL0     C99936   4.227  10.250   8.629  0.3578 -0.4001  0.1128
  741MOL0     C99937   4.241  10.214   8.771 -0.2451  0.3055 -0.3790
  741MOL0     C99938   4.338  10.314   8.837  0.4513 -0.2448  0.4888
  741MOL0     C99939   4.362  10.279   8.987 -0.8682  0.1202 -0.2326
  741MOL0     C99940   4.480  10.363   9.032  1.1277 -0.3470 -0.7316
  741MOL0     C99941   4.541  10.323   9.170  0.2406  0.1031 -0.1890
  741MOL0     C99942   4.661  10.404   9.216  0.1848  0.6673 -0.0976
  741MOL0     C99943   4.660  10.547   9.183  0.2074 -0.9140 -0.5411
  741MOL0    Cl99944   4.785  10.605   9.295  0.0956  0.1197  0.0903
  741MOL0     C99945   4.084  10.278   8.378  0.1723  0.0246  1.1161
  741MOL0     C99946   3.991  10.298   8.276  0.6727 -0.6346  0.2975
  741MOL0     O99947   3.641  10.320   8.290 -0.1923 -0.3609 -0.2136
  741MOL0     C99948   3.512  10.442   8.074  0.5800  0.0514  0.3868
  741MOL0     C99949   3.464  10.493   7.949 -0.0968 -1.2953 -0.0115
  741MOL0     N99950   3.513  10.829   8.080 -0.5311  0.4900 -0.0823
  741MOL0     N99951   3.621  10.861   8.138 -0.4716 -0.3878 -0.6626
  741MOL0     C99952   4.262  10.781   7.502 -0.3594 -0.1932  0.0014
  741MOL0     C99953   4.211  10.740   7.378  0.1234  0.2640 -0.2115
  741MOL0     C99954   4.109  10.650   6.991  0.7193  0.0302 -0.7443
  741MOL0     C99955   3.999  10.573   7.034 -0.5871 -0.1200 -0.2015
  741MOL0     C99956   3.933  10.493   6.935  0.3135  0.2436 -0.3851
  741MOL0     C99957   3.968  10.493   6.795 -0.0968  0.9161 -0.5992
  741MOL0     O99958   3.900  10.413   6.719 -0.2390 -0.2593 -0.0749
  741MOL0     C99959   3.923  10.413   6.580  0.0514 -0.2271 -0.0522
  741MOL0     C99960   4.046  10.330   6.550  0.1391  0.2151  0.4367
  741MOL0     C99961   4.059  10.326   6.390 -0.3111  0.2419 -0.6279
  741MOL0     C99962   4.204  10.329   6.334  0.0113 -0.5586  0.2250
  741MOL0     C99963   4.279  10.444   6.374  0.2584 -0.6316 -0.5360
  741MOL0     C99964   4.329  10.531   6.432 -0.0219 -0.3410 -0.7825
  741MOL0     C99965   4.077  10.570   6.761 -0.3911  1.1942 -0.1075
  741MOL0     C99966   4.147  10.643   6.856  1.6054 -0.2291 -0.2098
  741MOL0     C99967   4.274  10.710   6.803 -0.1195  0.5360 -0.4120
  741MOL0     H99968   4.076  11.043   7.266  0.3170  0.7773  0.5649
  741MOL0     H99969   4.180  11.112   7.496 -3.2356  0.1234  0.7028
  741MOL0     H99970   4.152  10.900   7.770 -0.1145  0.5009  3.2968
  741MOL0     H99971   4.309  10.810   7.781  1.8297  0.6130 -2.1725
  741MOL0     H99972   4.390  11.008   7.910  0.1199 -0.9006 -0.7401
  741MOL0     H99973   4.263  10.928   8.003  1.3466  2.6280  1.7240
  741MOL0     H99974   4.104  11.105   7.865  0.9119  0.2243 -2.3535
  741MOL0     H99975   4.255  11.198   7.895  0.7901 -0.9717  0.2938
  741MOL0     H99976   4.092  11.024   8.083 -1.2401 -0.3905 -3.2244
  741MOL0     H99977   4.221  11.135   8.139  0.0957  0.4772  0.2032
  741MOL0     H99978   4.117  11.325   8.088  1.9814 -1.1512 -2.2889
  741MOL0     H99979   3.995  11.267   7.973 -0.2694 -0.6872 -0.9710
  741MOL0     H99980   3.991  11.137   8.243 -1.3669 -2.0135 -0.7348
  741MOL0     H99981   3.936  11.310   8.229 -1.8541 -0.9502 -0.5507
  741MOL0     H99982   3.778  11.213   8.047 -4.0158  0.5481  2.1318
  741MOL0     H99983   3.744  11.164   8.223  1.0196 -0.8458  2.0029
  741MOL0     H99984   3.883  11.010   8.001 -0.6141  1.7599 -0.2867
  741MOL0     H99985   3.877  10.958   8.177 -0.3491  0.4384 -0.7673
  741MOL0     H99986   3.635  11.073   7.885 -3.1496  1.8246 -0.1957
  741MOL0     H99987   3.340  10.791   7.900 -1.2885  0.8020  0.9251
  741MOL0     H99988   3.321  10.961   7.856  0.4040  0.0185 -1.2170
  741MOL0     H99989   3.363  10.892   7.637 -0.5914 -0.5874 -0.0681
  741MOL0     H99990   3.516  10.936   7.688 -0.1416  0.5226  1.5770
  741MOL0     H99991   3.571  10.700   7.767  1.1674 -2.5079 -1.5770
  741MOL0     H99992   3.547  10.737   7.599 -0.0035  1.5195  0.4640
  741MOL0     H99993   3.341  10.625   7.593  1.6254 -1.6464 -0.3505
  741MOL0     H99994   3.313  10.633   7.766  0.4216 -0.7788  0.6163
  741MOL0     H99995   3.648  10.328   7.730  1.6313  0.3129  0.4854
  741MOL0     H99996   3.731  10.216   7.928 -1.0863 -1.5659  0.4109
  741MOL0     H99997   3.766  10.064   8.350  1.8538 -1.7172 -2.4399
  741MOL0     H99998   3.952   9.999   8.517 -0.8616  1.4711  2.3217
  741MOL0     H99999   4.325  10.267   8.584 -0.3819  1.4604 -0.9307
  741MOL0     H    0   4.166  10.341   8.630 -1.1914 -1.3674  2.2157
  741MOL0     H    1   4.145  10.209   8.823  0.0184 -2.8113  0.0082
  741MOL0     H    2   4.286  10.115   8.779 -3.1515 -0.9521  3.4283
  741MOL0     H    3   4.431  10.294   8.782  1.4819  1.4915  1.5096
  741MOL0     H    4   4.316  10.421   8.840  2.4290  0.4163 -3.0736
  741MOL0     H    5   4.381  10.172   8.999 -1.0140  0.1314  0.1266
  741MOL0     H    6   4.284  10.312   9.056  1.2404  2.2718  1.3104
  741MOL0     H    7   4.433  10.461   9.039  1.4731 -0.2194 -0.0761
  741MOL0     H    8   4.550  10.368   8.948  1.3741  1.8922 -0.4445
  741MOL0     H    9   4.463  10.314   9.246 -0.2471 -2.6032 -0.9359
  741MOL0     H   10   4.574  10.220   9.155 -1.0470 -0.6705  1.9062
  741MOL0     H   11   4.753  10.362   9.175 -0.0277  1.0126 -0.9646
  741MOL0     H   12   4.675  10.394   9.324 -0.1419  3.0354  0.2133
  741MOL0     H   13   4.680  10.575   9.079  1.6022  0.4288  0.0482
  741MOL0     H   14   4.557  10.579   9.203  0.1361 -1.6168  0.2862
  741MOL0     H   15   4.160  10.355   8.391 -0.7021  0.9319  0.9639
  741MOL0     H   16   4.019  10.359   8.191  5.8996 -0.8393  1.5367
  741MOL0     H   17   3.483  10.476   8.173 -1.1927 -1.0196  0.2781
  741MOL0     H   18   3.392  10.574   7.959 -0.4007 -1.0746 -3.1843
  741MOL0     H   19   4.317  10.719   7.572  0.5175 -0.7112 -1.1157
  741MOL0     H   20   4.231  10.637   7.350 -0.6976 -0.8475  2.8370
  741MOL0     H   21   3.954  10.586   7.132  0.7944  1.7682  0.2401
  741MOL0     H   22   3.847  10.434   6.966 -0.2403  0.1619 -2.0011
  741MOL0     H   23   3.944  10.515   6.547  0.6117 -0.1470  0.5370
  741MOL0     H   24   3.833  10.397   6.520 -0.9493  2.9645  0.3886
  741MOL0     H   25   4.034  10.227   6.586  3.3394 -0.0090  1.2043
  741MOL0     H   26   4.125  10.377   6.609 -0.2756  2.0235 -0.3594
  741MOL0     H   27   4.004  10.413   6.352  1.2473  1.7401  0.4324
  741MOL0     H   28   4.005  10.239   6.350 -0.4725  0.9832 -2.1084
  741MOL0     H   29   4.244  10.236   6.374  1.7853  1.0002  2.3509
  741MOL0     H   30   4.210  10.315   6.225  2.2479 -2.4186  0.5076
  741MOL0     H   31   4.392  10.607   6.474 -1.0743  1.3545 -2.0944
  741MOL0     H   32   4.129  10.568   6.666  2.7687 -1.2302  1.4537
  741MOL0     H   33   4.292  10.687   6.697  0.5058  0.7929 -0.3669
  741MOL0     H   34   4.286  10.817   6.821 -1.8126  0.6328  0.3203
  741MOL0     H   35   4.358  10.660   6.853 -1.2099  0.8133  1.8212
  742MOL0     O   36   0.330   4.734   1.208  0.3664  0.3519  0.6011
  742MOL0     C   37   0.365   4.714   1.326  0.1425 -0.1868  0.1840
  742MOL0     O   38   0.462   4.780   1.385  0.1755 -0.4250  0.1257
  742MOL0     C   39   0.521   4.885   1.321 -0.3157  0.0433 -0.2027
  742MOL0     C   40   0.601   4.865   1.216 -0.4191  0.5991  0.2957
  742MOL0     C   41   0.662   4.971   1.153 -0.8025  0.8357  0.3608
  742MOL0     C   42   0.652   5.098   1.195 -0.2843  0.6091  0.1343
  742MOL0     O   43   0.724   5.195   1.125 -0.7538  0.1091 -0.2500
  742MOL0     C   44   0.801   5.293   1.199 -0.2866  0.1076 -1.1291
  742MOL0     C   45   0.947   5.280   1.168  0.2543  0.2686 -0.2479
  742MOL0     C   46   1.026   5.391   1.233  0.1881 -0.5909 -0.4989
  742MOL0     C   47   1.167   5.414   1.180  0.0822  0.1404  0.2958
  742MOL0     C   48   1.230   5.554   1.200 -0.3032 -1.0791  0.1989
  742MOL0     C   49   1.341   5.578   1.094  0.0208 -0.7853 -0.8802
  742MOL0     C   50   1.394   5.721   1.119 -0.4180  0.5981 -0.1805
  742MOL0     C   51   1.536   5.730   1.081 -0.2915 -0.6733  0.4589
  742MOL0     N   52   1.560   5.734   0.939  0.1623  0.5557  0.2360
  742MOL0     C   53   1.601   5.630   0.854  0.0587  0.0622 -0.5701
  742MOL0     C   54   1.624   5.690   0.735 -0.2959 -0.1515 -0.4699
  742MOL0     C   55   1.684   5.608   0.616  0.0617  0.3149  0.2956
  742MOL0     C   56   1.586   5.584   0.500 -0.6264  0.3849 -0.2424
  742MOL0     C   57   1.447   5.529   0.533  1.0560  0.5581 -0.6762
  742MOL0     C   58   1.454   5.402   0.617  0.3416  1.0617  0.1769
  742MOL0     O   59   1.323   5.373   0.655  0.0259  0.5383  0.0530
  742MOL0     C   60   1.310   5.278   0.750 -0.8943  0.2080 -1.0722
  742MOL0     C   61   1.182   5.256   0.797 -0.3916  0.2401  0.1664
  742MOL0     C   62   1.158   5.164   0.891  0.2185  1.2997  0.2058
  742MOL0     C   63   1.259   5.080   0.936  1.0015 -0.1957  0.1692
  742MOL0     C   64   1.231   4.980   1.042  0.0546 -0.2859  0.1766
  742MOL0     O   65   1.322   4.870   1.055 -0.5057  0.3536  0.2834
  742MOL0     C   66   1.307   4.781   1.156  0.5587 -0.1811  0.2399
  742MOL0     C   67   1.421   4.763   1.221  0.3721  0.5081  0.0863
  742MOL0     C   68   1.432   4.659   1.316 -0.5821  0.1468 -0.2287
  742MOL0     C   69   1.318   4.584   1.352 -0.1667 -0.6413 -0.4902
  742MOL0     O   70   1.334   4.502   1.458  0.0223  0.5658  0.0622
  742MOL0     C   71   1.241   4.516   1.561 -0.0972  0.1893 -1.1208
  742MOL0     C   72   1.301   4.452   1.700  0.4857 -0.0867 -0.4570
  742MOL0     C   73   1.395   4.548   1.766 -0.7105  1.4270  0.7206
  742MOL0     C   74   1.493   4.466   1.853  0.0805  0.5277 -0.1923
  742MOL0     C   75   1.587   4.566   1.916 -0.8921 -0.3689 -0.3609
  742MOL0     C   76   1.659   4.511   2.037  0.4829  0.1522 -0.1311
  742MOL0     C   77   1.766   4.605   2.092 -0.3197  0.6214 -0.1998
  742MOL0     C   78   1.721   4.754   2.098  0.5968 -1.2426  0.2275
  742MOL0    Cl   79   1.856   4.839   2.191 -0.4007 -0.5171 -0.2726
  742MOL0     C   80   1.201   4.608   1.284  0.3980 -0.4803 -0.1915
  742MOL0     C   81   1.191   4.705   1.187 -0.7558  0.0558 -0.2330
  742MOL0     O   82   1.127   4.993   1.110 -0.8626  0.4740  0.0646
  742MOL0     C   83   1.387   5.098   0.889  0.2095  0.1275 -0.5330
  742MOL0     C   84   1.418   5.193   0.793 -0.1163  0.4808  0.0331
  742MOL0     N   85   1.586   5.820   0.744 -1.2426  1.0293  0.7641
  742MOL0     N   86   1.555   5.847   0.861  0.2490  0.1908  0.2048
  742MOL0     C   87   0.558   5.128   1.299 -0.2539 -0.0043  0.6495
  742MOL0     C   88   0.498   5.014   1.358  0.0193  0.3848  0.2022
  742MOL0     C   89   0.320   4.594   1.397 -0.1801  0.1615 -0.9206
  742MOL0     C   90   0.303   4.601   1.539  0.4213 -0.1458  0.9970
  742MOL0     C   91   0.254   4.499   1.605  0.4516  0.0068 -0.4253
  742MOL0     C   92   0.224   4.375   1.533  0.4395 -0.0911 -0.0243
  742MOL0     O   93   0.174   4.252   1.585  0.3289 -0.8929 -1.3123
  742MOL0     C   94   0.174   4.236   1.732  0.2421  0.1962 -0.8400
  742MOL0     C   95   0.178   4.091   1.768 -0.3691 -0.6558 -0.1031
  742MOL0     C   96   0.055   4.000   1.729  0.3313 -0.1673  0.9267
  742MOL0     C   97  -0.076   4.038   1.796  0.5004  0.8904  1.1686
  742MOL0     C   98  -0.065   3.999   1.935  0.5373  0.0687 -0.3790
  742MOL0     C   99  -0.078   3.976   2.059  0.8060  0.5617 -0.6182
  742MOL0     C  100   0.257   4.369   1.398 -0.0515  0.3523 -0.2068
  742MOL0     C  101   0.304   4.474   1.322  0.0761  0.9210  0.0822
  742MOL0     C  102   0.308   4.459   1.172  0.0909 -0.1137  0.0485
  742MOL0     H  103   0.617   4.762   1.184 -0.4559 -0.0164  2.1285
  742MOL0     H  104   0.717   4.944   1.063 -2.9163 -0.4133 -0.6430
  742MOL0     H  105   0.759   5.385   1.157 -2.1465 -0.9767 -1.7631
  742MOL0     H  106   0.761   5.299   1.301 -1.1574  1.4336 -1.5177
  742MOL0     H  107   0.957   5.283   1.059 -0.8174 -2.5889 -0.5137
  742MOL0     H  108   0.982   5.188   1.216 -0.1258  0.4890  0.4672
  742MOL0     H  109   1.044   5.368   1.338  1.8130  2.6777  0.0921
  742MOL0     H  110   0.973   5.487   1.223  0.8432 -0.2670 -0.9597
  742MOL0     H  111   1.232   5.333   1.216  0.3640 -0.2735 -1.0559
  742MOL0     H  112   1.153   5.398   1.072 -1.0536  2.1239  0.1077
  742MOL0     H  113   1.146   5.623   1.187 -0.0734 -0.6504  0.9425
  742MOL0     H  114   1.271   5.576   1.298 -1.4979 -0.7778  0.6467
  742MOL0     H  115   1.426   5.513   1.115  1.5168  0.7315 -2.0000
  742MOL0     H  116   1.298   5.559   0.995 -3.4545  2.8753 -0.3175
  742MOL0     H  117   1.380   5.740   1.225 -1.8494  0.1711 -0.2632
  742MOL0     H  118   1.333   5.795   1.066 -0.0262  3.4778  3.0441
  742MOL0     H  119   1.562   5.829   1.121 -1.0113 -0.4246  0.3233
  742MOL0     H  120   1.604   5.655   1.122 -0.0913  0.1236  1.6513
  742MOL0     H  121   1.617   5.525   0.876  2.1451  0.3788 -0.3751
  742MOL0     H  122   1.765   5.668   0.575 -1.1682  0.1662 -2.6004
  742MOL0     H  123   1.727   5.514   0.650  1.3913 -0.1142 -2.3390
  742MOL0     H  124   1.563   5.673   0.441 -4.0226 -0.5303 -0.5070
  742MOL0     H  125   1.632   5.510   0.433 -1.3587 -1.2864  1.0258
  742MOL0     H  126   1.387   5.514   0.443 -2.5783  0.2800  1.5868
  742MOL0     H  127   1.404   5.601   0.604 -0.1349 -1.2720  0.5416
  742MOL0     H  128   1.518   5.423   0.704  2.9034 -0.5828 -1.1636
  742MOL0     H  129   1.506   5.330   0.553 -0.0437  2.2647 -1.5572
  742MOL0     H  130   1.094   5.302   0.752 -0.8928 -0.5815  0.2818
  742MOL0     H  131   1.053   5.158   0.917 -0.6829  2.9261 -2.6069
  742MOL0     H  132   1.510   4.822   1.203  0.9514 -1.1070 -3.1621
  742MOL0     H  133   1.522   4.633   1.371 -0.6359  0.5197  0.0424
  742MOL0     H  134   1.209   4.620   1.570  1.1192  0.4904  0.0012
  742MOL0     H  135   1.150   4.462   1.534  0.7393 -4.0349  3.1076
  742MOL0     H  136   1.223   4.422   1.770  0.2492 -1.8848 -1.4181
  742MOL0     H  137   1.354   4.360   1.674  0.2364 -0.1487 -0.7503
  742MOL0     H  138   1.448   4.610   1.692 -2.7568  1.5567 -0.7191
  742MOL0     H  139   1.343   4.623   1.825 -0.0716  1.6211  1.0428
  742MOL0     H  140   1.547   4.392   1.792 -0.9338 -1.5706  1.3120
  742MOL0     H  141   1.439   4.406   1.927  3.0473  0.3408  2.0385
  742MOL0     H  142   1.536   4.654   1.958  3.1121  1.4072  1.4044
  742MOL0     H  143   1.658   4.608   1.844  0.2315  0.5622  1.2311
  742MOL0     H  144   1.571   4.498   2.102 -1.7963  2.8916 -2.3807
  742MOL0     H  145   1.699   4.414   2.007  0.7839  1.0802 -2.9910
  742MOL0     H  146   1.855   4.599   2.029  1.1492  1.7786  1.6623
  742MOL0     H  147   1.809   4.559   2.181 -2.3688 -2.4292 -0.6148
  742MOL0     H  148   1.708   4.791   1.996  2.4214  1.0449  0.7317
  742MOL0     H  149   1.633   4.779   2.158  1.8584  0.6468  1.4079
  742MOL0     H  150   1.115   4.553   1.318  1.2773 -1.2358  0.8796
  742MOL0     H  151   1.096   4.736   1.146  0.9836  2.8561 -2.4535
  742MOL0     H  152   1.468   5.042   0.935 -0.0675 -0.4724 -0.7661
  742MOL0     H  153   1.521   5.208   0.762  0.1811  0.4875  1.0017
  742MOL0     H  154   0.548   5.231   1.331  3.3915  0.1179  1.7419
  742MOL0     H  155   0.419   5.027   1.432 -1.1154 -0.2155 -0.8789
  742MOL0     H  156   0.333   4.689   1.595  2.6850 -0.1052 -0.1476
  742MOL0     H  157   0.224   4.497   1.709 -1.4825  1.5372 -0.8748
  742MOL0     H  158   0.081   4.281   1.770 -0.4095  0.0301 -2.1645
  742MOL0     H  159   0.255   4.293   1.777  0.2667 -1.1053  0.8718
  742MOL0     H  160   0.194   4.087   1.876  0.7477  2.5614 -0.0145
  742MOL0     H  161   0.267   4.046   1.724  2.6830  3.7559  0.9424
  742MOL0     H  162   0.078   3.894   1.741 -2.1519 -0.9834 -0.6509
  742MOL0     H  163   0.030   4.024   1.625  1.9264  1.2267  0.8246
  742MOL0     H  164  -0.107   4.141   1.777 -0.4487  0.3592 -0.3352
  742MOL0     H  165  -0.155   3.980   1.747  0.9698  0.2134  1.1936
  742MOL0     H  166  -0.088   3.976   2.165  0.7660  1.5374 -0.6111
  742MOL0     H  167   0.257   4.270   1.352  6.6147 -0.4589  0.5465
  742MOL0     H  168   0.326   4.353   1.153  1.3402  0.4891 -2.6127
  742MOL0     H  169   0.214   4.500   1.133  1.1219  2.9816  0.5197
  742MOL0     H  170   0.392   4.514   1.129 -0.8476  0.0860 -1.6311
  743MOL0     O  171   7.371   5.335   6.528  0.4471 -0.1971 -0.1579
  743MOL0     C  172   7.374   5.405   6.425 -0.2494  0.6642 -0.1888
  743MOL0     O  173   7.390   5.538   6.416 -0.8056  0.2554 -0.3305
  743MOL0     C  174   7.435   5.594   6.530 -0.9787  0.1949  0.1744
  743MOL0     C  175   7.357   5.626   6.645  1.2277 -0.3774  0.3557
  743MOL0     C  176   7.415   5.690   6.751 -0.4982  0.0505 -0.3409
  743MOL0     C  177   7.553   5.728   6.755 -0.7900  0.9483 -0.3071
  743MOL0     O  178   7.621   5.782   6.857 -0.1892  0.1352 -0.3869
  743MOL0     C  179   7.557   5.787   6.982 -0.6055  0.0185  0.8752
  743MOL0     C  180   7.653   5.855   7.090  0.4203 -0.5006 -0.4438
  743MOL0     C  181   7.602   5.994   7.150 -0.3945  0.2122 -0.4196
  743MOL0     C  182   7.672   6.035   7.290  0.0676 -0.5579  0.2994
  743MOL0     C  183   7.577   6.132   7.372  0.3063 -0.3897  1.2564
  743MOL0     C  184   7.662   6.222   7.451  0.5663  0.0330 -0.3671
  743MOL0     C  185   7.592   6.300   7.574 -0.0175  1.2717  0.8383
  743MOL0     C  186   7.653   6.273   7.712  0.5121 -0.0028  0.0740
  743MOL0     N  187   7.603   6.356   7.825  0.5464  0.3980  1.0043
  743MOL0     C  188   7.613   6.493   7.844 -0.6138 -0.0456 -0.4269
  743MOL0     C  189   7.556   6.516   7.960 -0.0810 -0.4659  0.3892
  743MOL0     C  190   7.551   6.659   8.019  0.2882  0.3598  0.0058
  743MOL0     C  191   7.438   6.742   7.963 -0.0095  0.1164 -0.0438
  743MOL0     C  192   7.304   6.694   8.024  0.5800  0.2870 -0.0814
  743MOL0     C  193   7.184   6.774   7.961 -1.1600 -0.1050 -0.4370
  743MOL0     O  194   7.182   6.912   8.011 -0.8074  0.2566 -0.8022
  743MOL0     C  195   7.090   6.999   7.964 -0.0604 -0.2870 -0.0096
  743MOL0     C  196   7.032   6.987   7.841 -1.0399 -0.6865 -0.5827
  743MOL0     C  197   6.938   7.089   7.803 -0.3549  0.6472  0.6054
  743MOL0     C  198   6.908   7.199   7.889 -0.9348  0.2290 -0.5474
  743MOL0     C  199   6.821   7.314   7.843  0.8596 -0.3108 -0.1648
  743MOL0     O  200   6.793   7.332   7.716  0.5923  0.8450  0.0597
  743MOL0     C  201   6.745   7.450   7.677 -0.5924 -0.2578  0.5085
  743MOL0     C  202   6.611   7.480   7.660  0.6777  1.0963  0.2936
  743MOL0     C  203   6.573   7.603   7.609  0.1204  0.5672 -0.5544
  743MOL0     C  204   6.676   7.697   7.581 -0.2673 -1.0487 -0.1830
  743MOL0     O  205   6.664   7.821   7.528 -0.5052  0.4801 -0.4488
  743MOL0     C  206   6.548   7.837   7.457  0.2472  0.9063  0.0713
  743MOL0     C  207   6.535   7.985   7.422 -0.0519  1.0725  0.4547
  743MOL0     C  208   6.646   8.038   7.329  0.4393  0.3396  0.6674
  743MOL0     C  209   6.590   8.170   7.255 -0.1380  0.5007 -1.0843
  743MOL0     C  210   6.685   8.210   7.147 -1.1226 -0.5839  1.0532
  743MOL0     C  211   6.631   8.334   7.072  1.2396  1.5870  0.3036
  743MOL0     C  212   6.737   8.397   6.985 -0.8571 -0.2260  0.9341
  743MOL0     C  213   6.738   8.364   6.837  0.5765  0.2227  0.6893
  743MOL0    Cl  214   6.834   8.222   6.801  0.3565 -0.1174 -0.1530
  743MOL0     C  215   6.806   7.664   7.604 -0.5613  0.3824 -0.1256
  743MOL0     C  216   6.840   7.538   7.641  0.1933 -0.5077  0.0646
  743MOL0     O  217   6.783   7.397   7.925  0.1911 -0.6779 -0.0877
  743MOL0     C  218   6.979   7.214   8.010  0.3176  0.6732  0.3888
  743MOL0     C  219   7.075   7.119   8.037  0.3216  0.0876 -0.0706
  743MOL0     N  220   7.515   6.392   8.011 -0.9275 -0.2267 -0.8301
  743MOL0     N  221   7.536   6.303   7.925 -0.2434 -0.1659  0.0791
  743MOL0     C  222   7.620   5.712   6.638  0.1213 -0.0442 -0.1227
  743MOL0     C  223   7.573   5.643   6.522  0.8562 -0.4701 -0.1082
  743MOL0     C  224   7.366   5.344   6.291 -0.3607  0.2684 -0.4000
  743MOL0     C  225   7.487   5.326   6.216 -0.0713  0.3502 -0.0839
  743MOL0     C  226   7.503   5.248   6.106  0.8445 -0.1354  0.5090
  743MOL0     C  227   7.383   5.177   6.055 -0.0444 -0.1334 -0.0298
  743MOL0     O  228   7.369   5.112   5.934  0.3004  0.0215 -0.5782
  743MOL0     C  229   7.489   5.073   5.878 -0.4334 -0.5193 -0.1658
  743MOL0     C  230   7.478   4.945   5.786  0.4836 -0.4970 -0.0028
  743MOL0     C  231   7.587   4.954   5.673  0.0647 -0.2447 -0.6057
  743MOL0     C  232   7.548   5.046   5.558 -0.5342  0.1948 -0.1355
  743MOL0     C  233   7.424   5.002   5.494  0.3547 -0.1730 -0.6028
  743MOL0     C  234   7.321   4.966   5.441 -1.5134  1.3114 -0.9991
  743MOL0     C  235   7.259   5.192   6.131 -0.0168  0.7040  0.2691
  743MOL0     C  236   7.255   5.276   6.244 -0.4157 -0.0881 -0.3281
  743MOL0     C  237   7.131   5.276   6.331 -0.2357  0.6770 -0.0258
  743MOL0     H  238   7.249   5.612   6.650  0.6445  2.3446 -2.0352
  743MOL0     H  239   7.351   5.712   6.836 -0.4719  2.0649 -0.7947
  743MOL0     H  240   7.471   5.854   6.968  0.1304  0.8358  0.1313
  743MOL0     H  241   7.522   5.690   7.018 -0.8690  0.4923  1.9585
  743MOL0     H  242   7.751   5.875   7.046  1.1024  1.2766  1.6801
  743MOL0     H  243   7.665   5.788   7.176  0.8440  2.1090  1.6561
  743MOL0     H  244   7.495   5.972   7.159  0.1056 -1.9918  1.0018
  743MOL0     H  245   7.622   6.073   7.077  2.0203  0.3622  0.3094
  743MOL0     H  246   7.677   5.947   7.354  1.5205 -0.6901  0.0405
  743MOL0     H  247   7.772   6.078   7.290 -0.2127  0.2347  2.5909
  743MOL0     H  248   7.505   6.192   7.315  0.1205  0.6855  2.5767
  743MOL0     H  249   7.513   6.079   7.443  1.9499 -1.9558  1.6438
  743MOL0     H  250   7.737   6.156   7.496 -0.8727 -0.7124  1.0452
  743MOL0     H  251   7.718   6.290   7.386 -0.4573 -0.6823 -2.0474
  743MOL0     H  252   7.482   6.296   7.574 -0.1162  3.0253  0.7786
  743MOL0     H  253   7.609   6.407   7.558 -0.8603  1.9608  3.9067
  743MOL0     H  254   7.623   6.170   7.732 -0.2966  0.7441  3.1845
  743MOL0     H  255   7.760   6.295   7.701  0.5338  1.3066  2.3274
  743MOL0     H  256   7.645   6.564   7.769  0.0427  1.0579  0.8568
  743MOL0     H  257   7.547   6.656   8.128  1.2150  1.5623  0.0982
  743MOL0     H  258   7.650   6.696   7.989  1.9130 -2.5355  1.3517
  743MOL0     H  259   7.455   6.848   7.985 -3.6885  1.0564 -0.9645
  743MOL0     H  260   7.445   6.735   7.854  1.8490 -2.5511  0.1606
  743MOL0     H  261   7.309   6.704   8.133  2.0636 -2.4823  0.1862
  743MOL0     H  262   7.305   6.586   8.011 -0.1899  0.1232  1.1020
  743MOL0     H  263   7.091   6.719   7.973 -1.1463  0.1900  1.1805
  743MOL0     H  264   7.209   6.779   7.854 -1.6462  2.7104 -0.4801
  743MOL0     H  265   7.040   6.910   7.764  2.1408  0.0980 -1.1746
  743MOL0     H  266   6.910   7.082   7.698  1.4525  0.3311  0.0973
  743MOL0     H  267   6.527   7.413   7.674 -0.0811  2.1825  1.0923
  743MOL0     H  268   6.465   7.616   7.608 -0.2083 -1.4702  1.3295
  743MOL0     H  269   6.557   7.774   7.368  3.2950 -1.2415  1.6942
  743MOL0     H  270   6.455   7.808   7.505 -1.2558  0.5252 -2.8561
  743MOL0     H  271   6.440   7.986   7.369 -0.1090 -0.7803  0.4863
  743MOL0     H  272   6.535   8.037   7.519  1.8032  0.4709  0.8174
  743MOL0     H  273   6.744   8.052   7.375  0.5019 -0.8823  0.9399
  743MOL0     H  274   6.654   7.966   7.246 -1.7434  3.1275 -2.2249
  743MOL0     H  275   6.585   8.242   7.337  3.3819 -1.0036  0.6755
  743MOL0     H  276   6.490   8.154   7.216 -0.9333 -4.0612  2.0001
  743MOL0     H  277   6.714   8.141   7.067 -1.8466 -2.8383  2.6497
  743MOL0     H  278   6.782   8.230   7.194 -1.0327  4.5696 -0.6365
  743MOL0     H  279   6.554   8.293   7.006  3.5698 -3.2598  0.1579
  743MOL0     H  280   6.599   8.408   7.146  1.9493  2.1860  0.0295
  743MOL0     H  281   6.836   8.375   7.028 -1.3046  1.7322  3.1327
  743MOL0     H  282   6.714   8.503   6.990 -0.4368  0.1232 -2.4074
  743MOL0     H  283   6.636   8.349   6.803  0.2778  2.2726  0.5299
  743MOL0     H  284   6.779   8.442   6.771  0.3229  0.3242  0.6515
  743MOL0     H  285   6.887   7.732   7.577 -2.0401  4.0794  3.7052
  743MOL0     H  286   6.946   7.512   7.645  1.0624  2.3240 -1.5551
  743MOL0     H  287   6.963   7.288   8.087  0.3407  2.0573 -0.8928
  743MOL0     H  288   7.130   7.142   8.128 -1.3412  3.6037  0.2110
  743MOL0     H  289   7.723   5.746   6.647  0.4307 -0.9897  0.0301
  743MOL0     H  290   7.639   5.633   6.437  0.3597  1.8740 -0.8577
  743MOL0     H  291   7.576   5.383   6.239 -1.9748  4.9384 -2.7147
  743MOL0     H  292   7.595   5.232   6.051 -0.1959 -0.7883 -1.1221
  743MOL0     H  293   7.565   5.047   5.952  1.3518 -0.0522 -1.7517
  743MOL0     H  294   7.527   5.157   5.819  0.1465  1.2041  2.4840
  743MOL0     H  295   7.375   4.944   5.749 -0.6200  0.0853  2.8146
  743MOL0     H  296   7.494   4.857   5.849 -1.7435 -3.1643 -2.8257
  743MOL0     H  297   7.600   4.856   5.627 -1.2145  0.2963 -2.1802
  743MOL0     H  298   7.683   4.985   5.716 -0.5195  0.7883 -0.0168
  743MOL0     H  299   7.552   5.152   5.584  3.1037  0.4105 -1.0501
  743MOL0     H  300   7.636   5.038   5.492 -0.0842 -0.4438  0.5208
  743MOL0     H  301   7.238   4.939   5.380 -0.5367 -0.7256 -1.5252
  743MOL0     H  302   7.172   5.156   6.076  1.5405  1.3709 -2.9153
  743MOL0     H  303   7.042   5.254   6.270  1.1584 -0.5173 -1.7216
  743MOL0     H  304   7.127   5.195   6.405 -2.2133  0.4522 -0.3034
  743MOL0     H  305   7.104   5.367   6.385 -2.0073 -2.2700  4.7410
  744MOL0     O  306   4.435   4.649   1.959 -0.3523 -0.2561  0.1136
  744MOL0     C  307   4.527   4.724   1.939 -0.1887  0.0958 -0.3830
  744MOL0     O  308   4.625   4.713   1.846 -0.0981  0.2380  0.3719
  744MOL0     C  309   4.639   4.602   1.762  0.5749  0.3375 -0.4763
  744MOL0     C  310   4.729   4.621   1.662 -0.4725 -0.1761 -0.8159
  744MOL0     C  311   4.747   4.519   1.570 -0.4960  0.9227 -0.3796
  744MOL0     C  312   4.679   4.400   1.569  0.5059  0.7949  0.2833
  744MOL0     O  313   4.708   4.297   1.478  0.3478 -0.1861  0.2995
  744MOL0     C  314   4.756   4.169   1.525 -0.3034  0.3985 -0.5913
  744MOL0     C  315   4.795   4.079   1.409  1.1386 -0.1914  0.3382
  744MOL0     C  316   4.765   3.927   1.430 -0.1077 -1.0988  0.1204
  744MOL0     C  317   4.829   3.831   1.326  0.3755 -0.7036 -0.0207
  744MOL0     C  318   4.807   3.684   1.363 -0.3331  0.1506 -0.6288
  744MOL0     C  319   4.678   3.622   1.319 -0.2552 -0.3190 -0.3172
  744MOL0     C  320   4.667   3.477   1.349  0.8518  0.6870 -0.5791
  744MOL0     C  321   4.769   3.394   1.271 -0.1147 -0.9777 -0.2606
  744MOL0     N  322   4.722   3.260   1.247  0.4395  0.0480  0.6904
  744MOL0     C  323   4.667   3.226   1.126 -0.6973  0.3643  0.2997
  744MOL0     C  324   4.688   3.095   1.115 -0.6125 -0.2327 -0.0923
  744MOL0     C  325   4.664   3.013   0.988  1.2487 -1.0687 -0.2964
  744MOL0     C  326   4.727   3.062   0.863  0.1880  1.5330 -0.2500
  744MOL0     C  327   4.886   3.057   0.862  0.6231  0.6143  0.3253
  744MOL0     C  328   4.931   3.133   0.736 -0.0287 -0.5869  0.2089
  744MOL0     O  329   4.881   3.072   0.620 -0.0287 -0.8998 -0.1268
  744MOL0     C  330   4.971   3.017   0.526 -0.3668 -0.6560 -1.0302
  744MOL0     C  331   5.004   3.103   0.417 -0.1635  0.7502 -0.1215
  744MOL0     C  332   5.118   3.073   0.345 -0.2729 -0.0967  0.4342
  744MOL0     C  333   5.202   2.958   0.369  0.3108  0.5598  0.3086
  744MOL0     C  334   5.318   2.910   0.276 -0.3184  0.3755  0.8358
  744MOL0     O  335   5.389   3.002   0.197  0.0394  0.3847 -0.2546
  744MOL0     C  336   5.496   2.962   0.114  0.5394 -0.5326  0.0673
  744MOL0     C  337   5.566   3.068   0.050 -0.3280 -0.0432 -0.2016
  744MOL0     C  338   5.674   3.042  -0.038 -0.4508  0.1245  0.5158
  744MOL0     C  339   5.718   2.916  -0.060 -0.5046  0.4436  0.7779
  744MOL0     O  340   5.814   2.915  -0.162 -0.5956 -0.3316 -0.1853
  744MOL0     C  341   5.867   2.789  -0.205  0.2370  0.0345 -0.2673
  744MOL0     C  342   5.955   2.808  -0.333 -0.1907  0.4164  0.7109
  744MOL0     C  343   5.871   2.810  -0.467  0.2566  0.6731  0.2459
  744MOL0     C  344   5.861   2.668  -0.530  1.3786 -0.6398 -0.1973
  744MOL0     C  345   5.760   2.674  -0.644  0.9432 -0.1643  1.0168
  744MOL0     C  346   5.811   2.758  -0.758  0.3647 -0.1436 -0.6411
  744MOL0     C  347   5.719   2.753  -0.892 -0.0790 -0.6603  0.0484
  744MOL0     C  348   5.754   2.626  -0.972 -0.6616  0.3187  0.3166
  744MOL0    Cl  349   5.614   2.581  -1.077 -0.1053 -0.8141 -0.1482
  744MOL0     C  350   5.654   2.805  -0.003  1.2505  0.4187 -0.1963
  744MOL0     C  351   5.544   2.831   0.082 -0.2129  0.9933  0.0046
  744MOL0     O  352   5.333   2.789   0.283 -0.1596  0.0171  0.7575
  744MOL0     C  353   5.160   2.872   0.475  0.9754 -0.5394 -0.3941
  744MOL0     C  354   5.044   2.909   0.553 -0.0429  0.5187 -0.2560
  744MOL0     N  355   4.748   3.050   1.228 -0.3709  0.5396 -0.6012
  744MOL0     N  356   4.771   3.148   1.307 -0.3618 -0.0236 -1.0598
  744MOL0     C  357   4.582   4.380   1.672  0.3281  1.5532  0.4271
  744MOL0     C  358   4.570   4.478   1.772  0.2367  1.0873 -0.8861
  744MOL0     C  359   4.529   4.838   2.032 -0.0908  1.0943  0.0356
  744MOL0     C  360   4.424   4.843   2.126  1.1477 -0.0729  0.4368
  744MOL0     C  361   4.408   4.948   2.215  0.2231  0.3209  0.0040
  744MOL0     C  362   4.512   5.047   2.228 -0.4017 -0.0984  0.6911
  744MOL0     O  363   4.504   5.161   2.302  0.1961 -0.5451 -0.0963
  744MOL0     C  364   4.388   5.183   2.391 -0.2125 -0.0175 -0.1302
  744MOL0     C  365   4.419   5.247   2.527  0.3299  0.1024 -0.9363
  744MOL0     C  366   4.303   5.227   2.627 -0.6569 -0.0310 -0.4971
  744MOL0     C  367   4.340   5.329   2.741 -1.0186 -0.6299  0.1460
  744MOL0     C  368   4.305   5.461   2.696 -0.3499 -0.6422 -0.1894
  744MOL0     C  369   4.268   5.570   2.656  0.1744  0.6037 -0.6639
  744MOL0     C  370   4.621   5.036   2.136 -0.7549 -0.4350 -0.8697
  744MOL0     C  371   4.640   4.929   2.044  0.3174 -0.3421  0.3356
  744MOL0     C  372   4.766   4.940   1.963 -0.2858 -0.2096  0.1520
  744MOL0     H  373   4.779   4.717   1.674  1.0573 -1.1483  1.1783
  744MOL0     H  374   4.829   4.540   1.503  0.7878  1.4714  1.2886
  744MOL0     H  375   4.844   4.197   1.584 -2.0385  0.1103  2.3598
  744MOL0     H  376   4.686   4.122   1.595  0.6976  2.2210  1.7888
  744MOL0     H  377   4.903   4.091   1.395  0.8913 -0.6474 -2.5063
  744MOL0     H  378   4.756   4.115   1.314 -1.4898  0.1524  1.4827
  744MOL0     H  379   4.657   3.914   1.448 -0.2077  1.7767  2.4479
  744MOL0     H  380   4.806   3.904   1.529  1.7590  0.1701 -0.3216
  744MOL0     H  381   4.800   3.862   1.225  3.9006  1.5834 -0.5040
  744MOL0     H  382   4.937   3.842   1.340 -0.0371  3.1353  1.2776
  744MOL0     H  383   4.889   3.629   1.315  1.8245 -1.3650  4.1250
  744MOL0     H  384   4.822   3.672   1.471  2.1900  1.9140 -0.7085
  744MOL0     H  385   4.601   3.680   1.372  0.6151 -0.0198  0.6649
  744MOL0     H  386   4.665   3.642   1.213 -0.3464 -0.3071 -0.3045
  744MOL0     H  387   4.564   3.446   1.329  1.0226  0.4106 -1.0369
  744MOL0     H  388   4.691   3.467   1.456 -1.4057 -2.4222 -0.2174
  744MOL0     H  389   4.787   3.436   1.172 -2.0164 -1.1597 -0.7327
  744MOL0     H  390   4.867   3.395   1.318  0.8262 -2.2940 -2.0723
  744MOL0     H  391   4.612   3.288   1.056  2.5781  2.3134 -0.7702
  744MOL0     H  392   4.697   2.911   1.008  2.1001 -0.8468 -0.5293
  744MOL0     H  393   4.555   3.012   0.978  0.7090  1.1752  3.3412
  744MOL0     H  394   4.693   2.988   0.791 -3.2662  1.4195  1.3234
  744MOL0     H  395   4.690   3.160   0.832  0.5948  1.7746  0.0109
  744MOL0     H  396   4.919   2.954   0.848 -2.0131 -0.1354 -0.8884
  744MOL0     H  397   4.935   3.091   0.954 -1.3425  1.2649  1.1835
  744MOL0     H  398   5.039   3.135   0.754 -0.1115  1.4885  0.7246
  744MOL0     H  399   4.901   3.238   0.731 -0.6456 -0.6342  2.1037
  744MOL0     H  400   4.942   3.190   0.398 -1.2785  0.1676  0.7698
  744MOL0     H  401   5.148   3.141   0.265 -1.6407 -2.1219 -1.9352
  744MOL0     H  402   5.542   3.169   0.083  1.0924  0.6230 -1.1124
  744MOL0     H  403   5.724   3.128  -0.080 -0.8936  0.0055 -0.2691
  744MOL0     H  404   5.920   2.742  -0.122 -4.3323 -2.2821  1.6677
  744MOL0     H  405   5.792   2.712  -0.224  2.3705 -2.3487  0.3343
  744MOL0     H  406   6.014   2.900  -0.321  0.7595  0.2150 -1.7381
  744MOL0     H  407   6.034   2.733  -0.341  1.2174  1.9985 -1.9606
  744MOL0     H  408   5.778   2.864  -0.450  0.6602  1.8146 -0.9997
  744MOL0     H  409   5.922   2.872  -0.542 -0.1245  1.6685  0.7945
  744MOL0     H  410   5.831   2.588  -0.462  0.8236  2.3909  3.4248
  744MOL0     H  411   5.961   2.643  -0.566  1.2225 -0.0341 -1.0996
  744MOL0     H  412   5.663   2.717  -0.618  0.3327 -0.1760 -1.0515
  744MOL0     H  413   5.747   2.569  -0.674  2.6244 -0.4553  1.2174
  744MOL0     H  414   5.805   2.855  -0.708  1.0899 -0.8554  0.8825
  744MOL0     H  415   5.918   2.746  -0.776  0.4725 -1.8823  0.8665
  744MOL0     H  416   5.724   2.843  -0.954 -2.9566 -0.3236  0.1537
  744MOL0     H  417   5.612   2.759  -0.868  0.4912  2.4175  2.5039
  744MOL0     H  418   5.848   2.646  -1.023 -1.2654 -2.6185 -2.1968
  744MOL0     H  419   5.783   2.541  -0.910 -2.0800 -1.1015 -0.8865
  744MOL0     H  420   5.680   2.703  -0.029  0.0232 -0.6514  2.4240
  744MOL0     H  421   5.497   2.741   0.121  1.9705 -0.0654  0.3453
  744MOL0     H  422   5.205   2.774   0.491 -1.0474 -1.6177 -0.9973
  744MOL0     H  423   5.019   2.843   0.635  1.6145 -0.4634 -0.4888
  744MOL0     H  424   4.521   4.290   1.673 -0.2434  1.9204 -0.0373
  744MOL0     H  425   4.496   4.456   1.848  2.0809 -0.0037  0.7019
  744MOL0     H  426   4.338   4.779   2.107  2.3331 -2.5071  2.7068
  744MOL0     H  427   4.321   4.953   2.280  0.8394  0.9666  0.7998
  744MOL0     H  428   4.342   5.086   2.413  0.0608  0.2676  1.8541
  744MOL0     H  429   4.317   5.248   2.339 -3.0985 -1.9334  1.1192
  744MOL0     H  430   4.463   5.347   2.523 -1.4134  1.1819  2.6181
  744MOL0     H  431   4.498   5.189   2.575  1.8567  2.8344  0.0539
  744MOL0     H  432   4.310   5.126   2.671  2.9269  0.2257 -0.1872
  744MOL0     H  433   4.204   5.245   2.585 -0.4199  1.9575 -0.2767
  744MOL0     H  434   4.280   5.309   2.830  2.1264  0.9951  2.8417
  744MOL0     H  435   4.446   5.324   2.766 -1.2370 -2.2607  0.8721
  744MOL0     H  436   4.232   5.667   2.627 -2.2214 -0.3292 -1.0035
  744MOL0     H  437   4.696   5.115   2.143 -1.0439 -0.2807  1.0611
  744MOL0     H  438   4.740   4.981   1.865  3.3093  0.3479 -0.7096
  744MOL0     H  439   4.837   5.002   2.020  2.5961 -3.3776  0.2889
  744MOL0     H  440   4.823   4.847   1.964  1.3361  0.7333  0.2531
  745MOL0     O  441  10.027   9.324   9.264 -0.1202 -0.3949  0.1717
  745MOL0     C  442   9.986   9.405   9.349  0.5496  0.8892 -0.6537
  745MOL0     O  443  10.065   9.436   9.450  0.0326 -0.1723 -0.8000
  745MOL0     C  444  10.167   9.350   9.487 -0.5839 -0.5118  0.1377
  745MOL0     C  445  10.177   9.298   9.614 -0.0631  0.3105 -1.0701
  745MOL0     C  446  10.280   9.218   9.665  0.2585 -0.1320 -0.3119
  745MOL0     C  447  10.389   9.201   9.582 -0.1735 -0.3162 -1.1927
  745MOL0     O  448  10.496   9.133   9.633  0.4088 -0.1960  0.5860
  745MOL0     C  449  10.631   9.172   9.605 -0.5908  0.6058 -0.0685
  745MOL0     C  450  10.682   9.289   9.688 -0.3752  0.4395 -0.2509
  745MOL0     C  451  10.709   9.259   9.832  0.2456  0.0641  0.1495
  745MOL0     C  452  10.591   9.216   9.918 -0.6015 -0.5423  0.5296
  745MOL0     C  453  10.637   9.201  10.063 -0.0126  0.2987  0.6815
  745MOL0     C  454  10.607   9.333  10.137  0.3521 -0.3375  0.2263
  745MOL0     C  455  10.630   9.313  10.284 -0.0851 -0.1694 -0.3655
  745MOL0     C  456  10.606   9.443  10.359  0.9694 -0.2687 -0.1119
  745MOL0     N  457  10.618   9.430  10.506  0.0484  0.3147  1.0019
  745MOL0     C  458  10.515   9.377  10.580  0.9015  0.7680 -0.0777
  745MOL0     C  459  10.570   9.354  10.703 -0.2376  0.7879  0.5627
  745MOL0     C  460  10.510   9.272  10.814  0.7867 -0.5222 -0.5589
  745MOL0     C  461  10.359   9.291  10.827  0.5011 -0.5891 -0.1571
  745MOL0     C  462  10.308   9.189  10.925 -0.0898  0.3047 -0.6668
  745MOL0     C  463  10.160   9.188  10.940 -0.2773  0.0720  0.1186
  745MOL0     O  464  10.099   9.214  10.811  0.6204  0.1523  0.0836
  745MOL0     C  465   9.962   9.189  10.788  0.7960 -0.2075  1.0269
  745MOL0     C  466   9.925   9.185  10.654 -0.2413 -0.1010  0.3549
  745MOL0     C  467   9.796   9.161  10.618 -0.2942  0.1098 -0.0208
  745MOL0     C  468   9.698   9.134  10.718 -0.6155  0.4887 -0.1758
  745MOL0     C  469   9.565   9.083  10.684 -0.9262  0.8448  0.2182
  745MOL0     O  470   9.478   9.044  10.778  0.7641 -0.3537 -0.9568
  745MOL0     C  471   9.373   8.961  10.737 -0.4599  0.3795 -0.2697
  745MOL0     C  472   9.264   9.010  10.676  0.1226 -1.2000  1.0050
  745MOL0     C  473   9.159   8.934  10.629 -0.2916  0.0619 -0.3185
  745MOL0     C  474   9.159   8.795  10.662  0.6142 -0.1174 -0.0467
  745MOL0     O  475   9.047   8.734  10.626  0.0387  1.2630  0.3967
  745MOL0     C  476   9.041   8.593  10.663 -0.4320 -0.6145 -0.0061
  745MOL0     C  477   8.922   8.512  10.597  0.2029  1.3915  0.0778
  745MOL0     C  478   8.781   8.581  10.608 -0.6737  0.1701 -0.6788
  745MOL0     C  479   8.682   8.544  10.495  0.0843 -0.3489 -0.0404
  745MOL0     C  480   8.683   8.401  10.459 -0.3224  0.0308 -0.5215
  745MOL0     C  481   8.563   8.366  10.371 -0.2177 -0.1909  0.3509
  745MOL0     C  482   8.576   8.226  10.308 -0.3759  0.1415  0.6629
  745MOL0     C  483   8.650   8.221  10.171 -0.1777  0.4141 -0.9150
  745MOL0    Cl  484   8.526   8.279  10.049  0.0910 -0.0515  0.8276
  745MOL0     C  485   9.269   8.744  10.732  0.1166  0.2956  0.3751
  745MOL0     C  486   9.375   8.826  10.765 -0.4242 -0.5791 -0.6607
  745MOL0     O  487   9.548   9.075  10.560  0.8431 -0.4723 -0.7633
  745MOL0     C  488   9.735   9.143  10.857 -0.5549  0.0417  0.1727
  745MOL0     C  489   9.867   9.167  10.885 -0.5292 -1.0452  0.1884
  745MOL0     N  490  10.702   9.403  10.704 -0.8146 -0.8421 -0.6067
  745MOL0     N  491  10.723   9.449  10.587  0.5771 -0.7119  0.0340
  745MOL0     C  492  10.384   9.251   9.456 -0.9182  0.4511  0.6732
  745MOL0     C  493  10.283   9.328   9.408  1.0415 -0.4818 -0.4443
  745MOL0     C  494   9.848   9.451   9.345  0.5157 -0.4129 -0.2036
  745MOL0     C  495   9.768   9.419   9.238 -0.6950 -0.4255  0.8630
  745MOL0     C  496   9.640   9.468   9.205 -0.1762  0.4004 -0.2196
  745MOL0     C  497   9.576   9.541   9.298 -0.9353 -0.6405  0.6923
  745MOL0     O  498   9.454   9.586   9.279 -0.5084 -0.7111  0.1346
  745MOL0     C  499   9.411   9.708   9.352  0.1581  0.7966  0.7561
  745MOL0     C  500   9.284   9.765   9.291  0.4937 -0.1612 -0.6843
  745MOL0     C  501   9.160   9.679   9.317 -0.1628  0.0495 -0.7321
  745MOL0     C  502   9.054   9.717   9.211  0.4351  0.1537 -0.5850
  745MOL0     C  503   8.934   9.645   9.244  0.7181 -0.4110  0.1945
  745MOL0     C  504   8.830   9.615   9.288  0.3019  0.3910  0.1970
  745MOL0     C  505   9.662   9.592   9.402  0.2045 -0.5368 -0.6075
  745MOL0     C  506   9.785   9.540   9.433 -0.6121 -0.0433  0.6620
  745MOL0     C  507   9.854   9.589   9.554 -0.8230  0.4345 -0.8237
  745MOL0     H  508  10.082   9.312   9.664  0.0130 -1.6284 -0.2955
  745MOL0     H  509  10.282   9.202   9.772  2.0196 -0.3630 -0.3388
  745MOL0     H  510  10.695   9.085   9.623 -1.7906 -0.3864 -0.4939
  745MOL0     H  511  10.641   9.210   9.503 -2.4581 -0.7379 -0.7993
  745MOL0     H  512  10.606   9.366   9.669 -1.0626  0.0424  0.8149
  745MOL0     H  513  10.776   9.327   9.647  0.4153 -1.7253 -0.5992
  745MOL0     H  514  10.756   9.342   9.887  0.6284 -1.6696  2.6417
  745MOL0     H  515  10.783   9.179   9.839 -0.9277 -1.1389 -0.6906
  745MOL0     H  516  10.511   9.290   9.916  0.8975  1.2326  2.5630
  745MOL0     H  517  10.550   9.120   9.884 -2.7241 -0.4675  2.5937
  745MOL0     H  518  10.590   9.117  10.115 -1.0428  1.1246  1.1117
  745MOL0     H  519  10.741   9.167  10.069 -0.4855 -1.4721 -0.3744
  745MOL0     H  520  10.678   9.414  10.114 -2.8815  2.5127 -0.5980
  745MOL0     H  521  10.505   9.367  10.116  0.5158 -0.4189 -0.7085
  745MOL0     H  522  10.733   9.275  10.291 -0.6486 -1.5190  1.1787
  745MOL0     H  523  10.558   9.245  10.328  0.6294 -0.3526  0.5631
  745MOL0     H  524  10.688   9.512  10.338  1.7193 -0.5714  1.6349
  745MOL0     H  525  10.506   9.478  10.330  1.2531  1.1044  0.4912
  745MOL0     H  526  10.411   9.351  10.562  0.3685  1.1450  2.2025
  745MOL0     H  527  10.538   9.167  10.795  3.4890  0.2784 -1.4830
  745MOL0     H  528  10.559   9.296  10.908  0.7273 -5.6303  1.1088
  745MOL0     H  529  10.343   9.393  10.863 -3.2959 -1.3354  0.6678
  745MOL0     H  530  10.305   9.283  10.733 -1.9448  0.6566  1.0643
  745MOL0     H  531  10.368   9.197  11.016  0.9400  1.4719 -1.4119
  745MOL0     H  532  10.332   9.088  10.889  2.3373 -0.0985  1.7598
  745MOL0     H  533  10.124   9.259  11.015  0.5877 -0.2982  0.9040
  745MOL0     H  534  10.126   9.092  10.982 -3.0576  1.0499  0.2913
  745MOL0     H  535   9.999   9.196  10.576 -0.6308  4.2231  0.3768
  745MOL0     H  536   9.770   9.141  10.514  1.0320  0.2512 -0.4012
  745MOL0     H  537   9.247   9.116  10.666  0.8348 -1.3012 -3.4947
  745MOL0     H  538   9.082   8.998  10.588  0.1225 -0.1126 -1.4049
  745MOL0     H  539   9.132   8.548  10.623  0.2779  0.4558  0.3823
  745MOL0     H  540   9.046   8.580  10.772  2.5684 -1.7730 -0.1834
  745MOL0     H  541   8.948   8.486  10.494 -0.6910  2.8082 -0.5398
  745MOL0     H  542   8.924   8.415  10.646  1.4499 -0.9463 -4.0953
  745MOL0     H  543   8.749   8.540  10.705  3.8605  1.2456  1.5891
  745MOL0     H  544   8.793   8.689  10.611  1.4522 -0.0021 -1.0297
  745MOL0     H  545   8.698   8.618  10.416  0.5876  0.7898  1.0999
  745MOL0     H  546   8.584   8.564  10.539  0.8149  1.4107  0.9072
  745MOL0     H  547   8.692   8.342  10.551 -0.9326 -0.2728 -0.6564
  745MOL0     H  548   8.778   8.397  10.404  0.6817  1.5958  0.9778
  745MOL0     H  549   8.472   8.375  10.431 -0.2870  0.8162  0.1210
  745MOL0     H  550   8.553   8.445  10.296  1.9016 -0.2188 -0.0173
  745MOL0     H  551   8.482   8.176  10.286  0.3083 -1.5704  1.4538
  745MOL0     H  552   8.638   8.166  10.375  1.2078 -0.0020 -0.8415
  745MOL0     H  553   8.740   8.283  10.169 -0.1022  0.4789  1.5387
  745MOL0     H  554   8.686   8.121  10.145 -1.9361 -0.2105 -1.1083
  745MOL0     H  555   9.278   8.642  10.767  1.8115 -0.1822 -1.2854
  745MOL0     H  556   9.460   8.782  10.815 -0.1985 -0.4328 -0.9147
  745MOL0     H  557   9.664   9.134  10.938 -1.2677 -0.7863 -0.5239
  745MOL0     H  558   9.906   9.183  10.985 -2.9065  0.1585  1.0018
  745MOL0     H  559  10.458   9.233   9.379 -0.4469  3.8197  0.1894
  745MOL0     H  560  10.276   9.363   9.306 -1.1688  3.3922  0.8227
  745MOL0     H  561   9.804   9.340   9.173  1.0719  1.9634 -1.2472
  745MOL0     H  562   9.595   9.450   9.108  4.6774  1.3441 -2.9432
  745MOL0     H  563   9.491   9.780   9.331 -0.7630  1.4062 -0.8650
  745MOL0     H  564   9.409   9.693   9.460  0.4945  0.3832  0.7072
  745MOL0     H  565   9.305   9.773   9.183  0.6129 -0.0341 -0.6523
  745MOL0     H  566   9.279   9.867   9.329  0.3937 -0.6203  0.5710
  745MOL0     H  567   9.115   9.693   9.416 -1.2628  1.2997 -1.3676
  745MOL0     H  568   9.198   9.577   9.303  3.8680  0.8604  2.1919
  745MOL0     H  569   9.024   9.822   9.209  1.1557  0.4649  1.8967
  745MOL0     H  570   9.100   9.696   9.114  0.0450 -1.2013 -0.4973
  745MOL0     H  571   8.737   9.597   9.338  0.6194 -1.1568  0.2590
  745MOL0     H  572   9.635   9.676   9.465 -2.8004  0.2644 -2.7496
  745MOL0     H  573   9.885   9.498   9.607 -0.3815  1.2218  0.3118
  745MOL0     H  574   9.943   9.642   9.520  0.0425 -2.1415 -2.8987
  745MOL0     H  575   9.792   9.650   9.621 -0.2482  3.1719 -2.6026
  746MOL0     O  576   6.575  10.947   1.256 -1.0447  0.4447 -0.5204
  746MOL0     C  577   6.672  10.995   1.195 -0.7003 -0.1648 -0.3655
  746MOL0     O  578   6.676  11.015   1.057 -0.1997  0.7642  0.1998
  746MOL0     C  579   6.559  11.039   0.980  0.3365 -0.3868 -0.6114
  746MOL0     C  580   6.441  10.969   0.989  0.5033  0.5698 -0.4956
  746MOL0     C  581   6.315  11.000   0.935  1.3484 -0.0087  1.0506
  746MOL0     C  582   6.313  11.111   0.844  0.0003  0.2195 -0.0894
  746MOL0     O  583   6.196  11.166   0.789 -0.3857  0.1519 -0.4807
  746MOL0     C  584   6.086  11.075   0.777  0.0126  0.2094 -0.0075
  746MOL0     C  585   5.982  11.137   0.677 -0.6815  0.2292 -0.5215
  746MOL0     C  586   5.968  11.057   0.539 -0.5142 -0.4709 -0.2428
  746MOL0     C  587   5.842  11.104   0.453 -0.3387  0.8671 -0.9665
  746MOL0     C  588   5.824  11.019   0.337  1.0224 -0.9956 -0.6035
  746MOL0     C  589   5.929  11.044   0.227 -0.6832  0.5150  0.1869
  746MOL0     C  590   5.966  11.191   0.189 -0.0086  1.0051  0.0342
  746MOL0     C  591   6.055  11.188   0.064 -0.3405 -0.1460 -1.1313
  746MOL0     N  592   6.053  11.325   0.005  0.5603  0.3365  0.0195
  746MOL0     C  593   6.109  11.440   0.061 -0.0825  0.2800  0.1844
  746MOL0     C  594   6.078  11.541  -0.027 -0.2006  0.3276  0.0645
  746MOL0     C  595   6.115  11.691   0.005 -0.0054 -0.1083  0.4287
  746MOL0     C  596   6.252  11.739  -0.050 -0.1726 -0.6907 -0.5522
  746MOL0     C  597   6.243  11.873  -0.122  0.6568 -0.2670 -0.2625
  746MOL0     C  598   6.164  11.877  -0.257  0.0611 -0.5248 -0.7047
  746MOL0     O  599   6.048  11.960  -0.222 -0.2458  0.7515 -0.6679
  746MOL0     C  600   5.983  12.023  -0.329 -0.0816  1.0814 -0.8176
  746MOL0     C  601   5.876  12.106  -0.303 -0.2435  0.8432  0.2674
  746MOL0     C  602   5.826  12.195  -0.397  0.5073  0.1874 -0.4167
  746MOL0     C  603   5.871  12.193  -0.526 -0.6949  0.6030  0.1727
  746MOL0     C  604   5.822  12.294  -0.629 -0.7272 -0.2112 -0.4802
  746MOL0     O  605   5.776  12.403  -0.563  0.7858 -0.4556 -0.2107
  746MOL0     C  606   5.757  12.512  -0.644  0.1175  0.7856 -0.1151
  746MOL0     C  607   5.630  12.529  -0.692 -0.3126  1.2887  0.4646
  746MOL0     C  608   5.597  12.644  -0.758 -0.0678 -0.1773 -0.2268
  746MOL0     C  609   5.683  12.748  -0.761 -0.6536 -1.2836  0.5675
  746MOL0     O  610   5.650  12.869  -0.820 -0.4782  0.3472 -0.2769
  746MOL0     C  611   5.739  12.908  -0.930 -0.2338 -0.2762 -0.7641
  746MOL0     C  612   5.684  12.839  -1.055  0.4286 -0.5315  0.3540
  746MOL0     C  613   5.561  12.915  -1.111  0.0239  0.0499  0.2301
  746MOL0     C  614   5.507  12.834  -1.234 -0.3417  0.6043 -0.0265
  746MOL0     C  615   5.409  12.920  -1.302 -0.0230 -0.5639 -0.4427
  746MOL0     C  616   5.330  12.844  -1.406 -0.2199  0.5967  0.9610
  746MOL0     C  617   5.395  12.827  -1.550  0.4249 -0.0258  0.7340
  746MOL0     C  618   5.289  12.768  -1.638 -0.0370 -0.2035  0.6001
  746MOL0    Cl  619   5.172  12.901  -1.687 -0.0271  0.7871 -0.0373
  746MOL0     C  620   5.819  12.718  -0.719  0.4415 -0.3312  0.8525
  746MOL0     C  621   5.858  12.599  -0.674 -0.2876 -0.2216  0.6065
  746MOL0     O  622   5.849  12.285  -0.748  0.4263  0.1605  0.6656
  746MOL0     C  623   5.968  12.097  -0.556 -0.0574 -1.8922  0.9217
  746MOL0     C  624   6.024  12.014  -0.461 -0.5893  0.1709 -0.0466
  746MOL0     N  625   6.022  11.481  -0.138 -0.0044 -0.1029  0.2227
  746MOL0     N  626   6.002  11.357  -0.117  0.1412 -0.4109 -0.7800
  746MOL0     C  627   6.424  11.197   0.847 -0.4370  0.2870 -0.4885
  746MOL0     C  628   6.544  11.154   0.891 -0.1826 -0.5875 -0.0778
  746MOL0     C  629   6.777  11.073   1.263 -0.8550 -0.3712 -0.1700
  746MOL0     C  630   6.859  11.153   1.187 -0.1962 -0.1586  0.3890
  746MOL0     C  631   6.976  11.215   1.240 -0.3327  0.5771 -0.1625
  746MOL0     C  632   7.010  11.192   1.371  0.6049 -1.2964  0.5583
  746MOL0     O  633   7.118  11.243   1.434 -0.0119  0.2152 -0.1139
  746MOL0     C  634   7.159  11.380   1.407 -0.2992  0.1808 -0.6263
  746MOL0     C  635   7.057  11.480   1.443 -0.3246  0.9255  0.5888
  746MOL0     C  636   7.033  11.489   1.594 -1.2711 -0.6292  0.4230
  746MOL0     C  637   6.953  11.390   1.673 -0.1547 -0.7836  0.5479
  746MOL0     C  638   6.932  11.453   1.808  0.6979 -0.6886  0.1395
  746MOL0     C  639   6.924  11.500   1.922 -0.0868  0.4010 -0.7004
  746MOL0     C  640   6.938  11.103   1.446  0.1922 -0.1769  0.6338
  746MOL0     C  641   6.816  11.043   1.396  0.2661  0.5734  0.5241
  746MOL0     C  642   6.742  10.952   1.494 -0.4167 -0.1375  0.0544
  746MOL0     H  643   6.443  10.885   1.057 -2.4211 -0.9327 -2.0846
  746MOL0     H  644   6.222  10.959   0.973 -1.1851  3.4594 -0.7890
  746MOL0     H  645   6.129  10.989   0.724  0.8872  0.8665 -0.3883
  746MOL0     H  646   6.039  11.046   0.871 -1.6224 -1.9155 -1.3722
  746MOL0     H  647   6.012  11.241   0.665 -2.3357  0.9849  1.4270
  746MOL0     H  648   5.885  11.145   0.726 -1.4402  0.7568 -2.0277
  746MOL0     H  649   5.966  10.948   0.548  3.2153 -0.8331 -2.2298
  746MOL0     H  650   6.056  11.084   0.482 -1.3621  3.1157 -0.0834
  746MOL0     H  651   5.757  11.100   0.522  0.5249 -1.6686  0.0744
  746MOL0     H  652   5.857  11.208   0.425  1.0990  0.8306 -0.4625
  746MOL0     H  653   5.834  10.916   0.372  0.4148 -0.9812 -0.3796
  746MOL0     H  654   5.720  11.034   0.305  0.6904 -0.9908  0.4410
  746MOL0     H  655   6.018  10.986   0.255  0.2648  2.0343  0.4469
  746MOL0     H  656   5.874  10.994   0.147 -2.5834  0.1244  1.6438
  746MOL0     H  657   6.009  11.248   0.272 -0.2827 -0.6988  1.4101
  746MOL0     H  658   5.869  11.239   0.171 -2.2942 -3.2098 -0.1648
  746MOL0     H  659   6.156  11.164   0.100 -0.2572  0.0974 -1.1984
  746MOL0     H  660   6.020  11.119  -0.013 -1.3781  1.7578 -2.4605
  746MOL0     H  661   6.157  11.453   0.157  2.9211 -2.0059 -0.8590
  746MOL0     H  662   6.042  11.757  -0.043  1.9184  0.4395 -2.0044
  746MOL0     H  663   6.119  11.707   0.113 -2.3556 -1.1563  0.7135
  746MOL0     H  664   6.334  11.744   0.023 -0.1828  3.3874 -0.5696
  746MOL0     H  665   6.278  11.668  -0.129  0.6350  1.0807 -1.9820
  746MOL0     H  666   6.345  11.900  -0.151  1.9271 -2.7249  1.5661
  746MOL0     H  667   6.206  11.952  -0.055 -0.0914  1.3953 -2.5093
  746MOL0     H  668   6.135  11.778  -0.294 -0.4729 -1.0935  1.1524
  746MOL0     H  669   6.231  11.935  -0.322  2.4428  2.1838  3.6862
  746MOL0     H  670   5.823  12.107  -0.208 -0.3296 -0.8159  0.2664
  746MOL0     H  671   5.750  12.263  -0.361 -2.2857 -3.1631  0.4569
  746MOL0     H  672   5.548  12.463  -0.665 -2.2012  4.8592  4.5125
  746MOL0     H  673   5.499  12.664  -0.800  0.3127  3.5964  0.3940
  746MOL0     H  674   5.751  13.016  -0.942  1.7788 -0.3395  0.1594
  746MOL0     H  675   5.842  12.881  -0.906 -0.0465  1.4418  0.5673
  746MOL0     H  676   5.759  12.829  -1.134 -0.9774  0.5604 -1.2020
  746MOL0     H  677   5.658  12.734  -1.036 -1.0194 -0.3996 -0.7338
  746MOL0     H  678   5.479  12.922  -1.040  0.1207  0.4122  0.3077
  746MOL0     H  679   5.597  13.016  -1.134 -0.2703  1.1364  4.0010
  746MOL0     H  680   5.457  12.740  -1.209  0.3841 -0.0399 -0.9103
  746MOL0     H  681   5.584  12.812  -1.309  1.2640  1.4748  1.2743
  746MOL0     H  682   5.457  13.004  -1.353 -0.9035 -0.2033 -0.7017
  746MOL0     H  683   5.331  12.961  -1.238  1.8885  1.2423  0.8656
  746MOL0     H  684   5.302  12.746  -1.365  1.4861 -0.2403  0.2535
  746MOL0     H  685   5.238  12.897  -1.428 -0.9288 -1.7536 -2.5622
  746MOL0     H  686   5.482  12.762  -1.541  1.7096  1.6468  0.9848
  746MOL0     H  687   5.420  12.927  -1.588 -3.0593  2.8965  5.0905
  746MOL0     H  688   5.331  12.727  -1.730 -2.8677  1.5096 -1.6120
  746MOL0     H  689   5.242  12.687  -1.581 -0.4573  1.4089  2.6858
  746MOL0     H  690   5.893  12.797  -0.724 -0.0906  0.1244 -0.0992
  746MOL0     H  691   5.964  12.578  -0.661 -0.7119 -1.9436  1.6475
  746MOL0     H  692   6.013  12.091  -0.655  1.3105 -1.6618  1.4999
  746MOL0     H  693   6.104  11.949  -0.495 -1.4832 -0.1149 -1.7290
  746MOL0     H  694   6.425  11.286   0.786 -1.1877 -0.4584 -1.6203
  746MOL0     H  695   6.631  11.220   0.885 -1.7165  1.4259 -1.4594
  746MOL0     H  696   6.835  11.166   1.082  2.9603 -0.4732 -0.4944
  746MOL0     H  697   7.037  11.287   1.187 -0.4595  0.9275  0.1636
  746MOL0     H  698   7.179  11.390   1.300 -0.7149 -0.4351 -0.7654
  746MOL0     H  699   7.258  11.406   1.446  0.2604  2.5688 -3.3228
  746MOL0     H  700   6.960  11.458   1.397 -0.3658  2.3796 -0.0580
  746MOL0     H  701   7.082  11.579   1.405 -2.8140  1.7822  0.9485
  746MOL0     H  702   6.983  11.586   1.599  3.5719  2.3670 -1.4525
  746MOL0     H  703   7.122  11.505   1.656 -2.2787  2.7997  1.1929
  746MOL0     H  704   6.856  11.396   1.622 -1.1435 -2.3507  2.1470
  746MOL0     H  705   7.005  11.295   1.689  0.1187 -0.1628  4.0440
  746MOL0     H  706   6.914  11.524   2.026 -1.7309 -2.2778 -0.1512
  746MOL0     H  707   6.967  11.092   1.550  3.5846  2.4491  0.1491
  746MOL0     H  708   6.766  10.849   1.466  0.1914 -0.6798  2.3190
  746MOL0     H  709   6.775  10.974   1.596  1.6697 -2.0615 -0.1196
  746MOL0     H  710   6.633  10.956   1.487 -0.4011 -1.8331 -2.7953
  747MOL0     O  711   4.751   2.407   3.805  0.3070  0.0848  0.2151
  747MOL0     C  712   4.649   2.467   3.768 -0.4189 -0.9135  0.3678
  747MOL0     O  713   4.543   2.422   3.689 -0.0151 -0.0859 -0.1119
  747MOL0     C  714   4.526   2.291   3.646  0.6014 -0.1402 -0.4961
  747MOL0     C  715   4.629   2.192   3.649 -0.1184  0.5807  0.4836
  747MOL0     C  716   4.625   2.084   3.561 -0.7527  0.3140 -0.6134
  747MOL0     C  717   4.513   2.067   3.488  0.3788  0.1372  0.3298
  747MOL0     O  718   4.478   1.969   3.388 -0.1940 -0.0568 -0.5293
  747MOL0     C  719   4.578   1.870   3.355  0.3100 -1.0382 -0.6906
  747MOL0     C  720   4.653   1.934   3.237  0.0115  0.7048 -0.4323
  747MOL0     C  721   4.563   1.968   3.113  0.5500 -0.3766 -0.7820
  747MOL0     C  722   4.642   2.032   3.003 -0.8238 -0.4008  1.0727
  747MOL0     C  723   4.565   2.074   2.885 -0.3482 -0.2663 -0.0700
  747MOL0     C  724   4.532   2.221   2.889 -0.3976  0.8543  0.4202
  747MOL0     C  725   4.469   2.282   2.757 -0.6530  0.5653  0.3324
  747MOL0     C  726   4.326   2.246   2.732  1.2198 -0.3281  0.3665
  747MOL0     N  727   4.253   2.357   2.656 -0.4774 -0.8612  0.0448
  747MOL0     C  728   4.277   2.405   2.527 -0.4567  0.7601  0.6763
  747MOL0     C  729   4.179   2.492   2.496  0.2727 -0.0058  0.6564
  747MOL0     C  730   4.172   2.562   2.370 -0.3713 -0.4133  1.1352
  747MOL0     C  731   4.183   2.717   2.404 -0.2286  0.9807  0.1140
  747MOL0     C  732   4.241   2.799   2.298  0.2970 -0.0516 -0.7942
  747MOL0     C  733   4.216   2.948   2.315  0.5608 -0.2124  0.1803
  747MOL0     O  734   4.076   2.972   2.286 -0.5200 -0.3145 -0.4817
  747MOL0     C  735   4.025   3.095   2.325 -0.2963  0.4662 -0.1587
  747MOL0     C  736   4.082   3.182   2.423 -0.3630  0.2314  0.0239
  747MOL0     C  737   4.032   3.314   2.445  0.9451 -0.1023  0.1300
  747MOL0     C  738   3.916   3.362   2.379 -0.2396  0.3825 -1.1274
  747MOL0     C  739   3.863   3.500   2.385 -0.1902 -0.0320 -0.2517
  747MOL0     O  740   3.823   3.538   2.507  0.1034  0.7494 -0.3361
  747MOL0     C  741   3.778   3.670   2.507 -0.1435 -1.0221 -1.0587
  747MOL0     C  742   3.846   3.759   2.596  0.0791 -0.0256  0.2170
  747MOL0     C  743   3.798   3.891   2.616 -0.0604 -1.1557  0.1537
  747MOL0     C  744   3.683   3.928   2.539 -0.2533 -0.2598  0.6516
  747MOL0     O  745   3.646   4.059   2.566 -0.1576 -0.5846 -0.4840
  747MOL0     C  746   3.504   4.085   2.552  0.7218  0.6045  0.4373
  747MOL0     C  747   3.467   4.222   2.627  0.0030 -0.0697 -0.7788
  747MOL0     C  748   3.476   4.206   2.781 -0.3906  0.1178 -0.1473
  747MOL0     C  749   3.482   4.321   2.877 -0.2502  0.0910 -1.0765
  747MOL0     C  750   3.479   4.255   3.020  0.5110  0.5091  1.1751
  747MOL0     C  751   3.477   4.350   3.131 -0.0469 -0.0943 -0.5662
  747MOL0     C  752   3.453   4.289   3.266  0.5175  1.3410  0.2197
  747MOL0     C  753   3.571   4.212   3.321 -0.3971  0.8939 -0.5262
  747MOL0    Cl  754   3.534   4.130   3.472 -0.0187  0.0825  0.2680
  747MOL0     C  755   3.626   3.841   2.443  0.6463  0.4171 -0.1153
  747MOL0     C  756   3.665   3.709   2.441 -0.2429 -0.3109 -0.9588
  747MOL0     O  757   3.888   3.579   2.294  0.2317  0.8073  0.4559
  747MOL0     C  758   3.865   3.267   2.292  1.4624 -0.4942  1.0494
  747MOL0     C  759   3.914   3.141   2.258 -0.3913 -0.0073  0.0602
  747MOL0     N  760   4.093   2.495   2.612  0.0650 -0.7383  0.1440
  747MOL0     N  761   4.127   2.406   2.691  0.3663  1.1400 -0.5400
  747MOL0     C  762   4.395   2.139   3.511  0.7510  0.2928 -0.4716
  747MOL0     C  763   4.404   2.258   3.590 -0.4801 -0.1781  0.9144
  747MOL0     C  764   4.656   2.619   3.799 -0.1120  0.6752  1.3732
  747MOL0     C  765   4.731   2.654   3.907  0.2396 -0.4772 -0.0833
  747MOL0     C  766   4.737   2.789   3.952 -0.5291 -0.6744  0.1548
  747MOL0     C  767   4.677   2.893   3.877  0.1946  0.5165 -0.7035
  747MOL0     O  768   4.679   3.029   3.890 -0.3214  0.7326 -0.8313
  747MOL0     C  769   4.735   3.080   4.005  0.5536 -0.1902 -0.4341
  747MOL0     C  770   4.795   3.220   3.980 -0.9892  0.1478 -0.3280
  747MOL0     C  771   4.907   3.234   3.865  0.8547  1.3143 -0.2470
  747MOL0     C  772   4.965   3.377   3.834  0.0118  0.2419  0.6454
  747MOL0     C  773   5.022   3.438   3.956  0.2254  0.2067 -0.0424
  747MOL0     C  774   5.078   3.477   4.054 -0.6728  0.4782  0.4449
  747MOL0     C  775   4.610   2.853   3.761  0.1149 -0.6929 -0.0802
  747MOL0     C  776   4.602   2.717   3.721  1.2026  0.5542 -0.3354
  747MOL0     C  777   4.522   2.684   3.590 -0.9392 -0.2637 -0.0201
  747MOL0     H  778   4.712   2.204   3.718 -0.0103  1.4363  0.2214
  747MOL0     H  779   4.686   1.995   3.564 -2.1572 -0.6548  0.5259
  747MOL0     H  780   4.649   1.839   3.433  0.4979  1.4553  0.2233
  747MOL0     H  781   4.531   1.779   3.318  3.6058 -3.3090  0.1604
  747MOL0     H  782   4.729   1.863   3.202  0.3755  2.0250 -2.4868
  747MOL0     H  783   4.695   2.026   3.278  1.4408  0.2267 -0.7724
  747MOL0     H  784   4.482   2.036   3.140  0.0007 -0.2844 -2.5344
  747MOL0     H  785   4.514   1.877   3.076 -1.7707 -0.3457  1.8267
  747MOL0     H  786   4.695   2.118   3.045 -3.7133  2.2481 -0.3157
  747MOL0     H  787   4.708   1.950   2.972 -0.5034 -0.1777  1.1524
  747MOL0     H  788   4.623   2.062   2.794 -0.9135  0.3462 -0.5230
  747MOL0     H  789   4.473   2.015   2.876  1.2963 -3.2180  1.0400
  747MOL0     H  790   4.469   2.238   2.977 -1.9367 -3.0542  0.2785
  747MOL0     H  791   4.629   2.270   2.901 -0.7832  1.5855  0.5907
  747MOL0     H  792   4.535   2.255   2.674 -0.0514  0.6688  0.7719
  747MOL0     H  793   4.475   2.390   2.772 -0.2436  0.6964 -0.7054
  747MOL0     H  794   4.321   2.161   2.663  0.0116  1.1801 -1.5262
  747MOL0     H  795   4.271   2.219   2.822 -0.2537  1.3346  0.0408
  747MOL0     H  796   4.355   2.365   2.463 -3.2679 -0.9828 -1.9533
  747MOL0     H  797   4.234   2.521   2.289 -2.5768  0.5792 -1.2034
  747MOL0     H  798   4.078   2.541   2.319  0.6765 -1.3168 -0.5300
  747MOL0     H  799   4.078   2.745   2.418  0.5252  3.8271  0.6108
  747MOL0     H  800   4.229   2.732   2.502  0.0709  2.2141 -0.1958
  747MOL0     H  801   4.220   2.776   2.193  1.2861 -0.1893 -0.9762
  747MOL0     H  802   4.349   2.780   2.302  0.1058 -1.5693 -1.8915
  747MOL0     H  803   4.281   3.002   2.246 -0.6782  0.0411 -0.8204
  747MOL0     H  804   4.241   2.979   2.417 -0.4906  3.0975 -0.4271
  747MOL0     H  805   4.172   3.144   2.471 -0.3625 -1.2297 -1.0772
  747MOL0     H  806   4.081   3.377   2.519 -0.1082  2.3261 -1.1120
  747MOL0     H  807   3.929   3.734   2.660  1.2128 -0.0428 -1.1932
  747MOL0     H  808   3.849   3.951   2.691 -2.1612  0.5152  0.3483
  747MOL0     H  809   3.474   4.083   2.446 -3.8808 -0.3408  1.5440
  747MOL0     H  810   3.445   4.006   2.600 -0.4385 -1.1514 -3.4054
  747MOL0     H  811   3.541   4.300   2.606  0.6313 -0.9980 -2.1584
  747MOL0     H  812   3.364   4.251   2.607 -0.0145  0.9605  0.6589
  747MOL0     H  813   3.379   4.161   2.803 -2.0390  4.1616  1.7068
  747MOL0     H  814   3.551   4.129   2.803 -1.4198 -0.7333  0.4375
  747MOL0     H  815   3.404   4.397   2.863 -1.6505 -0.0527  3.7801
  747MOL0     H  816   3.580   4.367   2.866  1.4055 -2.9096 -0.1888
  747MOL0     H  817   3.567   4.192   3.034  0.0081 -0.5151 -0.1388
  747MOL0     H  818   3.390   4.192   3.027  1.0875 -0.8336 -2.1038
  747MOL0     H  819   3.569   4.409   3.125  0.6081 -1.1186 -0.6224
  747MOL0     H  820   3.401   4.425   3.108 -0.0382 -0.2448 -1.0898
  747MOL0     H  821   3.362   4.228   3.259  1.9370 -1.2113  2.2099
  747MOL0     H  822   3.415   4.356   3.344 -6.0559 -2.1785  0.6913
  747MOL0     H  823   3.599   4.133   3.250 -2.2744 -2.6747  2.3831
  747MOL0     H  824   3.644   4.290   3.342 -3.2654  3.3809  0.9695
  747MOL0     H  825   3.543   3.877   2.382  0.3770  1.9672  1.0976
  747MOL0     H  826   3.606   3.647   2.374 -1.1181  1.5245 -1.9672
  747MOL0     H  827   3.775   3.290   2.236  0.2340 -0.2093  3.0497
  747MOL0     H  828   3.856   3.075   2.195 -0.1728 -1.0347  0.9135
  747MOL0     H  829   4.293   2.128   3.476 -0.2131 -0.6498  2.3714
  747MOL0     H  830   4.322   2.329   3.594  1.2173  1.8487  2.7317
  747MOL0     H  831   4.788   2.579   3.961  1.3448  1.0768  1.0002
  747MOL0     H  832   4.806   2.806   4.034  0.0576 -1.1393 -0.2266
  747MOL0     H  833   4.824   3.020   4.021  1.5638  0.6827 -2.3478
  747MOL0     H  834   4.668   3.076   4.091  1.2599 -3.2016  0.0656
  747MOL0     H  835   4.850   3.259   4.067  1.3748  0.1300 -1.7369
  747MOL0     H  836   4.718   3.295   3.957 -2.4067 -1.3990 -0.8013
  747MOL0     H  837   4.862   3.195   3.773  0.5030  2.2474 -0.4776
  747MOL0     H  838   4.986   3.162   3.889 -1.9250 -1.4144  1.5872
  747MOL0     H  839   5.035   3.373   3.750 -2.0495 -0.0412 -1.1649
  747MOL0     H  840   4.880   3.436   3.798 -1.8651 -2.1470  0.8726
  747MOL0     H  841   5.125   3.521   4.140 -3.5327  1.8607  1.4302
  747MOL0     H  842   4.546   2.918   3.703 -2.3392 -2.4041  0.5873
  747MOL0     H  843   4.435   2.622   3.612 -2.4862  1.7884 -0.0700
  747MOL0     H  844   4.488   2.773   3.536  0.8133 -0.6725 -1.9235
  747MOL0     H  845   4.579   2.617   3.524 -2.6266 -0.2451 -1.5603
  748MOL0     O  846   2.593   3.075   9.278 -0.3925 -0.1898 -0.2094
  748MOL0     C  847   2.665   3.127   9.187  0.2771 -0.1686 -0.6854
  748MOL0     O  848   2.784   3.167   9.199  0.1564 -0.7387 -1.2641
  748MOL0     C  849   2.856   3.125   9.306 -0.2283  0.6375  0.0917
  748MOL0     C  850   2.938   3.012   9.285 -0.2815  0.4470  0.3904
  748MOL0     C  851   3.032   2.977   9.380  0.1342  0.1214  1.2242
  748MOL0     C  852   3.028   3.028   9.512 -0.4308 -0.7844  0.2775
  748MOL0     O  853   3.106   2.986   9.617  0.2648 -0.2602 -0.3407
  748MOL0     C  854   3.196   2.879   9.596  0.6288  0.1728 -0.8946
  748MOL0     C  855   3.272   2.841   9.728 -1.0617  0.5281  0.2848
  748MOL0     C  856   3.192   2.780   9.843  0.9629  0.2253 -1.2355
  748MOL0     C  857   3.293   2.721   9.946  0.6967 -0.1489  0.5702
  748MOL0     C  858   3.209   2.689  10.069 -1.6206  0.7321  0.1179
  748MOL0     C  859   3.135   2.556  10.045 -0.4872 -0.2530 -0.5227
  748MOL0     C  860   3.072   2.499  10.175  0.7020 -0.5063  0.4137
  748MOL0     C  861   2.984   2.368  10.172  0.2753  0.0718 -0.0221
  748MOL0     N  862   2.866   2.396  10.083  0.3613  0.1092  0.8108
  748MOL0     C  863   2.746   2.449  10.123  0.2637 -0.1676 -0.3014
  748MOL0     C  864   2.650   2.405  10.046 -1.7109  0.5640  0.1210
  748MOL0     C  865   2.509   2.426  10.053  1.5034 -0.7944  0.1395
  748MOL0     C  866   2.440   2.309  10.129 -0.2878  0.3377  0.2764
  748MOL0     C  867   2.297   2.345  10.125  0.3311  0.4191  0.3222
  748MOL0     C  868   2.206   2.237  10.185  0.4095 -0.2017  0.5219
  748MOL0     O  869   2.075   2.308  10.200 -0.2493  0.2308  0.2254
  748MOL0     C  870   1.961   2.228  10.207 -0.6815  0.1757 -0.8812
  748MOL0     C  871   1.872   2.242  10.314 -1.2296 -0.2068  0.8810
  748MOL0     C  872   1.755   2.165  10.322  0.3146  0.4794  0.2800
  748MOL0     C  873   1.733   2.066  10.228 -0.2658  1.5028 -0.2492
  748MOL0     C  874   1.609   1.979  10.225 -0.3417  0.3236  1.6920
  748MOL0     O  875   1.607   1.864  10.147  0.0679 -0.3567 -0.0501
  748MOL0     C  876   1.496   1.787  10.155  0.3144 -0.1784 -0.2175
  748MOL0     C  877   1.457   1.719  10.268 -0.5078  0.4237 -0.6049
  748MOL0     C  878   1.347   1.629  10.262  0.8355 -0.8910 -0.2531
  748MOL0     C  879   1.281   1.606  10.138  0.0758  0.5700 -0.5501
  748MOL0     O  880   1.181   1.520  10.106  0.7410 -0.0269  0.5035
  748MOL0     C  881   1.154   1.404  10.189  0.2037  0.0115 -1.1795
  748MOL0     C  882   1.252   1.296  10.155  0.1476  0.3758  0.3105
  748MOL0     C  883   1.267   1.272  10.005 -0.2396  1.0229  0.1252
  748MOL0     C  884   1.143   1.225   9.940 -0.1493 -0.0104  0.1838
  748MOL0     C  885   1.163   1.200   9.791  1.0122  0.1081 -1.0583
  748MOL0     C  886   1.175   1.326   9.696  0.3885 -0.2867  0.2306
  748MOL0     C  887   1.069   1.433   9.699 -0.2243 -0.0476  0.1164
  748MOL0     C  888   0.938   1.410   9.619 -0.5976 -0.3071 -0.1846
  748MOL0    Cl  889   0.829   1.290   9.726 -0.3454 -0.6354  0.4731
  748MOL0     C  890   1.321   1.679  10.025 -0.2702 -0.1240 -0.6660
  748MOL0     C  891   1.433   1.773  10.038  0.0594  0.1658  0.1008
  748MOL0     O  892   1.513   2.020  10.290 -0.0059  0.3422  0.0368
  748MOL0     C  893   1.822   2.043  10.125 -0.6412 -0.2178 -1.3288
  748MOL0     C  894   1.929   2.128  10.112  1.0244  0.2372 -1.1109
  748MOL0     N  895   2.717   2.328   9.944  0.0498 -0.6031 -0.2870
  748MOL0     N  896   2.844   2.342   9.961 -0.5937 -0.5880  0.6390
  748MOL0     C  897   2.931   3.138   9.540 -1.2060  0.0751  0.6879
  748MOL0     C  898   2.857   3.191   9.434 -0.6937  1.0552  0.1093
  748MOL0     C  899   2.584   3.169   9.064 -0.0232 -0.8656 -0.0599
  748MOL0     C  900   2.475   3.088   9.019  0.1465  0.7268  0.0572
  748MOL0     C  901   2.405   3.111   8.902  0.1634 -1.0456  0.2372
  748MOL0     C  902   2.415   3.237   8.842 -0.4976  0.1769 -0.3300
  748MOL0     O  903   2.317   3.260   8.748 -0.2035 -0.3978 -0.4679
  748MOL0     C  904   2.251   3.384   8.755 -0.5662 -0.3891  0.1931
  748MOL0     C  905   2.216   3.417   8.608 -0.2695  0.0352  0.3300
  748MOL0     C  906   2.193   3.566   8.594 -0.8935 -0.0511 -0.1597
  748MOL0     C  907   2.154   3.625   8.460  0.5221  0.7894 -0.0422
  748MOL0     C  908   2.249   3.584   8.352  0.3937 -0.1975  0.0466
  748MOL0     C  909   2.332   3.571   8.262  0.4464 -0.0677 -0.7878
  748MOL0     C  910   2.513   3.331   8.883  0.0554  0.0061  0.6532
  748MOL0     C  911   2.604   3.293   8.988  0.3136 -0.5518 -1.0583
  748MOL0     C  912   2.711   3.401   9.009 -0.0242 -0.3140  0.1685
  748MOL0     H  913   2.931   2.959   9.191 -3.4149  1.3708  0.0034
  748MOL0     H  914   3.093   2.889   9.364 -0.9553 -0.8784  2.3289
  748MOL0     H  915   3.141   2.792   9.557  1.0710 -1.1287  1.2067
  748MOL0     H  916   3.272   2.909   9.524 -0.9115  3.0166 -1.4572
  748MOL0     H  917   3.331   2.930   9.753 -0.5179  1.4763 -3.6738
  748MOL0     H  918   3.340   2.765   9.688 -0.2864  1.4684 -0.2356
  748MOL0     H  919   3.117   2.713   9.800 -0.5772  0.7865  0.4744
  748MOL0     H  920   3.144   2.858   9.902  2.1185  0.3305 -0.4054
  748MOL0     H  921   3.347   2.634   9.910  2.5281 -0.0620  2.9092
  748MOL0     H  922   3.362   2.802   9.973  2.4996 -0.6518 -2.1443
  748MOL0     H  923   3.286   2.685  10.147 -2.1465  4.6242  1.0658
  748MOL0     H  924   3.138   2.765  10.101 -3.6589 -1.1953  0.3956
  748MOL0     H  925   3.056   2.564   9.970  1.7532 -3.0120 -3.4704
  748MOL0     H  926   3.212   2.488  10.007  2.8509  1.8333  1.9077
  748MOL0     H  927   3.011   2.583  10.212  0.5106 -0.5314  0.1597
  748MOL0     H  928   3.156   2.486  10.243  0.7089 -0.5690  0.3924
  748MOL0     H  929   3.045   2.286  10.134 -0.1191 -0.7625  1.0782
  748MOL0     H  930   2.961   2.339  10.275  0.0929 -2.4108 -0.7057
  748MOL0     H  931   2.718   2.507  10.210 -0.9369  0.0559 -0.8288
  748MOL0     H  932   2.486   2.518  10.108  2.1233 -0.2873 -0.4349
  748MOL0     H  933   2.457   2.434   9.957 -3.2981  1.7377  2.5948
  748MOL0     H  934   2.466   2.214  10.083  0.3972 -0.6208  2.5116
  748MOL0     H  935   2.464   2.304  10.236  0.6072 -0.2658  0.0566
  748MOL0     H  936   2.258   2.352  10.023 -0.2419 -1.6417  0.3573
  748MOL0     H  937   2.274   2.433  10.185  1.8550 -0.2767  2.0252
  748MOL0     H  938   2.250   2.202  10.279  2.3151 -0.3825 -0.3818
  748MOL0     H  939   2.186   2.153  10.117 -1.8541  0.5430  0.1912
  748MOL0     H  940   1.876   2.312  10.396  0.7338 -1.0136  1.5580
  748MOL0     H  941   1.684   2.185  10.401 -0.0360  2.0758 -0.3897
  748MOL0     H  942   1.513   1.728  10.361  0.8799  1.4859 -1.5012
  748MOL0     H  943   1.300   1.579  10.345 -0.0138 -0.6914 -0.6075
  748MOL0     H  944   1.157   1.438  10.293  3.9275 -0.4578 -0.9824
  748MOL0     H  945   1.049   1.376  10.180  0.7919 -2.0081 -2.2559
  748MOL0     H  946   1.354   1.316  10.190  2.2484 -3.0075 -3.1370
  748MOL0     H  947   1.213   1.201  10.193  0.4222  0.8172  1.7854
  748MOL0     H  948   1.329   1.348   9.957  2.3701  0.1755  1.9132
  748MOL0     H  949   1.335   1.187   9.989  1.0328  2.1001 -0.4455
  748MOL0     H  950   1.057   1.291   9.954 -0.6498 -0.9449  1.8414
  748MOL0     H  951   1.120   1.128   9.985  0.3392 -0.1494  0.1343
  748MOL0     H  952   1.079   1.135   9.765  0.1485 -0.1839  2.1311
  748MOL0     H  953   1.251   1.135   9.789 -0.3713 -2.1271  2.2184
  748MOL0     H  954   1.272   1.374   9.713  0.9397 -1.1934 -0.3051
  748MOL0     H  955   1.191   1.294   9.593  0.6716  0.1787  0.1262
  748MOL0     H  956   1.132   1.509   9.653 -1.1344 -0.2068 -1.4471
  748MOL0     H  957   1.040   1.461   9.801  2.2244 -1.0181  1.1585
  748MOL0     H  958   0.885   1.505   9.607  1.9655  1.1302 -0.7603
  748MOL0     H  959   0.952   1.371   9.518 -1.2846 -1.0005 -0.0310
  748MOL0     H  960   1.270   1.677   9.929  0.5888  0.4696 -1.1539
  748MOL0     H  961   1.451   1.833   9.949 -1.9554 -2.3765 -2.2049
  748MOL0     H  962   1.807   1.965  10.051  2.2551 -1.5018 -0.6997
  748MOL0     H  963   1.991   2.129  10.023  1.0528 -1.0440 -1.1353
  748MOL0     H  964   2.932   3.184   9.639 -0.0727  1.0571  0.2479
  748MOL0     H  965   2.805   3.287   9.432  2.2286  2.7642 -2.0305
  748MOL0     H  966   2.441   2.998   9.069 -0.0010  1.5679  1.5337
  748MOL0     H  967   2.327   3.040   8.879 -0.4533 -0.3100  0.0126
  748MOL0     H  968   2.307   3.466   8.800  1.1416 -0.4868 -1.6228
  748MOL0     H  969   2.161   3.364   8.814 -0.3996 -1.8390  0.0053
  748MOL0     H  970   2.120   3.367   8.590 -0.5717 -0.2733  2.5932
  748MOL0     H  971   2.294   3.376   8.543  1.6164  0.3157  2.3394
  748MOL0     H  972   2.284   3.614   8.632 -0.8122 -0.8138  0.6457
  748MOL0     H  973   2.125   3.591   8.677 -1.5447 -3.1691  0.3829
  748MOL0     H  974   2.050   3.606   8.429  0.1186  1.8585  0.5880
  748MOL0     H  975   2.157   3.734   8.473 -2.1240  0.6554  3.2708
  748MOL0     H  976   2.409   3.536   8.195 -0.3072 -0.1533 -1.6219
  748MOL0     H  977   2.531   3.425   8.830 -0.3338 -1.7572 -2.9568
  748MOL0     H  978   2.666   3.498   9.033  0.5620 -0.0957  0.4004
  748MOL0     H  979   2.784   3.377   9.087  0.9784  0.8357 -0.3890
  748MOL0     H  980   2.762   3.407   8.913 -2.3615 -0.7533 -1.1590
  749MOL0     O  981  10.588   1.584  11.225 -0.0487 -0.7501  0.3758
  749MOL0     C  982  10.700   1.608  11.188 -0.1213 -0.2493  0.5581
  749MOL0     O  983  10.812   1.616  11.265 -0.1915 -0.3494  0.0040
  749MOL0     C  984  10.796   1.566  11.394  0.2968 -0.7174  0.2759
  749MOL0     C  985  10.775   1.656  11.494 -0.2797 -0.0751  0.4176
  749MOL0     C  986  10.771   1.614  11.628 -0.1953  0.2693  0.6354
  749MOL0     C  987  10.779   1.478  11.660  0.8704 -0.0562 -0.4190
  749MOL0     O  988  10.796   1.443  11.797  0.1122 -0.6765  0.1247
  749MOL0     C  989  10.890   1.343  11.832  0.3101  0.7006 -0.1328
  749MOL0     C  990  11.023   1.404  11.874 -0.1821  0.2883 -0.5095
  749MOL0     C  991  11.116   1.286  11.900  0.0676 -0.8200 -0.4121
  749MOL0     C  992  11.248   1.340  11.953 -0.2985  0.5084 -0.1425
  749MOL0     C  993  11.335   1.239  12.035  0.3811 -0.3194 -0.2529
  749MOL0     C  994  11.379   1.113  11.954  0.1724 -0.1996 -0.1413
  749MOL0     C  995  11.504   1.047  12.006 -0.6467  0.2279 -0.1142
  749MOL0     C  996  11.503   1.011  12.154  0.8308  0.9320  1.1218
  749MOL0     N  997  11.595   0.894  12.175 -0.3337  1.0091  0.3575
  749MOL0     C  998  11.572   0.766  12.133 -0.6250 -0.4557  0.9124
  749MOL0     C  999  11.676   0.698  12.188  0.3109  0.0887  0.4094
  749MOL0     C 1000  11.704   0.550  12.170 -0.2738 -1.3556 -0.2021
  749MOL0     C 1001  11.830   0.508  12.240 -0.8803 -0.9778  0.6186
  749MOL0     C 1002  11.840   0.355  12.268  0.1361 -1.3071  0.6754
  749MOL0     C 1003  11.982   0.317  12.315  0.4927 -0.0107  0.4750
  749MOL0     O 1004  12.093   0.374  12.236  0.2444 -0.1248  0.1009
  749MOL0     C 1005  12.218   0.305  12.248  0.1509 -0.6420 -0.0550
  749MOL0     C 1006  12.322   0.350  12.157 -0.9192 -0.5722 -0.1765
  749MOL0     C 1007  12.451   0.285  12.164  0.4574  0.2028  0.6377
  749MOL0     C 1008  12.487   0.192  12.267  0.0342 -0.2665  0.4993
  749MOL0     C 1009  12.622   0.143  12.274 -0.1828 -0.9506  0.4725
  749MOL0     O 1010  12.707   0.208  12.193  0.0606 -0.8671  1.0388
  749MOL0     C 1011  12.840   0.192  12.196  0.2479 -0.0527 -0.3306
  749MOL0     C 1012  12.907   0.181  12.321  0.5679  0.0968 -0.6359
  749MOL0     C 1013  13.041   0.155  12.327  0.5220  0.1382 -0.2699
  749MOL0     C 1014  13.120   0.144  12.212 -0.3113  0.5777  0.3710
  749MOL0     O 1015  13.253   0.147  12.192 -0.2445 -1.1202 -1.1563
  749MOL0     C 1016  13.330   0.177  12.308 -0.4670 -0.1328 -0.1594
  749MOL0     C 1017  13.474   0.199  12.278  1.0051 -0.6021 -0.9465
  749MOL0     C 1018  13.570   0.202  12.397  0.7914 -0.0076  0.5399
  749MOL0     C 1019  13.713   0.235  12.346 -0.4392 -0.3642  0.3189
  749MOL0     C 1020  13.810   0.236  12.477 -0.0548 -1.0839 -0.0716
  749MOL0     C 1021  13.852   0.092  12.509  0.1782  0.2671 -0.0345
  749MOL0     C 1022  13.959   0.096  12.627  0.0668 -0.0448  0.0492
  749MOL0     C 1023  13.904   0.150  12.757 -0.5509 -0.5465  0.5621
  749MOL0    Cl 1024  13.755   0.056  12.797 -0.8319 -0.3855 -0.5231
  749MOL0     C 1025  13.053   0.146  12.085 -0.1604  0.4039  0.4340
  749MOL0     C 1026  12.916   0.184  12.085  0.1746 -0.2389  0.2452
  749MOL0     O 1027  12.644   0.059  12.351  0.3774 -0.9093 -0.4835
  749MOL0     C 1028  12.385   0.145  12.345 -0.3898 -0.0064 -0.7248
  749MOL0     C 1029  12.254   0.193  12.327  0.2640  0.3961 -0.1637
  749MOL0     N 1030  11.758   0.787  12.250 -0.3743 -0.8405  0.1565
  749MOL0     N 1031  11.722   0.916  12.222  0.7508  0.8317  0.3074
  749MOL0     C 1032  10.797   1.388  11.553  0.5570 -0.7718 -0.1473
  749MOL0     C 1033  10.802   1.433  11.420  0.6170  0.2580 -0.0943
  749MOL0     C 1034  10.712   1.655  11.047  0.8083 -0.6470  0.8973
  749MOL0     C 1035  10.610   1.731  10.987 -1.6850  0.4138  0.4133
  749MOL0     C 1036  10.603   1.767  10.858  0.2240 -0.0877 -0.8378
  749MOL0     C 1037  10.716   1.738  10.781 -1.3010  0.5330 -0.9041
  749MOL0     O 1038  10.712   1.781  10.651  1.2721  0.5904 -0.4421
  749MOL0     C 1039  10.734   1.923  10.630  0.5951 -0.4169  0.7938
  749MOL0     C 1040  10.883   1.933  10.605 -0.1439 -0.1833 -0.6218
  749MOL0     C 1041  10.924   2.078  10.581  0.5404  0.0208 -0.7351
  749MOL0     C 1042  11.065   2.118  10.550  0.7480  0.0110 -0.3865
  749MOL0     C 1043  11.133   2.021  10.469  0.2592  0.1759 -0.2224
  749MOL0     C 1044  11.173   1.927  10.407  1.5929  0.0379  0.0707
  749MOL0     C 1045  10.829   1.667  10.837 -0.6256 -0.8485 -0.0851
  749MOL0     C 1046  10.821   1.618  10.966  0.5476  0.2804  0.7615
  749MOL0     C 1047  10.927   1.517  11.006 -0.2251 -0.4259 -0.4564
  749MOL0     H 1048  10.751   1.756  11.458  2.7368 -0.8824 -4.9109
  749MOL0     H 1049  10.779   1.694  11.701 -1.8567  2.2225 -1.1874
  749MOL0     H 1050  10.849   1.280  11.912 -2.3751  0.6411 -1.4405
  749MOL0     H 1051  10.906   1.271  11.752  4.3046  0.0584  1.0075
  749MOL0     H 1052  11.010   1.466  11.963  0.8014 -3.1833  2.3032
  749MOL0     H 1053  11.063   1.472  11.798  1.6954 -1.0665 -0.8265
  749MOL0     H 1054  11.130   1.228  11.808  1.7218 -0.3181 -0.5187
  749MOL0     H 1055  11.079   1.222  11.980 -0.0695 -0.2839 -0.0351
  749MOL0     H 1056  11.302   1.372  11.863 -0.4501 -1.5774 -1.0246
  749MOL0     H 1057  11.229   1.424  12.021  1.3970 -1.3736  2.8810
  749MOL0     H 1058  11.420   1.299  12.068  0.2462 -1.1563  1.7355
  749MOL0     H 1059  11.287   1.213  12.130  0.7353 -1.1573 -0.2865
  749MOL0     H 1060  11.295   1.044  11.945  1.5732 -2.0454  0.2540
  749MOL0     H 1061  11.393   1.142  11.850  1.1199  0.1633  0.0782
  749MOL0     H 1062  11.592   1.108  11.981  0.0091 -0.2375  0.9925
  749MOL0     H 1063  11.517   0.948  11.960  2.2533 -0.5127  2.0183
  749MOL0     H 1064  11.532   1.097  12.216  0.3329  0.6323  1.7835
  749MOL0     H 1065  11.399   0.983  12.174 -0.0636  2.1329 -1.4451
  749MOL0     H 1066  11.486   0.726  12.080  1.5532  0.4903 -3.8771
  749MOL0     H 1067  11.614   0.501  12.210 -0.2300 -0.6866  0.7608
  749MOL0     H 1068  11.709   0.520  12.065  1.0628  0.4050 -0.6826
  749MOL0     H 1069  11.918   0.531  12.179 -1.0184 -0.4595  0.6137
  749MOL0     H 1070  11.851   0.556  12.336 -0.5066 -1.7168  0.9243
  749MOL0     H 1071  11.838   0.302  12.172  2.0275  2.4213 -1.6789
  749MOL0     H 1072  11.758   0.320  12.330  0.6893 -0.5349  1.8937
  749MOL0     H 1073  11.993   0.208  12.322  4.7236  0.0505 -1.7322
  749MOL0     H 1074  11.993   0.359  12.415  0.5496  2.9277 -0.6756
  749MOL0     H 1075  12.312   0.427  12.082 -3.8805  0.2498  0.9109
  749MOL0     H 1076  12.522   0.311  12.087 -0.3663 -0.2493 -0.3015
  749MOL0     H 1077  12.849   0.183  12.413  1.0494  1.3167 -0.3461
  749MOL0     H 1078  13.089   0.144  12.424  0.1527 -1.3491 -0.2376
  749MOL0     H 1079  13.288   0.264  12.360 -1.6580  0.1400 -1.5293
  749MOL0     H 1080  13.329   0.087  12.370 -2.0574 -0.7810 -1.0607
  749MOL0     H 1081  13.516   0.138  12.197  1.5365 -1.8875  0.2576
  749MOL0     H 1082  13.482   0.304  12.248  2.2016 -0.2170  0.5872
  749MOL0     H 1083  13.546   0.281  12.468 -2.0324  0.2052 -0.5004
  749MOL0     H 1084  13.576   0.108  12.452  3.7960  0.1726  0.6764
  749MOL0     H 1085  13.711   0.329  12.290  1.8165  0.9624  2.2659
  749MOL0     H 1086  13.745   0.160  12.274  1.8441  1.8492 -1.1345
  749MOL0     H 1087  13.751   0.288  12.553 -3.1242 -3.4607 -0.5859
  749MOL0     H 1088  13.894   0.300  12.449 -0.1500  0.0683  2.1183
  749MOL0     H 1089  13.769   0.023  12.528  1.0179 -0.6411  0.3942
  749MOL0     H 1090  13.899   0.045  12.422  0.3750 -1.2557  0.8626
  749MOL0     H 1091  14.040   0.166  12.601  0.0260 -0.4542 -1.2280
  749MOL0     H 1092  13.994  -0.007  12.632 -0.8850 -0.3070  1.8389
  749MOL0     H 1093  13.991   0.144  12.822  0.1360 -0.0292 -0.2956
  749MOL0     H 1094  13.884   0.257  12.751  0.9059 -0.0450  3.2442
  749MOL0     H 1095  13.101   0.145  11.988 -4.2185  1.4594 -1.8144
  749MOL0     H 1096  12.877   0.200  11.985  1.5706 -0.5683 -0.3798
  749MOL0     H 1097  12.406   0.068  12.420 -2.5888  0.8517  0.8800
  749MOL0     H 1098  12.180   0.142  12.389 -4.4455  2.7184 -3.2557
  749MOL0     H 1099  10.818   1.282  11.549 -2.5407 -1.4428 -1.4942
  749MOL0     H 1100  10.800   1.355  11.345 -3.2059  0.4876 -0.4110
  749MOL0     H 1101  10.533   1.765  11.056 -2.3967  0.6095 -0.4710
  749MOL0     H 1102  10.523   1.820  10.808  3.0264  3.6193 -1.8589
  749MOL0     H 1103  10.702   1.982  10.716  0.7572  3.9587 -1.8606
  749MOL0     H 1104  10.680   1.956  10.540 -0.2977 -3.0271  0.2762
  749MOL0     H 1105  10.910   1.873  10.518 -0.0646 -2.7287  1.0267
  749MOL0     H 1106  10.934   1.885  10.690 -1.5685 -0.5208  0.0699
  749MOL0     H 1107  10.890   2.131  10.671 -1.7008 -0.3525 -1.2971
  749MOL0     H 1108  10.871   2.121  10.495 -0.9337  2.1721  1.1096
  749MOL0     H 1109  11.070   2.206  10.486  0.3579 -2.0358 -3.4191
  749MOL0     H 1110  11.109   2.125  10.650  3.6007  3.3374 -1.6514
  749MOL0     H 1111  11.193   1.853  10.333  1.2069  1.7025 -1.7726
  749MOL0     H 1112  10.896   1.638  10.757  0.0040  0.4930 -0.0580
  749MOL0     H 1113  10.967   1.456  10.924  1.6029 -0.0175  0.0856
  749MOL0     H 1114  11.013   1.577  11.039  0.2640 -1.3080 -0.1017
  749MOL0     H 1115  10.905   1.438  11.078  1.1850 -0.2548  0.2081
  750MOL0     O 1116   2.840   1.224   4.567  0.2661  0.6827 -0.8947
  750MOL0     C 1117   2.866   1.297   4.474  1.1852  0.8288  0.3639
  750MOL0     O 1118   2.815   1.419   4.450 -0.6657 -0.4680 -0.2772
  750MOL0     C 1119   2.741   1.470   4.546  1.3559  0.2905 -0.2257
  750MOL0     C 1120   2.775   1.512   4.676 -0.3376 -0.1189  0.9086
  750MOL0     C 1121   2.689   1.572   4.766  0.0842  0.5273  0.7371
  750MOL0     C 1122   2.545   1.582   4.734 -0.4349  0.3307  0.1965
  750MOL0     O 1123   2.457   1.610   4.833 -0.5937  0.4110  0.0539
  750MOL0     C 1124   2.336   1.673   4.808  0.2594  0.0771  0.0566
  750MOL0     C 1125   2.355   1.827   4.771 -0.4860 -0.4527  0.1544
  750MOL0     C 1126   2.224   1.887   4.720  0.9230  0.5121  0.3109
  750MOL0     C 1127   2.227   2.037   4.691  0.7286 -0.2296  0.3194
  750MOL0     C 1128   2.177   2.110   4.817 -0.4470 -0.2207 -0.1016
  750MOL0     C 1129   2.143   2.259   4.788 -0.2758 -0.7346 -0.0659
  750MOL0     C 1130   2.224   2.321   4.672 -0.5269 -0.4522  0.0426
  750MOL0     C 1131   2.181   2.469   4.638 -0.7129  1.0247 -0.2599
  750MOL0     N 1132   2.204   2.559   4.751 -0.1014 -0.3572 -0.4380
  750MOL0     C 1133   2.318   2.587   4.827  0.5007 -0.2658 -0.1377
  750MOL0     C 1134   2.266   2.653   4.939  0.6571 -1.2845 -0.0480
  750MOL0     C 1135   2.331   2.691   5.069 -0.6870 -0.1850 -0.5244
  750MOL0     C 1136   2.289   2.601   5.174 -0.1001  0.8035 -0.7215
  750MOL0     C 1137   2.301   2.658   5.307 -1.0097  0.0760  0.6337
  750MOL0     C 1138   2.434   2.616   5.376  0.9034 -0.0071 -0.3587
  750MOL0     O 1139   2.457   2.474   5.386 -0.2449 -0.5726  0.5243
  750MOL0     C 1140   2.438   2.416   5.513  0.0433  0.0803  0.4964
  750MOL0     C 1141   2.329   2.375   5.575  0.8571 -0.2661  0.0942
  750MOL0     C 1142   2.327   2.320   5.703  0.1839 -0.7321  0.6893
  750MOL0     C 1143   2.445   2.330   5.784 -0.3876 -0.5094 -0.6106
  750MOL0     C 1144   2.457   2.282   5.925  0.2065  0.2884 -0.3049
  750MOL0     O 1145   2.577   2.293   5.995 -0.4557 -0.9065 -0.8217
  750MOL0     C 1146   2.596   2.228   6.119  0.8246 -0.5110 -1.0148
  750MOL0     C 1147   2.723   2.170   6.140  0.6878  0.5818 -0.3000
  750MOL0     C 1148   2.759   2.102   6.260 -0.2273 -0.2957  0.3913
  750MOL0     C 1149   2.669   2.091   6.361  0.1015 -0.2724  0.4701
  750MOL0     O 1150   2.687   2.027   6.485 -0.7322  0.5855 -0.0789
  750MOL0     C 1151   2.603   1.918   6.530 -0.0449 -0.5219  0.5994
  750MOL0     C 1152   2.622   1.799   6.437 -0.4708  1.0731 -1.0452
  750MOL0     C 1153   2.777   1.766   6.435 -0.3064  0.3128  0.4727
  750MOL0     C 1154   2.781   1.616   6.421  0.0876 -0.3257 -0.2586
  750MOL0     C 1155   2.918   1.554   6.442  0.6784  0.1389 -0.9601
  750MOL0     C 1156   2.967   1.545   6.586 -0.6465 -0.3500 -0.0271
  750MOL0     C 1157   2.894   1.432   6.661  0.3748 -0.3770 -0.1536
  750MOL0     C 1158   2.955   1.422   6.799 -0.0677  0.3428 -0.7214
  750MOL0    Cl 1159   2.886   1.282   6.877 -0.6473 -0.2218 -0.1435
  750MOL0     C 1160   2.539   2.153   6.342 -0.3698 -0.1178  0.3707
  750MOL0     C 1161   2.502   2.218   6.220 -0.6401  0.7904  0.5837
  750MOL0     O 1162   2.352   2.225   5.965  0.4160 -0.5422  0.8508
  750MOL0     C 1163   2.559   2.390   5.721  0.6156 -0.1120 -0.0171
  750MOL0     C 1164   2.552   2.432   5.588  0.6332 -0.4977  0.2444
  750MOL0     N 1165   2.132   2.674   4.925  0.8399  0.4586  0.1464
  750MOL0     N 1166   2.101   2.624   4.811  0.5460 -0.3120  0.3776
  750MOL0     C 1167   2.509   1.540   4.601 -0.2141  0.0723  1.2120
  750MOL0     C 1168   2.606   1.487   4.512 -1.0871  0.4480  0.5036
  750MOL0     C 1169   2.943   1.241   4.362 -0.0851 -0.0948 -0.6138
  750MOL0     C 1170   2.971   1.324   4.253  0.2787  0.0592  0.5564
  750MOL0     C 1171   3.048   1.272   4.143 -1.0436 -1.2991  1.0146
  750MOL0     C 1172   3.114   1.149   4.143  0.0453  0.2565 -0.0489
  750MOL0     O 1173   3.172   1.101   4.036 -0.0708  1.1220  0.1278
  750MOL0     C 1174   3.320   1.073   4.034  0.0343 -0.6017 -0.1486
  750MOL0     C 1175   3.396   1.121   3.913  2.1931  0.0778  0.1376
  750MOL0     C 1176   3.388   1.274   3.890  0.7612  0.7349 -0.4354
  750MOL0     C 1177   3.460   1.344   4.011  0.9351  0.8412  0.6277
  750MOL0     C 1178   3.470   1.482   3.984 -0.4343  1.5322  0.2765
  750MOL0     C 1179   3.492   1.593   3.956 -0.2758 -0.0341 -0.9858
  750MOL0     C 1180   3.080   1.069   4.255  0.2954 -0.4428  0.5066
  750MOL0     C 1181   2.996   1.112   4.362  0.7020 -0.3255 -0.1106
  750MOL0     C 1182   3.006   1.018   4.481  0.1417  0.4675 -0.4005
  750MOL0     H 1183   2.873   1.479   4.710 -0.8577 -1.4240  1.1899
  750MOL0     H 1184   2.733   1.595   4.863  0.5769  1.2356  0.3584
  750MOL0     H 1185   2.283   1.626   4.725 -0.1478  1.5919 -0.5871
  750MOL0     H 1186   2.276   1.663   4.899  3.6047 -0.8611  2.3519
  750MOL0     H 1187   2.438   1.827   4.701  0.3103 -3.0099  1.0094
  750MOL0     H 1188   2.384   1.876   4.865  0.9695 -1.2062  0.1176
  750MOL0     H 1189   2.139   1.850   4.777  2.2112 -0.9417  1.3686
  750MOL0     H 1190   2.214   1.830   4.627  4.0379 -2.9915  1.8795
  750MOL0     H 1191   2.328   2.068   4.663  0.6913  0.0954  0.5455
  750MOL0     H 1192   2.162   2.066   4.608 -0.1748  0.6225  1.3022
  750MOL0     H 1193   2.092   2.058   4.861 -0.1935 -0.7328 -0.2115
  750MOL0     H 1194   2.257   2.119   4.891  1.7792  1.2632 -2.5092
  750MOL0     H 1195   2.040   2.272   4.751  0.3399 -1.5575 -2.2183
  750MOL0     H 1196   2.148   2.329   4.872  0.8151  0.2567 -0.9158
  750MOL0     H 1197   2.194   2.268   4.581  4.8537 -1.7686 -1.3221
  750MOL0     H 1198   2.331   2.316   4.697 -0.6842 -1.5704  0.5539
  750MOL0     H 1199   2.236   2.504   4.550 -1.0559 -2.0064 -1.8187
  750MOL0     H 1200   2.074   2.465   4.617 -0.7956 -2.0102  0.3576
  750MOL0     H 1201   2.417   2.545   4.809 -0.1512 -0.6104 -3.5845
  750MOL0     H 1202   2.440   2.680   5.059 -0.7735 -1.3226 -0.3109
  750MOL0     H 1203   2.313   2.796   5.094  0.6464 -0.0761  0.0804
  750MOL0     H 1204   2.180   2.589   5.166 -0.4243  3.4079 -1.0088
  750MOL0     H 1205   2.337   2.504   5.159  1.5105  1.7914 -2.3873
  750MOL0     H 1206   2.216   2.611   5.358 -0.9543  0.5705  1.1909
  750MOL0     H 1207   2.290   2.767   5.303  0.2322  0.1820 -0.5616
  750MOL0     H 1208   2.436   2.662   5.475  0.7675 -0.4637 -0.1416
  750MOL0     H 1209   2.520   2.652   5.319  2.3842  0.0396  1.8256
  750MOL0     H 1210   2.229   2.383   5.532  0.5220 -2.9598  0.2160
  750MOL0     H 1211   2.226   2.307   5.739 -1.5320  4.2997 -1.4346
  750MOL0     H 1212   2.791   2.151   6.057 -2.0251  1.0096 -2.7751
  750MOL0     H 1213   2.849   2.041   6.261  0.0186  0.0721  0.5053
  750MOL0     H 1214   2.639   1.888   6.629  5.0092 -1.8527 -1.3546
  750MOL0     H 1215   2.502   1.960   6.543  0.8118  1.5970  0.7709
  750MOL0     H 1216   2.561   1.718   6.480 -0.1867  1.0091 -0.7629
  750MOL0     H 1217   2.579   1.813   6.337  0.0027 -1.6896 -1.7119
  750MOL0     H 1218   2.832   1.807   6.350  0.3583 -2.7174 -0.7131
  750MOL0     H 1219   2.839   1.801   6.517  0.3608 -0.6685  0.4095
  750MOL0     H 1220   2.740   1.594   6.322 -3.1931  1.1633  0.5997
  750MOL0     H 1221   2.709   1.573   6.492  0.0200  0.7659  0.3627
  750MOL0     H 1222   2.988   1.611   6.379  1.7513  2.6260  2.2318
  750MOL0     H 1223   2.910   1.452   6.404  0.3511  0.1172 -0.8356
  750MOL0     H 1224   3.065   1.498   6.573 -0.6019 -0.2097 -0.2118
  750MOL0     H 1225   2.969   1.643   6.635 -0.3386 -0.8801  1.0522
  750MOL0     H 1226   2.895   1.344   6.595 -0.0567  0.3972 -1.2211
  750MOL0     H 1227   2.788   1.452   6.681  0.0698 -2.2943  0.3422
  750MOL0     H 1228   3.061   1.396   6.793 -0.4947 -1.4823 -0.9180
  750MOL0     H 1229   2.933   1.520   6.844 -4.0399 -1.5772  2.1659
  750MOL0     H 1230   2.468   2.144   6.423  0.6068  2.5657  1.6266
  750MOL0     H 1231   2.400   2.252   6.210 -1.1336 -1.0870 -2.2621
  750MOL0     H 1232   2.658   2.396   5.765  2.4685 -0.3653 -3.6911
  750MOL0     H 1233   2.642   2.457   5.534  0.6468 -0.1114  0.4389
  750MOL0     H 1234   2.408   1.551   4.564 -0.0249 -4.9357 -1.7553
  750MOL0     H 1235   2.571   1.475   4.410  0.7608  0.7828 -0.2087
  750MOL0     H 1236   2.933   1.425   4.250 -1.1355 -0.4724 -1.7985
  750MOL0     H 1237   3.063   1.341   4.060 -4.5864 -1.1318  0.3575
  750MOL0     H 1238   3.322   0.964   4.036 -0.5043 -0.6088  0.4402
  750MOL0     H 1239   3.376   1.107   4.122 -0.1681 -3.7326  1.3226
  750MOL0     H 1240   3.359   1.076   3.821 -0.4434  0.8631  0.7173
  750MOL0     H 1241   3.500   1.088   3.916  3.3324  3.1909 -1.7780
  750MOL0     H 1242   3.283   1.304   3.891  1.0920  1.9962  1.3946
  750MOL0     H 1243   3.438   1.297   3.796 -0.0281  0.1215 -1.0176
  750MOL0     H 1244   3.406   1.325   4.104  1.3166  2.2398  1.1572
  750MOL0     H 1245   3.555   1.289   4.018  0.8774  0.7403  0.6303
  750MOL0     H 1246   3.504   1.688   3.910 -0.2954 -0.2320 -1.4008
  750MOL0     H 1247   3.122   0.969   4.261  1.2898  0.0489  2.8241
  750MOL0     H 1248   3.055   1.065   4.567 -2.2865  0.3584  1.1449
  750MOL0     H 1249   2.906   0.996   4.517  0.5312 -0.0919  0.3747
  750MOL0     H 1250   3.048   0.921   4.452 -0.0932  0.2755 -0.1016
  751MOL0     O 1251  11.205   5.587   9.971  0.0702  0.2103  0.1308
  751MOL0     C 1252  11.207   5.480  10.039  1.3581 -0.2531 -0.0585
  751MOL0     O 1253  11.247   5.482  10.168  0.0237 -0.1364  0.0573
  751MOL0     C 1254  11.276   5.608  10.229  0.3560 -0.7469 -0.2269
  751MOL0     C 1255  11.194   5.664  10.323  0.5975 -0.8794 -0.6449
  751MOL0     C 1256  11.217   5.798  10.356 -0.3247  0.6297 -0.4545
  751MOL0     C 1257  11.330   5.870  10.311 -0.8091  0.2463  0.6561
  751MOL0     O 1258  11.349   5.993  10.352  0.1338  0.9069  0.9296
  751MOL0     C 1259  11.391   6.091  10.251 -0.6455 -0.0976 -0.3841
  751MOL0     C 1260  11.284   6.196  10.205 -0.6847 -0.8584 -0.7024
  751MOL0     C 1261  11.213   6.279  10.313 -0.0458 -0.1783  0.3896
  751MOL0     C 1262  11.310   6.321  10.432 -0.5223 -0.1080 -0.1850
  751MOL0     C 1263  11.232   6.375  10.545 -0.9900 -0.3316 -0.2053
  751MOL0     C 1264  11.154   6.503  10.512  0.5568  0.2044  0.5612
  751MOL0     C 1265  11.063   6.539  10.630 -0.4938 -0.4489 -0.8078
  751MOL0     C 1266  11.007   6.675  10.587  0.5165  0.8081  0.0099
  751MOL0     N 1267  10.910   6.731  10.690 -0.9719  0.5930 -0.5398
  751MOL0     C 1268  10.791   6.672  10.731  0.9653 -0.1447 -0.1048
  751MOL0     C 1269  10.737   6.763  10.821 -0.4019  0.2190  0.2691
  751MOL0     C 1270  10.608   6.733  10.884  0.2427  1.1669 -0.3398
  751MOL0     C 1271  10.529   6.854  10.892 -0.3023  0.2606 -0.9722
  751MOL0     C 1272  10.504   6.922  10.754 -0.0150 -0.7509 -0.2187
  751MOL0     C 1273  10.464   7.074  10.775  0.3484 -0.7168 -0.2884
  751MOL0     O 1274  10.566   7.135  10.854  0.1840  0.8800  0.9820
  751MOL0     C 1275  10.538   7.182  10.977  0.9273 -1.6016 -0.2348
  751MOL0     C 1276  10.663   7.203  11.049  0.6689 -0.2360  0.7058
  751MOL0     C 1277  10.667   7.266  11.165 -0.7524 -0.7594 -0.1288
  751MOL0     C 1278  10.557   7.298  11.226  0.2724  0.7684  0.2351
  751MOL0     C 1279  10.562   7.354  11.363 -0.1629  0.5479  0.5710
  751MOL0     O 1280  10.465   7.312  11.447 -0.2820 -0.1311 -0.5472
  751MOL0     C 1281  10.474   7.360  11.571 -0.0679 -0.5794 -0.2951
  751MOL0     C 1282  10.354   7.405  11.633 -1.1675  0.4625 -1.4587
  751MOL0     C 1283  10.363   7.448  11.767 -0.2137 -0.5741  0.5496
  751MOL0     C 1284  10.482   7.458  11.840 -0.1632 -1.3795 -0.5158
  751MOL0     O 1285  10.472   7.528  11.957  0.1162  0.2272 -0.2659
  751MOL0     C 1286  10.587   7.542  12.051 -0.3645  0.0637  0.6127
  751MOL0     C 1287  10.527   7.601  12.181 -0.5376 -0.3227 -0.3082
  751MOL0     C 1288  10.454   7.730  12.155  0.2258  0.6460 -0.6371
  751MOL0     C 1289  10.301   7.722  12.150  0.1880 -0.8628  1.0619
  751MOL0     C 1290  10.237   7.847  12.076  0.4888 -0.1386 -0.7457
  751MOL0     C 1291  10.250   7.953  12.186  0.3887 -0.3128 -0.3187
  751MOL0     C 1292  10.166   8.078  12.172  0.0965 -0.4720  0.2300
  751MOL0     C 1293  10.023   8.031  12.140  0.2043 -1.1407  0.0537
  751MOL0    Cl 1294   9.915   8.175  12.146  0.4045  0.1869  0.1354
  751MOL0     C 1295  10.597   7.413  11.775 -0.6392 -0.4338  0.0095
  751MOL0     C 1296  10.596   7.368  11.648  0.2690  0.3374  0.3691
  751MOL0     O 1297  10.654   7.425  11.387 -0.8645  0.2686 -0.1221
  751MOL0     C 1298  10.426   7.258  11.174  0.2756 -1.0391 -0.3943
  751MOL0     C 1299  10.421   7.208  11.044  0.5895  0.9478 -0.0547
  751MOL0     N 1300  10.834   6.865  10.851 -0.2629  0.1685  0.4574
  751MOL0     N 1301  10.935   6.836  10.773 -0.1060 -0.3096  0.5736
  751MOL0     C 1302  11.427   5.799  10.245 -0.0303  0.0794 -0.3963
  751MOL0     C 1303  11.400   5.667  10.209 -0.4635 -0.1043 -0.1955
  751MOL0     C 1304  11.179   5.350   9.969 -0.2172  0.5022 -0.1883
  751MOL0     C 1305  11.166   5.358   9.825  0.8000  0.7200 -0.3279
  751MOL0     C 1306  11.144   5.247   9.752 -0.7683 -0.0371 -0.9613
  751MOL0     C 1307  11.141   5.122   9.807  0.8717 -0.5780  0.6699
  751MOL0     O 1308  11.126   5.004   9.735  0.4550  0.3930 -0.3766
  751MOL0     C 1309  11.123   5.001   9.595 -0.9586 -0.1303  0.4407
  751MOL0     C 1310  11.083   4.862   9.543  0.4333 -0.2219  0.2171
  751MOL0     C 1311  11.069   4.860   9.386  0.3664 -0.2854 -0.5365
  751MOL0     C 1312  11.208   4.832   9.325 -0.0970 -0.8538  0.3016
  751MOL0     C 1313  11.206   4.852   9.180 -0.4018  0.2190  0.1019
  751MOL0     C 1314  11.203   4.891   9.066  0.2249 -0.2652  0.4728
  751MOL0     C 1315  11.148   5.104   9.946  1.0743 -0.5502 -0.3302
  751MOL0     C 1316  11.174   5.216  10.029 -0.6878  0.9918 -0.7022
  751MOL0     C 1317  11.218   5.195  10.180  0.1854  0.3673 -0.6373
  751MOL0     H 1318  11.092   5.634  10.346  0.4591  1.0327  1.6601
  751MOL0     H 1319  11.154   5.857  10.421  1.6142  2.1561  0.1273
  751MOL0     H 1320  11.479   6.149  10.277  1.3060 -2.2440 -1.8175
  751MOL0     H 1321  11.420   6.039  10.159 -1.0626 -1.5552  0.2662
  751MOL0     H 1322  11.216   6.152  10.131  0.1185 -0.5422 -1.6601
  751MOL0     H 1323  11.347   6.269  10.154  2.1202 -0.9472  2.3147
  751MOL0     H 1324  11.132   6.226  10.364  0.1465  0.1843  1.0853
  751MOL0     H 1325  11.165   6.358  10.254 -0.9329 -2.4821 -2.1903
  751MOL0     H 1326  11.363   6.229  10.459 -0.2423 -1.7385 -5.2071
  751MOL0     H 1327  11.387   6.391  10.399  1.7017 -1.7605  1.2473
  751MOL0     H 1328  11.159   6.304  10.584 -3.1218 -0.4010 -3.8754
  751MOL0     H 1329  11.295   6.406  10.629 -2.2280  3.1744 -0.3765
  751MOL0     H 1330  11.216   6.589  10.487  0.8595 -0.0675  0.3787
  751MOL0     H 1331  11.087   6.484  10.428  1.7526  0.4594 -0.4648
  751MOL0     H 1332  11.112   6.556  10.726 -5.4548 -0.1850  2.0435
  751MOL0     H 1333  10.984   6.468  10.657 -0.6052  0.6651  2.1558
  751MOL0     H 1334  11.090   6.745  10.573  2.2322 -0.7159  1.9329
  751MOL0     H 1335  10.946   6.667  10.496 -0.6768 -2.7168  0.9339
  751MOL0     H 1336  10.752   6.575  10.699 -0.1879 -0.2401  1.4822
  751MOL0     H 1337  10.552   6.651  10.838 -0.3215  0.6930  1.1144
  751MOL0     H 1338  10.626   6.702  10.988  2.1148 -1.2614 -1.2936
  751MOL0     H 1339  10.432   6.847  10.940  0.6691 -1.9378  0.8155
  751MOL0     H 1340  10.588   6.919  10.957 -1.2438  1.7356 -1.5281
  751MOL0     H 1341  10.421   6.884  10.696 -0.6554  0.1406  0.0879
  751MOL0     H 1342  10.590   6.928  10.687 -0.0583  1.1133 -0.1607
  751MOL0     H 1343  10.361   7.071  10.811 -0.2283 -1.5566 -1.9446
  751MOL0     H 1344  10.464   7.109  10.672 -2.2318  2.7308  0.6923
  751MOL0     H 1345  10.763   7.175  11.017  1.5024 -0.9816  3.6586
  751MOL0     H 1346  10.765   7.299  11.199 -0.4472 -0.8893 -0.8657
  751MOL0     H 1347  10.258   7.370  11.597 -0.6871 -0.1459 -2.1732
  751MOL0     H 1348  10.270   7.472  11.817 -1.2351  2.8772 -2.5062
  751MOL0     H 1349  10.635   7.448  12.078 -2.7758 -0.7376  2.5583
  751MOL0     H 1350  10.674   7.599  12.020 -0.1481 -1.5440 -2.0161
  751MOL0     H 1351  10.459   7.531  12.230 -1.1303  1.9649  2.4195
  751MOL0     H 1352  10.609   7.628  12.248 -1.8337 -3.7712  2.9996
  751MOL0     H 1353  10.480   7.802  12.233  0.5686 -0.3545  0.1970
  751MOL0     H 1354  10.490   7.771  12.060 -0.5282  1.1147 -0.7344
  751MOL0     H 1355  10.255   7.702  12.247 -0.8821  0.5955  0.9025
  751MOL0     H 1356  10.281   7.647  12.073  2.0466  0.4799 -0.8391
  751MOL0     H 1357  10.134   7.818  12.050  0.1128 -1.2352  1.7122
  751MOL0     H 1358  10.296   7.870  11.987  0.4138  1.2047 -0.4706
  751MOL0     H 1359  10.234   7.914  12.287 -0.2357  1.8769  0.5000
  751MOL0     H 1360  10.354   7.988  12.178  0.5841 -0.3963  1.4585
  751MOL0     H 1361  10.196   8.143  12.090  0.6553 -1.2580 -0.2052
  751MOL0     H 1362  10.164   8.132  12.267  0.0187  2.3674 -1.2661
  751MOL0     H 1363  10.017   7.987  12.040 -0.0581 -0.3280 -0.2989
  751MOL0     H 1364   9.994   7.948  12.205  0.7705 -2.2983 -1.1253
  751MOL0     H 1365  10.697   7.419  11.816  0.2727  2.6442 -2.3186
  751MOL0     H 1366  10.693   7.339  11.610 -0.8707  0.0986 -2.6914
  751MOL0     H 1367  10.334   7.261  11.231  1.5006 -0.9168  1.6596
  751MOL0     H 1368  10.324   7.183  11.002  0.1810 -1.8418  2.2283
  751MOL0     H 1369  11.519   5.848  10.215  1.3347 -1.8919  0.3072
  751MOL0     H 1370  11.476   5.619  10.148 -1.4321 -0.4828 -1.1431
  751MOL0     H 1371  11.161   5.451   9.769 -2.3796  1.2822  0.7256
  751MOL0     H 1372  11.119   5.276   9.650 -0.4090  0.2168 -0.9768
  751MOL0     H 1373  11.221   5.030   9.558 -1.2234  2.3221  1.4785
  751MOL0     H 1374  11.066   5.083   9.551  0.0469  0.5723  0.4077
  751MOL0     H 1375  10.986   4.837   9.587 -1.5281  1.9467 -2.5440
  751MOL0     H 1376  11.146   4.778   9.574 -2.6754 -3.0822 -0.5977
  751MOL0     H 1377  11.016   4.948   9.350 -3.4920 -1.0568  2.5193
  751MOL0     H 1378  11.015   4.770   9.354 -0.5466 -0.7819  2.0963
  751MOL0     H 1379  11.269   4.912   9.367 -0.9991  0.7454 -1.3287
  751MOL0     H 1380  11.251   4.738   9.361  1.3772 -0.1192  0.4931
  751MOL0     H 1381  11.217   4.926   8.966  2.5757  0.7257  1.0832
  751MOL0     H 1382  11.139   5.004   9.987 -3.0738  0.5893  2.1805
  751MOL0     H 1383  11.326   5.205  10.199  0.6177 -3.0464 -0.5406
  751MOL0     H 1384  11.158   5.257  10.247 -1.4196 -2.5856  0.8617
  751MOL0     H 1385  11.184   5.093  10.202 -2.7142  1.1803 -1.0556
  752MOL0     O 1386  10.186   4.935   3.860  0.3700  0.3447 -0.1581
  752MOL0     C 1387  10.106   4.869   3.799 -0.6361  0.5445 -0.3669
  752MOL0     O 1388  10.062   4.735   3.832  0.0956 -0.4161  0.0942
  752MOL0     C 1389  10.125   4.646   3.924  0.4130  0.8711  1.0945
  752MOL0     C 1390  10.250   4.674   3.986 -0.0084 -1.5040  0.8816
  752MOL0     C 1391  10.314   4.569   4.047 -0.3319  0.0521 -0.4174
  752MOL0     C 1392  10.266   4.430   4.057  0.8562 -0.0946 -1.2225
  752MOL0     O 1393  10.333   4.336   4.126 -0.2855  0.4096  0.4460
  752MOL0     C 1394  10.255   4.238   4.188  0.8043  0.8491 -0.9632
  752MOL0     C 1395  10.318   4.207   4.326 -0.2051  0.0405 -0.6425
  752MOL0     C 1396  10.252   4.084   4.391  0.4422  0.8115  0.2381
  752MOL0     C 1397  10.323   3.959   4.332 -1.6291 -0.4874  0.7348
  752MOL0     C 1398  10.258   3.834   4.403  0.3280 -0.3369  0.3485
  752MOL0     C 1399  10.346   3.711   4.399 -0.0766  1.2169  0.3060
  752MOL0     C 1400  10.288   3.586   4.462  0.8924  1.0217 -0.0319
  752MOL0     C 1401  10.334   3.438   4.443  0.6241 -0.1135 -0.9729
  752MOL0     N 1402  10.370   3.402   4.304 -0.2173  0.1644 -0.0695
  752MOL0     C 1403  10.285   3.386   4.197 -1.4225 -1.3728 -0.7609
  752MOL0     C 1404  10.370   3.359   4.097  0.1260 -0.1147 -0.6883
  752MOL0     C 1405  10.330   3.303   3.959  0.4448 -0.4944 -0.1759
  752MOL0     C 1406  10.301   3.423   3.862  0.2186  0.3255 -0.3617
  752MOL0     C 1407  10.423   3.503   3.831 -0.9028 -0.0576 -0.0422
  752MOL0     C 1408  10.400   3.625   3.736 -0.4644  0.3620 -0.6433
  752MOL0     O 1409  10.328   3.586   3.621 -0.2444 -0.5477  0.1103
  752MOL0     C 1410  10.292   3.697   3.541 -0.0244 -1.3148  0.0650
  752MOL0     C 1411  10.386   3.776   3.477 -0.4087  0.5755 -0.1851
  752MOL0     C 1412  10.341   3.880   3.389  0.0481 -0.4883  0.0640
  752MOL0     C 1413  10.201   3.913   3.368 -0.7195  0.1982 -0.6616
  752MOL0     C 1414  10.159   4.019   3.268 -0.3545  0.2436  0.3765
  752MOL0     O 1415  10.020   4.037   3.257  0.0958  0.3114 -0.2821
  752MOL0     C 1416   9.965   4.141   3.181 -0.1114 -0.1141 -0.5814
  752MOL0     C 1417   9.854   4.118   3.098 -0.8868  1.5951  0.4212
  752MOL0     C 1418   9.801   4.208   3.026  0.9362 -0.2352  0.9389
  752MOL0     C 1419   9.845   4.336   3.029 -0.4166 -0.3474  0.4444
  752MOL0     O 1420   9.770   4.430   2.969  0.3828  0.6468  0.1131
  752MOL0     C 1421   9.747   4.430   2.823 -0.2225  0.4080 -0.8447
  752MOL0     C 1422   9.619   4.500   2.788 -0.6164 -0.9697 -1.2555
  752MOL0     C 1423   9.503   4.476   2.877 -0.1667  0.3219  0.0522
  752MOL0     C 1424   9.455   4.332   2.877  0.3228 -0.6517  0.3632
  752MOL0     C 1425   9.402   4.291   2.734 -0.3065 -0.6632 -0.7922
  752MOL0     C 1426   9.307   4.166   2.739  0.1714  0.3494  1.0537
  752MOL0     C 1427   9.221   4.144   2.860 -0.2592 -0.1999 -0.1835
  752MOL0     C 1428   9.153   4.012   2.860  0.9056  1.2327 -0.1830
  752MOL0    Cl 1429   9.261   3.879   2.931  0.0889  0.0164  0.5470
  752MOL0     C 1430   9.949   4.369   3.113  0.5498  0.0434 -0.2968
  752MOL0     C 1431  10.017   4.269   3.178 -0.6156  0.6552 -0.9118
  752MOL0     O 1432  10.245   4.068   3.207  0.0241  0.6202 -0.2109
  752MOL0     C 1433  10.106   3.832   3.435 -0.7322  1.0091  0.5775
  752MOL0     C 1434  10.155   3.731   3.520  0.0060 -0.3991 -0.8197
  752MOL0     N 1435  10.494   3.377   4.137 -0.5337  0.9500  0.7171
  752MOL0     N 1436  10.499   3.399   4.267 -0.2711 -0.5241  0.7304
  752MOL0     C 1437  10.133   4.404   3.998 -0.4878  0.4430  0.3667
  752MOL0     C 1438  10.074   4.518   3.929 -0.6464  0.5124 -0.5852
  752MOL0     C 1439  10.033   4.943   3.689  1.2209  0.9277 -0.5409
  752MOL0     C 1440  10.106   4.976   3.579  0.0871  0.0083 -0.6408
  752MOL0     C 1441  10.050   5.015   3.459 -0.2060 -0.5482 -0.2671
  752MOL0     C 1442   9.912   5.022   3.449 -0.7088  0.6752  0.0957
  752MOL0     O 1443   9.856   5.061   3.329  0.3455  0.4251  0.1216
  752MOL0     C 1444   9.709   5.051   3.300  0.3733 -0.7549  0.3573
  752MOL0     C 1445   9.701   4.936   3.200 -1.1000 -0.8259 -0.4622
  752MOL0     C 1446   9.782   4.934   3.077  0.0810  0.7670 -0.5366
  752MOL0     C 1447   9.740   4.819   2.989 -0.1167  0.0610  0.4336
  752MOL0     C 1448   9.819   4.820   2.870 -0.1650  0.0905 -0.1487
  752MOL0     C 1449   9.884   4.820   2.773 -0.7311  0.0654  0.1256
  752MOL0     C 1450   9.837   4.997   3.563  0.2475 -0.6335 -0.1275
  752MOL0     C 1451   9.893   4.956   3.678 -0.1140 -0.2659 -0.3155
  752MOL0     C 1452   9.801   4.941   3.795 -0.4947  0.0667 -0.1107
  752MOL0     H 1453  10.290   4.775   3.988 -1.8560 -0.7661  2.1836
  752MOL0     H 1454  10.410   4.593   4.092 -0.8407  0.6562  0.3596
  752MOL0     H 1455  10.157   4.283   4.208 -1.1299 -2.9775 -0.9459
  752MOL0     H 1456  10.234   4.154   4.122 -2.2354 -0.2555  1.2103
  752MOL0     H 1457  10.320   4.296   4.389 -0.5944  0.8162 -1.6906
  752MOL0     H 1458  10.425   4.186   4.314 -0.7664 -2.6445 -1.5627
  752MOL0     H 1459  10.144   4.081   4.375 -0.2723 -2.1748  4.0963
  752MOL0     H 1460  10.275   4.085   4.498  4.6942 -0.4212 -0.4697
  752MOL0     H 1461  10.317   3.957   4.223 -1.5163  0.7675  0.6822
  752MOL0     H 1462  10.430   3.951   4.354 -0.4868  2.7892 -2.6011
  752MOL0     H 1463  10.229   3.854   4.507 -3.9494 -0.5715 -0.6018
  752MOL0     H 1464  10.168   3.806   4.346 -0.3834  2.5191 -0.1306
  752MOL0     H 1465  10.355   3.676   4.295 -0.4041  2.4307 -0.1390
  752MOL0     H 1466  10.445   3.735   4.439  0.4426  0.0533 -0.2103
  752MOL0     H 1467  10.180   3.589   4.443  0.0849 -5.0454  1.5208
  752MOL0     H 1468  10.304   3.600   4.569  0.0143 -1.9182  0.5913
  752MOL0     H 1469  10.421   3.412   4.505  1.4891 -0.0455 -2.1303
  752MOL0     H 1470  10.255   3.372   4.481  0.1115 -0.4003 -2.4786
  752MOL0     H 1471  10.177   3.401   4.192 -1.1030  2.5926  0.7533
  752MOL0     H 1472  10.405   3.237   3.916 -0.3879 -0.9925 -0.9045
  752MOL0     H 1473  10.250   3.232   3.983  0.3402 -0.5373 -0.6398
  752MOL0     H 1474  10.275   3.382   3.764 -0.8745  5.2970 -2.4364
  752MOL0     H 1475  10.212   3.467   3.909  0.6318 -1.9141  2.8405
  752MOL0     H 1476  10.502   3.435   3.797  0.7882  1.2854  1.0406
  752MOL0     H 1477  10.466   3.543   3.923  0.6533 -1.1232 -0.2661
  752MOL0     H 1478  10.495   3.659   3.695 -0.9342  0.7230 -1.4523
  752MOL0     H 1479  10.350   3.708   3.788  2.3127  0.5778  1.9619
  752MOL0     H 1480  10.491   3.751   3.494 -0.7714 -1.6083 -0.8743
  752MOL0     H 1481  10.420   3.941   3.349  1.8802 -3.6501 -1.5480
  752MOL0     H 1482   9.800   4.024   3.100 -0.0687  1.1117  0.3548
  752MOL0     H 1483   9.713   4.176   2.972 -0.5918  0.2662  2.9823
  752MOL0     H 1484   9.830   4.477   2.769  1.0462  0.6459  1.2176
  752MOL0     H 1485   9.742   4.327   2.787  3.2464  0.6200 -2.3199
  752MOL0     H 1486   9.644   4.606   2.794 -0.7395 -1.0320  1.0527
  752MOL0     H 1487   9.591   4.478   2.684 -2.7849  0.4785 -1.0383
  752MOL0     H 1488   9.531   4.505   2.979 -1.3204  2.2804 -0.1258
  752MOL0     H 1489   9.418   4.533   2.838 -1.9118 -1.8666  0.4936
  752MOL0     H 1490   9.378   4.334   2.954 -1.7488  2.7790 -1.5891
  752MOL0     H 1491   9.532   4.259   2.906 -1.0182 -1.9002  0.8985
  752MOL0     H 1492   9.496   4.264   2.684  0.5412 -1.1371  0.9738
  752MOL0     H 1493   9.353   4.365   2.670 -0.9730 -2.4651 -2.4674
  752MOL0     H 1494   9.249   4.150   2.648  3.8980 -2.5542 -1.1190
  752MOL0     H 1495   9.374   4.079   2.745  1.8112  1.5660  1.2861
  752MOL0     H 1496   9.146   4.220   2.886  1.1254  0.4959  2.0234
  752MOL0     H 1497   9.279   4.142   2.953  1.8597 -0.9582 -1.4483
  752MOL0     H 1498   9.068   4.022   2.928 -0.1762 -2.6490 -0.7469
  752MOL0     H 1499   9.115   3.977   2.764 -1.1398 -1.9247  1.5910
  752MOL0     H 1500   9.989   4.470   3.115 -1.8398  1.1810 -3.0119
  752MOL0     H 1501  10.109   4.294   3.230 -0.6516  1.1024 -1.0602
  752MOL0     H 1502   9.998   3.832   3.424 -0.8627 -3.2906  0.3113
  752MOL0     H 1503  10.078   3.667   3.562  1.2019  0.7007  3.5718
  752MOL0     H 1504  10.079   4.310   4.003 -2.1406  1.3939  4.0030
  752MOL0     H 1505   9.974   4.504   3.888 -1.0154 -1.6042  0.8432
  752MOL0     H 1506  10.211   4.966   3.601 -0.2404 -2.5833  0.0747
  752MOL0     H 1507  10.120   5.032   3.378 -1.7247 -0.8243 -1.6843
  752MOL0     H 1508   9.669   5.142   3.254 -0.8986 -1.4969 -0.0697
  752MOL0     H 1509   9.636   5.022   3.376  0.0559 -3.8191 -0.9511
  752MOL0     H 1510   9.595   4.932   3.172 -1.2404 -0.4283  0.0045
  752MOL0     H 1511   9.724   4.847   3.259  0.1475 -0.9429 -1.0908
  752MOL0     H 1512   9.885   4.913   3.108  0.0344 -0.3402 -1.1102
  752MOL0     H 1513   9.772   5.029   3.023  3.0009  1.8249  0.5937
  752MOL0     H 1514   9.776   4.725   3.031  0.7564 -1.3641 -3.1663
  752MOL0     H 1515   9.634   4.804   2.968  0.1047  0.6673 -1.3328
  752MOL0     H 1516   9.948   4.803   2.689 -0.4477 -2.0405  0.6958
  752MOL0     H 1517   9.729   5.002   3.558  0.2166 -2.0260 -1.6461
  752MOL0     H 1518   9.700   4.911   3.767 -0.2867 -0.4480 -0.3286
  752MOL0     H 1519   9.839   4.874   3.873 -0.0843  0.3325 -0.0789
  752MOL0     H 1520   9.812   5.037   3.847 -0.0402  0.0480 -0.1708
  753MOL0     O 1521  10.972   6.376   0.794  0.1988  0.0787 -0.3627
  753MOL0     C 1522  10.999   6.375   0.674 -0.5810 -0.5450 -0.1651
  753MOL0     O 1523  10.976   6.474   0.588  0.6044  0.3178 -0.0971
  753MOL0     C 1524  10.933   6.601   0.619 -1.1011 -0.1835  0.4051
  753MOL0     C 1525  10.872   6.669   0.516 -1.0201  0.3230  0.4138
  753MOL0     C 1526  10.841   6.807   0.522  0.1459  0.7195 -0.2216
  753MOL0     C 1527  10.847   6.875   0.652 -0.2175 -0.1136 -0.0464
  753MOL0     O 1528  10.815   7.005   0.645  0.4769 -0.0539  0.2679
  753MOL0     C 1529  10.802   7.081   0.769  0.3102 -0.3489  0.1590
  753MOL0     C 1530  10.742   7.221   0.744 -0.2057  0.2041 -0.1514
  753MOL0     C 1531  10.588   7.198   0.719 -0.1826 -0.2918  0.6961
  753MOL0     C 1532  10.554   7.145   0.582 -0.0016 -0.3503 -0.5010
  753MOL0     C 1533  10.411   7.161   0.528 -1.1129 -0.3205  0.3141
  753MOL0     C 1534  10.394   7.076   0.403 -0.5442 -0.0593  1.0557
  753MOL0     C 1535  10.251   7.075   0.341  0.8911 -0.4531 -0.7101
  753MOL0     C 1536  10.245   7.025   0.192  0.4947  0.3568 -0.6435
  753MOL0     N 1537  10.256   6.882   0.191  0.9299  0.4085 -0.2717
  753MOL0     C 1538  10.373   6.815   0.202  0.0306 -0.0232  0.7278
  753MOL0     C 1539  10.343   6.689   0.173  0.7776  0.2540  0.2341
  753MOL0     C 1540  10.424   6.571   0.161 -0.1039  1.1773 -0.3900
  753MOL0     C 1541  10.436   6.460   0.263 -0.8412 -0.5337  0.1350
  753MOL0     C 1542  10.521   6.492   0.386  0.1743  0.4885  0.0236
  753MOL0     C 1543  10.524   6.367   0.474  0.2216  0.1336 -0.4305
  753MOL0     O 1544  10.395   6.362   0.536 -0.2798  0.1707 -0.4508
  753MOL0     C 1545  10.384   6.296   0.661  0.2295  0.1117 -0.4935
  753MOL0     C 1546  10.469   6.199   0.726 -0.3543  0.1651  1.0988
  753MOL0     C 1547  10.433   6.144   0.847 -0.6042  0.7312  0.0157
  753MOL0     C 1548  10.322   6.188   0.927 -0.5023 -0.4779 -0.3301
  753MOL0     C 1549  10.295   6.147   1.063 -0.7603 -0.2416  0.3830
  753MOL0     O 1550  10.334   6.019   1.103  0.4622  0.4452 -0.2654
  753MOL0     C 1551  10.285   5.971   1.212 -0.1645  0.3938 -0.4451
  753MOL0     C 1552  10.210   5.852   1.202 -0.3763 -0.2161  0.5054
  753MOL0     C 1553  10.153   5.796   1.310 -0.3743  0.3532 -0.1201
  753MOL0     C 1554  10.173   5.857   1.436 -0.5339 -1.1220 -1.0852
  753MOL0     O 1555  10.120   5.789   1.537  0.5296  0.5571  1.0546
  753MOL0     C 1556  10.211   5.715   1.615 -0.1275 -0.5603  0.0015
  753MOL0     C 1557  10.151   5.634   1.726 -0.3630  0.5564  0.4782
  753MOL0     C 1558  10.071   5.707   1.813  0.6258 -0.3564 -0.1335
  753MOL0     C 1559  10.049   5.620   1.940  0.3656  0.3404 -0.7558
  753MOL0     C 1560   9.983   5.693   2.065 -0.3001 -0.2105  0.3527
  753MOL0     C 1561  10.054   5.824   2.118 -1.1310  0.3297 -0.2872
  753MOL0     C 1562   9.997   5.876   2.252 -0.0908  0.5402  0.3673
  753MOL0     C 1563  10.061   6.011   2.285 -0.3743  0.9300  0.4771
  753MOL0    Cl 1564  10.240   5.969   2.301  0.1654 -0.0371  0.3436
  753MOL0     C 1565  10.243   5.979   1.445  0.3430  0.4167  0.0202
  753MOL0     C 1566  10.304   6.036   1.334 -0.2933  0.0697 -0.2730
  753MOL0     O 1567  10.216   6.217   1.127  0.6331  0.2800  0.2822
  753MOL0     C 1568  10.250   6.301   0.868  0.4613 -0.2039 -0.2422
  753MOL0     C 1569  10.277   6.344   0.737  0.4935  0.5329 -0.5926
  753MOL0     N 1570  10.216   6.682   0.124 -0.0113  0.0790 -0.2951
  753MOL0     N 1571  10.164   6.798   0.145  0.0825  0.1623 -0.2127
  753MOL0     C 1572  10.908   6.795   0.759  0.1626 -0.3642 -0.6251
  753MOL0     C 1573  10.951   6.667   0.739  1.3358 -0.3768 -0.0019
  753MOL0     C 1574  11.086   6.265   0.621  1.7590 -0.3379 -1.2429
  753MOL0     C 1575  11.206   6.301   0.567  0.7708 -0.3687 -0.0441
  753MOL0     C 1576  11.299   6.214   0.524 -0.3716 -0.0227 -0.3890
  753MOL0     C 1577  11.276   6.080   0.533 -0.0710 -0.0943  0.5832
  753MOL0     O 1578  11.362   5.981   0.508 -0.4035 -0.7250 -0.2246
  753MOL0     C 1579  11.473   6.016   0.414  0.3597  0.9388 -0.5309
  753MOL0     C 1580  11.533   5.875   0.400 -0.0230 -0.3659  0.1148
  753MOL0     C 1581  11.651   5.882   0.309 -0.4960  0.3401  0.2334
  753MOL0     C 1582  11.784   5.914   0.380  1.3535  0.3332  0.7768
  753MOL0     C 1583  11.883   5.962   0.277  0.0385  0.1127 -0.3568
  753MOL0     C 1584  11.974   5.994   0.201  0.8857 -0.3291  0.2132
  753MOL0     C 1585  11.152   6.042   0.580 -0.3253 -0.0728 -0.8941
  753MOL0     C 1586  11.046   6.132   0.622  0.0555 -0.2622 -0.9751
  753MOL0     C 1587  10.926   6.069   0.691 -0.2312 -0.4193  0.7686
  753MOL0     H 1588  10.857   6.620   0.420 -0.3737  0.4884  0.2257
  753MOL0     H 1589  10.803   6.852   0.431  0.0777  0.0253 -0.5404
  753MOL0     H 1590  10.750   7.024   0.845 -2.6613  1.7504 -0.1349
  753MOL0     H 1591  10.903   7.104   0.805  1.1911 -0.6545 -1.9244
  753MOL0     H 1592  10.785   7.272   0.657  1.1086 -0.4539  0.1004
  753MOL0     H 1593  10.767   7.291   0.825 -3.0542  0.2358  0.8109
  753MOL0     H 1594  10.526   7.287   0.736 -3.4444 -2.1640 -0.5830
  753MOL0     H 1595  10.554   7.120   0.789 -0.0444 -0.7409  0.2670
  753MOL0     H 1596  10.607   7.203   0.505 -1.8954  3.0244  0.5579
  753MOL0     H 1597  10.575   7.038   0.577 -1.8315 -0.7189 -0.6704
  753MOL0     H 1598  10.341   7.125   0.604 -0.9020  1.4390  1.3861
  753MOL0     H 1599  10.407   7.266   0.499  2.0165  0.0105  0.7150
  753MOL0     H 1600  10.473   7.094   0.330 -3.6742  3.1957 -1.9049
  753MOL0     H 1601  10.402   6.976   0.446  0.3695  0.0731  1.2247
  753MOL0     H 1602  10.217   7.179   0.348 -1.7448 -1.2211 -1.2035
  753MOL0     H 1603  10.179   7.037   0.413  1.0516  1.5129  0.5794
  753MOL0     H 1604  10.147   7.051   0.150 -2.0611 -2.8315  2.6642
  753MOL0     H 1605  10.319   7.075   0.129 -0.8792  1.5055 -1.4105
  753MOL0     H 1606  10.471   6.851   0.232  1.8957 -3.8187 -0.1826
  753MOL0     H 1607  10.396   6.531   0.063 -2.0086 -0.2652  0.6865
  753MOL0     H 1608  10.529   6.601   0.147  0.6433 -1.9422 -2.5059
  753MOL0     H 1609  10.335   6.432   0.295 -0.9163  0.3689  0.7324
  753MOL0     H 1610  10.474   6.373   0.209  1.5244  0.1402  0.5983
  753MOL0     H 1611  10.487   6.576   0.447  0.0968  0.9761 -0.6834
  753MOL0     H 1612  10.622   6.512   0.349  1.5601 -1.8036  2.2443
  753MOL0     H 1613  10.603   6.384   0.548  1.4360  0.3258 -1.7288
  753MOL0     H 1614  10.543   6.276   0.417  1.7585  0.1377  0.0385
  753MOL0     H 1615  10.552   6.153   0.674 -1.1000  0.0904 -0.0618
  753MOL0     H 1616  10.497   6.064   0.881 -1.6693  1.0947  3.1964
  753MOL0     H 1617  10.197   5.800   1.107 -2.2951  1.1854 -0.0393
  753MOL0     H 1618  10.094   5.705   1.307  0.9662 -0.6697  2.2206
  753MOL0     H 1619  10.280   5.660   1.551  0.6439  0.1585  0.1964
  753MOL0     H 1620  10.275   5.791   1.661 -0.6737  1.2856 -2.1497
  753MOL0     H 1621  10.091   5.550   1.689  2.9022 -0.6397 -2.7635
  753MOL0     H 1622  10.238   5.589   1.775  1.7540  0.9973 -2.5666
  753MOL0     H 1623  10.125   5.797   1.842  0.6513  0.5206 -2.6011
  753MOL0     H 1624   9.971   5.736   1.777 -0.6829 -4.8772 -0.7224
  753MOL0     H 1625  10.146   5.581   1.976  0.7854  3.1267  1.4912
  753MOL0     H 1626   9.981   5.538   1.914 -0.8374  2.1713 -3.7828
  753MOL0     H 1627   9.986   5.631   2.155 -0.5360 -0.6255  0.0785
  753MOL0     H 1628   9.879   5.712   2.037 -1.2979  0.1009  3.8166
  753MOL0     H 1629  10.161   5.807   2.132 -0.5376  3.5767  0.0592
  753MOL0     H 1630  10.044   5.897   2.037 -0.2624  0.4302 -0.3099
  753MOL0     H 1631  10.006   5.808   2.337  1.3061 -0.1367 -0.2906
  753MOL0     H 1632   9.890   5.892   2.233 -0.2989 -2.5574 -1.7255
  753MOL0     H 1633  10.048   6.080   2.201  0.7200 -1.6344 -1.9456
  753MOL0     H 1634  10.002   6.047   2.370 -3.8563 -2.1806 -0.3576
  753MOL0     H 1635  10.263   6.030   1.539  0.0435  0.6580 -0.0448
  753MOL0     H 1636  10.362   6.128   1.332 -1.7708  1.1747  2.4285
  753MOL0     H 1637  10.174   6.355   0.924  1.7119  1.0068  0.3638
  753MOL0     H 1638  10.203   6.414   0.702  1.2850  1.4903 -0.3940
  753MOL0     H 1639  10.918   6.828   0.862  0.1874  2.0813 -1.3431
  753MOL0     H 1640  10.995   6.614   0.822  1.8765 -0.9689 -0.6515
  753MOL0     H 1641  11.214   6.409   0.566 -0.8412 -0.2105 -2.1517
  753MOL0     H 1642  11.393   6.257   0.492  0.1328 -1.1225 -0.4330
  753MOL0     H 1643  11.539   6.097   0.446  0.5322  0.9195 -0.8360
  753MOL0     H 1644  11.428   6.038   0.317  1.2906 -0.7746 -1.4066
  753MOL0     H 1645  11.454   5.805   0.370 -2.4247  2.1385  0.1989
  753MOL0     H 1646  11.573   5.840   0.496 -0.2526 -3.8416 -0.9144
  753MOL0     H 1647  11.633   5.939   0.218 -2.7929 -3.8876 -2.3189
  753MOL0     H 1648  11.659   5.778   0.275 -1.3421  0.3982 -0.1524
  753MOL0     H 1649  11.777   5.980   0.467  0.9812 -1.5300  2.2293
  753MOL0     H 1650  11.825   5.824   0.427 -0.9767 -0.4278  1.4972
  753MOL0     H 1651  12.047   6.021   0.127 -0.1646 -1.2751 -1.2191
  753MOL0     H 1652  11.138   5.935   0.589 -1.1949  0.1524  0.7295
  753MOL0     H 1653  10.931   6.046   0.797 -0.5606 -2.8175  0.3242
  753MOL0     H 1654  10.837   6.131   0.674  1.2861  1.2983 -1.5987
  753MOL0     H 1655  10.904   5.974   0.640 -0.0158  0.3346 -0.8035
  754MOL0     O 1656   9.812   1.571   6.419 -0.3131 -0.2379 -0.2419
  754MOL0     C 1657   9.860   1.513   6.328  0.9623 -0.7727 -0.1358
  754MOL0     O 1658   9.912   1.573   6.217 -0.4429 -0.0846  0.8461
  754MOL0     C 1659   9.920   1.710   6.223 -0.0732 -0.7907  0.4295
  754MOL0     C 1660  10.028   1.786   6.280  0.4644 -0.2904  0.2380
  754MOL0     C 1661  10.029   1.929   6.276  0.0847  0.3252 -0.4169
  754MOL0     C 1662   9.919   1.998   6.234  0.4903  0.7225  0.4808
  754MOL0     O 1663   9.912   2.135   6.256 -0.5865 -0.1124  0.0787
  754MOL0     C 1664   9.825   2.214   6.180 -0.3426  0.4347  0.5962
  754MOL0     C 1665   9.811   2.365   6.217  0.5237  0.5973  1.1548
  754MOL0     C 1666   9.942   2.441   6.222 -0.8272  0.4811  0.6210
  754MOL0     C 1667   9.931   2.594   6.256  0.5608 -0.2841  0.1893
  754MOL0     C 1668  10.031   2.695   6.275 -0.3228 -0.2994 -0.6452
  754MOL0     C 1669  10.116   2.702   6.150  0.0367  0.6862 -0.5418
  754MOL0     C 1670  10.239   2.786   6.181 -0.7799 -0.7911  0.5049
  754MOL0     C 1671  10.309   2.803   6.042 -0.4568 -0.2700  0.1552
  754MOL0     N 1672  10.408   2.910   6.046  0.8363  0.5505  0.3769
  754MOL0     C 1673  10.360   3.035   6.028 -0.0382 -0.4836 -0.2744
  754MOL0     C 1674  10.471   3.113   6.007  0.2647 -1.1086 -0.7256
  754MOL0     C 1675  10.465   3.264   5.990 -0.4389  0.3685  0.1973
  754MOL0     C 1676  10.451   3.276   5.840 -0.0095 -0.0834  0.1247
  754MOL0     C 1677  10.436   3.417   5.782 -0.5561  0.4381  0.2948
  754MOL0     C 1678  10.561   3.496   5.796 -1.2408 -0.1198 -0.2363
  754MOL0     O 1679  10.523   3.637   5.767 -0.1917 -0.2571  0.7695
  754MOL0     C 1680  10.620   3.740   5.753 -0.2137 -0.0514  0.6436
  754MOL0     C 1681  10.571   3.851   5.699 -0.1509 -0.5396  0.6990
  754MOL0     C 1682  10.649   3.963   5.688 -0.5560 -0.8448  0.4476
  754MOL0     C 1683  10.788   3.959   5.718  0.0597  0.4650  0.2444
  754MOL0     C 1684  10.867   4.084   5.710 -1.7177 -0.1644 -0.1441
  754MOL0     O 1685  10.805   4.202   5.723 -0.5756  0.8833  0.6310
  754MOL0     C 1686  10.877   4.308   5.767 -0.5035  0.0024 -0.1193
  754MOL0     C 1687  10.950   4.378   5.670  0.2762  0.0973  0.0429
  754MOL0     C 1688  11.034   4.488   5.705  0.2818 -0.0936  0.3690
  754MOL0     C 1689  11.041   4.534   5.839 -1.1451  0.2303  0.6270
  754MOL0     O 1690  11.135   4.626   5.886 -0.0086  0.2011  0.9241
  754MOL0     C 1691  11.184   4.594   6.013  0.1433  0.0793 -0.6641
  754MOL0     C 1692  11.321   4.658   6.029  0.7037 -0.8724  0.1557
  754MOL0     C 1693  11.353   4.731   6.168 -0.4814  0.2027  0.2806
  754MOL0     C 1694  11.345   4.621   6.281  0.7698  0.5300  0.0873
  754MOL0     C 1695  11.342   4.693   6.421  0.4380 -0.3263  1.1815
  754MOL0     C 1696  11.394   4.599   6.529 -0.0642  0.3347  0.8872
  754MOL0     C 1697  11.287   4.492   6.566  0.7580 -0.1298  0.5890
  754MOL0     C 1698  11.349   4.376   6.654 -0.0650  0.1577 -0.6678
  754MOL0    Cl 1699  11.251   4.227   6.652 -0.0590 -0.2452 -0.1724
  754MOL0     C 1700  10.954   4.472   5.926 -0.2764 -0.5118 -0.0033
  754MOL0     C 1701  10.887   4.355   5.898  1.1116  0.6617  0.3416
  754MOL0     O 1702  10.994   4.076   5.699  0.2641 -0.5313  0.2079
  754MOL0     C 1703  10.842   3.835   5.752  0.2934 -0.1051  0.0244
  754MOL0     C 1704  10.757   3.729   5.778 -0.7678  0.6182  1.0228
  754MOL0     N 1705  10.582   3.026   6.006  0.2878 -0.1950  0.0463
  754MOL0     N 1706  10.538   2.905   6.038  0.6283  0.0534 -0.3199
  754MOL0     C 1707   9.817   1.926   6.177  1.0920  0.0128  0.1195
  754MOL0     C 1708   9.816   1.785   6.182 -0.6899 -0.3431 -0.9445
  754MOL0     C 1709   9.865   1.364   6.327  0.0528  0.0025 -0.6054
  754MOL0     C 1710   9.853   1.298   6.209 -0.4307 -0.1303  0.3718
  754MOL0     C 1711   9.884   1.163   6.197 -0.4718  0.3273 -0.0684
  754MOL0     C 1712   9.923   1.092   6.309 -0.3581 -0.9323  0.3072
  754MOL0     O 1713   9.964   0.957   6.305 -0.3766  0.5475 -0.0753
  754MOL0     C 1714   9.920   0.875   6.191 -0.5115  0.1378  0.2140
  754MOL0     C 1715   9.972   0.737   6.213 -0.2593  0.8893 -0.3756
  754MOL0     C 1716  10.110   0.716   6.162 -0.4774 -0.7445 -0.7345
  754MOL0     C 1717  10.188   0.592   6.215  0.4525  0.3801  0.5656
  754MOL0     C 1718  10.125   0.461   6.164  0.6320 -0.9522  0.1252
  754MOL0     C 1719  10.101   0.371   6.090 -0.3251 -0.3893 -0.8837
  754MOL0     C 1720   9.918   1.152   6.437  0.9285 -0.6170 -0.1593
  754MOL0     C 1721   9.887   1.290   6.447  0.3589 -0.2616  0.2267
  754MOL0     C 1722   9.908   1.347   6.585  0.7861  0.3963  1.1795
  754MOL0     H 1723  10.107   1.715   6.304 -0.7534 -1.7431  0.0495
  754MOL0     H 1724  10.112   1.993   6.304  1.8087 -1.7359 -0.6093
  754MOL0     H 1725   9.849   2.223   6.074 -1.7979 -2.9300 -0.1603
  754MOL0     H 1726   9.726   2.168   6.191 -0.0509 -0.6481 -0.9617
  754MOL0     H 1727   9.751   2.363   6.309 -2.3058 -3.8955 -0.4170
  754MOL0     H 1728   9.747   2.408   6.139 -2.8486  0.9901  3.8985
  754MOL0     H 1729   9.982   2.435   6.121 -3.1209  2.4945 -0.5168
  754MOL0     H 1730  10.004   2.397   6.301  0.3751  2.0149  0.5629
  754MOL0     H 1731   9.860   2.634   6.183 -1.6825 -3.2051  0.6123
  754MOL0     H 1732   9.867   2.590   6.344 -0.5051  0.5962 -0.5239
  754MOL0     H 1733   9.985   2.793   6.288  4.4819  2.4024 -1.6745
  754MOL0     H 1734  10.081   2.666   6.368 -0.7477 -1.6541 -0.8206
  754MOL0     H 1735  10.154   2.616   6.094 -0.5255 -0.5471  0.9022
  754MOL0     H 1736  10.054   2.751   6.074 -1.0233  1.8205  0.9836
  754MOL0     H 1737  10.306   2.732   6.249  2.6676  2.3814 -0.0341
  754MOL0     H 1738  10.227   2.887   6.222  1.5980 -1.1794  2.4272
  754MOL0     H 1739  10.363   2.713   6.012  0.9852 -0.3138  2.6009
  754MOL0     H 1740  10.230   2.830   5.970 -2.0414  0.5348  2.1057
  754MOL0     H 1741  10.256   3.064   6.017  0.0114 -0.3732 -0.4460
  754MOL0     H 1742  10.380   3.304   6.047  0.1959  0.2075  1.2745
  754MOL0     H 1743  10.555   3.307   6.033  0.6025 -0.3654 -1.1806
  754MOL0     H 1744  10.547   3.238   5.803  1.4637  1.1384  2.5190
  754MOL0     H 1745  10.371   3.210   5.804 -0.0488 -0.4894  0.9527
  754MOL0     H 1746  10.351   3.459   5.836 -2.1419 -0.2456 -1.5357
  754MOL0     H 1747  10.402   3.411   5.678  0.5318 -1.6035 -0.0024
  754MOL0     H 1748  10.632   3.457   5.723  0.9911  0.3488  1.5852
  754MOL0     H 1749  10.608   3.488   5.894  3.0106 -2.1192 -2.1889
  754MOL0     H 1750  10.463   3.854   5.689 -0.3205  3.6158  1.9033
  754MOL0     H 1751  10.606   4.061   5.674  2.1530  0.0419 -3.0289
  754MOL0     H 1752  10.941   4.353   5.565 -0.3210  0.0389  0.1005
  754MOL0     H 1753  11.084   4.536   5.621 -2.4150 -1.0610 -1.9763
  754MOL0     H 1754  11.119   4.633   6.092 -0.7455 -4.4035  1.0913
  754MOL0     H 1755  11.193   4.486   6.023 -0.1883  0.2446  2.2718
  754MOL0     H 1756  11.403   4.596   5.992  0.2684 -0.2602 -2.0024
  754MOL0     H 1757  11.329   4.735   5.951  1.0688  1.0654  2.0323
  754MOL0     H 1758  11.448   4.784   6.168  0.8352 -2.0393 -0.0586
  754MOL0     H 1759  11.272   4.801   6.191 -2.1137 -1.5183  0.0790
  754MOL0     H 1760  11.447   4.581   6.270 -0.3296 -2.1076 -1.5312
  754MOL0     H 1761  11.265   4.550   6.258 -1.2742  2.6919  0.1256
  754MOL0     H 1762  11.242   4.731   6.443 -0.4753  1.3711 -4.3059
  754MOL0     H 1763  11.397   4.787   6.411 -2.0553  1.2748  1.5169
  754MOL0     H 1764  11.477   4.542   6.487 -1.4881 -2.7623  1.9972
  754MOL0     H 1765  11.418   4.654   6.620  2.2398  1.1995 -0.1659
  754MOL0     H 1766  11.244   4.456   6.472  0.4059  0.2619  0.5992
  754MOL0     H 1767  11.218   4.540   6.635  1.5520  3.3985 -0.8680
  754MOL0     H 1768  11.452   4.356   6.622 -0.3363 -0.6241 -1.0912
  754MOL0     H 1769  11.367   4.408   6.757  1.9788  2.3351 -1.5936
  754MOL0     H 1770  10.941   4.513   6.026  1.4204  0.7128 -0.2326
  754MOL0     H 1771  10.826   4.310   5.976  1.8696  0.3242  0.7436
  754MOL0     H 1772  10.948   3.828   5.775  0.1355  2.0601  1.7090
  754MOL0     H 1773  10.809   3.636   5.800 -1.3355 -0.1163 -0.5556
  754MOL0     H 1774   9.738   1.978   6.124  0.5298  1.9682  2.6351
  754MOL0     H 1775   9.740   1.727   6.131 -2.1495 -1.2101  2.0008
  754MOL0     H 1776   9.818   1.347   6.118  0.1225  0.3678  0.4241
  754MOL0     H 1777   9.880   1.133   6.093 -0.4198  1.0459 -0.2841
  754MOL0     H 1778   9.956   0.924   6.100  1.9171 -0.8447  0.5483
  754MOL0     H 1779   9.812   0.862   6.189 -0.3284 -1.6011 -1.5850
  754MOL0     H 1780   9.911   0.655   6.172  1.5219 -0.6141 -0.1372
  754MOL0     H 1781   9.970   0.718   6.321  1.2403  2.3507 -0.0494
  754MOL0     H 1782  10.160   0.805   6.200 -0.2835 -1.3242  0.3943
  754MOL0     H 1783  10.115   0.730   6.053  0.6470 -0.3481 -0.6521
  754MOL0     H 1784  10.290   0.604   6.179  0.0078  1.6061 -0.3447
  754MOL0     H 1785  10.184   0.577   6.324 -2.7848  0.4885  0.5720
  754MOL0     H 1786  10.084   0.283   6.033 -0.5275 -1.8716  1.3406
  754MOL0     H 1787   9.925   1.093   6.528  1.4227 -0.7093 -0.2565
  754MOL0     H 1788   9.925   1.272   6.663  0.8957 -0.7692  0.0705
  754MOL0     H 1789   9.994   1.413   6.574  1.1808 -0.5314 -2.6336
  754MOL0     H 1790   9.821   1.406   6.617 -2.0987 -2.8181 -0.0692
  755MOL0     O 1791   8.639   6.035   3.914 -0.1517  0.0731 -0.5139
  755MOL0     C 1792   8.566   5.989   4.008 -0.5186  0.5162  0.5353
  755MOL0     O 1793   8.481   6.061   4.087 -0.3946 -0.5976  0.1218
  755MOL0     C 1794   8.460   6.191   4.074  0.4097 -0.5406 -0.6515
  755MOL0     C 1795   8.342   6.245   4.135  0.1518 -0.2420 -0.0597
  755MOL0     C 1796   8.313   6.380   4.137  0.7569 -0.6226 -0.0962
  755MOL0     C 1797   8.397   6.478   4.072 -0.8061  0.8006  0.2431
  755MOL0     O 1798   8.375   6.612   4.083  0.2168 -0.6709  0.5290
  755MOL0     C 1799   8.467   6.717   4.033  0.2874  0.6634  0.8375
  755MOL0     C 1800   8.410   6.860   4.036  0.4154  0.4941 -0.6362
  755MOL0     C 1801   8.502   6.945   3.963  0.6108 -0.5148 -0.6160
  755MOL0     C 1802   8.454   7.094   3.967 -0.2408 -0.4728 -0.0819
  755MOL0     C 1803   8.548   7.197   3.897  0.0851 -0.8097  0.3058
  755MOL0     C 1804   8.472   7.329   3.853 -0.1091 -0.0448 -0.7998
  755MOL0     C 1805   8.369   7.385   3.961 -0.6048 -0.1020 -0.1192
  755MOL0     C 1806   8.331   7.522   3.940 -0.0978  0.5164  0.2398
  755MOL0     N 1807   8.215   7.541   4.029  0.8187  0.4732  0.0563
  755MOL0     C 1808   8.092   7.472   4.003 -0.2581 -0.5468  1.2386
  755MOL0     C 1809   8.026   7.489   4.118  0.0431  0.3554 -0.3452
  755MOL0     C 1810   7.899   7.415   4.162  0.3660 -0.1096  0.4461
  755MOL0     C 1811   7.784   7.480   4.089 -0.5296 -0.5489  0.0342
  755MOL0     C 1812   7.652   7.426   4.148 -0.7416 -0.7295 -0.1710
  755MOL0     C 1813   7.617   7.460   4.292  0.5509 -0.0479  0.4422
  755MOL0     O 1814   7.620   7.599   4.310  0.9239 -0.1738  0.7491
  755MOL0     C 1815   7.527   7.670   4.385 -0.0029 -0.1936  1.0265
  755MOL0     C 1816   7.420   7.620   4.460  0.4846 -0.4495 -0.8134
  755MOL0     C 1817   7.334   7.707   4.531 -0.4610  0.1884  1.7027
  755MOL0     C 1818   7.334   7.846   4.511  0.6411  0.1514 -1.2951
  755MOL0     C 1819   7.244   7.941   4.573 -1.0896 -0.0172 -0.7818
  755MOL0     O 1820   7.218   7.916   4.698 -0.3985 -0.3297 -0.1953
  755MOL0     C 1821   7.154   8.001   4.779 -0.1045  0.3250 -0.0959
  755MOL0     C 1822   7.027   7.973   4.843  0.6284  0.2061 -0.3536
  755MOL0     C 1823   6.980   8.062   4.938  0.1039 -0.4871  0.5238
  755MOL0     C 1824   7.039   8.183   4.976  0.2436 -0.2013  0.5463
  755MOL0     O 1825   6.983   8.278   5.059 -0.1411  0.6513  0.0161
  755MOL0     C 1826   6.853   8.264   5.114 -0.1196 -0.1715 -0.5906
  755MOL0     C 1827   6.846   8.178   5.235  0.0113  0.0131  1.0078
  755MOL0     C 1828   6.966   8.200   5.322 -0.6121  0.6823 -0.8125
  755MOL0     C 1829   6.951   8.141   5.466 -0.5460  0.1962 -0.3743
  755MOL0     C 1830   7.053   8.201   5.563 -0.4236 -0.5830  0.3089
  755MOL0     C 1831   7.048   8.141   5.699 -0.2043 -0.7289 -0.3202
  755MOL0     C 1832   7.154   8.203   5.797 -0.1107 -0.6124 -0.3546
  755MOL0     C 1833   7.093   8.216   5.941 -0.2349  0.1952 -0.5332
  755MOL0    Cl 1834   7.217   8.186   6.062 -0.1659  0.2214  0.3917
  755MOL0     C 1835   7.164   8.206   4.911 -0.2462  0.9521 -0.8060
  755MOL0     C 1836   7.226   8.115   4.820 -0.3520 -0.7814 -0.1500
  755MOL0     O 1837   7.201   8.032   4.502  0.4143 -0.7668  0.3030
  755MOL0     C 1838   7.433   7.894   4.414  0.4893 -0.0883 -0.6841
  755MOL0     C 1839   7.528   7.814   4.360 -0.9930  0.2367  0.0812
  755MOL0     N 1840   8.101   7.566   4.202  0.0913 -0.3964 -0.1192
  755MOL0     N 1841   8.212   7.593   4.150  0.3303 -0.0257 -0.4784
  755MOL0     C 1842   8.503   6.426   4.009 -0.5919  0.1938 -0.7387
  755MOL0     C 1843   8.534   6.286   4.006  0.0643  0.3671 -0.2516
  755MOL0     C 1844   8.595   5.841   4.028 -0.7567 -0.0857 -0.0872
  755MOL0     C 1845   8.632   5.806   4.161  0.9847  0.3521  0.2400
  755MOL0     C 1846   8.663   5.672   4.187 -0.8576  0.5786  0.0938
  755MOL0     C 1847   8.654   5.576   4.081 -0.8054  0.6572  0.0868
  755MOL0     O 1848   8.686   5.448   4.114 -0.1894 -0.8193 -0.1358
  755MOL0     C 1849   8.742   5.353   4.025 -0.9759  0.0114 -0.5050
  755MOL0     C 1850   8.886   5.394   3.980 -1.3129  0.1224  0.3610
  755MOL0     C 1851   8.961   5.290   3.886  0.0090  1.1185 -0.0460
  755MOL0     C 1852   8.970   5.141   3.951 -1.0749  0.1794  0.7221
  755MOL0     C 1853   9.044   5.141   4.078  0.3018 -0.4897 -1.0317
  755MOL0     C 1854   9.086   5.144   4.192 -0.7012  0.2916 -0.7334
  755MOL0     C 1855   8.627   5.613   3.950 -0.6725  0.2614  0.3599
  755MOL0     C 1856   8.605   5.745   3.929 -0.2068 -0.5988  0.4299
  755MOL0     C 1857   8.560   5.753   3.783  0.5486 -0.2677 -0.0898
  755MOL0     H 1858   8.281   6.167   4.180  2.3539 -0.9334  1.9524
  755MOL0     H 1859   8.222   6.415   4.186 -0.4074 -3.4615 -0.0775
  755MOL0     H 1860   8.560   6.714   4.090  0.9595 -3.0964 -0.1964
  755MOL0     H 1861   8.500   6.701   3.930  0.6732 -1.8730  1.3005
  755MOL0     H 1862   8.402   6.889   4.141  2.4794  0.5673 -0.4545
  755MOL0     H 1863   8.312   6.873   3.990 -0.4075 -0.5743  0.7393
  755MOL0     H 1864   8.506   6.933   3.854 -5.1348 -0.7096 -1.0933
  755MOL0     H 1865   8.600   6.936   4.010  0.2622 -2.0646 -0.1378
  755MOL0     H 1866   8.355   7.091   3.919 -1.6047 -1.0142  2.5954
  755MOL0     H 1867   8.462   7.118   4.073  0.6052 -0.2292 -0.1943
  755MOL0     H 1868   8.636   7.220   3.958  0.1137 -1.1732  0.4044
  755MOL0     H 1869   8.573   7.153   3.801  2.0137  3.5667 -1.4675
  755MOL0     H 1870   8.548   7.398   3.817 -1.6082  0.1164 -3.9531
  755MOL0     H 1871   8.407   7.305   3.769 -0.6760  0.5448 -0.5434
  755MOL0     H 1872   8.418   7.390   4.059  1.5429  0.5632 -1.1512
  755MOL0     H 1873   8.288   7.313   3.976  2.8571 -4.3230  0.5271
  755MOL0     H 1874   8.421   7.581   3.963 -0.3714  1.8603 -1.8586
  755MOL0     H 1875   8.303   7.526   3.834  0.2651 -2.9563 -0.1096
  755MOL0     H 1876   8.070   7.394   3.930 -0.5088 -0.3934  1.1518
  755MOL0     H 1877   7.903   7.310   4.132 -1.0687  0.1982 -0.9177
  755MOL0     H 1878   7.891   7.425   4.271 -3.6223 -0.4476  0.3155
  755MOL0     H 1879   7.772   7.588   4.098  0.4322 -0.3237 -1.1380
  755MOL0     H 1880   7.805   7.460   3.984 -2.7573 -0.9417 -0.3898
  755MOL0     H 1881   7.667   7.319   4.134  2.1514 -0.4626  0.3239
  755MOL0     H 1882   7.565   7.452   4.086  0.5389 -1.3164 -2.3003
  755MOL0     H 1883   7.676   7.415   4.373  1.4850 -3.3234 -1.8349
  755MOL0     H 1884   7.514   7.425   4.310  0.9157 -1.2625  0.2409
  755MOL0     H 1885   7.411   7.512   4.464 -1.8297 -0.2804  1.1217
  755MOL0     H 1886   7.262   7.674   4.605 -0.9712  3.2943  2.7536
  755MOL0     H 1887   6.984   7.876   4.821  1.7822 -1.0957  2.6207
  755MOL0     H 1888   6.884   8.031   4.976  0.0691  0.2748  1.0667
  755MOL0     H 1889   6.823   8.363   5.149 -0.4527 -1.1518  2.1239
  755MOL0     H 1890   6.775   8.236   5.042 -1.1377  0.7211  0.1382
  755MOL0     H 1891   6.751   8.197   5.285 -0.7640  0.8918 -0.7123
  755MOL0     H 1892   6.836   8.072   5.208 -2.1737  0.4528 -0.1578
  755MOL0     H 1893   7.056   8.153   5.282 -2.0168 -1.5066 -1.5625
  755MOL0     H 1894   6.971   8.308   5.336 -0.7650  0.5242  0.7305
  755MOL0     H 1895   6.956   8.033   5.480 -2.6479  0.3404  2.2334
  755MOL0     H 1896   6.854   8.161   5.512  0.3786  1.6771  1.0385
  755MOL0     H 1897   7.046   8.309   5.578 -0.6178 -0.4323 -0.7979
  755MOL0     H 1898   7.151   8.183   5.519 -0.9937  0.0847 -1.3134
  755MOL0     H 1899   6.953   8.159   5.751 -0.9156  0.9739 -2.0885
  755MOL0     H 1900   7.061   8.034   5.682  0.1630 -0.2814 -3.2723
  755MOL0     H 1901   7.198   8.298   5.764  1.8841 -1.8691 -1.4781
  755MOL0     H 1902   7.228   8.123   5.801 -1.6913 -2.1840 -1.1822
  755MOL0     H 1903   7.027   8.302   5.955 -1.5465 -0.9688  0.7300
  755MOL0     H 1904   7.037   8.124   5.958 -1.6106  0.8023 -1.5241
  755MOL0     H 1905   7.221   8.288   4.951 -1.4318  0.9866  0.9485
  755MOL0     H 1906   7.324   8.121   4.773  1.3926  0.5349  3.3209
  755MOL0     H 1907   7.420   7.991   4.367 -0.4821 -0.2918 -0.8734
  755MOL0     H 1908   7.603   7.853   4.292 -0.4240 -2.7193 -1.1678
  755MOL0     H 1909   8.579   6.493   3.969 -0.5824  0.9049  0.4395
  755MOL0     H 1910   8.628   6.255   3.961  0.7283 -1.6429  2.2656
  755MOL0     H 1911   8.612   5.887   4.232  2.5137 -0.1252  1.2688
  755MOL0     H 1912   8.682   5.624   4.283  0.7873  2.6413  0.8896
  755MOL0     H 1913   8.666   5.359   3.946 -1.4107  3.1442  0.0234
  755MOL0     H 1914   8.742   5.254   4.070  0.7619  0.2679  0.1315
  755MOL0     H 1915   8.958   5.406   4.061  2.1993 -1.0019 -2.3248
  755MOL0     H 1916   8.879   5.486   3.921 -1.2859 -0.5351 -0.7030
  755MOL0     H 1917   9.062   5.323   3.861  0.9450 -0.4873  1.3822
  755MOL0     H 1918   8.907   5.265   3.794 -0.9681  0.1223  0.7666
  755MOL0     H 1919   8.872   5.093   3.960 -1.1026  0.2519  0.7996
  755MOL0     H 1920   9.020   5.073   3.881 -0.4987 -1.0650  2.2673
  755MOL0     H 1921   9.147   5.136   4.279 -1.9813  0.4481  0.2075
  755MOL0     H 1922   8.626   5.540   3.869 -1.3298  1.3727 -0.6669
  755MOL0     H 1923   8.469   5.693   3.773 -0.4871  1.5176 -2.2212
  755MOL0     H 1924   8.530   5.857   3.768 -1.1781 -0.5199  1.2822
  755MOL0     H 1925   8.652   5.727   3.730  0.0864 -1.9540 -0.1335
  756MOL0     O 1926   4.693   9.021   2.137  0.1718 -0.5288  0.4881
  756MOL0     C 1927   4.617   8.943   2.083 -0.0581  0.2199 -0.7899
  756MOL0     O 1928   4.586   8.944   1.956  0.0306  0.4842  0.3536
  756MOL0     C 1929   4.624   9.035   1.863  0.0271  0.6415 -1.3768
  756MOL0     C 1930   4.634   8.989   1.735  0.3658  0.7301 -0.6575
  756MOL0     C 1931   4.657   9.078   1.628 -0.7063  0.1829  0.4817
  756MOL0     C 1932   4.693   9.219   1.655  0.5608  0.9759  0.4616
  756MOL0     O 1933   4.708   9.303   1.545  0.1441  0.3577 -0.2788
  756MOL0     C 1934   4.665   9.435   1.560 -0.0136 -0.7413  0.0971
  756MOL0     C 1935   4.663   9.487   1.409 -0.0922  0.2157 -0.3091
  756MOL0     C 1936   4.799   9.503   1.349 -0.5990 -0.6370  0.6340
  756MOL0     C 1937   4.907   9.533   1.454 -0.4311 -0.6310  0.9544
  756MOL0     C 1938   5.035   9.560   1.376  0.4224  0.6046  0.0273
  756MOL0     C 1939   5.135   9.593   1.490 -1.4062 -0.1213 -0.0210
  756MOL0     C 1940   5.275   9.629   1.431 -0.3465 -0.1742 -0.0804
  756MOL0     C 1941   5.387   9.582   1.538  0.3643  0.3225 -0.1753
  756MOL0     N 1942   5.526   9.578   1.497  0.1420 -0.3445  0.3393
  756MOL0     C 1943   5.573   9.563   1.372 -0.3445 -0.4929  0.5029
  756MOL0     C 1944   5.707   9.547   1.382 -0.2779 -0.3210 -0.1996
  756MOL0     C 1945   5.798   9.558   1.263 -0.1715  0.0151 -0.1684
  756MOL0     C 1946   5.923   9.467   1.290  0.7196  0.3507  1.0039
  756MOL0     C 1947   5.888   9.319   1.254  0.4382  0.6950  0.3588
  756MOL0     C 1948   6.017   9.235   1.259 -0.7338 -0.1877  0.5345
  756MOL0     O 1949   6.125   9.293   1.195 -0.5833 -0.0711 -0.7581
  756MOL0     C 1950   6.257   9.249   1.214 -0.0613  0.3665  0.1071
  756MOL0     C 1951   6.296   9.119   1.257  0.3390 -0.0311 -0.3463
  756MOL0     C 1952   6.434   9.082   1.269 -0.8697  0.2057 -0.1763
  756MOL0     C 1953   6.541   9.167   1.229 -0.3955  0.1819 -0.5694
  756MOL0     C 1954   6.691   9.139   1.234 -0.9790 -0.2602  0.4487
  756MOL0     O 1955   6.716   9.012   1.256 -0.4149 -0.3966 -0.5029
  756MOL0     C 1956   6.847   8.968   1.276  0.3720 -0.6352 -0.2129
  756MOL0     C 1957   6.938   8.974   1.174 -0.1377 -0.2481 -0.4774
  756MOL0     C 1958   7.072   8.934   1.211  0.6186 -0.3280 -0.7241
  756MOL0     C 1959   7.119   8.916   1.343  0.7689 -1.0205 -0.1140
  756MOL0     O 1960   7.252   8.893   1.356 -1.3755  0.1984 -0.7218
  756MOL0     C 1961   7.313   8.890   1.481 -0.0205 -0.1643  0.5621
  756MOL0     C 1962   7.326   8.747   1.524 -0.4044  0.8592 -0.2657
  756MOL0     C 1963   7.372   8.734   1.675 -0.7857  0.3661 -0.5715
  756MOL0     C 1964   7.407   8.592   1.706 -0.6302  1.3343 -0.4841
  756MOL0     C 1965   7.491   8.570   1.833  1.6158  0.4506  0.4901
  756MOL0     C 1966   7.523   8.414   1.857  0.0235 -0.3470  1.1501
  756MOL0     C 1967   7.575   8.377   1.994  0.2910 -0.6216  0.1583
  756MOL0     C 1968   7.570   8.221   2.004  0.1339  0.1083 -0.2429
  756MOL0    Cl 1969   7.699   8.134   1.908  0.3357 -0.3069  0.2728
  756MOL0     C 1970   7.021   8.912   1.441  0.0946  0.6006 -0.2531
  756MOL0     C 1971   6.889   8.943   1.409  0.3767  0.0929  0.0277
  756MOL0     O 1972   6.772   9.230   1.221  0.0663  0.3237  0.0195
  756MOL0     C 1973   6.501   9.293   1.189  0.0729  1.4801  0.7450
  756MOL0     C 1974   6.365   9.330   1.181 -0.3418  0.0675 -0.2176
  756MOL0     N 1975   5.734   9.553   1.514  0.3993 -0.8245  0.6815
  756MOL0     N 1976   5.631   9.579   1.586  0.5809 -0.1089  0.3785
  756MOL0     C 1977   4.692   9.262   1.788  0.7808 -0.0305  0.0570
  756MOL0     C 1978   4.659   9.169   1.890 -0.2814  0.2684 -0.0217
  756MOL0     C 1979   4.521   8.860   2.168  0.1945 -0.3881  0.4648
  756MOL0     C 1980   4.417   8.787   2.105 -0.7268 -0.7804  0.3517
  756MOL0     C 1981   4.326   8.718   2.182 -0.1736 -0.0901  1.1097
  756MOL0     C 1982   4.328   8.721   2.322  0.1614 -0.6789 -0.4580
  756MOL0     O 1983   4.233   8.664   2.411  0.0040  0.0060  0.0771
  756MOL0     C 1984   4.152   8.557   2.365  0.0846 -0.2154  0.6194
  756MOL0     C 1985   4.030   8.605   2.288 -0.4808  0.8541 -0.7586
  756MOL0     C 1986   3.933   8.480   2.296  0.2552  0.2857  0.1989
  756MOL0     C 1987   3.801   8.487   2.214  0.1787 -0.3763 -0.1211
  756MOL0     C 1988   3.747   8.356   2.182 -0.1179  0.7260 -0.0407
  756MOL0     C 1989   3.715   8.244   2.132  0.1643 -0.0285 -0.1317
  756MOL0     C 1990   4.424   8.794   2.388  0.2998 -0.2280  0.2368
  756MOL0     C 1991   4.522   8.851   2.310 -0.3889  0.3303 -0.9857
  756MOL0     C 1992   4.619   8.920   2.394 -0.0672 -0.3909  0.5222
  756MOL0     H 1993   4.631   8.882   1.717  0.9982  1.1991 -4.3222
  756MOL0     H 1994   4.677   9.044   1.526  0.2507 -2.0905  1.3631
  756MOL0     H 1995   4.564   9.432   1.601 -0.5915  1.0415 -1.0846
  756MOL0     H 1996   4.739   9.488   1.620 -0.4178  1.1588 -0.9965
  756MOL0     H 1997   4.614   9.584   1.421 -0.1671  0.2771 -1.0428
  756MOL0     H 1998   4.601   9.427   1.342 -1.1133  1.3764 -0.4442
  756MOL0     H 1999   4.802   9.574   1.266  0.6758 -2.6432 -1.1358
  756MOL0     H 2000   4.834   9.410   1.302  3.9966  1.2537 -0.2209
  756MOL0     H 2001   4.891   9.623   1.514  0.9899  1.2395 -1.2961
  756MOL0     H 2002   4.935   9.450   1.520  0.3316 -1.6402 -0.5758
  756MOL0     H 2003   5.056   9.475   1.311 -3.1152 -0.2073 -0.2439
  756MOL0     H 2004   5.017   9.648   1.314 -0.5997  2.2351  2.4953
  756MOL0     H 2005   5.098   9.677   1.550 -0.2965 -1.3116  2.4733
  756MOL0     H 2006   5.140   9.503   1.551  0.8666 -0.3811 -0.4867
  756MOL0     H 2007   5.280   9.737   1.417  2.7184 -0.0638  1.0977
  756MOL0     H 2008   5.277   9.588   1.329 -0.7635  1.0496 -0.5998
  756MOL0     H 2009   5.376   9.642   1.629  0.0788 -0.4750  0.3207
  756MOL0     H 2010   5.358   9.481   1.567 -1.1545  1.3661  2.2476
  756MOL0     H 2011   5.516   9.577   1.281 -2.2630 -0.0549  1.7299
  756MOL0     H 2012   5.751   9.531   1.168  2.3247  0.4234 -1.5838
  756MOL0     H 2013   5.834   9.660   1.253  0.5483 -0.3938 -2.1531
  756MOL0     H 2014   6.004   9.491   1.221 -1.1406 -1.6741 -2.1498
  756MOL0     H 2015   5.954   9.493   1.391 -0.3633  3.7846  0.5774
  756MOL0     H 2016   5.836   9.321   1.157  0.8363  0.9395  0.1466
  756MOL0     H 2017   5.815   9.273   1.322 -0.5329  0.4262 -0.8208
  756MOL0     H 2018   5.998   9.142   1.204  1.5807  0.4195 -1.4375
  756MOL0     H 2019   6.041   9.202   1.361 -1.4844 -1.0358  0.4530
  756MOL0     H 2020   6.222   9.042   1.276 -1.8114  1.9948  0.0544
  756MOL0     H 2021   6.457   8.986   1.314 -0.9133 -0.6997 -2.0071
  756MOL0     H 2022   6.918   9.012   1.074  2.5175 -0.8017 -1.3141
  756MOL0     H 2023   7.147   8.911   1.136  1.1726 -1.0755  0.0385
  756MOL0     H 2024   7.409   8.943   1.491  2.0728 -3.1752 -1.6120
  756MOL0     H 2025   7.250   8.943   1.552  0.1079  0.3655  0.2869
  756MOL0     H 2026   7.238   8.684   1.511  0.0821 -0.2803  1.5879
  756MOL0     H 2027   7.408   8.709   1.463 -0.8707 -1.0848  0.2340
  756MOL0     H 2028   7.455   8.804   1.688  0.0154 -0.7445  0.5593
  756MOL0     H 2029   7.298   8.771   1.748  0.4066  0.9541  0.3667
  756MOL0     H 2030   7.458   8.548   1.620 -4.5846 -0.9988 -1.9069
  756MOL0     H 2031   7.314   8.534   1.713  0.9049 -1.2735 -0.2267
  756MOL0     H 2032   7.429   8.611   1.914  0.6767 -0.4017  0.2230
  756MOL0     H 2033   7.587   8.622   1.832  1.6479  0.4027  0.8909
  756MOL0     H 2034   7.427   8.361   1.855 -0.2859  0.1924 -1.3938
  756MOL0     H 2035   7.582   8.370   1.776 -0.9722  1.3045 -0.5609
  756MOL0     H 2036   7.514   8.415   2.077  0.0346  0.4784 -0.5194
  756MOL0     H 2037   7.676   8.412   2.018  0.0015  1.0786 -0.9068
  756MOL0     H 2038   7.590   8.196   2.109  0.0638 -0.6555 -0.4044
  756MOL0     H 2039   7.466   8.189   1.992 -0.3979  1.6774 -0.0232
  756MOL0     H 2040   7.037   8.879   1.543 -2.0372 -0.8130 -0.3158
  756MOL0     H 2041   6.808   8.953   1.479  1.0462  1.0891  0.6894
  756MOL0     H 2042   6.579   9.365   1.167  2.0196 -0.0170  2.3710
  756MOL0     H 2043   6.358   9.435   1.157 -0.9009 -0.3518 -2.0345
  756MOL0     H 2044   4.696   9.370   1.794 -2.3299  0.1460  0.6344
  756MOL0     H 2045   4.643   9.210   1.990  0.1127  0.6724 -0.1247
  756MOL0     H 2046   4.394   8.796   1.999 -1.5366 -0.5427  0.5405
  756MOL0     H 2047   4.252   8.660   2.128 -1.1881  0.3685  1.9773
  756MOL0     H 2048   4.113   8.503   2.451 -4.0705 -4.6240 -3.4093
  756MOL0     H 2049   4.215   8.480   2.320  3.5349  0.8281  3.2250
  756MOL0     H 2050   4.059   8.617   2.184 -1.6914  1.2378 -1.0721
  756MOL0     H 2051   3.982   8.693   2.332 -0.9374 -0.2447  1.0648
  756MOL0     H 2052   3.913   8.461   2.402 -0.9354  2.1966  0.3684
  756MOL0     H 2053   3.994   8.398   2.257  1.3298  2.2121 -2.4123
  756MOL0     H 2054   3.729   8.534   2.282 -0.3073 -0.3159 -0.6710
  756MOL0     H 2055   3.823   8.533   2.117  1.3026 -2.6941 -1.0441
  756MOL0     H 2056   3.677   8.148   2.103  3.0113 -1.0614 -0.7184
  756MOL0     H 2057   4.402   8.801   2.495 -0.0093 -0.8148  0.2143
  756MOL0     H 2058   4.605   9.028   2.389  0.7733 -0.3479 -1.6101
  756MOL0     H 2059   4.597   8.879   2.493 -2.6256 -2.4490 -0.7621
  756MOL0     H 2060   4.720   8.897   2.359  0.3529  1.3971  0.4590
  757MOL0     O 2061   3.588   1.462   2.855  0.2208 -1.0172 -0.5251
  757MOL0     C 2062   3.684   1.518   2.900 -0.4122 -0.7924 -0.5547
  757MOL0     O 2063   3.772   1.597   2.827 -0.8093 -0.2191 -0.5018
  757MOL0     C 2064   3.734   1.622   2.696 -0.6776 -0.6463 -0.8024
  757MOL0     C 2065   3.782   1.545   2.588 -0.4506  0.1622  0.8805
  757MOL0     C 2066   3.740   1.564   2.453  0.5746 -0.8739  0.0620
  757MOL0     C 2067   3.639   1.662   2.432 -0.1978 -0.0928  0.2929
  757MOL0     O 2068   3.592   1.683   2.303 -0.4914  0.0975  0.0006
  757MOL0     C 2069   3.475   1.768   2.285 -0.0851  0.3479 -0.4704
  757MOL0     C 2070   3.436   1.790   2.143  0.3521 -0.6115  0.3058
  757MOL0     C 2071   3.375   1.686   2.061  0.4836 -0.5049 -0.1353
  757MOL0     C 2072   3.479   1.569   2.037  0.7365 -0.1861 -1.0868
  757MOL0     C 2073   3.432   1.464   1.940 -0.3454  0.3069  0.1370
  757MOL0     C 2074   3.515   1.335   1.947  0.3693 -0.0081 -0.6746
  757MOL0     C 2075   3.661   1.363   1.916  0.1673  0.4489  0.0499
  757MOL0     C 2076   3.757   1.241   1.933  0.6237 -0.6135 -0.4774
  757MOL0     N 2077   3.760   1.181   2.065 -0.0697  0.8351 -0.0852
  757MOL0     C 2078   3.789   1.244   2.186 -0.3948 -0.4322 -0.4680
  757MOL0     C 2079   3.783   1.149   2.281 -0.2454  0.2129  0.1352
  757MOL0     C 2080   3.846   1.153   2.419  0.6130  0.3026 -0.2660
  757MOL0     C 2081   3.970   1.060   2.412  0.5093 -0.0396  0.2663
  757MOL0     C 2082   4.042   1.043   2.554  0.0573 -1.1493  1.0917
  757MOL0     C 2083   4.075   1.181   2.626  0.0709 -0.8486  0.5928
  757MOL0     O 2084   3.956   1.252   2.671 -0.5728 -0.4775 -0.2140
  757MOL0     C 2085   3.912   1.232   2.799  0.1127 -0.0908  1.5561
  757MOL0     C 2086   3.778   1.180   2.819 -1.0921 -0.1563  0.1055
  757MOL0     C 2087   3.740   1.146   2.947  0.0211 -0.2969 -0.2918
  757MOL0     C 2088   3.828   1.146   3.054 -0.4750 -0.2737  0.7343
  757MOL0     C 2089   3.796   1.098   3.183  0.1381 -0.3489  0.4503
  757MOL0     O 2090   3.888   1.102   3.275  0.3738  0.4227 -0.1044
  757MOL0     C 2091   3.876   1.038   3.393 -0.2952 -0.3293 -0.5237
  757MOL0     C 2092   3.980   0.948   3.422  0.7142  1.3877  0.2351
  757MOL0     C 2093   3.979   0.862   3.534  0.4815 -0.7327 -0.0623
  757MOL0     C 2094   3.861   0.880   3.620  0.3307 -0.5045  0.6290
  757MOL0     O 2095   3.852   0.783   3.723 -0.2007 -0.1783 -0.2030
  757MOL0     C 2096   3.727   0.713   3.741 -0.4210  0.1232  0.2851
  757MOL0     C 2097   3.747   0.579   3.806 -0.0536 -0.1124  0.1069
  757MOL0     C 2098   3.810   0.575   3.943 -0.3182  0.7720  0.6703
  757MOL0     C 2099   3.830   0.438   3.991 -0.4156 -0.7258  0.4015
  757MOL0     C 2100   3.758   0.411   4.123  0.2461  0.2862  0.6185
  757MOL0     C 2101   3.832   0.471   4.235 -0.7439 -0.4137  0.3921
  757MOL0     C 2102   3.965   0.399   4.277  0.2365 -0.1960 -1.3040
  757MOL0     C 2103   4.068   0.507   4.318  0.0878 -0.0560 -0.0417
  757MOL0    Cl 2104   4.019   0.624   4.450  0.5634 -0.3760 -0.1286
  757MOL0     C 2105   3.753   0.969   3.585  0.1453 -0.4799 -0.3966
  757MOL0     C 2106   3.765   1.047   3.474 -0.2301  0.7342  0.9701
  757MOL0     O 2107   3.683   1.060   3.198  0.1887 -0.4851 -0.0160
  757MOL0     C 2108   3.956   1.202   3.029 -0.2953  0.4196  0.2010
  757MOL0     C 2109   4.004   1.242   2.904 -0.2594 -0.0691 -0.0667
  757MOL0     N 2110   3.722   1.035   2.222 -0.6596 -0.3394 -0.4410
  757MOL0     N 2111   3.697   1.062   2.096 -0.0605  0.4952 -0.5080
  757MOL0     C 2112   3.590   1.734   2.545 -0.1354  0.1244  0.4263
  757MOL0     C 2113   3.630   1.716   2.679  0.7464  0.1288  0.0031
  757MOL0     C 2114   3.682   1.495   3.057 -0.7312 -0.9236  0.3098
  757MOL0     C 2115   3.558   1.454   3.114 -0.3617  0.3948 -0.0270
  757MOL0     C 2116   3.553   1.424   3.251 -0.6035 -0.0099 -0.0210
  757MOL0     C 2117   3.672   1.426   3.330  0.9603  0.3698  0.9121
  757MOL0     O 2118   3.654   1.410   3.468  0.1202 -0.1837 -0.2192
  757MOL0     C 2119   3.775   1.441   3.545  0.3629 -0.6068 -0.2049
  757MOL0     C 2120   3.734   1.423   3.695 -0.9920  1.3838  0.4601
  757MOL0     C 2121   3.857   1.429   3.795 -0.7441 -0.0141 -0.4983
  757MOL0     C 2122   3.830   1.356   3.926  0.7114 -0.5074 -0.1415
  757MOL0     C 2123   3.807   1.212   3.901 -0.4638 -0.8936 -0.0133
  757MOL0     C 2124   3.781   1.097   3.886 -1.2950  0.1016  0.4686
  757MOL0     C 2125   3.795   1.470   3.274  0.4216  0.2429 -0.2636
  757MOL0     C 2126   3.800   1.514   3.136 -0.0506 -0.2605 -0.4067
  757MOL0     C 2127   3.922   1.583   3.100 -0.0990 -0.6788 -0.6831
  757MOL0     H 2128   3.850   1.459   2.585  0.5024  0.9227 -0.1627
  757MOL0     H 2129   3.779   1.504   2.371  1.9819  0.2497 -0.1275
  757MOL0     H 2130   3.391   1.726   2.342 -1.1548  0.4427 -1.9283
  757MOL0     H 2131   3.497   1.868   2.325 -1.7734  0.5872 -0.0695
  757MOL0     H 2132   3.525   1.825   2.090 -0.0605  2.7967  1.5893
  757MOL0     H 2133   3.359   1.868   2.143 -0.5036 -1.4375 -0.3834
  757MOL0     H 2134   3.345   1.722   1.962  1.0231  0.3039 -0.0132
  757MOL0     H 2135   3.286   1.646   2.110  0.8424  0.1052  1.0393
  757MOL0     H 2136   3.572   1.614   2.001  0.3405  2.7151  1.1760
  757MOL0     H 2137   3.509   1.526   2.133  0.7122  1.0056 -0.5264
  757MOL0     H 2138   3.330   1.429   1.957  1.0055 -3.0649  2.5151
  757MOL0     H 2139   3.434   1.499   1.836  0.2825  1.3077  0.4664
  757MOL0     H 2140   3.488   1.305   2.049 -1.4059  1.7424 -0.5783
  757MOL0     H 2141   3.470   1.260   1.881 -3.2063  1.5342 -0.2517
  757MOL0     H 2142   3.700   1.445   1.979 -3.6579  2.4296  0.1727
  757MOL0     H 2143   3.668   1.397   1.813  0.1631 -1.2362 -0.5346
  757MOL0     H 2144   3.734   1.159   1.864  1.7945 -0.5335 -0.9985
  757MOL0     H 2145   3.861   1.263   1.906  0.3563 -1.6219 -2.5464
  757MOL0     H 2146   3.815   1.344   2.217 -2.3723 -0.1343  0.3728
  757MOL0     H 2147   3.876   1.253   2.453 -0.6837  1.3350 -1.9720
  757MOL0     H 2148   3.772   1.114   2.489  0.0614  0.4498 -0.7645
  757MOL0     H 2149   3.936   0.965   2.372 -1.2104  1.1547 -1.2807
  757MOL0     H 2150   4.049   1.108   2.353  0.5371  0.0149  0.3468
  757MOL0     H 2151   4.142   1.001   2.537 -0.2554 -0.7378 -2.5340
  757MOL0     H 2152   3.982   0.972   2.611  0.6144 -1.9726  0.6813
  757MOL0     H 2153   4.114   1.234   2.539 -0.7068 -0.7999  0.2590
  757MOL0     H 2154   4.142   1.175   2.712 -1.8490  0.4244  2.2570
  757MOL0     H 2155   3.703   1.174   2.741 -1.4805  0.2507  0.4453
  757MOL0     H 2156   3.638   1.122   2.974 -0.0950 -1.5309 -1.7224
  757MOL0     H 2157   4.056   0.953   3.345 -0.5707 -0.8431 -1.2910
  757MOL0     H 2158   4.058   0.790   3.552 -1.1307 -2.3181  1.0313
  757MOL0     H 2159   3.664   0.768   3.812 -0.4593 -0.3799  0.6422
  757MOL0     H 2160   3.675   0.699   3.646 -0.3279 -2.3965  0.5365
  757MOL0     H 2161   3.645   0.542   3.812  0.0055 -0.2926  0.0112
  757MOL0     H 2162   3.792   0.522   3.724  0.8271 -0.0741  0.5474
  757MOL0     H 2163   3.910   0.614   3.925  1.0899 -2.6483  0.2230
  757MOL0     H 2164   3.765   0.643   4.016 -1.2424  0.4362  0.4284
  757MOL0     H 2165   3.938   0.426   3.993  0.3491  3.8374 -1.0896
  757MOL0     H 2166   3.783   0.363   3.927 -0.6454 -1.5263  1.4803
  757MOL0     H 2167   3.759   0.304   4.149  4.4058  0.0515  0.1998
  757MOL0     H 2168   3.661   0.461   4.122 -1.0444 -2.0430  0.8565
  757MOL0     H 2169   3.851   0.577   4.219 -2.8575  0.0771  0.8222
  757MOL0     H 2170   3.774   0.468   4.327  5.2166 -2.8570  4.7314
  757MOL0     H 2171   4.008   0.341   4.195  2.5548 -2.5302  1.3428
  757MOL0     H 2172   3.948   0.333   4.363  2.2636  0.7083 -0.1190
  757MOL0     H 2173   4.168   0.472   4.345  0.2091  1.6148  1.9635
  757MOL0     H 2174   4.085   0.567   4.228  0.9215 -1.8011 -1.0951
  757MOL0     H 2175   3.662   0.975   3.644  0.1403  1.2661 -0.5251
  757MOL0     H 2176   3.677   1.109   3.458  0.5866  2.5609  3.1480
  757MOL0     H 2177   4.022   1.212   3.115 -0.9232 -1.7812  1.0050
  757MOL0     H 2178   4.104   1.281   2.893 -0.4475  0.3335 -0.3981
  757MOL0     H 2179   3.516   1.813   2.539  3.9124  4.4314  1.1292
  757MOL0     H 2180   3.596   1.788   2.752 -1.3582  2.5646 -3.1112
  757MOL0     H 2181   3.458   1.454   3.070 -0.2736  1.3156 -0.2567
  757MOL0     H 2182   3.465   1.405   3.311 -2.3813  0.3116 -2.3855
  757MOL0     H 2183   3.804   1.545   3.526 -2.7909  0.2492 -0.7837
  757MOL0     H 2184   3.852   1.368   3.517  0.0582 -0.4335 -1.5733
  757MOL0     H 2185   3.682   1.326   3.687  2.2946 -0.4888  0.0133
  757MOL0     H 2186   3.649   1.485   3.724 -0.2625  1.9429  1.4540
  757MOL0     H 2187   3.888   1.531   3.819 -0.2405 -0.2912  0.0288
  757MOL0     H 2188   3.944   1.383   3.747 -1.7935 -0.0967 -2.4216
  757MOL0     H 2189   3.918   1.373   3.989  0.1474  2.5420 -0.0191
  757MOL0     H 2190   3.749   1.405   3.981 -0.3047  0.8382 -2.6967
  757MOL0     H 2191   3.755   0.999   3.852 -0.5175  0.7663 -2.2855
  757MOL0     H 2192   3.888   1.458   3.329  0.9963  1.9329 -0.8319
  757MOL0     H 2193   3.899   1.689   3.085 -0.3763 -0.8016 -1.1441
  757MOL0     H 2194   4.003   1.579   3.173 -0.1456  0.6911 -0.5307
  757MOL0     H 2195   3.951   1.531   3.008 -1.9628 -2.5641 -0.2846
  758MOL0     O 2196  10.625   4.436   3.252  0.3124  0.7919  0.9545
  758MOL0     C 2197  10.703   4.507   3.189  0.2538 -0.0834  0.2707
  758MOL0     O 2198  10.811   4.570   3.249  0.3354 -0.3507 -0.4365
  758MOL0     C 2199  10.824   4.572   3.390 -0.1758  0.1179 -0.0865
  758MOL0     C 2200  10.945   4.519   3.448 -0.3599 -1.3964  0.3737
  758MOL0     C 2201  10.965   4.515   3.582  0.8748  0.0707 -0.6492
  758MOL0     C 2202  10.852   4.545   3.670  0.0391 -0.5925 -0.0747
  758MOL0     O 2203  10.864   4.517   3.798  0.2219  0.5029  0.6130
  758MOL0     C 2204  10.776   4.412   3.840  0.1281 -0.3557 -0.6204
  758MOL0     C 2205  10.853   4.320   3.930 -0.8049 -0.6738 -0.3837
  758MOL0     C 2206  10.763   4.260   4.040  0.2704  0.4914  0.4951
  758MOL0     C 2207  10.838   4.139   4.093 -0.0198 -0.0977 -0.1468
  758MOL0     C 2208  10.786   4.100   4.230  0.0177  0.6097 -0.3548
  758MOL0     C 2209  10.862   4.141   4.359  0.2057  0.8958 -0.1748
  758MOL0     C 2210  10.865   4.294   4.377 -0.1470 -0.7628 -0.0838
  758MOL0     C 2211  10.995   4.363   4.329  0.9355  1.1312 -0.0861
  758MOL0     N 2212  11.108   4.337   4.420  0.7687  0.1171 -0.6949
  758MOL0     C 2213  11.196   4.230   4.424  0.1312 -0.6308 -1.4245
  758MOL0     C 2214  11.285   4.261   4.530  0.8859  0.4737  0.3816
  758MOL0     C 2215  11.385   4.161   4.565  1.3975  0.3538  0.6009
  758MOL0     C 2216  11.515   4.222   4.626  1.1233  0.1502 -0.4850
  758MOL0     C 2217  11.635   4.240   4.538  0.1008  1.3113  0.6901
  758MOL0     C 2218  11.725   4.114   4.552  0.5973  0.1458 -0.1463
  758MOL0     O 2219  11.668   4.002   4.480 -0.1269 -0.9206 -0.2357
  758MOL0     C 2220  11.763   3.913   4.443 -0.8996  0.9359  1.0937
  758MOL0     C 2221  11.836   3.856   4.548  0.8220 -0.4848 -0.5794
  758MOL0     C 2222  11.925   3.752   4.512  0.2373 -0.0596 -0.3029
  758MOL0     C 2223  11.937   3.695   4.381 -0.2289 -0.0850 -0.1835
  758MOL0     C 2224  12.024   3.584   4.352  0.6539  1.0691  0.1148
  758MOL0     O 2225  12.051   3.494   4.452 -0.5379  0.3073 -0.0160
  758MOL0     C 2226  12.145   3.399   4.416 -0.3171  0.4157  0.6220
  758MOL0     C 2227  12.274   3.431   4.432  0.2755  0.4918 -0.3783
  758MOL0     C 2228  12.380   3.337   4.406  0.1527 -0.1339 -0.1488
  758MOL0     C 2229  12.341   3.211   4.365  0.7078  0.1452  1.2278
  758MOL0     O 2230  12.434   3.115   4.345  0.4125  0.1094 -0.5094
  758MOL0     C 2231  12.559   3.149   4.278 -0.2942 -0.5924 -0.3491
  758MOL0     C 2232  12.607   3.021   4.207 -0.2028 -0.4140  0.1307
  758MOL0     C 2233  12.502   2.986   4.102 -1.0109 -0.9070 -0.1729
  758MOL0     C 2234  12.547   2.874   4.007 -0.1198  0.0297  0.2392
  758MOL0     C 2235  12.467   2.863   3.880  0.3218  0.5024  0.0295
  758MOL0     C 2236  12.323   2.811   3.886 -0.1335 -0.7271  0.1519
  758MOL0     C 2237  12.242   2.854   3.759  0.1630  0.3249  0.1265
  758MOL0     C 2238  12.257   2.743   3.649 -0.5705  0.9946 -0.0204
  758MOL0    Cl 2239  12.294   2.820   3.495  0.1870  0.1121  0.3270
  758MOL0     C 2240  12.209   3.181   4.340  0.1324 -0.0168 -0.1110
  758MOL0     C 2241  12.108   3.277   4.361  0.0272  0.2747 -0.0609
  758MOL0     O 2242  12.086   3.586   4.240  0.4350 -0.8157 -0.5765
  758MOL0     C 2243  11.861   3.765   4.276 -1.1179 -0.4081 -0.3518
  758MOL0     C 2244  11.781   3.875   4.313  0.3852  0.1746  0.1199
  758MOL0     N 2245  11.246   4.377   4.580 -0.3147 -2.0519  0.1624
  758MOL0     N 2246  11.149   4.428   4.513  0.6054  0.3933  0.0341
  758MOL0     C 2247  10.741   4.599   3.614  0.3799 -0.3921  0.0208
  758MOL0     C 2248  10.721   4.613   3.476  0.4143  0.3634  0.1811
  758MOL0     C 2249  10.676   4.528   3.044  0.9736 -0.0086  1.0909
  758MOL0     C 2250  10.783   4.572   2.960 -0.1093  0.6005  1.0551
  758MOL0     C 2251  10.770   4.578   2.823  0.1385 -0.7174 -0.0051
  758MOL0     C 2252  10.640   4.558   2.759  0.4079 -0.8628  0.2584
  758MOL0     O 2253  10.619   4.591   2.621  0.4798  0.1052  0.0098
  758MOL0     C 2254  10.510   4.536   2.540  0.1046 -0.3714 -0.1791
  758MOL0     C 2255  10.546   4.546   2.403 -0.8749 -0.4547 -0.0721
  758MOL0     C 2256  10.447   4.485   2.309  0.4862  0.0189  0.8804
  758MOL0     C 2257  10.479   4.532   2.165  0.0873  0.3610 -0.0525
  758MOL0     C 2258  10.604   4.476   2.114 -0.7131  0.1300  0.1660
  758MOL0     C 2259  10.705   4.431   2.059  0.3655 -0.0165  1.1949
  758MOL0     C 2260  10.537   4.518   2.843 -0.2584 -0.0937  0.7239
  758MOL0     C 2261  10.549   4.506   2.979 -0.0485 -0.2135  0.0725
  758MOL0     C 2262  10.429   4.463   3.058  0.4530  0.4027  0.1139
  758MOL0     H 2263  11.034   4.493   3.393 -0.7226  0.7504 -1.3918
  758MOL0     H 2264  11.060   4.472   3.611  1.5994  1.2691 -1.1820
  758MOL0     H 2265  10.688   4.453   3.889  0.2701  0.8278 -1.3133
  758MOL0     H 2266  10.737   4.347   3.761 -2.1491 -0.7772  0.7565
  758MOL0     H 2267  10.929   4.381   3.980 -2.2518  2.3602 -1.7028
  758MOL0     H 2268  10.890   4.233   3.874  1.0797 -0.3606  0.2935
  758MOL0     H 2269  10.669   4.226   3.996  2.0673 -2.4274 -1.4887
  758MOL0     H 2270  10.752   4.331   4.122  3.8261 -0.6217  2.1526
  758MOL0     H 2271  10.809   4.065   4.018  0.6179  0.4024 -0.8973
  758MOL0     H 2272  10.946   4.156   4.091 -0.1649  0.8511 -0.4862
  758MOL0     H 2273  10.687   4.146   4.240  0.3533  1.0790  0.9717
  758MOL0     H 2274  10.780   3.992   4.242  1.5002  0.3920 -1.3267
  758MOL0     H 2275  10.800   4.103   4.441 -2.0534  0.7590 -1.8497
  758MOL0     H 2276  10.964   4.102   4.372 -0.2877  0.0713  1.6030
  758MOL0     H 2277  10.870   4.311   4.485  0.1993 -1.4036  0.0076
  758MOL0     H 2278  10.775   4.340   4.337 -1.6669 -1.3618  2.4192
  758MOL0     H 2279  11.022   4.318   4.232  1.1064 -1.0123  0.9043
  758MOL0     H 2280  10.966   4.468   4.319 -1.7013  0.5774  0.9120
  758MOL0     H 2281  11.211   4.139   4.367  1.6104  0.2769 -2.5770
  758MOL0     H 2282  11.344   4.094   4.642  2.4548  0.5793  1.3722
  758MOL0     H 2283  11.410   4.095   4.482  1.7148  1.0530  0.1377
  758MOL0     H 2284  11.497   4.316   4.680  0.1106  0.4878 -1.3709
  758MOL0     H 2285  11.540   4.152   4.706  1.6616  1.3294  0.4287
  758MOL0     H 2286  11.697   4.326   4.568  0.0909  0.7017  2.6562
  758MOL0     H 2287  11.600   4.258   4.437 -0.0010 -1.3396  0.1971
  758MOL0     H 2288  11.738   4.087   4.657 -2.1469  1.5148  0.6279
  758MOL0     H 2289  11.822   4.137   4.507 -0.0382  1.9751 -0.6588
  758MOL0     H 2290  11.801   3.871   4.650 -1.4405 -1.9106 -1.0977
  758MOL0     H 2291  11.980   3.703   4.591 -3.0112 -2.2749  0.7630
  758MOL0     H 2292  12.308   3.532   4.457  1.9227 -0.5268  1.9424
  758MOL0     H 2293  12.483   3.361   4.429  0.8435  0.1430 -3.1687
  758MOL0     H 2294  12.545   3.239   4.217  1.7425  0.1038  0.1517
  758MOL0     H 2295  12.633   3.181   4.351 -1.6825  2.2949 -0.0702
  758MOL0     H 2296  12.705   3.049   4.166  0.6102  0.0768  2.2510
  758MOL0     H 2297  12.608   2.950   4.290 -2.1162  1.8393  2.2349
  758MOL0     H 2298  12.412   2.958   4.158 -0.5113 -2.1561  0.0417
  758MOL0     H 2299  12.472   3.075   4.046 -1.8383 -1.6382 -0.9306
  758MOL0     H 2300  12.549   2.783   4.067 -2.4837 -1.0535 -1.1970
  758MOL0     H 2301  12.648   2.902   3.974  0.3185 -1.4694  0.2574
  758MOL0     H 2302  12.523   2.799   3.812  0.0053  1.1784 -0.8809
  758MOL0     H 2303  12.463   2.967   3.849 -0.9702  0.2104 -0.8944
  758MOL0     H 2304  12.318   2.703   3.904  4.2132 -0.9454  1.1812
  758MOL0     H 2305  12.288   2.884   3.959  0.5754 -0.1173 -0.1015
  758MOL0     H 2306  12.272   2.950   3.716  0.7544 -0.9288 -2.4381
  758MOL0     H 2307  12.137   2.861   3.787  0.8211 -2.4025  4.3694
  758MOL0     H 2308  12.332   2.665   3.663  0.2233  1.4615 -1.4408
  758MOL0     H 2309  12.169   2.679   3.641 -0.3593  0.7578 -0.4810
  758MOL0     H 2310  12.179   3.090   4.289  0.1275  1.2127 -2.4631
  758MOL0     H 2311  12.006   3.254   4.335  0.5488 -0.5479 -1.5066
  758MOL0     H 2312  11.876   3.749   4.169 -0.6663 -4.8108  0.2097
  758MOL0     H 2313  11.710   3.904   4.237  0.9542  2.2032  0.2978
  758MOL0     H 2314  10.655   4.639   3.667  0.3322 -0.7694  0.2314
  758MOL0     H 2315  10.636   4.659   3.428  0.1467 -0.8568 -0.5403
  758MOL0     H 2316  10.877   4.590   3.011  1.3626  0.5721 -1.4877
  758MOL0     H 2317  10.859   4.611   2.770  1.0232  0.9748  2.3966
  758MOL0     H 2318  10.426   4.604   2.557  0.2863 -0.4273  1.0585
  758MOL0     H 2319  10.479   4.435   2.567  3.0468 -1.3850 -0.2153
  758MOL0     H 2320  10.635   4.483   2.402 -2.4341 -3.2614  4.7444
  758MOL0     H 2321  10.572   4.649   2.376 -0.5473 -0.9877 -1.9465
  758MOL0     H 2322  10.348   4.521   2.338  0.8625 -0.2247  2.6261
  758MOL0     H 2323  10.459   4.377   2.321  1.9089  0.3438  3.0340
  758MOL0     H 2324  10.396   4.505   2.099 -0.6521 -0.1375  1.0527
  758MOL0     H 2325  10.483   4.641   2.163  3.8824  0.3431 -0.4351
  758MOL0     H 2326  10.791   4.385   2.015  0.8096 -1.3425  3.3138
  758MOL0     H 2327  10.439   4.533   2.797 -1.4430  5.1699  4.0752
  758MOL0     H 2328  10.403   4.532   3.139  0.0763  0.7928 -0.3382
  758MOL0     H 2329  10.348   4.461   2.985  1.7392  2.7575 -1.4939
  758MOL0     H 2330  10.433   4.360   3.095 -0.1365  1.0949  2.2881
  759MOL0     O 2331  10.058   4.490   8.991  0.4522 -0.6358 -0.1656
  759MOL0     C 2332  10.136   4.406   9.039 -0.1333 -0.2184  0.9130
  759MOL0     O 2333  10.133   4.358   9.160  0.1797 -0.7387  0.0259
  759MOL0     C 2334  10.057   4.418   9.253  0.5313  0.5989 -0.4881
  759MOL0     C 2335  10.093   4.535   9.305 -0.2564  0.1829  0.0647
  759MOL0     C 2336  10.015   4.586   9.407  0.0937  0.2514  0.4917
  759MOL0     C 2337   9.908   4.522   9.466  0.3254 -0.0446 -0.7098
  759MOL0     O 2338   9.843   4.561   9.583 -0.3885 -0.1185  0.0802
  759MOL0     C 2339   9.881   4.691   9.643  0.2387  0.1801 -0.0251
  759MOL0     C 2340   9.785   4.738   9.745 -0.2431  0.1107 -0.0921
  759MOL0     C 2341   9.777   4.650   9.867  0.8602 -0.6103  0.2421
  759MOL0     C 2342   9.700   4.707   9.988  0.6161  0.0697  0.3009
  759MOL0     C 2343   9.545   4.716   9.956  0.4571 -0.7658 -0.1452
  759MOL0     C 2344   9.442   4.685  10.068  0.6132  0.4894 -1.1128
  759MOL0     C 2345   9.448   4.557  10.152  0.2119  0.5084  0.3485
  759MOL0     C 2346   9.436   4.432  10.046 -0.4695  0.0237 -0.1717
  759MOL0     N 2347   9.377   4.309  10.104 -0.3515 -0.6739 -0.1766
  759MOL0     C 2348   9.258   4.297  10.181 -0.1001  0.0746  0.4085
  759MOL0     C 2349   9.252   4.166  10.213  0.0828  0.1057 -1.2264
  759MOL0     C 2350   9.150   4.100  10.302 -0.8375 -0.5624 -0.0568
  759MOL0     C 2351   9.210   4.081  10.440 -1.0869  0.1065 -0.4174
  759MOL0     C 2352   9.232   4.210  10.521 -0.1277 -0.0537  0.5332
  759MOL0     C 2353   9.312   4.186  10.657 -0.0756  0.1529 -0.2306
  759MOL0     O 2354   9.432   4.112  10.645 -0.0096  0.3982  0.4495
  759MOL0     C 2355   9.512   4.155  10.544  0.0432  0.6580  0.4085
  759MOL0     C 2356   9.539   4.292  10.524  1.0540 -0.4106  0.2842
  759MOL0     C 2357   9.607   4.331  10.412 -0.2437 -0.1241  0.6836
  759MOL0     C 2358   9.665   4.239  10.323  0.9436  1.0328  0.3230
  759MOL0     C 2359   9.759   4.277  10.219  0.7962  0.4877 -1.0419
  759MOL0     O 2360   9.861   4.188  10.203  0.8670  0.3815 -0.2392
  759MOL0     C 2361   9.944   4.214  10.096 -0.1837  0.6602 -1.2232
  759MOL0     C 2362  10.077   4.248  10.121 -0.3717  0.1923 -0.1776
  759MOL0     C 2363  10.162   4.289  10.024 -0.1891 -0.1713 -0.8929
  759MOL0     C 2364  10.122   4.293   9.892 -0.3550  0.4441  0.4206
  759MOL0     O 2365  10.222   4.318   9.798  0.3405 -0.3826  0.0337
  759MOL0     C 2366  10.190   4.290   9.662 -0.3582 -0.2791 -0.5009
  759MOL0     C 2367  10.188   4.144   9.619  0.7344 -0.3145 -0.1823
  759MOL0     C 2368  10.321   4.074   9.638  0.3549  1.0580 -0.4310
  759MOL0     C 2369  10.451   4.146   9.592  0.3550 -0.6380  0.5804
  759MOL0     C 2370  10.450   4.156   9.434 -0.2123  0.0392 -0.2145
  759MOL0     C 2371  10.586   4.135   9.377  0.8423  0.1172  0.0338
  759MOL0     C 2372  10.692   4.233   9.406  0.7636 -0.9538  0.1403
  759MOL0     C 2373  10.820   4.203   9.330  0.2982  0.0710 -0.1827
  759MOL0    Cl 2374  10.889   4.037   9.359  0.2670 -0.0238 -0.1524
  759MOL0     C 2375   9.991   4.236   9.858 -0.0442 -0.2912 -0.6115
  759MOL0     C 2376   9.901   4.203   9.963 -1.3145  0.0317 -0.6612
  759MOL0     O 2377   9.751   4.386  10.166 -0.5794  0.8919  0.2225
  759MOL0     C 2378   9.653   4.104  10.360  0.0811  0.7854 -0.6746
  759MOL0     C 2379   9.573   4.060  10.465 -0.9378 -1.2022  0.0219
  759MOL0     N 2380   9.363   4.100  10.157 -1.3175 -0.4328  0.2930
  759MOL0     N 2381   9.443   4.192  10.092  0.1267  0.3335 -1.3895
  759MOL0     C 2382   9.879   4.394   9.417  0.0512  0.1895 -0.2228
  759MOL0     C 2383   9.946   4.345   9.302  0.2187 -0.3711 -0.4210
  759MOL0     C 2384  10.226   4.331   8.943  0.2237 -0.4960  0.8784
  759MOL0     C 2385  10.241   4.385   8.816  0.1996  0.1330  0.4750
  759MOL0     C 2386  10.313   4.323   8.720 -0.6750 -0.4383 -0.2717
  759MOL0     C 2387  10.393   4.212   8.746 -0.6885  0.0249  0.5814
  759MOL0     O 2388  10.472   4.127   8.667 -0.0652  0.2742 -0.0899
  759MOL0     C 2389  10.536   4.179   8.548  0.6130  0.6569 -0.4900
  759MOL0     C 2390  10.670   4.242   8.586  0.1716  0.7092 -0.0566
  759MOL0     C 2391  10.758   4.139   8.673 -0.3185  0.0486  0.1819
  759MOL0     C 2392  10.897   4.137   8.622  0.3964 -0.8676  0.7716
  759MOL0     C 2393  10.956   4.277   8.615 -0.4668 -0.3217  1.3346
  759MOL0     C 2394  10.977   4.393   8.609 -0.7486  0.9397 -0.5991
  759MOL0     C 2395  10.390   4.157   8.876 -0.4941  0.2644  0.8746
  759MOL0     C 2396  10.307   4.212   8.967  0.8994 -0.7301 -0.5543
  759MOL0     C 2397  10.307   4.148   9.093 -0.4289 -0.0502 -0.4832
  759MOL0     H 2398  10.177   4.591   9.266 -1.1483  2.6473  1.3930
  759MOL0     H 2399  10.052   4.686   9.431  1.2720  0.2227 -1.0737
  759MOL0     H 2400   9.979   4.682   9.691 -0.6571 -2.6523  1.5039
  759MOL0     H 2401   9.887   4.766   9.563 -1.5800 -0.3508 -0.6970
  759MOL0     H 2402   9.687   4.736   9.699 -1.5573 -3.2938  2.4218
  759MOL0     H 2403   9.802   4.843   9.772  2.9868  0.4891 -2.8802
  759MOL0     H 2404   9.876   4.619   9.901  0.9445  0.7483  1.3559
  759MOL0     H 2405   9.732   4.555   9.838  0.2009 -0.9243  2.1675
  759MOL0     H 2406   9.695   4.637  10.071 -2.7057 -2.0789 -1.4685
  759MOL0     H 2407   9.750   4.799  10.019  0.2379  2.1728 -4.3785
  759MOL0     H 2408   9.521   4.815   9.915 -4.1008 -0.5210  2.4406
  759MOL0     H 2409   9.518   4.660   9.865 -0.1704  0.1913 -0.5619
  759MOL0     H 2410   9.457   4.770  10.135  1.6750 -0.6276  0.1161
  759MOL0     H 2411   9.344   4.689  10.018  0.6182  0.3576 -1.1336
  759MOL0     H 2412   9.379   4.547  10.236  0.6726 -1.3500  0.5491
  759MOL0     H 2413   9.551   4.538  10.183 -0.5072 -3.5533  0.7577
  759MOL0     H 2414   9.374   4.469   9.964 -0.1821  2.0427  0.4830
  759MOL0     H 2415   9.533   4.410  10.001 -0.4807  1.4525 -0.9275
  759MOL0     H 2416   9.179   4.369  10.197  0.5000  0.1240  4.2628
  759MOL0     H 2417   9.074   4.177  10.313  0.7187  0.8857  1.0864
  759MOL0     H 2418   9.104   4.011  10.258  0.6467 -0.1494 -2.6256
  759MOL0     H 2419   9.141   4.016  10.495 -0.4566  0.1322  0.4193
  759MOL0     H 2420   9.296   4.014  10.429 -1.5450 -0.4023 -0.9943
  759MOL0     H 2421   9.128   4.239  10.535 -0.4745 -1.2376  0.4868
  759MOL0     H 2422   9.293   4.288  10.472  2.1633 -0.1909  2.9358
  759MOL0     H 2423   9.255   4.117  10.720  1.6453 -0.1274  1.0834
  759MOL0     H 2424   9.333   4.278  10.712 -0.2629 -0.4230  0.8302
  759MOL0     H 2425   9.491   4.363  10.590 -0.6930  0.6721 -2.0296
  759MOL0     H 2426   9.605   4.438  10.390 -0.3477 -0.6266 -2.1117
  759MOL0     H 2427  10.119   4.249  10.221  2.6512 -2.1108 -1.2838
  759MOL0     H 2428  10.262   4.327  10.042 -0.0613  1.2080 -3.9480
  759MOL0     H 2429  10.089   4.328   9.645 -0.3800  0.1970  0.5878
  759MOL0     H 2430  10.248   4.352   9.593  1.4181 -0.5969  0.6406
  759MOL0     H 2431  10.112   4.087   9.674  2.5518 -1.9042  0.8120
  759MOL0     H 2432  10.155   4.142   9.515 -0.0399 -1.8100  0.0541
  759MOL0     H 2433  10.329   4.048   9.743 -4.7030  1.3891  0.3263
  759MOL0     H 2434  10.318   3.973   9.597  0.1886  0.8419  0.1013
  759MOL0     H 2435  10.548   4.112   9.627  0.9541  0.3689 -0.0176
  759MOL0     H 2436  10.448   4.248   9.633 -3.1429  1.1682 -3.3983
  759MOL0     H 2437  10.404   4.244   9.389  0.7026  2.1631  2.7571
  759MOL0     H 2438  10.381   4.079   9.398 -0.1870  0.0243 -0.2328
  759MOL0     H 2439  10.621   4.036   9.407  2.3584  0.7865  0.5687
  759MOL0     H 2440  10.573   4.136   9.268  2.1704  0.5539 -0.1370
  759MOL0     H 2441  10.719   4.237   9.512  1.3769 -3.0728  0.0926
  759MOL0     H 2442  10.667   4.335   9.375  3.5805 -0.6406 -1.3859
  759MOL0     H 2443  10.805   4.226   9.224  1.4901 -0.1390 -0.4131
  759MOL0     H 2444  10.890   4.283   9.355  1.1143 -0.9573  0.9731
  759MOL0     H 2445   9.944   4.227   9.761  0.1332  3.8112 -1.2314
  759MOL0     H 2446   9.796   4.180   9.946 -1.9717 -0.0036  2.7263
  759MOL0     H 2447   9.718   4.035  10.306  0.0439  0.3978 -0.2320
  759MOL0     H 2448   9.568   3.958  10.502  1.9364 -1.4187  0.0700
  759MOL0     H 2449   9.794   4.350   9.469 -1.4413  0.8370 -2.0155
  759MOL0     H 2450   9.911   4.256   9.251  0.0419 -0.9658  0.7174
  759MOL0     H 2451  10.209   4.487   8.798 -1.0876 -0.4566 -0.6629
  759MOL0     H 2452  10.313   4.373   8.624  1.1732  0.1310 -0.0111
  759MOL0     H 2453  10.470   4.256   8.507 -1.4501 -1.0821 -0.5580
  759MOL0     H 2454  10.551   4.112   8.463  1.1823  1.1050 -0.7530
  759MOL0     H 2455  10.659   4.336   8.640  1.5935  1.1306 -0.4506
  759MOL0     H 2456  10.719   4.275   8.494 -0.9434  0.1041 -0.8917
  759MOL0     H 2457  10.725   4.036   8.653  1.1482  0.1221 -3.4990
  759MOL0     H 2458  10.759   4.165   8.779 -1.5488 -1.8199  0.6995
  759MOL0     H 2459  10.961   4.074   8.685 -0.1806  0.1773  2.4836
  759MOL0     H 2460  10.896   4.081   8.528 -1.0547 -0.8528  0.7580
  759MOL0     H 2461  11.006   4.496   8.598  2.1551  0.0735 -2.0994
  759MOL0     H 2462  10.461   4.079   8.900 -1.2965 -0.7435  0.0497
  759MOL0     H 2463  10.359   4.210   9.167  1.1616 -2.3625  0.4553
  759MOL0     H 2464  10.201   4.144   9.120 -0.8342  2.5636 -1.3337
  759MOL0     H 2465  10.345   4.046   9.101 -0.0845  0.1164  0.1346
  760MOL0     O 2466   7.628  10.267   8.035 -0.2273  0.4456 -0.2430
  760MOL0     C 2467   7.629  10.347   8.124 -0.1088 -0.3167 -0.4872
  760MOL0     O 2468   7.588  10.483   8.110  0.3259 -0.1172 -0.7366
  760MOL0     C 2469   7.608  10.531   7.982 -1.0332  0.2308 -0.1775
  760MOL0     C 2470   7.746  10.564   7.953  0.1061 -0.6708  1.0340
  760MOL0     C 2471   7.772  10.654   7.845  0.3082  1.4560 -0.9559
  760MOL0     C 2472   7.672  10.678   7.755 -0.6645 -0.6032  0.1648
  760MOL0     O 2473   7.704  10.739   7.634 -0.9482  0.5636 -0.1887
  760MOL0     C 2474   7.802  10.678   7.554 -0.4546 -0.2244  0.5010
  760MOL0     C 2475   7.803  10.759   7.423  0.0313  0.2175 -0.1967
  760MOL0     C 2476   7.876  10.887   7.436  0.0643  0.2478 -0.1310
  760MOL0     C 2477   7.856  10.981   7.312 -0.0354 -0.3862 -0.1184
  760MOL0     C 2478   7.956  11.098   7.332 -0.8533  0.7536 -0.6581
  760MOL0     C 2479   7.936  11.198   7.215 -0.1058  0.5177 -0.3226
  760MOL0     C 2480   8.048  11.304   7.203 -0.2853  0.2506 -0.2891
  760MOL0     C 2481   8.069  11.397   7.327  0.7411 -0.3965  0.0007
  760MOL0     N 2482   7.965  11.506   7.336  0.3226 -0.2469 -0.2365
  760MOL0     C 2483   7.931  11.568   7.459  0.4664 -0.1577  1.0680
  760MOL0     C 2484   7.896  11.693   7.419  0.3956 -0.0967 -0.8977
  760MOL0     C 2485   7.870  11.813   7.501  0.2040  1.2424  0.2713
  760MOL0     C 2486   7.977  11.926   7.479  0.1419  0.2270 -0.6550
  760MOL0     C 2487   7.937  12.062   7.546  0.2152  0.0840  1.0392
  760MOL0     C 2488   7.960  12.049   7.699 -0.4807 -0.8284  0.6893
  760MOL0     O 2489   7.944  12.162   7.792 -0.4834  0.2575  0.0285
  760MOL0     C 2490   7.828  12.202   7.835  0.4428 -0.7892 -0.5918
  760MOL0     C 2491   7.704  12.156   7.782  0.3359  0.6587 -0.4127
  760MOL0     C 2492   7.582  12.198   7.831 -0.0621  0.8719  0.5893
  760MOL0     C 2493   7.581  12.278   7.936  0.8607  0.2738 -0.3925
  760MOL0     C 2494   7.448  12.340   7.976  0.8056 -0.6009  0.1380
  760MOL0     O 2495   7.454  12.465   8.019 -0.6343  0.6766 -0.8119
  760MOL0     C 2496   7.343  12.504   8.086  0.0893 -0.8191 -1.0267
  760MOL0     C 2497   7.294  12.634   8.061  0.0903 -0.6472  0.5563
  760MOL0     C 2498   7.194  12.691   8.141 -0.3222 -0.1707  1.3000
  760MOL0     C 2499   7.135  12.621   8.245 -0.2163 -0.4999 -0.5660
  760MOL0     O 2500   7.035  12.675   8.316  0.6458  0.3533 -0.8010
  760MOL0     C 2501   7.027  12.623   8.451 -0.2703 -0.0672  0.1568
  760MOL0     C 2502   6.946  12.725   8.528 -0.7014  0.8056  0.6744
  760MOL0     C 2503   6.812  12.741   8.452 -0.4387  0.2062 -0.8497
  760MOL0     C 2504   6.710  12.808   8.548 -0.4325 -1.1173  0.4897
  760MOL0     C 2505   6.579  12.855   8.477  0.3874 -0.3096  0.3130
  760MOL0     C 2506   6.518  12.761   8.357 -0.3462 -0.3161  0.4437
  760MOL0     C 2507   6.380  12.818   8.319  0.1532  0.2065  0.0869
  760MOL0     C 2508   6.375  12.909   8.201 -0.4581  0.8709 -0.2891
  760MOL0    Cl 2509   6.400  12.827   8.050  0.1150  0.2034 -0.3414
  760MOL0     C 2510   7.175  12.486   8.262 -0.4815  0.7587 -1.1795
  760MOL0     C 2511   7.280  12.432   8.189 -1.7433 -0.9023 -0.4197
  760MOL0     O 2512   7.344  12.277   7.967 -0.0303 -0.0199  0.3641
  760MOL0     C 2513   7.700  12.334   7.991  0.5006  0.2047 -0.0729
  760MOL0     C 2514   7.824  12.293   7.944  0.5060 -0.2558  0.2518
  760MOL0     N 2515   7.903  11.711   7.286  0.7385 -0.1784 -0.3862
  760MOL0     N 2516   7.949  11.593   7.233  0.3397 -0.0370  0.4058
  760MOL0     C 2517   7.541  10.642   7.783  0.1502 -0.4141  0.2556
  760MOL0     C 2518   7.509  10.567   7.900  0.0002  0.3938  0.1195
  760MOL0     C 2519   7.673  10.306   8.259 -0.0083 -0.1483 -0.2719
  760MOL0     C 2520   7.603  10.362   8.369 -0.6272  0.7022  0.9718
  760MOL0     C 2521   7.646  10.336   8.500  0.5832 -0.3472  0.7440
  760MOL0     C 2522   7.758  10.261   8.529 -0.1480 -0.3341 -0.6036
  760MOL0     O 2523   7.801  10.220   8.656  0.1634 -0.5757  0.7531
  760MOL0     C 2524   7.703  10.236   8.764 -0.3133  0.2023  0.2478
  760MOL0     C 2525   7.778  10.196   8.894  0.9880  0.5927  0.2393
  760MOL0     C 2526   7.832  10.049   8.885 -0.7556 -1.0921  0.0883
  760MOL0     C 2527   7.887   9.994   9.021 -0.3103  0.0218 -0.3460
  760MOL0     C 2528   8.000  10.073   9.077  0.3195 -0.5220 -0.1854
  760MOL0     C 2529   8.086  10.145   9.122 -0.1611 -0.2808  0.2563
  760MOL0     C 2530   7.821  10.197   8.424 -1.2215 -1.0433  0.1858
  760MOL0     C 2531   7.784  10.226   8.288 -0.1077 -0.1959 -0.0761
  760MOL0     C 2532   7.879  10.187   8.173 -0.7302  0.3108  1.1761
  760MOL0     H 2533   7.827  10.537   8.020  3.0514 -2.2609 -2.7648
  760MOL0     H 2534   7.877  10.678   7.830  0.2326  2.3824 -0.1413
  760MOL0     H 2535   7.899  10.702   7.598  0.2700  2.3324 -2.2129
  760MOL0     H 2536   7.789  10.570   7.541  1.4036 -0.3521 -0.5339
  760MOL0     H 2537   7.701  10.775   7.386  0.2636 -1.4439 -1.6742
  760MOL0     H 2538   7.847  10.695   7.346  0.7012  0.5603 -0.1064
  760MOL0     H 2539   7.982  10.861   7.444  0.0548  0.5014  1.0713
  760MOL0     H 2540   7.846  10.939   7.528 -2.3348  1.6740 -1.6270
  760MOL0     H 2541   7.879  10.933   7.217 -1.3873  1.5014 -1.4713
  760MOL0     H 2542   7.755  11.023   7.302  0.5097  1.2251  0.7074
  760MOL0     H 2543   7.953  11.147   7.429 -1.2249  1.0765 -0.8306
  760MOL0     H 2544   8.062  11.071   7.322 -1.1141 -0.0415 -1.4755
  760MOL0     H 2545   7.933  11.129   7.130 -0.3850 -0.7200  0.6498
  760MOL0     H 2546   7.844  11.254   7.231  1.3922  2.9294  0.4140
  760MOL0     H 2547   8.043  11.361   7.110  2.7270 -0.8384 -1.2262
  760MOL0     H 2548   8.143  11.255   7.178 -1.5092 -1.9307 -0.9651
  760MOL0     H 2549   8.054  11.332   7.414 -1.6619 -1.4724 -1.1139
  760MOL0     H 2550   8.169  11.440   7.329 -0.0073  1.4393  1.8855
  760MOL0     H 2551   7.955  11.521   7.554 -0.0074 -1.7837  0.4336
  760MOL0     H 2552   7.768  11.848   7.480  1.3135  2.8096 -3.1386
  760MOL0     H 2553   7.879  11.774   7.603  1.5571  0.6879 -0.0387
  760MOL0     H 2554   8.080  11.901   7.510  1.0418  4.4303  0.3628
  760MOL0     H 2555   7.983  11.939   7.371  3.8973  0.3778 -0.5651
  760MOL0     H 2556   7.833  12.088   7.520  0.3453  0.7635  1.1726
  760MOL0     H 2557   8.001  12.140   7.505  1.7952 -1.6180  0.1453
  760MOL0     H 2558   8.067  12.031   7.712 -0.7935 -1.8113  2.1682
  760MOL0     H 2559   7.906  11.957   7.725  1.6721 -2.4274 -0.2562
  760MOL0     H 2560   7.708  12.071   7.715  1.7992 -0.0356  0.5039
  760MOL0     H 2561   7.494  12.154   7.785  1.6196  0.5814 -2.6169
  760MOL0     H 2562   7.343  12.685   7.979  0.9076 -2.1566  0.0621
  760MOL0     H 2563   7.173  12.797   8.130  3.0198  0.5709  0.9292
  760MOL0     H 2564   6.970  12.530   8.459 -1.5450  0.8362  2.6928
  760MOL0     H 2565   7.125  12.607   8.497 -1.7777  0.2913  3.8868
  760MOL0     H 2566   6.937  12.694   8.632 -1.3506 -3.5330 -0.4693
  760MOL0     H 2567   7.004  12.817   8.528  0.5654  0.0242  0.7314
  760MOL0     H 2568   6.831  12.788   8.355  1.1819 -2.8085 -2.1135
  760MOL0     H 2569   6.764  12.647   8.424 -2.3321  1.4100 -1.8528
  760MOL0     H 2570   6.771  12.890   8.587  1.9630 -1.3500 -2.3732
  760MOL0     H 2571   6.691  12.735   8.627  0.8541 -3.9217 -1.6171
  760MOL0     H 2572   6.591  12.957   8.441  0.4989 -1.5055 -3.4811
  760MOL0     H 2573   6.496  12.857   8.548 -2.0735  2.3307 -2.3660
  760MOL0     H 2574   6.586  12.761   8.271 -0.5280  1.3265  0.2770
  760MOL0     H 2575   6.506  12.660   8.397 -0.3808  0.1240  1.5937
  760MOL0     H 2576   6.348  12.871   8.410 -3.0942 -2.4015  0.6863
  760MOL0     H 2577   6.319  12.729   8.301  1.4860 -0.5490 -0.8521
  760MOL0     H 2578   6.278  12.960   8.196 -1.3607 -0.7313  0.1268
  760MOL0     H 2579   6.443  12.993   8.213  0.0309  1.1193 -3.7522
  760MOL0     H 2580   7.130  12.421   8.336 -3.7578  0.8815 -2.8646
  760MOL0     H 2581   7.310  12.329   8.204  1.0854 -0.3962 -1.7673
  760MOL0     H 2582   7.686  12.399   8.077  1.0187 -0.9201  0.8840
  760MOL0     H 2583   7.919  12.325   7.985 -1.0710 -0.4321  4.5856
  760MOL0     H 2584   7.461  10.655   7.711 -1.1388 -2.0468  1.2991
  760MOL0     H 2585   7.411  10.533   7.933  0.5566  1.5480  3.2888
  760MOL0     H 2586   7.530  10.440   8.351  0.5156  1.7526  0.7535
  760MOL0     H 2587   7.599  10.381   8.587 -0.5196  1.3479 -0.6763
  760MOL0     H 2588   7.630  10.156   8.749  2.8266 -2.6888 -0.9792
  760MOL0     H 2589   7.669  10.337   8.789  0.0215  0.0848  1.2126
  760MOL0     H 2590   7.703  10.197   8.974  1.8894  1.3669  1.0967
  760MOL0     H 2591   7.858  10.268   8.915 -1.0748  2.1793  3.6931
  760MOL0     H 2592   7.909  10.052   8.808  0.5229  2.5288  1.2931
  760MOL0     H 2593   7.754   9.978   8.855 -0.2520 -0.8624 -1.8872
  760MOL0     H 2594   7.805   9.989   9.093 -2.2351  2.0136 -2.2779
  760MOL0     H 2595   7.933   9.895   9.012  2.3416  0.8126  2.6366
  760MOL0     H 2596   8.167  10.209   9.154 -1.2991  1.0587  0.5727
  760MOL0     H 2597   7.892  10.115   8.435 -1.2811 -1.4514 -2.0324
  760MOL0     H 2598   7.965  10.131   8.209 -1.3325  0.1973  2.4837
  760MOL0     H 2599   7.826  10.122   8.102 -2.0699  1.9444  0.6073
  760MOL0     H 2600   7.923  10.270   8.117  5.5241 -2.7353  0.7418
  761MOL0     O 2601   9.299   7.704  10.686 -0.7162 -0.5875 -0.1578
  761MOL0     C 2602   9.385   7.649  10.619 -0.6226  0.1846  0.4168
  761MOL0     O 2603   9.507   7.602  10.672  0.5767  1.1217  0.6354
  761MOL0     C 2604   9.538   7.644  10.799  0.5343 -0.1696  0.3142
  761MOL0     C 2605   9.531   7.563  10.911  0.2232 -0.9891  0.2718
  761MOL0     C 2606   9.553   7.612  11.039 -0.7183  0.3738  0.5086
  761MOL0     C 2607   9.595   7.743  11.062  0.2887  0.5079  0.5880
  761MOL0     O 2608   9.608   7.785  11.188 -0.2412  0.1010  0.5423
  761MOL0     C 2609   9.612   7.927  11.194 -0.9194 -0.5663 -0.2816
  761MOL0     C 2610   9.643   7.957  11.342  0.1879 -0.4198  0.7929
  761MOL0     C 2611   9.790   7.936  11.371 -0.2073  1.0550  0.2544
  761MOL0     C 2612   9.882   8.044  11.321  0.4144 -0.2047  0.0756
  761MOL0     C 2613  10.014   8.013  11.378 -0.4432 -0.0306 -0.4022
  761MOL0     C 2614  10.128   8.100  11.322  0.0125  0.3426 -0.0336
  761MOL0     C 2615  10.266   8.061  11.370  0.6151 -0.2875 -0.6099
  761MOL0     C 2616  10.308   8.161  11.476  0.4685 -0.0012 -0.7674
  761MOL0     N 2617  10.449   8.166  11.522 -0.5424 -0.9471 -0.8507
  761MOL0     C 2618  10.545   8.227  11.446 -0.1568  0.3846 -0.3719
  761MOL0     C 2619  10.659   8.214  11.513  0.2543  0.2368  0.1562
  761MOL0     C 2620  10.802   8.242  11.459  0.3214  0.1706 -0.7205
  761MOL0     C 2621  10.858   8.118  11.398  1.0279 -0.2822  0.1255
  761MOL0     C 2622  11.003   8.167  11.345  0.5895  0.9909 -1.2811
  761MOL0     C 2623  11.079   8.041  11.284 -0.3315 -0.2728  0.3094
  761MOL0     O 2624  11.017   8.025  11.152 -0.8588  0.2123  0.7116
  761MOL0     C 2625  11.081   8.081  11.039  1.1267 -0.0288  0.1603
  761MOL0     C 2626  11.022   8.064  10.914 -0.9513 -0.1788  0.1609
  761MOL0     C 2627  11.081   8.119  10.800  0.5795 -0.2589 -1.1957
  761MOL0     C 2628  11.192   8.201  10.808  0.5816  0.4173  0.5004
  761MOL0     C 2629  11.245   8.281  10.685 -0.6902 -0.3182  0.3938
  761MOL0     O 2630  11.200   8.246  10.567 -0.6420  0.1774 -0.9506
  761MOL0     C 2631  11.199   8.347  10.471  0.1747  0.3986 -0.1077
  761MOL0     C 2632  11.196   8.493  10.495 -0.0850  0.1452 -0.3675
  761MOL0     C 2633  11.185   8.580  10.383  0.1672 -0.0893 -0.0683
  761MOL0     C 2634  11.189   8.532  10.255  0.0609 -0.0024  0.7066
  761MOL0     O 2635  11.201   8.618  10.142 -0.3981 -0.0818  0.6419
  761MOL0     C 2636  11.319   8.609  10.052  0.7018 -0.0164 -0.4299
  761MOL0     C 2637  11.273   8.611   9.903 -0.1397 -0.3575 -0.8504
  761MOL0     C 2638  11.255   8.467   9.846 -0.2969 -0.2283 -0.2296
  761MOL0     C 2639  11.191   8.459   9.709 -0.4049 -0.1316 -0.2424
  761MOL0     C 2640  11.210   8.318   9.648 -0.4125 -1.0219 -0.9743
  761MOL0     C 2641  11.137   8.294   9.516 -0.1102 -0.3273  0.8529
  761MOL0     C 2642  11.147   8.153   9.448  0.7002  0.3754 -0.4358
  761MOL0     C 2643  11.071   8.058   9.541  0.0810  0.3474  0.6676
  761MOL0    Cl 2644  10.899   8.067   9.501  0.3775 -0.4108 -0.0977
  761MOL0     C 2645  11.183   8.396  10.239 -0.2047 -0.3907 -0.3608
  761MOL0     C 2646  11.179   8.309  10.343 -0.0189 -0.6712  0.9873
  761MOL0     O 2647  11.341   8.360  10.708  0.8020  0.3121 -0.1566
  761MOL0     C 2648  11.245   8.215  10.932  0.3824 -0.1688 -0.8308
  761MOL0     C 2649  11.187   8.168  11.051 -0.0868  0.5352  0.3884
  761MOL0     N 2650  10.628   8.156  11.639 -1.0306  0.2678 -0.5555
  761MOL0     N 2651  10.503   8.126  11.642  0.8874 -0.7986 -0.2239
  761MOL0     C 2652   9.619   7.821  10.942  0.3775  0.4220 -0.2341
  761MOL0     C 2653   9.582   7.774  10.814 -0.0268  0.5540 -0.0730
  761MOL0     C 2654   9.341   7.603  10.489  0.1369 -1.5660 -0.2800
  761MOL0     C 2655   9.207   7.637  10.439  0.3328  0.5977 -0.3057
  761MOL0     C 2656   9.159   7.593  10.319  0.2081 -0.3128 -0.3942
  761MOL0     C 2657   9.239   7.525  10.227  0.0860 -1.0081  0.8657
  761MOL0     O 2658   9.194   7.509  10.093  0.1664  0.4983  0.3031
  761MOL0     C 2659   9.267   7.417  10.013  0.7125  0.2994  0.7045
  761MOL0     C 2660   9.189   7.353   9.893  0.4513 -0.2056  0.5467
  761MOL0     C 2661   9.166   7.466   9.786 -0.5158 -0.3590  0.2192
  761MOL0     C 2662   9.064   7.416   9.681 -0.7009  0.6606 -0.5770
  761MOL0     C 2663   9.034   7.532   9.594  0.1940  0.2509 -0.0174
  761MOL0     C 2664   9.009   7.631   9.533  1.1961 -0.6697  0.5615
  761MOL0     C 2665   9.365   7.485  10.274  0.4758 -0.4275 -0.2309
  761MOL0     C 2666   9.414   7.520  10.402 -0.2160 -0.5330 -0.2133
  761MOL0     C 2667   9.550   7.480  10.430  0.1329 -0.3893  0.5202
  761MOL0     H 2668   9.509   7.457  10.903 -0.9353 -0.8959  1.6548
  761MOL0     H 2669   9.542   7.539  11.119  1.1682 -1.9777 -1.2298
  761MOL0     H 2670   9.699   7.972  11.144  0.1290 -3.0703 -0.9061
  761MOL0     H 2671   9.519   7.976  11.163 -0.1537  1.2819  0.2295
  761MOL0     H 2672   9.574   7.910  11.413 -0.3178 -1.7010 -0.4873
  761MOL0     H 2673   9.632   8.065  11.353 -1.1101 -0.1190 -2.3371
  761MOL0     H 2674   9.825   7.848  11.316 -1.7172  0.6828 -0.1669
  761MOL0     H 2675   9.815   7.920  11.476  1.3767 -1.1031 -0.3989
  761MOL0     H 2676   9.892   8.030  11.213  2.1954 -2.8464  0.4634
  761MOL0     H 2677   9.841   8.142  11.347 -4.0465 -1.4621 -1.2113
  761MOL0     H 2678  10.009   8.017  11.487 -2.0157 -0.5054 -0.4395
  761MOL0     H 2679  10.046   7.912  11.350  2.6078  0.5578  0.5673
  761MOL0     H 2680  10.131   8.098  11.213  1.7797  0.3644 -0.0210
  761MOL0     H 2681  10.118   8.205  11.351  0.6005  0.1703  0.8611
  761MOL0     H 2682  10.326   8.052  11.278 -1.1696 -1.9812 -1.7126
  761MOL0     H 2683  10.277   7.963  11.418  1.1864 -0.5759 -1.2941
  761MOL0     H 2684  10.288   8.257  11.428 -0.8778  0.3820  0.4886
  761MOL0     H 2685  10.243   8.142  11.562  1.3314 -3.6034 -0.7466
  761MOL0     H 2686  10.520   8.278  11.354 -0.0533  1.3986  0.1531
  761MOL0     H 2687  10.805   8.333  11.398  2.1542  0.4892 -0.2247
  761MOL0     H 2688  10.876   8.262  11.537 -0.2209  0.4742 -0.2831
  761MOL0     H 2689  10.869   8.042  11.477  1.0138 -1.3245 -0.8518
  761MOL0     H 2690  10.794   8.075  11.320  1.2683 -3.3507  1.4687
  761MOL0     H 2691  11.054   8.189  11.440 -1.9261 -2.1203  1.0346
  761MOL0     H 2692  10.995   8.260  11.287 -2.9811  2.1029  0.6912
  761MOL0     H 2693  11.051   7.966  11.359 -2.2162 -1.6883 -1.6656
  761MOL0     H 2694  11.188   8.040  11.273 -0.3512 -0.7595  0.1047
  761MOL0     H 2695  10.929   8.009  10.903 -1.6165  0.8205  0.6192
  761MOL0     H 2696  11.023   8.092  10.712 -0.2849 -4.8939  0.5222
  761MOL0     H 2697  11.208   8.530  10.596 -0.4682 -0.3943 -0.1187
  761MOL0     H 2698  11.201   8.687  10.396 -0.3299 -0.2354  2.0530
  761MOL0     H 2699  11.383   8.691  10.086 -0.1849  0.5568 -0.1218
  761MOL0     H 2700  11.378   8.521  10.082  1.1369  0.3965 -0.0642
  761MOL0     H 2701  11.175   8.660   9.903 -0.5909 -1.2308 -0.1603
  761MOL0     H 2702  11.347   8.670   9.848  2.9233 -1.8642  1.3989
  761MOL0     H 2703  11.355   8.423   9.839  2.2732  4.2471  3.2067
  761MOL0     H 2704  11.207   8.395   9.913 -1.3471  0.0516 -0.6627
  761MOL0     H 2705  11.232   8.532   9.639  1.6442 -0.1063  0.9159
  761MOL0     H 2706  11.087   8.493   9.716 -0.4095 -0.5425  3.0533
  761MOL0     H 2707  11.168   8.253   9.726 -2.0751 -0.0079 -0.9865
  761MOL0     H 2708  11.313   8.284   9.635  0.2353 -0.7205  2.3765
  761MOL0     H 2709  11.031   8.321   9.517 -0.4071 -1.3169 -0.4446
  761MOL0     H 2710  11.188   8.358   9.443  0.1545 -1.5581 -0.0616
  761MOL0     H 2711  11.251   8.122   9.460  0.4004 -0.5103 -0.0953
  761MOL0     H 2712  11.110   8.146   9.345 -2.9008  0.0423  0.7337
  761MOL0     H 2713  11.111   7.957   9.534  0.0856  0.1793  2.6441
  761MOL0     H 2714  11.081   8.089   9.646  0.1282 -0.6008  0.9500
  761MOL0     H 2715  11.189   8.365  10.135  0.6706 -0.3065 -0.3409
  761MOL0     H 2716  11.178   8.204  10.315  1.5028 -0.0783 -1.7183
  761MOL0     H 2717  11.338   8.268  10.951  0.9117  0.1221 -3.7675
  761MOL0     H 2718  11.230   8.203  11.144  0.7407  1.7320 -0.4165
  761MOL0     H 2719   9.658   7.922  10.935  0.5215  0.3313 -0.7289
  761MOL0     H 2720   9.586   7.840  10.729  0.8733 -0.6837 -1.0336
  761MOL0     H 2721   9.132   7.688  10.499  0.5997 -1.2215  1.7054
  761MOL0     H 2722   9.065   7.629  10.279  0.3220  0.9380  0.3938
  761MOL0     H 2723   9.299   7.336  10.080  2.0663  2.9923  3.5484
  761MOL0     H 2724   9.352   7.478   9.981  0.4961  0.1506 -0.1789
  761MOL0     H 2725   9.091   7.314   9.922 -0.2513  1.1724  0.1125
  761MOL0     H 2726   9.236   7.274   9.833  2.0980  1.9500 -1.1823
  761MOL0     H 2727   9.261   7.494   9.739 -0.3826 -0.9340  0.1332
  761MOL0     H 2728   9.130   7.556   9.837 -1.2542 -0.3353 -0.3280
  761MOL0     H 2729   9.090   7.329   9.621  0.1649  0.8524 -0.4968
  761MOL0     H 2730   8.971   7.385   9.729 -0.6221  0.1781 -0.7359
  761MOL0     H 2731   8.979   7.721   9.483  0.5454  0.2293  2.4783
  761MOL0     H 2732   9.433   7.423  10.217 -0.1972 -0.6558 -0.7912
  761MOL0     H 2733   9.611   7.566  10.457  1.7517 -1.4822  0.5091
  761MOL0     H 2734   9.553   7.407  10.512 -2.4898 -1.3412 -0.1293
  761MOL0     H 2735   9.598   7.432  10.344  1.1528  0.2072  0.7529
  762MOL0     O 2736   4.380   1.357   2.540  0.8328 -0.1711 -0.2752
  762MOL0     C 2737   4.364   1.301   2.645  0.1842 -0.5578 -0.6045
  762MOL0     O 2738   4.338   1.360   2.767 -0.5365  0.1864  0.6269
  762MOL0     C 2739   4.296   1.487   2.773 -0.2495  0.1758 -1.1968
  762MOL0     C 2740   4.344   1.571   2.868 -0.3390 -1.0356 -0.1703
  762MOL0     C 2741   4.287   1.692   2.903  0.0551  0.2801  0.0768
  762MOL0     C 2742   4.178   1.743   2.838 -0.0853 -0.7644 -0.1505
  762MOL0     O 2743   4.139   1.873   2.866 -0.4324  0.0637 -0.7723
  762MOL0     C 2744   4.051   1.933   2.774  0.2078 -0.1670  0.5773
  762MOL0     C 2745   3.908   1.927   2.820  0.5447 -0.1391 -0.7595
  762MOL0     C 2746   3.806   2.020   2.757 -0.4032 -0.8125 -0.3255
  762MOL0     C 2747   3.846   2.168   2.773  0.6760 -1.0029 -0.0232
  762MOL0     C 2748   3.743   2.270   2.712 -0.2148 -0.1284 -0.0371
  762MOL0     C 2749   3.634   2.288   2.818 -0.1905 -0.1039  0.1679
  762MOL0     C 2750   3.515   2.384   2.771  1.5994  0.3979  0.0042
  762MOL0     C 2751   3.444   2.336   2.635  0.1751 -0.5867 -0.5970
  762MOL0     N 2752   3.353   2.233   2.653 -0.0943  0.1299 -0.4725
  762MOL0     C 2753   3.232   2.215   2.582  0.8505 -0.5171  0.2682
  762MOL0     C 2754   3.209   2.079   2.590 -0.1389 -0.1063  0.8962
  762MOL0     C 2755   3.113   2.001   2.506 -0.2201  0.2804  0.7966
  762MOL0     C 2756   3.160   1.980   2.369 -0.7421  0.6576 -0.1640
  762MOL0     C 2757   3.069   1.884   2.282 -0.0162 -0.1708 -0.1376
  762MOL0     C 2758   2.924   1.932   2.274  0.1153 -0.0039 -0.2158
  762MOL0     O 2759   2.920   2.064   2.220 -0.6671  0.8541  0.2674
  762MOL0     C 2760   2.815   2.143   2.252  0.3540 -0.4178  0.5008
  762MOL0     C 2761   2.831   2.278   2.273 -0.3592 -0.4377 -0.5902
  762MOL0     C 2762   2.731   2.368   2.303  0.5524 -0.2006  0.7629
  762MOL0     C 2763   2.598   2.322   2.337  0.5245  0.4019 -0.3804
  762MOL0     C 2764   2.489   2.426   2.369 -0.0076 -0.2423 -0.3874
  762MOL0     O 2765   2.515   2.559   2.349 -0.4330 -0.2401  0.4129
  762MOL0     C 2766   2.413   2.658   2.343 -0.8349  1.2095 -0.9913
  762MOL0     C 2767   2.293   2.640   2.275  0.3775 -0.4176 -0.3861
  762MOL0     C 2768   2.204   2.745   2.248 -0.7195  0.7988  0.0877
  762MOL0     C 2769   2.224   2.859   2.319 -1.2526  0.2789  0.0425
  762MOL0     O 2770   2.124   2.947   2.316  0.2985 -0.2578  0.4831
  762MOL0     C 2771   2.094   3.013   2.187 -0.5981 -0.4650  0.6842
  762MOL0     C 2772   1.983   3.118   2.200 -0.1456 -0.2201 -1.0049
  762MOL0     C 2773   1.962   3.157   2.343 -0.6278  0.2107 -0.5734
  762MOL0     C 2774   1.858   3.272   2.337  0.5940  1.6548 -0.0945
  762MOL0     C 2775   1.838   3.340   2.464 -0.4007 -0.8612  0.1776
  762MOL0     C 2776   1.712   3.430   2.460 -0.6342 -0.3924 -0.3180
  762MOL0     C 2777   1.706   3.522   2.584 -0.0167 -0.8884  0.4767
  762MOL0     C 2778   1.575   3.557   2.654 -0.4430  0.9134 -0.5009
  762MOL0    Cl 2779   1.522   3.423   2.766  0.3185 -0.1321 -0.1028
  762MOL0     C 2780   2.347   2.883   2.380  0.4686 -0.3604 -0.1412
  762MOL0     C 2781   2.447   2.783   2.392 -0.2589  0.6858  0.0430
  762MOL0     O 2782   2.386   2.376   2.404  0.5190 -0.1668  0.0621
  762MOL0     C 2783   2.582   2.182   2.323  0.8609  0.1544  0.6755
  762MOL0     C 2784   2.686   2.097   2.285 -0.0189 -0.3011 -0.2335
  762MOL0     N 2785   3.320   2.020   2.639  0.0314  0.9029 -0.5223
  762MOL0     N 2786   3.394   2.110   2.691 -0.2040  0.1247 -0.4144
  762MOL0     C 2787   4.110   1.656   2.750  0.9141  0.1707  0.4981
  762MOL0     C 2788   4.171   1.531   2.712 -0.1275  0.0780 -0.2971
  762MOL0     C 2789   4.407   1.153   2.629  0.7632 -0.3886  0.3821
  762MOL0     C 2790   4.430   1.093   2.505 -1.1096  0.1351  0.1168
  762MOL0     C 2791   4.489   0.961   2.491  0.3027 -0.6287 -0.7655
  762MOL0     C 2792   4.496   0.878   2.597  0.3796  0.2808 -0.6163
  762MOL0     O 2793   4.532   0.751   2.577  0.4194 -0.1504  0.0898
  762MOL0     C 2794   4.675   0.745   2.555  0.0310 -0.0894 -0.3098
  762MOL0     C 2795   4.724   0.621   2.635  0.4254  1.5765  0.1733
  762MOL0     C 2796   4.694   0.495   2.547  0.5022 -0.4328  0.5058
  762MOL0     C 2797   4.700   0.364   2.641 -0.0692  0.3337 -0.4294
  762MOL0     C 2798   4.591   0.364   2.742  0.9731  0.3101  0.2785
  762MOL0     C 2799   4.513   0.335   2.829  0.2126  0.0281 -0.1037
  762MOL0     C 2800   4.461   0.931   2.720  0.2157  0.2729  0.2434
  762MOL0     C 2801   4.438   1.068   2.742 -0.5500 -0.3651 -0.4081
  762MOL0     C 2802   4.404   1.109   2.876  0.1250  0.0044  0.5782
  762MOL0     H 2803   4.423   1.529   2.930  0.6206 -0.8480 -1.2235
  762MOL0     H 2804   4.333   1.767   2.966  1.4120  2.5758 -3.3430
  762MOL0     H 2805   4.084   2.037   2.765  1.7257 -0.3037  3.3769
  762MOL0     H 2806   4.052   1.890   2.673  2.7669 -1.2240  0.9527
  762MOL0     H 2807   3.899   1.966   2.922  1.8744  3.3503 -1.8420
  762MOL0     H 2808   3.876   1.823   2.824 -1.4885  0.4755  1.0057
  762MOL0     H 2809   3.706   2.011   2.801 -0.3955 -0.8299 -0.3117
  762MOL0     H 2810   3.796   1.986   2.654  0.9081 -1.1315 -0.3689
  762MOL0     H 2811   3.858   2.199   2.877  3.6610 -0.2021 -0.5195
  762MOL0     H 2812   3.944   2.178   2.724  1.4616 -1.0007  1.5037
  762MOL0     H 2813   3.793   2.365   2.690 -0.6219  0.6206  2.0870
  762MOL0     H 2814   3.713   2.224   2.617  6.6546  0.4093 -3.1287
  762MOL0     H 2815   3.592   2.196   2.860  0.4833 -0.2788  0.4801
  762MOL0     H 2816   3.687   2.328   2.905 -1.4007  2.1727 -0.0602
  762MOL0     H 2817   3.544   2.489   2.762 -0.4453  0.9111 -1.1784
  762MOL0     H 2818   3.433   2.394   2.842  1.9704  2.8632  0.1580
  762MOL0     H 2819   3.398   2.423   2.587  2.0217  2.4513  2.6351
  762MOL0     H 2820   3.525   2.313   2.565  2.4090 -1.0115  1.9184
  762MOL0     H 2821   3.181   2.291   2.524  0.5478  1.2157  2.6359
  762MOL0     H 2822   3.084   1.912   2.562  0.5769 -1.5144 -1.4751
  762MOL0     H 2823   3.021   2.060   2.500 -1.0509 -0.9407  1.3882
  762MOL0     H 2824   3.172   2.081   2.329  1.5105 -0.1202 -1.6339
  762MOL0     H 2825   3.260   1.936   2.366  1.4963  5.0038  1.8614
  762MOL0     H 2826   3.090   1.788   2.329  0.2933 -0.0350  0.0080
  762MOL0     H 2827   3.102   1.872   2.178 -1.6848  3.0921 -1.2044
  762MOL0     H 2828   2.882   1.917   2.373 -0.8690 -1.6563 -0.8545
  762MOL0     H 2829   2.870   1.860   2.212 -1.9813  0.6478  0.7797
  762MOL0     H 2830   2.932   2.316   2.268  0.8430 -1.3969  6.3014
  762MOL0     H 2831   2.748   2.475   2.306  3.4137 -0.4693 -1.5482
  762MOL0     H 2832   2.257   2.549   2.228 -1.5759  0.7339 -1.2391
  762MOL0     H 2833   2.104   2.731   2.207 -1.2134 -1.1559  1.8141
  762MOL0     H 2834   2.189   3.058   2.158  0.6283 -2.5245  1.2956
  762MOL0     H 2835   2.048   2.946   2.114 -1.5260  1.5175 -0.6463
  762MOL0     H 2836   2.003   3.207   2.139 -1.1339 -0.3323 -1.5332
  762MOL0     H 2837   1.897   3.083   2.141 -3.4387  2.6269  1.6333
  762MOL0     H 2838   1.914   3.076   2.398  3.0634  0.2897  3.2961
  762MOL0     H 2839   2.054   3.185   2.395 -1.5466  0.2307  1.1331
  762MOL0     H 2840   1.765   3.225   2.301  0.6022  2.4286 -1.1763
  762MOL0     H 2841   1.887   3.353   2.269  3.0184  2.2303  1.5033
  762MOL0     H 2842   1.919   3.404   2.501 -2.2235 -0.1360  3.2169
  762MOL0     H 2843   1.824   3.281   2.555  2.2530  0.8838  1.8647
  762MOL0     H 2844   1.711   3.495   2.372  2.4611  2.7046  1.6882
  762MOL0     H 2845   1.628   3.360   2.451  0.4291 -2.0478  1.6589
  762MOL0     H 2846   1.741   3.619   2.547  1.2985 -0.7928  1.8744
  762MOL0     H 2847   1.774   3.481   2.659  1.5276 -2.5599 -1.7094
  762MOL0     H 2848   1.595   3.641   2.721  0.5131 -1.7036  2.7452
  762MOL0     H 2849   1.491   3.588   2.590  1.7685  3.9417 -2.2211
  762MOL0     H 2850   2.364   2.985   2.414 -0.2453  0.2290 -1.4710
  762MOL0     H 2851   2.536   2.806   2.449  0.2658 -0.9965 -0.0506
  762MOL0     H 2852   2.481   2.143   2.335  1.6073 -1.6284  1.4409
  762MOL0     H 2853   2.663   1.997   2.250  2.0682  0.4256 -4.2655
  762MOL0     H 2854   4.021   1.684   2.694  0.8655  0.4818  0.7268
  762MOL0     H 2855   4.109   1.464   2.653 -0.7128  1.4696 -1.3418
  762MOL0     H 2856   4.421   1.131   2.403 -1.8565 -1.7063 -0.5534
  762MOL0     H 2857   4.535   0.917   2.403 -1.8344  0.3079 -2.4721
  762MOL0     H 2858   4.731   0.834   2.584  0.4677 -0.3233 -0.4244
  762MOL0     H 2859   4.697   0.733   2.448 -1.7291 -2.2148 -0.5103
  762MOL0     H 2860   4.675   0.624   2.734 -1.4784  4.6175 -0.7010
  762MOL0     H 2861   4.832   0.618   2.652  0.3482 -0.2274  0.5110
  762MOL0     H 2862   4.755   0.489   2.457 -0.3826 -1.5268 -0.0382
  762MOL0     H 2863   4.587   0.489   2.525  0.4831 -1.9630  0.8585
  762MOL0     H 2864   4.706   0.266   2.593  0.9867 -0.4139  1.1249
  762MOL0     H 2865   4.791   0.356   2.701 -1.5694 -1.5945  1.7750
  762MOL0     H 2866   4.435   0.302   2.895  1.8397  0.4373  2.1010
  762MOL0     H 2867   4.444   0.856   2.796  0.3984  1.2897  1.3235
  762MOL0     H 2868   4.437   1.043   2.957 -1.4172 -2.2711 -0.5479
  762MOL0     H 2869   4.465   1.200   2.874  1.1808 -0.6268  2.1957
  762MOL0     H 2870   4.298   1.130   2.897  0.3900 -1.1881  3.5972
  763MOL0     O 2871   6.002   9.083  10.532 -0.5111  0.3126 -0.6523
  763MOL0     C 2872   6.017   9.108  10.408  0.6159 -0.8407 -1.1617
  763MOL0     O 2873   5.972   9.219  10.336 -0.5233  0.2807 -0.3075
  763MOL0     C 2874   5.906   9.318  10.400 -0.3944  0.7580  0.3083
  763MOL0     C 2875   5.841   9.403  10.310 -0.6886 -0.6421 -0.7379
  763MOL0     C 2876   5.746   9.497  10.358 -0.5268 -1.1568  0.4372
  763MOL0     C 2877   5.743   9.533  10.492 -0.9124 -0.4156  0.3931
  763MOL0     O 2878   5.663   9.639  10.541 -1.1669  0.4835 -0.6996
  763MOL0     C 2879   5.550   9.678  10.461  0.0004  0.5565 -0.2323
  763MOL0     C 2880   5.476   9.789  10.522  0.4975 -0.5905  0.1971
  763MOL0     C 2881   5.337   9.811  10.452  0.2967  0.2978  0.1840
  763MOL0     C 2882   5.227   9.861  10.553 -0.5640 -0.8426  0.7383
  763MOL0     C 2883   5.254  10.008  10.585  0.8269 -0.0968  0.0173
  763MOL0     C 2884   5.178  10.061  10.716 -0.0938  0.2849 -0.3310
  763MOL0     C 2885   5.082  10.180  10.689  0.0328  0.2710  0.2672
  763MOL0     C 2886   5.007  10.213  10.810  1.0454 -0.3038  1.1840
  763MOL0     N 2887   5.080  10.300  10.909  0.0688 -0.8357  0.4070
  763MOL0     C 2888   5.056  10.304  11.051 -1.3497 -0.8655  0.0504
  763MOL0     C 2889   5.149  10.390  11.100  0.5079  1.0578  0.2644
  763MOL0     C 2890   5.170  10.427  11.250  0.1189  1.0249 -0.3034
  763MOL0     C 2891   5.096  10.561  11.271  0.3827 -0.9878  1.0633
  763MOL0     C 2892   4.944  10.539  11.282 -0.0372 -0.0374  0.0966
  763MOL0     C 2893   4.864  10.654  11.339  0.2539 -0.5791 -0.3202
  763MOL0     O 2894   4.879  10.660  11.479 -0.6266 -1.4524 -0.2423
  763MOL0     C 2895   4.796  10.733  11.563 -0.2487  0.2840  0.0780
  763MOL0     C 2896   4.657  10.716  11.561  1.2242 -0.1120 -0.3362
  763MOL0     C 2897   4.580  10.781  11.655 -0.3955  0.3858 -0.9907
  763MOL0     C 2898   4.639  10.870  11.751 -0.4653  0.4738 -1.1309
  763MOL0     C 2899   4.558  10.973  11.819  0.1751  0.9437  0.2929
  763MOL0     O 2900   4.422  10.987  11.775 -0.8608  0.2868  0.5858
  763MOL0     C 2901   4.343  11.095  11.807  1.3176  0.5963 -0.1411
  763MOL0     C 2902   4.316  11.144  11.934  0.0073 -0.6606  0.4068
  763MOL0     C 2903   4.216  11.239  11.962  0.0968  0.2540 -0.5082
  763MOL0     C 2904   4.140  11.291  11.863 -0.4559  0.3949  1.0092
  763MOL0     O 2905   4.052  11.384  11.908  0.2310 -0.0317  0.1911
  763MOL0     C 2906   3.963  11.445  11.810 -0.7486  0.2062 -0.3685
  763MOL0     C 2907   3.869  11.531  11.878 -0.1744 -0.9045  0.3461
  763MOL0     C 2908   3.934  11.646  11.955  0.7048  0.2948  1.0124
  763MOL0     C 2909   3.921  11.780  11.877  0.0135 -0.0003  0.3678
  763MOL0     C 2910   4.007  11.890  11.945 -0.0843  0.6053  0.1290
  763MOL0     C 2911   3.974  12.031  11.899 -0.6986 -0.2745 -0.3370
  763MOL0     C 2912   4.006  12.057  11.752  0.7695 -0.5151 -0.1711
  763MOL0     C 2913   3.962  12.193  11.705 -0.0225 -0.8523  0.0144
  763MOL0    Cl 2914   4.071  12.223  11.568 -0.0278  0.1633 -0.8382
  763MOL0     C 2915   4.164  11.244  11.731  0.7823  0.6259 -0.5471
  763MOL0     C 2916   4.256  11.138  11.712  0.6537 -0.5382 -0.0168
  763MOL0     O 2917   4.607  11.025  11.918 -0.5704  0.7492 -0.3892
  763MOL0     C 2918   4.773  10.861  11.766 -0.1371 -0.7412 -0.1054
  763MOL0     C 2919   4.852  10.792  11.678 -0.7038  0.2375 -0.5755
  763MOL0     N 2920   5.229  10.420  10.996 -0.1451 -0.1942  0.0330
  763MOL0     N 2921   5.191  10.369  10.887 -0.2485 -0.8427  0.4362
  763MOL0     C 2922   5.823   9.467  10.581 -0.4931  1.0388 -0.1433
  763MOL0     C 2923   5.915   9.366  10.535  0.3096 -0.2849 -0.6374
  763MOL0     C 2924   6.104   9.016  10.329 -0.5491 -0.4891  0.0793
  763MOL0     C 2925   6.176   9.082  10.227  0.0296  0.9831 -0.1604
  763MOL0     C 2926   6.259   9.002  10.148 -0.4696 -0.5032  0.0879
  763MOL0     C 2927   6.264   8.865  10.168  0.5235 -0.2748  0.3918
  763MOL0     O 2928   6.328   8.780  10.083 -0.7735 -0.1984  0.6107
  763MOL0     C 2929   6.468   8.821  10.082 -0.7513  0.3261 -0.5379
  763MOL0     C 2930   6.551   8.701  10.050  0.0979 -0.0023 -0.6558
  763MOL0     C 2931   6.573   8.619  10.180  0.2880  0.4239 -0.1666
  763MOL0     C 2932   6.666   8.498  10.155  0.1087 -0.0559  0.2701
  763MOL0     C 2933   6.664   8.409  10.272  0.8087 -0.2785 -0.5330
  763MOL0     C 2934   6.662   8.330  10.367  0.5522 -0.0409  0.4402
  763MOL0     C 2935   6.203   8.803  10.279 -0.3440 -0.3499 -0.5931
  763MOL0     C 2936   6.120   8.878  10.353  0.1527 -0.5201  0.1263
  763MOL0     C 2937   6.033   8.805  10.450 -0.1023 -0.5878 -0.4372
  763MOL0     H 2938   5.831   9.381  10.205 -2.2600  0.0456 -0.7665
  763MOL0     H 2939   5.680   9.540  10.283  1.5090 -1.8009 -1.8403
  763MOL0     H 2940   5.576   9.709  10.359 -1.6529  1.6139 -0.3808
  763MOL0     H 2941   5.481   9.593  10.466 -0.7363  1.1749  0.4757
  763MOL0     H 2942   5.543   9.875  10.526  0.1086 -0.2709 -0.0710
  763MOL0     H 2943   5.451   9.765  10.626 -2.2843 -3.0418 -0.9084
  763MOL0     H 2944   5.311   9.718  10.401 -1.6100 -0.1103  1.7819
  763MOL0     H 2945   5.352   9.887  10.374 -2.1532  1.6505  0.9284
  763MOL0     H 2946   5.127   9.883  10.513 -2.0320  0.4190  4.6432
  763MOL0     H 2947   5.210   9.796  10.640 -1.0612  0.4167  1.6048
  763MOL0     H 2948   5.359  10.037  10.590  0.4083  1.2923  1.9253
  763MOL0     H 2949   5.221  10.060  10.495 -0.0065 -0.2902  0.1958
  763MOL0     H 2950   5.138   9.971  10.763 -0.9710  0.6945 -0.2667
  763MOL0     H 2951   5.257  10.101  10.780  1.0998 -2.2948 -0.0939
  763MOL0     H 2952   5.019  10.142  10.608 -0.2770  0.8416  0.2358
  763MOL0     H 2953   5.132  10.271  10.654 -0.5072  0.2566 -0.5627
  763MOL0     H 2954   4.918  10.272  10.788  1.2305 -1.0871 -2.1132
  763MOL0     H 2955   4.986  10.119  10.861  3.0960 -0.0885  2.5598
  763MOL0     H 2956   4.983  10.252  11.111  0.1207 -0.5574  2.2029
  763MOL0     H 2957   5.128  10.348  11.311  2.2122  0.4274  0.4666
  763MOL0     H 2958   5.276  10.447  11.268  0.3511 -1.2876  1.3158
  763MOL0     H 2959   5.129  10.613  11.362 -0.3286  2.2409 -0.3577
  763MOL0     H 2960   5.118  10.628  11.187 -4.6839 -1.7819 -1.2734
  763MOL0     H 2961   4.926  10.444  11.333  1.6429 -1.4235 -1.7369
  763MOL0     H 2962   4.905  10.520  11.181 -0.2752  0.0602  0.1692
  763MOL0     H 2963   4.762  10.621  11.314 -0.9305  0.0335  3.1275
  763MOL0     H 2964   4.885  10.747  11.285 -1.2927  0.0636  0.1182
  763MOL0     H 2965   4.618  10.655  11.480  0.6005 -0.4443  0.1997
  763MOL0     H 2966   4.471  10.780  11.662 -0.7480  2.2142 -4.1634
  763MOL0     H 2967   4.373  11.105  12.018  1.6007  1.7997  0.5786
  763MOL0     H 2968   4.192  11.275  12.062  2.0701  2.3710 -0.7361
  763MOL0     H 2969   4.020  11.494  11.730  0.8481 -0.7243  0.1448
  763MOL0     H 2970   3.904  11.358  11.781 -2.7840  1.1962  0.6235
  763MOL0     H 2971   3.808  11.575  11.799  0.2683 -3.0954 -1.2916
  763MOL0     H 2972   3.815  11.465  11.947  0.1768 -2.3565 -0.7229
  763MOL0     H 2973   3.891  11.654  12.055 -0.9538  0.1434  0.3384
  763MOL0     H 2974   4.038  11.624  11.979  0.6396  0.4794  1.4780
  763MOL0     H 2975   3.815  11.807  11.872 -0.0046 -0.2558 -0.9738
  763MOL0     H 2976   3.946  11.770  11.771 -1.5488  0.9726 -0.1353
  763MOL0     H 2977   4.113  11.869  11.932  0.2522  2.3152 -0.2454
  763MOL0     H 2978   3.997  11.894  12.054 -2.3301  1.2381 -0.0360
  763MOL0     H 2979   3.874  12.064  11.927  0.0811  2.2364 -0.3216
  763MOL0     H 2980   4.037  12.100  11.955 -3.2587  0.4348  1.8451
  763MOL0     H 2981   3.948  11.990  11.688 -0.9396  1.2682 -0.5823
  763MOL0     H 2982   4.114  12.042  11.735  0.7181 -3.2228  1.3028
  763MOL0     H 2983   3.858  12.200  11.675 -0.2795 -0.6237  0.9305
  763MOL0     H 2984   3.976  12.272  11.779 -1.4629 -0.6904  0.1279
  763MOL0     H 2985   4.099  11.288  11.656  0.4933  0.0279 -0.6494
  763MOL0     H 2986   4.267  11.102  11.611 -2.1939  0.2826 -0.7258
  763MOL0     H 2987   4.820  10.913  11.849 -1.4915 -0.8268  0.7455
  763MOL0     H 2988   4.958  10.805  11.699 -1.6000  4.8607  2.4854
  763MOL0     H 2989   5.817   9.493  10.687  1.6424 -0.0082  0.2929
  763MOL0     H 2990   5.976   9.312  10.607 -0.1720 -0.3606 -0.2753
  763MOL0     H 2991   6.192   9.188  10.211  2.5742  0.8399  0.8890
  763MOL0     H 2992   6.321   9.040  10.068  0.1536 -0.4816  0.5684
  763MOL0     H 2993   6.507   8.864  10.174  2.7549  1.0127 -2.1660
  763MOL0     H 2994   6.482   8.892  10.000 -2.4906  0.2196 -0.9670
  763MOL0     H 2995   6.654   8.723  10.018  0.6022  0.7241  1.3741
  763MOL0     H 2996   6.494   8.642   9.977 -0.2459 -1.0977  0.4622
  763MOL0     H 2997   6.481   8.576  10.221  1.1955  0.0250  1.5857
  763MOL0     H 2998   6.622   8.674  10.261 -3.7838  0.8904  2.2534
  763MOL0     H 2999   6.620   8.451  10.068  1.6990  0.0673 -0.6633
  763MOL0     H 3000   6.766   8.527  10.122  0.0639 -2.9786 -3.0178
  763MOL0     H 3001   6.662   8.276  10.460  2.0773  1.0992  1.1439
  763MOL0     H 3002   6.214   8.697  10.302  1.9056 -0.0943 -0.2041
  763MOL0     H 3003   6.053   8.698  10.452 -0.1797 -0.6091 -0.7783
  763MOL0     H 3004   6.041   8.832  10.556  0.9339  1.8450 -1.0783
  763MOL0     H 3005   5.927   8.818  10.426 -0.3595  0.7680  1.2548
  764MOL0     O 3006   0.795   4.472  10.197 -0.5589  0.4751 -1.1433
  764MOL0     C 3007   0.680   4.505  10.198  0.4400 -0.7139 -0.7481
  764MOL0     O 3008   0.595   4.485  10.301  0.1323  0.1176 -0.5459
  764MOL0     C 3009   0.641   4.430  10.420 -0.5341  0.3546 -0.3937
  764MOL0     C 3010   0.761   4.469  10.485  0.8935  0.0127 -0.0040
  764MOL0     C 3011   0.810   4.404  10.595 -0.6028 -0.3176 -0.0697
  764MOL0     C 3012   0.741   4.291  10.649 -0.9682  0.4447  0.2120
  764MOL0     O 3013   0.782   4.236  10.768  0.4336  0.5569  0.7169
  764MOL0     C 3014   0.733   4.293  10.882  0.3661  0.4299  0.1773
  764MOL0     C 3015   0.837   4.257  10.989  0.2539  0.2337  0.9353
  764MOL0     C 3016   0.772   4.260  11.132 -1.1102 -0.6067  0.1573
  764MOL0     C 3017   0.854   4.216  11.252 -0.7818  0.3122  0.0430
  764MOL0     C 3018   0.775   4.225  11.389 -0.4451  0.3357  0.8034
  764MOL0     C 3019   0.717   4.362  11.426 -1.1630 -0.7381  0.0904
  764MOL0     C 3020   0.833   4.464  11.457  0.9666  0.1514 -0.2404
  764MOL0     C 3021   0.792   4.591  11.534  0.0519 -0.4318 -0.1205
  764MOL0     N 3022   0.902   4.681  11.573 -0.5996  0.6608  0.3525
  764MOL0     C 3023   0.959   4.755  11.477 -0.2461  0.0069 -0.4255
  764MOL0     C 3024   1.077   4.783  11.532  0.0341  0.4399  0.1000
  764MOL0     C 3025   1.177   4.884  11.487  0.2231 -0.1821  0.4255
  764MOL0     C 3026   1.231   4.853  11.346 -0.3756 -0.2600 -0.5318
  764MOL0     C 3027   1.286   4.986  11.293 -0.2199  0.6107  0.7238
  764MOL0     C 3028   1.318   4.980  11.146  0.4677 -0.2869 -0.9467
  764MOL0     O 3029   1.446   4.914  11.143 -0.9584 -0.0862  0.0379
  764MOL0     C 3030   1.549   4.989  11.192 -0.1316  0.2033 -0.0445
  764MOL0     C 3031   1.607   5.107  11.128 -1.2403 -0.8470  0.0991
  764MOL0     C 3032   1.734   5.169  11.156 -0.9352 -0.2534 -0.6577
  764MOL0     C 3033   1.807   5.104  11.260  0.6509 -1.1342  1.3952
  764MOL0     C 3034   1.944   5.154  11.294  0.0591  0.1548 -0.4173
  764MOL0     O 3035   1.999   5.257  11.221 -0.2515 -0.3244 -0.5615
  764MOL0     C 3036   2.132   5.281  11.227 -0.1935  0.0882  0.7945
  764MOL0     C 3037   2.199   5.369  11.307 -0.0834 -0.6191  0.3938
  764MOL0     C 3038   2.338   5.381  11.298 -0.1427  0.1707  0.4920
  764MOL0     C 3039   2.417   5.316  11.198  0.1995  0.6144 -0.0930
  764MOL0     O 3040   2.552   5.335  11.162 -0.2259  0.1479 -0.1987
  764MOL0     C 3041   2.581   5.472  11.114  1.2382 -0.1856 -0.5737
  764MOL0     C 3042   2.727   5.519  11.142  0.9384  0.2947 -0.7723
  764MOL0     C 3043   2.826   5.427  11.071 -0.2057  0.1944 -0.1852
  764MOL0     C 3044   2.964   5.486  11.102 -0.9670 -0.1558 -0.8282
  764MOL0     C 3045   3.085   5.397  11.064  0.8885 -1.0791 -0.2648
  764MOL0     C 3046   3.149   5.453  10.927  0.3868 -0.0599  0.2592
  764MOL0     C 3047   3.258   5.362  10.860  0.2607 -0.4184  0.9176
  764MOL0     C 3048   3.203   5.231  10.808  0.0659  0.8961 -0.1436
  764MOL0    Cl 3049   3.323   5.138  10.705  0.4316  0.4758  0.3729
  764MOL0     C 3050   2.349   5.228  11.117 -0.0085  0.2629 -0.6295
  764MOL0     C 3051   2.208   5.211  11.131  1.0888  0.4823  0.3148
  764MOL0     O 3052   2.001   5.086  11.381 -0.7497 -0.8876  0.4730
  764MOL0     C 3053   1.749   4.998  11.328 -0.5313  0.0016  0.3835
  764MOL0     C 3054   1.626   4.943  11.294  0.7581 -0.1187 -0.5456
  764MOL0     N 3055   1.093   4.735  11.660 -0.2291  0.4919 -0.1082
  764MOL0     N 3056   0.994   4.648  11.672 -0.0357 -0.7274  0.1210
  764MOL0     C 3057   0.635   4.245  10.579 -0.3214  0.0326 -0.8027
  764MOL0     C 3058   0.588   4.309  10.472  0.9258  0.3674 -0.1432
  764MOL0     C 3059   0.637   4.608  10.103 -0.1067  0.5148  0.2073
  764MOL0     C 3060   0.541   4.705  10.141 -0.3174  0.6319  0.4233
  764MOL0     C 3061   0.511   4.818  10.061 -0.1238 -0.2855  0.7793
  764MOL0     C 3062   0.576   4.845   9.942 -0.0672 -0.0887 -0.7530
  764MOL0     O 3063   0.545   4.963   9.877 -0.5666 -0.0697 -0.4864
  764MOL0     C 3064   0.545   4.950   9.731  0.6527 -0.1945  0.3219
  764MOL0     C 3065   0.424   5.019   9.683  0.0731  1.3599 -0.4340
  764MOL0     C 3066   0.410   5.172   9.726 -0.3122 -0.7264  0.1748
  764MOL0     C 3067   0.534   5.263   9.694  0.0434  0.6451  0.1761
  764MOL0     C 3068   0.501   5.401   9.722  1.2144  0.7038 -0.0380
  764MOL0     C 3069   0.476   5.515   9.741  0.8405 -0.2807  0.4522
  764MOL0     C 3070   0.676   4.762   9.907  0.3685  0.6980  0.3054
  764MOL0     C 3071   0.704   4.644   9.978 -0.0100 -0.2586 -0.6260
  764MOL0     C 3072   0.806   4.547   9.928 -0.0624 -0.0436 -0.2957
  764MOL0     H 3073   0.813   4.553  10.441 -0.0745  1.6486  1.8014
  764MOL0     H 3074   0.903   4.443  10.635 -1.1067  1.1444 -0.2682
  764MOL0     H 3075   0.718   4.400  10.869 -0.4456  0.3236  0.2239
  764MOL0     H 3076   0.640   4.238  10.896  1.5314 -1.7086  0.1245
  764MOL0     H 3077   0.919   4.328  10.975  1.3223 -1.4485 -2.5097
  764MOL0     H 3078   0.877   4.156  10.982  3.5833  1.2954  2.6324
  764MOL0     H 3079   0.680   4.201  11.133 -0.4855 -1.6025  0.4225
  764MOL0     H 3080   0.738   4.359  11.163  3.0700  0.9224  0.4225
  764MOL0     H 3081   0.878   4.110  11.246  2.6918  0.8560  1.7897
  764MOL0     H 3082   0.948   4.271  11.240 -2.3044  2.7725 -1.6180
  764MOL0     H 3083   0.699   4.146  11.379 -2.0378  1.8961 -0.0524
  764MOL0     H 3084   0.844   4.194  11.468 -2.5922 -0.3374  2.5000
  764MOL0     H 3085   0.656   4.394  11.340  0.6668 -1.5713 -1.5872
  764MOL0     H 3086   0.652   4.357  11.514  1.2641  2.0615  2.2235
  764MOL0     H 3087   0.866   4.504  11.361  0.5549 -0.2260 -0.5364
  764MOL0     H 3088   0.914   4.416  11.513 -1.5234  1.3441  5.1007
  764MOL0     H 3089   0.716   4.650  11.482  0.9592  2.5609  1.7224
  764MOL0     H 3090   0.750   4.559  11.630 -0.2695  2.1017  0.6465
  764MOL0     H 3091   0.934   4.782  11.374  4.0098  3.2585 -0.8756
  764MOL0     H 3092   1.132   4.984  11.488 -0.5531 -0.4457 -1.9134
  764MOL0     H 3093   1.262   4.890  11.556  1.3215  2.8651 -0.9766
  764MOL0     H 3094   1.304   4.773  11.360 -0.8707 -1.3112 -3.3152
  764MOL0     H 3095   1.156   4.815  11.276 -1.4347  0.7452  0.0218
  764MOL0     H 3096   1.363   5.032  11.356 -0.4415  1.9608  0.0620
  764MOL0     H 3097   1.201   5.055  11.292 -0.3461  0.5049  1.9863
  764MOL0     H 3098   1.322   5.077  11.094 -0.4781 -0.6097 -1.6419
  764MOL0     H 3099   1.245   4.916  11.097 -0.4731 -0.7969  1.0534
  764MOL0     H 3100   1.553   5.145  11.042 -3.8235 -2.0758  1.0623
  764MOL0     H 3101   1.775   5.255  11.103 -1.9920  1.1506  0.6960
  764MOL0     H 3102   2.150   5.435  11.377  1.3883  0.9440  0.0274
  764MOL0     H 3103   2.384   5.467  11.346  0.6149  1.5829 -2.4884
  764MOL0     H 3104   2.572   5.474  11.005  1.2026 -3.7608 -0.7354
  764MOL0     H 3105   2.510   5.547  11.150  0.0710 -1.7639  0.5234
  764MOL0     H 3106   2.741   5.622  11.107 -3.3777  0.7154 -1.7585
  764MOL0     H 3107   2.740   5.528  11.251 -3.5455 -0.3827 -0.0090
  764MOL0     H 3108   2.809   5.329  11.116  0.5196  1.1071  2.2361
  764MOL0     H 3109   2.806   5.420  10.963  2.3780 -3.3178 -0.6110
  764MOL0     H 3110   2.963   5.517  11.206  1.1705  4.0890 -1.8273
  764MOL0     H 3111   2.973   5.582  11.050  2.5487 -2.0627 -4.3080
  764MOL0     H 3112   3.051   5.298  11.033  0.7183 -0.8541 -0.7969
  764MOL0     H 3113   3.157   5.402  11.147 -0.0332 -1.0159  0.5488
  764MOL0     H 3114   3.069   5.456  10.853 -1.0768  0.4192  1.7872
  764MOL0     H 3115   3.195   5.549  10.951 -1.0741  0.4294  1.2618
  764MOL0     H 3116   3.343   5.356  10.928 -0.1762 -0.2367  1.4926
  764MOL0     H 3117   3.293   5.413  10.770  0.1486  0.0625  1.1429
  764MOL0     H 3118   3.159   5.174  10.890  0.1897  0.5108 -0.3409
  764MOL0     H 3119   3.117   5.254  10.745  0.7700 -3.1946 -2.9926
  764MOL0     H 3120   2.401   5.175  11.038 -0.8059 -3.3095  1.0400
  764MOL0     H 3121   2.154   5.157  11.054  0.7247  1.3343 -0.0304
  764MOL0     H 3122   1.800   4.952  11.412  0.0433  2.4160  1.4339
  764MOL0     H 3123   1.594   4.855  11.349 -4.1819 -0.0284 -2.7366
  764MOL0     H 3124   0.589   4.155  10.619  0.1728  0.0521 -0.1778
  764MOL0     H 3125   0.506   4.266  10.416 -0.0067 -1.4581  2.4221
  764MOL0     H 3126   0.468   4.689  10.219  0.6662 -1.5156  0.9713
  764MOL0     H 3127   0.450   4.893  10.109 -1.1478 -1.9747  2.2643
  764MOL0     H 3128   0.551   4.847   9.695 -0.8483 -2.0875  4.7701
  764MOL0     H 3129   0.626   5.005   9.683  0.7887 -1.8510 -1.4221
  764MOL0     H 3130   0.335   4.967   9.721  0.5414 -0.8103 -2.0998
  764MOL0     H 3131   0.423   5.022   9.574 -1.3624  2.2049 -0.4167
  764MOL0     H 3132   0.386   5.170   9.833 -1.7464  0.2613 -0.1061
  764MOL0     H 3133   0.325   5.203   9.664  0.5390  0.1484 -0.5800
  764MOL0     H 3134   0.621   5.232   9.752 -0.5303  0.2067  0.8115
  764MOL0     H 3135   0.551   5.257   9.586 -1.7915  1.1071 -0.1675
  764MOL0     H 3136   0.455   5.620   9.754  1.3686 -0.2702  1.3358
  764MOL0     H 3137   0.727   4.775   9.812 -2.1263  0.2587 -1.1801
  764MOL0     H 3138   0.845   4.578   9.831  2.6742 -0.8016  0.4683
  764MOL0     H 3139   0.892   4.557   9.994  1.2542  0.8741 -2.0789
  764MOL0     H 3140   0.782   4.441   9.934  0.5349 -0.1955 -0.5399
  765MOL0     O 3141   8.276   3.249   2.975  0.3892 -0.8160 -0.0998
  765MOL0     C 3142   8.224   3.150   2.916  0.2586 -0.1668  0.0760
  765MOL0     O 3143   8.110   3.083   2.964 -0.2641 -0.6654 -0.7644
  765MOL0     C 3144   8.059   3.114   3.086 -0.1807  0.1898 -0.4754
  765MOL0     C 3145   7.986   3.231   3.114  0.3498  0.3879 -0.3322
  765MOL0     C 3146   7.940   3.266   3.242 -0.1750  0.1153 -0.0924
  765MOL0     C 3147   7.965   3.174   3.349 -0.2710 -0.4137 -0.3432
  765MOL0     O 3148   7.941   3.209   3.480  0.4607 -0.0978 -0.2423
  765MOL0     C 3149   7.828   3.280   3.529 -0.1591  0.8088 -0.3746
  765MOL0     C 3150   7.869   3.334   3.657 -0.0009  0.3092  0.6378
  765MOL0     C 3151   7.772   3.443   3.714 -1.4076  1.0935 -0.7318
  765MOL0     C 3152   7.821   3.485   3.849  0.8359 -0.0911  0.0746
  765MOL0     C 3153   7.753   3.619   3.892 -0.8325 -0.9182 -0.9705
  765MOL0     C 3154   7.811   3.705   4.004 -0.4317  0.2385 -0.3673
  765MOL0     C 3155   7.846   3.634   4.138  0.7538 -0.0431  0.6658
  765MOL0     C 3156   7.717   3.575   4.200 -0.0279 -0.9680  0.1053
  765MOL0     N 3157   7.739   3.529   4.340 -0.1944 -0.6836 -0.4177
  765MOL0     C 3158   7.820   3.427   4.374 -0.1496  0.0049  0.3287
  765MOL0     C 3159   7.821   3.412   4.511 -0.3049  0.3936  0.1608
  765MOL0     C 3160   7.899   3.320   4.602 -0.5215 -0.0105 -0.1139
  765MOL0     C 3161   7.977   3.393   4.710  0.1080  0.9271  0.6181
  765MOL0     C 3162   7.900   3.404   4.843  0.2026  0.3583 -0.0275
  765MOL0     C 3163   7.915   3.266   4.915  0.5014  0.0156  0.0296
  765MOL0     O 3164   8.041   3.210   4.924  0.4937 -0.0244  0.0947
  765MOL0     C 3165   8.063   3.120   5.030 -0.2706  0.0824  1.2333
  765MOL0     C 3166   7.970   3.036   5.100  0.5805  0.6781 -0.3096
  765MOL0     C 3167   8.006   2.979   5.219  0.2907  0.1781  0.4596
  765MOL0     C 3168   8.142   2.970   5.258 -0.2263 -1.1211 -0.1309
  765MOL0     C 3169   8.185   2.906   5.380  0.3952 -0.4821  0.2554
  765MOL0     O 3170   8.314   2.912   5.416 -1.2951 -0.3169 -0.0275
  765MOL0     C 3171   8.354   2.866   5.542  0.0896 -0.8995 -0.1013
  765MOL0     C 3172   8.299   2.921   5.659 -0.0421 -0.0551  0.1829
  765MOL0     C 3173   8.365   2.896   5.784 -0.3118  0.9038  0.9991
  765MOL0     C 3174   8.478   2.807   5.788  0.1212 -0.5251  0.0071
  765MOL0     O 3175   8.523   2.784   5.914 -0.6427  0.3068  0.0769
  765MOL0     C 3176   8.534   2.646   5.952  0.3929  0.1160 -0.0877
  765MOL0     C 3177   8.681   2.616   5.994  0.2586 -0.1956 -0.0270
  765MOL0     C 3178   8.734   2.711   6.104  0.5662  0.9958 -0.3479
  765MOL0     C 3179   8.886   2.702   6.112  0.8255 -1.1424  0.7141
  765MOL0     C 3180   8.935   2.791   6.229  0.1558 -1.3332 -0.5432
  765MOL0     C 3181   9.005   2.724   6.356  0.9776 -0.4207  0.3111
  765MOL0     C 3182   8.926   2.618   6.439  0.1427  0.8525 -0.4871
  765MOL0     C 3183   8.869   2.664   6.567  0.4061 -0.4130  1.0099
  765MOL0    Cl 3184   8.982   2.723   6.669 -0.1554  0.1983  0.0501
  765MOL0     C 3185   8.525   2.751   5.672 -0.1141 -0.6026 -1.5757
  765MOL0     C 3186   8.465   2.784   5.551  0.4965  0.6998  0.9790
  765MOL0     O 3187   8.098   2.837   5.437 -0.0437  0.5728 -0.4310
  765MOL0     C 3188   8.234   3.038   5.182  0.3967  0.2949  0.2358
  765MOL0     C 3189   8.195   3.126   5.074  0.0478  0.1035 -0.5228
  765MOL0     N 3190   7.738   3.520   4.543 -0.1862 -0.1883  1.2174
  765MOL0     N 3191   7.682   3.578   4.448 -0.4004  0.1621  0.6768
  765MOL0     C 3192   8.024   3.055   3.317  0.0966  0.8562  0.6669
  765MOL0     C 3193   8.068   3.022   3.187  0.1045 -0.0282 -0.0669
  765MOL0     C 3194   8.275   3.083   2.790 -0.1898 -0.7828  0.5730
  765MOL0     C 3195   8.241   2.950   2.772  0.4888 -0.1362 -0.1508
  765MOL0     C 3196   8.288   2.879   2.666  0.1526  0.8785  0.6237
  765MOL0     C 3197   8.368   2.945   2.563 -0.0010 -0.1944  0.3789
  765MOL0     O 3198   8.393   2.866   2.449  0.0878  0.0106 -0.0365
  765MOL0     C 3199   8.388   2.934   2.333 -0.8702 -0.1748  0.8812
  765MOL0     C 3200   8.431   2.830   2.229 -0.2677  0.1359  0.2522
  765MOL0     C 3201   8.436   2.891   2.096  0.8812 -0.0045  0.7637
  765MOL0     C 3202   8.419   2.759   2.005 -0.6469 -0.6514  0.3083
  765MOL0     C 3203   8.551   2.684   1.998 -1.1869 -1.0336 -0.9366
  765MOL0     C 3204   8.652   2.619   1.994 -0.1913 -0.3652  0.1702
  765MOL0     C 3205   8.399   3.082   2.581  0.1814 -0.0030 -1.0489
  765MOL0     C 3206   8.358   3.155   2.699 -0.1456 -0.4501 -0.1971
  765MOL0     C 3207   8.392   3.301   2.712 -0.9706  1.2528  0.3959
  765MOL0     H 3208   7.987   3.308   3.038  0.0352 -0.1925 -0.9341
  765MOL0     H 3209   7.898   3.365   3.258  2.4810  1.5908 -1.5981
  765MOL0     H 3210   7.795   3.361   3.463 -1.9111  1.0373  0.7246
  765MOL0     H 3211   7.747   3.209   3.547 -0.6946  1.8430  1.5941
  765MOL0     H 3212   7.971   3.372   3.646  0.0610 -0.4801 -2.5184
  765MOL0     H 3213   7.868   3.240   3.713  0.7884 -0.4685 -0.5955
  765MOL0     H 3214   7.671   3.402   3.722 -0.5987 -1.0394 -0.5849
  765MOL0     H 3215   7.774   3.533   3.651  0.0750  1.3193 -0.3957
  765MOL0     H 3216   7.796   3.404   3.918 -4.1035  0.5416 -0.5808
  765MOL0     H 3217   7.930   3.494   3.854  0.6329  2.7089  1.5290
  765MOL0     H 3218   7.770   3.685   3.807  3.8627  1.0887  1.1375
  765MOL0     H 3219   7.649   3.591   3.909 -0.8940  0.5088  1.4008
  765MOL0     H 3220   7.905   3.745   3.965  0.0885 -0.2475  0.3680
  765MOL0     H 3221   7.740   3.787   4.022 -2.5438 -2.1457  3.4691
  765MOL0     H 3222   7.890   3.704   4.209  2.7616 -1.9230  1.4023
  765MOL0     H 3223   7.922   3.561   4.106  2.5269  2.4251 -1.1788
  765MOL0     H 3224   7.631   3.643   4.196 -0.2412 -1.1077  1.6718
  765MOL0     H 3225   7.694   3.489   4.136 -0.6229  1.7460 -3.6960
  765MOL0     H 3226   7.872   3.363   4.303  0.0330 -2.4461  2.5185
  765MOL0     H 3227   7.835   3.242   4.645  1.3007 -2.0170 -0.8485
  765MOL0     H 3228   7.963   3.256   4.540 -2.5561 -6.1526  3.2097
  765MOL0     H 3229   8.078   3.351   4.717  0.6551  0.9433 -4.1253
  765MOL0     H 3230   7.989   3.490   4.661  2.7455  0.4959  0.2366
  765MOL0     H 3231   7.793   3.424   4.836  0.6028  2.2883 -1.9105
  765MOL0     H 3232   7.948   3.483   4.902 -0.3483  0.1890  0.6541
  765MOL0     H 3233   7.847   3.205   4.855  3.5716  0.6654 -4.5686
  765MOL0     H 3234   7.869   3.275   5.014 -0.8858  0.3649 -0.6183
  765MOL0     H 3235   7.867   3.049   5.068  0.6191 -1.1944 -1.2944
  765MOL0     H 3236   7.930   2.937   5.285 -0.2489  1.0631  0.4112
  765MOL0     H 3237   8.220   2.995   5.661 -0.0336 -0.0406  1.8723
  765MOL0     H 3238   8.337   2.946   5.876  0.2353 -0.2010  1.7978
  765MOL0     H 3239   8.471   2.639   6.041 -0.4169 -0.6396 -0.7018
  765MOL0     H 3240   8.483   2.583   5.879 -3.2858  0.7067  1.7343
  765MOL0     H 3241   8.688   2.513   6.031  0.1296  0.5431  2.2563
  765MOL0     H 3242   8.736   2.618   5.900  0.3622  1.4234  0.0317
  765MOL0     H 3243   8.703   2.808   6.065  1.0085  0.8756 -1.0051
  765MOL0     H 3244   8.688   2.681   6.198  2.8946 -2.5642 -0.1575
  765MOL0     H 3245   8.927   2.732   6.015  2.2829 -0.9698  1.3605
  765MOL0     H 3246   8.926   2.603   6.135 -0.2997 -2.0265 -0.9275
  765MOL0     H 3247   8.848   2.841   6.273 -1.8360 -2.5655 -2.8305
  765MOL0     H 3248   9.007   2.859   6.183 -2.3361  1.2573 -0.8985
  765MOL0     H 3249   9.090   2.674   6.308  0.6466 -1.3276  0.6547
  765MOL0     H 3250   9.036   2.808   6.419  2.8545  0.4696 -1.6530
  765MOL0     H 3251   8.984   2.527   6.458 -5.3586 -3.1666 -0.6411
  765MOL0     H 3252   8.838   2.587   6.384  0.0387  0.0949  0.0980
  765MOL0     H 3253   8.794   2.742   6.544  0.4144 -0.9120 -0.9103
  765MOL0     H 3254   8.811   2.583   6.612 -1.5800 -0.3012 -1.1234
  765MOL0     H 3255   8.611   2.685   5.669 -0.0709 -0.8606  1.9792
  765MOL0     H 3256   8.496   2.738   5.458 -2.1107 -0.9054  0.8198
  765MOL0     H 3257   8.337   3.033   5.218  0.8016 -1.3161 -1.0079
  765MOL0     H 3258   8.266   3.187   5.019  1.1222 -1.8627 -1.4480
  765MOL0     H 3259   8.037   2.982   3.397 -4.5579 -1.1395 -0.0801
  765MOL0     H 3260   8.109   2.926   3.160 -2.6419 -0.9666 -1.3404
  765MOL0     H 3261   8.186   2.903   2.853  1.3805 -1.1042 -0.0921
  765MOL0     H 3262   8.257   2.776   2.656 -1.0814  1.3808 -1.4915
  765MOL0     H 3263   8.461   3.015   2.327 -1.3494  0.3222  1.5769
  765MOL0     H 3264   8.289   2.974   2.307 -0.4982  0.7015  0.7872
  765MOL0     H 3265   8.349   2.757   2.231 -0.6290  0.5443  0.4754
  765MOL0     H 3266   8.535   2.797   2.240  0.4638  1.3028 -2.4368
  765MOL0     H 3267   8.530   2.939   2.069  0.8233  0.5414  1.5069
  765MOL0     H 3268   8.366   2.973   2.077  0.5146 -0.4410  0.1983
  765MOL0     H 3269   8.332   2.702   2.039 -1.3381 -0.8538 -1.6779
  765MOL0     H 3270   8.397   2.794   1.903 -0.4004 -4.8497 -1.3856
  765MOL0     H 3271   8.725   2.542   1.986  1.4606  1.1327  0.2010
  765MOL0     H 3272   8.436   3.144   2.500 -0.2710  2.9540  0.8561
  765MOL0     H 3273   8.303   3.360   2.735 -2.1737  0.0573 -0.9752
  765MOL0     H 3274   8.463   3.314   2.795  0.4199 -0.0749 -0.5258
  765MOL0     H 3275   8.430   3.334   2.615  0.9046  1.2573  1.0913
  766MOL0     O 3276   7.461   4.164   7.794  0.9360 -0.1012  0.6533
  766MOL0     C 3277   7.408   4.146   7.903 -0.6621  0.0849 -0.6056
  766MOL0     O 3278   7.436   4.037   7.987  0.5464 -1.1204  0.0670
  766MOL0     C 3279   7.519   3.940   7.946  0.0097  0.2512  0.2662
  766MOL0     C 3280   7.662   3.960   7.958 -0.8027 -0.6525 -0.3945
  766MOL0     C 3281   7.756   3.858   7.921  0.1642 -0.2215 -0.2241
  766MOL0     C 3282   7.715   3.739   7.862  0.8685  0.2974 -0.2541
  766MOL0     O 3283   7.809   3.651   7.826  0.0113  0.4533  0.3235
  766MOL0     C 3284   7.791   3.573   7.710 -1.0214  0.0651 -0.5818
  766MOL0     C 3285   7.859   3.631   7.584  0.4964 -0.1056  0.0785
  766MOL0     C 3286   7.886   3.526   7.479 -0.2340 -0.4678 -1.2037
  766MOL0     C 3287   7.987   3.591   7.368  0.1122 -0.1983 -0.5500
  766MOL0     C 3288   8.051   3.490   7.276  0.0924 -0.9192 -0.5299
  766MOL0     C 3289   8.163   3.553   7.202 -0.0955  0.3567 -0.1148
  766MOL0     C 3290   8.212   3.458   7.087 -0.6126 -0.6312 -0.8780
  766MOL0     C 3291   8.329   3.511   7.008 -0.3466 -0.2563  0.1528
  766MOL0     N 3292   8.398   3.419   6.915 -0.1818 -0.9984 -0.0587
  766MOL0     C 3293   8.364   3.405   6.775 -0.0918  0.1935 -0.1528
  766MOL0     C 3294   8.471   3.351   6.714 -0.0545  0.6990 -0.4208
  766MOL0     C 3295   8.497   3.308   6.574  0.0605  0.2736 -0.0980
  766MOL0     C 3296   8.519   3.159   6.545 -0.2894  0.1583  0.6212
  766MOL0     C 3297   8.654   3.103   6.590  0.8628 -0.8901  0.0583
  766MOL0     C 3298   8.769   3.119   6.486 -0.2068  0.0460  0.5094
  766MOL0     O 3299   8.810   3.250   6.473  0.3821  0.3137  0.4645
  766MOL0     C 3300   8.931   3.249   6.401 -0.5842  0.0291  0.4819
  766MOL0     C 3301   8.977   3.161   6.293  0.3584 -0.2386 -0.3445
  766MOL0     C 3302   9.104   3.184   6.244  0.7924  0.2700 -0.1031
  766MOL0     C 3303   9.184   3.292   6.280  0.2585  0.0804 -0.2041
  766MOL0     C 3304   9.311   3.319   6.213 -0.2887  0.2877  0.1523
  766MOL0     O 3305   9.377   3.437   6.226 -0.3211  0.0780  0.3052
  766MOL0     C 3306   9.496   3.452   6.157  0.7544  0.1759 -0.0952
  766MOL0     C 3307   9.511   3.416   6.023 -0.6654  0.2284  0.1410
  766MOL0     C 3308   9.629   3.459   5.954  0.3947  0.5455  0.2525
  766MOL0     C 3309   9.728   3.534   6.027  1.5524 -0.3343  0.0695
  766MOL0     O 3310   9.845   3.584   5.985 -0.1078 -0.0879 -0.0289
  766MOL0     C 3311   9.895   3.534   5.857  0.4352 -0.0163  0.6594
  766MOL0     C 3312  10.016   3.594   5.788  1.2852  0.0437  0.5559
  766MOL0     C 3313   9.979   3.738   5.730 -0.1634 -0.7087 -0.4660
  766MOL0     C 3314   9.985   3.849   5.841  0.5109  0.1584 -0.5268
  766MOL0     C 3315   9.977   3.989   5.757  1.1551  0.5122  0.5963
  766MOL0     C 3316   9.828   4.027   5.727 -0.8099 -0.0851  0.1173
  766MOL0     C 3317   9.804   4.052   5.576  0.4977 -0.3654  0.9393
  766MOL0     C 3318   9.650   4.024   5.560 -0.2872  0.4381  0.3721
  766MOL0    Cl 3319   9.593   4.079   5.400  0.0834 -0.0072  0.4143
  766MOL0     C 3320   9.707   3.564   6.160 -0.2340  0.9145 -0.7667
  766MOL0     C 3321   9.586   3.524   6.227 -0.1781  0.7439 -0.7949
  766MOL0     O 3322   9.353   3.220   6.148 -0.6384 -1.0810  0.3154
  766MOL0     C 3323   9.133   3.382   6.377  0.4278  0.0864  0.4437
  766MOL0     C 3324   9.007   3.360   6.428  0.2360 -0.1322  0.6289
  766MOL0     N 3325   8.572   3.343   6.808  0.6614  0.4379  1.1416
  766MOL0     N 3326   8.525   3.374   6.920 -1.3235  0.3366 -0.6368
  766MOL0     C 3327   7.577   3.715   7.853  0.2059  0.4340  0.3422
  766MOL0     C 3328   7.482   3.817   7.888 -0.0391  0.8335 -0.0871
  766MOL0     C 3329   7.309   4.238   7.956 -0.2773  0.4673 -0.4780
  766MOL0     C 3330   7.234   4.198   8.068  0.0925 -0.2059 -0.0625
  766MOL0     C 3331   7.121   4.262   8.108  0.2288  0.1783  0.1311
  766MOL0     C 3332   7.077   4.382   8.051  0.2858  0.0189  0.0397
  766MOL0     O 3333   6.956   4.441   8.085  0.2357  0.4273 -0.2896
  766MOL0     C 3334   6.869   4.384   8.185  0.1289  0.3613 -0.6911
  766MOL0     C 3335   6.744   4.467   8.202  0.2113 -0.1051 -0.0347
  766MOL0     C 3336   6.665   4.463   8.075 -0.8211  0.6492  0.2093
  766MOL0     C 3337   6.522   4.515   8.087 -0.2011 -0.5030 -0.3131
  766MOL0     C 3338   6.435   4.478   7.974  0.8079  0.0438  0.0060
  766MOL0     C 3339   6.360   4.457   7.880  0.5055  0.7321 -0.1454
  766MOL0     C 3340   7.154   4.425   7.941 -0.0889 -1.1291  0.0856
  766MOL0     C 3341   7.266   4.356   7.888  0.3533  0.2466  0.0307
  766MOL0     C 3342   7.341   4.417   7.767 -0.2983 -0.8852 -0.4973
  766MOL0     H 3343   7.688   4.051   8.010  4.2853 -3.2515  2.3896
  766MOL0     H 3344   7.862   3.862   7.946  0.2527  1.2961 -0.7078
  766MOL0     H 3345   7.854   3.488   7.739  1.7711  2.1594 -0.0636
  766MOL0     H 3346   7.695   3.527   7.686 -0.5433 -1.4504  0.2880
  766MOL0     H 3347   7.956   3.674   7.609  0.6683  0.3892 -1.3366
  766MOL0     H 3348   7.794   3.710   7.543  2.1987  1.5169  0.3666
  766MOL0     H 3349   7.787   3.507   7.437 -0.0733 -3.2063 -0.5474
  766MOL0     H 3350   7.921   3.431   7.521  1.2405  0.3909 -0.3980
  766MOL0     H 3351   7.929   3.676   7.333 -0.4756  1.2652  3.4646
  766MOL0     H 3352   8.066   3.647   7.419 -1.5667  0.8971  0.9255
  766MOL0     H 3353   8.097   3.407   7.331 -1.5428 -2.5964 -1.5614
  766MOL0     H 3354   7.982   3.445   7.204 -0.6789 -3.3972  1.5921
  766MOL0     H 3355   8.125   3.637   7.142 -0.5035 -1.3694 -2.3887
  766MOL0     H 3356   8.241   3.581   7.273 -3.8962  1.0445  4.3341
  766MOL0     H 3357   8.134   3.426   7.017 -1.0676 -0.1934 -0.5718
  766MOL0     H 3358   8.247   3.366   7.136 -2.7686  0.1769  2.4894
  766MOL0     H 3359   8.287   3.593   6.948 -0.3134 -3.0201 -4.0716
  766MOL0     H 3360   8.399   3.538   7.087 -0.3720 -0.2170  0.1617
  766MOL0     H 3361   8.269   3.433   6.730 -0.0847  1.0447  0.3440
  766MOL0     H 3362   8.406   3.333   6.519 -0.3844 -0.0406  0.4875
  766MOL0     H 3363   8.588   3.353   6.533  1.2398 -3.6941 -2.4610
  766MOL0     H 3364   8.439   3.103   6.594 -0.9529  1.7802  1.4716
  766MOL0     H 3365   8.512   3.145   6.437 -2.6569  3.1819  0.2304
  766MOL0     H 3366   8.633   2.996   6.590  2.8262 -1.4116  3.3088
  766MOL0     H 3367   8.685   3.142   6.687 -2.6216  1.2532  0.4937
  766MOL0     H 3368   8.732   3.087   6.388 -4.6048  1.4295  1.4911
  766MOL0     H 3369   8.848   3.049   6.513 -0.7444 -3.0072 -4.4715
  766MOL0     H 3370   8.912   3.080   6.262 -1.6441  1.4393 -0.7669
  766MOL0     H 3371   9.141   3.118   6.166 -3.0753  2.2142 -3.9766
  766MOL0     H 3372   9.430   3.363   5.974  0.3224 -0.5402 -0.6986
  766MOL0     H 3373   9.641   3.416   5.855 -1.8121 -1.0659  0.6080
  766MOL0     H 3374   9.910   3.426   5.866 -2.8359 -0.5854  0.4631
  766MOL0     H 3375   9.815   3.538   5.782  0.4407 -0.1545  0.6441
  766MOL0     H 3376  10.101   3.606   5.856 -0.0250  2.4128  1.9221
  766MOL0     H 3377  10.051   3.536   5.702  2.7344  3.1022 -1.1053
  766MOL0     H 3378  10.064   3.754   5.664  0.3191 -1.1694  0.0296
  766MOL0     H 3379   9.880   3.737   5.684 -0.3305 -0.5214 -0.1162
  766MOL0     H 3380  10.072   3.834   5.906 -0.0886 -2.7815 -0.2607
  766MOL0     H 3381   9.899   3.851   5.908  0.2717  2.8070 -0.8085
  766MOL0     H 3382  10.038   3.983   5.666  1.7719 -0.4518  1.0505
  766MOL0     H 3383  10.011   4.078   5.811  2.6175  2.2718 -2.8854
  766MOL0     H 3384   9.764   3.944   5.758  0.4537 -1.9855 -2.0322
  766MOL0     H 3385   9.784   4.109   5.784 -2.1046  0.0321 -1.0004
  766MOL0     H 3386   9.857   3.988   5.504  1.4425  1.9352 -0.5337
  766MOL0     H 3387   9.846   4.151   5.554  3.2273 -1.6616 -0.2795
  766MOL0     H 3388   9.620   3.920   5.577 -0.0098 -0.3952 -3.4445
  766MOL0     H 3389   9.608   4.080   5.644  0.0501  0.0619  0.7991
  766MOL0     H 3390   9.787   3.609   6.219  1.3571 -1.9979 -0.4892
  766MOL0     H 3391   9.567   3.555   6.329  2.2036  0.8498 -0.3404
  766MOL0     H 3392   9.185   3.476   6.388 -1.6594  1.2743  0.6111
  766MOL0     H 3393   8.980   3.435   6.502  1.5632 -1.0688  2.1390
  766MOL0     H 3394   7.552   3.617   7.813 -0.4029 -0.2302  2.2469
  766MOL0     H 3395   7.377   3.814   7.862  0.3158 -0.8643 -1.4918
  766MOL0     H 3396   7.240   4.099   8.112  0.3831  0.5161  1.5757
  766MOL0     H 3397   7.060   4.214   8.184  1.2029 -2.5750 -0.7010
  766MOL0     H 3398   6.921   4.373   8.281 -2.8582  0.5016  1.0508
  766MOL0     H 3399   6.829   4.288   8.152 -1.3283  1.0849 -1.0935
  766MOL0     H 3400   6.762   4.567   8.243  0.3229  0.3698 -1.2223
  766MOL0     H 3401   6.680   4.417   8.275  0.0451  0.7452  0.4225
  766MOL0     H 3402   6.661   4.366   8.025 -0.6723  0.8691 -0.2300
  766MOL0     H 3403   6.721   4.520   8.000 -2.4633  2.3477  0.2099
  766MOL0     H 3404   6.482   4.478   8.182  1.2611 -0.7045  0.2529
  766MOL0     H 3405   6.525   4.623   8.103  2.3005 -0.3322 -1.4272
  766MOL0     H 3406   6.303   4.428   7.795 -0.3279 -2.2883  1.3056
  766MOL0     H 3407   7.112   4.511   7.888 -2.0410 -2.4670 -0.6572
  766MOL0     H 3408   7.446   4.421   7.796  0.0282  0.6896 -1.7710
  766MOL0     H 3409   7.329   4.347   7.684 -1.5129 -2.0667  0.6234
  766MOL0     H 3410   7.312   4.522   7.754  2.3171  0.3548  2.4013
  767MOL0     O 3411   6.683   2.590   0.795 -0.0102 -0.8650 -0.6824
  767MOL0     C 3412   6.613   2.687   0.763 -0.2933  0.2893  0.4777
  767MOL0     O 3413   6.545   2.693   0.645 -0.1497  0.3356  0.3777
  767MOL0     C 3414   6.583   2.598   0.557 -0.6252 -0.2644 -0.4260
  767MOL0     C 3415   6.493   2.488   0.530 -0.3334 -0.1568  0.3495
  767MOL0     C 3416   6.532   2.403   0.423  0.2019 -0.0101  0.4649
  767MOL0     C 3417   6.648   2.424   0.346 -0.1950 -0.4037  0.2162
  767MOL0     O 3418   6.681   2.326   0.247  0.5173 -0.3480  0.0447
  767MOL0     C 3419   6.783   2.363   0.147 -0.1716 -1.0604 -0.2440
  767MOL0     C 3420   6.795   2.251   0.045 -0.0135 -0.3765 -0.4068
  767MOL0     C 3421   6.802   2.105   0.102  0.9177 -0.0884  0.3687
  767MOL0     C 3422   6.791   1.995  -0.000  0.5274 -0.1297 -0.0030
  767MOL0     C 3423   6.903   2.006  -0.098  0.2002 -0.3311  0.0147
  767MOL0     C 3424   6.919   1.888  -0.195  0.4738 -0.5618  0.2149
  767MOL0     C 3425   6.968   1.756  -0.132 -0.4097 -0.4802  0.2676
  767MOL0     C 3426   6.978   1.645  -0.233 -1.3239 -0.3953  0.2717
  767MOL0     N 3427   7.084   1.656  -0.332  0.6184  0.6408  0.2607
  767MOL0     C 3428   7.208   1.603  -0.316 -0.7689 -0.0836 -0.0148
  767MOL0     C 3429   7.269   1.612  -0.437  1.1030  0.4418 -0.6516
  767MOL0     C 3430   7.402   1.542  -0.484  0.7145 -0.5502  0.5042
  767MOL0     C 3431   7.500   1.654  -0.530 -1.3276  0.3634  0.9118
  767MOL0     C 3432   7.601   1.602  -0.634 -0.2214 -0.0006  0.4139
  767MOL0     C 3433   7.694   1.495  -0.576  0.8101 -0.7213  0.2556
  767MOL0     O 3434   7.762   1.446  -0.694 -0.1372  0.4690  0.5115
  767MOL0     C 3435   7.868   1.350  -0.678  0.5124 -1.0278 -0.4990
  767MOL0     C 3436   7.951   1.322  -0.780 -0.9288  0.3743  0.5243
  767MOL0     C 3437   8.070   1.238  -0.757  1.0586  0.5922  0.0033
  767MOL0     C 3438   8.097   1.187  -0.635 -0.4948 -0.2562 -0.5711
  767MOL0     C 3439   8.224   1.107  -0.621 -0.0865 -0.1166 -0.3086
  767MOL0     O 3440   8.205   0.988  -0.560  0.6225  0.3039  0.0166
  767MOL0     C 3441   8.314   0.899  -0.542  0.1197  0.3709  0.0556
  767MOL0     C 3442   8.272   0.782  -0.484  0.6015  0.7876 -0.1799
  767MOL0     C 3443   8.358   0.673  -0.456  0.0011  0.1746 -0.5521
  767MOL0     C 3444   8.492   0.682  -0.491 -1.1036  0.4048  0.3966
  767MOL0     O 3445   8.572   0.567  -0.473 -0.1440 -0.2224  0.4912
  767MOL0     C 3446   8.703   0.566  -0.518  0.2314 -0.9490  0.5120
  767MOL0     C 3447   8.714   0.563  -0.675  1.0890  0.2901 -0.5394
  767MOL0     C 3448   8.687   0.423  -0.724 -0.3226  0.6480 -0.5435
  767MOL0     C 3449   8.721   0.411  -0.887  0.5896  0.7018 -1.4173
  767MOL0     C 3450   8.703   0.257  -0.922 -0.6029 -0.0658 -0.0105
  767MOL0     C 3451   8.553   0.210  -0.920 -0.3894  0.1246 -0.7011
  767MOL0     C 3452   8.537   0.072  -0.982  0.9486  0.2583 -0.0336
  767MOL0     C 3453   8.634  -0.039  -0.935 -0.4779 -0.6187  0.2247
  767MOL0    Cl 3454   8.578  -0.183  -1.000 -0.4492 -0.0785 -0.1931
  767MOL0     C 3455   8.540   0.807  -0.538 -0.1287 -0.1267  0.8271
  767MOL0     C 3456   8.453   0.910  -0.561 -0.1189  0.1642  0.0047
  767MOL0     O 3457   8.322   1.134  -0.686  0.4890  0.1598  0.0576
  767MOL0     C 3458   8.001   1.207  -0.534  0.5297 -0.1136  0.7928
  767MOL0     C 3459   7.892   1.289  -0.551  0.2578  0.7252  0.3046
  767MOL0     N 3460   7.182   1.666  -0.519 -0.0439 -0.0050  0.4418
  767MOL0     N 3461   7.065   1.688  -0.464 -0.3172  0.0839  0.8143
  767MOL0     C 3462   6.743   2.522   0.384 -0.2853 -0.2825 -1.2729
  767MOL0     C 3463   6.708   2.606   0.486 -0.4036  0.5374 -0.6394
  767MOL0     C 3464   6.615   2.807   0.853  0.0637 -0.3275  0.2236
  767MOL0     C 3465   6.531   2.920   0.808 -1.3428  0.0857 -0.1620
  767MOL0     C 3466   6.526   3.033   0.884 -0.2120 -0.2193 -0.3497
  767MOL0     C 3467   6.583   3.048   1.016  0.2809  0.6163  0.6444
  767MOL0     O 3468   6.574   3.170   1.076 -0.1254  0.5009 -0.1955
  767MOL0     C 3469   6.663   3.203   1.185  0.1234  0.2379  0.2592
  767MOL0     C 3470   6.629   3.337   1.254 -0.0020 -0.4179 -0.5494
  767MOL0     C 3471   6.684   3.448   1.168  0.0236 -0.1280 -0.1476
  767MOL0     C 3472   6.644   3.591   1.213 -0.5852 -1.1350  0.1016
  767MOL0     C 3473   6.668   3.690   1.113 -0.5063 -0.8570 -0.3017
  767MOL0     C 3474   6.699   3.780   1.029  0.0075 -0.3553  0.5066
  767MOL0     C 3475   6.656   2.931   1.065 -0.7818 -0.3448 -0.0526
  767MOL0     C 3476   6.663   2.811   0.989  0.1161  0.2990 -0.3505
  767MOL0     C 3477   6.722   2.691   1.060  0.2923  0.1225  0.5532
  767MOL0     H 3478   6.400   2.481   0.586 -1.1514  0.4161 -0.9124
  767MOL0     H 3479   6.456   2.327   0.412 -2.6533  2.8237 -1.2484
  767MOL0     H 3480   6.762   2.458   0.096  4.2991 -0.0166 -0.5016
  767MOL0     H 3481   6.882   2.373   0.192 -1.2790  2.1854  1.8730
  767MOL0     H 3482   6.896   2.271   0.008 -0.6873  1.8690 -1.2101
  767MOL0     H 3483   6.713   2.255  -0.027 -0.2709  0.7465 -0.0660
  767MOL0     H 3484   6.722   2.091   0.175  0.8093 -2.4470 -0.1293
  767MOL0     H 3485   6.902   2.109   0.145  1.8072  2.1539 -1.6419
  767MOL0     H 3486   6.809   1.905   0.059  0.6237 -0.7955 -1.0194
  767MOL0     H 3487   6.698   1.996  -0.058  2.5779 -1.6884 -3.7044
  767MOL0     H 3488   6.895   2.087  -0.171  0.7746  1.5511  1.9475
  767MOL0     H 3489   6.997   2.038  -0.052 -0.1744  0.9270 -0.0462
  767MOL0     H 3490   6.817   1.877  -0.235  0.8004  1.6009 -1.3516
  767MOL0     H 3491   6.986   1.915  -0.276  1.5669 -0.1976  1.2193
  767MOL0     H 3492   6.900   1.723  -0.053 -1.3616  1.3443  0.2470
  767MOL0     H 3493   7.067   1.783  -0.093 -1.6435  2.8091  1.4503
  767MOL0     H 3494   6.999   1.549  -0.186 -0.3886  0.7853  2.4434
  767MOL0     H 3495   6.880   1.643  -0.280 -1.1744  3.4097 -0.5515
  767MOL0     H 3496   7.244   1.558  -0.224 -0.2228 -0.5175 -0.4332
  767MOL0     H 3497   7.453   1.487  -0.405  0.5868 -0.6032  0.5509
  767MOL0     H 3498   7.389   1.460  -0.554 -2.3250  0.7999 -0.7147
  767MOL0     H 3499   7.434   1.733  -0.567 -1.2783  0.1794  0.4250
  767MOL0     H 3500   7.560   1.684  -0.444 -0.2896 -2.0556  1.1282
  767MOL0     H 3501   7.655   1.691  -0.668  1.0557 -1.5927 -1.9782
  767MOL0     H 3502   7.545   1.568  -0.722  1.0248  2.5483 -1.4615
  767MOL0     H 3503   7.634   1.424  -0.519 -0.7348  0.6757  0.4589
  767MOL0     H 3504   7.761   1.529  -0.496  0.6036 -5.5923  2.8930
  767MOL0     H 3505   7.940   1.366  -0.878 -3.1405 -0.6116  0.2687
  767MOL0     H 3506   8.142   1.229  -0.838  0.8919  0.2803 -0.1098
  767MOL0     H 3507   8.168   0.762  -0.459  1.2397 -1.2362  1.0905
  767MOL0     H 3508   8.321   0.584  -0.407 -2.4197 -0.7341 -3.7421
  767MOL0     H 3509   8.757   0.648  -0.470  1.9993 -3.7381  3.6795
  767MOL0     H 3510   8.756   0.478  -0.480  1.1686 -0.7333 -0.2576
  767MOL0     H 3511   8.633   0.623  -0.717 -2.3600 -3.1029  0.6913
  767MOL0     H 3512   8.809   0.603  -0.712 -1.1750  3.1054 -3.9529
  767MOL0     H 3513   8.759   0.358  -0.674  0.5160  0.6555 -1.7086
  767MOL0     H 3514   8.589   0.386  -0.693 -0.6187 -1.0829 -3.2310
  767MOL0     H 3515   8.826   0.435  -0.904  1.4577  1.1652  3.3505
  767MOL0     H 3516   8.644   0.471  -0.939 -2.1137 -0.9337  0.4543
  767MOL0     H 3517   8.751   0.201  -0.841 -0.8183 -0.1879  0.0350
  767MOL0     H 3518   8.749   0.225  -1.016 -0.1008  0.1432  0.1626
  767MOL0     H 3519   8.508   0.206  -0.820 -3.2050  0.8508 -1.8404
  767MOL0     H 3520   8.500   0.297  -0.960  2.8978  1.9238 -1.4989
  767MOL0     H 3521   8.555   0.089  -1.088 -0.4876 -1.2979 -0.5699
  767MOL0     H 3522   8.438   0.025  -0.972  1.7443 -1.7425 -1.0034
  767MOL0     H 3523   8.739  -0.026  -0.962 -0.7820  1.8730 -0.0049
  767MOL0     H 3524   8.623  -0.046  -0.827 -0.2211  2.5141  0.5462
  767MOL0     H 3525   8.646   0.827  -0.554 -0.7894  2.4426 -1.1807
  767MOL0     H 3526   8.509   0.997  -0.593  2.8291 -1.6009  0.0059
  767MOL0     H 3527   8.008   1.146  -0.445 -0.9593 -3.2615 -1.0373
  767MOL0     H 3528   7.825   1.308  -0.467 -0.1653 -0.3448  0.2320
  767MOL0     H 3529   6.836   2.548   0.336  0.7369 -0.8931  0.2678
  767MOL0     H 3530   6.763   2.696   0.512 -1.3224  0.3748  2.2442
  767MOL0     H 3531   6.486   2.922   0.709 -1.0835  0.7537 -0.2708
  767MOL0     H 3532   6.474   3.121   0.850  0.7875 -0.0501 -1.5122
  767MOL0     H 3533   6.767   3.210   1.153  1.1287  1.8943  3.4815
  767MOL0     H 3534   6.664   3.115   1.251  0.1126  0.3682  0.4352
  767MOL0     H 3535   6.686   3.344   1.347  0.4018  2.2095 -0.9122
  767MOL0     H 3536   6.524   3.363   1.266  0.6286  2.7668 -1.0782
  767MOL0     H 3537   6.649   3.435   1.065  0.7864  0.6710 -0.5191
  767MOL0     H 3538   6.793   3.446   1.156 -0.2428 -2.2386 -3.6812
  767MOL0     H 3539   6.537   3.598   1.237 -0.3759 -0.0535  0.7631
  767MOL0     H 3540   6.710   3.616   1.295  1.3516 -0.5935 -1.5534
  767MOL0     H 3541   6.697   3.853   0.950 -1.6560 -0.3280  0.5542
  767MOL0     H 3542   6.700   2.935   1.164 -2.9456 -0.5018  0.9865
  767MOL0     H 3543   6.813   2.663   1.006  0.2678  2.3343 -0.7232
  767MOL0     H 3544   6.739   2.702   1.168  0.6236 -0.4191  0.5638
  767MOL0     H 3545   6.646   2.615   1.041 -0.4514  1.0073 -0.0285
  768MOL0     O 3546   5.024   5.447   8.259  0.1471  0.4277 -0.1862
  768MOL0     C 3547   4.935   5.382   8.309 -0.0505  0.4389 -0.2387
  768MOL0     O 3548   4.825   5.434   8.367 -0.2929  0.2111 -0.0273
  768MOL0     C 3549   4.802   5.568   8.366 -0.5238  0.3426  0.3712
  768MOL0     C 3550   4.799   5.631   8.488  0.6244 -0.6553 -0.2411
  768MOL0     C 3551   4.751   5.764   8.493 -0.2621 -0.0902  0.2629
  768MOL0     C 3552   4.732   5.833   8.367  0.3758  0.6974 -1.2339
  768MOL0     O 3553   4.719   5.970   8.370 -0.0083 -0.0096 -0.2278
  768MOL0     C 3554   4.602   6.012   8.451  1.0955 -0.6461 -0.1420
  768MOL0     C 3555   4.564   6.165   8.427 -0.5415 -0.0726 -0.0795
  768MOL0     C 3556   4.630   6.247   8.533 -0.7912  0.3401 -0.0116
  768MOL0     C 3557   4.791   6.243   8.526  0.4359 -0.1849  0.1162
  768MOL0     C 3558   4.854   6.350   8.608 -0.2183 -0.9949 -0.1615
  768MOL0     C 3559   5.013   6.346   8.604  0.4537  0.1607  0.6423
  768MOL0     C 3560   5.065   6.485   8.555  0.1516 -0.8335 -0.5266
  768MOL0     C 3561   5.220   6.492   8.562  0.4563  0.0151 -0.4737
  768MOL0     N 3562   5.293   6.608   8.508 -0.0815 -0.6523  0.6369
  768MOL0     C 3563   5.286   6.662   8.380 -0.2384 -0.4701  0.4973
  768MOL0     C 3564   5.350   6.779   8.381 -0.1728 -1.0287 -0.8501
  768MOL0     C 3565   5.358   6.879   8.259 -0.4162  1.1729 -0.1046
  768MOL0     C 3566   5.238   6.968   8.263  0.0846  0.1097 -0.3885
  768MOL0     C 3567   5.166   6.990   8.130 -0.9316 -0.6580 -0.0702
  768MOL0     C 3568   5.064   7.110   8.138  0.2463  0.5862 -0.4341
  768MOL0     O 3569   5.063   7.179   8.011  0.7185  0.5653 -0.0667
  768MOL0     C 3570   4.962   7.271   7.998 -0.4615 -0.1320 -0.0927
  768MOL0     C 3571   4.878   7.273   7.887  0.0460 -0.1484 -0.3941
  768MOL0     C 3572   4.768   7.361   7.877 -0.7030 -0.2945  1.2480
  768MOL0     C 3573   4.734   7.449   7.977  0.8661  1.3066 -0.2757
  768MOL0     C 3574   4.605   7.527   7.969 -0.2502  0.7745  1.2479
  768MOL0     O 3575   4.547   7.530   7.846  0.5758 -0.2380  0.2746
  768MOL0     C 3576   4.440   7.610   7.825  0.8665  0.0984 -0.9131
  768MOL0     C 3577   4.312   7.559   7.860  1.7495  0.6312  0.1650
  768MOL0     C 3578   4.204   7.647   7.862  0.0785 -0.0790 -0.0822
  768MOL0     C 3579   4.222   7.783   7.839 -0.4322  0.3878  1.0070
  768MOL0     O 3580   4.102   7.853   7.835  0.1054 -0.3469 -0.1473
  768MOL0     C 3581   4.087   7.969   7.754  0.6509 -0.9717 -0.4743
  768MOL0     C 3582   3.942   8.026   7.744  0.0930  0.5124  0.9238
  768MOL0     C 3583   3.870   8.031   7.887 -0.6287  1.7103  1.1810
  768MOL0     C 3584   3.929   8.138   7.982 -0.0049  0.0564  0.5271
  768MOL0     C 3585   3.855   8.142   8.123 -0.5959  0.8488 -0.5936
  768MOL0     C 3586   3.875   8.020   8.209  0.4346  0.1969 -0.4842
  768MOL0     C 3587   4.019   8.001   8.253  0.7418 -0.5561 -0.4704
  768MOL0     C 3588   4.108   7.898   8.181  0.1970  0.9215  0.2162
  768MOL0    Cl 3589   4.276   7.911   8.234  0.0186  0.2720  0.4485
  768MOL0     C 3590   4.350   7.831   7.789 -0.2326  0.4735 -0.4344
  768MOL0     C 3591   4.457   7.743   7.794  0.3708 -0.1710 -0.2644
  768MOL0     O 3592   4.569   7.596   8.067 -0.3208 -0.4129 -0.3360
  768MOL0     C 3593   4.816   7.450   8.090  0.6234 -0.4151 -0.2739
  768MOL0     C 3594   4.933   7.368   8.093  0.7430  0.8518  0.0695
  768MOL0     N 3595   5.403   6.792   8.506  0.0467 -0.3230  0.0162
  768MOL0     N 3596   5.373   6.693   8.574 -0.6382 -0.0771 -0.4755
  768MOL0     C 3597   4.760   5.767   8.249  0.5555 -0.7144 -0.9709
  768MOL0     C 3598   4.786   5.629   8.247  1.3160 -0.4911  0.2610
  768MOL0     C 3599   4.953   5.232   8.337  0.0338  0.2172  0.9607
  768MOL0     C 3600   4.961   5.193   8.469 -0.8415  0.1221 -0.1613
  768MOL0     C 3601   5.002   5.066   8.516 -0.2575  0.1837 -0.1043
  768MOL0     C 3602   5.023   4.965   8.417 -0.3014  0.9570 -1.0473
  768MOL0     O 3603   5.057   4.833   8.446  0.0552 -0.7971 -0.8857
  768MOL0     C 3604   5.085   4.794   8.582  0.6309 -0.7889 -0.7231
  768MOL0     C 3605   5.216   4.848   8.656 -0.3943  0.5874  0.4823
  768MOL0     C 3606   5.341   4.805   8.573 -0.1732 -0.6478 -0.4783
  768MOL0     C 3607   5.399   4.669   8.597  0.7807 -0.8686  1.1454
  768MOL0     C 3608   5.460   4.682   8.725 -0.6872 -0.2843  0.3635
  768MOL0     C 3609   5.523   4.676   8.831  0.2607 -0.3328 -0.2437
  768MOL0     C 3610   4.998   4.996   8.286  0.3207  0.0705 -0.0852
  768MOL0     C 3611   4.976   5.130   8.241  0.5019  0.3567 -0.2949
  768MOL0     C 3612   4.973   5.156   8.100 -0.1723  0.8812  0.4259
  768MOL0     H 3613   4.816   5.589   8.586  0.2370  3.8459  2.0446
  768MOL0     H 3614   4.736   5.818   8.586 -2.3132  0.1426 -0.1600
  768MOL0     H 3615   4.518   5.948   8.423  0.8465 -0.7263  0.7465
  768MOL0     H 3616   4.626   6.008   8.558  0.2487  1.5353  0.1902
  768MOL0     H 3617   4.456   6.178   8.438 -0.3049 -0.3684  4.4925
  768MOL0     H 3618   4.592   6.199   8.327 -0.5611 -4.4936 -1.8080
  768MOL0     H 3619   4.603   6.222   8.637 -1.4480  1.0244 -0.0094
  768MOL0     H 3620   4.606   6.353   8.524  2.2227  1.2047  0.8627
  768MOL0     H 3621   4.818   6.147   8.572 -1.4210 -0.5500  0.5131
  768MOL0     H 3622   4.829   6.267   8.426  0.9282  0.9192  0.5513
  768MOL0     H 3623   4.824   6.449   8.574 -0.3907 -1.3647 -1.1104
  768MOL0     H 3624   4.828   6.346   8.714  1.7872 -0.5384  0.4085
  768MOL0     H 3625   5.033   6.310   8.705  0.2357 -1.2806  0.1830
  768MOL0     H 3626   5.051   6.268   8.539 -1.1798 -2.6790  2.8710
  768MOL0     H 3627   5.028   6.552   8.633  0.3345  1.6959 -2.4724
  768MOL0     H 3628   5.023   6.514   8.458 -0.7784 -0.7698 -0.1102
  768MOL0     H 3629   5.248   6.462   8.663 -0.3399  0.0659 -0.2243
  768MOL0     H 3630   5.258   6.406   8.506 -1.2435 -0.2098 -1.3792
  768MOL0     H 3631   5.210   6.629   8.310 -1.4719 -0.6216  1.8620
  768MOL0     H 3632   5.449   6.940   8.251 -0.9514  1.9901 -0.0900
  768MOL0     H 3633   5.356   6.817   8.169  0.4619  0.1659  0.5395
  768MOL0     H 3634   5.163   6.931   8.333 -0.3851 -1.0318 -1.4627
  768MOL0     H 3635   5.274   7.069   8.285  1.9450 -0.1224 -2.0531
  768MOL0     H 3636   5.110   6.904   8.093 -3.5170  1.2489 -0.8507
  768MOL0     H 3637   5.243   7.001   8.053 -0.8766 -3.0192 -0.4347
  768MOL0     H 3638   5.083   7.184   8.217 -0.6162  0.9716 -0.5741
  768MOL0     H 3639   4.966   7.069   8.163  0.0256  1.3783  0.0678
  768MOL0     H 3640   4.897   7.205   7.805 -1.6834 -2.4938  0.9862
  768MOL0     H 3641   4.719   7.349   7.781  0.7565 -1.5409  0.6299
  768MOL0     H 3642   4.303   7.452   7.880 -1.8633  0.8243  0.3161
  768MOL0     H 3643   4.108   7.604   7.886 -0.4348  1.4448  0.7060
  768MOL0     H 3644   4.154   8.046   7.794 -2.1713  0.3921  1.9712
  768MOL0     H 3645   4.106   7.954   7.647  1.6007  0.1156 -0.4879
  768MOL0     H 3646   3.947   8.122   7.692  3.1461 -0.1464 -0.1979
  768MOL0     H 3647   3.881   7.963   7.679  0.4073  2.4437 -1.3635
  768MOL0     H 3648   3.761   8.036   7.882 -0.9058 -2.0477  0.3739
  768MOL0     H 3649   3.892   7.931   7.927 -1.5338 -1.7647 -5.6030
  768MOL0     H 3650   3.912   8.233   7.931  2.7873  1.0200  1.1928
  768MOL0     H 3651   4.038   8.128   7.993 -0.0610 -0.9068  0.2509
  768MOL0     H 3652   3.748   8.161   8.111 -0.5130  3.5991  1.7908
  768MOL0     H 3653   3.893   8.227   8.180 -2.7830  2.6215 -1.6249
  768MOL0     H 3654   3.816   8.031   8.300 -0.0291 -4.7765  0.0659
  768MOL0     H 3655   3.839   7.921   8.180 -1.3362 -0.2410  2.7583
  768MOL0     H 3656   4.008   7.972   8.358 -0.9496  1.4505 -0.0179
  768MOL0     H 3657   4.069   8.098   8.250 -0.1719  0.1785  3.2098
  768MOL0     H 3658   4.069   7.797   8.194  1.4586  0.2243 -1.1340
  768MOL0     H 3659   4.128   7.906   8.074  7.1358 -3.3071  0.6302
  768MOL0     H 3660   4.365   7.935   7.763  0.8167 -0.1483 -2.5420
  768MOL0     H 3661   4.556   7.780   7.768 -0.0095  0.0750 -1.3816
  768MOL0     H 3662   4.803   7.529   8.163 -4.6084 -1.1481 -0.0570
  768MOL0     H 3663   4.998   7.384   8.178 -0.6036  0.6458  1.1810
  768MOL0     H 3664   4.772   5.819   8.155  0.1239 -0.5118 -0.9122
  768MOL0     H 3665   4.787   5.585   8.148 -0.4741  1.3200 -0.6280
  768MOL0     H 3666   4.939   5.260   8.552  0.1809 -1.2829  1.3019
  768MOL0     H 3667   5.015   5.063   8.624  0.5185  1.2517 -0.1463
  768MOL0     H 3668   5.091   4.685   8.587  0.0850 -0.7726  1.6618
  768MOL0     H 3669   5.002   4.821   8.649 -0.2004 -0.3521 -1.8923
  768MOL0     H 3670   5.221   4.804   8.756  0.9996 -0.9106 -0.1951
  768MOL0     H 3671   5.209   4.956   8.672  0.0619  0.3887  2.1614
  768MOL0     H 3672   5.410   4.878   8.616  0.2992 -1.8655  0.9128
  768MOL0     H 3673   5.329   4.825   8.466  0.5054 -0.0854 -0.4584
  768MOL0     H 3674   5.317   4.596   8.591 -0.4814  0.4890  1.3740
  768MOL0     H 3675   5.452   4.644   8.505  0.6531  4.3637 -0.6757
  768MOL0     H 3676   5.581   4.676   8.921  3.9238 -0.4200 -2.3985
  768MOL0     H 3677   5.002   4.916   8.213  3.4341  1.2834 -1.4011
  768MOL0     H 3678   4.875   5.194   8.067  0.4500  1.6014 -0.6693
  768MOL0     H 3679   5.042   5.239   8.083  0.3845  0.3668  0.1577
  768MOL0     H 3680   5.000   5.068   8.041  1.0268  1.0400  0.7085
  769MOL0     O 3681   9.098   6.470   2.822  0.3213  0.1274  0.1018
  769MOL0     C 3682   9.156   6.561   2.887  0.1739 -0.1864  0.4442
  769MOL0     O 3683   9.263   6.541   2.978 -0.1913 -0.5556 -0.1145
  769MOL0     C 3684   9.334   6.421   2.976 -0.1534  0.2277  0.0544
  769MOL0     C 3685   9.279   6.314   3.048 -0.2870 -0.2826  0.8364
  769MOL0     C 3686   9.342   6.188   3.044 -0.2074  0.5874 -0.1612
  769MOL0     C 3687   9.473   6.184   2.986 -1.0001 -0.8311  1.2955
  769MOL0     O 3688   9.554   6.075   2.994 -0.6070  0.4378  0.4675
  769MOL0     C 3689   9.499   5.951   2.942 -0.2288 -0.5370 -0.2479
  769MOL0     C 3690   9.506   5.834   3.052 -0.3645  0.3059  0.9082
  769MOL0     C 3691   9.479   5.689   2.996  0.1581  0.1969 -0.8733
  769MOL0     C 3692   9.589   5.647   2.906  0.1839 -0.1848  0.9925
  769MOL0     C 3693   9.573   5.501   2.869 -0.0007  0.7461  0.0637
  769MOL0     C 3694   9.693   5.448   2.777 -0.3077 -1.0484 -0.0088
  769MOL0     C 3695   9.684   5.302   2.741  0.4160  0.6973  0.2497
  769MOL0     C 3696   9.718   5.204   2.861  0.6016  0.1212 -0.6291
  769MOL0     N 3697   9.591   5.156   2.918 -0.3760  0.0655  0.9032
  769MOL0     C 3698   9.535   5.207   3.031  0.0170 -0.2248  0.7154
  769MOL0     C 3699   9.426   5.129   3.055 -0.0861  0.5676 -0.6409
  769MOL0     C 3700   9.320   5.151   3.168 -0.4640  0.3289 -0.0937
  769MOL0     C 3701   9.288   5.302   3.192  1.1850  1.0187  0.6885
  769MOL0     C 3702   9.138   5.326   3.152 -1.3840 -0.2295 -0.2470
  769MOL0     C 3703   9.140   5.373   3.004  0.4605  0.5289  0.2491
  769MOL0     O 3704   9.011   5.415   2.969  0.5073  0.0643 -0.4879
  769MOL0     C 3705   8.910   5.321   2.970  0.5971 -1.0237 -0.2683
  769MOL0     C 3706   8.927   5.187   2.934  0.2188 -0.8799 -0.9414
  769MOL0     C 3707   8.823   5.094   2.959 -0.0185  0.5765 -0.1080
  769MOL0     C 3708   8.693   5.140   2.975 -0.1357  0.6446 -0.4720
  769MOL0     C 3709   8.581   5.048   2.991  0.0279  0.1510  1.2317
  769MOL0     O 3710   8.604   4.917   2.953  0.3044 -0.5470  0.3930
  769MOL0     C 3711   8.514   4.813   2.969  0.2301  0.2785 -0.3925
  769MOL0     C 3712   8.594   4.704   2.998  0.2737 -0.3219 -0.1023
  769MOL0     C 3713   8.535   4.583   3.014  0.7036 -0.2559  0.1957
  769MOL0     C 3714   8.395   4.572   3.037 -0.9318 -0.0467  0.0535
  769MOL0     O 3715   8.320   4.464   3.074 -0.2931 -0.0446 -0.7677
  769MOL0     C 3716   8.384   4.347   3.130 -0.3597 -0.1608  0.0612
  769MOL0     C 3717   8.266   4.247   3.173  0.9468 -0.2234 -0.5237
  769MOL0     C 3718   8.201   4.309   3.289  0.3087 -0.6948 -0.4651
  769MOL0     C 3719   8.140   4.213   3.394  0.5715 -0.4841 -0.5741
  769MOL0     C 3720   8.126   4.282   3.530  0.4254 -0.6179 -0.8386
  769MOL0     C 3721   8.035   4.393   3.523  0.1388 -0.5000 -0.7110
  769MOL0     C 3722   7.977   4.440   3.660  0.6062 -0.0749 -0.0851
  769MOL0     C 3723   7.841   4.380   3.690  0.5738  0.6220 -0.5584
  769MOL0    Cl 3724   7.772   4.448   3.848  0.0288  0.1112 -0.2596
  769MOL0     C 3725   8.314   4.691   3.029 -1.0449  0.1050 -0.0209
  769MOL0     C 3726   8.372   4.807   2.976 -0.3522 -0.7774 -0.3332
  769MOL0     O 3727   8.468   5.099   3.012 -0.1581  0.1769  0.2443
  769MOL0     C 3728   8.676   5.280   3.000  0.1787  0.0822  1.0150
  769MOL0     C 3729   8.781   5.370   2.992 -0.0742  0.1542 -0.5930
  769MOL0     N 3730   9.433   5.021   2.970 -0.6399 -0.1277  0.9408
  769MOL0     N 3731   9.520   5.047   2.876  0.8482  0.2427  0.2148
  769MOL0     C 3732   9.540   6.297   2.928  0.3861  0.5350 -0.1856
  769MOL0     C 3733   9.454   6.404   2.915  0.0344 -0.3775  0.5793
  769MOL0     C 3734   9.106   6.706   2.880 -0.1095  0.4370  0.3014
  769MOL0     C 3735   9.156   6.799   2.977 -0.3337 -0.0656  0.6558
  769MOL0     C 3736   9.115   6.937   2.973  0.6405  0.3065  0.3605
  769MOL0     C 3737   9.024   6.982   2.877 -0.0418  1.3844  0.2362
  769MOL0     O 3738   8.986   7.114   2.875 -0.2005  0.0872 -0.7673
  769MOL0     C 3739   9.007   7.210   2.984 -0.4060  0.0133 -0.9428
  769MOL0     C 3740   8.921   7.174   3.117 -0.7202  1.2050 -0.7257
  769MOL0     C 3741   8.778   7.130   3.082  0.4016 -0.4937 -0.5079
  769MOL0     C 3742   8.713   7.056   3.193  0.9754 -0.3674  1.1200
  769MOL0     C 3743   8.701   7.136   3.323  0.2929 -0.4039 -0.4233
  769MOL0     C 3744   8.701   7.199   3.429  0.5170  0.0798 -0.0107
  769MOL0     C 3745   8.967   6.894   2.785 -0.3744 -0.9632 -0.1515
  769MOL0     C 3746   9.003   6.755   2.790 -0.3016  0.3369  0.3365
  769MOL0     C 3747   8.911   6.667   2.699 -0.1158 -0.3778 -0.4214
  769MOL0     H 3748   9.182   6.333   3.093 -0.0399  3.9321  0.0134
  769MOL0     H 3749   9.299   6.099   3.088  4.9749 -3.1656 -1.6714
  769MOL0     H 3750   9.392   5.962   2.927 -0.9049 -0.2193  3.6302
  769MOL0     H 3751   9.549   5.930   2.847 -1.4032  0.5887 -1.1389
  769MOL0     H 3752   9.425   5.855   3.122  0.3521  3.3404  0.9847
  769MOL0     H 3753   9.601   5.843   3.105 -1.2912  0.6084  2.5844
  769MOL0     H 3754   9.382   5.670   2.949  0.3199 -1.8763 -0.4618
  769MOL0     H 3755   9.479   5.614   3.076  0.9352 -4.8263 -5.0911
  769MOL0     H 3756   9.562   5.701   2.815 -2.3963  0.3269  1.9839
  769MOL0     H 3757   9.686   5.680   2.946 -2.4651  1.9900  6.6251
  769MOL0     H 3758   9.574   5.447   2.964  2.4578 -2.2152 -1.4430
  769MOL0     H 3759   9.477   5.480   2.821 -0.8932 -1.0757  2.4633
  769MOL0     H 3760   9.688   5.507   2.685 -2.1150 -0.0091  0.7021
  769MOL0     H 3761   9.783   5.476   2.833 -0.7955  0.5633  0.0195
  769MOL0     H 3762   9.767   5.283   2.671 -1.8826 -0.3693 -2.3755
  769MOL0     H 3763   9.592   5.262   2.698  1.1906 -0.5052 -0.3564
  769MOL0     H 3764   9.771   5.119   2.817  0.5384 -0.5337  0.5334
  769MOL0     H 3765   9.781   5.257   2.934  0.5422  0.1161 -0.5742
  769MOL0     H 3766   9.583   5.278   3.098  1.1100 -1.1159  0.9072
  769MOL0     H 3767   9.237   5.083   3.144  2.0473 -3.3407  0.6588
  769MOL0     H 3768   9.358   5.105   3.260  1.1266 -0.1474 -0.9552
  769MOL0     H 3769   9.307   5.330   3.296 -0.1755  1.7419  0.7686
  769MOL0     H 3770   9.349   5.371   3.133 -0.8197  1.1826 -1.3083
  769MOL0     H 3771   9.100   5.410   3.210  0.2910  3.3032 -3.7994
  769MOL0     H 3772   9.081   5.233   3.167  0.7417 -1.4063  1.0746
  769MOL0     H 3773   9.180   5.307   2.927 -0.5617  0.3386 -0.1419
  769MOL0     H 3774   9.205   5.460   3.003  1.7438 -0.4122  0.0208
  769MOL0     H 3775   9.023   5.152   2.897  1.1794  0.7541 -0.0877
  769MOL0     H 3776   8.854   4.993   2.933 -0.0838  0.6591 -0.5282
  769MOL0     H 3777   8.702   4.714   2.991  0.2402 -0.6436 -1.4441
  769MOL0     H 3778   8.585   4.487   3.003  1.1324 -0.2869  2.0929
  769MOL0     H 3779   8.454   4.305   3.058  1.3470  2.0142  0.3285
  769MOL0     H 3780   8.447   4.388   3.210  0.5748 -2.9564  0.8796
  769MOL0     H 3781   8.198   4.241   3.087 -1.7716 -1.7498  1.5419
  769MOL0     H 3782   8.302   4.149   3.208 -1.4199 -0.9118  0.1955
  769MOL0     H 3783   8.276   4.373   3.337 -0.4437  0.0587 -0.2614
  769MOL0     H 3784   8.117   4.371   3.256 -1.8292 -3.0220  0.3030
  769MOL0     H 3785   8.197   4.120   3.400  2.5645  0.6905  0.0307
  769MOL0     H 3786   8.041   4.177   3.366  2.0672 -3.2818 -2.7231
  769MOL0     H 3787   8.225   4.318   3.561 -0.2204  1.5342 -1.1329
  769MOL0     H 3788   8.089   4.213   3.607  1.1844 -0.2895 -0.1622
  769MOL0     H 3789   8.090   4.481   3.487 -0.0738  0.6179  1.4563
  769MOL0     H 3790   7.956   4.364   3.455  1.6899 -0.9101 -2.4114
  769MOL0     H 3791   7.967   4.548   3.671 -0.3087  0.0658 -1.7818
  769MOL0     H 3792   8.041   4.397   3.737 -0.7868  1.2215  1.8696
  769MOL0     H 3793   7.778   4.417   3.609  1.7001  2.1603 -0.7701
  769MOL0     H 3794   7.838   4.271   3.683  0.8652  0.2823  2.8134
  769MOL0     H 3795   8.208   4.699   3.049 -1.0070  1.2681 -0.2500
  769MOL0     H 3796   8.327   4.906   2.972  0.8591 -0.0243  2.1483
  769MOL0     H 3797   8.581   5.323   3.027 -0.7833 -1.8293  0.8807
  769MOL0     H 3798   8.773   5.477   3.009  0.3645 -0.2733  3.4154
  769MOL0     H 3799   9.640   6.287   2.887 -0.5893 -0.8825 -2.3828
  769MOL0     H 3800   9.490   6.496   2.871 -0.3345  0.2745  1.6036
  769MOL0     H 3801   9.208   6.775   3.070  0.5787 -2.8609 -0.4547
  769MOL0     H 3802   9.176   7.004   3.033  3.4901 -1.1393 -0.6875
  769MOL0     H 3803   8.981   7.311   2.951  3.0915  1.9607  1.5948
  769MOL0     H 3804   9.106   7.215   3.030 -0.3699 -1.4164 -0.8231
  769MOL0     H 3805   8.921   7.259   3.186 -2.2717 -1.3540  2.7684
  769MOL0     H 3806   8.971   7.099   3.178 -1.3034  0.8123 -0.7237
  769MOL0     H 3807   8.791   7.060   2.999  1.1399  0.0480 -0.8552
  769MOL0     H 3808   8.726   7.220   3.047  0.5513 -0.7293 -1.3462
  769MOL0     H 3809   8.614   7.019   3.167  1.8376 -1.2125 -1.1869
  769MOL0     H 3810   8.767   6.962   3.209  2.5646  0.2444 -0.3814
  769MOL0     H 3811   8.688   7.263   3.514  0.6659  1.4458 -0.9804
  769MOL0     H 3812   8.911   6.939   2.705  1.4417 -0.8443 -1.4240
  769MOL0     H 3813   8.814   6.717   2.690 -0.6248 -0.6106  2.5106
  769MOL0     H 3814   8.967   6.641   2.609  4.2578 -0.1121  1.9661
  769MOL0     H 3815   8.880   6.575   2.749 -0.3695  0.4447  1.0181
  770MOL0     O 3816   9.904   4.213   4.209  0.1753  0.1404  0.2283
  770MOL0     C 3817   9.790   4.207   4.164  0.1432 -0.1066  0.2900
  770MOL0     O 3818   9.695   4.115   4.200 -0.4356  0.4609 -0.0206
  770MOL0     C 3819   9.749   4.013   4.268  0.5369 -0.1835  0.1219
  770MOL0     C 3820   9.742   4.007   4.409 -0.7416 -0.9644 -1.0654
  770MOL0     C 3821   9.771   3.889   4.479  0.3431  0.4076 -0.1559
  770MOL0     C 3822   9.817   3.774   4.403  1.2231 -0.7147 -0.1996
  770MOL0     O 3823   9.864   3.656   4.465  0.1043  0.2646 -0.2054
  770MOL0     C 3824   9.879   3.657   4.611 -1.3590 -0.0841 -0.0532
  770MOL0     C 3825   9.936   3.527   4.676 -0.0754 -0.5143 -0.1117
  770MOL0     C 3826   9.937   3.532   4.821 -0.0172 -0.6830 -0.0993
  770MOL0     C 3827   9.965   3.392   4.874  0.0513 -0.3321  0.0897
  770MOL0     C 3828  10.021   3.383   5.012 -0.0569 -0.1561  0.8911
  770MOL0     C 3829  10.171   3.398   5.032 -0.7232 -0.1523  0.5734
  770MOL0     C 3830  10.215   3.422   5.180  0.4540  0.1317  0.7599
  770MOL0     C 3831  10.369   3.418   5.192 -0.3476 -1.1302  0.0669
  770MOL0     N 3832  10.411   3.281   5.211  0.3692 -0.4193 -0.5659
  770MOL0     C 3833  10.448   3.183   5.122 -0.5219  0.2305 -0.2072
  770MOL0     C 3834  10.471   3.071   5.194  0.3210  0.2809 -0.2928
  770MOL0     C 3835  10.507   2.930   5.150 -0.6770  0.3697 -0.7764
  770MOL0     C 3836  10.652   2.896   5.213  0.4654  0.5746 -0.1360
  770MOL0     C 3837  10.700   2.762   5.158  0.4333 -0.0844 -0.0233
  770MOL0     C 3838  10.741   2.667   5.269 -0.0684  0.7802 -0.7996
  770MOL0     O 3839  10.772   2.532   5.221 -0.1025  0.3705 -0.5012
  770MOL0     C 3840  10.803   2.430   5.308 -0.3626  0.3286  0.0305
  770MOL0     C 3841  10.830   2.445   5.449  0.6882  0.4423 -0.0985
  770MOL0     C 3842  10.862   2.332   5.525  0.6744  0.5317  0.4077
  770MOL0     C 3843  10.861   2.197   5.473  0.5309  0.0078 -0.9558
  770MOL0     C 3844  10.905   2.086   5.554 -0.1426 -0.0619  0.5191
  770MOL0     O 3845  10.874   2.100   5.689  0.0015 -0.1282 -0.0377
  770MOL0     C 3846  10.889   2.002   5.778 -0.0680 -0.4070 -0.2741
  770MOL0     C 3847  10.877   1.865   5.761  0.7010  0.4405 -0.0288
  770MOL0     C 3848  10.892   1.781   5.872  0.7305  1.3975 -0.2064
  770MOL0     C 3849  10.939   1.825   5.993 -0.0978  0.6079  0.3435
  770MOL0     O 3850  10.950   1.732   6.097  0.7839 -0.8443  0.8655
  770MOL0     C 3851  11.067   1.660   6.100 -0.6003 -0.0856 -0.2993
  770MOL0     C 3852  11.077   1.575   6.228 -0.2206  1.1806 -0.8166
  770MOL0     C 3853  11.038   1.656   6.351  0.8264 -0.9865  1.0215
  770MOL0     C 3854  11.031   1.559   6.473 -0.3506 -0.6701  0.2218
  770MOL0     C 3855  11.037   1.642   6.610 -0.4080 -0.5327  0.6171
  770MOL0     C 3856  11.064   1.551   6.731 -0.9039  0.4468 -0.0912
  770MOL0     C 3857  11.106   1.624   6.866  0.4207  0.9059 -0.5414
  770MOL0     C 3858  10.994   1.704   6.944  0.3856 -0.0526  0.8718
  770MOL0    Cl 3859  10.879   1.603   7.017  0.0892 -0.3406 -0.1822
  770MOL0     C 3860  10.951   1.955   6.010 -0.8719 -0.3542 -0.2742
  770MOL0     C 3861  10.929   2.043   5.904 -0.5437  0.6466 -0.0588
  770MOL0     O 3862  10.979   1.995   5.510  0.6844  0.0742 -0.3494
  770MOL0     C 3863  10.829   2.190   5.336  0.4195 -0.1928  0.1377
  770MOL0     C 3864  10.803   2.300   5.253  0.4869 -0.6733  0.4140
  770MOL0     N 3865  10.449   3.104   5.329 -0.7290  0.2662  0.3387
  770MOL0     N 3866  10.409   3.228   5.339 -0.6159 -0.0182  0.1906
  770MOL0     C 3867   9.826   3.783   4.263 -0.2848  0.9982 -0.1163
  770MOL0     C 3868   9.788   3.900   4.199 -1.0561  1.0056 -0.9551
  770MOL0     C 3869   9.742   4.303   4.063 -0.5904 -0.4710  0.8282
  770MOL0     C 3870   9.678   4.246   3.947  0.5861  0.2486  0.1339
  770MOL0     C 3871   9.604   4.318   3.844 -0.3885  0.2556 -0.4530
  770MOL0     C 3872   9.600   4.457   3.846 -0.2663  0.7176 -0.5329
  770MOL0     O 3873   9.545   4.533   3.743 -0.3240  0.5422 -0.6663
  770MOL0     C 3874   9.545   4.684   3.746  0.5404  0.3090  0.7724
  770MOL0     C 3875   9.456   4.732   3.634 -0.5778  0.0534 -0.2916
  770MOL0     C 3876   9.418   4.879   3.655  0.0918 -0.6183  0.0933
  770MOL0     C 3877   9.343   4.929   3.533 -0.0224  0.0727  0.2337
  770MOL0     C 3878   9.318   5.074   3.538 -0.0506 -0.4393 -0.4502
  770MOL0     C 3879   9.300   5.191   3.542 -0.3596 -0.5144  0.0612
  770MOL0     C 3880   9.674   4.516   3.957 -0.0103 -0.1758  0.4500
  770MOL0     C 3881   9.746   4.448   4.059 -0.0149 -0.0394  0.1323
  770MOL0     C 3882   9.819   4.531   4.154  0.3090  0.0813  0.5994
  770MOL0     H 3883   9.700   4.090   4.464  3.8017  0.3710  0.7706
  770MOL0     H 3884   9.743   3.878   4.583  0.3866 -0.5181 -0.2387
  770MOL0     H 3885   9.956   3.731   4.634  4.3843 -5.7586  2.1153
  770MOL0     H 3886   9.790   3.685   4.669  0.9784  3.7511  2.0387
  770MOL0     H 3887  10.032   3.495   4.634 -0.0088 -1.3481  0.6513
  770MOL0     H 3888   9.863   3.452   4.643 -1.1475 -1.3287  3.6966
  770MOL0     H 3889   9.847   3.568   4.872  0.2375 -1.2567  0.7798
  770MOL0     H 3890  10.020   3.597   4.849  1.5119 -2.4882 -0.1805
  770MOL0     H 3891   9.874   3.331   4.867  0.8812 -1.8062  1.2880
  770MOL0     H 3892  10.046   3.352   4.812  1.8172  1.2512  1.2557
  770MOL0     H 3893   9.971   3.467   5.062 -5.6055 -0.0823 -3.8207
  770MOL0     H 3894   9.988   3.289   5.059 -0.3657 -0.3551  0.2837
  770MOL0     H 3895  10.234   3.313   5.004 -1.9847 -2.0985  3.2248
  770MOL0     H 3896  10.215   3.478   4.972  0.2777 -1.4063 -0.4494
  770MOL0     H 3897  10.157   3.351   5.241 -3.1259  1.0302 -1.2966
  770MOL0     H 3898  10.175   3.518   5.215 -3.6404 -2.7649  5.5471
  770MOL0     H 3899  10.417   3.474   5.112  0.3356 -1.6237  0.1204
  770MOL0     H 3900  10.397   3.481   5.277 -0.3449 -2.7932  1.3639
  770MOL0     H 3901  10.456   3.185   5.014  0.0697 -0.7187 -0.1920
  770MOL0     H 3902  10.438   2.855   5.190  0.2234 -0.0520  0.0370
  770MOL0     H 3903  10.511   2.918   5.041  1.4362  0.8035 -0.7788
  770MOL0     H 3904  10.723   2.976   5.188  0.4457  1.1113  1.4349
  770MOL0     H 3905  10.635   2.892   5.321 -0.5830  2.3609 -0.1929
  770MOL0     H 3906  10.779   2.789   5.088 -0.5303  0.1761 -1.0261
  770MOL0     H 3907  10.621   2.720   5.095  0.0686  1.9571 -1.0130
  770MOL0     H 3908  10.669   2.649   5.350  1.0252  3.3964  0.8891
  770MOL0     H 3909  10.832   2.711   5.311 -2.1512  2.0094  2.9141
  770MOL0     H 3910  10.826   2.546   5.489 -0.9769  0.3172  0.1485
  770MOL0     H 3911  10.878   2.354   5.630 -3.0909 -0.8479  1.4308
  770MOL0     H 3912  10.854   1.828   5.662  2.9711 -0.2082 -0.3785
  770MOL0     H 3913  10.883   1.674   5.855 -1.7511  1.4357  0.5668
  770MOL0     H 3914  11.065   1.589   6.017  1.1059 -0.1988 -0.2830
  770MOL0     H 3915  11.157   1.721   6.115 -0.0056 -1.1956  0.9491
  770MOL0     H 3916  11.012   1.489   6.214 -0.2368  1.0424  0.0493
  770MOL0     H 3917  11.180   1.543   6.247 -1.6279 -2.9827  0.9378
  770MOL0     H 3918  11.117   1.731   6.363  0.9652 -0.9478 -0.0939
  770MOL0     H 3919  10.942   1.706   6.340  1.5862 -0.1131 -3.1702
  770MOL0     H 3920  11.117   1.493   6.464  0.1881 -0.2453  1.8487
  770MOL0     H 3921  10.944   1.494   6.460  1.3855 -3.2562  0.7883
  770MOL0     H 3922  10.942   1.696   6.620 -1.2213 -1.2781 -2.1767
  770MOL0     H 3923  11.121   1.711   6.617 -0.5602 -0.5059  3.3980
  770MOL0     H 3924  10.974   1.491   6.745 -0.1988 -0.7464 -0.5120
  770MOL0     H 3925  11.149   1.485   6.711 -0.3084  0.6760  1.5314
  770MOL0     H 3926  11.187   1.692   6.840  1.4410  0.4609  1.2936
  770MOL0     H 3927  11.152   1.552   6.934 -3.8751 -0.3244  1.4019
  770MOL0     H 3928  11.036   1.769   7.022 -0.7042  0.1817  1.2882
  770MOL0     H 3929  10.944   1.769   6.872 -0.9754  1.4157  3.0162
  770MOL0     H 3930  11.008   1.986   6.098  0.1000  1.5076 -1.4873
  770MOL0     H 3931  10.948   2.149   5.914 -1.4301  0.6484  2.3472
  770MOL0     H 3932  10.824   2.096   5.281 -2.1102 -0.4658  0.7158
  770MOL0     H 3933  10.781   2.304   5.147  2.0240 -1.5733  0.0439
  770MOL0     H 3934   9.867   3.692   4.221 -2.0040  0.0449  0.1710
  770MOL0     H 3935   9.783   3.897   4.091  3.3386  0.9262 -1.3346
  770MOL0     H 3936   9.673   4.137   3.947  0.4952  0.2505 -0.2032
  770MOL0     H 3937   9.549   4.275   3.761 -1.1613 -0.1883  0.2802
  770MOL0     H 3938   9.649   4.718   3.737  0.9708 -0.6109  1.9704
  770MOL0     H 3939   9.516   4.713   3.848  2.1564 -0.6773  1.5576
  770MOL0     H 3940   9.363   4.676   3.630 -0.5706 -0.0860  1.0321
  770MOL0     H 3941   9.505   4.705   3.540 -1.0555  5.0157 -2.2765
  770MOL0     H 3942   9.501   4.948   3.671  0.5602 -0.9077 -1.0127
  770MOL0     H 3943   9.346   4.875   3.738 -0.4844 -3.3311 -0.4519
  770MOL0     H 3944   9.405   4.900   3.448  1.9724 -0.9029  1.9349
  770MOL0     H 3945   9.248   4.876   3.533  0.7097 -1.2863  0.3471
  770MOL0     H 3946   9.268   5.291   3.520 -0.1361  0.1072  2.3208
  770MOL0     H 3947   9.683   4.624   3.965  4.2734 -0.3426 -0.0096
  770MOL0     H 3948   9.747   4.555   4.232 -1.2952  0.1500 -0.8373
  770MOL0     H 3949   9.905   4.478   4.197  0.1703  2.3164  4.0227
  770MOL0     H 3950   9.860   4.622   4.109 -2.9400 -0.1237 -3.2986
  771MOL0     O 3951  10.787   0.336   3.792  0.2468 -0.0980 -0.1101
  771MOL0     C 3952  10.845   0.344   3.686  0.1656  1.4830 -0.1581
  771MOL0     O 3953  10.851   0.245   3.587 -0.4063  0.0753 -0.5913
  771MOL0     C 3954  10.765   0.141   3.600  0.1062  0.4832  0.2557
  771MOL0     C 3955  10.621   0.162   3.627 -0.3878  1.2767 -0.7646
  771MOL0     C 3956  10.548   0.038   3.630 -0.1045 -0.6064 -0.8316
  771MOL0     C 3957  10.600  -0.084   3.600  0.1886 -0.1421 -0.1209
  771MOL0     O 3958  10.517  -0.190   3.628  0.3663 -0.3367 -0.0168
  771MOL0     C 3959  10.397  -0.203   3.544  0.5798  0.4829  0.6493
  771MOL0     C 3960  10.291  -0.287   3.614 -0.0741  0.0344 -0.9086
  771MOL0     C 3961  10.160  -0.288   3.531  0.0864  0.5750 -0.9571
  771MOL0     C 3962  10.044  -0.363   3.613 -0.1197 -0.4358  0.0626
  771MOL0     C 3963   9.961  -0.454   3.530  0.5006 -0.1343  0.7218
  771MOL0     C 3964   9.846  -0.507   3.618  0.5196  0.9200  0.8840
  771MOL0     C 3965   9.752  -0.580   3.523  0.3279 -0.8035 -0.0909
  771MOL0     C 3966   9.817  -0.712   3.469  0.5842  0.0145  0.4362
  771MOL0     N 3967   9.705  -0.812   3.425 -0.4008  0.4610 -0.3564
  771MOL0     C 3968   9.607  -0.863   3.504 -0.4211 -0.4181 -0.3251
  771MOL0     C 3969   9.539  -0.956   3.443 -0.0652  1.0836  0.1275
  771MOL0     C 3970   9.422  -1.038   3.490  0.0081  0.9243 -0.2461
  771MOL0     C 3971   9.472  -1.185   3.533 -1.0480  0.4385 -0.2468
  771MOL0     C 3972   9.577  -1.197   3.652 -0.0961 -0.4382 -0.7726
  771MOL0     C 3973   9.725  -1.195   3.605 -0.4082 -0.2395  0.7062
  771MOL0     O 3974   9.805  -1.203   3.720 -0.4171  0.2679 -0.0296
  771MOL0     C 3975   9.935  -1.244   3.703 -0.1544  0.0009  0.2715
  771MOL0     C 3976   9.993  -1.245   3.576 -0.5528  1.4225  1.2196
  771MOL0     C 3977  10.122  -1.292   3.565  0.3078 -1.1526 -0.1157
  771MOL0     C 3978  10.204  -1.325   3.676  0.4991 -0.6211 -0.4438
  771MOL0     C 3979  10.357  -1.361   3.668  1.0584  0.8229 -0.7166
  771MOL0     O 3980  10.408  -1.462   3.746 -0.1000 -0.1208 -0.1070
  771MOL0     C 3981  10.551  -1.467   3.749 -0.6680 -0.0652 -0.4208
  771MOL0     C 3982  10.616  -1.559   3.668 -0.4945  0.1332 -1.0090
  771MOL0     C 3983  10.756  -1.588   3.678 -0.3159  0.1898  0.7710
  771MOL0     C 3984  10.837  -1.510   3.757 -0.6972 -0.0610 -0.1287
  771MOL0     O 3985  10.968  -1.532   3.749 -0.7839  0.3200  0.1167
  771MOL0     C 3986  11.062  -1.494   3.856  0.8919  0.1821  0.0831
  771MOL0     C 3987  11.076  -1.614   3.950 -0.5854  0.1418 -0.2825
  771MOL0     C 3988  10.957  -1.704   3.973  1.0027  0.0359 -0.3932
  771MOL0     C 3989  10.882  -1.654   4.104 -0.4467  0.2900 -0.1903
  771MOL0     C 3990  10.758  -1.732   4.130  0.8366 -0.3820 -0.2340
  771MOL0     C 3991  10.697  -1.705   4.270 -0.8551 -0.7964 -0.8124
  771MOL0     C 3992  10.604  -1.819   4.297 -0.9085  0.3959  0.2455
  771MOL0     C 3993  10.513  -1.805   4.413  0.5057 -0.8532 -0.5102
  771MOL0    Cl 3994  10.454  -1.969   4.467 -0.2246 -0.2821 -0.1751
  771MOL0     C 3995  10.771  -1.409   3.845  0.9935  0.5049 -0.5423
  771MOL0     C 3996  10.628  -1.398   3.838 -0.0754 -0.3819 -0.0956
  771MOL0     O 3997  10.420  -1.287   3.603  0.4744 -0.7432  0.0460
  771MOL0     C 3998  10.134  -1.329   3.795  0.8141  0.1074  0.5401
  771MOL0     C 3999  10.003  -1.282   3.812  0.1369 -0.7684  0.2423
  771MOL0     N 4000   9.593  -0.952   3.314  0.4313  0.6907  0.2019
  771MOL0     N 4001   9.691  -0.876   3.304 -0.2864 -0.2738 -0.1789
  771MOL0     C 4002  10.732  -0.108   3.575 -0.1013 -0.0838  0.2944
  771MOL0     C 4003  10.819   0.016   3.578 -0.3332  1.3532  0.6308
  771MOL0     C 4004  10.920   0.472   3.665  0.9138  0.4979 -0.3647
  771MOL0     C 4005  10.974   0.495   3.534  0.2354  0.5624 -0.7127
  771MOL0     C 4006  11.025   0.618   3.499  0.3892 -0.1062 -0.5111
  771MOL0     C 4007  11.038   0.733   3.589  0.9254  1.0998 -0.5916
  771MOL0     O 4008  11.088   0.855   3.540  0.4261 -0.0387  0.6598
  771MOL0     C 4009  11.025   0.978   3.590 -0.3396 -0.6047  0.2696
  771MOL0     C 4010  10.887   0.976   3.514 -0.3296 -0.4479 -0.5252
  771MOL0     C 4011  10.901   0.997   3.364 -0.0395 -0.9544 -0.1689
  771MOL0     C 4012  10.920   1.151   3.334 -0.0944 -0.3699  0.3165
  771MOL0     C 4013  10.983   1.149   3.206 -0.7854  0.4273 -0.0341
  771MOL0     C 4014  11.033   1.163   3.100 -0.0552  0.7990  0.9382
  771MOL0     C 4015  10.982   0.713   3.725  0.0811  0.1444 -0.8333
  771MOL0     C 4016  10.923   0.583   3.756 -0.4506  0.1211 -0.2108
  771MOL0     C 4017  10.868   0.585   3.895 -0.3637 -0.0533  1.3936
  771MOL0     H 4018  10.578   0.261   3.625 -0.9851  1.0061 -2.7341
  771MOL0     H 4019  10.445   0.041   3.665 -0.0539 -2.5766 -0.3730
  771MOL0     H 4020  10.351  -0.109   3.514 -0.4907 -0.2292 -0.0081
  771MOL0     H 4021  10.425  -0.260   3.455 -0.9840 -2.7042  2.0025
  771MOL0     H 4022  10.268  -0.254   3.715 -2.2427 -2.1454 -0.5913
  771MOL0     H 4023  10.326  -0.390   3.625 -1.0948 -0.0595  2.5301
  771MOL0     H 4024  10.183  -0.349   3.444 -2.4988 -2.3365  0.2062
  771MOL0     H 4025  10.132  -0.185   3.509 -0.3464  0.4938 -0.7971
  771MOL0     H 4026  10.089  -0.435   3.681 -0.0605 -0.6821 -0.2371
  771MOL0     H 4027   9.984  -0.293   3.672 -2.3696 -3.2420  1.3188
  771MOL0     H 4028   9.920  -0.399   3.445  1.6355 -1.3083 -0.6321
  771MOL0     H 4029  10.021  -0.533   3.483  1.0744  0.3954  0.5446
  771MOL0     H 4030   9.873  -0.583   3.692 -1.9108 -1.3987 -0.4707
  771MOL0     H 4031   9.798  -0.419   3.662 -1.0312  0.0066  1.0860
  771MOL0     H 4032   9.718  -0.510   3.446 -1.3669  0.8713  2.0601
  771MOL0     H 4033   9.660  -0.597   3.580  0.8091 -1.0221  0.6321
  771MOL0     H 4034   9.881  -0.704   3.381  1.3924 -1.6935  0.8316
  771MOL0     H 4035   9.874  -0.778   3.535  2.7908 -1.8257 -2.9912
  771MOL0     H 4036   9.583  -0.833   3.605 -2.4788 -0.7512 -0.6747
  771MOL0     H 4037   9.374  -0.995   3.579  0.5905  2.4480 -0.6308
  771MOL0     H 4038   9.340  -1.056   3.420 -0.4946 -2.8111  1.0881
  771MOL0     H 4039   9.388  -1.250   3.558  0.4064 -0.4319  2.9387
  771MOL0     H 4040   9.523  -1.217   3.442 -0.4622  2.6209 -0.7517
  771MOL0     H 4041   9.548  -1.290   3.702 -0.3695 -0.9646 -1.8765
  771MOL0     H 4042   9.553  -1.118   3.723 -0.5414  2.4764 -3.9514
  771MOL0     H 4043   9.762  -1.107   3.552  0.3849 -0.2985  1.1395
  771MOL0     H 4044   9.741  -1.276   3.533  1.9806  1.5540 -0.9443
  771MOL0     H 4045   9.960  -1.192   3.488  0.0674  1.5034  1.0250
  771MOL0     H 4046  10.173  -1.277   3.470  0.3564  2.7669  0.3580
  771MOL0     H 4047  10.547  -1.613   3.603 -1.1318  2.2099 -2.1314
  771MOL0     H 4048  10.809  -1.665   3.623  0.1774  1.1595 -0.1440
  771MOL0     H 4049  11.159  -1.466   3.816  0.6703 -0.1176 -0.6861
  771MOL0     H 4050  11.019  -1.413   3.916 -3.2263 -0.6131 -1.4450
  771MOL0     H 4051  11.150  -1.682   3.907  1.2545  0.8810  1.5326
  771MOL0     H 4052  11.114  -1.578   4.047  0.8390 -2.6450  0.3128
  771MOL0     H 4053  10.889  -1.723   3.890 -1.0841 -0.3263  1.3163
  771MOL0     H 4054  11.005  -1.798   4.000  0.0194 -0.4910 -0.4367
  771MOL0     H 4055  10.865  -1.548   4.125 -0.8250  0.1614  0.1682
  771MOL0     H 4056  10.951  -1.686   4.182 -0.8547  1.9760  0.9233
  771MOL0     H 4057  10.785  -1.836   4.112 -0.5954 -0.6461 -1.0168
  771MOL0     H 4058  10.683  -1.698   4.057  1.8752  0.8384 -0.7783
  771MOL0     H 4059  10.769  -1.699   4.353  0.6814  0.1677 -2.1563
  771MOL0     H 4060  10.640  -1.612   4.274 -1.3397 -1.1181  0.2129
  771MOL0     H 4061  10.660  -1.910   4.320  1.4990  1.6967 -0.0743
  771MOL0     H 4062  10.530  -1.828   4.218 -1.1416  0.4333  0.4589
  771MOL0     H 4063  10.575  -1.766   4.494  0.2728 -0.5277 -0.4869
  771MOL0     H 4064  10.431  -1.734   4.399 -1.4064 -2.3826  1.9923
  771MOL0     H 4065  10.836  -1.347   3.907  0.9910 -0.5164  0.5192
  771MOL0     H 4066  10.585  -1.320   3.901 -3.2568 -0.2626 -2.2069
  771MOL0     H 4067  10.178  -1.365   3.888 -0.5248 -3.4747 -0.0666
  771MOL0     H 4068   9.956  -1.281   3.910 -2.9117  1.5300 -1.0993
  771MOL0     H 4069  10.760  -0.212   3.561 -2.6284 -0.5684 -1.9190
  771MOL0     H 4070  10.927   0.008   3.583 -0.4795 -1.6489  0.5634
  771MOL0     H 4071  10.970   0.426   3.450  0.5586 -0.4323  0.0715
  771MOL0     H 4072  11.062   0.634   3.399 -0.3300  2.9364 -0.3923
  771MOL0     H 4073  11.076   1.068   3.554 -1.1613 -0.8948 -1.7645
  771MOL0     H 4074  11.002   0.984   3.697 -1.5556 -1.0584  0.0459
  771MOL0     H 4075  10.822   1.053   3.556  2.6079  1.3460  1.1373
  771MOL0     H 4076  10.828   0.884   3.524 -0.6167 -0.3205 -1.0243
  771MOL0     H 4077  10.810   0.965   3.311 -1.0412 -0.5547  1.2572
  771MOL0     H 4078  10.981   0.937   3.320  1.2356  1.3775 -1.2288
  771MOL0     H 4079  10.824   1.204   3.331  0.5306  0.9888  2.4558
  771MOL0     H 4080  10.978   1.209   3.407  2.1742  0.1373 -1.7596
  771MOL0     H 4081  11.059   1.196   3.000 -0.8180 -1.6115 -0.1110
  771MOL0     H 4082  10.981   0.801   3.788  0.1364 -1.0335  0.8676
  771MOL0     H 4083  10.765   0.549   3.893 -1.4268  2.7963 -0.3138
  771MOL0     H 4084  10.929   0.517   3.956  2.3703 -2.6592 -3.6525
  771MOL0     H 4085  10.871   0.683   3.944  0.8221  0.1627  0.9296
  772MOL0     O 4086  11.461  11.066   7.490 -0.4917  0.0627 -0.6710
  772MOL0     C 4087  11.461  11.172   7.556  0.4401  0.6620  0.7713
  772MOL0     O 4088  11.566  11.258   7.545  0.0892 -0.3782 -0.0997
  772MOL0     C 4089  11.679  11.219   7.488  0.5990 -0.0902  0.4816
  772MOL0     C 4090  11.771  11.156   7.575  0.5180  0.8591  0.4368
  772MOL0     C 4091  11.891  11.119   7.519  0.0091  0.5548 -0.4287
  772MOL0     C 4092  11.918  11.139   7.384  0.1495 -0.8527  0.0869
  772MOL0     O 4093  12.040  11.096   7.345  0.1325  0.3628 -0.4961
  772MOL0     C 4094  12.115  11.198   7.282  0.5307 -1.0615  0.0663
  772MOL0     C 4095  12.259  11.171   7.291  0.2721  0.5517  1.4720
  772MOL0     C 4096  12.308  11.058   7.199 -1.0237  1.0566 -0.6925
  772MOL0     C 4097  12.455  11.046   7.203  0.1757 -0.2217 -0.5797
  772MOL0     C 4098  12.499  10.971   7.083 -0.0472 -0.1237  0.1207
  772MOL0     C 4099  12.632  10.912   7.102 -0.6978 -0.1962 -0.6711
  772MOL0     C 4100  12.687  10.871   6.982  0.2083  0.3838  0.0070
  772MOL0     C 4101  12.842  10.892   7.010 -0.4386  1.0039 -0.3106
  772MOL0     N 4102  12.883  10.799   7.116  0.4272 -0.1581 -0.2038
  772MOL0     C 4103  12.937  10.842   7.230  0.7016  0.2166 -0.0734
  772MOL0     C 4104  12.935  10.736   7.310 -0.1093 -0.2591  0.3210
  772MOL0     C 4105  12.984  10.736   7.446  1.1451  0.0855  0.0405
  772MOL0     C 4106  12.899  10.845   7.525 -0.8782 -0.0831  0.8453
  772MOL0     C 4107  12.761  10.815   7.555  0.9649  0.7952  0.3729
  772MOL0     C 4108  12.704  10.904   7.661 -0.6031  0.0996  0.0297
  772MOL0     O 4109  12.587  10.968   7.612 -0.5077 -0.2357 -0.2702
  772MOL0     C 4110  12.462  10.932   7.645 -0.3988  0.5542 -0.9044
  772MOL0     C 4111  12.378  10.862   7.560  0.2040 -0.2702 -0.1958
  772MOL0     C 4112  12.246  10.830   7.606  0.0467 -0.4396 -0.7702
  772MOL0     C 4113  12.195  10.875   7.731  0.1091  0.1608 -0.5788
  772MOL0     C 4114  12.053  10.863   7.748  0.5719  0.3852  0.3812
  772MOL0     O 4115  11.988  10.761   7.694 -0.1712  0.0564  0.6349
  772MOL0     C 4116  11.847  10.760   7.691 -0.3541 -0.0966 -0.3537
  772MOL0     C 4117  11.784  10.678   7.784  0.0935 -0.0996  0.2858
  772MOL0     C 4118  11.647  10.663   7.778  0.8025 -0.0453  0.6723
  772MOL0     C 4119  11.583  10.702   7.659  0.2085  0.4875  0.1893
  772MOL0     O 4120  11.448  10.685   7.651 -0.4670  0.2604 -0.4435
  772MOL0     C 4121  11.375  10.706   7.527 -0.2481 -1.5468  0.3556
  772MOL0     C 4122  11.248  10.631   7.538  0.4300  0.6961 -0.6951
  772MOL0     C 4123  11.155  10.657   7.408  0.3114 -0.3093  0.3404
  772MOL0     C 4124  11.046  10.549   7.398  0.8408  0.2298  0.0739
  772MOL0     C 4125  10.991  10.553   7.256 -0.4741  0.0673  0.2187
  772MOL0     C 4126  10.927  10.681   7.228  0.4313 -0.3379 -0.5185
  772MOL0     C 4127  10.849  10.674   7.101 -0.0698 -0.5033 -0.3256
  772MOL0     C 4128  10.713  10.603   7.129 -0.5434  0.3265 -0.5097
  772MOL0    Cl 4129  10.716  10.434   7.113  0.3535  0.5638  0.1348
  772MOL0     C 4130  11.644  10.770   7.562  0.1278 -0.3557 -1.4138
  772MOL0     C 4131  11.776  10.805   7.588  0.7014  0.0583  0.3859
  772MOL0     O 4132  12.006  10.944   7.833  0.3760  0.2862 -0.4914
  772MOL0     C 4133  12.283  10.921   7.825  0.2311  0.8207 -0.3172
  772MOL0     C 4134  12.414  10.960   7.781  0.2846  0.0660  0.1997
  772MOL0     N 4135  12.901  10.623   7.238  0.3517 -0.8066 -0.2304
  772MOL0     N 4136  12.861  10.666   7.125 -0.1875  0.5207 -0.4962
  772MOL0     C 4137  11.822  11.206   7.306 -0.7398 -0.3569  0.1040
  772MOL0     C 4138  11.705  11.248   7.351  0.3576  0.0086  0.4633
  772MOL0     C 4139  11.329  11.208   7.616 -0.0200 -0.1394 -0.9352
  772MOL0     C 4140  11.212  11.132   7.593  0.4739 -1.7168 -0.1852
  772MOL0     C 4141  11.083  11.188   7.629 -0.8404 -0.3843  0.5438
  772MOL0     C 4142  11.074  11.314   7.676 -0.4621  0.0942 -0.2797
  772MOL0     O 4143  10.948  11.373   7.671  0.2637  0.5800 -0.2587
  772MOL0     C 4144  10.869  11.339   7.789 -0.2334  0.4264  0.3637
  772MOL0     C 4145  10.721  11.342   7.754  0.2651 -0.9384 -0.4174
  772MOL0     C 4146  10.675  11.267   7.629 -0.5537  0.6123 -0.1347
  772MOL0     C 4147  10.525  11.294   7.602 -0.0199 -0.2427  0.1933
  772MOL0     C 4148  10.506  11.443   7.599  0.6000 -0.3414  0.5524
  772MOL0     C 4149  10.474  11.557   7.572  0.6138 -0.2870 -1.1884
  772MOL0     C 4150  11.188  11.381   7.709 -0.8339  0.1564 -0.0524
  772MOL0     C 4151  11.319  11.328   7.697  0.2196 -0.7883 -0.1753
  772MOL0     C 4152  11.433  11.403   7.759  0.3815  0.1457 -0.1630
  772MOL0     H 4153  11.742  11.144   7.679  1.5746 -1.4537  0.5407
  772MOL0     H 4154  11.973  11.086   7.582 -3.0454 -3.3927  1.8945
  772MOL0     H 4155  12.092  11.198   7.175 -0.5662  1.5482  0.2335
  772MOL0     H 4156  12.101  11.301   7.315  3.4555 -0.6222  0.2462
  772MOL0     H 4157  12.292  11.149   7.393  2.6442 -0.9178  0.4663
  772MOL0     H 4158  12.301  11.263   7.250 -0.3185  0.2671  0.1453
  772MOL0     H 4159  12.284  11.085   7.096 -1.3448  1.4602 -0.5141
  772MOL0     H 4160  12.257  10.961   7.210 -1.6817  1.5594  1.0639
  772MOL0     H 4161  12.506  11.142   7.213 -0.7457  0.0498  3.2552
  772MOL0     H 4162  12.490  11.002   7.297  1.2757  0.8386 -0.4607
  772MOL0     H 4163  12.425  10.902   7.042  1.7638 -0.6266 -2.5256
  772MOL0     H 4164  12.507  11.037   6.996  0.1315 -1.3820 -0.8471
  772MOL0     H 4165  12.694  10.990   7.147  1.2020 -0.1579 -3.1573
  772MOL0     H 4166  12.623  10.832   7.176 -0.5463  0.2571 -0.1575
  772MOL0     H 4167  12.659  10.915   6.886 -0.6713 -4.5023 -2.2823
  772MOL0     H 4168  12.665  10.766   6.960  2.6367 -0.4817  1.4083
  772MOL0     H 4169  12.902  10.877   6.920  2.0188 -0.2676  1.4330
  772MOL0     H 4170  12.873  10.991   7.043 -2.7869  0.2719  5.1993
  772MOL0     H 4171  12.946  10.945   7.265 -2.4814  0.7487 -0.4345
  772MOL0     H 4172  12.976  10.640   7.497 -1.8832 -0.1292 -0.6406
  772MOL0     H 4173  13.088  10.768   7.449  2.1178 -2.3254 -3.1537
  772MOL0     H 4174  12.950  10.861   7.621  1.6260 -2.7791  0.0976
  772MOL0     H 4175  12.902  10.942   7.474  0.3772 -0.1651  0.7139
  772MOL0     H 4176  12.746  10.711   7.586 -2.1392  0.5804 -1.5087
  772MOL0     H 4177  12.696  10.824   7.468  1.9045  1.8356 -0.2543
  772MOL0     H 4178  12.767  10.986   7.694 -2.8287  2.0929 -0.4044
  772MOL0     H 4179  12.681  10.839   7.746  2.3111 -1.1613 -0.0249
  772MOL0     H 4180  12.415  10.824   7.465  0.9131 -1.5038  0.5368
  772MOL0     H 4181  12.177  10.779   7.540 -2.3213  2.2555 -0.5504
  772MOL0     H 4182  11.832  10.633   7.870 -0.2150  0.8971  0.9968
  772MOL0     H 4183  11.584  10.619   7.855 -3.1479  0.7953 -1.8236
  772MOL0     H 4184  11.356  10.813   7.518  4.6226 -0.5523 -1.7374
  772MOL0     H 4185  11.432  10.671   7.440  1.0512  1.1758  0.0044
  772MOL0     H 4186  11.269  10.525   7.555  0.2312  1.0744  2.5268
  772MOL0     H 4187  11.188  10.669   7.621 -0.4598 -1.4315 -0.2991
  772MOL0     H 4188  11.103  10.753   7.403  0.0790 -0.4969 -1.7339
  772MOL0     H 4189  11.220  10.637   7.322  1.0812  0.0351  0.8258
  772MOL0     H 4190  10.975  10.569   7.479 -0.1243 -0.9152 -0.4658
  772MOL0     H 4191  11.091  10.451   7.413  2.4889  1.2293  2.1216
  772MOL0     H 4192  10.919  10.471   7.244  0.3813 -0.3127 -3.3573
  772MOL0     H 4193  11.070  10.536   7.182 -1.3537 -2.8408 -0.1808
  772MOL0     H 4194  10.864  10.705   7.314  1.5524  0.0653  0.2043
  772MOL0     H 4195  11.002  10.761   7.225  0.0550  0.0495  0.2439
  772MOL0     H 4196  10.910  10.628   7.022 -3.3508 -3.4851 -1.3946
  772MOL0     H 4197  10.811  10.774   7.079 -4.5446 -1.6029  1.4364
  772MOL0     H 4198  10.691  10.631   7.233  2.7883  0.6430  0.2360
  772MOL0     H 4199  10.637  10.648   7.065 -2.0481 -2.2184 -0.6662
  772MOL0     H 4200  11.611  10.815   7.469  1.0746  2.0206 -0.6674
  772MOL0     H 4201  11.830  10.860   7.511  1.8636 -0.0989  1.0768
  772MOL0     H 4202  12.254  10.939   7.928 -2.8009 -1.7586 -0.6030
  772MOL0     H 4203  12.475  10.999   7.862 -2.9800  2.0516  1.9105
  772MOL0     H 4204  11.836  11.227   7.200 -0.0056 -0.9715  0.0698
  772MOL0     H 4205  11.623  11.286   7.291  0.1013 -1.3425 -0.0700
  772MOL0     H 4206  11.210  11.038   7.539 -0.6171 -0.8895 -1.6683
  772MOL0     H 4207  11.002  11.129   7.586 -0.4960 -0.9498  0.6653
  772MOL0     H 4208  10.893  11.415   7.864 -1.3972  1.0781  0.1027
  772MOL0     H 4209  10.882  11.236   7.825 -0.2998  0.1962 -0.2668
  772MOL0     H 4210  10.694  11.448   7.766  2.6528 -0.5675  3.1731
  772MOL0     H 4211  10.663  11.300   7.836  2.2902  0.3063  1.7859
  772MOL0     H 4212  10.678  11.161   7.656  1.2164  0.6823  0.0923
  772MOL0     H 4213  10.742  11.283   7.544  1.0513 -2.7278  0.3681
  772MOL0     H 4214  10.486  11.246   7.512  0.2379  1.5809 -0.9437
  772MOL0     H 4215  10.475  11.260   7.693 -1.3777 -0.7423 -0.7171
  772MOL0     H 4216  10.455  11.658   7.541 -0.0543  1.5603  4.1156
  772MOL0     H 4217  11.169  11.483   7.742 -3.1629 -0.5537  0.9998
  772MOL0     H 4218  11.488  11.468   7.690 -1.5414  1.0924 -0.8812
  772MOL0     H 4219  11.391  11.461   7.841 -0.3372  0.0208 -0.4399
  772MOL0     H 4220  11.511  11.336   7.798 -1.3262 -0.4790  2.3714
  773MOL0     O 4221   0.428   9.289  11.243 -0.4340  1.0382 -0.9611
  773MOL0     C 4222   0.528   9.234  11.284 -0.5628 -0.2003 -0.9659
  773MOL0     O 4223   0.534   9.173  11.402 -0.9261 -0.6321  0.8425
  773MOL0     C 4224   0.476   9.231  11.516  0.3498  0.0802 -0.6357
  773MOL0     C 4225   0.415   9.356  11.517  1.1224 -0.0480  0.2873
  773MOL0     C 4226   0.347   9.405  11.637  0.6941  0.8610  1.4626
  773MOL0     C 4227   0.348   9.321  11.754  0.6399  0.0270  0.1743
  773MOL0     O 4228   0.286   9.359  11.879 -0.0636  0.5530 -0.0655
  773MOL0     C 4229   0.259   9.499  11.903 -0.2089 -0.5025  0.5378
  773MOL0     C 4230   0.380   9.610  11.889  0.8627 -0.1048 -0.2728
  773MOL0     C 4231   0.370   9.711  11.999  0.1130  0.4352  0.0675
  773MOL0     C 4232   0.441   9.847  11.963  0.6778  0.0156 -0.2696
  773MOL0     C 4233   0.406   9.946  12.079  0.1580  0.1632 -0.7683
  773MOL0     C 4234   0.507   9.934  12.192 -0.1662 -0.6703 -0.6216
  773MOL0     C 4235   0.476  10.025  12.308 -0.3681 -0.9237  0.1753
  773MOL0     C 4236   0.598  10.034  12.413  0.0615  1.1675  0.3592
  773MOL0     N 4237   0.576  10.131  12.522  0.4173  0.0888 -0.9543
  773MOL0     C 4238   0.522  10.094  12.644  0.3596  0.3461  1.0419
  773MOL0     C 4239   0.549  10.190  12.738  0.4582  0.2659  0.1660
  773MOL0     C 4240   0.531  10.184  12.891  0.0457  0.2732 -0.2345
  773MOL0     C 4241   0.647  10.106  12.960  0.1539 -0.2047  0.2441
  773MOL0     C 4242   0.656  10.152  13.113  0.7206  0.0537 -0.0146
  773MOL0     C 4243   0.733  10.049  13.188  0.0163 -0.3424 -0.9828
  773MOL0     O 4244   0.869  10.054  13.156 -0.4676  0.0105 -0.0608
  773MOL0     C 4245   0.928   9.965  13.070 -0.6988 -0.2441  0.2221
  773MOL0     C 4246   0.866   9.844  13.024  0.1796  0.4756  0.1251
  773MOL0     C 4247   0.927   9.753  12.941  0.0658  0.6521 -0.8772
  773MOL0     C 4248   1.049   9.777  12.889 -0.2806  0.2786  0.2970
  773MOL0     C 4249   1.127   9.680  12.811  0.6460 -0.0854 -0.5375
  773MOL0     O 4250   1.237   9.727  12.762 -0.7647 -0.0884  0.4235
  773MOL0     C 4251   1.331   9.653  12.684 -0.3662 -0.2293  1.3992
  773MOL0     C 4252   1.436   9.727  12.626 -0.2505  0.0775 -0.6515
  773MOL0     C 4253   1.530   9.666  12.547  0.1069  0.2854 -0.9298
  773MOL0     C 4254   1.520   9.530  12.509 -0.2824  0.1469  0.1842
  773MOL0     O 4255   1.612   9.474  12.425  0.9060 -0.3665  0.2316
  773MOL0     C 4256   1.586   9.499  12.281  0.3785 -0.3329 -0.8511
  773MOL0     C 4257   1.709   9.475  12.203  0.0792  0.5947  0.3691
  773MOL0     C 4258   1.714   9.515  12.050 -0.2749  0.7231 -0.0610
  773MOL0     C 4259   1.765   9.660  12.022  0.5760  0.1108  0.8335
  773MOL0     C 4260   1.745   9.693  11.868  0.3630 -0.8669 -0.7087
  773MOL0     C 4261   1.754   9.842  11.856 -0.6030 -0.7799 -0.3162
  773MOL0     C 4262   1.696   9.890  11.713 -0.0305 -0.5908 -0.4157
  773MOL0     C 4263   1.762  10.022  11.671 -0.2485  0.7430 -0.0850
  773MOL0    Cl 4264   1.673  10.146  11.779  0.2091 -0.1535 -0.4411
  773MOL0     C 4265   1.419   9.455  12.573 -0.4001  0.0968 -0.1118
  773MOL0     C 4266   1.327   9.511  12.652 -0.5683  0.2922 -0.9565
  773MOL0     O 4267   1.075   9.570  12.789 -0.2637  0.5461 -0.3105
  773MOL0     C 4268   1.114   9.899  12.920 -0.0331 -0.8546  0.1126
  773MOL0     C 4269   1.051   9.992  13.014 -0.6141 -0.1980  0.5239
  773MOL0     N 4270   0.626  10.280  12.665  0.2357 -0.9181  0.1037
  773MOL0     N 4271   0.622  10.257  12.539  1.2218  0.5035  0.0694
  773MOL0     C 4272   0.415   9.193  11.758  0.5102 -0.2358  0.2049
  773MOL0     C 4273   0.483   9.158  11.638 -0.5296  0.4222  0.6595
  773MOL0     C 4274   0.633   9.201  11.179  0.0738 -1.0121  0.4075
  773MOL0     C 4275   0.714   9.092  11.202 -0.1011  0.0025  0.0347
  773MOL0     C 4276   0.799   9.051  11.099 -0.5412 -0.7440  0.1353
  773MOL0     C 4277   0.814   9.117  10.976 -0.5807  0.5921  0.9264
  773MOL0     O 4278   0.897   9.069  10.877  0.3442 -0.6339 -0.4927
  773MOL0     C 4279   1.001   9.153  10.842 -0.0508  0.5185 -1.2437
  773MOL0     C 4280   1.123   9.115  10.924 -0.8848  0.1839 -0.5422
  773MOL0     C 4281   1.174   8.968  10.898  0.1551  0.5890  0.0775
  773MOL0     C 4282   1.201   8.937  10.752  0.6152 -0.0757 -0.3416
  773MOL0     C 4283   1.314   9.013  10.710  1.1371  0.1871 -0.7907
  773MOL0     C 4284   1.421   9.072  10.703  0.1006 -0.5097  1.3764
  773MOL0     C 4285   0.743   9.228  10.963 -0.8029  0.0559  1.1098
  773MOL0     C 4286   0.659   9.277  11.061  0.3803 -0.3128 -1.1486
  773MOL0     C 4287   0.591   9.408  11.028  0.1439  0.0020 -0.2692
  773MOL0     H 4288   0.410   9.422  11.431  1.7368 -1.0609 -0.5484
  773MOL0     H 4289   0.306   9.506  11.636 -0.3781  0.4321  0.5570
  773MOL0     H 4290   0.173   9.530  11.843 -2.3715 -1.7540  2.7881
  773MOL0     H 4291   0.217   9.506  12.004 -1.1014 -1.9871  0.2978
  773MOL0     H 4292   0.379   9.645  11.785 -1.0022 -0.5525 -0.4440
  773MOL0     H 4293   0.477   9.560  11.886  0.0126 -1.8776  0.3983
  773MOL0     H 4294   0.424   9.670  12.084  1.2523  1.9488  0.0979
  773MOL0     H 4295   0.264   9.729  12.020 -0.3070 -0.0012 -1.5438
  773MOL0     H 4296   0.548   9.835  11.940  1.3428 -1.6024  3.1198
  773MOL0     H 4297   0.397   9.875  11.867 -0.2441 -1.8933 -0.4485
  773MOL0     H 4298   0.409  10.045  12.033  5.2650  0.1698 -0.9585
  773MOL0     H 4299   0.305   9.930  12.119 -0.0435  3.8165  0.5846
  773MOL0     H 4300   0.495   9.833  12.234 -4.5226 -0.4352 -0.9046
  773MOL0     H 4301   0.609   9.951  12.155 -2.2037  4.1782 -5.2795
  773MOL0     H 4302   0.385   9.996  12.362 -0.1108  0.5093  1.4364
  773MOL0     H 4303   0.456  10.123  12.264  0.7528 -1.4905 -1.6966
  773MOL0     H 4304   0.616   9.931  12.445 -4.5819 -0.6570 -1.9973
  773MOL0     H 4305   0.690  10.053  12.358 -0.6831  2.9318 -0.3541
  773MOL0     H 4306   0.469  10.000  12.657 -0.2839  0.5559  0.0429
  773MOL0     H 4307   0.526  10.284  12.935 -1.6326 -0.2418  0.8383
  773MOL0     H 4308   0.439  10.129  12.912  0.8429 -1.3557 -0.8500
  773MOL0     H 4309   0.617  10.001  12.966 -0.1629 -0.0456  2.7950
  773MOL0     H 4310   0.748  10.122  12.921  1.1568 -1.6764  2.0475
  773MOL0     H 4311   0.556  10.171  13.152  2.0330  1.6105  2.8585
  773MOL0     H 4312   0.703  10.249  13.130 -3.0641  1.6281  2.9691
  773MOL0     H 4313   0.690   9.949  13.178  0.0998 -0.6164  1.0729
  773MOL0     H 4314   0.736  10.082  13.292 -2.4122 -1.1792 -0.5771
  773MOL0     H 4315   0.779   9.809  13.079  2.1333 -0.4590  2.8137
  773MOL0     H 4316   0.867   9.666  12.915 -0.4258  1.1561 -1.4693
  773MOL0     H 4317   1.446   9.831  12.656  0.1306 -1.0195  3.6906
  773MOL0     H 4318   1.605   9.730  12.501 -0.2890 -0.3413 -2.5199
  773MOL0     H 4319   1.503   9.437  12.247  1.6015 -2.7078  0.1975
  773MOL0     H 4320   1.546   9.600  12.269 -1.4692 -0.9821 -0.4800
  773MOL0     H 4321   1.802   9.516  12.243 -0.7072  3.4660 -0.5152
  773MOL0     H 4322   1.713   9.366  12.209  1.5951  0.5661 -0.7163
  773MOL0     H 4323   1.761   9.432  11.996 -1.9663  0.9269 -1.9873
  773MOL0     H 4324   1.614   9.506  12.007 -0.7769 -1.1590  1.3936
  773MOL0     H 4325   1.865   9.679  12.063  0.2029 -0.3154  1.9745
  773MOL0     H 4326   1.713   9.724  12.093  0.9268  0.6480  0.6113
  773MOL0     H 4327   1.644   9.675  11.831 -0.4171  2.0868 -0.2491
  773MOL0     H 4328   1.807   9.631  11.803  0.4993 -1.6949  0.1953
  773MOL0     H 4329   1.704   9.890  11.941  1.0195 -1.6623  1.2258
  773MOL0     H 4330   1.861   9.866  11.853 -0.3664 -1.6097 -4.4349
  773MOL0     H 4331   1.589   9.911  11.723  0.1143  0.0228 -0.1163
  773MOL0     H 4332   1.716   9.811  11.640  1.4006 -0.1196 -0.5581
  773MOL0     H 4333   1.870  10.012  11.682 -0.1079  1.5854 -0.6156
  773MOL0     H 4334   1.738  10.038  11.566  0.6105 -1.1327 -0.6068
  773MOL0     H 4335   1.423   9.347  12.560 -0.6747  0.1605 -0.7326
  773MOL0     H 4336   1.269   9.442  12.712 -1.0426 -1.7740 -3.6228
  773MOL0     H 4337   1.213   9.924  12.882  0.0190  0.2592  0.9365
  773MOL0     H 4338   1.088  10.092  13.030  1.4908 -0.3493 -2.4468
  773MOL0     H 4339   0.406   9.118  11.836  0.6097  1.3248  1.7844
  773MOL0     H 4340   0.505   9.053  11.622 -1.3888  0.2856  0.2952
  773MOL0     H 4341   0.715   9.042  11.298 -2.2599  1.7655  1.0537
  773MOL0     H 4342   0.870   8.969  11.104  0.6202  0.1811 -0.6277
  773MOL0     H 4343   0.971   9.255  10.869  3.8774  1.7315 -0.8791
  773MOL0     H 4344   1.033   9.166  10.739 -1.2217  3.3984 -1.3408
  773MOL0     H 4345   1.093   9.125  11.029  1.7813 -0.9991  0.4341
  773MOL0     H 4346   1.207   9.182  10.905 -0.6348  0.1228  0.2683
  773MOL0     H 4347   1.102   8.894  10.931 -1.9004  0.8386 -3.3175
  773MOL0     H 4348   1.257   8.949  10.966  0.2811 -0.3183 -0.3138
  773MOL0     H 4349   1.229   8.831  10.744 -0.2910 -0.2303 -1.8466
  773MOL0     H 4350   1.110   8.957  10.695  0.4310 -1.6818 -0.6606
  773MOL0     H 4351   1.518   9.117  10.713  0.0321 -0.4135  1.6176
  773MOL0     H 4352   0.753   9.270  10.863  1.1441 -1.8609  0.4305
  773MOL0     H 4353   0.660   9.486  10.993  2.0828 -1.5787 -0.1704
  773MOL0     H 4354   0.512   9.394  10.954  1.1351  0.0613 -1.3735
  773MOL0     H 4355   0.572   9.449  11.128 -1.6905 -1.2035 -0.0845
  774MOL0     O 4356   6.854   0.286   8.281  0.2056 -0.6114  0.1223
  774MOL0     C 4357   6.910   0.190   8.334  0.5601 -0.2049 -0.5324
  774MOL0     O 4358   6.904   0.152   8.455  0.0826 -0.7072 -0.4096
  774MOL0     C 4359   6.862   0.225   8.564  0.1644 -1.1879 -0.0259
  774MOL0     C 4360   6.853   0.155   8.678 -0.2732 -0.3966 -0.0146
  774MOL0     C 4361   6.826   0.211   8.807 -0.5594  0.4857 -0.0793
  774MOL0     C 4362   6.803   0.351   8.812  0.0446  0.3919 -1.1865
  774MOL0     O 4363   6.763   0.399   8.937  0.0685 -0.3298 -0.6649
  774MOL0     C 4364   6.626   0.394   8.972 -0.1977 -0.1401  0.1187
  774MOL0     C 4365   6.597   0.430   9.120 -0.6066 -0.5193  0.1581
  774MOL0     C 4366   6.609   0.582   9.142 -0.2092  0.8895 -1.5618
  774MOL0     C 4367   6.472   0.651   9.111 -0.6079  0.2320  0.0350
  774MOL0     C 4368   6.489   0.796   9.141 -0.2679 -0.0535 -0.3567
  774MOL0     C 4369   6.358   0.881   9.128  0.8657 -1.4430  0.8848
  774MOL0     C 4370   6.384   1.026   9.156 -0.3387 -1.8861  0.3114
  774MOL0     C 4371   6.261   1.114   9.114  0.3646 -0.0287  0.0778
  774MOL0     N 4372   6.255   1.132   8.971  0.1552 -0.7162  0.4812
  774MOL0     C 4373   6.219   1.046   8.875 -0.0285 -0.3481 -0.7122
  774MOL0     C 4374   6.295   1.078   8.766 -0.1295 -0.3104 -0.4700
  774MOL0     C 4375   6.310   0.997   8.645 -0.4450  0.6455  0.2024
  774MOL0     C 4376   6.188   0.998   8.550 -0.7222 -0.2144  0.6074
  774MOL0     C 4377   6.214   0.930   8.419  0.3210 -0.6852 -0.1636
  774MOL0     C 4378   6.100   0.842   8.366  0.2042 -0.9849 -0.0900
  774MOL0     O 4379   5.979   0.919   8.345  0.2733  0.7368 -0.0859
  774MOL0     C 4380   5.861   0.845   8.321 -0.0615  0.2525 -0.1264
  774MOL0     C 4381   5.744   0.904   8.366  0.0126  0.0384  0.6152
  774MOL0     C 4382   5.619   0.860   8.320  1.0407 -0.8080  0.1253
  774MOL0     C 4383   5.608   0.749   8.232  0.2906 -0.8653  0.6383
  774MOL0     C 4384   5.480   0.686   8.190 -0.9167 -0.0656  0.5410
  774MOL0     O 4385   5.494   0.607   8.083 -0.1657 -0.3855  0.4174
  774MOL0     C 4386   5.393   0.606   7.987 -0.7389 -0.2970  0.6960
  774MOL0     C 4387   5.360   0.480   7.932  0.4681 -0.2537  0.3290
  774MOL0     C 4388   5.241   0.461   7.856  0.4199  0.1661 -0.2107
  774MOL0     C 4389   5.156   0.566   7.836 -0.9020  0.5888 -0.1290
  774MOL0     O 4390   5.034   0.554   7.770  0.2354  0.2208  0.1732
  774MOL0     C 4391   4.929   0.494   7.839  0.3222 -0.7674 -0.6113
  774MOL0     C 4392   4.808   0.526   7.743 -0.1786 -0.0496 -1.2764
  774MOL0     C 4393   4.759   0.409   7.664 -0.4157 -0.6199  0.4444
  774MOL0     C 4394   4.741   0.288   7.760 -0.2458  0.4387 -0.0661
  774MOL0     C 4395   4.667   0.179   7.685 -0.1163 -0.3014  0.1873
  774MOL0     C 4396   4.626   0.064   7.787 -0.1313  0.5304  0.3330
  774MOL0     C 4397   4.557  -0.048   7.704  0.9340  0.7647  0.2707
  774MOL0     C 4398   4.451  -0.120   7.786  0.7364  0.1203 -0.3263
  774MOL0    Cl 4399   4.285  -0.033   7.774 -0.4599 -0.1349 -0.5948
  774MOL0     C 4400   5.192   0.691   7.877  0.3287  0.4112 -0.1001
  774MOL0     C 4401   5.302   0.714   7.957 -0.2419 -0.0592 -0.6714
  774MOL0     O 4402   5.372   0.712   8.243 -0.2355 -0.4471 -0.9837
  774MOL0     C 4403   5.724   0.682   8.199  0.3475  0.4158 -0.4064
  774MOL0     C 4404   5.847   0.731   8.244 -0.4154 -0.1463 -0.6916
  774MOL0     N 4405   6.363   1.200   8.796  0.5310 -1.2393  0.1244
  774MOL0     N 4406   6.342   1.215   8.920 -0.0005 -0.2845 -0.1049
  774MOL0     C 4407   6.823   0.429   8.697 -0.1772 -0.5211  1.8698
  774MOL0     C 4408   6.834   0.365   8.572 -0.9398 -0.0911  0.7649
  774MOL0     C 4409   6.973   0.098   8.232 -0.1709 -0.2669 -0.4330
  774MOL0     C 4410   6.993   0.142   8.101 -0.0386  0.7719  0.5747
  774MOL0     C 4411   7.044   0.056   7.998  0.3936  0.1535  0.1594
  774MOL0     C 4412   7.087  -0.074   8.028  0.2975  0.3612  0.5072
  774MOL0     O 4413   7.148  -0.166   7.941  0.5737  0.3829  0.1953
  774MOL0     C 4414   7.218  -0.128   7.816 -0.7144 -0.0051 -0.5078
  774MOL0     C 4415   7.136  -0.174   7.693  0.6479  0.4122 -0.5743
  774MOL0     C 4416   6.983  -0.125   7.690 -0.6190  0.0713 -0.4155
  774MOL0     C 4417   6.917  -0.123   7.550  0.1969 -0.3204 -0.2925
  774MOL0     C 4418   6.970  -0.006   7.482  0.1068 -0.8900  1.1512
  774MOL0     C 4419   7.036   0.054   7.405  0.7815  0.7760  0.4092
  774MOL0     C 4420   7.096  -0.102   8.164  0.4195  0.2603 -0.0162
  774MOL0     C 4421   7.040  -0.023   8.268  0.1193  0.4006  0.1138
  774MOL0     C 4422   7.022  -0.089   8.403  0.1136  0.7787  0.1374
  774MOL0     H 4423   6.883   0.051   8.677  0.0675 -0.3192  0.9068
  774MOL0     H 4424   6.796   0.147   8.889 -0.6879  2.2761  1.3260
  774MOL0     H 4425   6.570   0.446   8.894 -0.5680 -0.4374  0.1880
  774MOL0     H 4426   6.596   0.289   8.968 -0.5809 -0.0149 -0.4248
  774MOL0     H 4427   6.668   0.377   9.185 -2.6672 -1.5879  1.6677
  774MOL0     H 4428   6.495   0.401   9.148 -0.0179 -0.2602  2.8874
  774MOL0     H 4429   6.693   0.623   9.086  1.6689 -2.0158 -1.0656
  774MOL0     H 4430   6.651   0.595   9.242 -0.0225  2.1089 -1.7745
  774MOL0     H 4431   6.437   0.641   9.008 -0.8131 -1.2218  0.2287
  774MOL0     H 4432   6.380   0.618   9.159 -1.3085  1.7890 -0.1804
  774MOL0     H 4433   6.530   0.817   9.240  0.3259  0.1313 -0.6401
  774MOL0     H 4434   6.559   0.835   9.066 -1.0175 -0.7153 -1.4391
  774MOL0     H 4435   6.319   0.868   9.026  3.6149  2.7310 -0.9670
  774MOL0     H 4436   6.285   0.849   9.203 -0.7942  0.5365  0.1843
  774MOL0     H 4437   6.471   1.055   9.096  1.1483 -2.5759  2.0281
  774MOL0     H 4438   6.394   1.042   9.264 -0.3495  2.4886 -0.1270
  774MOL0     H 4439   6.172   1.053   9.132 -1.0428  1.7978 -0.4307
  774MOL0     H 4440   6.249   1.210   9.166 -1.4196 -0.9149  1.4225
  774MOL0     H 4441   6.167   0.951   8.887 -0.6152 -0.5818 -4.1016
  774MOL0     H 4442   6.405   1.033   8.603  0.6333 -0.9498  1.1486
  774MOL0     H 4443   6.328   0.893   8.673 -0.6444  0.3016 -0.9051
  774MOL0     H 4444   6.110   0.951   8.610  0.8256 -1.8491  1.4041
  774MOL0     H 4445   6.157   1.100   8.525 -0.3284  0.1465  1.5591
  774MOL0     H 4446   6.289   0.856   8.448 -0.7396 -0.9681  2.0520
  774MOL0     H 4447   6.245   1.002   8.344 -3.1381  0.6150 -0.5349
  774MOL0     H 4448   6.080   0.756   8.431 -0.9892 -2.5493 -2.4184
  774MOL0     H 4449   6.134   0.804   8.270  1.3309  0.4353 -0.2853
  774MOL0     H 4450   5.762   0.983   8.439 -0.7870 -0.2951  1.1825
  774MOL0     H 4451   5.528   0.905   8.357  1.4560 -1.2209  1.6886
  774MOL0     H 4452   5.428   0.398   7.951  0.7371  0.2421  1.6330
  774MOL0     H 4453   5.223   0.362   7.815 -0.2283  0.1315  0.1565
  774MOL0     H 4454   4.960   0.391   7.854  2.0522 -0.0788  0.8837
  774MOL0     H 4455   4.912   0.547   7.933  1.4805  1.1963 -1.4275
  774MOL0     H 4456   4.720   0.568   7.792 -2.8717 -2.0471 -4.0315
  774MOL0     H 4457   4.835   0.608   7.675  1.5943  0.7093  0.2558
  774MOL0     H 4458   4.668   0.433   7.609  1.5549  0.4438 -2.5956
  774MOL0     H 4459   4.828   0.393   7.581  0.2586  0.5398  0.7588
  774MOL0     H 4460   4.686   0.309   7.852  0.3531 -0.8578  0.6251
  774MOL0     H 4461   4.839   0.248   7.786  1.0626  3.1223 -0.5519
  774MOL0     H 4462   4.732   0.126   7.615  2.6543  1.2823  1.4310
  774MOL0     H 4463   4.574   0.213   7.638 -0.2161  2.9897  2.4742
  774MOL0     H 4464   4.712   0.019   7.837  0.7612 -2.5783 -3.4863
  774MOL0     H 4465   4.556   0.116   7.853 -1.5228  1.0236 -1.4331
  774MOL0     H 4466   4.635  -0.117   7.671  1.3867  1.1812  0.4545
  774MOL0     H 4467   4.513  -0.005   7.613 -0.3487  0.0652  0.5345
  774MOL0     H 4468   4.432  -0.220   7.745 -1.4814  0.1976  0.3399
  774MOL0     H 4469   4.478  -0.137   7.891 -2.7496 -1.9967  0.4027
  774MOL0     H 4470   5.135   0.779   7.849  1.8054  0.6951 -2.5126
  774MOL0     H 4471   5.315   0.815   7.996 -1.8747 -0.0725  0.0030
  774MOL0     H 4472   5.724   0.585   8.150  2.4463 -0.5890  1.4380
  774MOL0     H 4473   5.944   0.694   8.212  1.4371  1.7544  2.2271
  774MOL0     H 4474   6.815   0.537   8.698 -5.5883 -0.6411  2.8386
  774MOL0     H 4475   6.859   0.424   8.485  0.9457  3.9534  3.7388
  774MOL0     H 4476   6.945   0.235   8.073  2.8086  2.0271 -0.5104
  774MOL0     H 4477   7.038   0.077   7.892  2.9195 -3.1050 -0.8095
  774MOL0     H 4478   7.309  -0.188   7.808  0.2034  1.4395 -1.2999
  774MOL0     H 4479   7.232  -0.020   7.810 -4.2727  0.5023 -2.7706
  774MOL0     H 4480   7.138  -0.283   7.687 -0.2219  0.3695 -0.2987
  774MOL0     H 4481   7.191  -0.130   7.609  1.6927  1.9690  0.8758
  774MOL0     H 4482   6.968  -0.024   7.729 -0.3630 -0.0179 -0.0760
  774MOL0     H 4483   6.926  -0.191   7.756  0.2545 -0.3300 -0.0417
  774MOL0     H 4484   6.941  -0.215   7.496  0.1325 -1.0642  0.9135
  774MOL0     H 4485   6.809  -0.111   7.564  0.0765 -1.4816 -0.1590
  774MOL0     H 4486   7.097   0.113   7.339  1.0950  1.1288  1.0067
  774MOL0     H 4487   7.134  -0.200   8.191 -0.3268 -0.1656 -0.4537
  774MOL0     H 4488   7.050  -0.195   8.398 -4.0313 -0.4566 -0.2403
  774MOL0     H 4489   7.073  -0.038   8.486 -0.8491  1.5312  0.2891
  774MOL0     H 4490   6.914  -0.090   8.421  0.1638 -0.4626  0.4126
  775MOL0     O 4491   6.937   7.051   7.411 -0.4269  0.5157 -0.5904
  775MOL0     C 4492   6.825   7.094   7.433 -0.0599  0.1414 -0.9198
  775MOL0     O 4493   6.776   7.218   7.404  0.6240 -0.4677  0.7042
  775MOL0     C 4494   6.860   7.296   7.335  0.7086  0.3042  0.7726
  775MOL0     C 4495   6.840   7.339   7.205  0.9294  0.2280  0.2337
  775MOL0     C 4496   6.923   7.440   7.141 -0.2176 -0.2127  0.0985
  775MOL0     C 4497   7.041   7.479   7.192  0.1272 -0.0764 -0.4444
  775MOL0     O 4498   7.122   7.561   7.118  0.0370 -0.6048  0.5070
  775MOL0     C 4499   7.262   7.567   7.148 -0.1246  0.8441 -0.0375
  775MOL0     C 4500   7.329   7.678   7.076 -0.5209 -0.2947 -0.1463
  775MOL0     C 4501   7.478   7.667   7.105 -1.1300 -0.7952  0.0599
  775MOL0     C 4502   7.543   7.804   7.100 -0.7770 -0.2588 -0.3543
  775MOL0     C 4503   7.684   7.786   7.126 -0.8882 -0.3697 -0.5912
  775MOL0     C 4504   7.779   7.725   7.011  0.5600 -0.3954 -1.6772
  775MOL0     C 4505   7.924   7.737   7.044 -0.6170  0.0377 -0.1689
  775MOL0     C 4506   7.943   7.682   7.187 -0.3557  0.3211 -1.0467
  775MOL0     N 4507   8.089   7.683   7.207 -0.1254 -0.4912 -0.3436
  775MOL0     C 4508   8.177   7.612   7.128 -0.1612 -0.2245  0.5391
  775MOL0     C 4509   8.296   7.629   7.173 -0.1336 -0.8365 -0.7789
  775MOL0     C 4510   8.425   7.573   7.120  0.4752  0.4439  1.0180
  775MOL0     C 4511   8.439   7.425   7.159  0.0236 -0.2505  0.0025
  775MOL0     C 4512   8.455   7.399   7.306 -0.0091  0.3522 -0.1218
  775MOL0     C 4513   8.410   7.266   7.362  0.0382 -0.2733  0.5951
  775MOL0     O 4514   8.286   7.216   7.300 -0.3289 -0.9002  0.3468
  775MOL0     C 4515   8.159   7.264   7.347 -0.4752 -0.1063 -0.1035
  775MOL0     C 4516   8.140   7.383   7.408  0.8907  0.4470 -0.8068
  775MOL0     C 4517   8.008   7.422   7.453 -0.3232  0.0313  0.3812
  775MOL0     C 4518   7.896   7.345   7.412 -0.0650 -0.4298  0.7705
  775MOL0     C 4519   7.763   7.389   7.445  0.1202 -0.4788  0.6403
  775MOL0     O 4520   7.756   7.521   7.477  0.2285  0.8387 -0.4126
  775MOL0     C 4521   7.639   7.593   7.476  0.5433 -1.1093 -0.5943
  775MOL0     C 4522   7.655   7.727   7.459 -0.4547 -0.4345  0.3592
  775MOL0     C 4523   7.547   7.814   7.473 -0.1975  0.7674  0.2739
  775MOL0     C 4524   7.416   7.768   7.498 -0.4956  0.8013  0.7048
  775MOL0     O 4525   7.312   7.851   7.538 -0.4214  0.2555 -0.2808
  775MOL0     C 4526   7.189   7.821   7.483  0.8642 -0.0843  0.1346
  775MOL0     C 4527   7.106   7.951   7.479 -0.0634 -0.1853  0.5393
  775MOL0     C 4528   7.169   8.065   7.390  0.0828  0.0834 -0.5309
  775MOL0     C 4529   7.076   8.189   7.386  0.1573  0.3344  0.1678
  775MOL0     C 4530   7.094   8.259   7.253 -0.6508 -0.7617 -0.2389
  775MOL0     C 4531   7.044   8.403   7.256 -0.1288  0.3571 -0.2886
  775MOL0     C 4532   7.095   8.492   7.365  0.1970 -0.3991 -0.7794
  775MOL0     C 4533   7.082   8.643   7.349  0.0897  0.1390 -0.3254
  775MOL0    Cl 4534   6.919   8.670   7.271 -0.3177 -0.2148  0.2279
  775MOL0     C 4535   7.403   7.627   7.502 -0.1390  0.0723 -0.0958
  775MOL0     C 4536   7.506   7.542   7.486 -0.2851 -0.4413  0.1974
  775MOL0     O 4537   7.668   7.323   7.401 -0.3540 -0.3419 -0.0463
  775MOL0     C 4538   7.923   7.225   7.341 -0.0808 -0.5312 -0.0500
  775MOL0     C 4539   8.052   7.177   7.316  0.5787 -0.9726  0.1477
  775MOL0     N 4540   8.282   7.707   7.288 -1.0977 -0.2665  0.7506
  775MOL0     N 4541   8.157   7.742   7.312 -0.1633  0.1731 -0.0710
  775MOL0     C 4542   7.074   7.417   7.317 -1.1813 -0.1205 -1.1062
  775MOL0     C 4543   6.979   7.342   7.389 -1.0413 -0.9499 -0.1102
  775MOL0     C 4544   6.735   6.995   7.496  0.8128 -0.1887  0.0047
  775MOL0     C 4545   6.600   7.040   7.518 -0.1209  1.0585 -1.1678
  775MOL0     C 4546   6.518   6.979   7.605 -0.0967 -0.0018 -0.4468
  775MOL0     C 4547   6.545   6.855   7.663  0.8311  0.3595 -0.9433
  775MOL0     O 4548   6.452   6.782   7.743 -0.1533 -0.1920 -1.0626
  775MOL0     C 4549   6.308   6.828   7.751 -0.0414  0.3318 -0.2818
  775MOL0     C 4550   6.221   6.713   7.728 -0.0343  0.6807  0.8349
  775MOL0     C 4551   6.207   6.666   7.580  0.0320  0.3928 -0.1646
  775MOL0     C 4552   6.068   6.608   7.549  0.1274  0.0878  0.3558
  775MOL0     C 4553   6.050   6.478   7.615 -0.5785 -0.4373  0.9513
  775MOL0     C 4554   6.013   6.370   7.659  0.1393 -0.1013  0.1116
  775MOL0     C 4555   6.665   6.800   7.627 -0.6682  0.4856 -0.4630
  775MOL0     C 4556   6.759   6.862   7.539 -0.1548 -0.1385 -0.1338
  775MOL0     C 4557   6.883   6.792   7.512  1.0091  0.3200  0.8595
  775MOL0     H 4558   6.746   7.318   7.154  0.2679  3.2142  0.0501
  775MOL0     H 4559   6.900   7.470   7.039  0.8570 -2.3903 -0.8473
  775MOL0     H 4560   7.272   7.588   7.255 -1.1711  0.6152  0.1173
  775MOL0     H 4561   7.302   7.467   7.129 -1.8445 -0.2034  1.5145
  775MOL0     H 4562   7.283   7.770   7.113  2.2135  0.9931  0.3076
  775MOL0     H 4563   7.316   7.680   6.968  0.0062  0.4901 -0.2056
  775MOL0     H 4564   7.528   7.603   7.031  1.3775  0.6719  0.3782
  775MOL0     H 4565   7.484   7.623   7.205 -2.1530  0.0819  0.5339
  775MOL0     H 4566   7.531   7.857   7.005 -1.8268  1.8176  0.8599
  775MOL0     H 4567   7.508   7.878   7.172 -1.2025  1.6477 -2.4180
  775MOL0     H 4568   7.730   7.884   7.140  2.4740 -1.9661  0.7776
  775MOL0     H 4569   7.693   7.731   7.220  0.3810 -2.5713 -1.9014
  775MOL0     H 4570   7.766   7.621   6.979 -3.0109  0.9736 -5.4816
  775MOL0     H 4571   7.757   7.779   6.919 -1.2009 -1.1497 -1.7231
  775MOL0     H 4572   7.952   7.842   7.043 -1.1233  0.2265  1.5478
  775MOL0     H 4573   7.989   7.690   6.970 -1.1193  0.0968 -0.6486
  775MOL0     H 4574   7.903   7.743   7.268  4.2885  1.6479  0.5925
  775MOL0     H 4575   7.909   7.580   7.205 -2.2206  1.0439 -0.2683
  775MOL0     H 4576   8.154   7.559   7.036 -0.3572 -2.0465  1.5844
  775MOL0     H 4577   8.442   7.585   7.012  2.5013 -0.4975  1.1897
  775MOL0     H 4578   8.512   7.623   7.163  0.9039  0.6932 -0.0853
  775MOL0     H 4579   8.348   7.368   7.142 -2.6101  3.6376 -0.3157
  775MOL0     H 4580   8.523   7.386   7.101 -0.2069  0.5485 -0.9011
  775MOL0     H 4581   8.408   7.478   7.365 -1.0629 -0.7189  0.5320
  775MOL0     H 4582   8.564   7.402   7.312  0.0529 -0.2594 -0.7791
  775MOL0     H 4583   8.406   7.279   7.471  1.5006  0.9351  0.5400
  775MOL0     H 4584   8.477   7.183   7.340 -0.6145 -0.4310 -0.9138
  775MOL0     H 4585   8.220   7.456   7.418  1.4979 -0.3652  0.5749
  775MOL0     H 4586   8.004   7.521   7.496 -0.5094  1.4973 -2.7304
  775MOL0     H 4587   7.751   7.774   7.443 -0.4104 -0.5181  0.3828
  775MOL0     H 4588   7.566   7.920   7.457  2.5896  0.3410  0.3670
  775MOL0     H 4589   7.194   7.780   7.382 -0.3123 -0.1169  0.0720
  775MOL0     H 4590   7.135   7.746   7.541 -0.6644 -0.7922 -2.0617
  775MOL0     H 4591   7.010   7.922   7.436 -0.4680 -0.3125  1.4984
  775MOL0     H 4592   7.081   7.992   7.578 -3.7724  0.6858 -0.5855
  775MOL0     H 4593   7.262   8.101   7.436  0.5341 -2.9854  1.2939
  775MOL0     H 4594   7.194   8.018   7.294  0.1431  0.9901 -0.9661
  775MOL0     H 4595   7.086   8.252   7.474  0.8679  0.2968  0.1218
  775MOL0     H 4596   6.969   8.169   7.386 -1.1733  5.7724 -1.8639
  775MOL0     H 4597   7.038   8.219   7.168 -4.1783  1.9154  0.6109
  775MOL0     H 4598   7.201   8.245   7.237  0.0559  2.4762  0.9472
  775MOL0     H 4599   7.083   8.451   7.165  1.4938 -0.7154 -0.2016
  775MOL0     H 4600   6.936   8.395   7.244  0.1903 -0.0192 -4.2879
  775MOL0     H 4601   7.199   8.473   7.392 -0.3835 -1.3332  0.9701
  775MOL0     H 4602   7.043   8.470   7.459 -0.7015  0.6740 -0.9941
  775MOL0     H 4603   7.093   8.691   7.446  2.3684 -3.9668  1.7083
  775MOL0     H 4604   7.160   8.688   7.286  0.0503  0.4400 -0.1598
  775MOL0     H 4605   7.308   7.582   7.527  0.9434 -2.4235 -0.1211
  775MOL0     H 4606   7.498   7.435   7.502 -1.4163 -0.6982 -1.7339
  775MOL0     H 4607   7.839   7.161   7.314 -4.1422  3.7129  1.2143
  775MOL0     H 4608   8.076   7.082   7.269  2.2212 -0.4514 -0.1352
  775MOL0     H 4609   7.170   7.443   7.359 -1.7726  2.1034 -0.9998
  775MOL0     H 4610   7.020   7.308   7.484  1.2855  3.9184  0.9255
  775MOL0     H 4611   6.578   7.141   7.487 -1.8537  2.2600  3.1945
  775MOL0     H 4612   6.426   7.035   7.622 -0.9371 -1.4035 -0.2067
  775MOL0     H 4613   6.291   6.910   7.680  1.8265  1.1321  0.1439
  775MOL0     H 4614   6.287   6.874   7.847  0.7410 -2.9000  1.5929
  775MOL0     H 4615   6.123   6.750   7.757 -0.1728  1.8603 -1.0057
  775MOL0     H 4616   6.255   6.629   7.790  2.2020  1.1698  0.3533
  775MOL0     H 4617   6.282   6.591   7.552  0.1434  0.4899 -0.1303
  775MOL0     H 4618   6.216   6.753   7.514 -1.0547 -2.1531 -3.9961
  775MOL0     H 4619   5.980   6.663   7.585 -1.9865 -1.3418 -2.3170
  775MOL0     H 4620   6.057   6.602   7.441 -0.9777 -0.5952  0.4891
  775MOL0     H 4621   6.006   6.266   7.682 -2.9230 -1.0148 -3.8273
  775MOL0     H 4622   6.690   6.696   7.647  1.0553  0.5140 -2.1242
  775MOL0     H 4623   6.863   6.765   7.408 -2.7447  0.2583  1.4534
  775MOL0     H 4624   6.968   6.858   7.531  0.1486  2.0429 -0.9615
  775MOL0     H 4625   6.894   6.702   7.574  1.4216  0.1129  0.4869
  776MOL0     O 4626   2.226   1.598   2.333  0.7465 -0.1954 -0.0799
  776MOL0     C 4627   2.129   1.530   2.308  0.6119 -0.3432  1.0220
  776MOL0     O 4628   2.133   1.421   2.229  0.1322  0.0577 -0.3222
  776MOL0     C 4629   2.234   1.391   2.138 -0.2123 -0.5480 -0.5831
  776MOL0     C 4630   2.204   1.276   2.070 -0.5191  0.9807  0.1313
  776MOL0     C 4631   2.299   1.222   1.977  0.3633 -0.4887 -1.1694
  776MOL0     C 4632   2.411   1.306   1.946  0.1400  0.6935  0.1231
  776MOL0     O 4633   2.482   1.281   1.836  0.1498 -0.2878  0.3402
  776MOL0     C 4634   2.555   1.158   1.837  0.1732  0.1009  0.6635
  776MOL0     C 4635   2.705   1.183   1.854  0.4283  0.3740  0.5161
  776MOL0     C 4636   2.783   1.059   1.810  0.5298  0.7231 -0.6319
  776MOL0     C 4637   2.765   1.023   1.664 -0.6340  1.3807  0.5702
  776MOL0     C 4638   2.798   1.134   1.569 -0.0409 -0.1956 -0.4518
  776MOL0     C 4639   2.797   1.090   1.425  0.9313  0.2725 -0.0904
  776MOL0     C 4640   2.839   1.207   1.322  0.5661  0.5347 -0.1983
  776MOL0     C 4641   2.988   1.262   1.335  1.6220  0.9557  0.4418
  776MOL0     N 4642   3.087   1.154   1.348  0.0462 -0.6842 -0.9826
  776MOL0     C 4643   3.127   1.074   1.455 -0.2364  1.0159 -0.7032
  776MOL0     C 4644   3.227   0.988   1.409 -0.3417 -0.0780 -0.6120
  776MOL0     C 4645   3.312   0.894   1.499  0.4667  0.1941  0.8590
  776MOL0     C 4646   3.238   0.779   1.554 -0.2045 -0.0045 -0.3678
  776MOL0     C 4647   3.187   0.670   1.454 -0.5336  0.8854  0.2772
  776MOL0     C 4648   3.048   0.598   1.489 -0.1671 -0.2451 -0.3984
  776MOL0     O 4649   3.036   0.579   1.637  0.0622  0.4772 -0.3616
  776MOL0     C 4650   2.923   0.622   1.701  0.2578  0.2533  0.7564
  776MOL0     C 4651   2.910   0.593   1.838 -0.9387  0.9255 -0.8956
  776MOL0     C 4652   2.804   0.632   1.917  0.0443 -0.1905 -0.4484
  776MOL0     C 4653   2.689   0.691   1.862 -0.4694  0.0976  0.2444
  776MOL0     C 4654   2.583   0.739   1.937  0.2702 -0.0364 -0.1577
  776MOL0     O 4655   2.461   0.739   1.871 -0.2599 -0.5717  0.0635
  776MOL0     C 4656   2.352   0.791   1.939 -0.4228 -0.7322  0.0930
  776MOL0     C 4657   2.345   0.805   2.078  0.3320  0.0441  0.0306
  776MOL0     C 4658   2.231   0.861   2.132  0.5129  1.1215  0.3251
  776MOL0     C 4659   2.130   0.905   2.051 -0.4279 -0.2225  0.5467
  776MOL0     O 4660   2.021   0.961   2.125 -0.1912 -0.1339  0.2427
  776MOL0     C 4661   1.936   0.861   2.190 -0.0468 -1.0995 -0.6709
  776MOL0     C 4662   1.789   0.866   2.154 -0.4890  0.5447 -0.0030
  776MOL0     C 4663   1.747   0.888   2.006  0.4931  0.8831  0.4485
  776MOL0     C 4664   1.596   0.865   1.992  0.4500  0.6802 -0.2889
  776MOL0     C 4665   1.554   0.925   1.859  0.2913 -0.5264 -0.0078
  776MOL0     C 4666   1.399   0.913   1.851  0.1708  0.6117  0.4188
  776MOL0     C 4667   1.361   0.993   1.725 -1.1126  0.5187 -0.4261
  776MOL0     C 4668   1.329   1.135   1.759  0.3640 -0.3219 -0.1416
  776MOL0    Cl 4669   1.277   1.226   1.608 -0.0901  0.1303 -0.0180
  776MOL0     C 4670   2.137   0.890   1.911 -0.1659 -0.5644  0.6272
  776MOL0     C 4671   2.254   0.833   1.854  0.2948 -0.5792 -0.3357
  776MOL0     O 4672   2.613   0.796   2.040  0.3726 -0.5946  0.0794
  776MOL0     C 4673   2.691   0.712   1.724 -1.3314  0.4181  0.5884
  776MOL0     C 4674   2.806   0.674   1.642  0.0096 -0.7353  0.0084
  776MOL0     N 4675   3.245   1.028   1.277  0.0807  0.1676  0.3694
  776MOL0     N 4676   3.163   1.122   1.247  0.0218  0.1078 -0.1903
  776MOL0     C 4677   2.430   1.421   2.009 -0.4493 -0.7635  0.4456
  776MOL0     C 4678   2.341   1.468   2.100 -0.4257  0.3647 -0.4935
  776MOL0     C 4679   2.000   1.555   2.378 -0.1056 -1.0851  0.4391
  776MOL0     C 4680   1.891   1.489   2.323  0.6881  0.8507 -0.3765
  776MOL0     C 4681   1.769   1.492   2.394 -0.4659 -0.5050  0.9104
  776MOL0     C 4682   1.738   1.575   2.498  0.1560  0.9491 -0.4566
  776MOL0     O 4683   1.618   1.566   2.557  0.2923 -0.2668 -0.1672
  776MOL0     C 4684   1.566   1.699   2.582  0.3661  0.1099 -0.0593
  776MOL0     C 4685   1.500   1.731   2.726  2.2860 -0.1957  0.7370
  776MOL0     C 4686   1.575   1.695   2.855 -0.5671 -1.2478 -0.3046
  776MOL0     C 4687   1.598   1.547   2.863  0.1790 -0.0876  0.3720
  776MOL0     C 4688   1.622   1.500   3.000 -0.0131  0.0273  0.0009
  776MOL0     C 4689   1.647   1.440   3.100 -0.1484  0.2966 -0.5138
  776MOL0     C 4690   1.852   1.636   2.549 -0.6130  0.4649 -1.3413
  776MOL0     C 4691   1.979   1.630   2.501  0.1025 -0.1125  0.3698
  776MOL0     C 4692   2.080   1.708   2.575 -0.3602  0.5019 -0.1584
  776MOL0     H 4693   2.125   1.206   2.096 -2.1869  2.6163 -0.3002
  776MOL0     H 4694   2.291   1.122   1.935 -1.3330 -1.4937  1.3010
  776MOL0     H 4695   2.506   1.092   1.909 -3.0556  0.0815 -1.3307
  776MOL0     H 4696   2.538   1.102   1.744 -1.7621  1.2614  0.2564
  776MOL0     H 4697   2.718   1.200   1.961 -1.6303 -0.6223  0.9730
  776MOL0     H 4698   2.737   1.276   1.806 -2.8409  2.4390  2.0515
  776MOL0     H 4699   2.756   0.969   1.866 -0.6678  1.1272 -0.5219
  776MOL0     H 4700   2.885   1.092   1.830  0.8466  0.2822 -1.5104
  776MOL0     H 4701   2.841   0.945   1.654 -1.6838  0.4536 -0.4004
  776MOL0     H 4702   2.672   0.969   1.644  1.3097 -1.5460 -1.3006
  776MOL0     H 4703   2.723   1.213   1.581  0.0104 -0.2317  0.1395
  776MOL0     H 4704   2.894   1.185   1.586 -0.2086 -0.1387  0.3624
  776MOL0     H 4705   2.879   1.017   1.428 -0.4456 -1.3230  0.9251
  776MOL0     H 4706   2.709   1.036   1.389 -2.1486  3.1617  2.4560
  776MOL0     H 4707   2.759   1.281   1.327 -0.3323  0.2237 -4.9234
  776MOL0     H 4708   2.821   1.169   1.221 -1.6698 -1.6809  0.9089
  776MOL0     H 4709   3.017   1.322   1.248  1.3933 -0.9701 -1.0374
  776MOL0     H 4710   3.004   1.335   1.415  1.3917  0.4898  0.9147
  776MOL0     H 4711   3.082   1.061   1.553  0.3708  0.2525 -0.5144
  776MOL0     H 4712   3.388   0.853   1.432 -1.2371  0.3056 -1.2526
  776MOL0     H 4713   3.355   0.963   1.572  0.9134  0.9597 -0.1144
  776MOL0     H 4714   3.305   0.732   1.626 -4.1490 -3.1949  1.6607
  776MOL0     H 4715   3.158   0.831   1.608  2.9528  3.0846  1.6855
  776MOL0     H 4716   3.265   0.595   1.472 -0.0444  1.4443  0.4880
  776MOL0     H 4717   3.169   0.703   1.351 -1.3110  2.7636  0.9812
  776MOL0     H 4718   3.056   0.501   1.440 -3.3074  0.5881 -2.9620
  776MOL0     H 4719   2.962   0.647   1.442 -1.2474 -0.2172  1.5185
  776MOL0     H 4720   3.004   0.563   1.883 -1.6006  1.4999  0.9837
  776MOL0     H 4721   2.801   0.622   2.025  1.0782  1.3244 -0.2544
  776MOL0     H 4722   2.420   0.770   2.148  0.9564  1.9952  0.4170
  776MOL0     H 4723   2.223   0.879   2.239 -0.4885 -0.4366  0.5507
  776MOL0     H 4724   1.980   0.763   2.168  2.5368 -0.9441  2.8385
  776MOL0     H 4725   1.952   0.866   2.298  0.5468 -0.4419 -0.7805
  776MOL0     H 4726   1.746   0.776   2.199 -1.1263  1.4889  1.3337
  776MOL0     H 4727   1.743   0.945   2.214  0.2242 -0.6892  2.2691
  776MOL0     H 4728   1.777   0.991   1.985  0.5038  0.9801  0.9196
  776MOL0     H 4729   1.808   0.825   1.941 -0.3020  2.9206 -2.4874
  776MOL0     H 4730   1.555   0.917   2.078  1.0413  0.8650 -0.1134
  776MOL0     H 4731   1.568   0.759   1.990  1.1441  0.4892 -0.0995
  776MOL0     H 4732   1.607   0.874   1.778  0.3666  2.7533 -2.2515
  776MOL0     H 4733   1.587   1.029   1.846  2.4169 -1.0734  0.6637
  776MOL0     H 4734   1.368   0.810   1.833  1.3744  0.5504 -1.7556
  776MOL0     H 4735   1.345   0.953   1.937  0.7304 -2.3458  2.3143
  776MOL0     H 4736   1.265   0.956   1.688 -2.0155  1.8631  0.5208
  776MOL0     H 4737   1.434   0.986   1.643 -2.1316 -0.8465 -1.2635
  776MOL0     H 4738   1.239   1.135   1.823 -0.3552  2.2255 -1.0311
  776MOL0     H 4739   1.411   1.192   1.803  1.1596  0.8298 -2.8925
  776MOL0     H 4740   2.062   0.931   1.844  1.0225  0.8308  0.0900
  776MOL0     H 4741   2.247   0.812   1.748 -2.2119 -0.4776 -0.2526
  776MOL0     H 4742   2.607   0.751   1.668 -1.5326 -0.9049 -0.0866
  776MOL0     H 4743   2.801   0.697   1.536  1.1517  0.3967  0.1748
  776MOL0     H 4744   2.525   1.469   1.988  0.7822 -3.4224 -0.4817
  776MOL0     H 4745   2.373   1.557   2.154 -0.7431  0.0686  0.1938
  776MOL0     H 4746   1.896   1.427   2.234  0.7572  2.8259 -1.8039
  776MOL0     H 4747   1.692   1.427   2.355  2.1441 -3.1107 -0.2567
  776MOL0     H 4748   1.487   1.712   2.507 -0.1465  2.9135  0.8473
  776MOL0     H 4749   1.638   1.775   2.551 -0.0860 -0.2389 -2.1197
  776MOL0     H 4750   1.395   1.701   2.728  1.8401  0.8255 -2.5227
  776MOL0     H 4751   1.490   1.840   2.730  2.8078 -0.1554  1.1046
  776MOL0     H 4752   1.522   1.730   2.943  0.1686 -2.3381  0.6067
  776MOL0     H 4753   1.666   1.754   2.871  0.6822 -3.7469  3.1410
  776MOL0     H 4754   1.517   1.488   2.819  1.9316 -2.3439 -0.0082
  776MOL0     H 4755   1.685   1.524   2.800 -0.8295  0.3171 -1.2414
  776MOL0     H 4756   1.659   1.366   3.176  1.4007 -1.5283 -2.4249
  776MOL0     H 4757   1.830   1.693   2.638  0.1529  0.6580 -1.2652
  776MOL0     H 4758   2.130   1.770   2.500 -0.1698  0.8822  0.2821
  776MOL0     H 4759   2.047   1.775   2.655  0.2621 -0.4829  0.9678
  776MOL0     H 4760   2.146   1.639   2.629 -2.1728  0.0601  1.6089
  777MOL0     O 4761   5.431   3.318   3.338  0.5007  0.0423 -1.0276
  777MOL0     C 4762   5.484   3.320   3.449 -0.2028 -0.8807 -1.1126
  777MOL0     O 4763   5.437   3.255   3.564 -0.0066 -0.8102  0.4961
  777MOL0     C 4764   5.345   3.159   3.551  0.1812  0.2652 -0.6330
  777MOL0     C 4765   5.350   3.062   3.448 -0.5810 -0.7003 -0.5497
  777MOL0     C 4766   5.271   2.950   3.449  0.0452  0.7310 -0.2205
  777MOL0     C 4767   5.173   2.934   3.553  0.7615 -0.5254  0.4818
  777MOL0     O 4768   5.101   2.820   3.524 -0.4476  0.2287  0.4707
  777MOL0     C 4769   5.025   2.766   3.634 -0.7581 -0.0075  0.1721
  777MOL0     C 4770   5.009   2.616   3.612  0.2051 -0.3069  0.3008
  777MOL0     C 4771   4.927   2.598   3.478 -0.2912 -0.0260 -0.4526
  777MOL0     C 4772   4.906   2.445   3.478  0.2882 -0.3230  0.1825
  777MOL0     C 4773   4.822   2.402   3.348 -0.4218  0.3446  0.0250
  777MOL0     C 4774   4.674   2.446   3.343 -0.3388  0.4571 -0.3032
  777MOL0     C 4775   4.588   2.394   3.223 -1.2361  0.0348  0.0290
  777MOL0     C 4776   4.437   2.420   3.225 -0.8819 -0.7631  0.5226
  777MOL0     N 4777   4.409   2.565   3.195 -0.3408  0.3810 -0.5414
  777MOL0     C 4778   4.389   2.620   3.074  0.3979 -0.5481 -1.2990
  777MOL0     C 4779   4.376   2.760   3.094 -0.1990  1.0521  0.3086
  777MOL0     C 4780   4.386   2.863   2.982 -0.6639 -0.1659  0.7844
  777MOL0     C 4781   4.314   2.815   2.857  1.3949 -0.2407  0.9426
  777MOL0     C 4782   4.244   2.927   2.793  0.8886 -0.8006  0.0349
  777MOL0     C 4783   4.127   2.964   2.876  0.0148  0.4054  0.7312
  777MOL0     O 4784   4.128   3.105   2.869 -0.2196  0.4054 -0.4783
  777MOL0     C 4785   4.050   3.150   2.968  0.6246 -0.0623 -0.2202
  777MOL0     C 4786   4.079   3.121   3.101  1.1808  0.7252 -0.5293
  777MOL0     C 4787   3.999   3.180   3.208  0.8493 -1.1878  0.4259
  777MOL0     C 4788   3.899   3.277   3.169 -1.0486  0.1767 -1.8789
  777MOL0     C 4789   3.837   3.356   3.280  1.2067 -0.1976 -0.4792
  777MOL0     O 4790   3.822   3.301   3.406 -0.7833  0.1870  0.2381
  777MOL0     C 4791   3.740   3.335   3.503 -1.0074  0.4823  0.0703
  777MOL0     C 4792   3.764   3.264   3.625  0.2428  0.0907  0.6977
  777MOL0     C 4793   3.683   3.281   3.736 -0.2327 -0.3323  0.2654
  777MOL0     C 4794   3.580   3.376   3.727 -0.1665  1.0096 -0.0970
  777MOL0     O 4795   3.494   3.387   3.835  0.9091 -0.1697 -0.5665
  777MOL0     C 4796   3.383   3.296   3.851  0.3881 -0.3118  0.2567
  777MOL0     C 4797   3.255   3.377   3.818  0.4959 -0.2407  1.0248
  777MOL0     C 4798   3.207   3.368   3.664 -0.3620  1.0889  0.5704
  777MOL0     C 4799   3.054   3.361   3.655  0.6676 -0.1951  0.6858
  777MOL0     C 4800   3.003   3.360   3.509  0.2899  0.0840 -0.1860
  777MOL0     C 4801   2.844   3.369   3.504 -0.6707  0.5897  0.0322
  777MOL0     C 4802   2.787   3.513   3.504  0.0905  0.1320  0.1425
  777MOL0     C 4803   2.650   3.493   3.461  1.0212  0.1257 -0.1026
  777MOL0    Cl 4804   2.540   3.393   3.561  0.5527 -0.4822 -0.4484
  777MOL0     C 4805   3.565   3.449   3.615  0.5515 -0.7118  0.3754
  777MOL0     C 4806   3.640   3.434   3.501  0.0960 -0.2765 -1.5364
  777MOL0     O 4807   3.792   3.469   3.253  1.1447 -0.3998 -0.0132
  777MOL0     C 4808   3.881   3.304   3.035  0.3214  0.2301 -0.6107
  777MOL0     C 4809   3.948   3.238   2.932 -0.8212 -0.3920 -1.0186
  777MOL0     N 4810   4.380   2.768   3.233 -0.0888 -0.2508  0.3080
  777MOL0     N 4811   4.395   2.658   3.294 -0.1237 -0.0812  0.4899
  777MOL0     C 4812   5.164   3.030   3.655  0.6641  0.2869  0.1596
  777MOL0     C 4813   5.252   3.138   3.663 -0.0447 -0.2364  0.6050
  777MOL0     C 4814   5.613   3.392   3.453  0.0417  0.6363 -1.3246
  777MOL0     C 4815   5.692   3.361   3.567 -0.5924  0.4498  0.4045
  777MOL0     C 4816   5.816   3.424   3.592  0.7327  1.0119 -0.3868
  777MOL0     C 4817   5.875   3.501   3.490 -0.6200  0.2413 -0.0523
  777MOL0     O 4818   5.994   3.555   3.517 -0.4173  0.2520 -0.3995
  777MOL0     C 4819   6.067   3.645   3.420 -0.1060  0.5732  0.1806
  777MOL0     C 4820   6.203   3.677   3.465  0.1013 -0.3409 -0.2783
  777MOL0     C 4821   6.206   3.776   3.586 -0.6381 -0.1594 -0.0366
  777MOL0     C 4822   6.334   3.863   3.576  0.3583  0.4091 -0.2088
  777MOL0     C 4823   6.454   3.777   3.584  0.0155 -0.1382  0.2035
  777MOL0     C 4824   6.551   3.701   3.602  0.1201 -0.5038  0.9397
  777MOL0     C 4825   5.806   3.520   3.374  0.0900 -0.1989  0.4984
  777MOL0     C 4826   5.675   3.469   3.349  0.5518  0.7253  0.2276
  777MOL0     C 4827   5.595   3.521   3.230 -0.3649 -0.3312 -0.1930
  777MOL0     H 4828   5.420   3.069   3.365  2.2358 -3.2960  1.4009
  777MOL0     H 4829   5.277   2.873   3.374 -2.3214  1.6875 -1.5106
  777MOL0     H 4830   5.084   2.785   3.724  1.5255  1.2934 -1.4656
  777MOL0     H 4831   4.927   2.804   3.661  0.3636  3.7492 -0.4227
  777MOL0     H 4832   4.959   2.579   3.702 -0.4094 -3.0847 -1.0914
  777MOL0     H 4833   5.100   2.558   3.601 -0.1997 -0.4797 -3.6038
  777MOL0     H 4834   4.985   2.648   3.400  2.9155 -1.0977  1.0851
  777MOL0     H 4835   4.831   2.651   3.484 -1.7841 -2.1675 -3.2593
  777MOL0     H 4836   5.003   2.395   3.472  2.2932  3.3235 -1.3232
  777MOL0     H 4837   4.846   2.397   3.556 -2.0551  0.2149 -1.1912
  777MOL0     H 4838   4.874   2.440   3.259  0.2628  0.6321  0.5373
  777MOL0     H 4839   4.814   2.294   3.341  0.1083  0.3228 -0.3088
  777MOL0     H 4840   4.622   2.409   3.432  0.9682  0.9365  0.6991
  777MOL0     H 4841   4.659   2.554   3.350 -0.3954  0.3575  1.8685
  777MOL0     H 4842   4.617   2.290   3.210  4.0142  1.1270  0.8247
  777MOL0     H 4843   4.629   2.450   3.138  0.1480  0.0178  0.6608
  777MOL0     H 4844   4.397   2.352   3.149 -1.1247 -1.6582  1.4284
  777MOL0     H 4845   4.402   2.403   3.328  0.8329  0.3488  1.3453
  777MOL0     H 4846   4.394   2.572   2.977 -1.4163 -0.7539 -1.3245
  777MOL0     H 4847   4.356   2.962   3.017  0.6587 -0.5864  3.3816
  777MOL0     H 4848   4.494   2.868   2.966 -0.5355 -3.4337 -0.0525
  777MOL0     H 4849   4.386   2.783   2.781 -0.4701  0.3636 -1.1839
  777MOL0     H 4850   4.245   2.734   2.882 -1.9822  3.2060  4.2081
  777MOL0     H 4851   4.222   2.904   2.688  0.6987  1.9592 -0.5877
  777MOL0     H 4852   4.326   2.998   2.779  1.7348 -1.8739 -0.6135
  777MOL0     H 4853   4.118   2.919   2.975 -2.1751 -0.5714  0.1485
  777MOL0     H 4854   4.034   2.928   2.831  1.4127 -3.8140  0.7911
  777MOL0     H 4855   4.165   3.059   3.122  1.2603  0.0018 -2.7359
  777MOL0     H 4856   4.024   3.162   3.312 -0.9090  1.4991  1.4419
  777MOL0     H 4857   3.851   3.200   3.637  1.6336  2.0062  1.2606
  777MOL0     H 4858   3.687   3.229   3.831 -3.1702  0.9488  1.2203
  777MOL0     H 4859   3.378   3.208   3.786  1.0012 -2.3350  2.8057
  777MOL0     H 4860   3.368   3.258   3.952 -4.9477  5.3515  2.2900
  777MOL0     H 4861   3.174   3.342   3.883  0.0404 -2.9378 -0.8195
  777MOL0     H 4862   3.275   3.483   3.835 -0.1216  0.4480 -2.0212
  777MOL0     H 4863   3.242   3.457   3.610 -0.8263 -0.3891 -2.3594
  777MOL0     H 4864   3.258   3.283   3.616 -1.3465  0.6956  0.2070
  777MOL0     H 4865   3.021   3.447   3.715 -1.9142 -1.6120  1.4754
  777MOL0     H 4866   3.022   3.267   3.702 -2.0217  1.1796  1.8608
  777MOL0     H 4867   3.044   3.273   3.457 -1.4363  0.0808 -1.6553
  777MOL0     H 4868   3.043   3.445   3.453  0.3374 -0.2411 -0.6486
  777MOL0     H 4869   2.812   3.310   3.418  0.2132  0.4355 -0.1985
  777MOL0     H 4870   2.806   3.319   3.594 -0.1826  0.7228  0.3180
  777MOL0     H 4871   2.835   3.575   3.428  0.2275 -0.6972 -0.4681
  777MOL0     H 4872   2.804   3.560   3.601  1.6001 -2.2235  1.1264
  777MOL0     H 4873   2.614   3.596   3.471 -1.4985 -0.8997  3.2115
  777MOL0     H 4874   2.656   3.470   3.354 -1.6434 -1.1160 -0.0549
  777MOL0     H 4875   3.483   3.519   3.603  0.3977 -1.0233 -0.4177
  777MOL0     H 4876   3.628   3.508   3.422  0.1859  4.0458  2.0752
  777MOL0     H 4877   3.807   3.378   3.006 -2.0720 -3.1188 -4.0908
  777MOL0     H 4878   3.913   3.260   2.832 -0.4338 -2.5332 -1.6820
  777MOL0     H 4879   5.088   3.029   3.732  2.7160 -0.8855  2.3103
  777MOL0     H 4880   5.259   3.202   3.750 -1.3680  2.2438 -0.9986
  777MOL0     H 4881   5.665   3.292   3.646 -0.3149 -0.7634 -0.5460
  777MOL0     H 4882   5.867   3.397   3.684  0.2683  1.7133  0.0977
  777MOL0     H 4883   6.004   3.733   3.406 -2.9583 -1.3995 -0.3596
  777MOL0     H 4884   6.076   3.590   3.325  2.7245  4.0916 -1.8766
  777MOL0     H 4885   6.256   3.727   3.384  1.2289 -3.0508 -1.3139
  777MOL0     H 4886   6.251   3.583   3.492 -3.1966 -2.0129  0.3496
  777MOL0     H 4887   6.225   3.711   3.672  0.0469 -0.4550 -0.3990
  777MOL0     H 4888   6.115   3.836   3.596  0.7408  1.6553  5.1700
  777MOL0     H 4889   6.329   3.927   3.487  0.5290  0.7773  0.0464
  777MOL0     H 4890   6.329   3.929   3.663 -2.3618 -0.1238  0.1330
  777MOL0     H 4891   6.642   3.643   3.604  0.8885  0.5235 -1.3639
  777MOL0     H 4892   5.860   3.590   3.310  1.8659 -2.4567 -0.5919
  777MOL0     H 4893   5.585   3.432   3.167  2.0459 -2.4587  2.1851
  777MOL0     H 4894   5.498   3.554   3.269 -0.8296 -1.4655 -0.3518
  777MOL0     H 4895   5.645   3.594   3.167  0.0890 -1.9706 -1.8164
  778MOL0     O 4896   1.457  10.337   5.362  0.2398 -0.0734 -0.1861
  778MOL0     C 4897   1.347  10.284   5.377  0.1247 -0.4345 -0.4731
  778MOL0     O 4898   1.252  10.313   5.472  0.0946 -0.6281  0.3844
  778MOL0     C 4899   1.275  10.366   5.599  0.1034 -0.2799 -1.3484
  778MOL0     C 4900   1.389  10.414   5.662 -1.1446 -0.1616 -0.0313
  778MOL0     C 4901   1.393  10.487   5.779  0.8869  0.8194  0.0247
  778MOL0     C 4902   1.279  10.518   5.843  0.7074  0.0018 -0.1414
  778MOL0     O 4903   1.282  10.600   5.954 -0.7532 -0.5564 -0.3464
  778MOL0     C 4904   1.178  10.700   5.966 -0.0396 -0.3280 -0.1513
  778MOL0     C 4905   1.218  10.815   6.051  0.0671  0.6104 -0.3532
  778MOL0     C 4906   1.311  10.919   5.986 -0.2629 -0.2397 -1.1195
  778MOL0     C 4907   1.456  10.901   6.025 -0.2262  0.3357 -0.4811
  778MOL0     C 4908   1.557  10.991   5.942  0.0560  0.2809  0.2510
  778MOL0     C 4909   1.570  10.964   5.792  0.8873  0.2034 -0.0587
  778MOL0     C 4910   1.629  10.820   5.764  1.0474 -0.1905 -1.0730
  778MOL0     C 4911   1.669  10.797   5.622  0.4403 -0.0628  0.6367
  778MOL0     N 4912   1.782  10.888   5.566  0.7211  0.5414  0.2122
  778MOL0     C 4913   1.905  10.925   5.626  0.0596  0.0552 -0.5371
  778MOL0     C 4914   1.963  11.013   5.540  0.2937  0.3008 -0.5659
  778MOL0     C 4915   2.104  11.062   5.548  1.0126 -0.6675 -0.2666
  778MOL0     C 4916   2.110  11.212   5.572  0.8447 -0.1743  0.4238
  778MOL0     C 4917   2.250  11.258   5.524 -0.8420 -0.1931  0.6845
  778MOL0     C 4918   2.284  11.404   5.561  0.3893  0.0033 -0.1794
  778MOL0     O 4919   2.406  11.435   5.499  0.2145 -1.0314 -0.7264
  778MOL0     C 4920   2.439  11.567   5.500 -0.3018  0.4692  0.0636
  778MOL0     C 4921   2.559  11.599   5.436 -0.5659 -0.6210 -0.3535
  778MOL0     C 4922   2.610  11.736   5.439 -0.4456 -0.5750  0.1296
  778MOL0     C 4923   2.539  11.829   5.515  0.1318  0.1492  0.2108
  778MOL0     C 4924   2.583  11.970   5.531 -0.0435  0.1758  0.4116
  778MOL0     O 4925   2.539  12.028   5.635  0.4949 -0.9450  0.8395
  778MOL0     C 4926   2.558  12.166   5.651 -0.1210  0.7696 -1.1082
  778MOL0     C 4927   2.492  12.263   5.575 -0.2909  0.7682  0.4541
  778MOL0     C 4928   2.524  12.396   5.600 -0.2320 -0.3734  0.3534
  778MOL0     C 4929   2.621  12.432   5.696 -1.1736  0.0478  0.2897
  778MOL0     O 4930   2.651  12.564   5.710 -0.0762 -0.5201 -0.1894
  778MOL0     C 4931   2.778  12.598   5.766 -0.2565 -0.0728  1.1514
  778MOL0     C 4932   2.798  12.747   5.755 -0.6037 -0.0499 -0.9801
  778MOL0     C 4933   2.712  12.815   5.864  1.1306 -0.2308  0.1628
  778MOL0     C 4934   2.708  12.962   5.840  0.9781 -0.7145  0.9574
  778MOL0     C 4935   2.634  13.025   5.959 -0.5293 -0.0447 -0.0950
  778MOL0     C 4936   2.636  13.182   5.938 -0.3295 -0.3342 -0.7107
  778MOL0     C 4937   2.541  13.261   6.027 -0.0990  0.4808  0.0236
  778MOL0     C 4938   2.501  13.395   5.970  0.5210 -0.4008  0.6469
  778MOL0    Cl 4939   2.365  13.366   5.845 -0.2044 -0.4892  0.2861
  778MOL0     C 4940   2.682  12.328   5.771  0.2487 -0.3429 -0.0364
  778MOL0     C 4941   2.646  12.194   5.752  0.1122  0.2238  0.6551
  778MOL0     O 4942   2.678  12.009   5.460  0.7897 -0.5446  0.6188
  778MOL0     C 4943   2.415  11.795   5.568 -1.0067 -0.2882  0.6376
  778MOL0     C 4944   2.359  11.670   5.563  0.7383 -0.4709  0.3354
  778MOL0     N 4945   1.873  11.031   5.434  0.3182 -0.1163  0.2417
  778MOL0     N 4946   1.770  10.952   5.447  0.0389 -0.3907 -0.0554
  778MOL0     C 4947   1.161  10.484   5.782 -0.2689 -0.4176  0.7472
  778MOL0     C 4948   1.157  10.407   5.657  0.8426 -0.3661 -1.0311
  778MOL0     C 4949   1.308  10.178   5.277 -0.3050 -1.0389  0.1311
  778MOL0     C 4950   1.201  10.084   5.309  0.3942 -0.0442  0.3402
  778MOL0     C 4951   1.157   9.987   5.220 -0.1422 -0.0199 -0.2959
  778MOL0     C 4952   1.222   9.964   5.105  0.2631  0.8645  0.0693
  778MOL0     O 4953   1.183   9.869   5.008  0.2988  0.0854 -0.4607
  778MOL0     C 4954   1.037   9.841   4.996 -0.5972  0.0024  0.6005
  778MOL0     C 4955   1.019   9.784   4.851 -0.2411  0.5487 -0.0043
  778MOL0     C 4956   1.106   9.668   4.815 -0.1832  0.4239 -0.4963
  778MOL0     C 4957   1.046   9.556   4.728  0.6646  0.5418  0.0871
  778MOL0     C 4958   1.006   9.605   4.593  0.4902  0.1919  0.0453
  778MOL0     C 4959   0.968   9.614   4.482  0.7565 -0.6400 -0.6328
  778MOL0     C 4960   1.323  10.041   5.074 -0.5373 -0.7778  0.3219
  778MOL0     C 4961   1.370  10.146   5.155 -0.2097  0.0643  0.8129
  778MOL0     C 4962   1.474  10.240   5.095 -0.2954  0.4359  0.2553
  778MOL0     H 4963   1.487  10.414   5.614 -0.4478  1.2082  1.3213
  778MOL0     H 4964   1.490  10.525   5.811  0.5293  1.8044 -0.0262
  778MOL0     H 4965   1.147  10.730   5.865 -1.0276 -3.5420 -0.9259
  778MOL0     H 4966   1.093  10.653   6.016 -1.1435  0.7934 -0.9170
  778MOL0     H 4967   1.256  10.777   6.146 -2.1874  0.2329  0.4420
  778MOL0     H 4968   1.123  10.865   6.069 -0.8915 -0.9668 -0.8821
  778MOL0     H 4969   1.273  11.016   6.019 -3.2261 -1.0942 -1.7540
  778MOL0     H 4970   1.315  10.906   5.877  3.7997  0.7941 -1.2869
  778MOL0     H 4971   1.475  10.923   6.131  0.5291 -0.5367 -0.4248
  778MOL0     H 4972   1.484  10.796   6.018  3.6208  0.7047  4.0513
  778MOL0     H 4973   1.530  11.097   5.947  0.9490  0.5039  0.4869
  778MOL0     H 4974   1.655  10.983   5.990  0.8548  1.5636 -1.0709
  778MOL0     H 4975   1.475  10.971   5.740  0.7737 -1.5095 -0.1350
  778MOL0     H 4976   1.640  11.037   5.750 -0.5074  0.1891 -2.5683
  778MOL0     H 4977   1.555  10.751   5.806  2.1663 -0.6472  0.2342
  778MOL0     H 4978   1.716  10.802   5.828 -0.2615 -0.9845  0.5833
  778MOL0     H 4979   1.701  10.692   5.622 -0.5741 -0.3815  0.6611
  778MOL0     H 4980   1.579  10.806   5.562  1.4084  1.6562 -0.6433
  778MOL0     H 4981   1.944  10.867   5.708  1.2212 -0.4484 -1.4125
  778MOL0     H 4982   2.149  11.022   5.640  2.3176  4.7997  1.8375
  778MOL0     H 4983   2.153  11.027   5.456 -3.8691  1.1754 -4.0162
  778MOL0     H 4984   2.037  11.269   5.514  2.2274 -1.1997 -2.5370
  778MOL0     H 4985   2.100  11.234   5.679 -2.6595  3.1625 -0.3722
  778MOL0     H 4986   2.276  11.242   5.419  1.9109  1.1773  1.0746
  778MOL0     H 4987   2.316  11.196   5.586  1.4822  1.3685 -0.0945
  778MOL0     H 4988   2.294  11.431   5.667 -2.3827  1.2034 -0.1514
  778MOL0     H 4989   2.198  11.453   5.515 -1.2000 -1.1330  1.4452
  778MOL0     H 4990   2.618  11.515   5.401  0.9108 -1.4097  3.5573
  778MOL0     H 4991   2.707  11.760   5.398 -1.5341  2.1604 -1.0853
  778MOL0     H 4992   2.430  12.236   5.490 -0.1223 -1.4603  0.9724
  778MOL0     H 4993   2.480  12.478   5.545  0.5678 -0.9304 -1.1819
  778MOL0     H 4994   2.798  12.558   5.866  3.6136 -3.5274 -0.6851
  778MOL0     H 4995   2.859  12.546   5.714 -0.2665  0.0119  1.0480
  778MOL0     H 4996   2.905  12.752   5.780 -0.8387 -5.4918  2.9912
  778MOL0     H 4997   2.782  12.788   5.655 -1.8485  0.6950 -0.4879
  778MOL0     H 4998   2.614  12.769   5.853  0.3292  1.6992 -1.2353
  778MOL0     H 4999   2.752  12.809   5.966  1.8400  1.4581  0.0195
  778MOL0     H 5000   2.660  12.987   5.744 -0.6252 -1.2418  1.6023
  778MOL0     H 5001   2.811  12.999   5.839  0.2830  1.4545 -1.2333
  778MOL0     H 5002   2.674  13.005   6.059 -2.7067 -0.0536  0.8461
  778MOL0     H 5003   2.531  12.988   5.965 -0.9530  0.8245 -1.5349
  778MOL0     H 5004   2.736  13.221   5.959 -2.0948  3.4339  1.9736
  778MOL0     H 5005   2.603  13.204   5.836 -5.3551 -1.6414  0.3947
  778MOL0     H 5006   2.586  13.268   6.126 -1.7400  1.5948  0.7189
  778MOL0     H 5007   2.452  13.200   6.038  0.7295 -0.4034  2.4156
  778MOL0     H 5008   2.473  13.459   6.053  3.4725  2.8341 -0.5992
  778MOL0     H 5009   2.587  13.437   5.918 -0.0990 -1.0422 -0.9674
  778MOL0     H 5010   2.751  12.342   5.853  0.4314 -1.2322 -0.0268
  778MOL0     H 5011   2.695  12.107   5.795  0.6850 -1.2085 -2.5363
  778MOL0     H 5012   2.349  11.863   5.621  0.5764 -0.2413  2.6565
  778MOL0     H 5013   2.257  11.652   5.595  0.7362  0.9051  1.1799
  778MOL0     H 5014   1.070  10.524   5.824 -0.7140 -2.0377  1.4078
  778MOL0     H 5015   1.059  10.400   5.611  0.9336  1.1282 -1.5127
  778MOL0     H 5016   1.150  10.080   5.405 -0.5775 -0.2191 -0.1679
  778MOL0     H 5017   1.079   9.919   5.252  0.9536 -0.1407  2.3847
  778MOL0     H 5018   0.984   9.936   4.999  1.1563  1.1147 -1.3161
  778MOL0     H 5019   0.998   9.774   5.074 -1.3983 -1.9643 -1.3716
  778MOL0     H 5020   1.026   9.867   4.781 -1.4026  0.1319 -0.6539
  778MOL0     H 5021   0.915   9.748   4.849 -1.8390  4.6760 -2.0316
  778MOL0     H 5022   1.128   9.620   4.911 -1.8655  1.3434  0.4017
  778MOL0     H 5023   1.196   9.713   4.774 -1.1757  2.5429 -0.4815
  778MOL0     H 5024   1.114   9.471   4.726  2.4027  1.8403  1.0500
  778MOL0     H 5025   0.964   9.537   4.798  1.6715  1.9309  1.7277
  778MOL0     H 5026   0.930   9.624   4.382  1.0190  0.9178 -0.6120
  778MOL0     H 5027   1.377  10.022   4.981 -2.6526  0.9425 -1.3636
  778MOL0     H 5028   1.567  10.240   5.152  0.5662 -1.4635 -1.0189
  778MOL0     H 5029   1.499  10.194   4.998  0.8033 -0.3713  0.8991
  778MOL0     H 5030   1.438  10.342   5.080 -2.8744 -0.0723  2.3694
  779MOL0     O 5031   4.845   4.851   6.248  0.3461  0.5408 -0.0057
  779MOL0     C 5032   4.782   4.835   6.144  0.4463  0.0046 -0.3022
  779MOL0     O 5033   4.747   4.940   6.058  0.7176 -1.1992 -0.3497
  779MOL0     C 5034   4.779   5.066   6.095  0.5102  0.4588  0.4939
  779MOL0     C 5035   4.683   5.143   6.157  0.2342  0.1450 -0.0886
  779MOL0     C 5036   4.719   5.274   6.210  0.1716  0.0815  0.2341
  779MOL0     C 5037   4.844   5.329   6.175  0.5940 -0.1260 -0.4535
  779MOL0     O 5038   4.888   5.453   6.213 -0.1605  0.6279 -0.0358
  779MOL0     C 5039   4.936   5.445   6.346 -0.7877 -0.3985 -0.1792
  779MOL0     C 5040   5.024   5.565   6.379 -0.6841 -0.3337 -0.1343
  779MOL0     C 5041   4.938   5.691   6.414  0.0798 -0.3306 -0.3669
  779MOL0     C 5042   5.013   5.773   6.508 -1.5730  0.2758 -1.0733
  779MOL0     C 5043   4.934   5.914   6.536  0.1577 -0.2598 -0.6131
  779MOL0     C 5044   5.024   6.017   6.603 -1.0078 -0.9045  0.5761
  779MOL0     C 5045   5.133   6.092   6.523  0.0754  0.6962 -0.6638
  779MOL0     C 5046   5.214   6.183   6.607 -0.4252  0.3118 -0.4985
  779MOL0     N 5047   5.341   6.116   6.636  0.4746  0.4194  0.0261
  779MOL0     C 5048   5.466   6.178   6.632 -1.2344 -0.4615  0.5315
  779MOL0     C 5049   5.551   6.086   6.685 -0.0651 -0.9206  0.3116
  779MOL0     C 5050   5.693   6.114   6.703 -0.6467 -0.4335 -0.3442
  779MOL0     C 5051   5.725   6.165   6.847  0.0196 -0.0691 -0.0397
  779MOL0     C 5052   5.768   6.054   6.944 -0.0038 -0.0423 -0.5472
  779MOL0     C 5053   5.908   5.988   6.928 -0.2163 -0.5596 -1.1182
  779MOL0     O 5054   6.009   6.089   6.909 -0.2264 -0.3940 -0.1526
  779MOL0     C 5055   6.101   6.073   6.802  0.3393  0.6995  0.1837
  779MOL0     C 5056   6.163   5.947   6.784 -0.5152 -0.3153 -0.3493
  779MOL0     C 5057   6.265   5.933   6.680  0.5445 -0.5456 -0.2762
  779MOL0     C 5058   6.295   6.052   6.607  0.3559 -0.4659 -0.6455
  779MOL0     C 5059   6.384   6.048   6.493  0.2385  0.5805 -0.5219
  779MOL0     O 5060   6.449   5.934   6.476 -0.6544 -0.6936  0.4551
  779MOL0     C 5061   6.501   5.889   6.357 -0.4469 -0.9407  0.0726
  779MOL0     C 5062   6.447   5.916   6.231  1.0577 -0.8268  0.8926
  779MOL0     C 5063   6.490   5.854   6.113 -0.4168  0.5006  0.4611
  779MOL0     C 5064   6.596   5.760   6.120  0.9454 -0.5758  0.0479
  779MOL0     O 5065   6.647   5.703   6.012  0.4335 -0.3447 -0.3521
  779MOL0     C 5066   6.550   5.674   5.901 -0.0263 -0.2642 -0.4761
  779MOL0     C 5067   6.590   5.545   5.841 -0.1888  0.5550  0.1734
  779MOL0     C 5068   6.528   5.432   5.923 -0.3679  0.8774 -0.5556
  779MOL0     C 5069   6.492   5.309   5.846  0.1877  1.0774  0.0662
  779MOL0     C 5070   6.444   5.189   5.933  0.7379  0.3742 -0.5343
  779MOL0     C 5071   6.337   5.117   5.847 -0.4607  0.8141  0.3496
  779MOL0     C 5072   6.273   5.000   5.927  0.2168  0.2968  0.5828
  779MOL0     C 5073   6.355   4.918   6.035 -0.1048  1.1489  0.7564
  779MOL0    Cl 5074   6.228   4.810   6.106 -0.5739  0.0916  0.2585
  779MOL0     C 5075   6.643   5.730   6.241 -0.3033  0.4262  0.6937
  779MOL0     C 5076   6.607   5.795   6.357  0.0206 -0.8374  0.3379
  779MOL0     O 5077   6.389   6.146   6.423 -0.3179  0.3590 -0.3055
  779MOL0     C 5078   6.231   6.175   6.636 -0.0421 -0.5370  0.1878
  779MOL0     C 5079   6.123   6.182   6.725 -0.2384  0.4090  0.0703
  779MOL0     N 5080   5.477   5.976   6.729  0.0897 -0.0655  0.6727
  779MOL0     N 5081   5.350   5.992   6.695 -1.2810  0.4004 -0.0739
  779MOL0     C 5082   4.933   5.253   6.104 -0.9793  0.1161  0.4943
  779MOL0     C 5083   4.902   5.118   6.065  0.2660  0.1274 -0.0084
  779MOL0     C 5084   4.748   4.703   6.096  0.6474 -0.0269 -0.0644
  779MOL0     C 5085   4.713   4.695   5.957  0.0274  0.2272  0.5318
  779MOL0     C 5086   4.703   4.577   5.887  0.0497  0.6359  0.2603
  779MOL0     C 5087   4.705   4.454   5.957 -1.0692 -0.2572 -0.0926
  779MOL0     O 5088   4.686   4.331   5.897 -0.2273 -1.2596 -0.3715
  779MOL0     C 5089   4.548   4.301   5.897  0.6775 -0.4956 -0.1286
  779MOL0     C 5090   4.491   4.198   6.001 -0.1627 -0.3230  0.0655
  779MOL0     C 5091   4.561   4.056   5.992  0.1201 -0.7244  0.5653
  779MOL0     C 5092   4.541   3.999   5.855  0.6045  0.3598 -0.1256
  779MOL0     C 5093   4.403   3.955   5.821 -0.1493  0.4122 -0.6933
  779MOL0     C 5094   4.287   3.922   5.792 -0.2920  0.3582  0.3353
  779MOL0     C 5095   4.726   4.460   6.093 -0.6063  0.8250 -0.7881
  779MOL0     C 5096   4.755   4.582   6.165 -1.2334  0.3996 -0.2392
  779MOL0     C 5097   4.790   4.576   6.312 -0.6371 -0.9774  0.5363
  779MOL0     H 5098   4.583   5.105   6.177  1.7227 -5.3271 -1.4779
  779MOL0     H 5099   4.643   5.341   6.251  2.3787  2.3448  0.8820
  779MOL0     H 5100   4.854   5.449   6.418  0.1897  1.5803  0.9332
  779MOL0     H 5101   4.999   5.358   6.365  0.3180  0.6339  1.1010
  779MOL0     H 5102   5.083   5.593   6.291  0.9677  1.0832  1.3543
  779MOL0     H 5103   5.103   5.535   6.448  1.9436 -2.7424 -3.7719
  779MOL0     H 5104   4.838   5.667   6.451 -0.2602 -1.8195 -2.0918
  779MOL0     H 5105   4.924   5.747   6.321  3.7353 -4.1695 -3.6367
  779MOL0     H 5106   5.046   5.722   6.599 -2.4155 -2.6105 -2.2449
  779MOL0     H 5107   5.114   5.801   6.475  0.1077 -0.9858  2.4522
  779MOL0     H 5108   4.883   5.950   6.446  0.3626  0.9770 -0.2533
  779MOL0     H 5109   4.846   5.890   6.598  0.6811 -1.8239 -0.4293
  779MOL0     H 5110   4.956   6.089   6.650 -1.1652  0.1800 -1.2230
  779MOL0     H 5111   5.076   5.975   6.689  1.0315  3.9970  2.0659
  779MOL0     H 5112   5.076   6.142   6.445  0.0322 -0.8293 -1.6545
  779MOL0     H 5113   5.194   6.018   6.470 -0.4857  0.9569 -1.7023
  779MOL0     H 5114   5.233   6.273   6.549  0.1964 -0.4195 -1.4482
  779MOL0     H 5115   5.156   6.205   6.698 -1.2535  1.0351 -1.1770
  779MOL0     H 5116   5.481   6.275   6.586  2.9057  0.0755  2.5722
  779MOL0     H 5117   5.749   6.023   6.678  0.2446 -0.5555  1.8736
  779MOL0     H 5118   5.730   6.191   6.634  1.4781 -2.5464 -1.6983
  779MOL0     H 5119   5.799   6.246   6.838  2.3028 -1.9517  0.8585
  779MOL0     H 5120   5.631   6.205   6.887 -1.3729  1.2101 -4.0200
  779MOL0     H 5121   5.685   5.983   6.939 -2.6585  2.1020  5.1588
  779MOL0     H 5122   5.755   6.082   7.048 -0.2668 -2.0602  0.0067
  779MOL0     H 5123   5.908   5.929   6.836  0.3331  3.7260 -4.1410
  779MOL0     H 5124   5.927   5.930   7.018  0.8713  2.5506  0.8182
  779MOL0     H 5125   6.138   5.855   6.835 -0.1219  0.1695  0.7690
  779MOL0     H 5126   6.312   5.838   6.657  1.2064 -0.3086  0.0731
  779MOL0     H 5127   6.362   5.982   6.230 -0.9337 -3.2326  1.1429
  779MOL0     H 5128   6.443   5.883   6.020  0.9385 -0.0640 -0.4282
  779MOL0     H 5129   6.444   5.666   5.925  0.0404 -4.6461 -0.9208
  779MOL0     H 5130   6.563   5.758   5.831  0.2075 -0.5321 -0.7606
  779MOL0     H 5131   6.543   5.547   5.742  0.9753  2.3793 -0.4142
  779MOL0     H 5132   6.698   5.532   5.836 -0.4618 -1.5040 -1.8098
  779MOL0     H 5133   6.609   5.404   5.991 -0.6557  1.0964 -0.1166
  779MOL0     H 5134   6.442   5.463   5.984  0.4871  1.3837  0.4147
  779MOL0     H 5135   6.577   5.273   5.788  0.6829 -1.8217  2.3296
  779MOL0     H 5136   6.417   5.337   5.772 -1.1368  1.1323  1.3958
  779MOL0     H 5137   6.404   5.213   6.032 -0.6230  0.1527 -1.0125
  779MOL0     H 5138   6.520   5.111   5.948  0.9279  0.4671 -0.9950
  779MOL0     H 5139   6.259   5.194   5.839  0.5814  2.3817  3.4354
  779MOL0     H 5140   6.375   5.088   5.749  0.5637  1.6388  0.4776
  779MOL0     H 5141   6.213   4.936   5.862 -1.0218  1.5363  0.4424
  779MOL0     H 5142   6.203   5.049   5.996  1.4002 -0.5116  2.4298
  779MOL0     H 5143   6.430   4.861   5.980 -1.0466  1.5533 -1.0315
  779MOL0     H 5144   6.405   4.976   6.113  0.0384  0.7212  0.9827
  779MOL0     H 5145   6.707   5.642   6.251  0.6507  1.0683  0.3725
  779MOL0     H 5146   6.642   5.764   6.455 -1.6394 -1.2686  0.8216
  779MOL0     H 5147   6.261   6.270   6.594 -1.0658  0.8058  2.2904
  779MOL0     H 5148   6.068   6.275   6.735 -2.1462 -0.1588 -3.4660
  779MOL0     H 5149   5.029   5.302   6.093 -0.6813  0.6008  4.0853
  779MOL0     H 5150   4.976   5.050   6.022 -0.4231  0.8574 -2.5515
  779MOL0     H 5151   4.714   4.784   5.895 -2.2095 -0.9320 -1.2777
  779MOL0     H 5152   4.691   4.600   5.781 -0.4573 -1.5355 -0.1934
  779MOL0     H 5153   4.530   4.260   5.797  1.7346 -2.8731  0.5910
  779MOL0     H 5154   4.487   4.391   5.908  0.3136 -0.6042 -1.0873
  779MOL0     H 5155   4.386   4.188   5.970  0.3446  1.3697 -2.4770
  779MOL0     H 5156   4.488   4.232   6.105  0.6419 -1.4454  0.4600
  779MOL0     H 5157   4.522   3.990   6.070  1.6860 -0.9433  1.2022
  779MOL0     H 5158   4.666   4.067   6.020  0.0733 -0.7747  0.7599
  779MOL0     H 5159   4.581   4.045   5.764  0.4475 -3.7490 -2.5312
  779MOL0     H 5160   4.607   3.913   5.845  0.3550 -0.0205  1.3049
  779MOL0     H 5161   4.188   3.891   5.768  0.3046 -0.9789 -0.5218
  779MOL0     H 5162   4.745   4.366   6.143 -1.4253 -0.1746 -2.2625
  779MOL0     H 5163   4.894   4.600   6.338 -0.5366 -2.1054  1.2251
  779MOL0     H 5164   4.722   4.636   6.373  0.4947 -0.7517  1.6054
  779MOL0     H 5165   4.779   4.473   6.345 -0.9204 -1.3796 -0.7300
  780MOL0     O 5166   9.111   6.866   0.519 -0.1588 -0.0817 -0.1695
  780MOL0     C 5167   9.166   6.948   0.590 -0.0239  0.5198 -0.6075
  780MOL0     O 5168   9.294   6.929   0.652 -0.3803  0.8104 -0.7577
  780MOL0     C 5169   9.377   6.822   0.606 -0.2573 -0.2898 -0.9356
  780MOL0     C 5170   9.495   6.843   0.540  0.3189  0.0463  0.6104
  780MOL0     C 5171   9.585   6.741   0.506 -0.4299 -0.2534 -0.3102
  780MOL0     C 5172   9.561   6.610   0.554  0.1901 -0.1821  0.1871
  780MOL0     O 5173   9.637   6.499   0.540  0.0091 -0.1695 -0.3851
  780MOL0     C 5174   9.781   6.522   0.533  0.0789  0.0089  0.0761
  780MOL0     C 5175   9.858   6.403   0.577 -0.3771  0.8303  0.3625
  780MOL0     C 5176   9.803   6.340   0.702 -0.1666  0.7297 -0.5229
  780MOL0     C 5177   9.857   6.391   0.833  1.0284 -0.1479 -0.7035
  780MOL0     C 5178   9.819   6.533   0.870  0.1670 -0.2134  0.7302
  780MOL0     C 5179   9.682   6.524   0.932 -0.3198 -0.7138 -0.2220
  780MOL0     C 5180   9.633   6.667   0.968 -0.2992 -0.0900 -0.0674
  780MOL0     C 5181   9.717   6.768   1.044 -0.3411 -0.2079  0.3478
  780MOL0     N 5182   9.648   6.895   1.031  0.0321  0.5670  0.2208
  780MOL0     C 5183   9.511   6.915   1.054  0.1425 -0.2724  0.4891
  780MOL0     C 5184   9.505   7.049   1.042  0.0197 -0.2436 -0.3079
  780MOL0     C 5185   9.397   7.138   1.107  0.1863 -0.2601 -0.8285
  780MOL0     C 5186   9.345   7.255   1.014  0.2548  0.5241  0.4737
  780MOL0     C 5187   9.306   7.370   1.112  0.7055 -0.0117  0.6720
  780MOL0     C 5188   9.195   7.460   1.054 -0.7245 -0.3071  0.4429
  780MOL0     O 5189   9.075   7.387   1.080 -0.3493  0.5278  0.1571
  780MOL0     C 5190   8.956   7.457   1.092  0.3226 -0.4312  0.2638
  780MOL0     C 5191   8.837   7.388   1.123 -0.1221  0.7525 -0.0680
  780MOL0     C 5192   8.709   7.447   1.140  0.1366 -0.3689  0.1785
  780MOL0     C 5193   8.705   7.590   1.122 -0.1216  0.5958  0.3053
  780MOL0     C 5194   8.570   7.639   1.120 -0.2445 -0.0764 -0.4677
  780MOL0     O 5195   8.461   7.553   1.125 -0.1356  0.1869 -0.4416
  780MOL0     C 5196   8.344   7.621   1.090 -0.8412  0.7262  0.5252
  780MOL0     C 5197   8.263   7.684   1.189  0.6289 -0.3055  0.3043
  780MOL0     C 5198   8.140   7.736   1.140  0.0945  1.4133 -0.4050
  780MOL0     C 5199   8.109   7.748   0.998 -0.3468 -0.6311 -1.0871
  780MOL0     O 5200   8.002   7.809   0.944  0.9130  0.2860  0.3405
  780MOL0     C 5201   7.881   7.795   1.011  0.2860 -0.3912 -1.3795
  780MOL0     C 5202   7.794   7.918   1.006 -0.0934 -0.0620  0.2935
  780MOL0     C 5203   7.729   7.954   0.869 -0.5528 -0.0602 -0.5972
  780MOL0     C 5204   7.636   8.077   0.885 -0.0977  0.1458  0.0037
  780MOL0     C 5205   7.577   8.120   0.752 -0.6272  0.3203  0.3082
  780MOL0     C 5206   7.682   8.128   0.632 -0.1304 -0.2278  0.0101
  780MOL0     C 5207   7.610   8.180   0.511 -0.5866  1.2070  0.8006
  780MOL0     C 5208   7.525   8.065   0.456 -0.9290  0.4986 -0.0017
  780MOL0    Cl 5209   7.458   8.102   0.300  0.2185 -0.2818  0.1711
  780MOL0     C 5210   8.203   7.696   0.910 -0.7385  1.3857 -0.3529
  780MOL0     C 5211   8.326   7.628   0.942 -0.0379  0.5284 -0.2891
  780MOL0     O 5212   8.557   7.766   1.122 -0.4673  0.4388 -0.0153
  780MOL0     C 5213   8.816   7.670   1.097 -1.1138 -0.4998 -0.7388
  780MOL0     C 5214   8.943   7.603   1.084 -0.0375 -0.1865  0.6438
  780MOL0     N 5215   9.624   7.105   0.991 -0.0675 -0.5726  0.4401
  780MOL0     N 5216   9.708   7.011   0.980 -0.2235  0.3104  0.0448
  780MOL0     C 5217   9.430   6.594   0.616 -0.3041  0.4979  0.2265
  780MOL0     C 5218   9.347   6.702   0.652  0.2671 -0.0736  0.8133
  780MOL0     C 5219   9.102   7.081   0.615 -0.0160 -0.0200  0.4418
  780MOL0     C 5220   9.180   7.174   0.687  0.6539  0.1094 -0.3219
  780MOL0     C 5221   9.136   7.302   0.713  0.8434 -0.8221  0.3630
  780MOL0     C 5222   9.019   7.351   0.659  0.2069 -0.9900 -0.1930
  780MOL0     O 5223   8.993   7.486   0.654 -0.4131  0.1531  0.0260
  780MOL0     C 5224   8.852   7.523   0.653 -0.3215  0.1612 -0.6545
  780MOL0     C 5225   8.754   7.457   0.751 -0.1769 -0.5972 -0.0101
  780MOL0     C 5226   8.622   7.523   0.756  0.1642  0.2281 -0.1621
  780MOL0     C 5227   8.558   7.547   0.620 -0.2290 -0.4994  0.6044
  780MOL0     C 5228   8.555   7.425   0.537 -0.7351 -0.6203 -0.1424
  780MOL0     C 5229   8.563   7.319   0.469 -0.1025  0.4763 -0.4499
  780MOL0     C 5230   8.943   7.267   0.584 -0.8898 -0.0905  0.6098
  780MOL0     C 5231   8.976   7.135   0.559 -0.2115  0.0342  0.5525
  780MOL0     C 5232   8.888   7.057   0.457 -0.3351  0.2207  0.0458
  780MOL0     H 5233   9.518   6.945   0.510 -0.1016  0.7056  2.4348
  780MOL0     H 5234   9.677   6.764   0.454 -1.1931 -0.0369 -1.5928
  780MOL0     H 5235   9.805   6.534   0.427  0.4179 -1.0257  0.0166
  780MOL0     H 5236   9.804   6.616   0.583 -1.2152  0.4834 -0.1873
  780MOL0     H 5237   9.966   6.416   0.592 -0.3829  3.7881 -1.4121
  780MOL0     H 5238   9.850   6.323   0.502  0.1603 -0.3364  1.5121
  780MOL0     H 5239   9.845   6.239   0.704  1.4161  1.3587  0.9093
  780MOL0     H 5240   9.695   6.350   0.719 -0.1628  1.6410 -0.9706
  780MOL0     H 5241   9.814   6.317   0.902  1.3737 -0.7818 -1.1509
  780MOL0     H 5242   9.966   6.384   0.828  0.8762 -2.7227 -2.6858
  780MOL0     H 5243   9.891   6.554   0.950 -1.0718  0.3415  1.7476
  780MOL0     H 5244   9.840   6.604   0.790 -1.3783 -1.2714 -0.6934
  780MOL0     H 5245   9.627   6.472   0.853 -0.1096 -3.0685  1.0802
  780MOL0     H 5246   9.686   6.457   1.019  2.2921 -0.4160 -0.0314
  780MOL0     H 5247   9.550   6.653   1.038 -0.8242  2.5940 -0.0360
  780MOL0     H 5248   9.613   6.712   0.871  2.8021  2.0727  0.1514
  780MOL0     H 5249   9.719   6.740   1.150 -0.3327  1.8522  0.9390
  780MOL0     H 5250   9.823   6.769   1.018  0.1418 -2.2515  1.9554
  780MOL0     H 5251   9.433   6.851   1.095 -2.0524  0.5563 -2.0396
  780MOL0     H 5252   9.315   7.079   1.151  0.9867 -0.2717  0.7235
  780MOL0     H 5253   9.442   7.178   1.198 -0.7261  0.7444 -0.7885
  780MOL0     H 5254   9.423   7.302   0.953 -2.1700  1.8949 -1.8390
  780MOL0     H 5255   9.268   7.216   0.946  1.3343  1.4186 -1.3308
  780MOL0     H 5256   9.400   7.421   1.133  0.4956 -0.2594  2.3210
  780MOL0     H 5257   9.263   7.327   1.203  1.3883  0.1401  1.0754
  780MOL0     H 5258   9.219   7.475   0.948  2.2700 -3.5802  0.4605
  780MOL0     H 5259   9.193   7.557   1.105 -0.1299  0.1424 -0.3622
  780MOL0     H 5260   8.850   7.280   1.129  1.2718  0.9463  0.8872
  780MOL0     H 5261   8.621   7.388   1.164 -1.6898  2.4814  1.0681
  780MOL0     H 5262   8.283   7.679   1.295 -1.7643  1.3774  0.9242
  780MOL0     H 5263   8.068   7.765   1.215 -0.0870 -0.5675  0.2353
  780MOL0     H 5264   7.820   7.711   0.977 -1.6741  1.0816 -1.6873
  780MOL0     H 5265   7.890   7.783   1.119 -2.0563  0.0299 -1.0741
  780MOL0     H 5266   7.714   7.909   1.079  0.1580 -2.3980  0.3676
  780MOL0     H 5267   7.854   8.000   1.047  2.3577 -2.2629  1.4203
  780MOL0     H 5268   7.801   7.978   0.790  1.9061 -0.1829  1.4727
  780MOL0     H 5269   7.668   7.873   0.828 -2.3402  1.6826 -1.5435
  780MOL0     H 5270   7.709   8.155   0.910 -0.2429 -0.0270  1.0126
  780MOL0     H 5271   7.553   8.063   0.956 -0.2955  2.1832  0.2462
  780MOL0     H 5272   7.542   8.223   0.762 -1.5874  0.2275 -1.5547
  780MOL0     H 5273   7.489   8.059   0.726  0.1220 -1.5658  1.9476
  780MOL0     H 5274   7.760   8.200   0.658  0.6478 -1.3973  1.0721
  780MOL0     H 5275   7.725   8.032   0.600 -2.0864 -0.2184 -2.9918
  780MOL0     H 5276   7.693   8.207   0.444 -2.1149 -0.1692 -1.8105
  780MOL0     H 5277   7.547   8.266   0.535 -1.4287  0.3453  1.7614
  780MOL0     H 5278   7.586   7.974   0.450  0.4540  1.4262 -0.2082
  780MOL0     H 5279   7.443   8.028   0.519 -0.4695 -4.3150 -1.8205
  780MOL0     H 5280   8.191   7.715   0.804  1.1448  0.6454 -0.7501
  780MOL0     H 5281   8.388   7.584   0.865  0.7833 -1.6091  1.4871
  780MOL0     H 5282   8.803   7.774   1.071 -1.4221 -0.5202 -0.6777
  780MOL0     H 5283   9.029   7.654   1.042  0.8409 -3.1989 -1.5659
  780MOL0     H 5284   9.392   6.499   0.652 -1.9931  1.3781  0.8980
  780MOL0     H 5285   9.254   6.685   0.706 -0.2348 -2.2545 -0.6043
  780MOL0     H 5286   9.274   7.159   0.740  2.4970  4.0081 -2.0691
  780MOL0     H 5287   9.207   7.366   0.764  0.7952 -0.3099 -0.1976
  780MOL0     H 5288   8.812   7.502   0.553  1.1562 -2.5956 -0.7557
  780MOL0     H 5289   8.843   7.630   0.674  2.1531 -0.0436  2.0069
  780MOL0     H 5290   8.804   7.456   0.848  0.9525 -1.7714 -0.5823
  780MOL0     H 5291   8.727   7.356   0.720 -0.3420 -0.2513 -1.0368
  780MOL0     H 5292   8.625   7.620   0.807 -0.3980  0.5327 -0.6978
  780MOL0     H 5293   8.550   7.461   0.810 -0.1928 -3.6912 -4.5320
  780MOL0     H 5294   8.457   7.584   0.640 -1.1217 -2.0818 -0.7625
  780MOL0     H 5295   8.607   7.634   0.574 -2.6405  0.7492  0.2269
  780MOL0     H 5296   8.587   7.217   0.446  2.4253  0.6597  1.0708
  780MOL0     H 5297   8.859   7.306   0.528  0.5405  2.1431 -0.0943
  780MOL0     H 5298   8.925   7.081   0.356  0.0507 -2.3942 -0.4920
  780MOL0     H 5299   8.870   6.952   0.481 -4.4122  1.3095  2.7581
  780MOL0     H 5300   8.791   7.108   0.462 -0.6708 -0.4789  0.7850
  781MOL0     O 5301   4.399   6.997   5.235 -0.2946 -0.2037  0.3385
  781MOL0     C 5302   4.308   6.928   5.188  0.7327 -0.3214  0.4042
  781MOL0     O 5303   4.220   6.963   5.083 -0.5640 -0.3542 -0.5327
  781MOL0     C 5304   4.231   7.087   5.024 -0.4940  0.0304 -0.8718
  781MOL0     C 5305   4.237   7.211   5.089  0.7487 -0.7489  0.3854
  781MOL0     C 5306   4.215   7.326   5.008  0.0599 -0.0819 -1.0168
  781MOL0     C 5307   4.205   7.330   4.868 -0.2156  0.2253 -0.0004
  781MOL0     O 5308   4.182   7.443   4.790  0.0099 -0.1922 -0.2150
  781MOL0     C 5309   4.119   7.553   4.859  0.1104 -0.4899 -0.3086
  781MOL0     C 5310   4.226   7.670   4.880  0.1082 -0.3611 -0.1607
  781MOL0     C 5311   4.170   7.790   4.950  0.4799  0.0421  0.3787
  781MOL0     C 5312   4.171   7.918   4.863 -0.1672  0.9758  0.1766
  781MOL0     C 5313   4.077   7.918   4.740 -0.1831 -1.5502 -0.1534
  781MOL0     C 5314   4.040   8.059   4.697 -0.1707  1.2751  0.3072
  781MOL0     C 5315   3.976   8.055   4.561 -0.1682  0.0315 -1.1593
  781MOL0     C 5316   3.918   8.184   4.503  0.0489  0.0602  0.9737
  781MOL0     N 5317   4.027   8.287   4.493  0.2343  0.7030 -0.7965
  781MOL0     C 5318   4.127   8.281   4.407  0.1531 -0.0905  1.3101
  781MOL0     C 5319   4.206   8.390   4.428  0.1492 -0.1203 -0.1439
  781MOL0     C 5320   4.332   8.434   4.345 -1.3558 -0.5799 -0.8641
  781MOL0     C 5321   4.467   8.422   4.423  0.4634  0.2623 -0.9938
  781MOL0     C 5322   4.474   8.508   4.548  0.4328 -0.4685 -0.2979
  781MOL0     C 5323   4.484   8.659   4.523 -1.3290  0.4722 -0.2489
  781MOL0     O 5324   4.360   8.725   4.504 -0.3661 -0.4637 -0.3001
  781MOL0     C 5325   4.370   8.858   4.460 -0.2442  0.2831 -0.0690
  781MOL0     C 5326   4.492   8.928   4.440  0.5008  0.3588 -0.0781
  781MOL0     C 5327   4.489   9.051   4.370  0.4349 -1.3383  0.0891
  781MOL0     C 5328   4.361   9.119   4.344 -1.4040  0.2613  0.5743
  781MOL0     C 5329   4.351   9.253   4.288  0.5447  0.6452 -0.5657
  781MOL0     O 5330   4.220   9.304   4.288  0.8848  0.3834 -0.2812
  781MOL0     C 5331   4.198   9.423   4.228 -0.5557  0.0339 -0.6333
  781MOL0     C 5332   4.273   9.474   4.122  0.5590  0.8488  0.6345
  781MOL0     C 5333   4.214   9.571   4.037  0.2517  0.9803  0.0339
  781MOL0     C 5334   4.103   9.652   4.067  0.6510  1.0192 -1.3351
  781MOL0     O 5335   4.047   9.738   3.981 -0.2280  0.0481  0.4071
  781MOL0     C 5336   4.018   9.702   3.852  0.5556  0.5785 -0.7139
  781MOL0     C 5337   4.113   9.787   3.768  0.0328  0.3788 -0.2300
  781MOL0     C 5338   4.046   9.831   3.640  0.4484 -0.2597 -0.1749
  781MOL0     C 5339   4.000   9.723   3.550 -0.1773 -0.2717  0.3273
  781MOL0     C 5340   3.958   9.764   3.406  0.1034 -0.7448  0.1718
  781MOL0     C 5341   3.868   9.893   3.417  1.0301  0.9812 -0.0533
  781MOL0     C 5342   3.793   9.931   3.292  0.2247  0.2676  0.5580
  781MOL0     C 5343   3.902   9.958   3.179  0.3651 -0.0438  2.1561
  781MOL0    Cl 5344   3.834  10.075   3.057  0.3574  0.6403  0.4597
  781MOL0     C 5345   4.043   9.619   4.196  0.2198 -0.1359 -0.1906
  781MOL0     C 5346   4.084   9.501   4.259  1.2419 -0.2567  0.1025
  781MOL0     O 5347   4.453   9.318   4.285 -0.5125  0.5230 -0.0042
  781MOL0     C 5348   4.249   9.050   4.384 -1.1608 -0.4964  0.8266
  781MOL0     C 5349   4.254   8.932   4.443  0.8267 -0.6118  0.1602
  781MOL0     N 5350   4.148   8.462   4.538  0.8368 -1.0687  0.1964
  781MOL0     N 5351   4.038   8.400   4.571  0.2197  0.3665  0.1562
  781MOL0     C 5352   4.211   7.205   4.804 -0.0544 -0.7086  0.1134
  781MOL0     C 5353   4.221   7.085   4.884 -0.8270 -0.2436  0.3782
  781MOL0     C 5354   4.308   6.786   5.216  1.2783  0.6349 -0.5810
  781MOL0     C 5355   4.212   6.750   5.310 -0.3548  0.4612 -0.4213
  781MOL0     C 5356   4.230   6.625   5.378 -0.1554 -0.8679  0.9238
  781MOL0     C 5357   4.330   6.542   5.340  0.0661  0.3212 -0.3804
  781MOL0     O 5358   4.332   6.422   5.407  0.3839 -0.6493  0.1329
  781MOL0     C 5359   4.362   6.304   5.329 -0.1604  0.3467  0.1990
  781MOL0     C 5360   4.292   6.177   5.401 -0.4047  0.2385 -0.4314
  781MOL0     C 5361   4.389   6.074   5.472  0.3926 -0.0576  0.6161
  781MOL0     C 5362   4.301   5.976   5.550 -0.0344 -0.0846 -0.1910
  781MOL0     C 5363   4.394   5.916   5.648 -0.3439 -0.5131  1.0055
  781MOL0     C 5364   4.477   5.872   5.723  0.2534 -0.0715  0.2066
  781MOL0     C 5365   4.419   6.578   5.241  0.9275  0.8592 -0.3389
  781MOL0     C 5366   4.410   6.699   5.177 -0.5330 -0.7020  0.1140
  781MOL0     C 5367   4.525   6.735   5.085 -0.1676 -0.2273 -0.4795
  781MOL0     H 5368   4.236   7.228   5.196  3.4736 -0.1308  0.3771
  781MOL0     H 5369   4.209   7.408   5.078  1.1560 -0.4084 -0.5149
  781MOL0     H 5370   4.032   7.597   4.808 -2.7342 -2.0901  2.7506
  781MOL0     H 5371   4.075   7.527   4.956 -0.0131  3.1665  0.7935
  781MOL0     H 5372   4.277   7.685   4.785  1.2484  2.4204  0.7792
  781MOL0     H 5373   4.295   7.636   4.958 -3.0357 -1.1658  2.5429
  781MOL0     H 5374   4.214   7.813   5.047  2.3785  1.0835 -0.6586
  781MOL0     H 5375   4.065   7.787   4.978 -0.0689  2.8354 -0.9241
  781MOL0     H 5376   4.150   8.005   4.926  0.5357  1.1914  0.1179
  781MOL0     H 5377   4.278   7.924   4.840  0.2482 -0.0856  1.6733
  781MOL0     H 5378   4.127   7.874   4.653  0.6294 -0.5406 -0.2139
  781MOL0     H 5379   3.985   7.859   4.746 -0.2393 -1.9580 -3.1205
  781MOL0     H 5380   3.966   8.088   4.773 -0.7985  2.9859 -0.9050
  781MOL0     H 5381   4.130   8.121   4.704  1.1863 -0.5369 -0.5107
  781MOL0     H 5382   3.904   7.972   4.557 -0.4964  0.3206 -1.3168
  781MOL0     H 5383   4.050   8.005   4.499  1.5824  0.0550  0.7913
  781MOL0     H 5384   3.885   8.163   4.401 -0.9877 -0.1596  1.3472
  781MOL0     H 5385   3.839   8.220   4.569 -0.1738  1.5921 -0.0834
  781MOL0     H 5386   4.149   8.206   4.331  1.2352  1.4758 -0.0050
  781MOL0     H 5387   4.339   8.362   4.263  1.1902 -1.8106  0.3040
  781MOL0     H 5388   4.317   8.538   4.316  0.8941 -0.2188 -0.9611
  781MOL0     H 5389   4.492   8.318   4.447  5.1848  1.2164 -0.8523
  781MOL0     H 5390   4.552   8.453   4.362  1.3633 -1.7317 -0.8130
  781MOL0     H 5391   4.563   8.489   4.608  0.7291  3.7454  0.9041
  781MOL0     H 5392   4.383   8.484   4.605  0.9863 -1.6522  0.1106
  781MOL0     H 5393   4.558   8.681   4.445 -0.0148  2.4698  1.4572
  781MOL0     H 5394   4.534   8.686   4.617 -1.4480  0.1944 -0.1054
  781MOL0     H 5395   4.588   8.880   4.458 -1.1124 -3.1532 -0.0953
  781MOL0     H 5396   4.576   9.109   4.341  0.9509 -0.9506  2.2166
  781MOL0     H 5397   4.366   9.426   4.094  0.3607  0.3049  0.9084
  781MOL0     H 5398   4.255   9.585   3.937 -0.4242 -3.0354 -0.9933
  781MOL0     H 5399   4.049   9.598   3.838  2.2193  0.5905  1.9898
  781MOL0     H 5400   3.913   9.715   3.825  0.6297  2.3808 -0.2633
  781MOL0     H 5401   4.141   9.887   3.802 -0.0157 -0.0725  1.2449
  781MOL0     H 5402   4.207   9.731   3.756  0.2009  0.5251  0.3294
  781MOL0     H 5403   3.967   9.900   3.669  1.0511  1.2827 -1.9831
  781MOL0     H 5404   4.119   9.899   3.595  1.3727  0.0535  1.7041
  781MOL0     H 5405   3.920   9.670   3.602 -0.1827 -3.1782 -2.3278
  781MOL0     H 5406   4.077   9.648   3.532  0.3489  0.3675 -0.1557
  781MOL0     H 5407   3.899   9.683   3.363  0.2310 -0.6912 -0.1023
  781MOL0     H 5408   4.031   9.797   3.332 -1.0927  2.8906  0.4199
  781MOL0     H 5409   3.788   9.877   3.490  0.2553 -1.1422 -1.2704
  781MOL0     H 5410   3.929   9.979   3.445 -1.0319  2.0539  1.4327
  781MOL0     H 5411   3.731  10.020   3.303  0.2854  0.9029 -2.9904
  781MOL0     H 5412   3.725   9.848   3.270 -1.3164  1.7591 -0.5565
  781MOL0     H 5413   3.992  10.007   3.218  1.9778 -0.5773 -0.6673
  781MOL0     H 5414   3.931   9.867   3.127 -0.3121  0.4139  0.9414
  781MOL0     H 5415   3.960   9.673   4.241  1.6791  0.5267  1.9070
  781MOL0     H 5416   4.038   9.477   4.354  2.6525 -1.4563  0.5198
  781MOL0     H 5417   4.155   9.103   4.373  1.1451  3.4420 -3.6300
  781MOL0     H 5418   4.155   8.893   4.463  0.6023  0.0496  0.3691
  781MOL0     H 5419   4.191   7.200   4.697 -1.4305 -0.2176  0.3294
  781MOL0     H 5420   4.232   6.986   4.840 -4.8495 -1.9876  2.6704
  781MOL0     H 5421   4.130   6.818   5.332  0.7942  2.1112 -1.0211
  781MOL0     H 5422   4.170   6.599   5.465  1.1946  2.6383  3.1263
  781MOL0     H 5423   4.468   6.280   5.316 -0.3587  0.6334 -2.4349
  781MOL0     H 5424   4.322   6.319   5.229 -0.6869 -0.9872  0.1898
  781MOL0     H 5425   4.244   6.124   5.318  1.8672  1.0207 -2.3975
  781MOL0     H 5426   4.226   6.213   5.480 -1.1454 -5.1709  1.8534
  781MOL0     H 5427   4.449   6.133   5.542 -0.8239  1.4855  0.4216
  781MOL0     H 5428   4.447   6.016   5.399  0.0794 -1.4006  1.4097
  781MOL0     H 5429   4.228   6.034   5.606  0.0449 -2.0374  2.0769
  781MOL0     H 5430   4.258   5.901   5.484  1.5341 -2.2128  1.0818
  781MOL0     H 5431   4.559   5.828   5.774  0.9581 -0.2235 -1.0074
  781MOL0     H 5432   4.491   6.503   5.210  1.3924  0.5316  1.4259
  781MOL0     H 5433   4.553   6.841   5.084 -0.1848 -0.2248 -0.9635
  781MOL0     H 5434   4.610   6.675   5.116 -0.6116 -0.9317 -0.6074
  781MOL0     H 5435   4.493   6.700   4.986 -1.8014 -1.9543  0.6045
  782MOL0     O 5436   9.634   7.212   3.015 -0.1968 -0.1632 -0.2172
  782MOL0     C 5437   9.543   7.288   3.052  0.2118 -0.8206  0.6251
  782MOL0     O 5438   9.540   7.418   3.036 -0.5920  0.5295  0.1303
  782MOL0     C 5439   9.628   7.489   2.957 -0.5497 -0.2719 -0.8800
  782MOL0     C 5440   9.678   7.614   3.005  0.3274 -0.2923  0.5625
  782MOL0     C 5441   9.772   7.685   2.929  0.1111  1.2990  0.5732
  782MOL0     C 5442   9.824   7.626   2.811  0.0054 -0.3621  1.2762
  782MOL0     O 5443   9.899   7.714   2.733  0.4830  0.4641  0.7693
  782MOL0     C 5444   9.978   7.666   2.621  0.3639 -0.5964 -0.7420
  782MOL0     C 5445  10.103   7.757   2.587  0.0055 -0.0209 -1.1492
  782MOL0     C 5446  10.205   7.693   2.499 -1.1956 -0.3389 -0.2796
  782MOL0     C 5447  10.314   7.801   2.461  0.9245  0.3891 -0.3572
  782MOL0     C 5448  10.425   7.736   2.369  0.4037 -0.4303 -0.0751
  782MOL0     C 5449  10.531   7.828   2.316  0.2533 -0.2482  0.1881
  782MOL0     C 5450  10.605   7.751   2.212  0.3696  0.4328 -0.0890
  782MOL0     C 5451  10.734   7.807   2.164 -0.3915  0.2835  0.1023
  782MOL0     N 5452  10.734   7.940   2.090 -0.0739  0.8188 -0.7878
  782MOL0     C 5453  10.827   8.043   2.091  0.2353  0.7823 -0.2662
  782MOL0     C 5454  10.791   8.139   2.001  0.5236  0.2882 -0.4822
  782MOL0     C 5455  10.876   8.243   1.924  0.3963 -0.5281  0.3654
  782MOL0     C 5456  10.968   8.317   2.015 -0.5341 -0.9139 -0.3244
  782MOL0     C 5457  11.022   8.437   1.929 -0.3641 -0.0183 -0.2109
  782MOL0     C 5458  11.113   8.534   2.002  0.5997  0.2654 -0.4342
  782MOL0     O 5459  11.232   8.473   2.049  0.4980  0.3569  0.0202
  782MOL0     C 5460  11.345   8.513   1.983  0.3288  0.7352 -0.3299
  782MOL0     C 5461  11.365   8.512   1.842 -0.6621  0.1440  0.2472
  782MOL0     C 5462  11.483   8.574   1.787 -0.2013 -0.1072  0.2885
  782MOL0     C 5463  11.596   8.612   1.867  0.2187 -0.6665 -0.4525
  782MOL0     C 5464  11.725   8.659   1.821  1.3622 -0.3879 -0.2131
  782MOL0     O 5465  11.750   8.642   1.688  0.0390  0.1171 -0.9116
  782MOL0     C 5466  11.861   8.704   1.629  0.4501 -1.0504 -0.3975
  782MOL0     C 5467  11.846   8.754   1.499 -0.2961 -0.0232 -0.2802
  782MOL0     C 5468  11.954   8.824   1.439  0.2873  0.8911  0.4655
  782MOL0     C 5469  12.077   8.827   1.501 -0.3578  0.5829 -0.6948
  782MOL0     O 5470  12.171   8.886   1.430  0.1863  0.1030 -0.1742
  782MOL0     C 5471  12.255   8.970   1.511 -0.2101  0.0825 -0.1494
  782MOL0     C 5472  12.342   9.047   1.412  0.4555  0.7058  1.0139
  782MOL0     C 5473  12.450   9.141   1.478  0.2673  0.2721 -0.8003
  782MOL0     C 5474  12.390   9.235   1.586  0.1715  0.7179 -0.0819
  782MOL0     C 5475  12.484   9.346   1.628  1.0274  0.3538 -0.3573
  782MOL0     C 5476  12.447   9.411   1.763 -0.3275  0.6467  0.5838
  782MOL0     C 5477  12.527   9.538   1.779  0.4865  0.4005  0.2999
  782MOL0     C 5478  12.484   9.593   1.919 -0.6757 -0.2745 -0.6827
  782MOL0    Cl 5479  12.311   9.629   1.923  0.0249  0.6096  0.0125
  782MOL0     C 5480  12.097   8.764   1.626 -0.1867 -0.9093  0.0652
  782MOL0     C 5481  11.992   8.695   1.688  0.9351 -0.8667  0.0491
  782MOL0     O 5482  11.800   8.702   1.909  0.0721  0.0576 -0.6843
  782MOL0     C 5483  11.577   8.589   2.011 -0.3674  0.4449  0.0740
  782MOL0     C 5484  11.455   8.540   2.063  0.0579  0.0719 -0.3673
  782MOL0     N 5485  10.666   8.102   1.958 -0.3646 -0.8703 -0.0834
  782MOL0     N 5486  10.634   7.982   2.001  0.4544  0.2051  1.2836
  782MOL0     C 5487   9.778   7.499   2.768 -0.2409  0.2022 -0.0540
  782MOL0     C 5488   9.675   7.437   2.835  0.0291 -0.3421  0.3428
  782MOL0     C 5489   9.465   7.248   3.165 -0.0181 -0.7296 -0.7799
  782MOL0     C 5490   9.408   7.346   3.246 -0.5381 -0.8412  0.2433
  782MOL0     C 5491   9.308   7.318   3.345 -0.0755 -0.2600 -0.0704
  782MOL0     C 5492   9.275   7.182   3.373 -1.1493  0.6195 -0.4469
  782MOL0     O 5493   9.179   7.127   3.447 -0.5865  0.8460 -0.3204
  782MOL0     C 5494   9.088   7.218   3.516 -0.1964  0.2216 -0.2745
  782MOL0     C 5495   8.976   7.149   3.598  0.4733 -1.0879  0.2107
  782MOL0     C 5496   9.036   7.060   3.704  0.2874  1.2291  0.2559
  782MOL0     C 5497   8.945   6.979   3.796  0.5485 -0.4404  0.2659
  782MOL0     C 5498   8.835   6.915   3.721  0.4156 -0.3029  0.3901
  782MOL0     C 5499   8.745   6.857   3.657 -0.4716 -0.3447  1.3811
  782MOL0     C 5500   9.348   7.079   3.304  0.1258 -1.0364  0.2013
  782MOL0     C 5501   9.440   7.109   3.200  0.4067  0.5596  0.5910
  782MOL0     C 5502   9.495   6.984   3.135 -0.2021 -0.4279  0.4745
  782MOL0     H 5503   9.642   7.675   3.088  3.7522  0.9836  1.2695
  782MOL0     H 5504   9.800   7.786   2.956 -2.3119  2.3818 -0.6650
  782MOL0     H 5505  10.011   7.562   2.633 -0.6242 -0.7739  0.6640
  782MOL0     H 5506   9.911   7.670   2.535 -0.9714  2.1760  0.3199
  782MOL0     H 5507  10.143   7.783   2.685 -4.3572  1.3822  0.4896
  782MOL0     H 5508  10.061   7.850   2.548 -0.7534  0.5035  0.8117
  782MOL0     H 5509  10.152   7.664   2.408 -4.8804  2.1547  0.8370
  782MOL0     H 5510  10.257   7.613   2.554  0.9394  1.9791  1.3246
  782MOL0     H 5511  10.267   7.884   2.406 -1.6890 -1.8078 -1.6495
  782MOL0     H 5512  10.372   7.835   2.547 -1.6462  1.9883  0.8834
  782MOL0     H 5513  10.482   7.660   2.425 -0.7563 -0.2626  1.4148
  782MOL0     H 5514  10.377   7.693   2.281  0.5473 -1.6406  0.4095
  782MOL0     H 5515  10.491   7.919   2.273 -0.5229 -0.3907  0.5911
  782MOL0     H 5516  10.593   7.850   2.404  1.7211  0.0531 -0.8772
  782MOL0     H 5517  10.533   7.737   2.132 -0.4723  2.1108  0.3339
  782MOL0     H 5518  10.629   7.654   2.257 -1.0658  0.7440  1.4536
  782MOL0     H 5519  10.801   7.828   2.248  2.8764  2.5907 -2.8051
  782MOL0     H 5520  10.777   7.727   2.102  2.9455  1.0494  1.2386
  782MOL0     H 5521  10.926   8.039   2.137 -0.3617 -0.6192  0.9597
  782MOL0     H 5522  10.946   8.189   1.860  2.1266 -0.5078  2.1434
  782MOL0     H 5523  10.817   8.304   1.855 -2.0753 -1.3521  1.6328
  782MOL0     H 5524  10.918   8.353   2.105  0.0369 -0.7274 -0.0810
  782MOL0     H 5525  11.056   8.262   2.048  1.1496  2.3987  1.2347
  782MOL0     H 5526  10.946   8.501   1.883  0.0050  0.0841 -0.6872
  782MOL0     H 5527  11.062   8.393   1.837 -1.1758  0.0646 -0.6150
  782MOL0     H 5528  11.047   8.562   2.085 -0.2122  0.7938 -1.2476
  782MOL0     H 5529  11.131   8.626   1.946  4.7537  1.0392  1.7649
  782MOL0     H 5530  11.294   8.489   1.764  0.6870 -0.3067 -0.8890
  782MOL0     H 5531  11.474   8.578   1.679 -1.1638  2.8840  0.3836
  782MOL0     H 5532  11.744   8.750   1.462 -0.2979 -1.2729 -0.2041
  782MOL0     H 5533  11.940   8.861   1.338  1.7310 -2.3188 -1.0620
  782MOL0     H 5534  12.195   9.046   1.562 -0.9927 -0.8845  0.3819
  782MOL0     H 5535  12.319   8.918   1.582 -1.0523 -0.0225  0.5399
  782MOL0     H 5536  12.390   8.971   1.349 -1.5423 -0.0564  0.3497
  782MOL0     H 5537  12.275   9.103   1.347  1.1948  0.7474  0.2637
  782MOL0     H 5538  12.534   9.082   1.515  0.4526  2.6864  3.1675
  782MOL0     H 5539  12.496   9.209   1.405  2.5704 -0.1293  0.1744
  782MOL0     H 5540  12.377   9.161   1.665  1.6065  3.1505  2.6520
  782MOL0     H 5541  12.296   9.278   1.551 -1.1326 -2.7557 -1.2431
  782MOL0     H 5542  12.476   9.419   1.546 -2.3343  1.0131  0.3957
  782MOL0     H 5543  12.581   9.297   1.638 -0.4537 -2.2750  3.2323
  782MOL0     H 5544  12.338   9.419   1.766 -0.4638  0.4177 -2.0736
  782MOL0     H 5545  12.490   9.356   1.847  2.2880  1.8569  0.1209
  782MOL0     H 5546  12.503   9.607   1.698  3.6873  2.4472  0.9118
  782MOL0     H 5547  12.634   9.518   1.777  0.3167 -1.0309 -3.4496
  782MOL0     H 5548  12.506   9.518   1.995  1.2169 -0.1051 -1.0134
  782MOL0     H 5549  12.546   9.679   1.946 -0.5738 -1.0442  1.7732
  782MOL0     H 5550  12.190   8.753   1.681 -0.5028 -3.0547  0.2792
  782MOL0     H 5551  12.014   8.643   1.781 -0.8886 -0.7754  0.5544
  782MOL0     H 5552  11.647   8.612   2.091  0.5161 -0.2143 -0.4884
  782MOL0     H 5553  11.431   8.531   2.168  4.2708 -0.1777  0.7613
  782MOL0     H 5554   9.802   7.452   2.673  0.8880  1.9440 -0.6844
  782MOL0     H 5555   9.638   7.340   2.804  3.4088 -1.6900  0.1077
  782MOL0     H 5556   9.416   7.454   3.241 -1.1262 -0.8367 -0.7021
  782MOL0     H 5557   9.248   7.394   3.393 -1.5951 -0.3180 -1.7574
  782MOL0     H 5558   9.053   7.293   3.445  1.0354  1.9495  0.8789
  782MOL0     H 5559   9.142   7.281   3.586  0.2867  0.4135 -0.8106
  782MOL0     H 5560   8.907   7.100   3.528 -3.6021  3.3578  0.6247
  782MOL0     H 5561   8.918   7.224   3.652  0.8371 -0.6602  0.0081
  782MOL0     H 5562   9.076   7.135   3.772 -0.9575  1.8544  0.3293
  782MOL0     H 5563   9.117   6.998   3.662 -0.4674 -2.8125  4.0044
  782MOL0     H 5564   9.012   6.905   3.840  2.8560  2.5455  2.2367
  782MOL0     H 5565   8.907   7.032   3.884  0.5172 -3.2245  2.0293
  782MOL0     H 5566   8.685   6.824   3.575  0.9928 -2.7707  1.1961
  782MOL0     H 5567   9.331   6.973   3.323  0.1901 -2.0309 -4.1390
  782MOL0     H 5568   9.590   6.954   3.180  1.1497  0.0972 -1.8416
  782MOL0     H 5569   9.429   6.897   3.148 -2.8289  1.1949 -0.9550
  782MOL0     H 5570   9.512   6.990   3.027 -1.1110  1.3955  0.3925
  783MOL0     O 5571   3.274  10.912   1.092 -0.4197 -0.9161 -0.6730
  783MOL0     C 5572   3.304  11.021   1.146  0.1768 -0.3042  0.1354
  783MOL0     O 5573   3.290  11.033   1.286  0.7258 -0.0739 -0.3458
  783MOL0     C 5574   3.215  10.946   1.356  0.0341 -0.8716  1.0559
  783MOL0     C 5575   3.247  10.952   1.496  0.2514  0.6853  0.2768
  783MOL0     C 5576   3.167  10.886   1.587  1.7711  0.5886  0.3196
  783MOL0     C 5577   3.056  10.808   1.536 -0.1682  0.2543  0.4119
  783MOL0     O 5578   2.975  10.745   1.621 -0.5147  0.3121 -0.0529
  783MOL0     C 5579   2.976  10.788   1.755  0.7775  0.4424 -0.7614
  783MOL0     C 5580   2.912  10.921   1.783  0.0479 -0.0040  0.3958
  783MOL0     C 5581   2.806  10.969   1.679 -0.1899  1.1187 -0.0460
  783MOL0     C 5582   2.744  11.100   1.726  0.6056 -0.6576 -0.2262
  783MOL0     C 5583   2.671  11.163   1.600 -0.6183 -0.1204  0.3524
  783MOL0     C 5584   2.537  11.105   1.554 -0.0517  0.2272 -0.1975
  783MOL0     C 5585   2.457  11.204   1.467  0.7492  0.5755  1.2765
  783MOL0     C 5586   2.322  11.159   1.457  0.6262  0.2072 -0.3032
  783MOL0     N 5587   2.249  11.172   1.578  0.2767  0.8484  0.1083
  783MOL0     C 5588   2.229  11.292   1.639  0.3135 -0.7778 -0.6237
  783MOL0     C 5589   2.180  11.267   1.760  0.8007 -0.2750  0.0695
  783MOL0     C 5590   2.120  11.368   1.859  0.3127 -0.1584  0.5451
  783MOL0     C 5591   2.001  11.442   1.794 -0.3070 -0.4859 -0.4051
  783MOL0     C 5592   1.961  11.574   1.874  0.3146  1.1193  0.2329
  783MOL0     C 5593   1.887  11.536   2.011  0.2965 -0.9064 -0.7286
  783MOL0     O 5594   1.870  11.652   2.093  0.2351 -0.0213  0.6470
  783MOL0     C 5595   1.761  11.738   2.095  0.1205  1.4727  0.1115
  783MOL0     C 5596   1.643  11.717   2.027  0.2928  0.9495  0.6458
  783MOL0     C 5597   1.533  11.802   2.044  0.2482  0.5013 -0.2086
  783MOL0     C 5598   1.528  11.893   2.151  0.5548  0.4583 -0.2048
  783MOL0     C 5599   1.416  11.986   2.175  0.2287  0.8077  0.1274
  783MOL0     O 5600   1.318  11.988   2.079 -0.4651  0.2498  0.1867
  783MOL0     C 5601   1.198  12.048   2.102 -0.8103 -0.1373 -0.0324
  783MOL0     C 5602   1.157  12.137   1.999 -0.3038 -0.3493  0.9625
  783MOL0     C 5603   1.054  12.231   2.017  0.9287  0.1682 -0.5294
  783MOL0     C 5604   0.979  12.228   2.130  0.1399 -0.8652  1.1242
  783MOL0     O 5605   0.861  12.305   2.119 -0.2146  0.4200 -0.0628
  783MOL0     C 5606   0.762  12.311   2.225  0.2828  0.3689  0.0714
  783MOL0     C 5607   0.808  12.411   2.330  0.3939  0.6431 -0.6764
  783MOL0     C 5608   0.687  12.482   2.409  0.0269 -0.1084  0.2268
  783MOL0     C 5609   0.607  12.375   2.490 -0.8283 -0.6754  1.0809
  783MOL0     C 5610   0.704  12.313   2.593  0.1397 -0.0821 -0.1077
  783MOL0     C 5611   0.646  12.305   2.737  0.3995  0.5105 -0.5425
  783MOL0     C 5612   0.740  12.213   2.832 -0.1256  0.0314 -0.0181
  783MOL0     C 5613   0.665  12.166   2.953 -0.5008 -0.1145  0.9569
  783MOL0    Cl 5614   0.565  12.019   2.924  0.0136 -0.4973 -0.0192
  783MOL0     C 5615   1.017  12.144   2.232  0.3516  0.6601 -0.0250
  783MOL0     C 5616   1.125  12.056   2.224  0.1186  1.1147  0.2337
  783MOL0     O 5617   1.403  12.042   2.282 -0.0686  0.3770  0.3089
  783MOL0     C 5618   1.657  11.905   2.227 -0.8113  1.2506  0.1959
  783MOL0     C 5619   1.766  11.829   2.201 -0.0183 -0.5630  0.9104
  783MOL0     N 5620   2.181  11.129   1.772 -0.4599 -0.4331  0.0521
  783MOL0     N 5621   2.217  11.074   1.662  0.1138  0.5115 -0.0674
  783MOL0     C 5622   3.032  10.796   1.402  0.5656  0.0955 -0.1119
  783MOL0     C 5623   3.115  10.857   1.311 -0.0884 -0.6216  0.1608
  783MOL0     C 5624   3.353  11.146   1.069  0.3770 -0.6480  0.0898
  783MOL0     C 5625   3.347  11.272   1.136  1.4735  0.8278 -0.3562
  783MOL0     C 5626   3.384  11.385   1.063  0.2730 -0.3305 -0.5076
  783MOL0     C 5627   3.437  11.380   0.927 -0.0583 -0.1146  0.3843
  783MOL0     O 5628   3.492  11.496   0.872 -0.2324 -0.1521  0.0784
  783MOL0     C 5629   3.454  11.524   0.731  0.0187  0.4008 -0.8154
  783MOL0     C 5630   3.376  11.647   0.714 -0.9895  0.1646 -0.2350
  783MOL0     C 5631   3.242  11.641   0.796  0.1066  0.7398 -0.3773
  783MOL0     C 5632   3.149  11.750   0.756  0.6775  0.1758  0.2712
  783MOL0     C 5633   3.187  11.875   0.820  0.3091 -0.5993  1.3424
  783MOL0     C 5634   3.248  11.978   0.853 -0.6446  0.5447 -0.3596
  783MOL0     C 5635   3.453  11.254   0.871 -0.5059 -1.1623  0.6945
  783MOL0     C 5636   3.412  11.138   0.938 -0.9983 -0.5589 -0.2881
  783MOL0     C 5637   3.445  11.002   0.859 -0.0938 -0.9031  0.5723
  783MOL0     H 5638   3.334  11.011   1.524  1.1597  0.3366 -1.6636
  783MOL0     H 5639   3.200  10.889   1.690 -0.0949 -0.9966  1.0302
  783MOL0     H 5640   2.914  10.708   1.797  2.7122 -0.2366  0.9621
  783MOL0     H 5641   3.068  10.787   1.815  1.5456  1.3013 -1.8702
  783MOL0     H 5642   2.995  10.992   1.790  0.8792 -0.4075 -3.2944
  783MOL0     H 5643   2.861  10.919   1.879 -0.5008  0.4371  0.1245
  783MOL0     H 5644   2.725  10.898   1.663 -0.2971  1.4915 -1.2991
  783MOL0     H 5645   2.848  10.996   1.581  0.6634  0.7526  0.2071
  783MOL0     H 5646   2.675  11.075   1.808  1.1128 -1.5992 -0.0705
  783MOL0     H 5647   2.817  11.175   1.756 -2.4800  1.7560  2.0270
  783MOL0     H 5648   2.630  11.260   1.631  1.7957  0.1182  3.2658
  783MOL0     H 5649   2.733  11.172   1.511 -1.2954  0.1728 -0.0931
  783MOL0     H 5650   2.566  11.006   1.517  2.8323  0.9997 -0.2878
  783MOL0     H 5651   2.479  11.089   1.645 -1.0329  0.9466 -0.6841
  783MOL0     H 5652   2.501  11.188   1.369 -0.1037  0.6540  0.8730
  783MOL0     H 5653   2.464  11.311   1.490 -0.5109  1.3850 -1.7177
  783MOL0     H 5654   2.272  11.217   1.378  0.3401 -1.4063 -1.3495
  783MOL0     H 5655   2.323  11.052   1.435  0.1160  0.1150  0.0876
  783MOL0     H 5656   2.240  11.383   1.582  2.5832  0.0064  0.9019
  783MOL0     H 5657   2.097  11.314   1.952  0.2677  1.7991  1.7183
  783MOL0     H 5658   2.199  11.442   1.876 -0.3689  0.5514  0.6642
  783MOL0     H 5659   2.037  11.458   1.692  1.7352 -2.1452  0.0034
  783MOL0     H 5660   1.906  11.388   1.792 -2.0402  2.1920  1.8193
  783MOL0     H 5661   1.890  11.632   1.813 -0.6249 -2.1512 -2.0688
  783MOL0     H 5662   2.050  11.635   1.887  1.1892  0.0487 -0.5607
  783MOL0     H 5663   1.946  11.457   2.058  0.6118 -0.3636 -0.2096
  783MOL0     H 5664   1.798  11.483   1.975 -1.0418  0.5929  0.2886
  783MOL0     H 5665   1.633  11.641   1.950 -1.0396  0.5249  1.2147
  783MOL0     H 5666   1.444  11.800   1.982  0.8131  0.9063 -1.0508
  783MOL0     H 5667   1.211  12.142   1.905 -1.9427  1.5840  0.0584
  783MOL0     H 5668   1.027  12.291   1.931 -0.6451 -0.2844 -0.3847
  783MOL0     H 5669   0.672  12.357   2.184  2.0558  0.0038 -4.9477
  783MOL0     H 5670   0.747  12.210   2.263 -0.3649 -0.4249 -2.1098
  783MOL0     H 5671   0.868  12.355   2.402 -2.6010  1.2441  2.5240
  783MOL0     H 5672   0.867  12.485   2.274  1.4709 -0.6401 -1.2781
  783MOL0     H 5673   0.723  12.563   2.473 -1.4850  1.5580 -0.9108
  783MOL0     H 5674   0.627  12.532   2.332  1.4424  4.0067  1.5318
  783MOL0     H 5675   0.582  12.302   2.413  1.4472  0.5583 -0.9570
  783MOL0     H 5676   0.512  12.410   2.531 -1.7365 -0.0708 -1.3624
  783MOL0     H 5677   0.798  12.368   2.593 -0.2386  0.6272  1.7937
  783MOL0     H 5678   0.720  12.212   2.553  0.7958  0.9509 -2.6612
  783MOL0     H 5679   0.640  12.400   2.791  1.4993 -0.4872  1.4687
  783MOL0     H 5680   0.547  12.260   2.728  1.3131 -1.6661 -0.2600
  783MOL0     H 5681   0.822  12.273   2.872  0.0242 -0.3658  0.2711
  783MOL0     H 5682   0.789  12.133   2.776 -4.1935 -1.8123 -1.3554
  783MOL0     H 5683   0.739  12.134   3.028 -0.5918  1.6533  1.8363
  783MOL0     H 5684   0.614  12.255   2.990 -0.2776  0.4522 -0.0598
  783MOL0     H 5685   0.945  12.131   2.313 -0.2061  0.9077 -0.4718
  783MOL0     H 5686   1.135  11.988   2.308  0.1504  0.6271 -0.1585
  783MOL0     H 5687   1.663  11.969   2.314 -1.5908  1.1112  0.3599
  783MOL0     H 5688   1.856  11.843   2.260  0.4328  0.6519 -0.0390
  783MOL0     H 5689   2.956  10.723   1.378  3.7708 -3.5392 -0.0840
  783MOL0     H 5690   3.091  10.832   1.209 -0.3200  0.6306 -0.1066
  783MOL0     H 5691   3.309  11.290   1.236 -1.3378  0.8862 -1.3522
  783MOL0     H 5692   3.381  11.484   1.109  1.4486  0.0900 -1.2721
  783MOL0     H 5693   3.400  11.434   0.699 -0.2110  0.8034 -1.5837
  783MOL0     H 5694   3.549  11.535   0.679  0.0879  1.9061 -0.4029
  783MOL0     H 5695   3.354  11.673   0.610  0.0344  2.4793  0.0747
  783MOL0     H 5696   3.428  11.737   0.747 -1.7606  1.3032 -1.9586
  783MOL0     H 5697   3.270  11.648   0.902  0.6095  0.9199 -0.5175
  783MOL0     H 5698   3.192  11.545   0.783 -1.5754  1.2237  1.8453
  783MOL0     H 5699   3.150  11.761   0.647  1.7589 -2.0788 -0.0215
  783MOL0     H 5700   3.043  11.743   0.782  0.0863  3.0584 -1.0362
  783MOL0     H 5701   3.290  12.073   0.879  0.0834 -0.1035  0.9252
  783MOL0     H 5702   3.479  11.249   0.766  1.5493  1.4640  0.9656
  783MOL0     H 5703   3.352  10.954   0.829 -0.7468 -2.1838  4.1133
  783MOL0     H 5704   3.502  11.019   0.767 -1.9777  0.7133 -0.3582
  783MOL0     H 5705   3.493  10.937   0.933  2.9060  3.2260  2.6969
  784MOL0     O 5706   6.843   3.537   9.896 -0.5818 -0.8951 -0.2360
  784MOL0     C 5707   6.931   3.480   9.960  0.8368 -0.0958 -0.0802
  784MOL0     O 5708   6.988   3.364   9.914  0.2209 -1.0945 -0.3491
  784MOL0     C 5709   6.956   3.303   9.793  0.4572  0.0090  0.0528
  784MOL0     C 5710   7.048   3.311   9.683  0.2259  0.8276 -0.3204
  784MOL0     C 5711   7.022   3.238   9.570  0.9001  0.4669 -0.5577
  784MOL0     C 5712   6.901   3.176   9.561 -0.4458 -1.0626  0.2589
  784MOL0     O 5713   6.871   3.091   9.454 -0.1359  0.3277  0.6982
  784MOL0     C 5714   6.823   2.953   9.486  0.4468 -0.0775 -0.4761
  784MOL0     C 5715   6.693   2.916   9.406  0.5893 -0.5506 -0.5976
  784MOL0     C 5716   6.715   2.937   9.256 -0.7637 -0.2614 -0.6083
  784MOL0     C 5717   6.597   2.881   9.168  0.2955 -0.1314  0.7050
  784MOL0     C 5718   6.460   2.953   9.166  1.6155  0.5108  0.7627
  784MOL0     C 5719   6.443   3.098   9.108  0.2138 -0.2332  0.7690
  784MOL0     C 5720   6.295   3.125   9.083 -0.2997 -0.6671  0.2487
  784MOL0     C 5721   6.210   3.184   9.195 -0.5954 -0.8353 -0.2277
  784MOL0     N 5722   6.081   3.232   9.162  0.0596  0.4652  0.0567
  784MOL0     C 5723   5.981   3.173   9.090 -0.0852  0.6589  0.2980
  784MOL0     C 5724   5.882   3.267   9.089  0.2700  0.9075 -0.2617
  784MOL0     C 5725   5.754   3.244   9.008 -1.4529 -0.5642 -0.7168
  784MOL0     C 5726   5.692   3.107   9.051 -0.2979 -0.2457  0.5557
  784MOL0     C 5727   5.545   3.086   9.025  1.1729 -0.4302  0.2653
  784MOL0     C 5728   5.477   2.953   9.053  0.2865 -0.0169 -0.1865
  784MOL0     O 5729   5.515   2.865   8.950  0.7217 -0.4559  0.4009
  784MOL0     C 5730   5.406   2.798   8.887  0.3401 -0.6790 -0.6787
  784MOL0     C 5731   5.379   2.661   8.916  0.0979 -1.1901  0.2052
  784MOL0     C 5732   5.284   2.584   8.849  0.1025  0.2836 -1.2333
  784MOL0     C 5733   5.203   2.645   8.746 -0.7098 -0.4048  0.8562
  784MOL0     C 5734   5.116   2.562   8.653  0.2240 -0.1285 -0.4744
  784MOL0     O 5735   5.105   2.433   8.690  0.4504 -0.0372  0.4093
  784MOL0     C 5736   5.050   2.340   8.609 -0.5903  0.6038  0.7713
  784MOL0     C 5737   4.940   2.262   8.648  0.0366 -0.0454  0.3138
  784MOL0     C 5738   4.899   2.169   8.561  0.2584  1.7351  0.2979
  784MOL0     C 5739   4.951   2.155   8.436 -0.5253  0.3179 -0.0424
  784MOL0     O 5740   4.903   2.064   8.348  0.1426 -0.3085 -0.2704
  784MOL0     C 5741   4.794   1.981   8.379 -0.3511 -0.0429 -1.0906
  784MOL0     C 5742   4.798   1.885   8.266  0.7489 -0.8100  0.4480
  784MOL0     C 5743   4.684   1.784   8.281 -0.1868  0.7342  0.2119
  784MOL0     C 5744   4.627   1.731   8.156 -0.5281  0.4777  0.3050
  784MOL0     C 5745   4.557   1.597   8.177 -0.4837  0.0435  0.1214
  784MOL0     C 5746   4.469   1.571   8.056 -1.1796  0.4766 -0.1838
  784MOL0     C 5747   4.393   1.441   8.076  1.0387  0.4533  0.3199
  784MOL0     C 5748   4.321   1.400   7.942 -0.0936 -0.0985 -0.7476
  784MOL0    Cl 5749   4.431   1.333   7.825  0.0982  0.0189  0.3110
  784MOL0     C 5750   5.063   2.222   8.393  1.2166 -0.1511 -0.4964
  784MOL0     C 5751   5.108   2.325   8.480 -0.2399 -0.2973  0.7074
  784MOL0     O 5752   5.069   2.618   8.553 -0.2332 -0.1794 -0.2062
  784MOL0     C 5753   5.220   2.781   8.728 -0.2735 -0.5445  0.2144
  784MOL0     C 5754   5.316   2.859   8.795 -0.1568  0.7587 -0.8871
  784MOL0     N 5755   5.909   3.374   9.156  0.1919 -0.2511 -0.0888
  784MOL0     N 5756   6.030   3.364   9.193 -0.0686 -0.1291 -0.0730
  784MOL0     C 5757   6.799   3.189   9.659 -0.5724  0.0611 -0.2059
  784MOL0     C 5758   6.836   3.240   9.775 -0.7071 -1.2880  1.1767
  784MOL0     C 5759   6.978   3.525  10.091  0.9218 -0.0529 -0.6400
  784MOL0     C 5760   7.073   3.443  10.157  0.6396 -0.4323  0.0635
  784MOL0     C 5761   7.108   3.459  10.288  0.7187 -0.4249  0.2037
  784MOL0     C 5762   7.061   3.573  10.354  0.5229  0.3457 -0.6146
  784MOL0     O 5763   7.109   3.580  10.481 -0.1568 -0.1111 -0.6120
  784MOL0     C 5764   7.064   3.684  10.571 -0.6635 -0.2769 -0.1934
  784MOL0     C 5765   7.090   3.645  10.716  0.5335 -0.2138  0.1752
  784MOL0     C 5766   7.105   3.771  10.806 -0.0526  0.1661 -1.2029
  784MOL0     C 5767   7.216   3.861  10.772  0.1809  0.4647  0.5051
  784MOL0     C 5768   7.344   3.793  10.746  0.0489 -0.4846  1.1581
  784MOL0     C 5769   7.426   3.717  10.706  0.8647 -0.0445  0.1780
  784MOL0     C 5770   6.990   3.673  10.287 -0.5224 -0.1426  0.6092
  784MOL0     C 5771   6.946   3.646  10.156 -0.5262  0.1132  0.2756
  784MOL0     C 5772   6.858   3.747  10.083 -0.2423  0.3621  0.1368
  784MOL0     H 5773   7.139   3.370   9.674  0.0822  0.7271 -5.9818
  784MOL0     H 5774   7.092   3.237   9.486 -0.9801 -1.2633 -2.2137
  784MOL0     H 5775   6.909   2.889   9.462  2.6110  1.9956  1.1977
  784MOL0     H 5776   6.810   2.931   9.593  2.2181 -0.9675 -0.4006
  784MOL0     H 5777   6.606   2.975   9.433  0.8703  0.7263 -2.3063
  784MOL0     H 5778   6.666   2.811   9.423 -0.2045 -0.7621 -2.9188
  784MOL0     H 5779   6.809   2.900   9.213 -1.3583  0.1287 -2.3330
  784MOL0     H 5780   6.721   3.042   9.224 -0.4165 -0.1552 -0.2077
  784MOL0     H 5781   6.634   2.867   9.067 -0.7060 -1.7821  0.5331
  784MOL0     H 5782   6.569   2.785   9.212 -0.6454  0.3175  1.1219
  784MOL0     H 5783   6.382   2.901   9.110  0.2927  0.6057  2.4191
  784MOL0     H 5784   6.428   2.958   9.271 -0.9639  1.9680 -0.0143
  784MOL0     H 5785   6.474   3.176   9.179 -0.6148 -0.5581  1.5175
  784MOL0     H 5786   6.484   3.107   9.007 -1.7803  0.3915 -0.0380
  784MOL0     H 5787   6.238   3.039   9.046  2.1581 -1.7078 -1.3459
  784MOL0     H 5788   6.296   3.198   9.002 -0.1908  0.7649  1.4881
  784MOL0     H 5789   6.200   3.096   9.259  0.1670  1.0587  2.6608
  784MOL0     H 5790   6.272   3.246   9.259  0.7090 -2.8128  0.5079
  784MOL0     H 5791   5.988   3.077   9.040 -3.1202 -0.8393  2.4817
  784MOL0     H 5792   5.680   3.324   9.017 -0.3209  0.5069 -0.5237
  784MOL0     H 5793   5.781   3.247   8.902 -1.4155 -0.6803 -0.7098
  784MOL0     H 5794   5.748   3.030   8.998 -0.6040 -0.1557  0.0906
  784MOL0     H 5795   5.704   3.109   9.159  1.4082  2.9690  0.4322
  784MOL0     H 5796   5.518   3.115   8.923 -1.4511  0.2477  1.0863
  784MOL0     H 5797   5.487   3.146   9.096 -0.7662  1.4893 -2.7441
  784MOL0     H 5798   5.370   2.969   9.067  0.8336  2.8159  1.6448
  784MOL0     H 5799   5.527   2.914   9.142 -1.7475  0.7470  1.3761
  784MOL0     H 5800   5.440   2.600   8.983  1.3357 -0.0849  0.1409
  784MOL0     H 5801   5.276   2.477   8.866 -1.0805  0.2382 -1.9963
  784MOL0     H 5802   4.896   2.269   8.747 -0.3923  0.0528  0.1184
  784MOL0     H 5803   4.809   2.115   8.589  0.5453  0.3266 -1.3395
  784MOL0     H 5804   4.809   1.920   8.468 -2.6142 -0.5427 -0.9797
  784MOL0     H 5805   4.701   2.038   8.389 -0.3729 -0.1194 -0.8425
  784MOL0     H 5806   4.778   1.940   8.174 -4.6941  2.8153  3.2864
  784MOL0     H 5807   4.895   1.837   8.250  1.5789  0.9166  0.1354
  784MOL0     H 5808   4.730   1.705   8.342  0.9463  1.1067 -0.1385
  784MOL0     H 5809   4.605   1.820   8.347 -0.9958  2.4835 -1.6412
  784MOL0     H 5810   4.715   1.730   8.092 -1.6022  0.1913 -1.2271
  784MOL0     H 5811   4.563   1.814   8.122  0.5851  2.3109  2.3775
  784MOL0     H 5812   4.488   1.593   8.262 -0.4830 -3.0024  0.0778
  784MOL0     H 5813   4.636   1.526   8.201  0.7030  0.7381 -1.5394
  784MOL0     H 5814   4.404   1.658   8.040  2.0153  2.8337 -1.6115
  784MOL0     H 5815   4.538   1.572   7.971  0.9695  1.9061  1.4758
  784MOL0     H 5816   4.322   1.447   8.159  0.1022 -1.0700 -0.3347
  784MOL0     H 5817   4.457   1.354   8.093  0.0891 -0.2182  0.5442
  784MOL0     H 5818   4.263   1.310   7.964  0.0268 -1.7077 -5.7028
  784MOL0     H 5819   4.256   1.483   7.910  1.6424  0.9991 -1.5606
  784MOL0     H 5820   5.111   2.206   8.297  1.9489  1.3317 -0.4115
  784MOL0     H 5821   5.200   2.375   8.451 -0.9245  1.0483  0.7785
  784MOL0     H 5822   5.162   2.827   8.648  0.1390  0.1085  0.2789
  784MOL0     H 5823   5.321   2.966   8.783  0.8672  1.0811  1.8081
  784MOL0     H 5824   6.702   3.142   9.642 -0.7497 -0.8016  2.7322
  784MOL0     H 5825   6.766   3.242   9.858  0.0329 -1.1183  1.8136
  784MOL0     H 5826   7.110   3.355  10.105 -1.8038 -0.9553 -0.9534
  784MOL0     H 5827   7.173   3.387  10.335  1.4400 -0.4660 -0.8298
  784MOL0     H 5828   6.959   3.689  10.542 -0.5371 -0.2207 -0.6506
  784MOL0     H 5829   7.105   3.777  10.529 -1.9714  0.3209 -0.2071
  784MOL0     H 5830   7.183   3.587  10.725  0.6275 -0.0224  0.4405
  784MOL0     H 5831   7.006   3.579  10.737 -0.1679  0.3896 -0.6757
  784MOL0     H 5832   7.112   3.719  10.903 -2.5758 -0.8376 -1.4758
  784MOL0     H 5833   7.009   3.823  10.809  0.1963  0.6015 -0.4450
  784MOL0     H 5834   7.179   3.915  10.684 -4.7541  0.3696  2.1953
  784MOL0     H 5835   7.236   3.943  10.842 -0.6372 -0.8741  2.3828
  784MOL0     H 5836   7.505   3.645  10.695  0.2057 -0.3678 -3.9521
  784MOL0     H 5837   6.959   3.761  10.342  1.6425 -1.7882  4.9108
  784MOL0     H 5838   6.757   3.704  10.078 -2.0073  3.7957  2.7424
  784MOL0     H 5839   6.833   3.843  10.128 -2.1506  0.3635 -0.8175
  784MOL0     H 5840   6.900   3.762   9.983  4.0923 -2.1796  1.3011
  785MOL0     O 5841   0.103  10.605   0.317  0.1207 -0.5814  0.9171
  785MOL0     C 5842   0.067  10.700   0.253  0.4077 -0.1066  0.5196
  785MOL0     O 5843   0.095  10.733   0.125 -0.2298  0.0070 -0.0941
  785MOL0     C 5844   0.194  10.672   0.052  0.1194 -1.2253 -0.1371
  785MOL0     C 5845   0.248  10.545   0.059 -1.1603  0.5006 -1.3458
  785MOL0     C 5846   0.360  10.510  -0.012  1.0110  0.0216 -0.1612
  785MOL0     C 5847   0.409  10.590  -0.112  0.7416 -0.0018  0.4528
  785MOL0     O 5848   0.498  10.524  -0.196  0.3730  0.1264  0.1168
  785MOL0     C 5849   0.571  10.590  -0.293 -0.9527  0.9196 -0.2379
  785MOL0     C 5850   0.503  10.577  -0.434  0.1561  0.0813 -0.4722
  785MOL0     C 5851   0.428  10.445  -0.453 -0.2133 -1.2506 -0.4118
  785MOL0     C 5852   0.524  10.330  -0.446  0.1628  0.1097  0.3456
  785MOL0     C 5853   0.457  10.194  -0.483  0.2508  0.0861  0.4308
  785MOL0     C 5854   0.551  10.078  -0.480 -1.3183  0.1183 -0.0102
  785MOL0     C 5855   0.505   9.973  -0.585  0.3670 -0.1216 -0.2619
  785MOL0     C 5856   0.376   9.900  -0.555 -0.0187 -0.1351 -0.5816
  785MOL0     N 5857   0.381   9.811  -0.429 -0.2046 -0.0438  0.0353
  785MOL0     C 5858   0.291   9.811  -0.330  0.7763 -0.6010 -0.6868
  785MOL0     C 5859   0.339   9.727  -0.238 -0.7946 -0.0860 -0.6619
  785MOL0     C 5860   0.262   9.700  -0.109  0.1451 -0.5487 -0.1683
  785MOL0     C 5861   0.296   9.818  -0.005 -0.7745  0.4816  0.0135
  785MOL0     C 5862   0.184   9.848   0.090 -0.7302  0.6977 -0.0973
  785MOL0     C 5863   0.206   9.984   0.150  0.5954  0.3388  0.7794
  785MOL0     O 5864   0.085  10.017   0.212 -0.5673  0.1017  0.5931
  785MOL0     C 5865   0.095  10.096   0.322  0.5380 -0.3505  0.2320
  785MOL0     C 5866   0.152  10.225   0.309  0.3185  0.4309  0.6734
  785MOL0     C 5867   0.168  10.314   0.415 -0.4874 -0.1409  1.1139
  785MOL0     C 5868   0.122  10.276   0.538 -0.4249 -0.6137 -0.0903
  785MOL0     C 5869   0.140  10.359   0.663 -0.1013  1.0256  1.0765
  785MOL0     O 5870   0.075  10.316   0.780 -0.0509 -0.4653 -1.1705
  785MOL0     C 5871   0.117  10.378   0.896 -0.2549 -0.3967  0.4399
  785MOL0     C 5872   0.051  10.496   0.932 -1.2162 -0.8204  0.6210
  785MOL0     C 5873   0.101  10.574   1.037  0.2582  1.0125  1.0985
  785MOL0     C 5874   0.199  10.532   1.118  0.1883 -0.2169 -0.5116
  785MOL0     O 5875   0.236  10.620   1.218 -0.3396  0.0220 -0.0520
  785MOL0     C 5876   0.362  10.578   1.280  0.2034  0.5796 -0.2779
  785MOL0     C 5877   0.405  10.673   1.396 -0.1914  0.2799  0.4425
  785MOL0     C 5878   0.500  10.601   1.492 -0.4765  0.3365 -0.2030
  785MOL0     C 5879   0.642  10.606   1.446  0.1569  0.5633  0.5597
  785MOL0     C 5880   0.750  10.554   1.538 -0.0111 -0.2552  0.2001
  785MOL0     C 5881   0.740  10.602   1.689  0.1178  0.7462  0.0650
  785MOL0     C 5882   0.630  10.519   1.768 -0.6479 -0.2646  0.6994
  785MOL0     C 5883   0.694  10.465   1.900 -0.3177  0.4570 -0.0953
  785MOL0    Cl 5884   0.826  10.353   1.861  0.5239 -0.1317  0.2549
  785MOL0     C 5885   0.258  10.414   1.085  0.2047  0.5700 -1.0763
  785MOL0     C 5886   0.234  10.339   0.966 -0.5841 -0.8106 -1.3496
  785MOL0     O 5887   0.207  10.464   0.652 -0.2543  0.1451  0.2815
  785MOL0     C 5888   0.050  10.154   0.546  0.5486 -0.2746 -1.2355
  785MOL0     C 5889   0.034  10.067   0.439 -0.4899 -0.0129  0.6516
  785MOL0     N 5890   0.466   9.688  -0.269  0.4198  0.4153  0.6902
  785MOL0     N 5891   0.489   9.741  -0.385 -0.3369  0.1389 -0.1611
  785MOL0     C 5892   0.351  10.710  -0.131 -0.1868  0.8068 -0.1211
  785MOL0     C 5893   0.250  10.755  -0.045 -0.5100  0.2753 -0.3803
  785MOL0     C 5894  -0.015  10.792   0.343  0.2413 -0.0118 -0.3571
  785MOL0     C 5895   0.017  10.795   0.476  0.3421  0.4671 -0.3930
  785MOL0     C 5896  -0.065  10.863   0.565 -0.8089  0.2602  0.3802
  785MOL0     C 5897  -0.185  10.929   0.514 -1.1567  0.4976 -0.4254
  785MOL0     O 5898  -0.276  10.990   0.589  0.0800  0.4085  0.3859
  785MOL0     C 5899  -0.259  10.998   0.742  0.6560 -0.0560 -0.6158
  785MOL0     C 5900  -0.167  11.119   0.778  0.4240 -0.1049 -0.6407
  785MOL0     C 5901  -0.106  11.126   0.931  0.6989 -0.0216  0.4306
  785MOL0     C 5902   0.014  11.027   0.946  0.4579 -0.1088  0.2975
  785MOL0     C 5903   0.076  11.047   1.068 -0.6801  0.3090 -0.2753
  785MOL0     C 5904   0.148  11.053   1.172 -0.2390 -0.7644  0.0697
  785MOL0     C 5905  -0.213  10.933   0.379  0.2048  0.1415  0.1049
  785MOL0     C 5906  -0.127  10.864   0.292 -0.0549 -0.1689  0.0797
  785MOL0     C 5907  -0.162  10.882   0.145 -0.6648 -0.1972  0.1604
  785MOL0     H 5908   0.206  10.484   0.138 -0.5418  0.8154 -0.7608
  785MOL0     H 5909   0.407  10.415   0.011 -1.2996 -0.8709  1.2483
  785MOL0     H 5910   0.573  10.700  -0.291 -1.1759  0.9901 -2.0308
  785MOL0     H 5911   0.670  10.543  -0.288 -0.4939  1.9079  0.4767
  785MOL0     H 5912   0.578  10.584  -0.513 -0.0783 -0.8074 -0.7820
  785MOL0     H 5913   0.443  10.665  -0.459  0.9332  0.7034 -0.1951
  785MOL0     H 5914   0.388  10.442  -0.555 -1.9746  2.4584 -0.0083
  785MOL0     H 5915   0.345  10.424  -0.384 -0.2403 -0.4707 -0.1996
  785MOL0     H 5916   0.609  10.342  -0.514 -1.5834 -2.7746 -2.6325
  785MOL0     H 5917   0.562  10.311  -0.346 -1.7455 -1.8620  0.7848
  785MOL0     H 5918   0.376  10.170  -0.413  0.3314 -0.9026  0.1984
  785MOL0     H 5919   0.410  10.214  -0.580 -2.0207 -0.5377  1.3244
  785MOL0     H 5920   0.649  10.113  -0.513 -2.0094  0.6521 -1.5725
  785MOL0     H 5921   0.577  10.045  -0.379 -0.0972  1.3539  0.1183
  785MOL0     H 5922   0.582   9.896  -0.588  0.2941 -0.1822 -0.6078
  785MOL0     H 5923   0.492  10.018  -0.684 -0.1832 -1.8933 -1.0378
  785MOL0     H 5924   0.298   9.974  -0.534  1.0168  0.5171  1.1750
  785MOL0     H 5925   0.339   9.836  -0.636  1.4512  0.0774 -1.4440
  785MOL0     H 5926   0.198   9.867  -0.335  0.2530 -1.4150 -0.3183
  785MOL0     H 5927   0.153   9.695  -0.122  0.0777 -4.2722  0.6960
  785MOL0     H 5928   0.279   9.605  -0.058 -0.5346 -0.6312 -0.0776
  785MOL0     H 5929   0.383   9.783   0.052 -1.7582 -0.6978  0.8519
  785MOL0     H 5930   0.314   9.905  -0.069  0.9397 -0.1218 -0.3943
  785MOL0     H 5931   0.179   9.771   0.168  3.7702 -0.5443 -0.7082
  785MOL0     H 5932   0.087   9.844   0.040 -0.1109 -0.6699 -1.2582
  785MOL0     H 5933   0.229  10.056   0.072  0.5019  1.2349  1.5663
  785MOL0     H 5934   0.295   9.992   0.213  0.1705  1.5518  1.2474
  785MOL0     H 5935   0.187  10.259   0.212  2.4094 -0.7659  0.9705
  785MOL0     H 5936   0.221  10.407   0.396  0.4815 -0.9940 -0.6604
  785MOL0     H 5937  -0.032  10.545   0.881  1.3264  3.2773 -0.0280
  785MOL0     H 5938   0.066  10.674   1.061  0.4507  1.0330  1.2975
  785MOL0     H 5939   0.334  10.479   1.317  2.4322 -1.4325 -3.4260
  785MOL0     H 5940   0.444  10.553   1.213 -0.6219 -1.1479 -0.7032
  785MOL0     H 5941   0.443  10.768   1.356 -1.6545 -0.3566 -2.6749
  785MOL0     H 5942   0.317  10.701   1.454  0.7201  2.7497  0.7692
  785MOL0     H 5943   0.500  10.646   1.591  0.7522 -0.5603  0.2303
  785MOL0     H 5944   0.467  10.500   1.517 -1.9700  1.0766  0.9897
  785MOL0     H 5945   0.678  10.710   1.443  4.7812 -0.8522 -2.3237
  785MOL0     H 5946   0.654  10.563   1.347 -1.0181  2.7215 -0.5948
  785MOL0     H 5947   0.848  10.588   1.502  0.1433 -0.7752  0.1243
  785MOL0     H 5948   0.758  10.445   1.542  1.4254 -0.1650  0.4748
  785MOL0     H 5949   0.838  10.597   1.736 -1.3031 -1.4302  3.1345
  785MOL0     H 5950   0.702  10.705   1.691 -2.3452 -0.1064  0.9920
  785MOL0     H 5951   0.589  10.442   1.702 -0.6699  2.6469 -3.0071
  785MOL0     H 5952   0.546  10.580   1.803  0.9569  0.8194  2.9156
  785MOL0     H 5953   0.741  10.544   1.960 -0.7088  1.1338 -0.6686
  785MOL0     H 5954   0.612  10.416   1.952  0.2758 -0.5258 -0.0617
  785MOL0     H 5955   0.345  10.376   1.138 -1.0469  1.8586  2.1531
  785MOL0     H 5956   0.311  10.268   0.938  0.2120 -1.4480  2.0185
  785MOL0     H 5957   0.013  10.129   0.644  3.1267 -1.9283 -0.6076
  785MOL0     H 5958  -0.030   9.980   0.449  1.9514 -2.2541 -1.4877
  785MOL0     H 5959   0.381  10.769  -0.217 -0.7869 -0.0480 -0.9312
  785MOL0     H 5960   0.208  10.852  -0.070  0.7899  1.6233  2.1515
  785MOL0     H 5961   0.086  10.720   0.512 -2.0357 -2.8867 -2.1955
  785MOL0     H 5962  -0.056  10.854   0.672 -1.3449 -1.5711  0.3098
  785MOL0     H 5963  -0.226  10.904   0.787  2.2660  0.0970 -1.4079
  785MOL0     H 5964  -0.363  11.015   0.769 -0.1363 -2.1461 -2.0950
  785MOL0     H 5965  -0.230  11.206   0.759  0.8884  0.1012 -1.2675
  785MOL0     H 5966  -0.092  11.136   0.701 -0.5582  0.7906 -1.4239
  785MOL0     H 5967  -0.183  11.111   1.007  0.1510 -2.7356 -0.5448
  785MOL0     H 5968  -0.059  11.225   0.939 -1.8313  1.1141  3.1528
  785MOL0     H 5969  -0.029  10.926   0.952 -6.4894  2.2711  0.4302
  785MOL0     H 5970   0.073  11.033   0.855  1.1297  3.0195  0.8370
  785MOL0     H 5971   0.207  11.061   1.261 -3.2461 -1.9398  2.3431
  785MOL0     H 5972  -0.293  10.991   0.335 -1.0765 -2.9148 -1.9658
  785MOL0     H 5973  -0.177  10.783   0.099  2.9603 -1.2826  0.9593
  785MOL0     H 5974  -0.247  10.951   0.138  0.0289  0.5627 -1.4939
  785MOL0     H 5975  -0.074  10.917   0.091 -0.5583 -0.9340 -0.1586
  786MOL0     O 5976   4.508   0.664   6.870  0.1001  0.2226 -0.2076
  786MOL0     C 5977   4.439   0.754   6.827  0.6266  0.0521  0.0725
  786MOL0     O 5978   4.461   0.888   6.856 -0.0257 -0.0484  0.0792
  786MOL0     C 5979   4.582   0.927   6.910 -0.0837  0.9339  0.0417
  786MOL0     C 5980   4.633   0.884   7.031  0.3688  0.0623  0.5575
  786MOL0     C 5981   4.748   0.950   7.079  0.2387  0.3137 -0.3551
  786MOL0     C 5982   4.826   1.036   7.001  0.9787 -1.2724 -0.6201
  786MOL0     O 5983   4.945   1.097   7.032  0.1388 -0.1760 -0.2264
  786MOL0     C 5984   5.010   1.081   7.164  1.0513 -0.5797  0.2852
  786MOL0     C 5985   5.117   1.188   7.159 -0.6570 -0.0053 -0.1923
  786MOL0     C 5986   5.187   1.182   7.297 -0.1372 -0.6827 -1.1474
  786MOL0     C 5987   5.309   1.282   7.300  0.1873  0.2260  0.9620
  786MOL0     C 5988   5.355   1.315   7.442  0.2237 -0.3697 -0.2081
  786MOL0     C 5989   5.474   1.406   7.446  0.2911  0.1384  0.1809
  786MOL0     C 5990   5.437   1.546   7.389  0.7012 -0.3097 -0.5028
  786MOL0     C 5991   5.332   1.631   7.457 -0.2545  0.1879 -0.3914
  786MOL0     N 5992   5.373   1.675   7.591 -0.3289  1.1043  0.5325
  786MOL0     C 5993   5.364   1.809   7.631 -0.5112  0.9636  0.2856
  786MOL0     C 5994   5.384   1.802   7.770  0.1148 -1.0272  0.3897
  786MOL0     C 5995   5.362   1.920   7.868  0.2120  0.2370 -0.0207
  786MOL0     C 5996   5.288   1.880   7.994  0.8451 -0.2849 -1.5895
  786MOL0     C 5997   5.129   1.866   7.992  1.0628  0.1331  0.0154
  786MOL0     C 5998   5.088   1.765   7.892 -0.2086  0.6904  0.4756
  786MOL0     O 5999   4.950   1.727   7.909 -0.0122  0.4270 -0.0247
  786MOL0     C 6000   4.899   1.652   7.816  0.2376  0.4169 -0.0648
  786MOL0     C 6001   4.963   1.583   7.718  0.4865  0.1823  0.8454
  786MOL0     C 6002   4.894   1.489   7.631 -0.5033 -0.2954 -0.5554
  786MOL0     C 6003   4.748   1.463   7.631 -0.2128 -0.4537  0.0706
  786MOL0     C 6004   4.686   1.356   7.543  0.0973 -0.1111 -0.0939
  786MOL0     O 6005   4.564   1.392   7.506  0.7126 -0.0556  0.2364
  786MOL0     C 6006   4.483   1.298   7.442  0.1200 -0.0789 -0.0081
  786MOL0     C 6007   4.530   1.227   7.325 -0.1234  0.8340 -0.0455
  786MOL0     C 6008   4.456   1.136   7.267  0.1537 -0.4917 -0.0042
  786MOL0     C 6009   4.326   1.104   7.305 -0.4508  0.2924 -0.7159
  786MOL0     O 6010   4.247   1.019   7.230  0.1687 -1.0362 -0.8493
  786MOL0     C 6011   4.297   0.909   7.154  0.3553  0.7187  0.5654
  786MOL0     C 6012   4.192   0.808   7.098 -1.1008 -1.6939  0.6677
  786MOL0     C 6013   4.133   0.719   7.206 -0.1176 -0.4059  0.0134
  786MOL0     C 6014   4.000   0.752   7.265  0.2277 -0.1154  0.8629
  786MOL0     C 6015   3.998   0.888   7.336  0.8059  0.5423 -0.3801
  786MOL0     C 6016   3.873   0.918   7.422  0.1609  0.2932 -0.1490
  786MOL0     C 6017   3.867   1.066   7.455 -0.0202  0.2506  0.9198
  786MOL0     C 6018   3.839   1.095   7.603 -0.6601 -0.6499  0.1563
  786MOL0    Cl 6019   3.971   1.051   7.703 -0.1723  0.8408  0.0831
  786MOL0     C 6020   4.269   1.166   7.414 -0.7289 -0.1539  0.4451
  786MOL0     C 6021   4.340   1.276   7.473 -0.6300  0.5336  0.8881
  786MOL0     O 6022   4.743   1.247   7.522  0.7227  0.5084 -0.5535
  786MOL0     C 6023   4.688   1.548   7.723 -0.6445 -0.6517 -0.2916
  786MOL0     C 6024   4.756   1.636   7.816  0.1730 -0.1738  0.4925
  786MOL0     N 6025   5.401   1.673   7.812  0.4832 -0.0464 -0.4750
  786MOL0     N 6026   5.398   1.598   7.697  0.3191  0.4224 -0.7655
  786MOL0     C 6027   4.764   1.080   6.880 -0.2927 -0.1696  0.4021
  786MOL0     C 6028   4.644   1.025   6.834  0.7013  0.5045  0.3350
  786MOL0     C 6029   4.323   0.715   6.726 -0.1783 -0.2035 -0.0032
  786MOL0     C 6030   4.305   0.577   6.708 -0.5016 -0.0547  0.3699
  786MOL0     C 6031   4.222   0.524   6.609 -0.3166  0.6483  0.4301
  786MOL0     C 6032   4.154   0.609   6.534  0.2724  0.3711 -0.1195
  786MOL0     O 6033   4.085   0.572   6.420 -0.0264  0.2095  0.4633
  786MOL0     C 6034   4.079   0.434   6.375  0.9776 -0.2135 -0.0054
  786MOL0     C 6035   4.019   0.408   6.241 -0.1931  0.5222 -0.2995
  786MOL0     C 6036   3.874   0.455   6.251 -0.3122  0.7017 -0.4043
  786MOL0     C 6037   3.801   0.391   6.141 -0.0039 -0.5307  0.5694
  786MOL0     C 6038   3.664   0.446   6.135 -0.1517  0.0104  0.0339
  786MOL0     C 6039   3.550   0.479   6.131 -0.5244 -0.2843  0.8719
  786MOL0     C 6040   4.151   0.751   6.560  0.2122  0.5168  0.2357
  786MOL0     C 6041   4.245   0.805   6.646  0.2162  0.7603 -0.1938
  786MOL0     C 6042   4.242   0.958   6.656 -0.3660  0.2325  0.2666
  786MOL0     H 6043   4.587   0.798   7.078  0.1633 -1.7228 -2.6781
  786MOL0     H 6044   4.795   0.912   7.168  1.6267  0.3204 -1.0651
  786MOL0     H 6045   4.945   1.106   7.248  4.5603 -0.2357  3.1383
  786MOL0     H 6046   5.050   0.984   7.194 -1.0211 -1.6076 -0.0620
  786MOL0     H 6047   5.081   1.292   7.155  1.3798  0.7549 -0.3222
  786MOL0     H 6048   5.173   1.160   7.070  0.5287  1.8772 -0.1055
  786MOL0     H 6049   5.239   1.088   7.318  1.9976  0.4712 -0.9492
  786MOL0     H 6050   5.119   1.210   7.378 -0.7192  3.4267 -2.8048
  786MOL0     H 6051   5.373   1.246   7.219 -4.6435 -1.5405 -2.5232
  786MOL0     H 6052   5.274   1.371   7.248 -0.5278 -0.0085  1.0352
  786MOL0     H 6053   5.275   1.360   7.502 -1.4578 -2.3657 -0.8159
  786MOL0     H 6054   5.380   1.219   7.487  0.5555 -0.3049 -0.2561
  786MOL0     H 6055   5.508   1.415   7.549 -1.1000  4.1481  0.4599
  786MOL0     H 6056   5.552   1.369   7.378 -0.6070  1.6485 -1.7836
  786MOL0     H 6057   5.410   1.521   7.286 -2.0256 -3.2841  0.7692
  786MOL0     H 6058   5.528   1.604   7.371  1.5121 -1.7946 -1.4076
  786MOL0     H 6059   5.317   1.727   7.407 -1.0105  0.4613  0.3398
  786MOL0     H 6060   5.233   1.585   7.446 -0.6384  0.9120  0.0278
  786MOL0     H 6061   5.367   1.899   7.571  4.4391  1.4486  0.7919
  786MOL0     H 6062   5.460   1.965   7.889  1.0535 -2.0397  1.3819
  786MOL0     H 6063   5.294   1.985   7.812 -0.7350  0.0477  0.8848
  786MOL0     H 6064   5.333   1.787   8.030  1.1771  1.0837  1.9491
  786MOL0     H 6065   5.310   1.944   8.079 -1.5047 -2.4897  0.8723
  786MOL0     H 6066   5.077   1.961   7.974  0.1974  0.1532  2.2730
  786MOL0     H 6067   5.098   1.847   8.095 -1.2947  1.5722 -0.3555
  786MOL0     H 6068   5.143   1.671   7.893  0.3339  1.0062  1.3468
  786MOL0     H 6069   5.095   1.801   7.789  2.3831  2.4758  1.1825
  786MOL0     H 6070   5.070   1.598   7.716  0.7001 -1.0018  1.9172
  786MOL0     H 6071   4.958   1.453   7.551 -0.5742  0.1211 -0.8034
  786MOL0     H 6072   4.631   1.253   7.295 -0.0137  4.9146  2.9251
  786MOL0     H 6073   4.485   1.110   7.165  0.2040 -3.0685  0.6069
  786MOL0     H 6074   4.352   0.962   7.076  0.6688 -1.7481 -1.0125
  786MOL0     H 6075   4.376   0.856   7.208  2.5393  0.8204 -2.2960
  786MOL0     H 6076   4.116   0.859   7.038 -0.0016 -0.4543  0.2661
  786MOL0     H 6077   4.236   0.733   7.030 -0.6303 -1.1790  0.3960
  786MOL0     H 6078   4.123   0.617   7.169 -3.2608 -0.6354  1.1363
  786MOL0     H 6079   4.211   0.705   7.281  0.5366 -1.9415 -0.9233
  786MOL0     H 6080   3.980   0.683   7.347 -1.1345  1.0925  1.5927
  786MOL0     H 6081   3.909   0.757   7.205 -0.9098  0.5625  2.5699
  786MOL0     H 6082   4.004   0.969   7.263  1.1540  2.6367  1.8457
  786MOL0     H 6083   4.091   0.902   7.393  1.0413 -0.8961 -0.3819
  786MOL0     H 6084   3.778   0.906   7.369 -1.0168  0.3693  1.8310
  786MOL0     H 6085   3.882   0.856   7.511  2.4590 -0.4933 -0.8594
  786MOL0     H 6086   3.790   1.113   7.393  0.1662 -0.5856  0.0296
  786MOL0     H 6087   3.957   1.121   7.428 -0.0218 -0.8906 -1.7222
  786MOL0     H 6088   3.834   1.204   7.610 -1.3089 -0.7627  1.8012
  786MOL0     H 6089   3.742   1.049   7.623 -1.3632  0.2856 -0.9533
  786MOL0     H 6090   4.168   1.139   7.445 -0.8439 -3.1773 -2.0568
  786MOL0     H 6091   4.290   1.328   7.554 -1.8543  2.0939 -0.7956
  786MOL0     H 6092   4.583   1.525   7.733 -1.4595  2.1683 -1.4445
  786MOL0     H 6093   4.697   1.691   7.889 -0.2231 -0.2052  0.2014
  786MOL0     H 6094   4.821   1.146   6.816  0.0024 -2.0604 -1.4082
  786MOL0     H 6095   4.615   1.060   6.735  0.2687 -0.6725  0.0323
  786MOL0     H 6096   4.356   0.500   6.765 -0.1894  1.6914  2.6244
  786MOL0     H 6097   4.226   0.419   6.584  0.0295  0.3341  1.7447
  786MOL0     H 6098   4.021   0.372   6.443 -2.4770  1.4389 -1.2264
  786MOL0     H 6099   4.180   0.395   6.362  1.3310 -0.7272  3.4121
  786MOL0     H 6100   4.017   0.299   6.234 -1.8631  0.5920 -1.6785
  786MOL0     H 6101   4.067   0.457   6.155 -1.3711 -2.0112 -2.5435
  786MOL0     H 6102   3.864   0.564   6.242  0.3152  0.6944 -1.3315
  786MOL0     H 6103   3.831   0.436   6.350 -1.4490 -3.1731 -1.4542
  786MOL0     H 6104   3.855   0.413   6.048  0.2913 -3.4116 -0.0068
  786MOL0     H 6105   3.804   0.285   6.164 -0.3675 -0.6929 -0.1263
  786MOL0     H 6106   3.446   0.501   6.127 -0.4271  0.0584  0.0711
  786MOL0     H 6107   4.096   0.811   6.489  1.4781 -0.2863 -1.5076
  786MOL0     H 6108   4.346   0.991   6.661 -0.5116  1.0828 -1.5701
  786MOL0     H 6109   4.185   1.007   6.577 -0.8721  0.6609  0.8893
  786MOL0     H 6110   4.191   0.983   6.749 -1.0970  0.4433 -0.1862
  787MOL0     O 6111   4.919   1.991   9.094 -0.0505 -0.5503 -0.4373
  787MOL0     C 6112   4.823   2.059   9.098 -0.0590 -0.3724 -0.0787
  787MOL0     O 6113   4.788   2.138   9.201 -0.0653  0.0632  0.5428
  787MOL0     C 6114   4.852   2.125   9.322 -0.8126  0.7621 -0.4219
  787MOL0     C 6115   4.886   2.237   9.384  0.2059 -0.1932 -1.2414
  787MOL0     C 6116   4.956   2.237   9.507  0.0846  0.7228  0.2312
  787MOL0     C 6117   4.992   2.108   9.576  1.1235  0.0097  1.2999
  787MOL0     O 6118   5.061   2.099   9.700 -0.3066 -0.2137 -0.2970
  787MOL0     C 6119   5.105   2.221   9.752 -0.2407  0.1837 -0.4088
  787MOL0     C 6120   5.207   2.201   9.870  0.4934  0.7551 -0.5759
  787MOL0     C 6121   5.148   2.122   9.984 -0.2519 -0.3259  0.2231
  787MOL0     C 6122   5.166   2.176  10.128  0.2800 -0.8637  0.6304
  787MOL0     C 6123   5.312   2.155  10.176  0.1767  0.7895 -0.4503
  787MOL0     C 6124   5.348   2.220  10.305 -0.2436  0.0093 -0.7742
  787MOL0     C 6125   5.483   2.184  10.369 -0.5561  1.2473  1.1201
  787MOL0     C 6126   5.509   2.265  10.500  0.6500 -0.3246  0.3477
  787MOL0     N 6127   5.637   2.248  10.575  1.0956  0.0625  0.4066
  787MOL0     C 6128   5.740   2.169  10.525  0.3518  0.7095  0.5377
  787MOL0     C 6129   5.842   2.165  10.612  0.6614 -0.3045 -0.4700
  787MOL0     C 6130   5.984   2.101  10.596  0.3108  0.6191  0.1964
  787MOL0     C 6131   6.078   2.209  10.549 -0.6413 -1.4747 -0.9737
  787MOL0     C 6132   6.224   2.163  10.541  0.1799  0.2115 -0.8994
  787MOL0     C 6133   6.251   2.054  10.434 -0.1450 -0.1938 -0.2374
  787MOL0     O 6134   6.164   2.073  10.323 -0.2397 -0.2977 -0.3183
  787MOL0     C 6135   6.213   2.010  10.203  0.3776 -0.2690 -0.3544
  787MOL0     C 6136   6.206   1.867  10.188  0.0607 -0.9229 -0.4721
  787MOL0     C 6137   6.238   1.805  10.065  0.5406 -1.1711  0.2880
  787MOL0     C 6138   6.289   1.879   9.958 -0.0113  0.4545  1.1490
  787MOL0     C 6139   6.338   1.799   9.839  0.2208 -0.3684  0.3863
  787MOL0     O 6140   6.373   1.670   9.857  0.8238  0.8175  0.5289
  787MOL0     C 6141   6.416   1.589   9.747 -0.4454 -1.1307  0.3098
  787MOL0     C 6142   6.361   1.600   9.613 -1.0091 -0.5741 -0.2035
  787MOL0     C 6143   6.405   1.519   9.502 -0.2016 -0.6570 -0.1104
  787MOL0     C 6144   6.499   1.422   9.531  0.2480  0.1488  0.2050
  787MOL0     O 6145   6.563   1.343   9.439 -0.3532  0.2747  0.4209
  787MOL0     C 6146   6.647   1.419   9.352  0.8679 -0.4134 -0.0741
  787MOL0     C 6147   6.761   1.348   9.275 -0.3978  0.2517  0.2435
  787MOL0     C 6148   6.703   1.297   9.144 -0.0915 -0.0321  0.5457
  787MOL0     C 6149   6.805   1.211   9.067  0.1756  0.3619 -0.8199
  787MOL0     C 6150   6.730   1.131   8.959  0.1719 -1.8222 -1.3245
  787MOL0     C 6151   6.834   1.054   8.871 -0.1359  0.0607 -0.3147
  787MOL0     C 6152   6.787   0.961   8.765 -0.4797  0.1149  0.4241
  787MOL0     C 6153   6.892   0.864   8.708 -0.1003 -0.1329 -0.3521
  787MOL0    Cl 6154   6.954   0.773   8.845  0.0067  0.1889  0.1396
  787MOL0     C 6155   6.555   1.416   9.662  0.4771  0.4526 -0.3819
  787MOL0     C 6156   6.510   1.492   9.770  0.6480 -1.1939  0.3261
  787MOL0     O 6157   6.348   1.866   9.731  0.7776 -0.0347 -0.2499
  787MOL0     C 6158   6.292   2.021   9.972  0.1945  1.1192 -0.0970
  787MOL0     C 6159   6.258   2.089  10.092  0.0287 -0.6671 -0.0390
  787MOL0     N 6160   5.796   2.240  10.715  0.1083 -0.4121 -0.4750
  787MOL0     N 6161   5.681   2.285  10.699 -1.0967 -0.1220 -0.2941
  787MOL0     C 6162   4.947   1.990   9.510  0.0911  0.1837 -0.4943
  787MOL0     C 6163   4.875   2.008   9.391 -0.0791 -0.6164  0.6137
  787MOL0     C 6164   4.733   2.060   8.979 -0.9604  0.8530  1.2976
  787MOL0     C 6165   4.759   1.959   8.878 -0.0136  0.4264 -0.8072
  787MOL0     C 6166   4.665   1.935   8.776 -0.3996  0.2226  0.1175
  787MOL0     C 6167   4.550   2.015   8.759 -0.1508 -0.5892 -0.3944
  787MOL0     O 6168   4.456   1.963   8.679  0.8480  0.3563  0.0291
  787MOL0     C 6169   4.373   2.063   8.618 -0.4400 -0.0467 -0.6347
  787MOL0     C 6170   4.285   2.005   8.511  0.3637  0.0092 -0.3096
  787MOL0     C 6171   4.361   1.890   8.438 -0.8059 -0.1010  0.0900
  787MOL0     C 6172   4.263   1.801   8.361  0.3780  1.0665 -0.1437
  787MOL0     C 6173   4.235   1.857   8.225 -0.4773  0.9717  0.2101
  787MOL0     C 6174   4.223   1.911   8.120 -0.0203  0.1475  0.0723
  787MOL0     C 6175   4.538   2.114   8.857 -0.4068  1.1037  0.4409
  787MOL0     C 6176   4.625   2.146   8.963  0.3822 -0.4141  0.6725
  787MOL0     C 6177   4.579   2.257   9.059  0.3649  0.2956  0.2650
  787MOL0     H 6178   4.853   2.335   9.350 -5.0404 -1.0155  0.6444
  787MOL0     H 6179   4.992   2.337   9.531 -0.3058  0.6371  1.1962
  787MOL0     H 6180   5.149   2.287   9.676  0.6901 -0.8823 -0.8286
  787MOL0     H 6181   5.014   2.261   9.796  0.3918 -1.5649  2.8135
  787MOL0     H 6182   5.246   2.294   9.912  0.6541 -0.7373  2.9390
  787MOL0     H 6183   5.285   2.144   9.819  0.0035  0.1805 -0.6859
  787MOL0     H 6184   5.192   2.022   9.982  1.0623  0.1920  1.6246
  787MOL0     H 6185   5.039   2.122   9.976 -0.2581  0.4959  0.2612
  787MOL0     H 6186   5.148   2.283  10.143 -0.3804 -1.2116  2.5393
  787MOL0     H 6187   5.096   2.128  10.195 -1.9643  0.0240 -0.9544
  787MOL0     H 6188   5.313   2.048  10.199 -2.9546  0.8410  0.2726
  787MOL0     H 6189   5.386   2.171  10.097  1.2383  0.1865  0.3958
  787MOL0     H 6190   5.344   2.328  10.288 -1.1053 -0.2866 -2.7739
  787MOL0     H 6191   5.272   2.183  10.374 -0.6185  0.6543 -0.8426
  787MOL0     H 6192   5.569   2.214  10.308  2.5399 -0.0169  4.4698
  787MOL0     H 6193   5.496   2.077  10.388  0.1354  1.2565  0.7426
  787MOL0     H 6194   5.504   2.371  10.476 -0.9043 -0.3832  0.3386
  787MOL0     H 6195   5.426   2.244  10.569 -1.7873 -0.3740 -2.4298
  787MOL0     H 6196   5.744   2.133  10.423 -1.8392 -1.7487  1.2001
  787MOL0     H 6197   6.008   2.056  10.694 -3.4912  0.1308  1.0824
  787MOL0     H 6198   5.978   2.015  10.529 -0.8695  0.1996  0.7982
  787MOL0     H 6199   6.051   2.239  10.447  0.3210 -0.4228 -0.9424
  787MOL0     H 6200   6.071   2.294  10.618 -2.1152 -2.7434  0.5468
  787MOL0     H 6201   6.261   2.123  10.636 -0.5210  0.7238 -0.3936
  787MOL0     H 6202   6.289   2.250  10.530  0.1924  0.7182  2.1805
  787MOL0     H 6203   6.233   1.955  10.475 -0.1786  0.6275  1.8481
  787MOL0     H 6204   6.359   2.058  10.415 -0.1279 -0.6558 -0.2486
  787MOL0     H 6205   6.181   1.796  10.267 -0.1527 -1.9227 -1.4072
  787MOL0     H 6206   6.236   1.698  10.048  2.0124 -1.1175 -0.3800
  787MOL0     H 6207   6.280   1.668   9.587 -0.6038  1.0018  2.3384
  787MOL0     H 6208   6.373   1.526   9.399  0.0395  1.6654 -0.0720
  787MOL0     H 6209   6.583   1.473   9.281 -1.2549  0.9360  2.6639
  787MOL0     H 6210   6.704   1.494   9.409  1.0322 -0.5722 -0.0295
  787MOL0     H 6211   6.843   1.418   9.255 -0.1710 -0.1945 -0.4201
  787MOL0     H 6212   6.802   1.268   9.336  3.6838  2.3732  0.6198
  787MOL0     H 6213   6.621   1.230   9.172 -0.2872  0.3823  0.9744
  787MOL0     H 6214   6.660   1.381   9.088 -4.6603 -1.5608  1.3389
  787MOL0     H 6215   6.868   1.142   9.123  1.3704  1.8554 -0.2563
  787MOL0     H 6216   6.881   1.280   9.030  2.3564  0.4836  3.3527
  787MOL0     H 6217   6.674   1.205   8.900  0.9621  0.3610  0.4873
  787MOL0     H 6218   6.649   1.067   8.996 -2.6409  1.9097 -0.2239
  787MOL0     H 6219   6.912   1.117   8.828  0.4058 -1.0855 -1.0774
  787MOL0     H 6220   6.884   0.990   8.944  1.5932  3.6549  1.9071
  787MOL0     H 6221   6.762   1.017   8.675 -0.2608  0.1381  0.3779
  787MOL0     H 6222   6.699   0.904   8.796 -0.2975 -1.1039 -1.2166
  787MOL0     H 6223   6.848   0.792   8.638  2.2362  0.0330 -2.1163
  787MOL0     H 6224   6.976   0.911   8.657 -1.9422  3.0415 -0.6811
  787MOL0     H 6225   6.636   1.344   9.670  0.4221 -0.1476 -3.7001
  787MOL0     H 6226   6.542   1.482   9.873 -1.2031  2.5791  1.4212
  787MOL0     H 6227   6.318   2.086   9.889  2.1826  3.0972  1.9184
  787MOL0     H 6228   6.237   2.195  10.089 -1.8857 -1.0061 -3.3475
  787MOL0     H 6229   4.964   1.896   9.562 -1.1478 -0.1965 -0.7643
  787MOL0     H 6230   4.830   1.922   9.343 -1.2396  0.4160 -0.2092
  787MOL0     H 6231   4.842   1.890   8.882  0.5237  1.0630 -0.7215
  787MOL0     H 6232   4.698   1.861   8.704  0.8579 -2.3172  3.1192
  787MOL0     H 6233   4.434   2.142   8.574  0.4873 -1.1080 -1.3104
  787MOL0     H 6234   4.317   2.113   8.697 -1.1130 -1.2085 -0.3524
  787MOL0     H 6235   4.268   2.087   8.440  1.0011  0.5450  0.1396
  787MOL0     H 6236   4.193   1.963   8.552 -1.0251  1.0942 -2.1557
  787MOL0     H 6237   4.423   1.828   8.503  0.0393  0.4457 -0.1872
  787MOL0     H 6238   4.430   1.937   8.368  1.3847  0.2686  2.3693
  787MOL0     H 6239   4.309   1.701   8.356  2.2587  1.9582 -3.4855
  787MOL0     H 6240   4.174   1.782   8.421  1.1809 -0.6293  0.5769
  787MOL0     H 6241   4.233   1.972   8.032  0.7928 -0.1918 -0.0715
  787MOL0     H 6242   4.454   2.184   8.855  0.0533  1.6558 -0.9617
  787MOL0     H 6243   4.502   2.220   9.127  0.4469  1.0691  0.7854
  787MOL0     H 6244   4.659   2.311   9.110  0.5641  0.8946 -0.6638
  787MOL0     H 6245   4.526   2.331   8.999  0.9611 -2.4106 -4.1031
  788MOL0     O 6246   0.244   5.871   0.979 -0.5225 -0.3394  0.2122
  788MOL0     C 6247   0.205   5.827   0.874 -0.1380  0.0763  0.5143
  788MOL0     O 6248   0.170   5.902   0.769  0.2033 -0.1791  0.4540
  788MOL0     C 6249   0.217   6.037   0.768  0.9069  0.8314 -0.1170
  788MOL0     C 6250   0.361   6.062   0.779  1.5148  0.0464  0.5264
  788MOL0     C 6251   0.408   6.196   0.745 -0.5042  0.7378  1.0244
  788MOL0     C 6252   0.323   6.303   0.710  0.3746  0.3071 -0.7290
  788MOL0     O 6253   0.360   6.424   0.673 -0.6981  0.7572 -0.2358
  788MOL0     C 6254   0.492   6.467   0.698 -0.8224 -0.2690  0.2557
  788MOL0     C 6255   0.490   6.620   0.672 -0.9326 -0.2636  0.0170
  788MOL0     C 6256   0.436   6.657   0.532 -0.0249 -0.1237  0.0833
  788MOL0     C 6257   0.495   6.780   0.474 -0.3991  0.3276  0.0417
  788MOL0     C 6258   0.406   6.856   0.374 -0.2625 -0.4178 -0.6914
  788MOL0     C 6259   0.405   6.789   0.240  0.6876 -0.4384  0.2827
  788MOL0     C 6260   0.314   6.853   0.132  0.5159 -0.2594  0.3351
  788MOL0     C 6261   0.274   6.751   0.025 -1.2129 -0.1508  0.1192
  788MOL0     N 6262   0.371   6.704  -0.079 -1.1755  0.0245 -0.8355
  788MOL0     C 6263   0.504   6.683  -0.067  0.2347  0.2687 -0.0005
  788MOL0     C 6264   0.534   6.624  -0.192 -1.2966  0.3163 -0.1032
  788MOL0     C 6265   0.673   6.586  -0.235 -0.4134  0.1701  0.0367
  788MOL0     C 6266   0.673   6.435  -0.265 -0.3255 -0.0899 -0.3220
  788MOL0     C 6267   0.811   6.385  -0.310  0.7615 -0.1470  0.6796
  788MOL0     C 6268   0.804   6.238  -0.351 -0.1532  0.1810 -1.1432
  788MOL0     O 6269   0.697   6.220  -0.443 -0.1745  0.1562  0.4474
  788MOL0     C 6270   0.664   6.088  -0.468 -0.2028  0.0520  0.0278
  788MOL0     C 6271   0.558   6.077  -0.556  0.3080 -0.2513 -0.5022
  788MOL0     C 6272   0.496   5.956  -0.579  0.6311  0.4637  0.3100
  788MOL0     C 6273   0.552   5.845  -0.526  0.8167 -0.6311 -0.4344
  788MOL0     C 6274   0.491   5.712  -0.547 -0.3569  0.1578  0.3887
  788MOL0     O 6275   0.372   5.713  -0.606  0.0128 -0.0513  0.9492
  788MOL0     C 6276   0.337   5.594  -0.649 -0.0169  0.0087  0.3630
  788MOL0     C 6277   0.392   5.523  -0.755  0.7325 -0.2153 -0.1911
  788MOL0     C 6278   0.350   5.394  -0.787 -0.3256 -0.7530 -0.3141
  788MOL0     C 6279   0.250   5.333  -0.708  0.4711  0.2225 -0.3042
  788MOL0     O 6280   0.204   5.203  -0.739 -0.1977 -0.6813  0.4135
  788MOL0     C 6281   0.101   5.211  -0.831 -0.2220 -0.2359 -0.0395
  788MOL0     C 6282   0.055   5.068  -0.860  0.4296  0.1383 -0.8061
  788MOL0     C 6283  -0.099   5.057  -0.854  0.1386 -0.2638  0.8974
  788MOL0     C 6284  -0.176   5.134  -0.957 -0.2794 -0.2701  0.4831
  788MOL0     C 6285  -0.304   5.214  -0.924 -0.8353 -0.0082  0.0004
  788MOL0     C 6286  -0.269   5.348  -0.849  0.8527 -0.4253  0.0320
  788MOL0     C 6287  -0.396   5.436  -0.846 -0.3699  0.1018  0.0554
  788MOL0     C 6288  -0.360   5.572  -0.777 -0.2638  0.3807  0.0225
  788MOL0    Cl 6289  -0.332   5.557  -0.603  0.3151 -0.1727 -0.0184
  788MOL0     C 6290   0.192   5.404  -0.605  0.1740 -0.5033 -0.6906
  788MOL0     C 6291   0.230   5.533  -0.579 -1.3223 -0.0313 -0.4637
  788MOL0     O 6292   0.559   5.611  -0.517 -0.2577 -0.3562 -0.4469
  788MOL0     C 6293   0.667   5.857  -0.451 -0.5198 -0.2532  0.6950
  788MOL0     C 6294   0.727   5.979  -0.414  0.3406 -0.4343 -0.5395
  788MOL0     N 6295   0.416   6.614  -0.267 -0.0467  0.4383 -0.2338
  788MOL0     N 6296   0.321   6.650  -0.190 -0.6518  0.1850 -0.3558
  788MOL0     C 6297   0.182   6.264   0.696 -0.6570 -1.2692  0.1146
  788MOL0     C 6298   0.135   6.138   0.727 -0.3088 -0.7450 -0.7851
  788MOL0     C 6299   0.181   5.685   0.876 -0.2950  0.0370 -0.7275
  788MOL0     C 6300   0.094   5.632   0.974  0.5486 -0.1100 -0.3798
  788MOL0     C 6301   0.066   5.490   0.978 -0.0381  0.4216  0.7205
  788MOL0     C 6302   0.127   5.408   0.890  0.2390 -0.6818 -0.2257
  788MOL0     O 6303   0.107   5.271   0.900  0.5825 -0.2612  0.2980
  788MOL0     C 6304  -0.018   5.220   0.968 -0.4077  0.1220  0.2420
  788MOL0     C 6305  -0.043   5.074   0.942  1.5448 -0.1098 -1.1379
  788MOL0     C 6306  -0.169   5.028   1.030  0.1781  0.3886 -0.3169
  788MOL0     C 6307  -0.289   4.968   0.960 -0.5249 -0.2999  0.0466
  788MOL0     C 6308  -0.348   4.878   1.053  0.3495  0.4556 -0.6078
  788MOL0     C 6309  -0.414   4.803   1.117 -0.4113  0.1733 -0.0724
  788MOL0     C 6310   0.213   5.462   0.789  1.1062  0.1225 -0.9751
  788MOL0     C 6311   0.225   5.601   0.773 -0.3823  0.4276 -0.4020
  788MOL0     C 6312   0.307   5.643   0.650  0.2012  0.7409 -0.0657
  788MOL0     H 6313   0.429   5.980   0.802 -0.6344 -1.9624  0.0926
  788MOL0     H 6314   0.516   6.203   0.733 -0.6318 -1.5406 -3.6581
  788MOL0     H 6315   0.515   6.456   0.805 -2.3051  1.9978  0.8726
  788MOL0     H 6316   0.567   6.411   0.642 -0.0135 -1.0169  2.0121
  788MOL0     H 6317   0.597   6.640   0.680 -0.5345 -2.2674  0.3085
  788MOL0     H 6318   0.449   6.671   0.760  1.0679  1.8235 -0.1585
  788MOL0     H 6319   0.331   6.676   0.558  0.0729  1.6929 -0.7023
  788MOL0     H 6320   0.451   6.566   0.473 -1.4742 -0.9258  0.8995
  788MOL0     H 6321   0.518   6.846   0.558 -0.0810  2.6381 -1.7609
  788MOL0     H 6322   0.594   6.758   0.431  0.1996  1.0526  1.0148
  788MOL0     H 6323   0.311   6.889   0.418 -0.1241  2.3883 -2.2622
  788MOL0     H 6324   0.450   6.955   0.365 -0.4516  0.1571  3.1380
  788MOL0     H 6325   0.509   6.775   0.209  0.7443 -0.6377  0.5623
  788MOL0     H 6326   0.371   6.688   0.263 -0.9589  0.1259  0.5253
  788MOL0     H 6327   0.368   6.939   0.090  1.3322  0.6904  3.1092
  788MOL0     H 6328   0.221   6.891   0.175  0.2403 -0.0037 -0.4642
  788MOL0     H 6329   0.242   6.658   0.073 -0.5612 -1.5217 -1.9306
  788MOL0     H 6330   0.189   6.793  -0.031 -0.4525 -1.1164 -1.8553
  788MOL0     H 6331   0.576   6.688   0.014  0.8358 -0.1071 -0.5030
  788MOL0     H 6332   0.693   6.642  -0.326 -1.7463 -0.3045 -0.5722
  788MOL0     H 6333   0.744   6.613  -0.156  1.9025 -1.4992 -1.3343
  788MOL0     H 6334   0.635   6.377  -0.180  1.5814 -1.9363 -0.6359
  788MOL0     H 6335   0.609   6.411  -0.350  0.0939  0.4190 -0.7826
  788MOL0     H 6336   0.889   6.398  -0.234  0.7241 -0.6953  0.8126
  788MOL0     H 6337   0.839   6.441  -0.399 -0.4248  1.6342  1.3556
  788MOL0     H 6338   0.763   6.179  -0.268 -2.0771  1.6874 -0.9622
  788MOL0     H 6339   0.900   6.197  -0.386  1.0350  2.8077 -1.2138
  788MOL0     H 6340   0.512   6.165  -0.600  0.0040 -0.1813 -0.0487
  788MOL0     H 6341   0.406   5.961  -0.639  0.7966 -0.5027 -0.0360
  788MOL0     H 6342   0.468   5.575  -0.813  1.2614  2.4703  2.7035
  788MOL0     H 6343   0.392   5.339  -0.870  0.0707 -1.2670  0.2171
  788MOL0     H 6344   0.018   5.273  -0.795 -0.3649  1.7487 -3.3447
  788MOL0     H 6345   0.134   5.241  -0.931 -0.9225 -3.3817 -1.3312
  788MOL0     H 6346   0.084   5.047  -0.964 -0.0753  0.5002 -1.0250
  788MOL0     H 6347   0.112   4.994  -0.802 -1.9188  0.6719  2.4492
  788MOL0     H 6348  -0.127   4.954  -0.881 -1.0695  0.5559 -1.2313
  788MOL0     H 6349  -0.131   5.080  -0.753 -1.0669 -0.4409  0.5741
  788MOL0     H 6350  -0.206   5.072  -1.042  1.0305  1.1161 -1.0708
  788MOL0     H 6351  -0.102   5.199  -1.003  1.4993 -1.8534  1.0053
  788MOL0     H 6352  -0.369   5.152  -0.861 -1.9946 -0.0624 -1.2060
  788MOL0     H 6353  -0.367   5.242  -1.009 -0.9786  0.0770  0.1364
  788MOL0     H 6354  -0.241   5.325  -0.746  3.3638 -2.3764 -0.9881
  788MOL0     H 6355  -0.189   5.397  -0.905 -0.6181 -1.7345 -3.5268
  788MOL0     H 6356  -0.477   5.383  -0.794  3.3459 -3.2141  3.1618
  788MOL0     H 6357  -0.427   5.474  -0.943  0.9660  0.8954 -0.0831
  788MOL0     H 6358  -0.273   5.620  -0.824 -0.4097  2.3302  1.6333
  788MOL0     H 6359  -0.440   5.643  -0.799  1.4823  1.7029 -2.5412
  788MOL0     H 6360   0.109   5.357  -0.552 -1.4311  2.3168 -0.4739
  788MOL0     H 6361   0.185   5.575  -0.490  2.3298 -0.6191  1.8307
  788MOL0     H 6362   0.716   5.767  -0.416  1.9576  1.6021  2.3609
  788MOL0     H 6363   0.807   5.981  -0.341  1.3412 -1.1937 -1.5843
  788MOL0     H 6364   0.117   6.344   0.660 -0.1260 -0.0544  1.7506
  788MOL0     H 6365   0.031   6.121   0.701 -0.4223  0.6143 -1.2906
  788MOL0     H 6366   0.048   5.699   1.045  0.7089 -0.5299  0.1285
  788MOL0     H 6367  -0.004   5.462   1.057 -2.4720  1.3109 -1.0150
  788MOL0     H 6368  -0.106   5.284   0.956  1.2991  2.2190 -1.9884
  788MOL0     H 6369   0.000   5.210   1.076  1.9958 -1.9541 -0.2523
  788MOL0     H 6370   0.041   5.016   0.981 -0.3543 -1.5310  1.0958
  788MOL0     H 6371  -0.054   5.059   0.834 -1.0887 -0.5183 -0.8678
  788MOL0     H 6372  -0.210   5.109   1.091  0.3140  2.1640 -2.4581
  788MOL0     H 6373  -0.132   4.959   1.107  0.3009  0.3278 -0.4294
  788MOL0     H 6374  -0.353   5.050   0.926 -0.7760  0.8326  2.9849
  788MOL0     H 6375  -0.268   4.907   0.871 -2.7820 -0.4090 -0.4786
  788MOL0     H 6376  -0.485   4.746   1.172 -1.4704  3.2792  2.0375
  788MOL0     H 6377   0.246   5.391   0.714  3.0068  2.6848 -2.7488
  788MOL0     H 6378   0.247   5.722   0.605 -0.7464  0.7634  1.1752
  788MOL0     H 6379   0.405   5.675   0.688  0.2291 -1.9140  2.5287
  788MOL0     H 6380   0.314   5.563   0.576 -1.7525  0.1724  0.3139
  789MOL0     O 6381   6.487   0.567   3.872 -0.0600 -0.1062  0.5473
  789MOL0     C 6382   6.543   0.668   3.920 -0.4863 -0.5958 -0.9088
  789MOL0     O 6383   6.546   0.702   4.053  0.3402 -0.5128  0.3626
  789MOL0     C 6384   6.448   0.650   4.134  0.3712 -0.0138  0.5058
  789MOL0     C 6385   6.425   0.519   4.156 -0.2601 -0.0140  0.3821
  789MOL0     C 6386   6.316   0.471   4.219  0.3747  0.8028 -0.2331
  789MOL0     C 6387   6.210   0.547   4.266 -0.5255  0.5290 -0.5329
  789MOL0     O 6388   6.116   0.482   4.342  0.4322  0.2877  0.4197
  789MOL0     C 6389   6.140   0.425   4.472 -1.5270  0.1925  0.1071
  789MOL0     C 6390   6.195   0.516   4.585 -0.6952 -0.0084  0.0779
  789MOL0     C 6391   6.178   0.449   4.720  0.2168  0.0307 -0.6419
  789MOL0     C 6392   6.036   0.465   4.775 -0.4472  0.4808 -0.9125
  789MOL0     C 6393   6.010   0.381   4.899 -0.3850  0.0777  0.9063
  789MOL0     C 6394   6.034   0.225   4.876 -0.0307  0.6035  0.4348
  789MOL0     C 6395   5.993   0.146   5.001  0.3156 -0.1007  0.5921
  789MOL0     C 6396   5.965   0.001   4.969 -0.0985  0.7300 -0.3541
  789MOL0     N 6397   5.918  -0.082   5.081 -0.4974  0.3257  0.4236
  789MOL0     C 6398   5.872  -0.049   5.205  0.2944 -0.5385 -0.0168
  789MOL0     C 6399   5.840  -0.166   5.258 -0.7463 -0.4190  0.3576
  789MOL0     C 6400   5.786  -0.193   5.401  0.3069 -0.0969  0.0695
  789MOL0     C 6401   5.709  -0.325   5.419  0.7068  0.3571 -0.0381
  789MOL0     C 6402   5.662  -0.347   5.570  0.1912  0.6744 -1.0379
  789MOL0     C 6403   5.774  -0.406   5.658  0.8892  0.1872 -1.0219
  789MOL0     O 6404   5.858  -0.502   5.587  0.4478 -0.5100  0.2091
  789MOL0     C 6405   5.886  -0.612   5.664 -0.2416  0.4988  0.2612
  789MOL0     C 6406   6.018  -0.636   5.708  0.6180  0.8384 -1.1305
  789MOL0     C 6407   6.046  -0.761   5.779 -0.4319 -0.1473 -0.3559
  789MOL0     C 6408   5.956  -0.861   5.778 -0.3442  1.0930  0.3205
  789MOL0     C 6409   5.985  -0.984   5.854  0.0404 -0.0676  0.9682
  789MOL0     O 6410   5.884  -1.080   5.864  0.5787  0.4877 -0.1960
  789MOL0     C 6411   5.913  -1.194   5.944  0.2865 -0.5793  0.7360
  789MOL0     C 6412   5.969  -1.205   6.074  0.2438 -0.7369  0.3065
  789MOL0     C 6413   5.996  -1.329   6.134  0.2343 -0.2197 -0.5316
  789MOL0     C 6414   5.969  -1.451   6.080 -0.0261  0.0218  0.3573
  789MOL0     O 6415   6.009  -1.564   6.156  0.1681  1.0460 -0.4020
  789MOL0     C 6416   5.973  -1.692   6.111  0.4704 -0.2452  0.3782
  789MOL0     C 6417   6.007  -1.791   6.221  0.1102  0.8693  0.0657
  789MOL0     C 6418   6.143  -1.761   6.283  0.0618 -0.1029 -0.5131
  789MOL0     C 6419   6.266  -1.755   6.189 -0.2180 -0.3121 -0.3555
  789MOL0     C 6420   6.395  -1.729   6.257  1.3137  0.7272  0.3641
  789MOL0     C 6421   6.446  -1.857   6.322  0.2995  0.0623  0.1835
  789MOL0     C 6422   6.594  -1.843   6.337 -0.0231  0.5022 -0.8951
  789MOL0     C 6423   6.652  -1.954   6.432  0.0386 -0.7279  0.2367
  789MOL0    Cl 6424   6.833  -1.942   6.433  0.4171 -0.0624  0.5213
  789MOL0     C 6425   5.905  -1.445   5.951  1.1558  0.7186  0.6581
  789MOL0     C 6426   5.874  -1.319   5.882  0.8351 -0.6260 -1.0874
  789MOL0     O 6427   6.095  -0.990   5.908  0.9623  0.0409 -0.0317
  789MOL0     C 6428   5.822  -0.836   5.727 -0.0406  0.4272  0.1531
  789MOL0     C 6429   5.790  -0.716   5.677 -0.4071 -0.8865  0.1572
  789MOL0     N 6430   5.872  -0.267   5.172 -0.8335 -0.1672 -0.2894
  789MOL0     N 6431   5.931  -0.216   5.070  0.0747 -0.0895  0.6920
  789MOL0     C 6432   6.235   0.691   4.252  0.1472  0.0216 -0.0358
  789MOL0     C 6433   6.346   0.732   4.179  0.0875 -0.3249  0.0870
  789MOL0     C 6434   6.638   0.731   3.827  0.6389  1.3527 -0.6557
  789MOL0     C 6435   6.694   0.654   3.731 -0.1964 -0.8527  0.0809
  789MOL0     C 6436   6.797   0.697   3.648  0.0036 -0.5290 -0.0260
  789MOL0     C 6437   6.844   0.827   3.666  0.2777  0.2677  1.1413
  789MOL0     O 6438   6.941   0.875   3.589 -0.6834 -1.0381  0.2852
  789MOL0     C 6439   6.981   0.814   3.459 -0.0214  0.4425 -0.5307
  789MOL0     C 6440   7.109   0.871   3.396  0.1879 -0.2786 -0.0408
  789MOL0     C 6441   7.155   0.804   3.258  0.3052 -0.1262 -0.7438
  789MOL0     C 6442   7.158   0.645   3.248  0.6156  0.2727 -0.4576
  789MOL0     C 6443   7.236   0.587   3.360 -0.2302  0.0859 -0.3766
  789MOL0     C 6444   7.316   0.539   3.439 -0.3991  0.6928 -1.2068
  789MOL0     C 6445   6.782   0.907   3.764  1.2458  0.0044 -0.2591
  789MOL0     C 6446   6.676   0.864   3.837  1.1174  0.4751 -0.5886
  789MOL0     C 6447   6.594   0.961   3.923  0.4888 -0.4651 -0.9635
  789MOL0     H 6448   6.501   0.449   4.123 -0.4693  0.3455 -0.9196
  789MOL0     H 6449   6.305   0.364   4.209  1.1816  0.5526  1.2431
  789MOL0     H 6450   6.042   0.391   4.508 -0.1888  0.1142  4.2186
  789MOL0     H 6451   6.211   0.342   4.475 -0.2407  1.2525  0.0800
  789MOL0     H 6452   6.135   0.607   4.589 -1.3966 -0.4960  1.3904
  789MOL0     H 6453   6.295   0.559   4.572 -1.0334  1.2283  1.2837
  789MOL0     H 6454   6.245   0.489   4.796 -0.2078  1.5439 -1.0296
  789MOL0     H 6455   6.210   0.345   4.712  0.3857  0.0326 -0.0022
  789MOL0     H 6456   6.024   0.571   4.795  0.2294  0.7182 -1.6979
  789MOL0     H 6457   5.965   0.430   4.699 -1.6223 -2.3044  1.2690
  789MOL0     H 6458   6.077   0.405   4.982  2.7390 -0.7169 -1.1726
  789MOL0     H 6459   5.906   0.394   4.929 -1.1010 -2.1809 -0.3392
  789MOL0     H 6460   5.975   0.184   4.794 -1.0663  0.0781  1.4059
  789MOL0     H 6461   6.139   0.218   4.849 -0.3964 -1.1958 -0.7203
  789MOL0     H 6462   5.900   0.187   5.042 -1.8885 -1.1158 -2.9250
  789MOL0     H 6463   6.067   0.161   5.079 -0.7917  3.2644  1.1592
  789MOL0     H 6464   5.882   0.000   4.897 -1.2063 -2.4848  0.7759
  789MOL0     H 6465   6.054  -0.038   4.920 -0.5266  1.4807 -1.7959
  789MOL0     H 6466   5.866   0.044   5.261 -0.1802  0.2660 -1.3476
  789MOL0     H 6467   5.863  -0.190   5.479  0.7655 -1.7381 -0.2673
  789MOL0     H 6468   5.715  -0.111   5.415  1.6853  1.7208 -2.6608
  789MOL0     H 6469   5.612  -0.324   5.368  0.9634 -0.9113 -0.5852
  789MOL0     H 6470   5.763  -0.411   5.379 -1.6705 -3.0732  3.2801
  789MOL0     H 6471   5.580  -0.419   5.572 -0.1849  1.1087 -0.6486
  789MOL0     H 6472   5.615  -0.261   5.619  0.2813  0.6216 -0.8604
  789MOL0     H 6473   5.719  -0.455   5.739  1.3511  1.1775 -0.0770
  789MOL0     H 6474   5.830  -0.322   5.699  0.2058 -1.2049  3.3355
  789MOL0     H 6475   6.097  -0.562   5.699  1.7808 -0.3132 -0.8540
  789MOL0     H 6476   6.145  -0.757   5.824  0.7738 -1.5154 -2.7072
  789MOL0     H 6477   5.987  -1.111   6.125  0.3338 -0.5333 -0.0980
  789MOL0     H 6478   6.053  -1.341   6.226 -1.8636 -1.1290  0.7360
  789MOL0     H 6479   5.864  -1.704   6.103 -0.1580  0.8964  4.5723
  789MOL0     H 6480   6.011  -1.722   6.013 -2.1452 -2.0687 -0.1976
  789MOL0     H 6481   5.924  -1.780   6.292 -0.7248 -1.2476 -0.5150
  789MOL0     H 6482   6.010  -1.892   6.181  0.8623  1.1630 -0.6332
  789MOL0     H 6483   6.132  -1.665   6.334 -0.3122 -0.6661  0.4932
  789MOL0     H 6484   6.153  -1.827   6.369 -1.5351 -0.3603 -0.4874
  789MOL0     H 6485   6.246  -1.673   6.120 -0.3391 -0.6795 -0.7599
  789MOL0     H 6486   6.263  -1.840   6.120  2.6866  0.3283 -1.4493
  789MOL0     H 6487   6.374  -1.649   6.328 -2.9900  2.9781 -2.9733
  789MOL0     H 6488   6.472  -1.701   6.184  0.2769  1.8923 -0.3175
  789MOL0     H 6489   6.397  -1.871   6.419 -3.9088  0.3845 -1.6440
  789MOL0     H 6490   6.424  -1.938   6.253 -2.3731 -0.6026  1.6716
  789MOL0     H 6491   6.623  -1.749   6.385  0.9745 -0.5698  0.7106
  789MOL0     H 6492   6.639  -1.842   6.238  0.7474 -1.6477 -0.6199
  789MOL0     H 6493   6.621  -1.923   6.532  1.8524 -1.6838  1.1350
  789MOL0     H 6494   6.609  -2.050   6.401  1.7999 -0.9186 -1.8732
  789MOL0     H 6495   5.876  -1.539   5.905  2.8489  0.6246 -0.3184
  789MOL0     H 6496   5.826  -1.328   5.785  1.6624  1.0501 -1.6837
  789MOL0     H 6497   5.749  -0.915   5.710 -0.1012  0.2584  1.1325
  789MOL0     H 6498   5.696  -0.689   5.630  0.4989  2.2249 -0.0750
  789MOL0     H 6499   6.173   0.767   4.298 -0.5096 -0.5160 -0.0260
  789MOL0     H 6500   6.371   0.834   4.153  1.0183 -1.5381 -4.6104
  789MOL0     H 6501   6.660   0.552   3.715 -2.1606  0.1521 -3.1308
  789MOL0     H 6502   6.837   0.622   3.580  3.3221 -2.9650  4.1801
  789MOL0     H 6503   6.889   0.820   3.399 -0.4723  1.3809  0.2383
  789MOL0     H 6504   7.004   0.708   3.476 -1.5411 -0.0634 -1.3941
  789MOL0     H 6505   7.193   0.869   3.466  1.6881  1.5124 -1.6659
  789MOL0     H 6506   7.101   0.978   3.375 -1.8528  0.4908  3.7167
  789MOL0     H 6507   7.257   0.838   3.239  1.0253  0.2846  3.0541
  789MOL0     H 6508   7.090   0.857   3.188  1.8692  0.1810 -2.0219
  789MOL0     H 6509   7.061   0.594   3.252  0.3643  0.8121  0.5477
  789MOL0     H 6510   7.195   0.604   3.153 -1.6255 -2.1012 -0.4213
  789MOL0     H 6511   7.385   0.500   3.511 -0.0974  1.2703 -1.1789
  789MOL0     H 6512   6.830   1.003   3.778  0.8550 -0.2027  3.3577
  789MOL0     H 6513   6.643   0.970   4.020  0.7961 -2.5755 -0.8806
  789MOL0     H 6514   6.597   1.061   3.879 -1.4031  1.7494  3.4246
  789MOL0     H 6515   6.488   0.939   3.938  0.7513 -2.8297 -2.0293
  790MOL0     O 6516  10.820   0.910   5.333 -0.4002 -0.4070  0.1020
  790MOL0     C 6517  10.924   0.905   5.260  0.2423 -0.4942 -0.5783
  790MOL0     O 6518  10.985   0.790   5.217 -0.0892 -0.9941 -0.9122
  790MOL0     C 6519  10.929   0.674   5.266 -0.4271 -0.0646  0.1745
  790MOL0     C 6520  11.020   0.581   5.330  0.5058 -1.2954 -0.3624
  790MOL0     C 6521  10.972   0.472   5.404  0.1507  0.1885  0.1250
  790MOL0     C 6522  10.830   0.441   5.408  0.0440  0.0101 -0.6527
  790MOL0     O 6523  10.775   0.337   5.486 -0.8451 -1.5260  0.1165
  790MOL0     C 6524  10.637   0.321   5.486  0.6895 -0.4208 -0.3168
  790MOL0     C 6525  10.636   0.192   5.573  0.5299 -1.1857  0.6082
  790MOL0     C 6526  10.605   0.252   5.716  0.2761  0.6597 -1.0424
  790MOL0     C 6527  10.602   0.133   5.818 -0.1202  0.2918 -0.2760
  790MOL0     C 6528  10.741   0.096   5.869 -0.6977 -0.1538  0.0103
  790MOL0     C 6529  10.806   0.216   5.950 -0.7739 -0.1785 -1.0715
  790MOL0     C 6530  10.944   0.177   6.003 -0.0778  0.1030  0.7496
  790MOL0     C 6531  10.971   0.239   6.144  0.2030  1.4434  0.2278
  790MOL0     N 6532  11.100   0.191   6.196  0.5593 -0.6008  0.3719
  790MOL0     C 6533  11.115   0.140   6.320  0.0349 -0.2657 -0.0793
  790MOL0     C 6534  11.248   0.133   6.343 -0.2489 -0.1622  0.2301
  790MOL0     C 6535  11.320   0.076   6.467  0.1183  0.0134  0.0558
  790MOL0     C 6536  11.258   0.089   6.607  0.2410  0.7755 -0.1659
  790MOL0     C 6537  11.240   0.238   6.638  0.0913 -0.5097  0.4489
  790MOL0     C 6538  11.201   0.248   6.792  0.0223  0.3947  0.1552
  790MOL0     O 6539  11.190   0.386   6.835 -0.2691  0.8591 -0.3617
  790MOL0     C 6540  11.301   0.442   6.898 -0.2931 -0.2431  0.6830
  790MOL0     C 6541  11.276   0.570   6.944  0.1681  0.2754 -0.8273
  790MOL0     C 6542  11.376   0.654   7.000  0.7628 -0.3324 -0.2061
  790MOL0     C 6543  11.504   0.602   7.016 -0.0322 -0.1694  0.7604
  790MOL0     C 6544  11.630   0.675   7.065 -1.0186  1.2144 -0.1247
  790MOL0     O 6545  11.749   0.599   7.068  0.2921 -0.1620  1.1036
  790MOL0     C 6546  11.871   0.662   7.070  0.7340 -0.4797  0.3287
  790MOL0     C 6547  11.976   0.612   7.143  0.4559 -0.4387 -0.6863
  790MOL0     C 6548  12.103   0.668   7.155 -0.7765  0.4367 -0.6675
  790MOL0     C 6549  12.130   0.784   7.078  0.4300  0.5207 -0.8690
  790MOL0     O 6550  12.251   0.854   7.097  1.1083 -0.2140  0.0106
  790MOL0     C 6551  12.268   0.969   7.015 -0.6494  0.6291  0.4275
  790MOL0     C 6552  12.404   1.031   7.042  0.7080 -0.3065 -0.0886
  790MOL0     C 6553  12.516   0.941   7.002  0.8087 -0.2516  0.1475
  790MOL0     C 6554  12.642   1.022   7.020 -0.0350 -0.0243 -0.0274
  790MOL0     C 6555  12.770   0.937   7.022  0.4415 -0.1098  0.4428
  790MOL0     C 6556  12.905   1.000   6.961  0.3415  0.2820  0.2656
  790MOL0     C 6557  13.015   0.902   6.945  0.3913  0.3490  0.5762
  790MOL0     C 6558  13.043   0.803   7.051  0.3386  0.0503  0.4318
  790MOL0    Cl 6559  12.917   0.675   7.050  0.0836  0.1455  0.6548
  790MOL0     C 6560  12.036   0.816   6.980  0.2210  0.4485 -0.5173
  790MOL0     C 6561  11.904   0.762   6.971 -0.6578  0.6745 -0.1812
  790MOL0     O 6562  11.610   0.781   7.110  0.5850 -0.3275  0.3361
  790MOL0     C 6563  11.533   0.466   6.981  0.2195  0.2488 -1.1740
  790MOL0     C 6564  11.427   0.387   6.919 -0.6462  0.4809 -0.5814
  790MOL0     N 6565  11.308   0.195   6.235  0.7264 -0.0481  0.6395
  790MOL0     N 6566  11.222   0.228   6.146  0.7209  0.6971 -0.6925
  790MOL0     C 6567  10.740   0.533   5.329  1.1546 -0.3338 -0.0957
  790MOL0     C 6568  10.794   0.640   5.268 -0.0343  0.7162  0.5428
  790MOL0     C 6569  10.982   1.031   5.208  0.2942  0.0450 -0.5460
  790MOL0     C 6570  10.935   1.152   5.267  0.2713  0.0968  0.4868
  790MOL0     C 6571  10.983   1.280   5.228 -0.1834  0.5257  0.8458
  790MOL0     C 6572  11.074   1.289   5.124  0.7369  0.3012  0.1393
  790MOL0     O 6573  11.115   1.411   5.085 -0.4557 -0.5853  0.1696
  790MOL0     C 6574  11.200   1.436   4.962  0.0166  0.3368  0.4272
  790MOL0     C 6575  11.131   1.460   4.831  0.4462 -0.3461 -0.1311
  790MOL0     C 6576  11.070   1.603   4.799  0.0047 -0.0535  0.1256
  790MOL0     C 6577  11.153   1.722   4.875  0.2151 -0.2817 -0.1716
  790MOL0     C 6578  11.107   1.857   4.838 -0.1312  0.5796  0.4014
  790MOL0     C 6579  11.071   1.968   4.820 -0.7380 -0.9423 -1.6498
  790MOL0     C 6580  11.111   1.172   5.056 -0.3443 -0.0169 -0.1756
  790MOL0     C 6581  11.075   1.042   5.101 -0.1483  0.3237 -0.3760
  790MOL0     C 6582  11.139   0.922   5.030 -0.3447 -0.1374  0.5615
  790MOL0     H 6583  11.127   0.591   5.346 -0.0201  0.3590  2.9381
  790MOL0     H 6584  11.039   0.401   5.452  0.6613  0.7773  0.2856
  790MOL0     H 6585  10.572   0.403   5.519 -1.4525 -2.7812  1.7180
  790MOL0     H 6586  10.592   0.285   5.393 -2.3629  1.0367  0.4429
  790MOL0     H 6587  10.731   0.138   5.569  0.7638 -0.7373 -0.1009
  790MOL0     H 6588  10.554   0.127   5.543 -0.3368 -1.1630  2.7118
  790MOL0     H 6589  10.507   0.299   5.728  0.1511 -0.0209  0.9149
  790MOL0     H 6590  10.681   0.326   5.742  0.3506  1.1917 -2.6281
  790MOL0     H 6591  10.548   0.180   5.900  2.1868  1.1155  0.8491
  790MOL0     H 6592  10.552   0.040   5.790  0.1530 -0.0442  0.3200
  790MOL0     H 6593  10.748   0.006   5.931  0.4288 -0.1989 -0.1546
  790MOL0     H 6594  10.803   0.077   5.781 -1.2490 -0.3683 -0.3319
  790MOL0     H 6595  10.819   0.309   5.894 -0.6059 -0.8854 -2.2321
  790MOL0     H 6596  10.740   0.243   6.033 -1.0548  1.2523 -1.7243
  790MOL0     H 6597  11.024   0.197   5.931 -0.0093  0.1860  0.8494
  790MOL0     H 6598  10.944   0.070   6.026 -0.3250  0.5449  3.0102
  790MOL0     H 6599  10.964   0.348   6.139 -1.1366  1.5497  2.8333
  790MOL0     H 6600  10.887   0.205   6.204 -0.1483  2.1092  0.1188
  790MOL0     H 6601  11.035   0.105   6.385 -0.8839  0.1770 -0.9400
  790MOL0     H 6602  11.328  -0.032   6.453  0.8014 -0.0312  0.7503
  790MOL0     H 6603  11.422   0.114   6.465  0.6693 -1.2516 -3.6680
  790MOL0     H 6604  11.161   0.038   6.617 -0.5833  2.1730 -0.7492
  790MOL0     H 6605  11.328   0.049   6.681  2.0233  0.3145 -2.0076
  790MOL0     H 6606  11.169   0.288   6.571  1.6559  0.7465 -0.3609
  790MOL0     H 6607  11.331   0.297   6.623 -0.6628  0.9945  1.5525
  790MOL0     H 6608  11.277   0.189   6.844 -1.4077 -2.4783 -0.7990
  790MOL0     H 6609  11.109   0.192   6.809 -0.1394  0.0906 -1.5910
  790MOL0     H 6610  11.173   0.602   6.950  1.0129  3.3225 -0.4416
  790MOL0     H 6611  11.357   0.752   7.044  0.6031 -1.4565  2.3772
  790MOL0     H 6612  11.942   0.529   7.203  1.4027 -0.0055  0.4773
  790MOL0     H 6613  12.175   0.622   7.222 -0.7514 -1.3445 -1.8596
  790MOL0     H 6614  12.279   0.925   6.915 -1.9190  1.6047 -0.1766
  790MOL0     H 6615  12.185   1.040   7.005 -0.8414  0.0422 -4.0684
  790MOL0     H 6616  12.393   1.119   6.978 -2.1329 -2.1434 -2.4365
  790MOL0     H 6617  12.419   1.069   7.143 -0.6372  0.1627 -0.0478
  790MOL0     H 6618  12.533   0.848   7.057  5.0816 -1.1973 -2.3360
  790MOL0     H 6619  12.495   0.897   6.904 -2.3190  1.4558 -0.0824
  790MOL0     H 6620  12.633   1.094   7.102 -0.2260  0.5254 -0.5204
  790MOL0     H 6621  12.641   1.081   6.928 -2.8501 -0.3504 -0.2904
  790MOL0     H 6622  12.738   0.849   6.966  0.2689  0.4841 -0.4013
  790MOL0     H 6623  12.782   0.897   7.123 -2.9554  0.1759  1.0539
  790MOL0     H 6624  12.870   1.043   6.867 -0.6699 -1.8080 -0.3789
  790MOL0     H 6625  12.941   1.083   7.022  4.7733  0.3201 -1.9846
  790MOL0     H 6626  13.102   0.965   6.925 -0.4588  0.8982 -1.5783
  790MOL0     H 6627  12.988   0.855   6.851 -0.8824  4.3680 -1.2843
  790MOL0     H 6628  13.136   0.749   7.032 -0.1272 -0.3057 -1.0074
  790MOL0     H 6629  13.048   0.855   7.147  2.3129 -0.4789  0.6605
  790MOL0     H 6630  12.055   0.881   6.895 -2.6111  0.5340 -1.1704
  790MOL0     H 6631  11.831   0.805   6.902 -1.8900  0.1311  0.7386
  790MOL0     H 6632  11.625   0.416   7.008 -0.2371  0.5284  1.0804
  790MOL0     H 6633  11.452   0.286   6.885 -2.9139  0.0264 -1.0507
  790MOL0     H 6634  10.634   0.510   5.321  1.0641 -0.6539  1.6864
  790MOL0     H 6635  10.734   0.693   5.195 -0.2951 -3.1878 -2.3528
  790MOL0     H 6636  10.860   1.159   5.345 -1.7150  3.8896 -1.4349
  790MOL0     H 6637  10.932   1.367   5.267 -2.3164 -0.6141  0.7905
  790MOL0     H 6638  11.274   1.357   4.957  1.8352  1.9379  0.9277
  790MOL0     H 6639  11.268   1.517   4.990  0.8039 -1.3070  3.7824
  790MOL0     H 6640  11.052   1.384   4.820 -0.3868  0.1831  1.7776
  790MOL0     H 6641  11.209   1.448   4.755  1.6075  4.9257 -0.1519
  790MOL0     H 6642  10.963   1.609   4.821  0.1449 -1.8168  1.5557
  790MOL0     H 6643  11.075   1.626   4.692 -0.1722  2.8274  0.6595
  790MOL0     H 6644  11.147   1.699   4.982  1.4322 -1.5314 -0.3358
  790MOL0     H 6645  11.249   1.709   4.824 -0.9702  1.8183 -3.2036
  790MOL0     H 6646  11.047   2.071   4.803  1.9514  0.2013  0.6565
  790MOL0     H 6647  11.186   1.180   4.978  1.4280  2.4874  1.6355
  790MOL0     H 6648  11.208   0.945   4.948  1.1876  0.8398  2.0540
  790MOL0     H 6649  11.194   0.849   5.090  1.0605  0.5394  0.1316
  790MOL0     H 6650  11.059   0.873   4.975  0.2421  0.0724 -0.5090
  791MOL0     O 6651   7.731   0.664   4.146  0.4554 -0.7372 -0.2838
  791MOL0     C 6652   7.820   0.685   4.226 -0.0789 -0.8593 -0.1533
  791MOL0     O 6653   7.938   0.621   4.228 -0.1827 -0.2977 -0.0078
  791MOL0     C 6654   7.971   0.522   4.129  0.1918 -0.9231 -1.1901
  791MOL0     C 6655   7.907   0.401   4.138 -0.4015 -0.9071 -0.3768
  791MOL0     C 6656   7.952   0.300   4.054  0.9146 -0.6736  0.9933
  791MOL0     C 6657   8.058   0.324   3.959  0.3369 -0.6853  0.0832
  791MOL0     O 6658   8.113   0.218   3.892 -0.0065  0.7540  0.0038
  791MOL0     C 6659   8.119   0.224   3.755 -0.1496  0.0217 -0.3011
  791MOL0     C 6660   8.256   0.172   3.695  0.4556 -1.5455  0.9567
  791MOL0     C 6661   8.271   0.019   3.704 -0.1020  0.1875 -0.8747
  791MOL0     C 6662   8.399  -0.040   3.639 -1.0764  0.7594 -0.0763
  791MOL0     C 6663   8.409  -0.194   3.648  1.0921  0.1323  0.4839
  791MOL0     C 6664   8.555  -0.239   3.632  0.1350  0.4389 -0.4977
  791MOL0     C 6665   8.583  -0.389   3.621 -0.1328  0.3409 -0.2896
  791MOL0     C 6666   8.537  -0.460   3.741 -0.0662 -0.1506 -0.7491
  791MOL0     N 6667   8.641  -0.512   3.835 -0.1026 -0.5895 -0.7863
  791MOL0     C 6668   8.717  -0.434   3.922  0.7210 -0.0869  0.6302
  791MOL0     C 6669   8.788  -0.520   3.990 -0.6329  0.0885 -0.8049
  791MOL0     C 6670   8.859  -0.493   4.122  0.5106 -0.1968  0.1732
  791MOL0     C 6671   9.014  -0.492   4.097  0.1759 -0.5220 -0.9348
  791MOL0     C 6672   9.084  -0.466   4.231  0.0704 -0.1565 -0.1406
  791MOL0     C 6673   9.043  -0.562   4.347 -0.5823  0.3255 -1.1839
  791MOL0     O 6674   9.145  -0.556   4.448 -0.6763 -0.9004 -0.0717
  791MOL0     C 6675   9.152  -0.664   4.533 -0.1483 -0.5509 -0.2078
  791MOL0     C 6676   9.043  -0.734   4.584 -0.2386  0.6012 -1.0083
  791MOL0     C 6677   9.048  -0.848   4.675 -0.6516 -0.5124  0.5326
  791MOL0     C 6678   9.171  -0.901   4.701  0.1881 -0.2911  0.7634
  791MOL0     C 6679   9.202  -1.028   4.783 -0.7646  1.4469 -0.8055
  791MOL0     O 6680   9.105  -1.124   4.778 -1.4600 -0.3379 -0.0940
  791MOL0     C 6681   9.089  -1.234   4.854 -0.3444  0.7435 -0.9568
  791MOL0     C 6682   8.963  -1.272   4.911 -0.2849 -0.9864  0.4435
  791MOL0     C 6683   8.948  -1.386   4.989 -0.8859 -0.3723  0.6417
  791MOL0     C 6684   9.046  -1.478   5.023  0.6788 -0.8958  0.3153
  791MOL0     O 6685   9.011  -1.590   5.080 -0.4934 -0.0339  0.2075
  791MOL0     C 6686   9.114  -1.667   5.143  0.9923  0.6049  0.1269
  791MOL0     C 6687   9.074  -1.789   5.207  0.2199  1.2053 -0.0510
  791MOL0     C 6688   8.983  -1.760   5.325  0.7064 -0.7416 -0.4578
  791MOL0     C 6689   8.975  -1.886   5.424  0.5870 -0.3878 -0.5880
  791MOL0     C 6690   8.949  -1.835   5.564  0.0004  0.7529 -0.0772
  791MOL0     C 6691   8.962  -1.952   5.667  0.4886 -0.1016 -0.4615
  791MOL0     C 6692   8.866  -2.065   5.654 -0.2648  0.0899  0.9651
  791MOL0     C 6693   8.717  -2.021   5.653 -0.1412  0.7748 -0.2131
  791MOL0    Cl 6694   8.673  -1.964   5.808 -0.0027 -0.2452  0.1570
  791MOL0     C 6695   9.171  -1.438   4.978  0.7986  0.0420  0.2528
  791MOL0     C 6696   9.200  -1.321   4.899 -0.2856 -0.6237  0.3351
  791MOL0     O 6697   9.311  -1.040   4.849 -0.1867  1.0017  0.6644
  791MOL0     C 6698   9.287  -0.826   4.651 -1.2074  0.9569 -0.4600
  791MOL0     C 6699   9.277  -0.713   4.562  0.7339 -0.1646 -0.1153
  791MOL0     N 6700   8.757  -0.647   3.942 -0.0005 -0.0982  0.0714
  791MOL0     N 6701   8.673  -0.642   3.850  0.0229  0.0101  0.8488
  791MOL0     C 6702   8.105   0.458   3.942 -0.5896  0.0787  0.1866
  791MOL0     C 6703   8.057   0.558   4.028  0.7717 -0.7057 -0.7549
  791MOL0     C 6704   7.782   0.771   4.349 -0.7075  0.3095  0.1827
  791MOL0     C 6705   7.889   0.813   4.432 -0.3854  0.5082 -0.1247
  791MOL0     C 6706   7.862   0.903   4.540 -1.0039 -0.8990  0.3981
  791MOL0     C 6707   7.738   0.950   4.559  0.4590  0.0104  0.3807
  791MOL0     O 6708   7.691   1.030   4.654  0.6010 -0.2957  0.2524
  791MOL0     C 6709   7.783   1.084   4.753 -1.1761  1.0139  0.4112
  791MOL0     C 6710   7.727   1.209   4.801 -0.1932 -0.8088  0.8650
  791MOL0     C 6711   7.823   1.295   4.884  0.0623 -0.6868 -0.4820
  791MOL0     C 6712   7.900   1.411   4.804  0.9052 -0.2719 -0.6370
  791MOL0     C 6713   8.025   1.368   4.738  0.1544  0.8928  0.6598
  791MOL0     C 6714   8.131   1.349   4.684 -0.8907 -0.1658  0.2299
  791MOL0     C 6715   7.635   0.904   4.487 -0.1038 -0.7247  0.5632
  791MOL0     C 6716   7.651   0.817   4.383 -0.6412 -0.0452 -0.2197
  791MOL0     C 6717   7.529   0.764   4.313  0.6179  0.2082  0.3009
  791MOL0     H 6718   7.831   0.396   4.216 -1.2410  1.9566 -0.8709
  791MOL0     H 6719   7.919   0.198   4.068  0.6972 -0.5733  1.2300
  791MOL0     H 6720   8.032   0.162   3.731 -0.1557 -1.5439  3.1716
  791MOL0     H 6721   8.105   0.326   3.718  0.2401  0.2726  0.2347
  791MOL0     H 6722   8.340   0.228   3.736  0.2609  0.4555 -1.1615
  791MOL0     H 6723   8.252   0.200   3.590  1.0134  0.9458  1.5427
  791MOL0     H 6724   8.178  -0.013   3.656 -1.5393  1.7772  0.6895
  791MOL0     H 6725   8.280  -0.011   3.809  3.1117 -1.8317 -1.5771
  791MOL0     H 6726   8.395  -0.010   3.534 -3.8538  0.0622 -0.2347
  791MOL0     H 6727   8.478   0.010   3.697 -1.4234  1.1239  0.0903
  791MOL0     H 6728   8.377  -0.226   3.747 -0.6550  1.7028  0.4807
  791MOL0     H 6729   8.348  -0.233   3.566 -0.1225  4.8272 -1.1064
  791MOL0     H 6730   8.586  -0.192   3.538  1.1325  0.7210 -0.0423
  791MOL0     H 6731   8.617  -0.193   3.709 -0.1547 -1.6304  1.0370
  791MOL0     H 6732   8.692  -0.399   3.616  0.0505  1.4695  0.8220
  791MOL0     H 6733   8.549  -0.425   3.524  1.3954 -1.9720 -0.0404
  791MOL0     H 6734   8.475  -0.407   3.814 -0.3770 -2.5192  0.8310
  791MOL0     H 6735   8.469  -0.539   3.710 -0.6999 -1.5808  3.5382
  791MOL0     H 6736   8.707  -0.328   3.942  0.0315  0.5691 -2.6678
  791MOL0     H 6737   8.828  -0.399   4.169 -0.5278  0.6138 -1.9925
  791MOL0     H 6738   8.835  -0.567   4.199 -2.1800  2.5407  2.2124
  791MOL0     H 6739   9.043  -0.588   4.053  0.9916 -1.0697  0.7396
  791MOL0     H 6740   9.042  -0.415   4.025 -0.1922 -0.5372 -1.0989
  791MOL0     H 6741   9.088  -0.366   4.275 -0.3297  0.8004 -2.1906
  791MOL0     H 6742   9.188  -0.489   4.203  0.0551  0.7624 -0.9855
  791MOL0     H 6743   9.020  -0.659   4.302 -0.1042  1.6180 -4.4385
  791MOL0     H 6744   8.959  -0.511   4.396  0.7668  1.4914  0.0124
  791MOL0     H 6745   8.944  -0.698   4.558 -0.6949  0.2145  0.1478
  791MOL0     H 6746   8.957  -0.891   4.717 -0.4080  0.7334  2.4598
  791MOL0     H 6747   8.870  -1.221   4.886  0.6729  1.6914  1.8685
  791MOL0     H 6748   8.848  -1.413   5.021 -1.2672  0.7919  0.4752
  791MOL0     H 6749   9.188  -1.701   5.070 -1.5322 -0.0093 -2.3237
  791MOL0     H 6750   9.170  -1.592   5.199  3.4814 -0.2224 -1.1013
  791MOL0     H 6751   9.016  -1.851   5.138  1.6995  2.5335 -2.6364
  791MOL0     H 6752   9.166  -1.840   5.239  0.0349  2.4870  2.9091
  791MOL0     H 6753   9.023  -1.673   5.377  0.3266 -1.1185  0.4734
  791MOL0     H 6754   8.878  -1.738   5.301  0.9622 -1.2097 -2.1965
  791MOL0     H 6755   9.074  -1.932   5.418  0.1467 -1.1997 -4.4386
  791MOL0     H 6756   8.906  -1.964   5.390  1.2350 -1.1187 -0.2547
  791MOL0     H 6757   8.849  -1.792   5.566 -0.1340  0.5453 -1.3624
  791MOL0     H 6758   9.011  -1.747   5.582 -1.4866  1.2407  3.3357
  791MOL0     H 6759   9.065  -1.987   5.661  0.2865 -0.5554 -1.6311
  791MOL0     H 6760   8.951  -1.912   5.769  1.6330  3.1458 -1.4882
  791MOL0     H 6761   8.887  -2.139   5.732 -1.2655 -0.2707  0.9188
  791MOL0     H 6762   8.880  -2.112   5.556 -0.0025  4.6010 -1.4389
  791MOL0     H 6763   8.688  -1.947   5.577 -2.0450 -0.9298 -1.2733
  791MOL0     H 6764   8.649  -2.102   5.624  2.4710 -1.7010  0.1698
  791MOL0     H 6765   9.257  -1.498   5.007  3.3019  2.5279 -1.5680
  791MOL0     H 6766   9.300  -1.301   4.862 -1.5627  3.6337 -1.3597
  791MOL0     H 6767   9.387  -0.865   4.663 -1.5884  0.1793  0.3072
  791MOL0     H 6768   9.366  -0.676   4.513  1.9635 -2.1474  0.5054
  791MOL0     H 6769   8.178   0.479   3.865  1.0305 -4.2598  0.2251
  791MOL0     H 6770   8.104   0.655   4.017  3.5693 -1.2951  3.5831
  791MOL0     H 6771   7.989   0.781   4.405 -0.2721 -0.7532  1.6058
  791MOL0     H 6772   7.944   0.933   4.605 -0.4709  3.6288 -1.9924
  791MOL0     H 6773   7.883   1.100   4.712 -0.6128 -1.8908  0.4544
  791MOL0     H 6774   7.803   1.022   4.841 -1.0625  0.9215  0.3210
  791MOL0     H 6775   7.640   1.187   4.862 -1.7006  1.8833 -0.1391
  791MOL0     H 6776   7.696   1.269   4.715 -0.7576 -0.6874  1.1493
  791MOL0     H 6777   7.890   1.229   4.940 -0.7769 -0.4096  0.9079
  791MOL0     H 6778   7.762   1.343   4.962  2.3690  0.4898  0.7003
  791MOL0     H 6779   7.830   1.455   4.733 -0.5015 -0.7513  0.3906
  791MOL0     H 6780   7.924   1.479   4.887 -0.1066 -3.2157  2.3223
  791MOL0     H 6781   8.232   1.339   4.650 -0.1968  1.3378  1.6704
  791MOL0     H 6782   7.534   0.944   4.493 -0.5279 -1.8603  1.3941
  791MOL0     H 6783   7.540   0.655   4.311  2.8420  0.3143  2.1372
  791MOL0     H 6784   7.433   0.786   4.360  0.4805  1.5970 -0.5611
  791MOL0     H 6785   7.521   0.806   4.212 -3.8853 -0.7593  0.0755
  792MOL0     O 6786  10.333   9.805   2.258  0.6597  0.3751  0.9557
  792MOL0     C 6787  10.428   9.731   2.303 -0.8246  0.0134 -1.0574
  792MOL0     O 6788  10.525   9.683   2.224  0.0721  0.7455 -0.5844
  792MOL0     C 6789  10.535   9.698   2.090  0.1379  0.2112  0.2637
  792MOL0     C 6790  10.658   9.736   2.037  0.0773 -0.7223  0.2018
  792MOL0     C 6791  10.680   9.716   1.901 -0.8526 -0.9769  0.2101
  792MOL0     C 6792  10.581   9.682   1.806 -0.6749 -0.0594  0.3220
  792MOL0     O 6793  10.598   9.672   1.668 -0.6801 -0.7069  0.5722
  792MOL0     C 6794  10.722   9.725   1.605 -0.6129 -0.0653 -0.1391
  792MOL0     C 6795  10.697   9.724   1.451  0.0144  0.2064  0.8415
  792MOL0     C 6796  10.682   9.575   1.393  0.8993 -0.1909 -0.7146
  792MOL0     C 6797  10.804   9.485   1.389  0.1546 -0.4916 -0.5920
  792MOL0     C 6798  10.806   9.367   1.487  0.2481 -0.4695  0.4539
  792MOL0     C 6799  10.946   9.298   1.471 -0.3140  0.3673  0.7720
  792MOL0     C 6800  10.925   9.151   1.474 -0.5454 -0.2346 -0.7809
  792MOL0     C 6801  11.070   9.082   1.467 -0.6049 -0.5789  0.1241
  792MOL0     N 6802  11.122   9.092   1.334  0.1577 -0.2416  1.0689
  792MOL0     C 6803  11.063   9.055   1.209  0.1991  0.5723  0.1318
  792MOL0     C 6804  11.149   9.100   1.111 -0.1286  0.1461  0.4672
  792MOL0     C 6805  11.098   9.100   0.970 -0.1904  0.1214 -0.1672
  792MOL0     C 6806  11.138   8.984   0.880 -0.0912 -0.6885  0.0453
  792MOL0     C 6807  11.298   8.977   0.858  0.7135  0.2964  1.0667
  792MOL0     C 6808  11.340   8.872   0.753 -0.2196 -0.6520 -0.1974
  792MOL0     O 6809  11.253   8.760   0.761  0.5549  0.4102 -0.2452
  792MOL0     C 6810  11.270   8.665   0.858 -0.7656 -0.4671  0.0501
  792MOL0     C 6811  11.376   8.664   0.944 -0.2204 -0.5763 -0.0191
  792MOL0     C 6812  11.386   8.582   1.051 -0.1330  0.0938  0.2623
  792MOL0     C 6813  11.284   8.491   1.071  0.2184  0.6399  0.4455
  792MOL0     C 6814  11.285   8.396   1.186 -0.1032  1.1272  1.4229
  792MOL0     O 6815  11.396   8.405   1.264  0.8262 -0.9462  0.0706
  792MOL0     C 6816  11.423   8.303   1.345  0.0472 -0.3828  0.4021
  792MOL0     C 6817  11.511   8.345   1.447 -1.0230  0.1223  0.1651
  792MOL0     C 6818  11.564   8.255   1.540 -0.2943  0.4837  1.3234
  792MOL0     C 6819  11.546   8.116   1.518  0.6161  0.9991 -1.2779
  792MOL0     O 6820  11.620   8.046   1.610  0.0563  0.1623  0.6270
  792MOL0     C 6821  11.627   7.899   1.592  1.1710  0.0491  0.0477
  792MOL0     C 6822  11.748   7.835   1.665  0.1300 -0.0513 -0.4029
  792MOL0     C 6823  11.728   7.818   1.820 -0.4506  0.0759 -0.2172
  792MOL0     C 6824  11.626   7.707   1.872  1.7632  0.2420 -0.1960
  792MOL0     C 6825  11.569   7.745   2.004  0.0015 -0.4342  0.0689
  792MOL0     C 6826  11.465   7.638   2.044 -0.2110 -0.4641  0.0909
  792MOL0     C 6827  11.375   7.677   2.161 -0.3697 -0.5434  0.3887
  792MOL0     C 6828  11.234   7.740   2.119 -0.3449  0.6188 -0.2534
  792MOL0    Cl 6829  11.136   7.751   2.265  0.0445 -0.7000 -0.3875
  792MOL0     C 6830  11.460   8.067   1.411  0.2366 -0.3680  0.1969
  792MOL0     C 6831  11.403   8.165   1.325 -0.5800 -0.6154 -0.6097
  792MOL0     O 6832  11.193   8.322   1.204 -0.5000  0.3350 -0.1473
  792MOL0     C 6833  11.185   8.480   0.981  0.9520  0.0577 -0.2283
  792MOL0     C 6834  11.178   8.573   0.878  0.5562 -0.6577 -0.6956
  792MOL0     N 6835  11.261   9.160   1.174  1.2495  0.1825 -0.0788
  792MOL0     N 6836  11.232   9.163   1.300  0.4607  0.7019  0.0825
  792MOL0     C 6837  10.456   9.658   1.867 -0.3425  0.8045  0.5291
  792MOL0     C 6838  10.433   9.661   1.997  0.4332 -0.2118 -0.8180
  792MOL0     C 6839  10.444   9.717   2.442  0.6051 -0.0195 -0.4210
  792MOL0     C 6840  10.420   9.826   2.527 -0.8418 -0.0367 -0.1681
  792MOL0     C 6841  10.431   9.810   2.666 -0.7685  0.9870 -0.3740
  792MOL0     C 6842  10.473   9.696   2.729  0.8927 -0.1560  0.7549
  792MOL0     O 6843  10.486   9.668   2.871 -0.0200 -0.8071  0.6811
  792MOL0     C 6844  10.502   9.779   2.965 -0.0058 -0.1129  0.2117
  792MOL0     C 6845  10.541   9.721   3.102  0.0273  0.3751 -0.3592
  792MOL0     C 6846  10.408   9.705   3.176  0.5575  0.7091  0.1237
  792MOL0     C 6847  10.436   9.670   3.332  0.5540 -0.4127  0.5262
  792MOL0     C 6848  10.511   9.548   3.362 -0.1407 -0.2077 -0.7848
  792MOL0     C 6849  10.565   9.445   3.398  0.1189 -0.3136  1.5689
  792MOL0     C 6850  10.491   9.588   2.649  0.0987  0.4140 -0.1786
  792MOL0     C 6851  10.478   9.593   2.508  0.8214 -0.3011 -0.7900
  792MOL0     C 6852  10.497   9.463   2.427 -0.0112  0.0420 -1.0299
  792MOL0     H 6853  10.743   9.760   2.099  0.0590 -0.8616  0.2812
  792MOL0     H 6854  10.779   9.753   1.879 -1.3631  1.5982  1.7172
  792MOL0     H 6855  10.723   9.830   1.634  1.4610  0.2088 -1.0769
  792MOL0     H 6856  10.811   9.667   1.631 -0.7562 -2.1529 -3.6792
  792MOL0     H 6857  10.782   9.775   1.406 -1.4306  1.4048 -0.6582
  792MOL0     H 6858  10.608   9.785   1.434 -2.1650 -3.0997 -0.8390
  792MOL0     H 6859  10.654   9.595   1.289 -1.7249  1.0840  0.1490
  792MOL0     H 6860  10.604   9.514   1.440  0.1063 -0.6487 -2.5300
  792MOL0     H 6861  10.818   9.444   1.288 -0.0743  2.3041 -1.8615
  792MOL0     H 6862  10.896   9.544   1.397  1.1876 -2.1329  0.2230
  792MOL0     H 6863  10.784   9.420   1.580  0.4117  1.1631 -0.4130
  792MOL0     H 6864  10.721   9.297   1.483 -1.5777  1.5707  1.3308
  792MOL0     H 6865  10.992   9.334   1.379 -0.3823  0.4754  0.7804
  792MOL0     H 6866  11.019   9.321   1.550  0.5962 -2.8748  0.9996
  792MOL0     H 6867  10.853   9.131   1.394 -3.1330  2.3115  0.7220
  792MOL0     H 6868  10.889   9.111   1.569 -0.8874  4.0155  1.1016
  792MOL0     H 6869  11.134   9.128   1.542 -0.8900  2.0287 -1.1138
  792MOL0     H 6870  11.063   8.975   1.488  0.1102 -0.4503  1.0852
  792MOL0     H 6871  10.963   9.015   1.192 -0.3026  2.2761 -1.2553
  792MOL0     H 6872  10.989   9.102   0.967 -0.1908  1.5310 -0.0614
  792MOL0     H 6873  11.129   9.190   0.915 -0.7246 -0.1376 -0.9056
  792MOL0     H 6874  11.117   8.883   0.914  5.5415 -2.8044 -1.6771
  792MOL0     H 6875  11.079   9.001   0.790 -2.2007  1.4521  1.6997
  792MOL0     H 6876  11.345   8.953   0.953  1.5938  1.6860  1.0049
  792MOL0     H 6877  11.339   9.072   0.821  1.5494 -1.2714 -2.3969
  792MOL0     H 6878  11.446   8.845   0.758  1.0293  3.5657 -0.6294
  792MOL0     H 6879  11.322   8.922   0.658 -1.2914 -3.1475 -1.4012
  792MOL0     H 6880  11.458   8.732   0.922 -0.9296  0.3872  0.2748
  792MOL0     H 6881  11.469   8.595   1.120  1.7031 -1.1768 -1.6097
  792MOL0     H 6882  11.542   8.446   1.469  0.6582 -1.0083  3.8414
  792MOL0     H 6883  11.622   8.293   1.624  1.4334 -1.9850  1.3711
  792MOL0     H 6884  11.530   7.854   1.615  0.6448  1.4705  0.7440
  792MOL0     H 6885  11.656   7.866   1.492  0.4167 -2.3375  0.5540
  792MOL0     H 6886  11.747   7.731   1.632  0.2165 -0.5040  0.9501
  792MOL0     H 6887  11.840   7.884   1.632  0.0995 -0.2263 -0.7511
  792MOL0     H 6888  11.827   7.791   1.858 -0.6209 -2.7988 -1.5403
  792MOL0     H 6889  11.698   7.914   1.862 -0.5410 -1.4753  3.6300
  792MOL0     H 6890  11.666   7.606   1.878 -0.1228 -0.4545  3.7712
  792MOL0     H 6891  11.537   7.700   1.809  1.6268 -2.4173  0.1971
  792MOL0     H 6892  11.517   7.841   1.990 -1.2130 -1.0020  0.5706
  792MOL0     H 6893  11.645   7.768   2.079 -1.7469  1.2827  1.4218
  792MOL0     H 6894  11.396   7.612   1.962  0.5810  0.8677 -1.0328
  792MOL0     H 6895  11.519   7.550   2.080  2.8736  1.6035  0.8737
  792MOL0     H 6896  11.438   7.740   2.224  0.1836  1.0064 -1.6039
  792MOL0     H 6897  11.359   7.586   2.220 -0.3891  0.6948  2.3924
  792MOL0     H 6898  11.240   7.838   2.072 -3.2657  1.6895  1.3750
  792MOL0     H 6899  11.190   7.663   2.055 -0.4834 -0.6679  1.3104
  792MOL0     H 6900  11.445   7.963   1.382  0.1025  0.2305 -2.0148
  792MOL0     H 6901  11.354   8.139   1.232 -0.3917  3.4748 -2.0817
  792MOL0     H 6902  11.113   8.400   0.994 -0.1842  1.0736 -0.0369
  792MOL0     H 6903  11.089   8.586   0.818  2.3687  0.3673 -3.2935
  792MOL0     H 6904  10.377   9.622   1.801  1.0059 -2.6922  0.6337
  792MOL0     H 6905  10.330   9.644   2.028 -1.4276  0.6065 -5.7089
  792MOL0     H 6906  10.406   9.927   2.491  1.8023  0.9451  1.2644
  792MOL0     H 6907  10.412   9.904   2.717 -1.4191  1.0111 -0.6509
  792MOL0     H 6908  10.415   9.846   2.966  0.6597  0.7726  0.5929
  792MOL0     H 6909  10.586   9.834   2.920  0.4936 -0.1326  1.1070
  792MOL0     H 6910  10.604   9.794   3.152  4.0647 -1.9682 -1.5838
  792MOL0     H 6911  10.603   9.631   3.100 -1.5115 -0.7393 -1.1352
  792MOL0     H 6912  10.350   9.622   3.136 -3.2750  2.2672  1.8938
  792MOL0     H 6913  10.348   9.797   3.171 -1.1075 -0.3728 -0.7246
  792MOL0     H 6914  10.474   9.756   3.388 -0.3277 -0.9352  1.9843
  792MOL0     H 6915  10.337   9.655   3.375  0.3430 -1.5278 -0.2989
  792MOL0     H 6916  10.620   9.358   3.428  1.5848 -0.1200 -0.3884
  792MOL0     H 6917  10.514   9.492   2.695  1.0764 -1.1421 -3.5619
  792MOL0     H 6918  10.594   9.464   2.375  1.1004 -0.5974  0.9378
  792MOL0     H 6919  10.482   9.376   2.491 -3.3195  1.1363 -0.1312
  792MOL0     H 6920  10.425   9.458   2.345  0.9732  0.6994 -1.9691
  793MOL0     O 6921   9.158   0.181   9.472 -0.5998  0.3220 -0.1355
  793MOL0     C 6922   9.250   0.144   9.548 -0.6030  0.0574  0.2719
  793MOL0     O 6923   9.381   0.176   9.536  0.1439  0.3700  0.0779
  793MOL0     C 6924   9.440   0.300   9.488  0.2861 -0.1878  0.1105
  793MOL0     C 6925   9.571   0.313   9.517  0.0889 -0.2606  0.2838
  793MOL0     C 6926   9.642   0.435   9.515  0.3918 -0.4806  0.1654
  793MOL0     C 6927   9.574   0.541   9.458  0.8415  0.1163 -0.4709
  793MOL0     O 6928   9.630   0.662   9.451  0.4709 -0.3233 -0.3632
  793MOL0     C 6929   9.652   0.704   9.321 -0.0637  0.5433 -0.8769
  793MOL0     C 6930   9.789   0.650   9.287 -0.3186 -0.5480 -0.1867
  793MOL0     C 6931   9.827   0.731   9.167 -0.3428  0.1916  0.6362
  793MOL0     C 6932   9.917   0.662   9.063 -0.2059  0.9888 -0.1430
  793MOL0     C 6933   9.911   0.744   8.933  0.4220 -0.9227 -0.2532
  793MOL0     C 6934  10.013   0.868   8.926  0.1548 -0.0189  0.5813
  793MOL0     C 6935  10.010   0.953   8.800 -0.2209 -0.3639 -0.8167
  793MOL0     C 6936  10.038   0.875   8.674 -0.0840  0.0454 -0.0517
  793MOL0     N 6937  10.174   0.829   8.650 -0.1372  0.2540  0.8805
  793MOL0     C 6938  10.220   0.702   8.666 -0.0475 -0.1743 -0.3867
  793MOL0     C 6939  10.355   0.714   8.642 -0.5283  0.4881 -0.0115
  793MOL0     C 6940  10.457   0.590   8.638 -0.3312  0.0498  0.5868
  793MOL0     C 6941  10.517   0.545   8.771  1.4011  0.2735  0.9549
  793MOL0     C 6942  10.609   0.653   8.841  0.3006 -0.3808 -0.3323
  793MOL0     C 6943  10.734   0.695   8.765  0.5571  0.6099  0.3983
  793MOL0     O 6944  10.800   0.791   8.855  0.4587  0.2440 -0.5748
  793MOL0     C 6945  10.771   0.926   8.867  0.7899  0.1585 -0.2936
  793MOL0     C 6946  10.772   0.992   8.998  1.2199  0.6677  0.0384
  793MOL0     C 6947  10.750   1.128   9.006 -0.2183  0.3342 -0.1018
  793MOL0     C 6948  10.729   1.203   8.898 -0.4357  0.4569 -0.1404
  793MOL0     C 6949  10.715   1.342   8.905 -0.4555  0.0003  0.6099
  793MOL0     O 6950  10.623   1.407   8.827  0.4353  0.1004  0.8161
  793MOL0     C 6951  10.591   1.535   8.856 -0.5087 -0.5265 -0.2583
  793MOL0     C 6952  10.590   1.637   8.759  0.5363  0.2292 -1.0423
  793MOL0     C 6953  10.534   1.761   8.798  0.5054 -0.0487  0.6461
  793MOL0     C 6954  10.503   1.783   8.932 -0.2260  0.3232  0.7373
  793MOL0     O 6955  10.447   1.904   8.976  0.0533  0.0877  0.6595
  793MOL0     C 6956  10.375   1.995   8.893 -0.5642  0.8283 -0.2280
  793MOL0     C 6957  10.307   2.108   8.974  0.3846 -0.3237  0.3360
  793MOL0     C 6958  10.407   2.219   9.004  0.4190  0.3732  0.0551
  793MOL0     C 6959  10.467   2.212   9.148 -0.0334 -0.6552 -0.0341
  793MOL0     C 6960  10.595   2.294   9.174  0.4616  0.4014  0.0223
  793MOL0     C 6961  10.678   2.245   9.297 -0.8895  0.3874  0.4453
  793MOL0     C 6962  10.615   2.246   9.430  0.0769 -0.3397  0.3093
  793MOL0     C 6963  10.703   2.178   9.535  0.2480 -0.2723 -0.0514
  793MOL0    Cl 6964  10.658   2.007   9.517  0.0948 -0.0537  0.0246
  793MOL0     C 6965  10.505   1.686   9.017  0.4806  0.2388 -0.1759
  793MOL0     C 6966  10.544   1.564   8.981 -0.3035  0.1857  0.7373
  793MOL0     O 6967  10.786   1.394   8.988  1.0714 -0.3991 -0.1936
  793MOL0     C 6968  10.721   1.143   8.777  0.4457 -0.0577 -0.6157
  793MOL0     C 6969  10.748   1.009   8.769  0.0783  1.0666  0.7047
  793MOL0     N 6970  10.387   0.838   8.600 -0.1362  0.6713  0.0912
  793MOL0     N 6971  10.277   0.900   8.603 -0.1919  0.4084  0.9023
  793MOL0     C 6972   9.438   0.526   9.418 -0.0846 -0.1363  0.7848
  793MOL0     C 6973   9.369   0.407   9.433 -0.8088  0.0770  0.2931
  793MOL0     C 6974   9.225   0.030   9.643 -0.0597  0.1802 -0.5554
  793MOL0     C 6975   9.331  -0.049   9.683 -0.6912 -0.4075  0.2816
  793MOL0     C 6976   9.319  -0.158   9.771 -0.4081 -0.8559 -0.1128
  793MOL0     C 6977   9.190  -0.189   9.822 -1.0546  0.9611 -0.0537
  793MOL0     O 6978   9.187  -0.297   9.908 -0.3115  0.7208 -0.4869
  793MOL0     C 6979   9.056  -0.349   9.949  0.1055  0.1926 -0.4569
  793MOL0     C 6980   9.082  -0.485  10.023  0.7071  0.3483 -0.2554
  793MOL0     C 6981   9.163  -0.595   9.947  0.3078 -0.4306 -0.0682
  793MOL0     C 6982   9.170  -0.734  10.025 -0.8094 -0.2552 -1.0551
  793MOL0     C 6983   9.297  -0.813   9.987  1.0670  0.4032 -1.0677
  793MOL0     C 6984   9.402  -0.872   9.970  0.3721  0.2093 -0.0082
  793MOL0     C 6985   9.083  -0.111   9.781  0.4167  0.3550 -0.0916
  793MOL0     C 6986   9.094  -0.001   9.698 -0.0866  0.2739  0.0710
  793MOL0     C 6987   8.969   0.084   9.681  0.7297  0.3681  1.0773
  793MOL0     H 6988   9.620   0.234   9.573 -0.5347 -0.1462  1.0153
  793MOL0     H 6989   9.743   0.455   9.550  0.0611 -0.7021  1.3015
  793MOL0     H 6990   9.579   0.661   9.252 -0.5440 -0.2733  0.1109
  793MOL0     H 6991   9.638   0.811   9.332  0.2520  0.5346 -0.3246
  793MOL0     H 6992   9.782   0.543   9.267  0.7584 -0.7747  0.5808
  793MOL0     H 6993   9.863   0.656   9.367 -1.5260  1.2645  0.8562
  793MOL0     H 6994   9.883   0.816   9.208 -1.3748  0.0009  2.5636
  793MOL0     H 6995   9.737   0.772   9.120 -1.9023 -1.9403  1.6135
  793MOL0     H 6996  10.022   0.643   9.088  0.2164 -0.4429 -2.6921
  793MOL0     H 6997   9.867   0.570   9.031 -1.6532  1.3146  1.0541
  793MOL0     H 6998   9.923   0.675   8.849 -2.7373 -2.1868  0.1784
  793MOL0     H 6999   9.811   0.788   8.922  1.5009  1.7330 -0.1717
  793MOL0     H 7000   9.997   0.929   9.015  1.9260 -2.3139  2.6003
  793MOL0     H 7001  10.111   0.820   8.932  0.7725  0.7799 -1.9357
  793MOL0     H 7002  10.074   1.038   8.824 -2.5041  1.6709 -1.5626
  793MOL0     H 7003   9.907   0.989   8.787 -2.2010 -5.3245 -1.2514
  793MOL0     H 7004   9.960   0.798   8.681 -1.3381  1.3580  1.5568
  793MOL0     H 7005  10.023   0.955   8.601 -1.7155 -2.4416 -2.6640
  793MOL0     H 7006  10.164   0.610   8.682 -1.7040  0.5524 -1.7696
  793MOL0     H 7007  10.403   0.507   8.591 -0.6752  1.0875 -0.9192
  793MOL0     H 7008  10.539   0.606   8.568  1.5717 -3.9444  1.6284
  793MOL0     H 7009  10.428   0.537   8.834  0.2243 -0.0031 -0.6584
  793MOL0     H 7010  10.574   0.453   8.750  1.3571  0.4209  0.1487
  793MOL0     H 7011  10.644   0.613   8.937  5.8378 -1.1747 -2.3479
  793MOL0     H 7012  10.544   0.740   8.860 -1.0737 -0.8917 -2.3407
  793MOL0     H 7013  10.707   0.741   8.669 -1.5375 -0.3070  0.4889
  793MOL0     H 7014  10.802   0.610   8.757  1.1107  1.1317 -0.6375
  793MOL0     H 7015  10.798   0.936   9.087  0.2785 -1.3908 -0.9151
  793MOL0     H 7016  10.759   1.177   9.102  1.5136 -2.5005  1.3126
  793MOL0     H 7017  10.620   1.627   8.655 -0.1717 -1.9561 -1.1026
  793MOL0     H 7018  10.524   1.839   8.724 -0.9226  1.6985  2.5420
  793MOL0     H 7019  10.449   2.032   8.821 -1.2155  1.2681 -0.6761
  793MOL0     H 7020  10.294   1.955   8.831 -0.4125  0.9595 -0.5136
  793MOL0     H 7021  10.227   2.143   8.908  0.9578  2.7782  1.1151
  793MOL0     H 7022  10.264   2.080   9.070  0.3534  0.0951  0.4496
  793MOL0     H 7023  10.482   2.228   8.925  1.3506  1.8429  1.0588
  793MOL0     H 7024  10.366   2.321   9.000  0.6029  0.5899  2.4135
  793MOL0     H 7025  10.487   2.105   9.164  1.3326 -0.1790  1.7849
  793MOL0     H 7026  10.390   2.243   9.219  1.7612  1.3993  1.1038
  793MOL0     H 7027  10.561   2.396   9.194 -1.3268 -0.2117  0.2492
  793MOL0     H 7028  10.657   2.290   9.084  2.0537 -2.3611  1.1387
  793MOL0     H 7029  10.730   2.151   9.279 -0.8055  0.4058  0.5853
  793MOL0     H 7030  10.754   2.324   9.309 -0.5400 -0.2799  3.3474
  793MOL0     H 7031  10.515   2.201   9.425  0.6068 -1.6786  1.1603
  793MOL0     H 7032  10.606   2.351   9.457  1.5431 -0.4015  1.0974
  793MOL0     H 7033  10.807   2.205   9.514  0.2089 -0.5366 -0.6210
  793MOL0     H 7034  10.691   2.222   9.634  0.7324 -1.1526  0.4115
  793MOL0     H 7035  10.489   1.702   9.123  3.1744  0.6042  0.2535
  793MOL0     H 7036  10.543   1.483   9.053  0.5163 -2.9780 -2.5232
  793MOL0     H 7037  10.710   1.205   8.689 -2.8049 -1.2285 -1.1695
  793MOL0     H 7038  10.740   0.962   8.671  0.7256  1.3184  0.5234
  793MOL0     H 7039   9.369   0.602   9.382 -4.0701 -2.1155  3.5241
  793MOL0     H 7040   9.270   0.386   9.395 -1.5546  0.2323  2.0646
  793MOL0     H 7041   9.433  -0.038   9.648  0.5606 -2.7136  2.8034
  793MOL0     H 7042   9.402  -0.223   9.796 -1.0253 -2.0518 -1.0726
  793MOL0     H 7043   8.988  -0.376   9.868  0.1887  0.7989 -0.7348
  793MOL0     H 7044   9.000  -0.274  10.005  1.4970 -0.6328  2.2365
  793MOL0     H 7045   8.987  -0.534  10.047  2.2720 -2.8305  0.0718
  793MOL0     H 7046   9.128  -0.459  10.119  0.4558  0.6594 -0.2206
  793MOL0     H 7047   9.262  -0.557   9.920 -0.7379  0.9520 -2.2351
  793MOL0     H 7048   9.116  -0.612   9.850  2.1140  0.1492 -1.1090
  793MOL0     H 7049   9.161  -0.725  10.133 -1.6398  0.7217 -1.1918
  793MOL0     H 7050   9.078  -0.787  10.000 -1.4737 -0.2754  1.1911
  793MOL0     H 7051   9.487  -0.930   9.942  0.1500 -0.2583  0.2604
  793MOL0     H 7052   8.983  -0.118   9.823  0.0405  4.3344  0.0307
  793MOL0     H 7053   8.877   0.032   9.710  0.8451  0.2434  1.2127
  793MOL0     H 7054   8.974   0.171   9.747 -0.2121 -3.1212  6.3124
  793MOL0     H 7055   8.961   0.117   9.577 -1.4386 -0.1870  1.0149
  794MOL0     O 7056   2.512   4.176   0.461  0.5401  0.0496  0.4219
  794MOL0     C 7057   2.539   4.295   0.471 -0.3413 -0.4791  0.1109
  794MOL0     O 7058   2.535   4.369   0.593  0.7126  0.6835  0.0308
  794MOL0     C 7059   2.450   4.309   0.686 -0.5596 -0.0806 -0.2393
  794MOL0     C 7060   2.511   4.278   0.808 -0.3889 -0.4003  0.2849
  794MOL0     C 7061   2.440   4.238   0.918  0.0418  0.5298 -0.3029
  794MOL0     C 7062   2.305   4.222   0.910  0.5482  0.3584 -0.5838
  794MOL0     O 7063   2.233   4.177   1.027  0.0502  0.0021  1.2192
  794MOL0     C 7064   2.297   4.165   1.154 -0.3169 -0.2932  0.3631
  794MOL0     C 7065   2.201   4.108   1.262 -0.0560  0.5030 -1.0140
  794MOL0     C 7066   2.118   4.216   1.325 -0.0007  0.5096 -0.4739
  794MOL0     C 7067   2.008   4.166   1.429 -0.7128  0.0821  0.3588
  794MOL0     C 7068   1.954   4.288   1.510 -1.6750  0.6491 -0.2559
  794MOL0     C 7069   1.810   4.276   1.530  0.8621 -1.2164 -0.0560
  794MOL0     C 7070   1.733   4.298   1.402  0.1483 -0.3294  0.4196
  794MOL0     C 7071   1.579   4.273   1.421 -0.4094 -0.0167 -0.3715
  794MOL0     N 7072   1.554   4.130   1.424 -0.7214  0.1495 -0.1018
  794MOL0     C 7073   1.569   4.044   1.318 -0.2130  0.0834 -0.8734
  794MOL0     C 7074   1.525   3.928   1.367 -0.5756 -0.2938 -2.0194
  794MOL0     C 7075   1.545   3.794   1.290 -0.1376 -0.0711 -0.2190
  794MOL0     C 7076   1.402   3.742   1.269 -0.1246 -0.1702 -0.1960
  794MOL0     C 7077   1.388   3.592   1.253 -0.2742 -1.1534 -0.4346
  794MOL0     C 7078   1.242   3.557   1.258  0.0074  0.8251 -0.2951
  794MOL0     O 7079   1.161   3.638   1.172 -0.0097  0.5905 -1.0033
  794MOL0     C 7080   1.181   3.642   1.036  0.0253 -0.3604  1.1147
  794MOL0     C 7081   1.158   3.763   0.964  0.1694 -0.1635  0.1436
  794MOL0     C 7082   1.165   3.775   0.829  0.0450  0.2367  0.3294
  794MOL0     C 7083   1.206   3.666   0.752  0.0996 -0.4200 -0.0688
  794MOL0     C 7084   1.223   3.668   0.600 -0.4227 -0.5065 -0.2058
  794MOL0     O 7085   1.205   3.794   0.544 -0.0302 -0.2284  0.5176
  794MOL0     C 7086   1.231   3.809   0.406  1.0177  0.5604 -0.5296
  794MOL0     C 7087   1.145   3.892   0.338 -0.5566 -0.0532 -0.4431
  794MOL0     C 7088   1.168   3.932   0.209  0.6957 -0.3354 -0.0678
  794MOL0     C 7089   1.259   3.863   0.124  0.5968 -0.1002 -0.1655
  794MOL0     O 7090   1.284   3.900  -0.008 -0.1940 -0.2803  0.0664
  794MOL0     C 7091   1.202   3.829  -0.106  1.3216 -0.3448  0.6167
  794MOL0     C 7092   1.275   3.826  -0.241  0.4629  0.3965  0.1308
  794MOL0     C 7093   1.188   3.765  -0.358 -0.1732  0.6229 -0.8193
  794MOL0     C 7094   1.171   3.613  -0.355 -0.3211  0.0520 -0.2988
  794MOL0     C 7095   1.296   3.544  -0.412  0.3706  0.1247 -0.7220
  794MOL0     C 7096   1.288   3.393  -0.404  0.4014  0.7744 -1.0299
  794MOL0     C 7097   1.431   3.334  -0.413  0.0652  1.0783  0.5557
  794MOL0     C 7098   1.438   3.179  -0.398  0.5938 -0.1030  0.3811
  794MOL0    Cl 7099   1.298   3.076  -0.457  0.2503  0.0428 -0.0213
  794MOL0     C 7100   1.345   3.773   0.195  0.1246 -0.2299  0.5472
  794MOL0     C 7101   1.336   3.758   0.340  0.5437  0.7744  1.0037
  794MOL0     O 7102   1.263   3.573   0.539 -0.1324  0.5253  0.8766
  794MOL0     C 7103   1.241   3.546   0.816  0.1696 -0.5116 -0.8090
  794MOL0     C 7104   1.230   3.538   0.958 -0.0825  0.2453  0.2889
  794MOL0     N 7105   1.468   3.946   1.497 -0.3563  0.2374 -0.3497
  794MOL0     N 7106   1.488   4.073   1.529 -0.0620  0.7411 -0.2239
  794MOL0     C 7107   2.239   4.265   0.793 -0.2997 -0.7836 -0.2477
  794MOL0     C 7108   2.310   4.297   0.676  0.5496 -0.6082  0.6388
  794MOL0     C 7109   2.620   4.356   0.355  0.7096 -0.4102 -0.4252
  794MOL0     C 7110   2.695   4.465   0.392 -0.1025  0.3469  0.0946
  794MOL0     C 7111   2.775   4.527   0.303  0.7551  0.1266 -0.1299
  794MOL0     C 7112   2.773   4.491   0.173 -0.0907 -0.1202 -0.7372
  794MOL0     O 7113   2.851   4.563   0.087 -0.4201  1.2472  1.2710
  794MOL0     C 7114   2.787   4.642  -0.013 -0.5141  1.0139 -0.5939
  794MOL0     C 7115   2.682   4.733   0.055 -0.1248  0.3931  0.6703
  794MOL0     C 7116   2.732   4.855   0.136  0.4974  0.5818 -0.9555
  794MOL0     C 7117   2.761   4.979   0.052 -0.6411  0.1040  0.4077
  794MOL0     C 7118   2.641   5.049   0.011 -0.5182 -0.1584 -0.6080
  794MOL0     C 7119   2.554   5.122  -0.033 -0.3678 -0.2419  0.5449
  794MOL0     C 7120   2.697   4.390   0.120 -0.4670 -0.0886  0.4395
  794MOL0     C 7121   2.617   4.323   0.215 -0.6538 -0.2607 -0.6074
  794MOL0     C 7122   2.526   4.213   0.161 -0.6013 -0.6362  0.2484
  794MOL0     H 7123   2.619   4.281   0.797 -0.5382 -1.5691 -2.5005
  794MOL0     H 7124   2.491   4.216   1.011 -1.1244 -0.6720  0.0946
  794MOL0     H 7125   2.390   4.108   1.148  1.5804  1.6511  5.6491
  794MOL0     H 7126   2.334   4.264   1.183 -0.7701  0.5171 -1.6625
  794MOL0     H 7127   2.264   4.053   1.333 -1.5046 -1.1941 -0.9633
  794MOL0     H 7128   2.122   4.040   1.228 -0.2989 -0.3814  1.1344
  794MOL0     H 7129   2.059   4.259   1.243  0.0420 -3.2156 -2.6492
  794MOL0     H 7130   2.190   4.292   1.357  1.8539 -0.3955 -2.2735
  794MOL0     H 7131   1.937   4.099   1.379 -1.0655  0.6987  0.0197
  794MOL0     H 7132   2.067   4.103   1.497 -0.1533  0.1316 -0.0723
  794MOL0     H 7133   2.017   4.296   1.600 -1.1696  2.3152 -0.7192
  794MOL0     H 7134   1.991   4.380   1.462  1.1660  0.2174  0.8615
  794MOL0     H 7135   1.782   4.181   1.578  1.2611 -0.5035  1.6498
  794MOL0     H 7136   1.763   4.351   1.595  1.0125 -0.5858 -0.6653
  794MOL0     H 7137   1.783   4.241   1.322  0.0675 -0.2816  0.3345
  794MOL0     H 7138   1.744   4.403   1.373  2.5757 -0.5951  0.1429
  794MOL0     H 7139   1.562   4.323   1.517  2.3687  0.4270 -0.0113
  794MOL0     H 7140   1.524   4.304   1.331 -0.0236 -2.0151 -1.3404
  794MOL0     H 7141   1.618   4.072   1.225 -0.3207  2.3005 -0.3077
  794MOL0     H 7142   1.605   3.796   1.199 -0.1342 -1.7456 -0.2881
  794MOL0     H 7143   1.602   3.724   1.352  1.0291  1.8931  1.0669
  794MOL0     H 7144   1.336   3.774   1.350 -0.3242 -0.6604 -0.1619
  794MOL0     H 7145   1.369   3.793   1.178 -0.9590 -2.2160 -1.1140
  794MOL0     H 7146   1.431   3.540   1.339 -1.0004 -1.1939 -0.0922
  794MOL0     H 7147   1.430   3.560   1.157 -0.1870 -3.7774  0.3953
  794MOL0     H 7148   1.202   3.572   1.359 -0.2264  1.8503 -0.5272
  794MOL0     H 7149   1.229   3.451   1.235 -2.3709  0.8418  0.6142
  794MOL0     H 7150   1.138   3.856   1.017 -1.9791 -0.3045 -0.3146
  794MOL0     H 7151   1.154   3.869   0.777  3.0087  1.0511  0.9740
  794MOL0     H 7152   1.072   3.948   0.396 -0.8648 -1.4893  0.6081
  794MOL0     H 7153   1.108   4.006   0.156  0.5902  2.6710  3.7642
  794MOL0     H 7154   1.188   3.727  -0.068  2.2748 -0.0362  1.8715
  794MOL0     H 7155   1.106   3.880  -0.117  1.1777 -0.4628  1.2491
  794MOL0     H 7156   1.305   3.927  -0.270  2.3313 -0.9774 -3.3616
  794MOL0     H 7157   1.377   3.788  -0.234  0.6303  0.1995 -2.2670
  794MOL0     H 7158   1.100   3.825  -0.380 -1.4429 -1.9447 -3.4347
  794MOL0     H 7159   1.239   3.779  -0.454  0.3593 -1.5892 -0.9053
  794MOL0     H 7160   1.084   3.587  -0.415 -0.9709 -0.7384  0.9618
  794MOL0     H 7161   1.157   3.575  -0.254 -0.0662 -0.1907 -0.3515
  794MOL0     H 7162   1.376   3.581  -0.347 -0.9353  0.6934  0.6064
  794MOL0     H 7163   1.325   3.587  -0.508 -2.8616  4.4897 -0.0889
  794MOL0     H 7164   1.241   3.358  -0.312  0.9889 -0.9768 -1.3673
  794MOL0     H 7165   1.213   3.370  -0.480 -2.2941  1.0442  1.3894
  794MOL0     H 7166   1.504   3.370  -0.340  0.1193  0.6594  0.7101
  794MOL0     H 7167   1.464   3.355  -0.515 -0.7683 -2.3958 -0.5458
  794MOL0     H 7168   1.527   3.139  -0.447  1.8897  3.0368 -0.0264
  794MOL0     H 7169   1.452   3.160  -0.291  1.2334  1.0006  0.4984
  794MOL0     H 7170   1.422   3.717   0.143 -1.0507 -0.5168 -0.9389
  794MOL0     H 7171   1.414   3.712   0.401 -0.4147 -1.0173  0.9188
  794MOL0     H 7172   1.278   3.461   0.761  0.7675 -2.7896  2.7897
  794MOL0     H 7173   1.236   3.449   1.020 -0.3395  0.7435  1.0362
  794MOL0     H 7174   2.131   4.257   0.802 -0.4116 -0.0748 -0.8092
  794MOL0     H 7175   2.274   4.318   0.576  0.0833  2.8782  1.3906
  794MOL0     H 7176   2.710   4.496   0.495  3.6165 -1.7082  0.3651
  794MOL0     H 7177   2.840   4.612   0.322 -2.7570  2.7827  1.0179
  794MOL0     H 7178   2.736   4.576  -0.085 -2.5707 -0.5097  2.0931
  794MOL0     H 7179   2.865   4.698  -0.065  2.8348 -3.0061 -0.4024
  794MOL0     H 7180   2.619   4.673   0.121  0.8377 -0.8341  0.5173
  794MOL0     H 7181   2.620   4.781  -0.021 -0.6779  4.0605  3.2036
  794MOL0     H 7182   2.813   4.824   0.203  0.3950 -1.0977 -1.5755
  794MOL0     H 7183   2.657   4.889   0.208 -0.2540 -0.1639 -1.3688
  794MOL0     H 7184   2.827   5.048   0.105 -1.3926  2.0441 -1.0567
  794MOL0     H 7185   2.812   4.937  -0.036 -0.1740 -2.4883  1.8229
  794MOL0     H 7186   2.469   5.174  -0.072  0.7457  0.8999 -0.4706
  794MOL0     H 7187   2.692   4.371   0.013  0.1580 -0.6678  0.5076
  794MOL0     H 7188   2.468   4.163   0.238 -0.2590 -0.0863  0.8732
  794MOL0     H 7189   2.460   4.249   0.081  2.5959 -0.7254 -2.6943
  794MOL0     H 7190   2.592   4.149   0.101 -1.0133  0.8743 -1.9625
  795MOL0     O 7191   9.716   7.913   0.475  0.5565  0.3377  0.1502
  795MOL0     C 7192   9.678   7.985   0.379  0.0695 -0.2502 -0.1341
  795MOL0     O 7193   9.725   7.963   0.255 -0.6411 -0.1718 -0.2638
  795MOL0     C 7194   9.852   7.895   0.250  0.4165 -0.3397 -0.1857
  795MOL0     C 7195   9.875   7.758   0.211 -0.6948  0.0888  0.5151
  795MOL0     C 7196  10.002   7.707   0.182 -0.0936  0.3022  0.1727
  795MOL0     C 7197  10.115   7.792   0.187  0.6049  0.0830  0.4487
  795MOL0     O 7198  10.233   7.739   0.149 -0.6309 -0.3611  0.4591
  795MOL0     C 7199  10.356   7.788   0.211 -0.1325  0.5467 -0.0625
  795MOL0     C 7200  10.460   7.742   0.115 -1.0407 -0.6135  0.7589
  795MOL0     C 7201  10.594   7.769   0.186  0.0795  1.0215 -0.1703
  795MOL0     C 7202  10.712   7.729   0.096 -0.9252 -0.1570 -0.5263
  795MOL0     C 7203  10.849   7.791   0.143  1.0840 -0.2440  0.3575
  795MOL0     C 7204  10.914   7.721   0.260  0.1534  0.5831  0.5687
  795MOL0     C 7205  11.030   7.810   0.317  0.4761 -0.0147  0.1585
  795MOL0     C 7206  11.135   7.837   0.208  0.5330 -0.4522  0.4755
  795MOL0     N 7207  11.259   7.881   0.269  0.3373  0.5742 -0.7904
  795MOL0     C 7208  11.319   7.815   0.381  0.3082 -0.8531  0.4690
  795MOL0     C 7209  11.417   7.903   0.421  0.0804 -0.4714 -0.5488
  795MOL0     C 7210  11.509   7.896   0.550  0.1572  0.0759  0.4222
  795MOL0     C 7211  11.571   7.756   0.556 -0.0856 -0.0699 -0.6713
  795MOL0     C 7212  11.684   7.738   0.659  0.4294 -0.1522 -0.6211
  795MOL0     C 7213  11.816   7.804   0.617 -0.1986 -0.4567  0.0236
  795MOL0     O 7214  11.909   7.802   0.726 -0.4447  0.0271  0.0439
  795MOL0     C 7215  12.045   7.809   0.690 -0.7185  0.3673 -0.5120
  795MOL0     C 7216  12.088   7.885   0.577  0.2802  0.9329 -0.8243
  795MOL0     C 7217  12.228   7.891   0.556 -0.2309 -0.6825 -0.8782
  795MOL0     C 7218  12.323   7.823   0.634 -0.5838  0.0820  0.0850
  795MOL0     C 7219  12.459   7.835   0.596  0.4275 -0.2679  0.1099
  795MOL0     O 7220  12.546   7.790   0.689 -0.0675 -0.0044  0.2339
  795MOL0     C 7221  12.682   7.782   0.668 -0.7406 -0.1018  0.1304
  795MOL0     C 7222  12.764   7.754   0.783  0.2997  0.2729 -0.0627
  795MOL0     C 7223  12.902   7.733   0.782 -0.0263  0.3885 -1.2379
  795MOL0     C 7224  12.967   7.752   0.665 -0.2254  0.3642  0.6316
  795MOL0     O 7225  13.106   7.753   0.651  0.0975  0.7509  0.2798
  795MOL0     C 7226  13.178   7.830   0.747  0.3941  0.6214 -0.3785
  795MOL0     C 7227  13.131   7.979   0.758 -1.0087 -0.2718  0.3545
  795MOL0     C 7228  13.182   8.073   0.639 -0.0609 -0.1080 -0.2819
  795MOL0     C 7229  13.119   8.208   0.647  0.5034 -0.1213  0.4767
  795MOL0     C 7230  13.141   8.291   0.771 -0.0263  0.0407 -0.4028
  795MOL0     C 7231  13.283   8.355   0.771  1.1439 -0.3840  0.3369
  795MOL0     C 7232  13.289   8.460   0.893  0.1620  0.4823  0.1179
  795MOL0     C 7233  13.431   8.513   0.890 -0.6569  0.2465 -0.0120
  795MOL0    Cl 7234  13.443   8.632   1.022  0.1157 -0.4816 -0.3020
  795MOL0     C 7235  12.888   7.777   0.549  0.0200 -0.2445 -0.5915
  795MOL0     C 7236  12.748   7.786   0.545 -0.6164  0.5545  0.6500
  795MOL0     O 7237  12.490   7.887   0.495  0.2322 -0.4773  0.0654
  795MOL0     C 7238  12.274   7.743   0.739 -0.9316 -0.3707  0.7748
  795MOL0     C 7239  12.138   7.737   0.763 -0.1414 -0.2632 -0.1520
  795MOL0     N 7240  11.415   8.019   0.339 -0.3483 -0.1689 -0.3320
  795MOL0     N 7241  11.313   8.009   0.264 -0.6608  0.8601 -0.4370
  795MOL0     C 7242  10.093   7.926   0.240 -0.9052  0.5089 -0.3491
  795MOL0     C 7243   9.963   7.972   0.257 -0.7134  0.7034 -0.3192
  795MOL0     C 7244   9.567   8.079   0.401  0.4928 -0.8389  0.3459
  795MOL0     C 7245   9.514   8.103   0.534  0.5518 -0.8630  0.0054
  795MOL0     C 7246   9.415   8.203   0.566  0.2518  0.5967 -0.3752
  795MOL0     C 7247   9.362   8.281   0.473  0.1726  0.0332  0.2432
  795MOL0     O 7248   9.277   8.380   0.511 -0.0182 -0.2068 -0.7125
  795MOL0     C 7249   9.246   8.502   0.430 -1.1159  0.1645 -0.5742
  795MOL0     C 7250   9.198   8.611   0.522  0.3039  0.0507 -0.2573
  795MOL0     C 7251   9.074   8.577   0.607  0.0803 -0.5212  0.1021
  795MOL0     C 7252   8.997   8.700   0.651  0.3129 -1.3897  0.5801
  795MOL0     C 7253   8.963   8.802   0.545  0.1855  1.0266 -0.3526
  795MOL0     C 7254   8.953   8.892   0.464 -1.2876 -0.3264 -0.0334
  795MOL0     C 7255   9.403   8.260   0.335 -0.5912  0.4163 -0.3304
  795MOL0     C 7256   9.506   8.161   0.300  0.3803  0.7565  0.7009
  795MOL0     C 7257   9.541   8.141   0.151  1.5230 -0.0662  0.6048
  795MOL0     H 7258   9.786   7.700   0.190 -1.6623  2.5128 -2.9958
  795MOL0     H 7259  10.007   7.603   0.153 -3.1247 -0.1619  1.0116
  795MOL0     H 7260  10.362   7.897   0.214 -3.2042  0.8104 -0.2919
  795MOL0     H 7261  10.374   7.741   0.309 -1.3034  3.1554  1.5145
  795MOL0     H 7262  10.462   7.796   0.020  2.5792 -1.7274  0.0320
  795MOL0     H 7263  10.461   7.635   0.093 -0.5899 -0.6684  1.0118
  795MOL0     H 7264  10.593   7.705   0.274 -3.4954  2.2583  0.8501
  795MOL0     H 7265  10.607   7.874   0.213 -2.6356  1.5258 -0.5207
  795MOL0     H 7266  10.716   7.620   0.085 -0.2634 -0.3063  0.8560
  795MOL0     H 7267  10.702   7.772  -0.004 -2.8341  0.4645 -0.1120
  795MOL0     H 7268  10.918   7.789   0.058 -0.5368  0.5347 -1.0370
  795MOL0     H 7269  10.832   7.898   0.160  3.7070  0.1925  0.7077
  795MOL0     H 7270  10.834   7.708   0.335  0.4074  1.4468  0.9959
  795MOL0     H 7271  10.955   7.626   0.225 -3.0746 -1.0771  0.8824
  795MOL0     H 7272  11.070   7.767   0.409  0.1195 -0.8514 -0.0692
  795MOL0     H 7273  10.970   7.896   0.347 -0.6149  0.3717 -2.7692
  795MOL0     H 7274  11.150   7.745   0.151 -4.1001 -2.5069  2.0171
  795MOL0     H 7275  11.102   7.916   0.139 -1.0974 -1.3085  0.2241
  795MOL0     H 7276  11.290   7.719   0.422  1.3376 -0.1555  2.9808
  795MOL0     H 7277  11.593   7.963   0.532 -0.9536  1.3884 -0.0530
  795MOL0     H 7278  11.453   7.919   0.641 -0.9068 -2.5743  0.5280
  795MOL0     H 7279  11.496   7.687   0.594 -1.7479  1.9633 -0.1101
  795MOL0     H 7280  11.601   7.720   0.457 -0.3439  0.7392 -1.0457
  795MOL0     H 7281  11.700   7.634   0.690 -0.8555 -0.4304 -0.8428
  795MOL0     H 7282  11.637   7.782   0.747  1.6542 -0.7349  0.3622
  795MOL0     H 7283  11.789   7.905   0.583  1.8535  1.3568  3.2141
  795MOL0     H 7284  11.860   7.751   0.533  1.8353  1.0001  0.0873
  795MOL0     H 7285  12.020   7.952   0.526  2.0490  3.4746 -0.0696
  795MOL0     H 7286  12.273   7.945   0.473  1.2882 -1.2213 -0.4326
  795MOL0     H 7287  12.720   7.727   0.878  1.2985 -0.4360  0.2250
  795MOL0     H 7288  12.956   7.696   0.868  0.9040 -2.1952 -2.8136
  795MOL0     H 7289  13.156   7.775   0.839  0.0130 -4.0499 -3.0071
  795MOL0     H 7290  13.286   7.822   0.730  0.4715 -2.7310  1.0011
  795MOL0     H 7291  13.022   7.985   0.752 -0.9150 -0.1357 -1.8347
  795MOL0     H 7292  13.158   8.016   0.858 -2.6031  2.2252 -0.0750
  795MOL0     H 7293  13.290   8.091   0.645 -0.2958  1.2142  0.2080
  795MOL0     H 7294  13.158   8.038   0.538 -0.7213  1.9993 -0.9046
  795MOL0     H 7295  13.012   8.202   0.626  0.3996  0.4407  0.8461
  795MOL0     H 7296  13.167   8.266   0.568 -2.7831  0.5148 -1.2229
  795MOL0     H 7297  13.127   8.238   0.866  2.0983  0.6451  0.3196
  795MOL0     H 7298  13.067   8.371   0.766  0.1554  0.1945 -0.6753
  795MOL0     H 7299  13.366   8.284   0.775  1.9756  0.3426 -1.9917
  795MOL0     H 7300  13.303   8.410   0.678  2.3169 -1.4460 -0.0639
  795MOL0     H 7301  13.272   8.402   0.984 -1.7699  0.2762 -0.3294
  795MOL0     H 7302  13.216   8.539   0.872 -2.3234 -1.7752 -0.1860
  795MOL0     H 7303  13.508   8.437   0.899  0.2606  0.8775 -2.0023
  795MOL0     H 7304  13.449   8.561   0.793  1.6499  0.8737  0.6741
  795MOL0     H 7305  12.940   7.788   0.455  1.8373 -2.8530  0.0078
  795MOL0     H 7306  12.701   7.804   0.449  0.0293  2.6144  0.6591
  795MOL0     H 7307  12.344   7.688   0.801 -3.3152 -2.0361  2.1618
  795MOL0     H 7308  12.093   7.676   0.840 -1.4911  2.1377  1.0722
  795MOL0     H 7309  10.179   7.993   0.244 -1.1837  0.7911  2.5583
  795MOL0     H 7310   9.956   8.075   0.291 -3.3727  0.6656 -0.5431
  795MOL0     H 7311   9.564   8.052   0.616  1.8324  0.1502 -0.0981
  795MOL0     H 7312   9.379   8.206   0.669 -0.9376  1.9445 -0.7952
  795MOL0     H 7313   9.176   8.474   0.351  0.0968 -3.0638 -0.6746
  795MOL0     H 7314   9.340   8.533   0.382 -0.2030 -3.4012 -1.3640
  795MOL0     H 7315   9.195   8.696   0.452 -0.6056 -0.1918 -0.5143
  795MOL0     H 7316   9.267   8.641   0.602 -2.6946  0.8967  2.2072
  795MOL0     H 7317   9.111   8.519   0.692  1.3463 -1.5119 -1.0865
  795MOL0     H 7318   9.004   8.517   0.548  0.3793 -0.4905 -0.2889
  795MOL0     H 7319   8.901   8.659   0.685 -0.9864 -0.0474 -1.2393
  795MOL0     H 7320   9.056   8.755   0.724 -1.4421  3.0977 -1.0027
  795MOL0     H 7321   8.932   8.981   0.409 -4.2642 -0.0584  1.3007
  795MOL0     H 7322   9.365   8.327   0.259  0.9791 -0.3936 -1.8987
  795MOL0     H 7323   9.648   8.146   0.128  1.3053 -1.6231 -0.9287
  795MOL0     H 7324   9.502   8.042   0.128  0.4715  0.5957 -0.5805
  795MOL0     H 7325   9.490   8.208   0.081  0.8388 -1.9827 -0.8200
  796MOL0     O 7326   7.229   1.631   2.070  0.1436  0.2385  0.1666
  796MOL0     C 7327   7.345   1.612   2.108 -0.3103  0.3872  0.2076
  796MOL0     O 7328   7.458   1.644   2.040  0.2791 -0.0805 -0.1853
  796MOL0     C 7329   7.441   1.733   1.942  0.1483 -0.1282  0.2896
  796MOL0     C 7330   7.398   1.677   1.814  0.3502 -0.2053 -0.0671
  796MOL0     C 7331   7.395   1.762   1.712  0.5417  0.1050  1.1111
  796MOL0     C 7332   7.423   1.896   1.729 -0.4742 -0.3516  0.7972
  796MOL0     O 7333   7.398   1.991   1.624 -0.5006 -0.3235  0.5277
  796MOL0     C 7334   7.316   2.103   1.664  0.1812 -0.1139  0.1441
  796MOL0     C 7335   7.215   2.110   1.568  0.6272  0.1390 -0.0750
  796MOL0     C 7336   7.097   2.207   1.602 -0.8154  0.5413 -0.4179
  796MOL0     C 7337   6.979   2.182   1.509 -0.7880 -0.1379 -1.1194
  796MOL0     C 7338   6.913   2.324   1.485  0.3511  0.9477  0.1301
  796MOL0     C 7339   6.800   2.319   1.377  0.3185 -0.3747 -0.4106
  796MOL0     C 7340   6.823   2.429   1.277  0.2889  0.0311  0.2521
  796MOL0     C 7341   6.940   2.397   1.183  0.3736  0.6446  0.3282
  796MOL0     N 7342   7.078   2.431   1.231  0.2686 -0.0144 -0.1974
  796MOL0     C 7343   7.116   2.547   1.280 -1.0363 -0.6887  0.5522
  796MOL0     C 7344   7.250   2.525   1.304  0.7877  0.7374 -0.3630
  796MOL0     C 7345   7.338   2.628   1.377  0.5734 -0.2495  0.9728
  796MOL0     C 7346   7.440   2.684   1.272  0.2332 -0.3868 -0.3020
  796MOL0     C 7347   7.540   2.777   1.320 -0.6556  0.0101 -0.5253
  796MOL0     C 7348   7.487   2.877   1.423 -0.0883 -0.3242  0.6495
  796MOL0     O 7349   7.581   2.978   1.456 -0.6965  0.4504  0.3754
  796MOL0     C 7350   7.531   3.091   1.518 -0.8667 -0.3262 -0.3503
  796MOL0     C 7351   7.403   3.115   1.555 -1.2458  0.0601 -0.5618
  796MOL0     C 7352   7.361   3.231   1.620 -0.9047 -0.2120  0.0980
  796MOL0     C 7353   7.463   3.313   1.675 -0.3277  0.4207 -0.1345
  796MOL0     C 7354   7.425   3.429   1.764  0.2389  0.3043 -0.3056
  796MOL0     O 7355   7.526   3.503   1.822  0.1416  0.5173  0.0229
  796MOL0     C 7356   7.500   3.637   1.869 -0.8624  0.0084  1.1584
  796MOL0     C 7357   7.410   3.662   1.979 -0.1663  0.9375  0.3734
  796MOL0     C 7358   7.392   3.789   2.022 -0.1095 -0.7683  1.1977
  796MOL0     C 7359   7.460   3.908   1.976  0.3591 -0.2375  0.8335
  796MOL0     O 7360   7.436   4.032   2.034  0.3229  0.5642 -0.0940
  796MOL0     C 7361   7.346   4.047   2.140 -0.7860 -1.2574 -0.0249
  796MOL0     C 7362   7.345   4.187   2.197  0.3475 -0.7025  1.0146
  796MOL0     C 7363   7.323   4.291   2.089  0.4296  0.1599  0.5876
  796MOL0     C 7364   7.343   4.443   2.131 -0.7832 -0.1777  0.1271
  796MOL0     C 7365   7.359   4.516   2.000 -1.4282 -1.2392 -0.1671
  796MOL0     C 7366   7.384   4.669   2.021  0.1501  0.2862  0.7973
  796MOL0     C 7367   7.262   4.743   2.086  1.0172 -0.2178 -0.9833
  796MOL0     C 7368   7.260   4.894   2.050  0.1439  0.4799  0.6434
  796MOL0    Cl 7369   7.092   4.962   2.064 -0.2838  0.8989  0.2538
  796MOL0     C 7370   7.547   3.875   1.871  0.0810  0.4728  0.1464
  796MOL0     C 7371   7.570   3.747   1.817  0.0079  1.4623 -0.7982
  796MOL0     O 7372   7.307   3.463   1.763 -0.0214 -0.5835  0.0300
  796MOL0     C 7373   7.594   3.295   1.635  0.3200 -0.4690  0.1683
  796MOL0     C 7374   7.631   3.185   1.558  0.1827  0.0663  0.2106
  796MOL0     N 7375   7.297   2.390   1.274  0.0590 -0.6572  0.2434
  796MOL0     N 7376   7.181   2.343   1.234 -0.7536 -0.3000 -0.5414
  796MOL0     C 7377   7.462   1.955   1.855  0.4885  0.2726  0.2466
  796MOL0     C 7378   7.476   1.866   1.965 -0.5003 -1.2992  0.4098
  796MOL0     C 7379   7.347   1.555   2.246  1.2686  0.6255 -0.1050
  796MOL0     C 7380   7.448   1.607   2.325  1.0549 -0.5845 -0.5698
  796MOL0     C 7381   7.468   1.566   2.458 -0.6507 -0.5388  0.5109
  796MOL0     C 7382   7.391   1.462   2.512 -0.5998  0.6161  0.2040
  796MOL0     O 7383   7.413   1.418   2.640 -0.1511  0.4160 -0.3874
  796MOL0     C 7384   7.481   1.506   2.731 -0.1295  0.5295 -0.3977
  796MOL0     C 7385   7.625   1.475   2.760  0.9080  0.4394 -0.1134
  796MOL0     C 7386   7.695   1.576   2.857 -0.1997 -0.2035  0.5205
  796MOL0     C 7387   7.851   1.584   2.854  0.1387 -0.3874  0.3872
  796MOL0     C 7388   7.878   1.662   2.732  0.1360 -0.6293  1.3728
  796MOL0     C 7389   7.902   1.718   2.625 -0.2490 -0.3513 -0.2709
  796MOL0     C 7390   7.287   1.411   2.436 -0.6601  0.5449 -0.5805
  796MOL0     C 7391   7.257   1.458   2.304 -0.1082  0.3389  0.5214
  796MOL0     C 7392   7.145   1.411   2.226  1.2220 -1.1444 -0.6099
  796MOL0     H 7393   7.370   1.572   1.813 -0.7903  0.0518 -2.6652
  796MOL0     H 7394   7.357   1.714   1.622  2.9273 -0.7760  0.4928
  796MOL0     H 7395   7.257   2.086   1.755 -2.0974 -0.1790 -1.2523
  796MOL0     H 7396   7.367   2.199   1.678  1.5333 -0.9339  1.0331
  796MOL0     H 7397   7.182   2.011   1.536 -1.1874 -0.0390  2.0897
  796MOL0     H 7398   7.255   2.160   1.479  0.3396  3.6790  1.6187
  796MOL0     H 7399   7.123   2.313   1.610  0.6843  0.0619  3.8563
  796MOL0     H 7400   7.059   2.188   1.703 -4.9072 -0.2831 -1.9104
  796MOL0     H 7401   6.995   2.123   1.419 -3.2074 -2.6756 -0.0443
  796MOL0     H 7402   6.899   2.125   1.556 -1.0010 -0.4866 -1.8967
  796MOL0     H 7403   6.860   2.360   1.574  1.4400  0.1388  1.1377
  796MOL0     H 7404   6.989   2.400   1.463  2.0087  1.0404  4.9155
  796MOL0     H 7405   6.786   2.218   1.337 -0.5440 -0.2637 -0.4105
  796MOL0     H 7406   6.700   2.327   1.422  0.0233 -2.3659 -0.6363
  796MOL0     H 7407   6.842   2.522   1.330 -0.8591 -0.0642  0.8455
  796MOL0     H 7408   6.739   2.441   1.208  0.4119  4.4547  0.5815
  796MOL0     H 7409   6.942   2.296   1.142 -2.1560  0.6470  0.0292
  796MOL0     H 7410   6.919   2.466   1.101 -1.6632 -0.9116 -0.5530
  796MOL0     H 7411   7.071   2.645   1.292  1.6715  0.6265  0.4817
  796MOL0     H 7412   7.270   2.710   1.403 -1.3688 -1.7488  0.8687
  796MOL0     H 7413   7.389   2.589   1.465 -1.5213 -1.4297  1.7140
  796MOL0     H 7414   7.499   2.604   1.226  0.0524 -0.8644  0.2850
  796MOL0     H 7415   7.379   2.722   1.189  0.0482 -2.3124 -1.1164
  796MOL0     H 7416   7.596   2.823   1.238 -0.3312  0.2803 -0.1524
  796MOL0     H 7417   7.618   2.717   1.368 -1.1753  1.6784  2.7069
  796MOL0     H 7418   7.455   2.830   1.517 -3.2529  0.5493  0.1403
  796MOL0     H 7419   7.398   2.926   1.381  1.3704  0.2234 -2.0284
  796MOL0     H 7420   7.329   3.036   1.542  0.7976 -2.2334  0.6475
  796MOL0     H 7421   7.258   3.253   1.643 -0.7687  1.1328 -0.5073
  796MOL0     H 7422   7.363   3.570   2.012  1.1914 -0.4653 -1.3990
  796MOL0     H 7423   7.320   3.810   2.101 -2.9049  1.3788 -1.6156
  796MOL0     H 7424   7.248   4.027   2.095 -0.8114  1.8707 -1.6664
  796MOL0     H 7425   7.365   3.978   2.223 -1.6276 -2.2859 -0.6603
  796MOL0     H 7426   7.266   4.188   2.272 -0.5448  0.9020  0.0986
  796MOL0     H 7427   7.441   4.198   2.249  1.0280 -0.6771 -0.2055
  796MOL0     H 7428   7.406   4.278   2.019 -0.9264  2.1156 -1.5281
  796MOL0     H 7429   7.228   4.276   2.036  0.2550  2.2731  0.2114
  796MOL0     H 7430   7.438   4.456   2.184  1.1845 -3.6463 -2.1700
  796MOL0     H 7431   7.261   4.491   2.185 -1.0724  0.9450 -1.2529
  796MOL0     H 7432   7.259   4.504   1.958 -1.1586 -0.8570 -0.9416
  796MOL0     H 7433   7.449   4.479   1.949  0.1560  0.4110  1.2758
  796MOL0     H 7434   7.485   4.698   2.054 -0.5372 -0.1174  3.4982
  796MOL0     H 7435   7.387   4.713   1.922  3.1645  2.9046  1.8640
  796MOL0     H 7436   7.257   4.731   2.195  1.1821 -1.8462 -1.1352
  796MOL0     H 7437   7.172   4.692   2.050  1.0310  0.2737 -1.7221
  796MOL0     H 7438   7.326   4.959   2.109  0.8503 -1.6316  2.3179
  796MOL0     H 7439   7.283   4.918   1.946  2.1815  2.3876  1.4390
  796MOL0     H 7440   7.596   3.967   1.842 -2.9702  1.8141 -1.2167
  796MOL0     H 7441   7.627   3.720   1.728  0.3934 -2.9959  0.5682
  796MOL0     H 7442   7.666   3.369   1.668 -1.6074  1.1345  0.9985
  796MOL0     H 7443   7.734   3.168   1.527 -0.2540  1.5966 -2.3846
  796MOL0     H 7444   7.475   2.060   1.880  2.2809  0.5654 -1.6159
  796MOL0     H 7445   7.526   1.899   2.056  0.0695 -0.8295 -0.0581
  796MOL0     H 7446   7.503   1.685   2.275 -1.2389 -0.6163 -3.4116
  796MOL0     H 7447   7.552   1.611   2.508  0.5647 -0.0485 -1.8321
  796MOL0     H 7448   7.421   1.488   2.820 -1.4220 -3.5154 -1.8535
  796MOL0     H 7449   7.481   1.613   2.707 -0.8940  0.7709  0.6216
  796MOL0     H 7450   7.682   1.480   2.667  0.3312  1.6066 -0.4239
  796MOL0     H 7451   7.638   1.372   2.794  3.0924  0.6286 -0.2098
  796MOL0     H 7452   7.656   1.543   2.954 -3.1955  1.9982  0.2052
  796MOL0     H 7453   7.662   1.680   2.854  1.4311  0.3471  0.6407
  796MOL0     H 7454   7.872   1.650   2.938 -2.6863 -1.1251  1.8201
  796MOL0     H 7455   7.904   1.494   2.885  0.6690  0.0500  0.7563
  796MOL0     H 7456   7.902   1.778   2.537  0.8955 -0.6344 -0.4864
  796MOL0     H 7457   7.224   1.333   2.476  0.5179  0.8325  2.0536
  796MOL0     H 7458   7.070   1.484   2.197  3.0527  0.0844 -2.5876
  796MOL0     H 7459   7.182   1.359   2.137  0.1266 -0.8020 -1.2746
  796MOL0     H 7460   7.095   1.333   2.284  4.6300 -2.5117  0.7409
  797MOL0     O 7461  10.294   3.613   0.846 -0.4157 -0.0858  0.3911
  797MOL0     C 7462  10.345   3.645   0.739 -0.1964  0.1352 -0.4943
  797MOL0     O 7463  10.283   3.629   0.610 -0.1381  0.0880 -0.8156
  797MOL0     C 7464  10.174   3.548   0.612 -0.0760 -1.1038 -0.2601
  797MOL0     C 7465  10.047   3.598   0.653 -0.1005  0.0082  0.9272
  797MOL0     C 7466   9.938   3.510   0.635 -0.0460  0.5758  0.5874
  797MOL0     C 7467   9.952   3.386   0.582 -0.8926  0.6507 -0.5221
  797MOL0     O 7468   9.859   3.296   0.564 -0.0141  0.9226 -0.0605
  797MOL0     C 7469   9.747   3.309   0.662 -0.5955  0.9692  0.2136
  797MOL0     C 7470   9.655   3.189   0.642 -0.6580 -0.4996  0.2393
  797MOL0     C 7471   9.720   3.050   0.630  0.3347  0.6815 -0.2564
  797MOL0     C 7472   9.609   2.947   0.630  0.2018 -0.5340  0.8413
  797MOL0     C 7473   9.645   2.827   0.707  0.2572  0.1876  0.1460
  797MOL0     C 7474   9.545   2.712   0.692  0.2109 -0.5407  0.3333
  797MOL0     C 7475   9.550   2.663   0.549 -1.0299 -0.5214  0.6416
  797MOL0     C 7476   9.498   2.525   0.523  0.5185 -0.0464  1.1591
  797MOL0     N 7477   9.362   2.512   0.575  0.3073  0.3568 -1.2948
  797MOL0     C 7478   9.248   2.591   0.554  0.0663  0.0937 -0.1933
  797MOL0     C 7479   9.156   2.545   0.643 -0.5789 -0.2677 -1.0404
  797MOL0     C 7480   9.033   2.624   0.678  0.3796 -0.0314  1.0464
  797MOL0     C 7481   8.911   2.551   0.723 -0.2512 -0.3059 -0.2323
  797MOL0     C 7482   8.879   2.419   0.649 -0.8530 -0.2017  0.2730
  797MOL0     C 7483   8.752   2.365   0.708 -1.3025 -0.0344  0.7507
  797MOL0     O 7484   8.645   2.450   0.684 -0.1122 -0.6319  0.2088
  797MOL0     C 7485   8.520   2.402   0.731 -0.7759 -0.4921  0.0843
  797MOL0     C 7486   8.491   2.311   0.836  0.1459  0.2815  0.4380
  797MOL0     C 7487   8.365   2.287   0.881  0.1432 -0.2649  0.3508
  797MOL0     C 7488   8.258   2.366   0.830 -0.5956  0.4610 -0.8441
  797MOL0     C 7489   8.126   2.359   0.893 -0.0674 -0.7252 -1.0948
  797MOL0     O 7490   8.033   2.443   0.837 -0.0943 -1.2376  0.1011
  797MOL0     C 7491   7.899   2.449   0.872 -0.0018  0.7152  0.4267
  797MOL0     C 7492   7.817   2.538   0.797  0.6125  0.7134 -0.3288
  797MOL0     C 7493   7.683   2.563   0.835 -0.9317 -0.1205  0.1420
  797MOL0     C 7494   7.624   2.488   0.936  0.6689 -0.1869 -0.0961
  797MOL0     O 7495   7.504   2.525   1.000  0.8093 -0.5268 -0.4454
  797MOL0     C 7496   7.399   2.580   0.930  0.6506  0.1032 -0.2509
  797MOL0     C 7497   7.312   2.488   0.842 -0.5161  0.0244 -0.3193
  797MOL0     C 7498   7.280   2.352   0.903  0.0624  0.0119  0.0192
  797MOL0     C 7499   7.288   2.230   0.810 -0.3597 -0.4697  0.4390
  797MOL0     C 7500   7.260   2.118   0.915  0.2806 -1.0364 -0.0480
  797MOL0     C 7501   7.117   2.093   0.943  0.2699 -0.5609  0.5794
  797MOL0     C 7502   7.104   2.006   1.063  0.1459  0.9940  0.2961
  797MOL0     C 7503   6.966   1.949   1.082  0.9094 -0.2854  0.0664
  797MOL0    Cl 7504   6.906   1.869   0.930 -0.5732  0.1332 -0.3412
  797MOL0     C 7505   7.697   2.392   0.993 -0.2735 -0.3589 -0.1000
  797MOL0     C 7506   7.828   2.366   0.963  0.7363  0.9511 -0.0161
  797MOL0     O 7507   8.099   2.272   0.978  0.2214 -0.4313  0.0873
  797MOL0     C 7508   8.286   2.458   0.727  0.5194 -0.4537  0.5337
  797MOL0     C 7509   8.413   2.465   0.672  0.1087 -0.0778  0.3530
  797MOL0     N 7510   9.218   2.447   0.717 -0.1439 -0.0004 -0.5102
  797MOL0     N 7511   9.338   2.428   0.672 -0.1473  0.3874 -0.5695
  797MOL0     C 7512  10.082   3.345   0.534 -0.6376  0.7517 -0.0540
  797MOL0     C 7513  10.191   3.433   0.545  1.2198  0.1627  0.2593
  797MOL0     C 7514  10.464   3.738   0.748  0.0716  0.2595 -0.9841
  797MOL0     C 7515  10.481   3.836   0.656 -0.3562 -0.1859 -0.6561
  797MOL0     C 7516  10.589   3.929   0.674  0.9391 -0.2020  0.3463
  797MOL0     C 7517  10.669   3.927   0.782 -0.0317  0.0912 -0.9989
  797MOL0     O 7518  10.751   4.025   0.825 -0.2178 -0.7006 -0.1942
  797MOL0     C 7519  10.789   4.137   0.745 -0.7211 -0.2007  0.1678
  797MOL0     C 7520  10.895   4.100   0.634 -0.0944 -0.1278 -1.3290
  797MOL0     C 7521  11.031   4.083   0.702  0.0503  0.4947 -0.1246
  797MOL0     C 7522  11.135   4.053   0.594 -0.0284  0.5383 -0.0371
  797MOL0     C 7523  11.176   4.168   0.522 -1.1788 -0.9492  0.0871
  797MOL0     C 7524  11.224   4.269   0.473 -0.2559  0.4960  0.5605
  797MOL0     C 7525  10.657   3.820   0.874 -0.2293 -0.4060  0.5850
  797MOL0     C 7526  10.565   3.717   0.851 -0.0431  0.0788 -0.1889
  797MOL0     C 7527  10.578   3.594   0.938 -1.0212  0.0127 -0.3627
  797MOL0     H 7528  10.042   3.699   0.694  3.3790  0.7544 -0.1734
  797MOL0     H 7529   9.842   3.538   0.678 -0.3849  1.7489 -0.8585
  797MOL0     H 7530   9.782   3.315   0.766 -1.1970  0.7951  0.4343
  797MOL0     H 7531   9.689   3.399   0.637 -0.4140  0.7717 -0.9406
  797MOL0     H 7532   9.593   3.207   0.554 -0.1377  0.8810  0.1340
  797MOL0     H 7533   9.593   3.188   0.733 -1.9764 -0.9040 -0.6424
  797MOL0     H 7534   9.789   3.035   0.713  0.3502  2.0990  0.0111
  797MOL0     H 7535   9.785   3.039   0.542 -0.0041 -1.3435 -0.2947
  797MOL0     H 7536   9.527   2.993   0.685  0.2265  1.6324 -0.7999
  797MOL0     H 7537   9.585   2.929   0.525  4.2593 -2.2204  0.0017
  797MOL0     H 7538   9.746   2.796   0.679 -0.3155 -0.7247 -1.0111
  797MOL0     H 7539   9.648   2.854   0.813  2.4861  0.2637  0.1278
  797MOL0     H 7540   9.580   2.628   0.753 -1.6349 -2.6715 -1.3855
  797MOL0     H 7541   9.443   2.730   0.728 -1.4679 -3.3197 -2.5885
  797MOL0     H 7542   9.656   2.660   0.526 -0.9608  1.9344  0.4115
  797MOL0     H 7543   9.504   2.735   0.480  2.6746  1.8364  0.3861
  797MOL0     H 7544   9.497   2.486   0.421  0.5863 -3.2132  2.2546
  797MOL0     H 7545   9.563   2.455   0.575  0.0852 -0.6978  0.8422
  797MOL0     H 7546   9.221   2.667   0.482 -1.5075 -0.5375 -0.3083
  797MOL0     H 7547   9.053   2.704   0.750  2.7883 -0.4173  0.8677
  797MOL0     H 7548   9.002   2.669   0.583 -1.6005  0.5728  1.9179
  797MOL0     H 7549   8.930   2.523   0.828  3.1273 -1.9273 -1.1051
  797MOL0     H 7550   8.827   2.619   0.710 -0.4048  0.0946  2.3805
  797MOL0     H 7551   8.966   2.353   0.654  0.2167  0.9634 -1.9455
  797MOL0     H 7552   8.863   2.441   0.543  1.2029  3.6302  0.5959
  797MOL0     H 7553   8.775   2.360   0.814 -2.7064 -1.4269  1.0272
  797MOL0     H 7554   8.731   2.260   0.682 -1.4379  0.3255 -0.6893
  797MOL0     H 7555   8.579   2.266   0.880 -0.2192 -0.6670  0.2275
  797MOL0     H 7556   8.349   2.217   0.962  0.2389 -0.9242 -0.1911
  797MOL0     H 7557   7.850   2.598   0.713 -1.4549  1.2737 -0.7919
  797MOL0     H 7558   7.630   2.644   0.785 -3.0705 -2.5248 -1.7252
  797MOL0     H 7559   7.326   2.628   0.996 -0.9435  1.2301 -2.6624
  797MOL0     H 7560   7.440   2.657   0.863  1.1623  0.6315  0.6562
  797MOL0     H 7561   7.218   2.540   0.821 -0.6822  0.4989  1.4070
  797MOL0     H 7562   7.368   2.464   0.751 -0.3445 -3.0294  0.4935
  797MOL0     H 7563   7.346   2.337   0.988  3.3742 -0.9489 -2.5292
  797MOL0     H 7564   7.181   2.358   0.950 -0.1656  2.7036 -0.6319
  797MOL0     H 7565   7.382   2.234   0.755 -1.1847  2.6575 -0.9774
  797MOL0     H 7566   7.202   2.236   0.742 -0.4433 -0.1769  0.5689
  797MOL0     H 7567   7.313   2.141   1.008  0.8162  3.5727 -1.2735
  797MOL0     H 7568   7.317   2.030   0.885  1.8533 -0.8561  2.1525
  797MOL0     H 7569   7.071   2.189   0.969  1.1618  0.4787 -1.4752
  797MOL0     H 7570   7.067   2.053   0.855 -1.3817 -2.5593  2.3092
  797MOL0     H 7571   7.120   2.058   1.158 -0.1762 -2.0890  2.2134
  797MOL0     H 7572   7.179   1.926   1.054  0.0874  0.9224  0.4395
  797MOL0     H 7573   6.965   1.884   1.170 -0.0074  0.0610  0.3274
  797MOL0     H 7574   6.907   2.040   1.095  1.0679 -0.4061  1.7572
  797MOL0     H 7575   7.665   2.343   1.084  1.9613  0.2995  1.1141
  797MOL0     H 7576   7.881   2.299   1.030 -1.1234  1.8821  2.5584
  797MOL0     H 7577   8.210   2.528   0.696  0.2191 -0.2553  1.6789
  797MOL0     H 7578   8.427   2.544   0.600  1.5040  0.2792  0.9796
  797MOL0     H 7579  10.102   3.258   0.473  0.5542  1.8383 -1.2736
  797MOL0     H 7580  10.282   3.397   0.499 -0.1966 -1.8262 -1.1665
  797MOL0     H 7581  10.416   3.846   0.570 -0.9740  0.1339 -0.1589
  797MOL0     H 7582  10.600   4.020   0.617  0.0713 -0.5412 -0.3738
  797MOL0     H 7583  10.834   4.213   0.810 -2.3439  1.9836 -1.1266
  797MOL0     H 7584  10.699   4.182   0.703 -0.9273 -1.9078 -1.3361
  797MOL0     H 7585  10.899   4.172   0.552 -3.6361 -0.6542 -2.1269
  797MOL0     H 7586  10.855   4.006   0.593  0.3028 -1.2531  0.7120
  797MOL0     H 7587  11.031   4.002   0.775  1.1128  1.6350  1.2083
  797MOL0     H 7588  11.059   4.172   0.760  1.1367  0.0409  0.0716
  797MOL0     H 7589  11.223   4.009   0.642 -0.4335 -0.7931 -0.4674
  797MOL0     H 7590  11.096   3.978   0.524 -0.4582 -0.9270  1.7193
  797MOL0     H 7591  11.255   4.364   0.434 -0.4243  0.4744  0.3771
  797MOL0     H 7592  10.725   3.808   0.958  0.9457  1.8774  0.0261
  797MOL0     H 7593  10.683   3.587   0.966 -0.2017 -0.2962 -3.2293
  797MOL0     H 7594  10.509   3.618   1.019  4.0862  1.8625  4.0233
  797MOL0     H 7595  10.569   3.499   0.884  2.4094 -1.0922  0.7653
  798MOL0     O 7596   9.933   5.139   6.879  0.2544  0.2161 -0.1013
  798MOL0     C 7597   9.898   5.126   6.762  0.1469  0.1712 -0.6748
  798MOL0     O 7598   9.769   5.119   6.716 -0.3767  0.2663 -0.0426
  798MOL0     C 7599   9.656   5.133   6.794  0.5705  1.7250  0.5181
  798MOL0     C 7600   9.647   5.203   6.914 -0.2216  0.2808  0.2886
  798MOL0     C 7601   9.526   5.248   6.965  0.2377 -0.4727  0.8721
  798MOL0     C 7602   9.403   5.223   6.909  0.3927 -0.4402  0.4525
  798MOL0     O 7603   9.282   5.264   6.948 -0.4466 -0.1595  0.1508
  798MOL0     C 7604   9.276   5.362   7.049  0.2056 -0.7468 -0.4180
  798MOL0     C 7605   9.138   5.397   7.101 -0.8003 -0.0491 -0.4214
  798MOL0     C 7606   9.038   5.413   6.993 -0.5834  0.3813  0.2162
  798MOL0     C 7607   8.907   5.437   7.071  0.6371 -0.8723 -0.7766
  798MOL0     C 7608   8.768   5.452   6.995  0.1289  0.8738 -0.3614
  798MOL0     C 7609   8.726   5.347   6.892  0.9812 -0.3569  0.0991
  798MOL0     C 7610   8.715   5.204   6.946  0.1253 -0.3544  0.1029
  798MOL0     C 7611   8.603   5.197   7.047 -0.9216 -0.4327 -0.5410
  798MOL0     N 7612   8.568   5.065   7.104  0.3291 -0.3325  0.2889
  798MOL0     C 7613   8.665   4.987   7.172  0.8381  0.1552 -0.4096
  798MOL0     C 7614   8.587   4.877   7.212  0.3307  0.1023  0.2076
  798MOL0     C 7615   8.642   4.755   7.300 -0.7190  0.2695  0.3991
  798MOL0     C 7616   8.630   4.788   7.444 -0.5919  0.7880  0.4270
  798MOL0     C 7617   8.682   4.663   7.518 -0.6550  0.4626 -0.5927
  798MOL0     C 7618   8.694   4.690   7.674 -0.4623  1.6766 -0.7117
  798MOL0     O 7619   8.690   4.560   7.742 -0.0188 -0.0306 -0.4449
  798MOL0     C 7620   8.813   4.531   7.804 -0.5358  0.2459  0.3001
  798MOL0     C 7621   8.884   4.622   7.899  0.3865  0.3244 -0.3239
  798MOL0     C 7622   9.008   4.578   7.951  0.2944 -0.5858 -1.5964
  798MOL0     C 7623   9.056   4.457   7.919 -0.4936 -0.6613 -0.5696
  798MOL0     C 7624   9.178   4.415   8.000  0.6796 -0.1506  1.2443
  798MOL0     O 7625   9.196   4.282   7.977  0.7061  0.4730  0.6581
  798MOL0     C 7626   9.282   4.193   8.038  0.8307 -0.4422  0.0689
  798MOL0     C 7627   9.342   4.098   7.951 -0.4039 -0.4971  1.2605
  798MOL0     C 7628   9.436   4.006   8.002  0.5463  0.0716 -0.1213
  798MOL0     C 7629   9.467   3.999   8.141  0.2918 -0.7537  0.8433
  798MOL0     O 7630   9.552   3.914   8.202  0.0201  0.3283  0.2324
  798MOL0     C 7631   9.549   3.780   8.152 -0.5442  0.8912 -0.1242
  798MOL0     C 7632   9.661   3.701   8.227  0.4330  0.6250 -0.4423
  798MOL0     C 7633   9.643   3.556   8.182 -0.0561  0.2685 -1.0380
  798MOL0     C 7634   9.752   3.518   8.079  0.9918 -1.1102  0.3424
  798MOL0     C 7635   9.737   3.395   8.000 -0.3152  0.0312  0.1409
  798MOL0     C 7636   9.871   3.358   7.929  0.0605  0.2701 -0.9083
  798MOL0     C 7637   9.840   3.245   7.837 -0.4368 -0.1454 -0.6313
  798MOL0     C 7638   9.940   3.226   7.724 -0.2903  0.8004 -0.0999
  798MOL0    Cl 7639  10.105   3.261   7.771 -0.2206 -0.4250  0.3234
  798MOL0     C 7640   9.407   4.099   8.220  0.3210 -0.2864  0.7011
  798MOL0     C 7641   9.323   4.195   8.170 -0.1189 -0.0465 -0.3207
  798MOL0     O 7642   9.231   4.489   8.087 -0.4625  0.5762  0.2612
  798MOL0     C 7643   8.993   4.374   7.830 -0.6448  0.2840 -0.4646
  798MOL0     C 7644   8.878   4.419   7.760 -0.5017 -0.9256  0.3541
  798MOL0     N 7645   8.458   4.876   7.163  0.4676  0.5828 -0.4491
  798MOL0     N 7646   8.445   4.994   7.113  0.7912 -0.4830  0.0886
  798MOL0     C 7647   9.408   5.144   6.792 -0.1705 -0.5951  0.1882
  798MOL0     C 7648   9.528   5.092   6.744 -0.1853  0.6426  0.4511
  798MOL0     C 7649  10.018   5.119   6.666 -0.2789 -0.8499  0.0299
  798MOL0     C 7650   9.997   5.205   6.550 -0.1520  0.1401 -0.6627
  798MOL0     C 7651  10.102   5.234   6.472 -0.0271  1.0477  0.5904
  798MOL0     C 7652  10.233   5.170   6.488 -0.5073  0.0933  0.5116
  798MOL0     O 7653  10.341   5.193   6.398 -1.0475  0.2302  0.0274
  798MOL0     C 7654  10.339   5.304   6.313  0.1670 -0.4318 -0.9331
  798MOL0     C 7655  10.461   5.322   6.222  0.9820  0.3015  0.1603
  798MOL0     C 7656  10.437   5.246   6.090 -0.0379  0.0550 -0.4331
  798MOL0     C 7657  10.561   5.263   6.003 -0.8978  0.8191  1.1421
  798MOL0     C 7658  10.541   5.237   5.860  0.4937 -0.6686 -0.4717
  798MOL0     C 7659  10.522   5.195   5.755  0.6174  0.9837  0.0097
  798MOL0     C 7660  10.255   5.093   6.596  0.8018  1.1102 -0.6195
  798MOL0     C 7661  10.154   5.072   6.695 -0.6204 -1.4959 -0.4456
  798MOL0     C 7662  10.187   4.985   6.809  0.0029  0.4541  0.8809
  798MOL0     H 7663   9.736   5.230   6.969  1.1497  0.0986 -1.7329
  798MOL0     H 7664   9.539   5.319   7.047  0.7498 -0.4884  0.8101
  798MOL0     H 7665   9.338   5.338   7.136  0.4300 -0.0254 -0.3782
  798MOL0     H 7666   9.316   5.454   7.006 -0.3021  0.2619  1.2072
  798MOL0     H 7667   9.150   5.485   7.166  0.8591 -0.9231  0.5289
  798MOL0     H 7668   9.114   5.309   7.160  0.6228  1.1474  2.1487
  798MOL0     H 7669   9.041   5.318   6.939  1.8969  0.7874 -0.4879
  798MOL0     H 7670   9.081   5.487   6.925  2.8875 -1.2791  0.3813
  798MOL0     H 7671   8.900   5.357   7.145  1.5505 -0.0764  0.2007
  798MOL0     H 7672   8.929   5.535   7.113  1.6118 -1.1350 -0.6376
  798MOL0     H 7673   8.681   5.470   7.059 -0.9179  3.9983 -2.4316
  798MOL0     H 7674   8.762   5.553   6.953 -0.1246  1.3318  0.7410
  798MOL0     H 7675   8.629   5.382   6.856  1.1935  0.9035  0.7163
  798MOL0     H 7676   8.801   5.351   6.812  1.7387 -4.1903  0.4007
  798MOL0     H 7677   8.814   5.191   6.993  0.1356  2.3471  0.9861
  798MOL0     H 7678   8.697   5.129   6.868  4.5487 -1.4122 -0.2083
  798MOL0     H 7679   8.636   5.265   7.127 -0.8697 -0.0223 -0.9055
  798MOL0     H 7680   8.516   5.248   7.003  0.1616  1.8065 -0.2263
  798MOL0     H 7681   8.767   5.000   7.204  0.1261 -2.3185  3.4706
  798MOL0     H 7682   8.580   4.668   7.279 -1.0870  0.8216 -0.9384
  798MOL0     H 7683   8.741   4.724   7.267 -1.7532 -2.2946 -0.5413
  798MOL0     H 7684   8.688   4.876   7.474  0.6390 -0.8273  3.3038
  798MOL0     H 7685   8.527   4.811   7.471 -0.5808 -0.1088  1.3071
  798MOL0     H 7686   8.776   4.622   7.479 -1.1656 -0.4606 -0.8959
  798MOL0     H 7687   8.612   4.580   7.505  0.4869 -0.3663 -1.7301
  798MOL0     H 7688   8.620   4.762   7.710 -0.9141  0.8100  0.1381
  798MOL0     H 7689   8.789   4.739   7.700  0.2635 -0.8720  2.0594
  798MOL0     H 7690   8.843   4.721   7.922  3.5887  1.6968 -0.0034
  798MOL0     H 7691   9.065   4.645   8.014 -0.0447  0.0914 -2.0006
  798MOL0     H 7692   9.313   4.106   7.847 -0.6801 -0.3008  1.3506
  798MOL0     H 7693   9.489   3.946   7.929  0.7432  1.0330 -0.7883
  798MOL0     H 7694   9.451   3.736   8.176 -0.1096  0.0086  0.0593
  798MOL0     H 7695   9.569   3.774   8.044  3.1143 -3.2285  0.5021
  798MOL0     H 7696   9.765   3.734   8.223  1.5863 -1.9237  3.3822
  798MOL0     H 7697   9.644   3.699   8.335  0.3839 -1.5590 -0.4360
  798MOL0     H 7698   9.651   3.487   8.266  0.6310 -0.5920 -1.7930
  798MOL0     H 7699   9.540   3.537   8.148  0.1344 -3.0429 -0.0919
  798MOL0     H 7700   9.846   3.504   8.133  2.3791  1.8989 -1.0489
  798MOL0     H 7701   9.775   3.601   8.011  0.4482 -2.3644 -1.4475
  798MOL0     H 7702   9.657   3.429   7.933 -0.7608  1.2200  1.2482
  798MOL0     H 7703   9.700   3.317   8.067 -3.0237 -0.8282 -2.1280
  798MOL0     H 7704   9.925   3.443   7.886 -0.8512  1.3823  0.0730
  798MOL0     H 7705   9.943   3.327   8.006  0.4467  0.5228 -1.1615
  798MOL0     H 7706   9.737   3.250   7.800 -1.3973  0.4859  1.9402
  798MOL0     H 7707   9.845   3.150   7.891 -0.5700 -1.3377 -2.6048
  798MOL0     H 7708   9.950   3.127   7.678  0.2880  0.4516  0.7407
  798MOL0     H 7709   9.924   3.301   7.647  0.1514  0.2422 -0.7540
  798MOL0     H 7710   9.437   4.116   8.323 -0.2893  1.8789  0.5745
  798MOL0     H 7711   9.287   4.276   8.232  1.1833  2.3426 -2.5064
  798MOL0     H 7712   9.044   4.284   7.797 -1.2465  0.0281 -0.7092
  798MOL0     H 7713   8.830   4.358   7.684 -1.6682 -1.4339  1.4768
  798MOL0     H 7714   9.307   5.127   6.756 -0.9079  3.6083 -0.3212
  798MOL0     H 7715   9.520   5.030   6.655  0.2252 -0.1156  0.9305
  798MOL0     H 7716   9.899   5.247   6.530 -0.8704  0.1473  2.4131
  798MOL0     H 7717  10.099   5.302   6.387  0.0940  1.0622  0.5986
  798MOL0     H 7718  10.335   5.393   6.376 -1.3572 -2.9886  3.0159
  798MOL0     H 7719  10.250   5.291   6.250 -1.6966  0.6011  1.3302
  798MOL0     H 7720  10.550   5.278   6.268  2.6551  0.4213 -2.7211
  798MOL0     H 7721  10.476   5.427   6.196 -2.2414 -0.0315 -3.8836
  798MOL0     H 7722  10.352   5.282   6.031 -3.1591 -3.0066  1.7872
  798MOL0     H 7723  10.407   5.143   6.111 -2.0108  1.0721  2.3170
  798MOL0     H 7724  10.583   5.370   6.002  0.1212  0.6176  0.5160
  798MOL0     H 7725  10.644   5.203   6.043 -1.6792  0.4650  2.2895
  798MOL0     H 7726  10.506   5.155   5.657  0.7273 -0.0029  0.3907
  798MOL0     H 7727  10.351   5.048   6.616  0.3333  0.4546  0.2559
  798MOL0     H 7728  10.097   4.924   6.820 -1.5240  1.9499 -2.0467
  798MOL0     H 7729  10.279   4.927   6.795 -1.5878 -2.2656  0.8086
  798MOL0     H 7730  10.209   5.049   6.894 -4.4250 -1.2097  3.6218
  799MOL0     O 7731   9.854   1.628   5.517  0.8948  0.7433  0.6297
  799MOL0     C 7732   9.918   1.702   5.587 -0.2684 -1.0969 -0.5070
  799MOL0     O 7733   9.942   1.666   5.717  0.7181 -0.0998  0.3028
  799MOL0     C 7734  10.076   1.654   5.760 -0.2239 -0.4180 -1.1198
  799MOL0     C 7735  10.100   1.679   5.896 -1.2074 -0.3929  0.6289
  799MOL0     C 7736  10.231   1.683   5.949  0.4578 -0.1696  0.2430
  799MOL0     C 7737  10.337   1.642   5.862  0.0087  0.5614  1.1435
  799MOL0     O 7738  10.474   1.627   5.900  0.5436 -0.3089 -0.4657
  799MOL0     C 7739  10.521   1.716   6.010  0.2944  0.6343  1.6881
  799MOL0     C 7740  10.503   1.639   6.145  0.0469  0.0006  0.0214
  799MOL0     C 7741  10.607   1.677   6.244 -0.4941  0.6253 -1.0257
  799MOL0     C 7742  10.555   1.796   6.341  0.2708  0.1943  0.7383
  799MOL0     C 7743  10.668   1.893   6.395 -0.4704 -0.4185  0.4091
  799MOL0     C 7744  10.607   2.022   6.463 -0.3639 -0.3059  0.7191
  799MOL0     C 7745  10.487   2.002   6.548 -0.0719  0.4913  0.3741
  799MOL0     C 7746  10.515   1.919   6.682 -0.3576  0.5307  0.7365
  799MOL0     N 7747  10.385   1.873   6.734 -0.5486  0.5808  0.7664
  799MOL0     C 7748  10.301   1.780   6.681  0.4603  0.3403  0.3436
  799MOL0     C 7749  10.199   1.771   6.770  0.6069  1.1238 -0.4883
  799MOL0     C 7750  10.074   1.678   6.768 -0.8474 -0.9292  0.6188
  799MOL0     C 7751   9.944   1.762   6.742 -0.2545  0.5778  0.3489
  799MOL0     C 7752   9.943   1.808   6.601 -0.0450  0.0058 -0.1895
  799MOL0     C 7753   9.808   1.860   6.556  0.2932  0.2278  0.2930
  799MOL0     O 7754   9.776   1.978   6.628 -0.5490 -0.4576  0.3630
  799MOL0     C 7755   9.675   2.061   6.579  0.1619  0.7335  0.1176
  799MOL0     C 7756   9.591   2.025   6.469 -0.4365 -0.7427 -0.7038
  799MOL0     C 7757   9.524   2.121   6.403  0.6857 -0.1507 -0.1018
  799MOL0     C 7758   9.528   2.258   6.436  0.1269 -0.2495 -1.7478
  799MOL0     C 7759   9.440   2.353   6.355  0.6529 -0.2978  0.2852
  799MOL0     O 7760   9.361   2.314   6.263  0.1661  1.3268  0.3840
  799MOL0     C 7761   9.311   2.398   6.162 -0.2374  1.4524 -0.0489
  799MOL0     C 7762   9.378   2.498   6.092  0.2908 -0.1127 -0.9183
  799MOL0     C 7763   9.324   2.551   5.977 -0.4103 -0.4530  0.0177
  799MOL0     C 7764   9.192   2.513   5.938 -1.0790 -1.5283 -0.0568
  799MOL0     O 7765   9.125   2.555   5.827 -0.6962  0.1773 -0.1500
  799MOL0     C 7766   9.192   2.647   5.743  0.9729 -0.0798 -0.2661
  799MOL0     C 7767   9.110   2.684   5.612 -0.2504  0.3905 -0.4043
  799MOL0     C 7768   8.980   2.744   5.643  0.1456 -0.2482  0.2788
  799MOL0     C 7769   8.996   2.890   5.673 -0.6555 -0.2678 -0.3958
  799MOL0     C 7770   8.861   2.947   5.716  0.4772 -0.4526 -0.3336
  799MOL0     C 7771   8.879   3.077   5.788  0.1593  0.9242 -0.1154
  799MOL0     C 7772   8.742   3.138   5.834 -0.6264  0.0946 -0.9996
  799MOL0     C 7773   8.668   3.189   5.709 -0.1144 -0.2302 -0.3356
  799MOL0    Cl 7774   8.536   3.288   5.776 -0.5302  0.1575  0.8832
  799MOL0     C 7775   9.130   2.412   6.006 -0.9751  0.1347 -0.3080
  799MOL0     C 7776   9.185   2.359   6.122  0.2298 -0.0802  0.3628
  799MOL0     O 7777   9.479   2.469   6.367  0.4666  0.2530  0.3121
  799MOL0     C 7778   9.622   2.294   6.536 -0.1517 -0.2642 -0.0813
  799MOL0     C 7779   9.685   2.195   6.623  0.7361  0.5498  0.5162
  799MOL0     N 7780  10.233   1.854   6.879 -0.7012  0.1372  0.5741
  799MOL0     N 7781  10.347   1.918   6.855 -0.7220  0.1517 -0.7666
  799MOL0     C 7782  10.308   1.617   5.726  0.3419  0.2929 -0.0743
  799MOL0     C 7783  10.177   1.619   5.676  0.8421 -0.4887  0.4039
  799MOL0     C 7784   9.971   1.836   5.545  0.5907 -0.6655  0.0028
  799MOL0     C 7785   9.989   1.944   5.637  0.5226 -0.8174  0.0375
  799MOL0     C 7786  10.033   2.077   5.598 -0.0781  0.2978  0.2733
  799MOL0     C 7787  10.066   2.093   5.468  0.2773  0.1621  0.6159
  799MOL0     O 7788  10.117   2.215   5.433 -0.0417 -0.4735  0.4794
  799MOL0     C 7789  10.193   2.225   5.303  0.0356 -0.1492  0.5154
  799MOL0     C 7790  10.278   2.353   5.283  0.8247 -1.2894  0.0571
  799MOL0     C 7791  10.208   2.490   5.279 -0.3785  0.6024 -0.7549
  799MOL0     C 7792  10.307   2.602   5.249 -0.1449  0.0801  0.1201
  799MOL0     C 7793  10.231   2.720   5.210 -0.9258  0.4580  0.3732
  799MOL0     C 7794  10.171   2.818   5.173 -0.2684 -0.6232 -0.8952
  799MOL0     C 7795  10.042   1.996   5.369  0.1275  0.2546 -0.6538
  799MOL0     C 7796   9.991   1.871   5.410  0.1376 -0.3003 -0.3337
  799MOL0     C 7797   9.962   1.786   5.293 -0.7710  0.0139  0.7264
  799MOL0     H 7798  10.015   1.715   5.954 -2.4657 -0.5467 -1.0395
  799MOL0     H 7799  10.259   1.714   6.049  2.8620  0.4426 -0.5565
  799MOL0     H 7800  10.628   1.728   5.987 -0.0056 -1.5804 -1.5091
  799MOL0     H 7801  10.481   1.818   6.016  0.1045  0.4889  3.7788
  799MOL0     H 7802  10.511   1.532   6.125 -0.1014  0.1237 -0.7303
  799MOL0     H 7803  10.403   1.652   6.187 -0.0014  1.6406 -0.5156
  799MOL0     H 7804  10.707   1.703   6.208 -0.4623 -0.3949 -1.7015
  799MOL0     H 7805  10.628   1.581   6.292  1.8829  0.5049 -2.1835
  799MOL0     H 7806  10.489   1.860   6.282 -1.0090 -1.5383  0.2104
  799MOL0     H 7807  10.500   1.762   6.430 -1.0611 -0.0856 -0.1712
  799MOL0     H 7808  10.730   1.836   6.464  1.3769 -2.0842 -2.3996
  799MOL0     H 7809  10.729   1.934   6.313 -2.5350  0.7678 -0.5972
  799MOL0     H 7810  10.677   2.068   6.533 -3.1864  0.1582  3.4675
  799MOL0     H 7811  10.577   2.096   6.388  1.4025  1.3634  1.5867
  799MOL0     H 7812  10.403   1.958   6.494 -0.5852  2.1399 -0.2239
  799MOL0     H 7813  10.446   2.100   6.575 -0.6225  1.5379 -3.6265
  799MOL0     H 7814  10.573   1.830   6.657 -0.9139 -0.1022  1.6290
  799MOL0     H 7815  10.571   1.984   6.750  2.6518 -0.7706 -0.3338
  799MOL0     H 7816  10.312   1.732   6.584  0.2936  0.5292  0.2296
  799MOL0     H 7817  10.100   1.618   6.681 -3.3120  1.4142 -1.9307
  799MOL0     H 7818  10.077   1.619   6.860  0.8456  0.1485  1.3068
  799MOL0     H 7819   9.860   1.700   6.773 -0.2633  0.7806  0.7412
  799MOL0     H 7820   9.948   1.844   6.815  0.3777  1.1374 -0.2960
  799MOL0     H 7821   9.977   1.724   6.540 -0.0935 -0.8236  0.9042
  799MOL0     H 7822  10.020   1.886   6.595  0.8797 -0.8227  0.4640
  799MOL0     H 7823   9.730   1.785   6.572 -1.9961  2.4967  0.4618
  799MOL0     H 7824   9.815   1.871   6.448  1.5990 -0.4861  0.2820
  799MOL0     H 7825   9.592   1.921   6.436 -3.7936 -1.1544  0.1773
  799MOL0     H 7826   9.461   2.087   6.321  2.2932  0.4401 -1.6615
  799MOL0     H 7827   9.478   2.524   6.127  2.0051 -2.3115 -3.6571
  799MOL0     H 7828   9.381   2.618   5.913 -0.2768 -0.9139 -0.3459
  799MOL0     H 7829   9.221   2.736   5.800  1.2670  1.1734 -2.2575
  799MOL0     H 7830   9.283   2.603   5.701 -0.2801 -1.3057 -1.8173
  799MOL0     H 7831   9.164   2.756   5.549 -0.0639  0.3317 -0.3121
  799MOL0     H 7832   9.084   2.592   5.559 -2.0852 -0.5459  1.9649
  799MOL0     H 7833   8.923   2.737   5.550  0.7551 -0.3551 -0.0947
  799MOL0     H 7834   8.928   2.683   5.717  2.1061 -1.2291  0.9161
  799MOL0     H 7835   9.038   2.950   5.592  1.1708 -0.0935  0.6211
  799MOL0     H 7836   9.065   2.891   5.758 -2.8063 -1.9791  1.5129
  799MOL0     H 7837   8.813   2.878   5.786  1.9892 -0.6117  0.6152
  799MOL0     H 7838   8.801   2.959   5.626 -0.2830  2.4618  0.4507
  799MOL0     H 7839   8.931   3.044   5.879 -0.0022  0.9501 -0.0133
  799MOL0     H 7840   8.933   3.153   5.732  1.8561 -0.0803  0.0708
  799MOL0     H 7841   8.765   3.227   5.894  3.3752 -1.2486 -0.2653
  799MOL0     H 7842   8.689   3.066   5.897  1.8367 -0.1780  0.9527
  799MOL0     H 7843   8.734   3.251   5.647  1.3134  0.1142  1.4142
  799MOL0     H 7844   8.628   3.109   5.647  1.1884 -0.0935 -1.4002
  799MOL0     H 7845   9.038   2.370   5.968 -0.6086 -0.8803 -0.1121
  799MOL0     H 7846   9.142   2.271   6.169  0.5647 -1.0884 -1.1520
  799MOL0     H 7847   9.640   2.398   6.561 -1.0738 -0.3846  1.1831
  799MOL0     H 7848   9.761   2.215   6.697  2.7063 -0.3427 -1.1818
  799MOL0     H 7849  10.390   1.587   5.662  0.1882 -4.0927  1.4572
  799MOL0     H 7850  10.159   1.569   5.581  1.2537  1.4228 -0.7410
  799MOL0     H 7851   9.983   1.931   5.744  3.1479 -3.2419 -0.0069
  799MOL0     H 7852  10.048   2.155   5.671  0.6733  1.0630 -0.6639
  799MOL0     H 7853  10.120   2.217   5.221 -1.1075 -2.8312  1.6723
  799MOL0     H 7854  10.254   2.135   5.309  0.6562  0.2286 -0.0017
  799MOL0     H 7855  10.335   2.342   5.190  1.0103 -1.8062  0.2258
  799MOL0     H 7856  10.346   2.376   5.366 -1.7838  0.6130  1.8072
  799MOL0     H 7857  10.170   2.486   5.381  1.3074  0.0730 -0.1269
  799MOL0     H 7858  10.126   2.492   5.207 -0.6490 -1.2613 -0.5423
  799MOL0     H 7859  10.370   2.626   5.335 -0.9006 -0.2956  0.7948
  799MOL0     H 7860  10.360   2.567   5.160 -1.6899 -2.3704  0.0408
  799MOL0     H 7861  10.117   2.901   5.131  1.6123  0.3470 -1.5319
  799MOL0     H 7862  10.071   2.011   5.265  0.4274 -1.0971 -0.7833
  799MOL0     H 7863  10.026   1.804   5.206  0.3678  0.4403  1.6192
  799MOL0     H 7864   9.966   1.677   5.306 -0.8079 -0.0694  0.0700
  799MOL0     H 7865   9.858   1.801   5.265 -1.2558  1.4532  3.0472
  800MOL0     O 7866   7.790   1.000   9.306 -0.4520  0.3594 -0.7120
  800MOL0     C 7867   7.791   0.906   9.387 -0.4710 -0.1273 -0.1967
  800MOL0     O 7868   7.807   0.916   9.528  0.8799  0.5009 -0.0258
  800MOL0     C 7869   7.834   1.039   9.574  0.9208  0.5114 -1.1954
  800MOL0     C 7870   7.955   1.102   9.536 -0.8090 -0.3487  0.4045
  800MOL0     C 7871   7.997   1.223   9.591 -0.0347 -0.2871 -0.6351
  800MOL0     C 7872   7.902   1.291   9.677  0.6959  0.8061 -0.0876
  800MOL0     O 7873   7.955   1.410   9.717 -0.1555 -0.1137  0.0414
  800MOL0     C 7874   7.963   1.431   9.859  0.6655  0.9074  0.6344
  800MOL0     C 7875   8.031   1.552   9.913  0.0571 -0.3622  0.3171
  800MOL0     C 7876   8.174   1.546   9.856  0.7261 -0.5522 -0.4263
  800MOL0     C 7877   8.255   1.669   9.892 -0.6118 -0.9882  0.2785
  800MOL0     C 7878   8.318   1.645  10.022  0.3991  0.3217 -0.3142
  800MOL0     C 7879   8.302   1.748  10.127 -0.9574 -0.3162  0.6373
  800MOL0     C 7880   8.377   1.888  10.097  0.4398  1.0586 -0.2087
  800MOL0     C 7881   8.525   1.898  10.137  0.2077 -0.1099  0.1624
  800MOL0     N 7882   8.602   1.800  10.060 -0.4496 -0.0727 -0.8994
  800MOL0     C 7883   8.609   1.781   9.920  0.4412 -0.7698 -1.2399
  800MOL0     C 7884   8.722   1.709   9.902  0.5394  0.2892 -0.1732
  800MOL0     C 7885   8.786   1.667   9.776 -0.7849 -0.0447  0.1255
  800MOL0     C 7886   8.833   1.518   9.765 -0.1983  0.3829  0.7810
  800MOL0     C 7887   8.863   1.478   9.618  0.0510 -0.3256 -0.8740
  800MOL0     C 7888   8.957   1.577   9.536  0.1715 -0.2057  0.6867
  800MOL0     O 7889   9.028   1.503   9.433 -0.0578  0.2532 -0.6830
  800MOL0     C 7890   9.055   1.549   9.311 -0.5048 -0.3406  0.3437
  800MOL0     C 7891   9.023   1.676   9.266  0.6210 -0.2420 -0.3659
  800MOL0     C 7892   9.034   1.717   9.131 -0.0460  0.3584 -0.4534
  800MOL0     C 7893   9.100   1.624   9.039  0.3466  0.3662  0.1598
  800MOL0     C 7894   9.140   1.675   8.895  0.0940  0.9374  0.4567
  800MOL0     O 7895   9.236   1.598   8.825 -0.7484  0.6498 -0.3784
  800MOL0     C 7896   9.287   1.628   8.701 -0.8018 -0.3083 -0.0975
  800MOL0     C 7897   9.371   1.528   8.667 -0.4374 -0.5815  1.3114
  800MOL0     C 7898   9.438   1.539   8.541  0.2002  0.3273 -0.0849
  800MOL0     C 7899   9.398   1.639   8.451 -1.1423 -0.1091  0.5928
  800MOL0     O 7900   9.456   1.649   8.329  0.5947  0.1136 -0.6443
  800MOL0     C 7901   9.519   1.524   8.268  0.4732 -0.5434 -0.5024
  800MOL0     C 7902   9.589   1.552   8.136  0.0238 -0.3442 -0.0957
  800MOL0     C 7903   9.592   1.419   8.039 -0.1940 -0.2538 -0.1200
  800MOL0     C 7904   9.702   1.336   8.092 -0.0611  0.1837 -0.5709
  800MOL0     C 7905   9.656   1.203   8.164 -0.2181  0.1022  1.0930
  800MOL0     C 7906   9.777   1.113   8.182  0.4659 -0.4007 -0.3881
  800MOL0     C 7907   9.862   1.146   8.308 -1.2041  0.5842  1.3363
  800MOL0     C 7908   9.793   1.139   8.441  0.3298 -0.2216 -0.6925
  800MOL0    Cl 7909   9.687   1.004   8.463  0.0835 -0.4133  0.2752
  800MOL0     C 7910   9.330   1.747   8.504  0.2595 -0.3444  0.6313
  800MOL0     C 7911   9.278   1.742   8.632 -0.1661 -0.1842  0.2908
  800MOL0     O 7912   9.087   1.776   8.846 -0.4016 -0.5532  0.5755
  800MOL0     C 7913   9.136   1.499   9.085 -0.6867 -0.4552 -0.4785
  800MOL0     C 7914   9.106   1.461   9.220  0.1963 -0.2345 -0.8003
  800MOL0     N 7915   8.770   1.662  10.028  0.1225  0.5312  0.4531
  800MOL0     N 7916   8.700   1.723  10.123 -0.6574 -0.8408  0.5846
  800MOL0     C 7917   7.779   1.236   9.712 -0.0361  0.7650 -0.1806
  800MOL0     C 7918   7.751   1.101   9.675 -0.4870  0.1253 -0.6797
  800MOL0     C 7919   7.787   0.762   9.341 -0.5476  0.0916  0.2058
  800MOL0     C 7920   7.763   0.658   9.436  0.0451 -0.5219 -0.0281
  800MOL0     C 7921   7.744   0.519   9.407  0.0420 -0.1906 -0.9829
  800MOL0     C 7922   7.723   0.487   9.272  1.3628  0.0634 -0.1926
  800MOL0     O 7923   7.715   0.356   9.233  0.1714  0.5370  0.0201
  800MOL0     C 7924   7.832   0.292   9.194 -1.0293 -0.6557 -0.2528
  800MOL0     C 7925   7.792   0.207   9.070 -0.6655  0.8661 -0.2805
  800MOL0     C 7926   7.776   0.297   8.944 -0.2934  0.1457 -0.8223
  800MOL0     C 7927   7.742   0.207   8.822 -0.8202 -0.2369  0.7266
  800MOL0     C 7928   7.866   0.139   8.763  1.2187  0.2429  0.4376
  800MOL0     C 7929   7.978   0.124   8.707  0.7446  0.5741 -0.0778
  800MOL0     C 7930   7.762   0.581   9.179  0.2703  0.7469  0.3036
  800MOL0     C 7931   7.792   0.723   9.210  0.3487  0.8425  0.4848
  800MOL0     C 7932   7.827   0.810   9.095 -0.1606  0.7185  1.1735
  800MOL0     H 7933   8.005   1.055   9.452 -2.4385 -0.4682 -0.5425
  800MOL0     H 7934   8.089   1.273   9.561 -0.8825  1.4968 -0.3875
  800MOL0     H 7935   7.860   1.424   9.896 -0.1199 -3.6716 -1.6918
  800MOL0     H 7936   8.004   1.341   9.907  1.9562 -0.0504 -2.0820
  800MOL0     H 7937   8.028   1.531  10.020 -1.2216  2.0130  0.8275
  800MOL0     H 7938   7.984   1.646   9.881 -0.8223 -1.6582 -2.4541
  800MOL0     H 7939   8.184   1.525   9.749  1.6980 -2.8756  0.0476
  800MOL0     H 7940   8.220   1.454   9.894  1.7725 -0.8099 -2.2085
  800MOL0     H 7941   8.334   1.706   9.827 -0.7037  2.0192  1.6979
  800MOL0     H 7942   8.190   1.756   9.904  0.9715 -0.1195  4.9319
  800MOL0     H 7943   8.285   1.556  10.076  3.0483  1.0529  2.8497
  800MOL0     H 7944   8.423   1.623  10.001  0.2765 -0.7600  0.1407
  800MOL0     H 7945   8.196   1.775  10.138 -1.6086 -0.1792 -3.8620
  800MOL0     H 7946   8.339   1.718  10.225  0.6960 -1.3146 -0.2438
  800MOL0     H 7947   8.322   1.971  10.142  1.1124  1.9909 -1.0673
  800MOL0     H 7948   8.370   1.892   9.988 -2.2119 -1.0347 -0.1991
  800MOL0     H 7949   8.562   1.996  10.106 -2.9049  0.0326 -3.9570
  800MOL0     H 7950   8.537   1.887  10.245 -0.1008 -2.0460  0.0361
  800MOL0     H 7951   8.540   1.810   9.842  1.4089  1.1933 -1.4273
  800MOL0     H 7952   8.716   1.701   9.699 -0.7933  2.1540  1.0163
  800MOL0     H 7953   8.873   1.731   9.760 -0.3255 -0.8351 -0.5928
  800MOL0     H 7954   8.925   1.505   9.824  0.3920  3.1381  0.5959
  800MOL0     H 7955   8.759   1.444   9.797  1.2939 -1.2790  0.5540
  800MOL0     H 7956   8.769   1.471   9.562 -0.7788 -1.2695  0.5598
  800MOL0     H 7957   8.907   1.378   9.625  0.8455 -0.0489 -1.6832
  800MOL0     H 7958   9.025   1.635   9.598 -2.2215  3.0167  0.5480
  800MOL0     H 7959   8.889   1.651   9.494  0.0903 -0.5115  0.2750
  800MOL0     H 7960   8.963   1.738   9.331 -0.0696  0.0635 -1.2705
  800MOL0     H 7961   8.995   1.809   9.090  1.0246  1.7183  1.3980
  800MOL0     H 7962   9.392   1.441   8.729  0.1243 -0.9520  0.6075
  800MOL0     H 7963   9.502   1.456   8.517 -1.0831 -0.5134 -0.7306
  800MOL0     H 7964   9.605   1.493   8.328  0.5665  1.8721  0.7499
  800MOL0     H 7965   9.441   1.448   8.263  2.6497 -2.8425 -2.6207
  800MOL0     H 7966   9.532   1.629   8.084 -1.0861 -0.4655  0.8965
  800MOL0     H 7967   9.692   1.587   8.142  0.3320 -1.4902  2.6875
  800MOL0     H 7968   9.499   1.362   8.047  0.5403 -1.1815  4.1350
  800MOL0     H 7969   9.619   1.450   7.937 -0.4473  1.1221  0.2173
  800MOL0     H 7970   9.763   1.389   8.166 -0.4678 -2.3421  1.7132
  800MOL0     H 7971   9.768   1.309   8.009  0.9232 -1.9179  0.8272
  800MOL0     H 7972   9.586   1.142   8.105 -0.4760 -0.0245  1.5261
  800MOL0     H 7973   9.611   1.223   8.261  0.0583  1.2735  0.9972
  800MOL0     H 7974   9.750   1.008   8.171 -1.0768 -0.2131  1.1957
  800MOL0     H 7975   9.850   1.147   8.107  2.6652 -3.2798  0.2549
  800MOL0     H 7976   9.905   1.246   8.300 -1.6714  0.6499 -1.5747
  800MOL0     H 7977   9.948   1.079   8.299 -0.4194  1.7839 -1.0304
  800MOL0     H 7978   9.865   1.148   8.522 -1.0909 -0.9866  0.7209
  800MOL0     H 7979   9.726   1.225   8.451 -0.1489 -0.1411 -3.6569
  800MOL0     H 7980   9.308   1.824   8.432  1.5411 -1.1138 -0.6567
  800MOL0     H 7981   9.226   1.823   8.682 -0.9559 -1.7078  2.0208
  800MOL0     H 7982   9.206   1.438   9.029  0.2749 -0.4207  0.6607
  800MOL0     H 7983   9.132   1.368   9.270 -1.9311  0.0137  0.9098
  800MOL0     H 7984   7.714   1.280   9.787 -2.9301 -0.6471 -1.6621
  800MOL0     H 7985   7.648   1.069   9.682 -1.6187  3.0574 -2.0525
  800MOL0     H 7986   7.755   0.694   9.538 -2.4947  1.0999 -0.7127
  800MOL0     H 7987   7.729   0.446   9.485 -2.2057  2.9385  1.8428
  800MOL0     H 7988   7.874   0.227   9.272 -2.5135 -0.2451  0.9315
  800MOL0     H 7989   7.913   0.357   9.161 -2.0703  0.3012 -0.9586
  800MOL0     H 7990   7.701   0.153   9.096 -0.2099  1.1270  2.0698
  800MOL0     H 7991   7.863   0.128   9.045 -1.2797 -0.2127  1.2328
  800MOL0     H 7992   7.862   0.362   8.924 -0.1214 -0.4853 -2.3076
  800MOL0     H 7993   7.693   0.362   8.974 -1.4780 -2.2461  1.4510
  800MOL0     H 7994   7.674   0.128   8.854 -0.3289 -0.3400  1.5415
  800MOL0     H 7995   7.687   0.259   8.743  1.3497 -2.3375 -2.3479
  800MOL0     H 7996   8.078   0.110   8.671  0.2350 -0.0843 -1.2924
  800MOL0     H 7997   7.763   0.556   9.074 -0.3554  1.6967  0.0630
  800MOL0     H 7998   7.753   0.890   9.095 -0.3744  0.5929 -1.2875
  800MOL0     H 7999   7.922   0.864   9.107 -0.7408  1.7664  1.1780
  800MOL0     H 8000   7.832   0.754   9.001  0.0347  3.4776 -0.5613
  801MOL0     O 8001   3.066   6.522   2.419  0.3129  0.6171 -0.5964
  801MOL0     C 8002   3.047   6.640   2.394 -0.1076 -0.4871  0.0807
  801MOL0     O 8003   3.106   6.740   2.464  0.4098 -0.5214 -0.5145
  801MOL0     C 8004   3.214   6.711   2.537  0.7737 -0.2223 -0.3849
  801MOL0     C 8005   3.209   6.647   2.654 -0.1712  1.0160 -0.6031
  801MOL0     C 8006   3.332   6.626   2.737  0.4794 -1.0647  0.5415
  801MOL0     C 8007   3.457   6.676   2.691  0.8370  0.8290  0.0579
  801MOL0     O 8008   3.579   6.634   2.754 -0.3398  0.7197  0.3477
  801MOL0     C 8009   3.655   6.554   2.667 -0.1439  0.4052 -0.0709
  801MOL0     C 8010   3.765   6.504   2.743 -0.5775 -0.1988  0.3565
  801MOL0     C 8011   3.726   6.418   2.867  0.5443 -0.5358 -0.4348
  801MOL0     C 8012   3.837   6.343   2.950 -0.3919 -0.1275  0.0761
  801MOL0     C 8013   3.948   6.431   2.998  0.1068 -0.1976 -0.6415
  801MOL0     C 8014   4.036   6.364   3.101  0.3848  0.2112  0.4188
  801MOL0     C 8015   4.139   6.262   3.040  0.0767 -0.7711  0.3411
  801MOL0     C 8016   4.210   6.322   2.917 -0.3752  0.7295 -0.0357
  801MOL0     N 8017   4.301   6.431   2.933 -0.3165 -0.6313  0.1568
  801MOL0     C 8018   4.273   6.545   3.007  0.1525 -0.4713  0.2485
  801MOL0     C 8019   4.384   6.625   2.997  0.5781 -0.4397 -1.0586
  801MOL0     C 8020   4.411   6.756   3.057 -0.4852  0.4734  0.6084
  801MOL0     C 8021   4.331   6.863   2.971  0.0863  0.6864 -0.0204
  801MOL0     C 8022   4.345   7.009   3.006  0.7498  1.4148 -0.9499
  801MOL0     C 8023   4.254   7.090   2.909 -0.2403 -0.1433  0.2489
  801MOL0     O 8024   4.115   7.114   2.953 -0.3013  0.1776  0.2483
  801MOL0     C 8025   4.032   7.169   2.860  0.1684 -0.1091 -0.6173
  801MOL0     C 8026   3.897   7.158   2.891 -0.2290  0.4039  0.4089
  801MOL0     C 8027   3.798   7.229   2.817 -1.1218  1.4859  0.2183
  801MOL0     C 8028   3.834   7.295   2.697  0.2737  0.9627  0.8818
  801MOL0     C 8029   3.739   7.359   2.608 -0.2140 -0.3414 -0.4294
  801MOL0     O 8030   3.782   7.457   2.521  0.7283 -0.3869 -0.6617
  801MOL0     C 8031   3.694   7.504   2.427  0.1261  0.4171 -0.6524
  801MOL0     C 8032   3.644   7.424   2.328  1.0390  0.2587 -0.5805
  801MOL0     C 8033   3.566   7.488   2.223 -0.3890  0.8917 -0.0429
  801MOL0     C 8034   3.550   7.622   2.216 -1.2868  0.7971  0.0528
  801MOL0     O 8035   3.495   7.679   2.103 -0.2430 -0.7852  0.4713
  801MOL0     C 8036   3.357   7.670   2.086 -0.2094  0.5967 -0.4823
  801MOL0     C 8037   3.302   7.764   1.972 -0.0525  0.1370  1.5698
  801MOL0     C 8038   3.154   7.788   1.980  0.4335  0.2572 -0.7468
  801MOL0     C 8039   3.106   7.853   2.118 -0.4806  0.0571 -0.8907
  801MOL0     C 8040   2.963   7.892   2.111 -0.5547  0.1212 -0.4171
  801MOL0     C 8041   2.906   7.975   1.996  0.0783  0.0058  0.2584
  801MOL0     C 8042   2.752   7.990   1.993 -0.4402  0.5319 -0.1792
  801MOL0     C 8043   2.703   8.087   1.894  0.5617 -0.1732  1.3443
  801MOL0    Cl 8044   2.528   8.075   1.883 -0.0499 -0.0245  0.0208
  801MOL0     C 8045   3.602   7.700   2.317 -0.1518 -1.0197 -0.9358
  801MOL0     C 8046   3.675   7.644   2.425  0.6043 -0.2498  0.0761
  801MOL0     O 8047   3.625   7.323   2.602 -0.0177 -0.0963  0.1413
  801MOL0     C 8048   3.973   7.306   2.666  0.6872 -0.1370 -0.3730
  801MOL0     C 8049   4.069   7.245   2.746 -0.2434  0.7959  0.2668
  801MOL0     N 8050   4.483   6.544   2.934 -0.1158 -0.6648 -0.8547
  801MOL0     N 8051   4.434   6.428   2.904 -0.3067  0.2718  0.9579
  801MOL0     C 8052   3.452   6.750   2.571  0.7375  0.1329  0.2841
  801MOL0     C 8053   3.333   6.773   2.500 -0.2959  0.4014 -0.1776
  801MOL0     C 8054   2.942   6.692   2.289 -0.1086 -0.8671  1.0336
  801MOL0     C 8055   2.918   6.831   2.280 -0.2060  0.4069 -0.3524
  801MOL0     C 8056   2.818   6.882   2.201 -0.6135 -0.4551 -0.6674
  801MOL0     C 8057   2.736   6.800   2.123 -0.9048 -0.3460  0.1299
  801MOL0     O 8058   2.645   6.847   2.030  0.3029  0.2664 -0.0628
  801MOL0     C 8059   2.625   6.989   2.004 -0.3994  0.1249 -0.1752
  801MOL0     C 8060   2.534   7.062   2.095 -0.6322 -0.1885 -0.4683
  801MOL0     C 8061   2.383   7.015   2.091  0.1567 -0.2123 -0.7463
  801MOL0     C 8062   2.280   7.103   2.160  0.3795  0.2645  0.2398
  801MOL0     C 8063   2.148   7.050   2.117 -0.6986  0.6813  0.3500
  801MOL0     C 8064   2.032   7.021   2.095 -0.5607 -0.6063  0.0823
  801MOL0     C 8065   2.765   6.660   2.128 -1.7596 -0.2199 -0.0041
  801MOL0     C 8066   2.861   6.604   2.210  0.1792  0.0552 -0.5245
  801MOL0     C 8067   2.878   6.452   2.199 -0.5083  1.0543 -0.3142
  801MOL0     H 8068   3.111   6.618   2.689 -1.0397  2.9952 -1.2102
  801MOL0     H 8069   3.308   6.576   2.829 -0.3394 -3.2448 -0.7813
  801MOL0     H 8070   3.602   6.473   2.615  0.6902  0.0971 -0.4650
  801MOL0     H 8071   3.693   6.608   2.580 -2.3167 -1.6491 -2.4778
  801MOL0     H 8072   3.828   6.589   2.772 -0.1829  1.1672 -3.8006
  801MOL0     H 8073   3.835   6.454   2.676 -1.1212 -2.8265  1.6046
  801MOL0     H 8074   3.669   6.333   2.828 -0.1412  0.0440 -0.7000
  801MOL0     H 8075   3.668   6.477   2.938 -2.3264 -2.8953 -0.6246
  801MOL0     H 8076   3.789   6.290   3.033 -3.3542 -0.3760 -1.6489
  801MOL0     H 8077   3.884   6.265   2.888  1.5941  1.1497 -0.1391
  801MOL0     H 8078   4.004   6.468   2.912  2.0577 -0.7745  0.3005
  801MOL0     H 8079   3.901   6.516   3.049 -0.2783 -0.7179 -0.1119
  801MOL0     H 8080   4.093   6.442   3.153  0.5440  1.7564 -1.9569
  801MOL0     H 8081   3.986   6.312   3.183 -0.7238 -0.6933 -0.8000
  801MOL0     H 8082   4.090   6.171   3.004 -2.2073 -0.3004  2.0172
  801MOL0     H 8083   4.204   6.233   3.123 -0.4712 -2.0032  0.3564
  801MOL0     H 8084   4.276   6.248   2.871  0.9565  1.2509  0.9466
  801MOL0     H 8085   4.135   6.337   2.839 -2.2312 -1.9158  1.0938
  801MOL0     H 8086   4.178   6.568   3.055 -0.1085 -2.7671  0.9739
  801MOL0     H 8087   4.360   6.758   3.154  0.7111  2.4897  1.2678
  801MOL0     H 8088   4.516   6.785   3.053 -0.2904 -0.2746 -2.8132
  801MOL0     H 8089   4.371   6.857   2.870  4.7235  0.5145  1.6199
  801MOL0     H 8090   4.226   6.832   2.963  0.1709 -0.2255  1.8298
  801MOL0     H 8091   4.451   7.036   3.002  0.6174  2.3895  0.9570
  801MOL0     H 8092   4.315   7.029   3.109 -0.6345  3.3476 -1.6588
  801MOL0     H 8093   4.252   7.035   2.815 -1.5887 -0.3167  0.3602
  801MOL0     H 8094   4.310   7.183   2.894 -3.4865  1.7792 -0.9713
  801MOL0     H 8095   3.861   7.100   2.976 -1.5908  1.1855  0.3891
  801MOL0     H 8096   3.693   7.231   2.845 -1.2205  3.3046 -0.1216
  801MOL0     H 8097   3.671   7.320   2.340  2.0835  0.7131  1.4719
  801MOL0     H 8098   3.530   7.427   2.141  1.2622  0.4003 -0.4607
  801MOL0     H 8099   3.339   7.563   2.068 -2.6393  0.7041  0.8869
  801MOL0     H 8100   3.310   7.689   2.182  1.1476 -0.7875  0.5017
  801MOL0     H 8101   3.354   7.859   1.984 -1.9401  1.7512 -1.7966
  801MOL0     H 8102   3.332   7.721   1.876  1.8553  0.2813  2.0743
  801MOL0     H 8103   3.131   7.858   1.900  2.0433  2.0721  0.2926
  801MOL0     H 8104   3.091   7.699   1.971 -0.4153  0.4684  1.9689
  801MOL0     H 8105   3.154   7.951   2.128 -2.2706  1.1890 -2.8211
  801MOL0     H 8106   3.119   7.788   2.206 -0.7966  1.7236  0.4390
  801MOL0     H 8107   2.933   7.943   2.203  2.5641  0.5529  0.4801
  801MOL0     H 8108   2.916   7.793   2.107 -0.0147 -0.1128 -1.1719
  801MOL0     H 8109   2.962   8.068   1.988  0.5071 -0.3588 -1.4234
  801MOL0     H 8110   2.937   7.904   1.918  1.5292  1.8637 -0.9324
  801MOL0     H 8111   2.722   8.023   2.093  1.6776 -1.4532  1.2301
  801MOL0     H 8112   2.712   7.892   1.967 -1.5756  1.3840 -1.7921
  801MOL0     H 8113   2.741   8.185   1.925  1.8282 -0.3301  0.3309
  801MOL0     H 8114   2.748   8.060   1.798 -3.9044 -1.0509 -0.7485
  801MOL0     H 8115   3.588   7.806   2.301  0.1362 -0.7757  0.3560
  801MOL0     H 8116   3.719   7.704   2.504 -1.1690 -1.8754  2.4409
  801MOL0     H 8117   4.005   7.370   2.585  0.3761 -1.0614 -1.2604
  801MOL0     H 8118   4.176   7.243   2.724 -0.5538  0.6144 -1.3588
  801MOL0     H 8119   3.544   6.785   2.526 -1.2582  1.3498 -3.3026
  801MOL0     H 8120   3.323   6.831   2.408 -0.4266  0.4377 -0.1407
  801MOL0     H 8121   2.982   6.900   2.336  0.0099  0.0085 -0.1033
  801MOL0     H 8122   2.801   6.988   2.188 -0.9827 -0.5948 -1.3813
  801MOL0     H 8123   2.579   6.999   1.906 -0.4617  1.2182 -0.0421
  801MOL0     H 8124   2.729   7.024   2.004  0.3123 -1.7026  1.9830
  801MOL0     H 8125   2.545   7.166   2.060 -1.6182  1.0386  2.5461
  801MOL0     H 8126   2.571   7.056   2.198 -4.6007 -0.9892  1.0883
  801MOL0     H 8127   2.387   6.915   2.136  1.8026 -0.4506 -1.3589
  801MOL0     H 8128   2.366   7.010   1.984 -0.8642  0.3383 -0.6186
  801MOL0     H 8129   2.288   7.102   2.269 -1.3783  1.5440  0.4265
  801MOL0     H 8130   2.280   7.203   2.114  0.6281 -0.1326 -0.6579
  801MOL0     H 8131   1.936   6.987   2.064  0.7882 -3.8756 -1.0345
  801MOL0     H 8132   2.703   6.602   2.060 -1.8843  1.2881 -1.2119
  801MOL0     H 8133   2.956   6.438   2.124  1.0835 -0.4738  1.4989
  801MOL0     H 8134   2.901   6.396   2.290  1.8375 -1.9967 -2.5634
  801MOL0     H 8135   2.784   6.409   2.162  0.9520 -1.5603 -1.2172
  802MOL0     O 8136   5.168   8.268   0.203  0.0051 -0.4968  0.2187
  802MOL0     C 8137   5.235   8.326   0.287 -0.5279 -0.8647 -0.8956
  802MOL0     O 8138   5.200   8.441   0.355  0.3653  0.2807  0.6054
  802MOL0     C 8139   5.071   8.495   0.358  0.3772  0.7979 -0.6898
  802MOL0     C 8140   5.011   8.519   0.477 -0.3587  0.3232  0.3477
  802MOL0     C 8141   4.889   8.577   0.500 -0.3831 -0.0987  0.9797
  802MOL0     C 8142   4.819   8.618   0.386 -0.2463 -0.2385  0.4164
  802MOL0     O 8143   4.697   8.683   0.390  0.9701  0.6711 -1.3727
  802MOL0     C 8144   4.620   8.691   0.509  0.5840 -0.4895  0.2466
  802MOL0     C 8145   4.516   8.807   0.488 -0.9630  1.8147  0.0098
  802MOL0     C 8146   4.442   8.790   0.350  0.8409 -0.4376  0.0486
  802MOL0     C 8147   4.376   8.919   0.297  0.2262  0.3972 -0.6244
  802MOL0     C 8148   4.328   8.895   0.148 -0.0307 -0.1336  0.0812
  802MOL0     C 8149   4.453   8.927   0.050  0.6053 -0.8784  0.2795
  802MOL0     C 8150   4.396   8.952  -0.093 -0.2295  0.2862  0.5640
  802MOL0     C 8151   4.501   9.004  -0.190 -0.4232 -1.2134 -0.0840
  802MOL0     N 8152   4.536   9.147  -0.182  0.7649 -0.4258  0.3217
  802MOL0     C 8153   4.452   9.256  -0.158  0.4163 -0.1489 -0.2226
  802MOL0     C 8154   4.524   9.370  -0.189 -0.1401  0.0636  0.5797
  802MOL0     C 8155   4.473   9.510  -0.184 -0.4438 -0.5323 -0.0210
  802MOL0     C 8156   4.576   9.604  -0.124  0.7630 -0.3225 -0.7381
  802MOL0     C 8157   4.614   9.581   0.017  0.0012  0.8528  0.5849
  802MOL0     C 8158   4.499   9.604   0.111  0.0289 -0.8278 -0.2659
  802MOL0     O 8159   4.458   9.742   0.094  0.1274  0.0126  0.0363
  802MOL0     C 8160   4.335   9.766   0.147  0.2772 -0.1380  0.4145
  802MOL0     C 8161   4.270   9.877   0.103 -0.4488 -0.5589 -0.1787
  802MOL0     C 8162   4.148   9.919   0.171 -0.4139  0.4106  0.0527
  802MOL0     C 8163   4.107   9.862   0.291  0.0442  0.1941 -0.0021
  802MOL0     C 8164   3.990   9.902   0.366  1.0595 -0.3823 -0.2464
  802MOL0     O 8165   3.965   9.849   0.490  1.1457 -0.0915 -0.2610
  802MOL0     C 8166   3.847   9.891   0.556  0.6679  0.3920  0.2320
  802MOL0     C 8167   3.726   9.853   0.512  0.4518 -0.2056 -0.2196
  802MOL0     C 8168   3.608   9.902   0.562  0.7026 -0.8484 -0.6893
  802MOL0     C 8169   3.615   9.995   0.668 -0.8280  0.2803  0.3913
  802MOL0     O 8170   3.510  10.054   0.731  0.1026 -0.1256 -0.2900
  802MOL0     C 8171   3.384  10.052   0.670  0.9208  1.2409  0.3261
  802MOL0     C 8172   3.271  10.005   0.763 -0.2279 -0.9703 -0.1407
  802MOL0     C 8173   3.285   9.857   0.820  0.2462 -0.4334 -0.6157
  802MOL0     C 8174   3.355   9.863   0.956  0.9116  0.6078 -0.3069
  802MOL0     C 8175   3.346   9.722   1.041 -0.5405  0.8049  0.0381
  802MOL0     C 8176   3.317   9.737   1.189 -0.2528 -0.8930  0.2662
  802MOL0     C 8177   3.454   9.766   1.274 -0.4574  0.0895 -0.1135
  802MOL0     C 8178   3.421   9.829   1.410 -0.0717  0.2307  0.1746
  802MOL0    Cl 8179   3.339   9.705   1.498  0.1495 -0.2210  0.2832
  802MOL0     C 8180   3.742  10.034   0.722 -0.6022  1.3434  0.4261
  802MOL0     C 8181   3.857   9.974   0.659 -0.0981  0.2015 -0.4837
  802MOL0     O 8182   3.925   9.999   0.317  0.5261 -0.3198 -0.4990
  802MOL0     C 8183   4.181   9.757   0.334  0.8972  0.0210  0.0907
  802MOL0     C 8184   4.287   9.709   0.263  0.3298  0.3374 -0.4888
  802MOL0     N 8185   4.649   9.325  -0.234 -0.5409 -0.2509  0.1367
  802MOL0     N 8186   4.657   9.194  -0.224 -0.2430  0.2137 -0.4183
  802MOL0     C 8187   4.877   8.587   0.254  0.9629  0.0883 -0.5116
  802MOL0     C 8188   5.001   8.520   0.244 -0.0350  1.1008  0.3421
  802MOL0     C 8189   5.378   8.271   0.297  0.6895  0.9973 -0.3340
  802MOL0     C 8190   5.399   8.135   0.253  0.4181 -0.1207  0.6932
  802MOL0     C 8191   5.519   8.072   0.256  0.2526 -0.1533  0.3848
  802MOL0     C 8192   5.622   8.127   0.336 -0.1044 -0.5009  0.9305
  802MOL0     O 8193   5.739   8.066   0.370 -0.2028 -0.4265 -0.4462
  802MOL0     C 8194   5.791   7.964   0.286 -0.2329 -0.1537  0.2022
  802MOL0     C 8195   5.914   7.889   0.338 -0.3576 -0.0110  0.1237
  802MOL0     C 8196   5.860   7.789   0.454 -0.9419 -0.6872  0.6231
  802MOL0     C 8197   5.849   7.638   0.406  0.0834 -0.1587  0.0564
  802MOL0     C 8198   5.753   7.623   0.302  0.1349 -0.9294 -0.8829
  802MOL0     C 8199   5.676   7.618   0.212  0.4727  0.3673 -0.2932
  802MOL0     C 8200   5.609   8.256   0.385  0.8147  0.2790 -0.0946
  802MOL0     C 8201   5.488   8.335   0.368  0.3890 -0.3508  0.3411
  802MOL0     C 8202   5.481   8.482   0.411 -0.5541  0.0525  0.2918
  802MOL0     H 8203   5.060   8.492   0.569  1.4936 -2.1649 -1.2561
  802MOL0     H 8204   4.853   8.593   0.602 -1.4440  1.0271  0.4491
  802MOL0     H 8205   4.570   8.596   0.528 -2.3074  1.2070  1.7097
  802MOL0     H 8206   4.684   8.704   0.597  1.3799 -1.4836 -0.1522
  802MOL0     H 8207   4.561   8.906   0.479 -0.3418  1.3651 -4.6852
  802MOL0     H 8208   4.443   8.791   0.568  0.5319 -2.4243  0.7567
  802MOL0     H 8209   4.361   8.718   0.365  0.0878  0.2746 -0.4407
  802MOL0     H 8210   4.509   8.750   0.274  0.2937  2.0295 -1.8820
  802MOL0     H 8211   4.291   8.943   0.362  1.8371  2.2380  0.9599
  802MOL0     H 8212   4.446   9.003   0.308 -0.1582  0.4622  1.7884
  802MOL0     H 8213   4.290   8.794   0.129 -1.1259  0.5600 -1.6730
  802MOL0     H 8214   4.246   8.968   0.139 -2.3341 -2.3563  1.6942
  802MOL0     H 8215   4.511   9.015   0.080  0.4980 -0.5566 -0.4361
  802MOL0     H 8216   4.534   8.853   0.047 -2.3046 -4.3292 -2.4390
  802MOL0     H 8217   4.319   9.028  -0.079 -1.2291 -0.4717 -0.6928
  802MOL0     H 8218   4.347   8.859  -0.120 -2.8358  0.7301  3.2733
  802MOL0     H 8219   4.586   8.936  -0.193  0.7350  0.2222 -0.8247
  802MOL0     H 8220   4.455   8.986  -0.288 -2.7798 -0.6651  0.8427
  802MOL0     H 8221   4.346   9.255  -0.137  1.0007 -0.6268  3.2895
  802MOL0     H 8222   4.447   9.542  -0.285 -0.2848  0.2027  0.1651
  802MOL0     H 8223   4.379   9.505  -0.128 -0.6484 -3.7163 -0.4513
  802MOL0     H 8224   4.673   9.601  -0.174  1.3928  0.6465  0.3703
  802MOL0     H 8225   4.546   9.709  -0.133  3.0554  0.3340 -1.2288
  802MOL0     H 8226   4.698   9.646   0.040  0.0680  0.9701  0.0282
  802MOL0     H 8227   4.648   9.478   0.028 -1.2007  0.6175  2.6293
  802MOL0     H 8228   4.523   9.600   0.217 -0.3701 -0.7670 -0.1742
  802MOL0     H 8229   4.413   9.540   0.088  0.1911 -0.4093 -2.2021
  802MOL0     H 8230   4.315   9.929   0.019  0.8234  0.6853  1.2080
  802MOL0     H 8231   4.086   9.993   0.122  0.5812 -0.2131 -2.2400
  802MOL0     H 8232   3.725   9.785   0.428  1.2566  1.8759 -1.9952
  802MOL0     H 8233   3.517   9.857   0.524  0.2566 -1.3635  0.9215
  802MOL0     H 8234   3.364  10.150   0.626  0.0106  1.0157  0.2035
  802MOL0     H 8235   3.382   9.979   0.588  0.7127  0.1085  1.3018
  802MOL0     H 8236   3.271  10.081   0.841  2.8948  1.1835 -2.0188
  802MOL0     H 8237   3.175  10.022   0.712 -0.6912  0.5663  1.1651
  802MOL0     H 8238   3.188   9.808   0.812  1.2053 -2.3286 -1.2373
  802MOL0     H 8239   3.351   9.796   0.757 -2.5877 -1.9863 -2.2755
  802MOL0     H 8240   3.317   9.950   1.010 -0.1523  0.4089 -0.7176
  802MOL0     H 8241   3.462   9.883   0.948  0.5220  2.0820 -3.2268
  802MOL0     H 8242   3.428   9.651   1.027 -0.1932  0.9336  1.2324
  802MOL0     H 8243   3.261   9.663   1.006  1.6516 -1.2668 -2.1387
  802MOL0     H 8244   3.244   9.816   1.207  2.3612  1.1867  2.6851
  802MOL0     H 8245   3.265   9.645   1.218 -1.2845  0.0489  1.5386
  802MOL0     H 8246   3.512   9.832   1.209 -0.0168 -2.4768 -2.5379
  802MOL0     H 8247   3.519   9.680   1.294 -1.0917 -0.2652  0.4722
  802MOL0     H 8248   3.508   9.858   1.469 -0.4612 -0.6780  1.2412
  802MOL0     H 8249   3.348   9.911   1.412 -1.8293 -1.2552  1.2675
  802MOL0     H 8250   3.761  10.108   0.798  3.5913 -0.6558  1.6184
  802MOL0     H 8251   3.958   9.997   0.692  1.3377 -1.1539 -3.5287
  802MOL0     H 8252   4.153   9.698   0.421 -0.6136 -0.9687 -1.0170
  802MOL0     H 8253   4.334   9.621   0.307  1.9494  0.8361 -1.1300
  802MOL0     H 8254   4.834   8.646   0.174  2.3210  0.5987 -0.8920
  802MOL0     H 8255   5.055   8.501   0.152 -2.0320  0.0927 -0.7006
  802MOL0     H 8256   5.311   8.091   0.208 -2.1016  1.9145  3.2111
  802MOL0     H 8257   5.527   7.971   0.216 -0.4578  0.6402 -1.9492
  802MOL0     H 8258   5.816   8.007   0.189 -2.8751 -0.6853 -0.7773
  802MOL0     H 8259   5.705   7.903   0.257 -2.4458  4.2931 -3.9535
  802MOL0     H 8260   5.986   7.963   0.374  0.8007  0.5645 -3.0744
  802MOL0     H 8261   5.965   7.839   0.255  0.2393  2.4731 -1.0999
  802MOL0     H 8262   5.764   7.828   0.489 -0.6327  0.7654 -0.0623
  802MOL0     H 8263   5.927   7.791   0.540 -0.5005  5.0635  0.5413
  802MOL0     H 8264   5.945   7.602   0.370  0.7215 -0.6752  2.1806
  802MOL0     H 8265   5.827   7.582   0.497 -1.0818 -0.7918 -0.5835
  802MOL0     H 8266   5.594   7.625   0.144  1.1262  0.3621 -1.1144
  802MOL0     H 8267   5.698   8.297   0.430  2.0492 -1.3638 -0.9163
  802MOL0     H 8268   5.471   8.547   0.324  0.3467  0.2369  0.3201
  802MOL0     H 8269   5.409   8.505   0.490  0.4207  1.0116  0.9048
  802MOL0     H 8270   5.584   8.512   0.430  0.5102  1.3922 -5.5584
  803MOL0     O 8271   6.502   1.701   1.320 -0.4329  0.2524 -0.1270
  803MOL0     C 8272   6.614   1.715   1.267 -0.4014  0.0967  0.5038
  803MOL0     O 8273   6.640   1.825   1.179 -0.3634  0.5649  0.1746
  803MOL0     C 8274   6.563   1.936   1.202 -0.6328 -0.0136 -0.4146
  803MOL0     C 8275   6.583   2.018   1.314  0.1376  0.2409 -0.0686
  803MOL0     C 8276   6.499   2.132   1.333 -0.3556  0.4832 -0.4824
  803MOL0     C 8277   6.397   2.161   1.248  0.8507  0.4934 -0.7733
  803MOL0     O 8278   6.304   2.263   1.269  0.6905 -0.2424 -0.2164
  803MOL0     C 8279   6.304   2.327   1.404 -0.1733 -0.0013 -0.2567
  803MOL0     C 8280   6.171   2.399   1.408  1.0791 -0.1747  0.6898
  803MOL0     C 8281   6.161   2.528   1.333  0.2823  0.9075 -0.3014
  803MOL0     C 8282   6.144   2.517   1.177 -0.4070  1.1669 -0.3135
  803MOL0     C 8283   6.116   2.646   1.101 -0.2734 -0.7813  1.1213
  803MOL0     C 8284   6.226   2.705   1.017  0.2209  0.0301 -0.1520
  803MOL0     C 8285   6.273   2.631   0.895  0.2366 -0.2488 -0.3280
  803MOL0     C 8286   6.164   2.615   0.793 -0.2932 -0.2106 -0.6404
  803MOL0     N 8287   6.092   2.492   0.794  0.0849  0.6817  0.3751
  803MOL0     C 8288   6.148   2.369   0.777  1.1726 -0.8503 -0.4180
  803MOL0     C 8289   6.041   2.284   0.764  0.9363  0.4755 -0.7842
  803MOL0     C 8290   6.071   2.139   0.735 -0.4323 -0.7982  0.8486
  803MOL0     C 8291   6.184   2.075   0.826  0.0857 -1.4050 -0.3147
  803MOL0     C 8292   6.200   1.933   0.780 -0.0972  0.4972 -0.3954
  803MOL0     C 8293   6.281   1.909   0.651 -0.2152 -0.0128  0.1473
  803MOL0     O 8294   6.277   1.772   0.607  0.5169  0.1364 -0.5728
  803MOL0     C 8295   6.389   1.704   0.627  0.4786 -0.4760  0.0551
  803MOL0     C 8296   6.474   1.694   0.516 -1.3134  0.5093 -0.5297
  803MOL0     C 8297   6.611   1.651   0.533 -0.2471  0.3046  0.1098
  803MOL0     C 8298   6.647   1.593   0.663 -0.4739  0.1088 -0.3742
  803MOL0     C 8299   6.782   1.538   0.672 -0.0633 -0.2376 -0.9542
  803MOL0     O 8300   6.862   1.541   0.551  0.7024 -0.4709 -0.3988
  803MOL0     C 8301   7.001   1.540   0.553 -0.1910 -0.0745 -0.4003
  803MOL0     C 8302   7.066   1.456   0.466 -0.2110 -0.1519  0.1986
  803MOL0     C 8303   7.206   1.444   0.464  0.2218 -0.1796 -0.4633
  803MOL0     C 8304   7.281   1.516   0.560 -0.1979  1.1219  0.4298
  803MOL0     O 8305   7.412   1.500   0.565 -0.4707  0.3628  0.3097
  803MOL0     C 8306   7.487   1.475   0.438  0.0291 -0.9298  0.9937
  803MOL0     C 8307   7.623   1.522   0.459 -0.4824  0.4300 -0.6544
  803MOL0     C 8308   7.715   1.422   0.528 -0.5669 -0.1754 -0.0052
  803MOL0     C 8309   7.848   1.484   0.562 -0.1614  0.0034  0.9321
  803MOL0     C 8310   7.943   1.370   0.603  0.1375  0.2977  1.0623
  803MOL0     C 8311   8.089   1.412   0.617 -0.6884  0.5907  0.3261
  803MOL0     C 8312   8.151   1.450   0.474  0.4500 -0.3260  0.9528
  803MOL0     C 8313   8.302   1.467   0.481 -0.2602  0.0511  0.6652
  803MOL0    Cl 8314   8.370   1.547   0.331  0.2169  0.4753  0.1081
  803MOL0     C 8315   7.210   1.598   0.650  0.4122 -1.1577 -0.4735
  803MOL0     C 8316   7.066   1.614   0.653 -0.9159  1.3101  0.3331
  803MOL0     O 8317   6.818   1.483   0.778 -0.2167 -0.4288  0.8891
  803MOL0     C 8318   6.557   1.599   0.765  0.2491 -0.5847 -0.4341
  803MOL0     C 8319   6.424   1.660   0.754 -0.1969  0.5635 -0.1928
  803MOL0     N 8320   5.925   2.352   0.787  0.3874  0.2581  0.0481
  803MOL0     N 8321   5.956   2.475   0.810  0.7545 -0.2336  1.0607
  803MOL0     C 8322   6.389   2.081   1.129 -0.5105  0.5081  0.5128
  803MOL0     C 8323   6.470   1.964   1.106 -0.7113 -1.3980  0.6646
  803MOL0     C 8324   6.705   1.592   1.252  0.2134  0.6045  0.1814
  803MOL0     C 8325   6.757   1.574   1.124  0.5000  0.4306  0.1086
  803MOL0     C 8326   6.834   1.456   1.104 -0.8181  0.1989  0.0105
  803MOL0     C 8327   6.849   1.352   1.193 -0.6949 -1.0403  0.6654
  803MOL0     O 8328   6.931   1.244   1.169 -0.5248  1.2104  0.1376
  803MOL0     C 8329   6.977   1.226   1.032 -0.7142  0.7406 -0.6988
  803MOL0     C 8330   7.045   1.082   1.016  0.6425  0.0853  0.6558
  803MOL0     C 8331   7.191   1.055   1.073  0.2778 -0.0263 -0.3581
  803MOL0     C 8332   7.204   1.076   1.230  0.2973  0.4410  0.0011
  803MOL0     C 8333   7.350   1.072   1.242  0.0799  0.5381  0.5109
  803MOL0     C 8334   7.473   1.076   1.227  0.9858  0.9909 -0.2779
  803MOL0     C 8335   6.790   1.370   1.319 -0.4934  0.0722 -0.5598
  803MOL0     C 8336   6.718   1.484   1.357  0.6759 -0.1578  0.3274
  803MOL0     C 8337   6.658   1.497   1.494 -0.0960  0.4860 -0.6122
  803MOL0     H 8338   6.668   1.995   1.378  1.1183 -0.7989 -1.6910
  803MOL0     H 8339   6.520   2.197   1.417 -3.6272  2.4076 -1.0053
  803MOL0     H 8340   6.291   2.260   1.490  2.0960  0.9263  0.8973
  803MOL0     H 8341   6.381   2.404   1.410  0.6472 -0.8406  0.2525
  803MOL0     H 8342   6.153   2.420   1.514 -1.4266 -2.5026  0.8299
  803MOL0     H 8343   6.088   2.333   1.383 -0.0483  1.0994  0.9497
  803MOL0     H 8344   6.250   2.587   1.356  0.5021  0.9472 -1.2016
  803MOL0     H 8345   6.069   2.575   1.368 -0.2977 -1.9804  2.5185
  803MOL0     H 8346   6.234   2.471   1.136 -1.8072 -1.3559 -0.7351
  803MOL0     H 8347   6.059   2.451   1.157  0.7217 -1.3705  2.4651
  803MOL0     H 8348   6.030   2.632   1.035 -0.8718 -0.7423  1.8784
  803MOL0     H 8349   6.093   2.720   1.178  1.7257 -1.0759  2.0457
  803MOL0     H 8350   6.173   2.793   0.977  0.0548  0.2214  0.4712
  803MOL0     H 8351   6.307   2.748   1.076  1.6941 -0.1931 -1.9218
  803MOL0     H 8352   6.321   2.538   0.925 -1.2517 -1.4908 -1.6096
  803MOL0     H 8353   6.352   2.688   0.846  1.5727 -2.9670 -1.5235
  803MOL0     H 8354   6.090   2.693   0.816  1.3675  1.8226 -1.7914
  803MOL0     H 8355   6.205   2.627   0.693 -0.6625  0.7821 -0.6873
  803MOL0     H 8356   6.252   2.337   0.771  0.8940 -1.6433 -1.4400
  803MOL0     H 8357   5.978   2.086   0.711 -0.9765  0.8338 -0.9264
  803MOL0     H 8358   6.116   2.150   0.636  3.0676 -1.7148  2.2065
  803MOL0     H 8359   6.275   2.135   0.824 -1.1703  0.6186 -0.4023
  803MOL0     H 8360   6.153   2.071   0.932  1.0720  0.5235  0.0962
  803MOL0     H 8361   6.103   1.899   0.743 -1.0394  0.6150  1.7966
  803MOL0     H 8362   6.238   1.872   0.864  0.3290  2.2065  0.7067
  803MOL0     H 8363   6.384   1.920   0.686 -0.2176  0.1926  0.0935
  803MOL0     H 8364   6.259   1.991   0.581 -1.2685  0.1614  0.6583
  803MOL0     H 8365   6.444   1.744   0.425 -2.1109  3.0664  1.0064
  803MOL0     H 8366   6.684   1.671   0.456  0.2150 -1.8222 -0.0797
  803MOL0     H 8367   7.005   1.392   0.404  0.0930 -2.3370  2.0330
  803MOL0     H 8368   7.244   1.375   0.390 -1.9107 -0.7453 -1.1266
  803MOL0     H 8369   7.485   1.371   0.403 -2.2408 -0.3227 -0.9593
  803MOL0     H 8370   7.444   1.543   0.364  2.0379  0.7165  1.2655
  803MOL0     H 8371   7.675   1.549   0.367 -0.5808  0.6831 -0.6367
  803MOL0     H 8372   7.620   1.612   0.521 -0.0880 -0.7328  1.1626
  803MOL0     H 8373   7.678   1.370   0.617  1.2224 -2.7565 -0.6438
  803MOL0     H 8374   7.724   1.331   0.468 -2.6734  1.4623 -3.0336
  803MOL0     H 8375   7.836   1.567   0.632  1.9355  1.3368 -0.1902
  803MOL0     H 8376   7.892   1.540   0.479  0.4176  1.1961  2.0034
  803MOL0     H 8377   7.933   1.292   0.527  2.1537  2.9838 -2.2994
  803MOL0     H 8378   7.901   1.332   0.696 -0.5343  0.9344  1.0308
  803MOL0     H 8379   8.111   1.491   0.690  3.6113 -0.0639 -0.0214
  803MOL0     H 8380   8.137   1.322   0.658 -1.0650 -0.6943 -1.8711
  803MOL0     H 8381   8.101   1.541   0.440  1.6543 -0.3364 -0.9945
  803MOL0     H 8382   8.133   1.380   0.392 -0.8795  1.9611 -0.8060
  803MOL0     H 8383   8.321   1.538   0.563 -2.3893 -0.5689  1.7826
  803MOL0     H 8384   8.348   1.369   0.493  0.8358  0.7052  2.2707
  803MOL0     H 8385   7.268   1.657   0.720  0.2448 -0.1488 -1.1627
  803MOL0     H 8386   7.007   1.674   0.722 -3.7172 -2.7827  1.8499
  803MOL0     H 8387   6.585   1.565   0.865  1.2971  0.7264 -0.2455
  803MOL0     H 8388   6.358   1.671   0.839  2.4651  3.6541  1.6894
  803MOL0     H 8389   6.322   2.121   1.053 -1.1066  0.4642  1.0097
  803MOL0     H 8390   6.453   1.894   1.025  5.4434 -1.5995 -0.9341
  803MOL0     H 8391   6.757   1.648   1.045 -3.9895  1.8560  1.1645
  803MOL0     H 8392   6.873   1.446   1.004 -0.4432 -0.7268  0.2371
  803MOL0     H 8393   7.049   1.303   1.002  3.2014 -2.4479 -0.3875
  803MOL0     H 8394   6.888   1.229   0.968 -2.3629  2.3066  1.5036
  803MOL0     H 8395   7.047   1.047   0.912  1.2492 -2.6915  1.5317
  803MOL0     H 8396   6.987   0.999   1.056 -0.0336 -0.7594 -1.8462
  803MOL0     H 8397   7.259   1.120   1.017 -1.0377  0.1319 -1.8314
  803MOL0     H 8398   7.229   0.953   1.061  0.8647 -0.0152  1.1504
  803MOL0     H 8399   7.169   1.178   1.250 -1.7757  0.8749 -4.5111
  803MOL0     H 8400   7.155   1.000   1.290  0.0538  0.0334 -0.7032
  803MOL0     H 8401   7.577   1.102   1.235  0.6917  1.7865  1.6998
  803MOL0     H 8402   6.809   1.286   1.385  1.3621  1.9452  1.4618
  803MOL0     H 8403   6.684   1.592   1.542  4.5970 -1.5589  1.6526
  803MOL0     H 8404   6.550   1.493   1.482 -0.2383 -0.0006  0.7106
  803MOL0     H 8405   6.705   1.431   1.567  2.9124  1.0378 -1.8805
  804MOL0     O 8406   7.976   0.082  10.046 -1.2048  0.2846  0.1457
  804MOL0     C 8407   8.059   0.004  10.008  0.6731 -0.4625 -0.0316
  804MOL0     O 8408   8.182  -0.004  10.047 -0.8223 -0.5042  0.2279
  804MOL0     C 8409   8.232   0.113  10.108 -0.2969 -0.3812  0.6574
  804MOL0     C 8410   8.276   0.225  10.032 -0.8310  0.5374 -0.2728
  804MOL0     C 8411   8.333   0.338  10.098 -1.4744  0.5681  1.3064
  804MOL0     C 8412   8.334   0.342  10.239  0.3398  0.6511 -0.1126
  804MOL0     O 8413   8.376   0.449  10.298 -0.6700 -0.3513 -0.2358
  804MOL0     C 8414   8.285   0.506  10.392  0.3351  0.2959 -0.1829
  804MOL0     C 8415   8.355   0.617  10.466  0.1082  0.0707  0.4375
  804MOL0     C 8416   8.253   0.722  10.527  0.2392 -0.2224 -0.7134
  804MOL0     C 8417   8.293   0.863  10.498 -0.3420 -0.3414  0.2027
  804MOL0     C 8418   8.174   0.960  10.517  0.5962 -0.5655  0.1436
  804MOL0     C 8419   8.081   0.964  10.387 -0.4927  0.3704 -0.3891
  804MOL0     C 8420   8.009   1.094  10.387  0.5237 -1.5369 -0.0603
  804MOL0     C 8421   7.902   1.094  10.281  0.7255 -0.1555  0.2447
  804MOL0     N 8422   7.867   1.239  10.259 -0.4596  0.2924 -0.1337
  804MOL0     C 8423   7.797   1.313  10.350 -0.5216  0.2343 -1.3915
  804MOL0     C 8424   7.763   1.426  10.290  0.3004 -0.4532 -0.0406
  804MOL0     C 8425   7.671   1.530  10.351  0.1870  0.6124 -0.3391
  804MOL0     C 8426   7.763   1.615  10.434  0.0038 -0.2966  1.2410
  804MOL0     C 8427   7.855   1.719  10.358  0.5043 -0.4438  0.3336
  804MOL0     C 8428   7.809   1.791  10.231  0.3229  0.1588  0.6751
  804MOL0     O 8429   7.689   1.867  10.261  0.1650  0.2838 -0.6486
  804MOL0     C 8430   7.630   1.909  10.147 -0.5383  0.1751  0.4173
  804MOL0     C 8431   7.498   1.917  10.131  0.7394  0.4133  0.5096
  804MOL0     C 8432   7.436   1.956  10.012 -0.7081  1.1570 -0.4657
  804MOL0     C 8433   7.510   2.009   9.908  0.9210 -0.7681  0.0130
  804MOL0     C 8434   7.447   2.036   9.775 -0.0930 -0.8998  1.0225
  804MOL0     O 8435   7.323   1.991   9.745 -0.0161 -0.2568 -0.5129
  804MOL0     C 8436   7.254   2.037   9.633 -0.9208  0.2538 -0.0938
  804MOL0     C 8437   7.182   1.948   9.551 -0.2209 -1.2649  0.3538
  804MOL0     C 8438   7.098   1.992   9.449  0.3074 -0.6437  0.1773
  804MOL0     C 8439   7.108   2.125   9.402  1.2404 -0.0928 -0.8302
  804MOL0     O 8440   7.029   2.169   9.290 -0.4780 -0.0780 -0.6401
  804MOL0     C 8441   6.923   2.085   9.224 -0.3283 -0.9524 -0.5262
  804MOL0     C 8442   6.858   2.177   9.118  0.0624 -0.6863  1.2819
  804MOL0     C 8443   6.945   2.231   8.999 -0.7147  1.0391 -1.0305
  804MOL0     C 8444   6.935   2.157   8.866 -0.2278  0.1946  0.5026
  804MOL0     C 8445   7.055   2.196   8.784  0.2743 -0.9019  0.1832
  804MOL0     C 8446   7.080   2.112   8.659 -0.5995  0.0283  0.5969
  804MOL0     C 8447   7.220   2.117   8.605  0.0462  0.0145  0.6030
  804MOL0     C 8448   7.226   2.062   8.458 -1.1368  0.3993  0.5209
  804MOL0    Cl 8449   7.397   2.045   8.412 -0.3323 -0.5782  0.1280
  804MOL0     C 8450   7.193   2.210   9.482 -0.1211 -0.2675  0.0289
  804MOL0     C 8451   7.260   2.166   9.597 -0.0213 -0.4384  0.8240
  804MOL0     O 8452   7.526   2.083   9.689  0.5348  0.2454 -0.9855
  804MOL0     C 8453   7.644   2.022   9.930 -0.1607 -0.3109  0.2220
  804MOL0     C 8454   7.703   1.968  10.050 -0.3385 -0.5626  0.0536
  804MOL0     N 8455   7.802   1.423  10.161  0.8051 -0.1794  0.1365
  804MOL0     N 8456   7.869   1.308  10.141  0.1808  0.0680 -0.0419
  804MOL0     C 8457   8.283   0.230  10.315 -0.8480  0.6041  0.3519
  804MOL0     C 8458   8.248   0.113  10.244  0.1306  0.0587  0.3698
  804MOL0     C 8459   8.034  -0.089   9.901 -0.1584  0.5189  0.0303
  804MOL0     C 8460   8.125  -0.103   9.791 -0.5616  0.1669 -1.1642
  804MOL0     C 8461   8.103  -0.205   9.695  0.4989  0.7449  0.9760
  804MOL0     C 8462   7.986  -0.291   9.698  0.0140 -0.5727  0.2258
  804MOL0     O 8463   7.963  -0.389   9.606  0.2251 -0.4563 -0.2831
  804MOL0     C 8464   7.859  -0.485   9.621  0.0219 -0.0502  0.9849
  804MOL0     C 8465   7.878  -0.602   9.717 -0.3370 -0.5524 -0.2785
  804MOL0     C 8466   7.764  -0.713   9.716  0.0115 -0.2355  0.8954
  804MOL0     C 8467   7.777  -0.791   9.837 -0.7696  0.3606  0.3520
  804MOL0     C 8468   7.690  -0.906   9.819  0.0532 -0.3361 -0.2091
  804MOL0     C 8469   7.619  -1.000   9.783  0.0049 -0.2377 -0.3562
  804MOL0     C 8470   7.894  -0.266   9.804  0.3158 -0.3210  0.2036
  804MOL0     C 8471   7.915  -0.168   9.900  0.3337  0.0971 -0.7319
  804MOL0     C 8472   7.805  -0.144   9.997  0.4928 -0.4040 -0.1131
  804MOL0     H 8473   8.256   0.222   9.926  0.2218 -3.6884 -0.5083
  804MOL0     H 8474   8.364   0.430  10.049 -0.2499  0.2922  1.5254
  804MOL0     H 8475   8.193   0.546  10.348  0.1156 -1.2525 -1.2102
  804MOL0     H 8476   8.254   0.432  10.467  0.3540  3.0151  2.7136
  804MOL0     H 8477   8.429   0.674  10.408 -0.4724  1.3465  0.9169
  804MOL0     H 8478   8.409   0.565  10.545 -2.5438 -0.6953  1.8443
  804MOL0     H 8479   8.246   0.710  10.636 -0.0997  1.8157 -0.4771
  804MOL0     H 8480   8.154   0.721  10.480 -0.4251 -0.1953  0.6530
  804MOL0     H 8481   8.371   0.901  10.565  1.0888  0.0474 -1.6291
  804MOL0     H 8482   8.335   0.879  10.399 -0.5801 -0.5563  0.0650
  804MOL0     H 8483   8.126   0.945  10.615  3.0893 -0.1629  1.4999
  804MOL0     H 8484   8.217   1.061  10.519 -1.9980  0.6296  0.5842
  804MOL0     H 8485   8.132   0.954  10.290  1.8437 -0.3380  0.8246
  804MOL0     H 8486   8.014   0.881  10.410  0.3281 -0.3034 -0.3715
  804MOL0     H 8487   8.078   1.178  10.373 -3.6194  2.1991  0.0001
  804MOL0     H 8488   7.955   1.116  10.480  0.3642  1.7989 -0.8145
  804MOL0     H 8489   7.932   1.052  10.185 -0.1307  1.3754 -0.7227
  804MOL0     H 8490   7.815   1.031  10.304  2.2021 -2.2778  0.3364
  804MOL0     H 8491   7.762   1.270  10.443  0.0564  3.1536  0.3196
  804MOL0     H 8492   7.613   1.586  10.277 -0.1545  0.6285 -0.0629
  804MOL0     H 8493   7.603   1.481  10.421 -0.4669 -1.2621 -2.2211
  804MOL0     H 8494   7.690   1.681  10.481  1.4639  0.4189  2.5998
  804MOL0     H 8495   7.817   1.552  10.506  0.3254 -0.2168  1.0691
  804MOL0     H 8496   7.950   1.671  10.330 -0.9966 -1.6891 -3.1723
  804MOL0     H 8497   7.877   1.797  10.431 -0.0742 -1.2601  1.3960
  804MOL0     H 8498   7.799   1.724  10.145 -0.7585 -1.8295  2.2506
  804MOL0     H 8499   7.883   1.866  10.201 -0.4128  1.0779  1.0823
  804MOL0     H 8500   7.429   1.880  10.207 -2.8816  0.8931 -2.2910
  804MOL0     H 8501   7.331   1.935   9.995 -1.2143  0.7336  2.5712
  804MOL0     H 8502   7.187   1.845   9.582  1.8327 -0.0102  5.0701
  804MOL0     H 8503   7.031   1.922   9.401  0.0551  0.8063 -1.6861
  804MOL0     H 8504   6.971   2.001   9.174  1.4385 -0.1685 -0.2119
  804MOL0     H 8505   6.843   2.054   9.293  1.9341 -0.3075  2.5986
  804MOL0     H 8506   6.763   2.138   9.080 -0.8626  2.4394  0.1082
  804MOL0     H 8507   6.832   2.272   9.165 -1.6343 -0.3453 -0.2040
  804MOL0     H 8508   6.936   2.340   8.993  2.7434  1.7163  2.4481
  804MOL0     H 8509   7.048   2.231   9.036 -1.9377  0.0429  2.7764
  804MOL0     H 8510   6.842   2.170   8.809 -0.9592 -1.4671  1.2862
  804MOL0     H 8511   6.949   2.054   8.900 -0.3276  0.5988  1.7962
  804MOL0     H 8512   7.142   2.194   8.850  0.1862  1.1733  0.4352
  804MOL0     H 8513   7.041   2.301   8.756 -1.7275 -0.9189  0.9682
  804MOL0     H 8514   7.050   2.009   8.680  1.3864 -0.5160  0.9826
  804MOL0     H 8515   7.016   2.165   8.587  3.5915  5.8767  0.5140
  804MOL0     H 8516   7.290   2.060   8.666  1.9417  0.6549 -0.8530
  804MOL0     H 8517   7.273   2.212   8.616  1.4031 -0.6866  0.3872
  804MOL0     H 8518   7.179   1.964   8.449  2.3075 -1.3235 -0.2012
  804MOL0     H 8519   7.182   2.135   8.389  0.2670 -1.7528 -2.9365
  804MOL0     H 8520   7.196   2.317   9.464 -1.6261 -0.1217  0.4551
  804MOL0     H 8521   7.315   2.248   9.642 -1.1972  0.8709 -0.0161
  804MOL0     H 8522   7.717   2.065   9.862  0.3832  0.3008  1.1630
  804MOL0     H 8523   7.811   1.983  10.049  0.3221 -4.2963 -0.0690
  804MOL0     H 8524   8.289   0.236  10.423 -0.4623 -1.1108  0.4551
  804MOL0     H 8525   8.224   0.023  10.300 -3.0460 -1.4292 -3.0237
  804MOL0     H 8526   8.220  -0.052   9.781 -0.3690 -0.5664 -3.5887
  804MOL0     H 8527   8.164  -0.232   9.609  3.8616 -0.3804  3.4898
  804MOL0     H 8528   7.857  -0.542   9.527 -3.2875  3.6973 -1.5442
  804MOL0     H 8529   7.755  -0.455   9.637  0.0408 -0.3769  1.7434
  804MOL0     H 8530   7.890  -0.565   9.819 -0.7999 -0.5495 -0.2217
  804MOL0     H 8531   7.967  -0.658   9.690  0.0590 -0.3994  0.6731
  804MOL0     H 8532   7.788  -0.779   9.633 -2.2983 -0.5178  0.3796
  804MOL0     H 8533   7.662  -0.675   9.720 -0.2086 -0.0982 -2.7417
  804MOL0     H 8534   7.877  -0.834   9.853 -1.3386  0.1573  4.5416
  804MOL0     H 8535   7.764  -0.730   9.927  1.5092  0.8096  0.4373
  804MOL0     H 8536   7.551  -1.076   9.750 -1.2214 -0.3791  2.2187
  804MOL0     H 8537   7.808  -0.333   9.795  2.5764 -3.4566  0.2939
  804MOL0     H 8538   7.844  -0.191  10.088  0.7441  0.8465  0.4429
  804MOL0     H 8539   7.786  -0.037  10.008  3.6267  0.0170  3.6463
  804MOL0     H 8540   7.723  -0.196   9.946  1.2527  2.0578 -4.3013
  805MOL0     O 8541   2.673   3.275   2.097  0.8704  0.7321  0.0448
  805MOL0     C 8542   2.637   3.235   1.984  0.8503 -0.1517 -0.1300
  805MOL0     O 8543   2.630   3.106   1.942  1.0385  0.0549 -0.2175
  805MOL0     C 8544   2.699   3.016   2.017 -0.9466 -0.3755  0.0116
  805MOL0     C 8545   2.826   2.972   1.965 -0.8739 -0.4709  0.3333
  805MOL0     C 8546   2.900   2.882   2.030  0.6298  0.5434 -0.8613
  805MOL0     C 8547   2.854   2.828   2.152 -0.7137  0.5717 -0.6591
  805MOL0     O 8548   2.906   2.724   2.228 -0.0321  0.0816  0.7346
  805MOL0     C 8549   3.045   2.716   2.223 -0.8537 -0.0941  0.5332
  805MOL0     C 8550   3.091   2.604   2.318 -0.3235  0.0296 -0.2087
  805MOL0     C 8551   3.227   2.556   2.289  0.5522 -0.1972  0.2796
  805MOL0     C 8552   3.336   2.665   2.290  0.3968  0.7185 -0.0385
  805MOL0     C 8553   3.480   2.610   2.280  0.5479  0.1748 -0.4027
  805MOL0     C 8554   3.585   2.732   2.297 -0.0982 -0.4196 -0.4808
  805MOL0     C 8555   3.594   2.785   2.439  0.2448 -0.7951 -0.5607
  805MOL0     C 8556   3.685   2.692   2.509  0.5094  0.8563 -0.0149
  805MOL0     N 8557   3.701   2.733   2.651  0.5494  0.6483  0.2130
  805MOL0     C 8558   3.824   2.701   2.700  0.0359 -0.1139  0.4620
  805MOL0     C 8559   3.805   2.695   2.835  0.4427 -1.3869  0.3684
  805MOL0     C 8560   3.903   2.665   2.940 -0.4119 -0.1718  0.0624
  805MOL0     C 8561   3.885   2.526   3.000 -0.9841  0.5178  0.8536
  805MOL0     C 8562   3.991   2.502   3.098 -0.9040  0.8355 -1.0631
  805MOL0     C 8563   3.972   2.359   3.146  0.3821 -0.3566 -0.1944
  805MOL0     O 8564   4.060   2.261   3.088  1.3189  0.1652 -0.2197
  805MOL0     C 8565   4.065   2.133   3.151  0.0106 -0.6658  0.0445
  805MOL0     C 8566   3.979   2.090   3.248 -0.9117 -0.7532 -0.1869
  805MOL0     C 8567   3.985   1.973   3.319 -1.2048 -0.4166 -0.2664
  805MOL0     C 8568   4.092   1.889   3.287  0.8838 -0.4324 -0.0731
  805MOL0     C 8569   4.106   1.759   3.355 -0.6735 -0.5217 -0.2836
  805MOL0     O 8570   4.215   1.679   3.313  0.6001 -0.1818  0.8398
  805MOL0     C 8571   4.219   1.544   3.344 -0.1965 -0.6447  0.0760
  805MOL0     C 8572   4.257   1.454   3.241  0.9131 -0.4027 -0.5173
  805MOL0     C 8573   4.286   1.318   3.275 -0.5010  0.7147  0.1655
  805MOL0     C 8574   4.281   1.257   3.400  0.2697 -0.4747 -0.9239
  805MOL0     O 8575   4.313   1.127   3.417  0.3732  0.7376 -0.3047
  805MOL0     C 8576   4.379   1.100   3.543  0.1268  0.2724 -0.3311
  805MOL0     C 8577   4.483   0.995   3.512  0.5534  0.0830  0.1277
  805MOL0     C 8578   4.570   0.957   3.623 -0.1656 -0.4863  0.0140
  805MOL0     C 8579   4.716   0.979   3.592  0.1398 -0.4020  0.9350
  805MOL0     C 8580   4.800   0.854   3.637  0.0469  0.3487  0.4606
  805MOL0     C 8581   4.950   0.858   3.592  0.4125  0.6064 -0.1665
  805MOL0     C 8582   5.029   0.955   3.668 -0.0267 -0.3656  0.4116
  805MOL0     C 8583   5.150   1.002   3.594 -0.7286 -0.0528 -0.2157
  805MOL0    Cl 8584   5.248   0.875   3.547 -0.3268  0.6794 -0.2810
  805MOL0     C 8585   4.249   1.345   3.501  0.0854  0.5061 -0.3893
  805MOL0     C 8586   4.220   1.483   3.473  0.0372  0.0991  0.3135
  805MOL0     O 8587   4.028   1.724   3.439 -0.1721  0.2556 -0.1166
  805MOL0     C 8588   4.174   1.926   3.177  0.5642  0.1321  0.5908
  805MOL0     C 8589   4.168   2.048   3.115  0.2330  0.2004 -0.3283
  805MOL0     N 8590   3.679   2.740   2.867  0.0483  0.2334 -0.0994
  805MOL0     N 8591   3.608   2.750   2.752  0.1015 -0.2033 -0.2523
  805MOL0     C 8592   2.730   2.867   2.196 -0.8790  0.3631 -0.8643
  805MOL0     C 8593   2.654   2.964   2.139  0.0005  0.1730 -0.7975
  805MOL0     C 8594   2.581   3.337   1.887  0.2448  0.4103 -0.1980
  805MOL0     C 8595   2.584   3.316   1.747  0.4452  0.0362  0.0944
  805MOL0     C 8596   2.542   3.411   1.656  0.1774  0.7034  0.2569
  805MOL0     C 8597   2.495   3.537   1.710 -0.8032  0.3972 -0.1582
  805MOL0     O 8598   2.443   3.632   1.624  0.6308  0.0744  0.1419
  805MOL0     C 8599   2.301   3.651   1.656  0.0293  0.0520 -0.3830
  805MOL0     C 8600   2.247   3.713   1.527  0.3078 -0.0903 -0.1009
  805MOL0     C 8601   2.220   3.595   1.424  0.2298  0.0536  0.5043
  805MOL0     C 8602   2.343   3.553   1.335 -0.7491 -0.2050 -0.3577
  805MOL0     C 8603   2.302   3.435   1.259  0.2692 -0.4610 -0.6182
  805MOL0     C 8604   2.277   3.338   1.184  0.1746 -0.6097 -0.0292
  805MOL0     C 8605   2.488   3.563   1.848 -0.2399 -0.0281  0.5978
  805MOL0     C 8606   2.534   3.466   1.936  0.6590  0.2460 -0.3912
  805MOL0     C 8607   2.512   3.503   2.079 -0.1474 -0.8285  0.3280
  805MOL0     H 8608   2.858   2.997   1.865  0.5138 -2.6962  0.1424
  805MOL0     H 8609   2.990   2.848   1.979 -0.6136 -3.4745 -0.7139
  805MOL0     H 8610   3.072   2.684   2.121  0.8458 -2.1594  1.5521
  805MOL0     H 8611   3.093   2.809   2.255  1.2501 -1.4775  1.6592
  805MOL0     H 8612   3.021   2.521   2.307 -1.2119  1.0251 -2.6840
  805MOL0     H 8613   3.094   2.648   2.418 -4.2780  1.2245 -0.4543
  805MOL0     H 8614   3.226   2.512   2.189  1.3593  0.6958 -0.1345
  805MOL0     H 8615   3.243   2.486   2.372 -0.2062  1.7035  2.1159
  805MOL0     H 8616   3.324   2.730   2.203  0.4335  1.2216  0.3283
  805MOL0     H 8617   3.326   2.716   2.386 -1.9943 -1.6263  1.0893
  805MOL0     H 8618   3.488   2.535   2.359 -1.7382  3.2659  3.0951
  805MOL0     H 8619   3.495   2.556   2.186  4.2576 -1.4121  0.9324
  805MOL0     H 8620   3.683   2.694   2.267  0.0905 -0.1248 -0.2420
  805MOL0     H 8621   3.556   2.810   2.226 -0.8128 -0.6805 -0.4807
  805MOL0     H 8622   3.497   2.792   2.488 -0.3250 -1.3283 -1.5799
  805MOL0     H 8623   3.638   2.885   2.448 -2.6469  0.5536 -0.3815
  805MOL0     H 8624   3.627   2.602   2.533  2.8003 -0.8224 -0.3692
  805MOL0     H 8625   3.768   2.651   2.451 -0.2628  1.3633 -1.5245
  805MOL0     H 8626   3.909   2.668   2.642 -1.3947  0.9487 -2.4353
  805MOL0     H 8627   4.005   2.682   2.903 -0.3351  3.0917  1.4404
  805MOL0     H 8628   3.904   2.747   3.012  1.9697  4.4541 -4.5631
  805MOL0     H 8629   3.790   2.519   3.054 -2.1672  2.7590 -0.7961
  805MOL0     H 8630   3.897   2.455   2.917 -0.1908  1.4467  0.1640
  805MOL0     H 8631   3.979   2.564   3.188 -0.3946  0.8912 -1.0304
  805MOL0     H 8632   4.095   2.516   3.068 -1.7944 -0.1453 -5.1353
  805MOL0     H 8633   3.868   2.328   3.131 -0.0754  0.9765  0.0501
  805MOL0     H 8634   3.994   2.356   3.254 -0.5702 -3.0751 -0.0037
  805MOL0     H 8635   3.905   2.162   3.282  0.4236  1.4349 -1.6226
  805MOL0     H 8636   3.911   1.954   3.395  0.7713 -1.3792  1.5292
  805MOL0     H 8637   4.268   1.487   3.138 -2.4471 -2.2488 -1.6310
  805MOL0     H 8638   4.332   1.259   3.196 -1.6113 -1.1277  0.8130
  805MOL0     H 8639   4.424   1.194   3.577  1.1403  1.1285 -3.5952
  805MOL0     H 8640   4.312   1.058   3.618  1.5209 -3.3531 -0.9250
  805MOL0     H 8641   4.432   0.905   3.476 -1.6785 -0.3009  3.7421
  805MOL0     H 8642   4.544   1.030   3.428  2.9895 -1.8195  0.9947
  805MOL0     H 8643   4.522   1.004   3.710 -1.1554 -0.6704 -0.4125
  805MOL0     H 8644   4.565   0.848   3.631  1.0415 -0.7068 -1.7081
  805MOL0     H 8645   4.742   1.076   3.636  0.5416  0.0746 -0.3259
  805MOL0     H 8646   4.728   0.992   3.484  0.1473  1.0220  1.0790
  805MOL0     H 8647   4.762   0.762   3.591 -0.1814  0.0024  1.3252
  805MOL0     H 8648   4.789   0.828   3.742 -2.1595 -0.5587  0.0564
  805MOL0     H 8649   4.992   0.758   3.600  1.3314  1.0449  0.6606
  805MOL0     H 8650   4.953   0.875   3.484 -0.0550 -3.2965 -0.9264
  805MOL0     H 8651   5.059   0.906   3.761 -2.8301  1.3958  2.4174
  805MOL0     H 8652   4.966   1.042   3.688  1.2940  1.0690 -1.4058
  805MOL0     H 8653   5.119   1.059   3.507 -0.8307 -0.3467 -0.3738
  805MOL0     H 8654   5.208   1.073   3.653 -0.0028 -0.1322 -0.8256
  805MOL0     H 8655   4.239   1.321   3.607  3.6372  4.5923  1.1822
  805MOL0     H 8656   4.190   1.537   3.563  1.9790 -0.7145  1.5109
  805MOL0     H 8657   4.262   1.867   3.157  2.4048  2.4149  1.4627
  805MOL0     H 8658   4.247   2.081   3.048 -1.2988 -0.1213 -2.4000
  805MOL0     H 8659   2.703   2.806   2.282 -0.8077  1.6825  0.1296
  805MOL0     H 8660   2.565   2.994   2.193  0.0474 -2.3601  0.8845
  805MOL0     H 8661   2.613   3.221   1.703  1.3120  1.0745 -1.6800
  805MOL0     H 8662   2.547   3.405   1.548  0.0022  1.7451  0.1810
  805MOL0     H 8663   2.271   3.721   1.735 -2.0609  3.1770 -3.6262
  805MOL0     H 8664   2.257   3.552   1.673  0.8430 -0.2326  0.1369
  805MOL0     H 8665   2.314   3.793   1.496 -1.2385  1.4657  0.4287
  805MOL0     H 8666   2.157   3.771   1.547  1.9712  2.7243 -0.1911
  805MOL0     H 8667   2.135   3.630   1.366 -0.2923 -1.0007  0.6184
  805MOL0     H 8668   2.185   3.502   1.470 -0.8011  1.7978  3.5463
  805MOL0     H 8669   2.373   3.630   1.262 -2.6367  1.3651  0.4336
  805MOL0     H 8670   2.426   3.523   1.400  0.6915 -1.2370 -2.5542
  805MOL0     H 8671   2.264   3.244   1.135 -1.5524 -0.4512  0.0754
  805MOL0     H 8672   2.469   3.661   1.891  0.9791 -0.3464  1.9582
  805MOL0     H 8673   2.426   3.569   2.086  0.2234 -0.1482 -1.1979
  805MOL0     H 8674   2.496   3.412   2.137 -0.4861 -1.2768 -0.4648
  805MOL0     H 8675   2.596   3.560   2.121 -0.5731  0.9991 -1.1642
  806MOL0     O 8676   2.224  10.060  10.204 -0.2334 -0.5730 -0.3434
  806MOL0     C 8677   2.263  10.080  10.328  0.1662 -0.5069  0.9360
  806MOL0     O 8678   2.344   9.995  10.396 -0.0094 -0.3670  0.0827
  806MOL0     C 8679   2.370   9.873  10.334  0.4124 -0.1749 -0.2175
  806MOL0     C 8680   2.496   9.841  10.298 -0.0703  0.2611 -0.4090
  806MOL0     C 8681   2.543   9.716  10.242 -0.7182  0.4245 -0.7004
  806MOL0     C 8682   2.446   9.622  10.216 -0.6180  0.2286  0.6166
  806MOL0     O 8683   2.466   9.508  10.139 -0.5233  0.2509  0.4273
  806MOL0     C 8684   2.405   9.501   9.999  0.0627 -0.5660 -0.4738
  806MOL0     C 8685   2.523   9.473   9.905  1.0636 -0.0724  0.3386
  806MOL0     C 8686   2.480   9.448   9.755  1.0138 -0.4705  0.0313
  806MOL0     C 8687   2.409   9.317   9.726 -0.3387  0.8922  0.2809
  806MOL0     C 8688   2.379   9.278   9.575  0.3749  0.3318 -0.1708
  806MOL0     C 8689   2.478   9.314   9.460  0.9304  0.2237 -0.3623
  806MOL0     C 8690   2.428   9.240   9.331  0.6361 -0.3946 -0.0815
  806MOL0     C 8691   2.302   9.296   9.282 -0.9848  0.5095 -0.2879
  806MOL0     N 8692   2.259   9.223   9.169  0.2559 -0.6368 -0.4889
  806MOL0     C 8693   2.150   9.145   9.149  0.7835 -0.2152 -0.9271
  806MOL0     C 8694   2.165   9.101   9.024 -0.1701 -0.1499  0.1962
  806MOL0     C 8695   2.079   8.993   8.954  0.2428 -0.2256  0.6326
  806MOL0     C 8696   2.026   9.064   8.831  0.2523  0.0183  0.2330
  806MOL0     C 8697   1.919   8.980   8.759 -0.0446  0.1460 -0.6754
  806MOL0     C 8698   1.898   9.050   8.626  0.0176  0.4657 -0.9854
  806MOL0     O 8699   1.840   9.177   8.648 -0.7711  0.5132 -0.2109
  806MOL0     C 8700   1.891   9.270   8.562  0.7022 -0.3159 -0.3657
  806MOL0     C 8701   1.865   9.408   8.589 -0.4392  0.6463 -0.1823
  806MOL0     C 8702   1.923   9.514   8.512 -0.4022  0.2815  0.0499
  806MOL0     C 8703   1.991   9.490   8.393  0.0103 -0.2939 -0.2001
  806MOL0     C 8704   2.038   9.606   8.314 -0.1658  1.8908  0.7728
  806MOL0     O 8705   1.986   9.730   8.340  0.2217  0.0948 -1.2602
  806MOL0     C 8706   2.031   9.845   8.276 -0.1147  0.3626  0.1026
  806MOL0     C 8707   2.051   9.974   8.342  0.8949  0.3004 -0.1783
  806MOL0     C 8708   2.084  10.089   8.267 -1.0273 -0.0252  0.6900
  806MOL0     C 8709   2.099  10.077   8.125 -0.1588 -1.2007  0.5398
  806MOL0     O 8710   2.149  10.169   8.037 -0.2696 -0.5993 -0.1960
  806MOL0     C 8711   2.174  10.302   8.089 -0.6422 -0.2607  1.0656
  806MOL0     C 8712   2.198  10.400   7.975  0.6845 -0.5127  0.2253
  806MOL0     C 8713   2.257  10.535   8.030  0.6375 -0.5716  0.6862
  806MOL0     C 8714   2.235  10.646   7.932  0.3956  0.7216 -0.0111
  806MOL0     C 8715   2.281  10.783   8.001  0.3874  0.3087 -0.1270
  806MOL0     C 8716   2.157  10.842   8.087 -0.5246 -0.5340 -0.5574
  806MOL0     C 8717   2.204  10.960   8.167 -0.4891 -0.5888 -0.4646
  806MOL0     C 8718   2.091  11.066   8.180 -0.5006  0.7162 -0.4577
  806MOL0    Cl 8719   1.945  11.008   8.258 -0.1436 -0.2163  0.1648
  806MOL0     C 8720   2.073   9.957   8.062  0.3938 -1.3205  0.4768
  806MOL0     C 8721   2.043   9.837   8.137 -0.0878 -0.0066  0.2477
  806MOL0     O 8722   2.130   9.571   8.235 -0.2267  0.0108 -0.4893
  806MOL0     C 8723   2.018   9.355   8.368  0.6295  0.7205  0.4887
  806MOL0     C 8724   1.966   9.245   8.451 -0.1331  0.5712 -0.2614
  806MOL0     N 8725   2.269   9.161   8.960  0.7428 -0.2624 -0.5154
  806MOL0     N 8726   2.328   9.233   9.050  0.9123 -0.0339 -0.9829
  806MOL0     C 8727   2.315   9.654  10.240 -0.0091  0.5841 -0.5504
  806MOL0     C 8728   2.279   9.767  10.314  0.2084 -1.0779 -0.2396
  806MOL0     C 8729   2.233  10.214  10.387  0.5246 -0.0030  0.2017
  806MOL0     C 8730   2.183  10.309  10.309  0.8191  0.0581 -0.1575
  806MOL0     C 8731   2.162  10.438  10.343 -0.7746  0.0795 -0.6827
  806MOL0     C 8732   2.192  10.480  10.472 -0.1402 -0.6533 -0.2870
  806MOL0     O 8733   2.183  10.615  10.494  0.1983 -0.3875 -0.6758
  806MOL0     C 8734   2.209  10.666  10.636  0.8559  0.0682  0.1622
  806MOL0     C 8735   2.085  10.665  10.721 -0.0714 -0.4687  0.0414
  806MOL0     C 8736   1.959  10.722  10.652  0.1384  0.0904  0.2867
  806MOL0     C 8737   1.840  10.695  10.740  0.0372  0.0101 -0.4909
  806MOL0     C 8738   1.810  10.808  10.832  0.0531  0.4970  0.0464
  806MOL0     C 8739   1.776  10.908  10.894 -0.2855 -0.4181 -0.6194
  806MOL0     C 8740   2.218  10.388  10.566 -1.0933  0.1061  0.4703
  806MOL0     C 8741   2.242  10.252  10.523 -0.1028  0.3749  0.1324
  806MOL0     C 8742   2.253  10.159  10.641  0.1676  0.2546  0.5796
  806MOL0     H 8743   2.575   9.913  10.317  1.2150 -1.1015 -0.4351
  806MOL0     H 8744   2.645   9.689  10.214 -1.2208 -0.6433 -1.5705
  806MOL0     H 8745   2.320   9.433   9.999  1.5142 -2.4823 -0.7582
  806MOL0     H 8746   2.364   9.599   9.976 -0.5290 -1.2456 -2.5927
  806MOL0     H 8747   2.581   9.390   9.947  1.1250  1.3273  3.2445
  806MOL0     H 8748   2.601   9.549   9.910  1.8220 -0.9185  2.2405
  806MOL0     H 8749   2.564   9.437   9.686 -1.1168 -3.0198 -2.4219
  806MOL0     H 8750   2.418   9.535   9.732 -0.5893 -1.3585  0.8439
  806MOL0     H 8751   2.473   9.236   9.763 -0.6266  1.3762  1.9250
  806MOL0     H 8752   2.317   9.319   9.784  0.2501 -0.3340  1.3128
  806MOL0     H 8753   2.372   9.169   9.575 -0.5260  0.3792  0.1364
  806MOL0     H 8754   2.282   9.320   9.545 -0.9318 -2.4653 -0.1329
  806MOL0     H 8755   2.480   9.423   9.453 -0.2520  0.3460  0.7740
  806MOL0     H 8756   2.578   9.281   9.487  1.1060  1.9209  1.2719
  806MOL0     H 8757   2.422   9.136   9.362 -1.6666  0.2280  1.8770
  806MOL0     H 8758   2.506   9.257   9.256  2.0956 -0.8856  1.2698
  806MOL0     H 8759   2.233   9.288   9.367 -0.8972  2.9506  0.0876
  806MOL0     H 8760   2.319   9.401   9.254 -0.2683  0.0371 -1.6928
  806MOL0     H 8761   2.074   9.115   9.221 -0.5336 -0.5162 -2.3976
  806MOL0     H 8762   2.143   8.909   8.927  1.8503  0.7096  1.4017
  806MOL0     H 8763   1.992   8.954   9.007  0.3553 -1.3944 -0.0127
  806MOL0     H 8764   1.974   9.154   8.866 -0.8111 -0.7699  0.7568
  806MOL0     H 8765   2.113   9.080   8.767  1.3336  0.8831  1.8672
  806MOL0     H 8766   1.828   8.977   8.819  0.1889  0.5333 -0.3025
  806MOL0     H 8767   1.952   8.879   8.733  1.7368  0.9288 -1.6169
  806MOL0     H 8768   1.843   8.986   8.556  0.4471 -0.8689 -0.1474
  806MOL0     H 8769   1.997   9.062   8.582  0.2811  0.2558 -0.4532
  806MOL0     H 8770   1.803   9.431   8.675  0.1206 -1.0720  0.7284
  806MOL0     H 8771   1.887   9.613   8.541  0.8268  0.1163  2.3815
  806MOL0     H 8772   2.032   9.968   8.448 -2.0910  0.0857 -0.6429
  806MOL0     H 8773   2.094  10.186   8.315 -3.0529  1.5619 -1.8338
  806MOL0     H 8774   2.097  10.333   8.159 -0.3342  0.9215  0.9080
  806MOL0     H 8775   2.265  10.307   8.149 -0.3685  4.2755  0.6862
  806MOL0     H 8776   2.270  10.357   7.905 -0.0446 -3.6976  1.2664
  806MOL0     H 8777   2.105  10.425   7.923  0.0452  0.6957  1.8592
  806MOL0     H 8778   2.202  10.562   8.121  0.7808 -0.0213  0.6125
  806MOL0     H 8779   2.361  10.533   8.063 -0.1425 -0.4062  3.4368
  806MOL0     H 8780   2.132  10.654   7.898 -0.3918 -0.4821  1.9211
  806MOL0     H 8781   2.288  10.633   7.837 -0.5588  2.9908 -0.9228
  806MOL0     H 8782   2.300  10.846   7.914  1.7672 -0.0034 -0.0676
  806MOL0     H 8783   2.365  10.763   8.069  1.4507  1.4197 -1.0699
  806MOL0     H 8784   2.077  10.879   8.021  1.1145 -0.0469 -2.3575
  806MOL0     H 8785   2.119  10.757   8.144 -1.8826 -2.0741 -3.5507
  806MOL0     H 8786   2.284  11.014   8.117  0.5751 -0.8224  0.9424
  806MOL0     H 8787   2.237  10.921   8.264 -0.7178  1.5133  0.5066
  806MOL0     H 8788   2.129  11.143   8.247 -0.5723  0.7760 -0.4864
  806MOL0     H 8789   2.067  11.109   8.082  2.2731  1.1693 -1.0136
  806MOL0     H 8790   2.054   9.954   7.955  0.5536 -0.4298  0.4152
  806MOL0     H 8791   2.019   9.745   8.085 -1.6923 -0.5002  1.7416
  806MOL0     H 8792   2.072   9.336   8.276 -2.1010  2.0923 -1.5166
  806MOL0     H 8793   1.985   9.153   8.397 -2.3752  1.4917 -2.8307
  806MOL0     H 8794   2.233   9.583  10.234  0.4138  0.0458 -0.0189
  806MOL0     H 8795   2.175   9.783  10.339  0.3173  0.8048 -0.8649
  806MOL0     H 8796   2.183  10.288  10.202  1.3214 -0.9965  0.0342
  806MOL0     H 8797   2.130  10.521  10.280  0.7463  0.5213 -0.8991
  806MOL0     H 8798   2.236  10.772  10.624  0.2728  0.2946  0.7814
  806MOL0     H 8799   2.290  10.612  10.685  0.3005  0.2386  1.2992
  806MOL0     H 8800   2.111  10.712  10.816  4.5461 -2.0898 -0.1777
  806MOL0     H 8801   2.065  10.560  10.742  2.7596 -0.9004  0.9933
  806MOL0     H 8802   1.937  10.667  10.560 -1.7857 -0.0248  0.7670
  806MOL0     H 8803   1.962  10.829  10.630  3.0076 -0.1362 -0.7695
  806MOL0     H 8804   1.751  10.718  10.681 -0.6311 -0.5778  0.2743
  806MOL0     H 8805   1.837  10.592  10.775 -0.5577  0.7412  1.7376
  806MOL0     H 8806   1.746  10.989  10.959 -0.0898 -2.5515  2.3582
  806MOL0     H 8807   2.225  10.402  10.673 -0.7227 -1.2203  0.6437
  806MOL0     H 8808   2.195  10.067  10.627 -1.9747  1.4022  1.4510
  806MOL0     H 8809   2.355  10.140  10.677 -0.2879  0.1811  1.8912
  806MOL0     H 8810   2.200  10.209  10.722 -0.5306  1.1478 -0.4094
  807MOL0     O 8811   3.498   9.529   9.716  0.2500  0.2289  0.0740
  807MOL0     C 8812   3.611   9.540   9.673 -0.7367  0.5296  0.0786
  807MOL0     O 8813   3.663   9.477   9.556  0.5398 -0.2730 -0.7724
  807MOL0     C 8814   3.585   9.385   9.488  0.4797 -0.0917 -0.6929
  807MOL0     C 8815   3.538   9.272   9.553 -0.4769 -0.2207 -0.0582
  807MOL0     C 8816   3.481   9.167   9.478 -0.3398 -0.5531 -0.3906
  807MOL0     C 8817   3.478   9.177   9.337 -0.0003  0.0730  0.0628
  807MOL0     O 8818   3.428   9.068   9.267 -0.5888 -0.3977 -0.2048
  807MOL0     C 8819   3.393   9.082   9.129 -0.0075 -0.2843  0.5299
  807MOL0     C 8820   3.340   8.952   9.073  0.3024 -0.6144  0.8594
  807MOL0     C 8821   3.303   8.970   8.927 -0.6171  0.0478  0.0451
  807MOL0     C 8822   3.419   9.016   8.836 -0.1039  0.1501  0.4457
  807MOL0     C 8823   3.382   9.047   8.693  0.6817 -0.1288  0.1754
  807MOL0     C 8824   3.276   9.139   8.648  0.8867  0.2951 -0.9394
  807MOL0     C 8825   3.233   9.099   8.494 -1.1134 -0.3337  0.7632
  807MOL0     C 8826   3.114   9.183   8.441  0.8294  0.1121  1.1104
  807MOL0     N 8827   3.032   9.110   8.344 -0.8217 -0.1279  0.2843
  807MOL0     C 8828   3.044   9.122   8.210 -0.2991  0.0908  0.0019
  807MOL0     C 8829   2.939   9.058   8.156  1.1247  0.0191  0.4561
  807MOL0     C 8830   2.917   9.025   8.013 -0.6846 -0.2756 -0.4012
  807MOL0     C 8831   3.013   8.921   7.954  0.0439  0.4106 -0.4137
  807MOL0     C 8832   3.146   8.983   7.918 -0.3811  0.3872 -1.1480
  807MOL0     C 8833   3.215   8.887   7.818 -0.5946 -0.0387 -0.8110
  807MOL0     O 8834   3.355   8.917   7.802 -0.0077 -0.4776 -0.4397
  807MOL0     C 8835   3.450   8.835   7.750 -1.1907 -0.4367  0.3822
  807MOL0     C 8836   3.433   8.719   7.698  0.9435  0.9065 -0.4617
  807MOL0     C 8837   3.540   8.650   7.633 -0.5960 -0.6556  0.5070
  807MOL0     C 8838   3.670   8.694   7.626  0.2930 -1.0848 -0.8005
  807MOL0     C 8839   3.774   8.622   7.547  0.7228 -0.4509  0.1465
  807MOL0     O 8840   3.752   8.491   7.526  0.5580 -0.7046 -0.2034
  807MOL0     C 8841   3.851   8.407   7.501 -0.4671  0.3791 -0.4119
  807MOL0     C 8842   3.808   8.274   7.462  0.4027 -1.1417 -1.1416
  807MOL0     C 8843   3.904   8.180   7.428 -0.4860 -0.5852 -0.1581
  807MOL0     C 8844   4.044   8.198   7.449  0.6363  0.0041 -0.0139
  807MOL0     O 8845   4.144   8.113   7.420 -0.0110  0.8341 -0.3488
  807MOL0     C 8846   4.124   8.023   7.307  0.4859  0.2243  0.2067
  807MOL0     C 8847   4.115   8.099   7.171 -0.2390  0.8663 -0.5130
  807MOL0     C 8848   4.110   7.992   7.061 -0.2793 -1.0467 -0.1002
  807MOL0     C 8849   4.060   8.050   6.925  0.1032  0.0730  0.2752
  807MOL0     C 8850   4.102   7.959   6.809 -0.7892 -0.5533 -0.0745
  807MOL0     C 8851   3.992   7.949   6.693 -0.4652 -0.1334 -0.0967
  807MOL0     C 8852   4.031   7.885   6.557 -0.4776  1.0228 -0.0904
  807MOL0     C 8853   3.919   7.894   6.453  0.0368  0.1599  0.1525
  807MOL0    Cl 8854   3.943   7.777   6.326 -0.4322 -0.3542  0.1469
  807MOL0     C 8855   4.085   8.318   7.496 -0.0561  0.1523 -0.4565
  807MOL0     C 8856   3.995   8.420   7.523  1.1420 -0.3564  0.7726
  807MOL0     O 8857   3.865   8.684   7.506  0.1220 -0.0198 -0.5119
  807MOL0     C 8858   3.685   8.818   7.691 -0.7691  0.5717 -0.6196
  807MOL0     C 8859   3.579   8.886   7.755  0.4060  0.0017 -0.1364
  807MOL0     N 8860   2.872   9.002   8.263 -0.0021 -0.5494 -0.0349
  807MOL0     N 8861   2.930   9.023   8.373  0.0505 -0.5295  0.5960
  807MOL0     C 8862   3.546   9.281   9.273  1.1474 -0.0498  0.0280
  807MOL0     C 8863   3.597   9.386   9.354  1.0516  0.3253 -0.2043
  807MOL0     C 8864   3.715   9.591   9.771 -0.4603  0.4920  0.1781
  807MOL0     C 8865   3.849   9.549   9.746 -0.5017 -0.4304 -0.6902
  807MOL0     C 8866   3.957   9.597   9.826  0.1331  0.2103 -0.2927
  807MOL0     C 8867   3.937   9.679   9.938  0.3352  0.4571 -0.5046
  807MOL0     O 8868   4.043   9.720  10.025  0.9145  0.3889  0.6669
  807MOL0     C 8869   4.166   9.649  10.039  0.0028 -0.3521  0.3467
  807MOL0     C 8870   4.267   9.744  10.111  0.0184  0.7041  0.2176
  807MOL0     C 8871   4.318   9.863  10.031 -0.1993 -0.1625  1.2646
  807MOL0     C 8872   4.391   9.961  10.124  1.5294  1.4599 -0.0777
  807MOL0     C 8873   4.509   9.893  10.180 -0.2826 -0.4621 -0.1328
  807MOL0     C 8874   4.610   9.835  10.222  0.5991  0.3862  0.1170
  807MOL0     C 8875   3.809   9.722   9.963  0.1184 -0.0560 -0.1310
  807MOL0     C 8876   3.697   9.678   9.884 -0.4701  0.4131  0.0520
  807MOL0     C 8877   3.562   9.744   9.911 -0.4769 -0.1092 -0.4894
  807MOL0     H 8878   3.535   9.271   9.661 -0.1245  1.2360 -0.0121
  807MOL0     H 8879   3.434   9.081   9.524  2.9793 -1.4209  1.7324
  807MOL0     H 8880   3.311   9.154   9.120 -0.1916 -0.5459  0.0847
  807MOL0     H 8881   3.483   9.105   9.072  0.9240 -0.8579  1.7333
  807MOL0     H 8882   3.248   8.922   9.123 -0.3918  2.3745  1.5841
  807MOL0     H 8883   3.413   8.871   9.076 -1.9869 -2.8136  0.6754
  807MOL0     H 8884   3.220   9.041   8.915 -0.4644  0.1973 -0.1307
  807MOL0     H 8885   3.268   8.872   8.891  0.6298 -0.6589  0.6735
  807MOL0     H 8886   3.455   9.113   8.874 -1.0576  1.1584 -1.1160
  807MOL0     H 8887   3.502   8.945   8.844  0.2951  0.6275  0.6532
  807MOL0     H 8888   3.480   9.072   8.651  1.7205  1.6979  3.3894
  807MOL0     H 8889   3.355   8.953   8.644  0.1282  0.8504 -1.4695
  807MOL0     H 8890   3.200   9.141   8.727  2.2736  1.1275  0.4246
  807MOL0     H 8891   3.313   9.241   8.637  0.6396  0.5981  0.7745
  807MOL0     H 8892   3.218   8.991   8.488 -0.4346 -0.5436  2.3431
  807MOL0     H 8893   3.317   9.125   8.430 -3.8352  0.3521 -2.7989
  807MOL0     H 8894   3.048   9.212   8.523 -0.6346 -1.7205  0.6677
  807MOL0     H 8895   3.145   9.273   8.387  0.9586  0.9620  2.5567
  807MOL0     H 8896   3.114   9.177   8.149  0.4522  0.0736  0.8204
  807MOL0     H 8897   2.817   8.981   8.009 -0.2111 -1.3331 -1.0889
  807MOL0     H 8898   2.918   9.113   7.949 -0.7316  0.5469  0.7060
  807MOL0     H 8899   3.044   8.842   8.023  2.8113  0.0625 -1.8907
  807MOL0     H 8900   2.961   8.876   7.869 -0.2235 -0.5880  0.2490
  807MOL0     H 8901   3.214   8.980   8.003 -0.7781 -1.5959 -0.8503
  807MOL0     H 8902   3.154   9.090   7.894 -0.4180  1.9328  4.4660
  807MOL0     H 8903   3.165   8.896   7.721  1.5221  0.8003 -1.8971
  807MOL0     H 8904   3.207   8.782   7.850  2.4602  0.3330  1.6516
  807MOL0     H 8905   3.337   8.669   7.689  2.4969 -2.2607 -0.7567
  807MOL0     H 8906   3.508   8.552   7.600  1.3294 -0.4444 -2.4123
  807MOL0     H 8907   3.706   8.243   7.442  0.2902 -0.2394 -2.0187
  807MOL0     H 8908   3.867   8.090   7.380 -0.5099 -0.6323 -0.0504
  807MOL0     H 8909   4.204   7.949   7.299 -0.3562 -0.6515 -0.1966
  807MOL0     H 8910   4.038   7.957   7.311  1.8336 -1.5366  1.6781
  807MOL0     H 8911   4.021   8.154   7.154  0.9021  2.0673 -3.5093
  807MOL0     H 8912   4.206   8.157   7.154  0.5772 -0.6422 -1.4352
  807MOL0     H 8913   4.208   7.944   7.059 -0.3304 -1.2987  1.9107
  807MOL0     H 8914   4.033   7.919   7.087 -2.1618  0.9423  0.2119
  807MOL0     H 8915   4.102   8.149   6.909  0.6428 -0.4505 -1.8956
  807MOL0     H 8916   3.951   8.053   6.936  0.3021  0.7933  2.4157
  807MOL0     H 8917   4.127   7.862   6.853  2.3199  1.3325  2.7725
  807MOL0     H 8918   4.198   7.991   6.767  0.3090 -1.4008  1.6598
  807MOL0     H 8919   3.903   7.890   6.721 -0.7185  0.9616  1.5893
  807MOL0     H 8920   3.954   8.048   6.666 -0.7132 -0.1993  0.0012
  807MOL0     H 8921   4.081   7.789   6.571  0.7681  1.9140  2.0202
  807MOL0     H 8922   4.110   7.936   6.501 -0.3648 -1.2428 -2.1824
  807MOL0     H 8923   3.823   7.873   6.500 -0.5657 -1.7972 -1.7791
  807MOL0     H 8924   3.908   7.995   6.414 -0.4781  1.1895  2.7816
  807MOL0     H 8925   4.191   8.314   7.517  0.2458 -0.6560 -1.9901
  807MOL0     H 8926   4.031   8.517   7.555 -1.4437  0.3455  1.8081
  807MOL0     H 8927   3.784   8.862   7.693 -0.0032 -1.0409 -0.9115
  807MOL0     H 8928   3.596   8.974   7.816 -2.5666  0.7903 -0.2702
  807MOL0     H 8929   3.547   9.299   9.166  1.1337  1.1729  0.2176
  807MOL0     H 8930   3.640   9.472   9.303 -1.4035  1.5333 -0.3832
  807MOL0     H 8931   3.870   9.477   9.667 -2.3655 -2.4607  0.5674
  807MOL0     H 8932   4.056   9.554   9.811 -0.2323 -1.3148  1.4279
  807MOL0     H 8933   4.204   9.622   9.940  0.9491  0.6244  0.4309
  807MOL0     H 8934   4.150   9.563  10.105  5.0518 -1.1251  0.9406
  807MOL0     H 8935   4.345   9.678  10.150  0.5501 -0.1727 -2.1650
  807MOL0     H 8936   4.213   9.795  10.192  0.3545  0.0309  0.8735
  807MOL0     H 8937   4.234   9.920   9.989  0.3181 -0.7504 -0.6623
  807MOL0     H 8938   4.368   9.822   9.942  0.4642 -0.1476  1.6240
  807MOL0     H 8939   4.430  10.053  10.080  0.7237  1.2469 -1.2657
  807MOL0     H 8940   4.322   9.995  10.202 -0.1439 -1.4679 -0.1165
  807MOL0     H 8941   4.680   9.762  10.258 -3.1094 -2.3810  2.4249
  807MOL0     H 8942   3.806   9.782  10.054 -4.2858  0.3813 -0.3494
  807MOL0     H 8943   3.516   9.752   9.812  1.2110 -1.3134 -1.4114
  807MOL0     H 8944   3.506   9.680   9.981  1.6823 -2.0418 -0.4307
  807MOL0     H 8945   3.590   9.837   9.962 -2.1119  1.0197 -1.5452
  808MOL0     O 8946   2.615   0.390   4.142 -0.1644 -0.4278 -0.7311
  808MOL0     C 8947   2.675   0.347   4.247  0.9608  0.0673 -0.1051
  808MOL0     O 8948   2.649   0.398   4.377 -0.4119  0.2479  0.5505
  808MOL0     C 8949   2.555   0.497   4.377 -0.4899 -1.3523 -0.3412
  808MOL0     C 8950   2.592   0.637   4.389  0.3604  2.0195 -0.8444
  808MOL0     C 8951   2.477   0.713   4.376  0.2012 -0.4709 -0.5876
  808MOL0     C 8952   2.344   0.676   4.365 -0.5516  0.1826  0.2727
  808MOL0     O 8953   2.242   0.761   4.355 -0.8214  0.2049 -0.0384
  808MOL0     C 8954   2.263   0.904   4.368 -0.1114  0.2157 -0.1018
  808MOL0     C 8955   2.131   0.972   4.375  1.4790 -0.3124  0.7249
  808MOL0     C 8956   2.078   1.015   4.235  0.1141 -0.5275  0.8590
  808MOL0     C 8957   2.047   1.168   4.230 -0.4796 -0.8420  0.1855
  808MOL0     C 8958   2.167   1.264   4.215 -0.4862 -0.0047 -0.6314
  808MOL0     C 8959   2.257   1.241   4.088  0.6774  0.7850 -0.4168
  808MOL0     C 8960   2.358   1.345   4.069  0.6677 -0.6778 -0.0900
  808MOL0     C 8961   2.460   1.360   4.185  0.3436  0.6582  0.3326
  808MOL0     N 8962   2.522   1.233   4.214  0.2597  0.5236 -0.5945
  808MOL0     C 8963   2.639   1.187   4.148 -0.8118 -0.8060 -0.5560
  808MOL0     C 8964   2.671   1.070   4.210 -0.3547 -0.1761  0.8280
  808MOL0     C 8965   2.768   0.969   4.170 -0.4160  0.5969  0.2803
  808MOL0     C 8966   2.716   0.838   4.128  0.3750  0.1601 -0.1460
  808MOL0     C 8967   2.617   0.838   4.017 -0.8786  0.1043  0.3195
  808MOL0     C 8968   2.553   0.700   3.997 -0.5258 -0.4295 -0.4047
  808MOL0     O 8969   2.508   0.671   3.866  0.3960  0.2370 -0.0305
  808MOL0     C 8970   2.433   0.765   3.795  0.2980  0.2826 -0.0107
  808MOL0     C 8971   2.464   0.794   3.664  0.2325 -0.2347 -0.2948
  808MOL0     C 8972   2.412   0.893   3.583 -0.7893  0.7219  1.4355
  808MOL0     C 8973   2.294   0.958   3.634 -0.7038 -1.2325  0.5794
  808MOL0     C 8974   2.226   1.067   3.570 -1.0442 -0.8929 -0.2716
  808MOL0     O 8975   2.140   1.140   3.645  0.5962 -0.3754  0.1054
  808MOL0     C 8976   2.075   1.251   3.583  0.0967 -0.0773  0.2469
  808MOL0     C 8977   2.036   1.260   3.450  0.9298 -0.9384 -0.5474
  808MOL0     C 8978   1.985   1.384   3.410  0.8548 -0.2646  0.5522
  808MOL0     C 8979   1.954   1.488   3.499  0.3255 -0.4279  0.0379
  808MOL0     O 8980   1.894   1.610   3.454 -0.9745  0.7738  0.8611
  808MOL0     C 8981   1.924   1.739   3.510 -0.7999 -0.1477  0.3839
  808MOL0     C 8982   1.842   1.850   3.444  0.1803 -0.9650 -0.4578
  808MOL0     C 8983   1.852   1.987   3.507  0.7772  0.1345  0.1546
  808MOL0     C 8984   1.992   2.039   3.535  0.5559  0.2596 -0.0738
  808MOL0     C 8985   1.987   2.183   3.589 -0.3619 -0.8447 -0.5558
  808MOL0     C 8986   2.111   2.217   3.681  0.4304  0.8812 -0.0233
  808MOL0     C 8987   2.106   2.347   3.759  0.5647  0.2706  0.8656
  808MOL0     C 8988   2.232   2.403   3.812  0.5962  0.0761 -0.6052
  808MOL0    Cl 8989   2.354   2.414   3.672 -0.8086  0.1139 -0.4458
  808MOL0     C 8990   2.010   1.476   3.633 -0.7723  0.5783 -0.2526
  808MOL0     C 8991   2.061   1.359   3.675  0.2762 -0.0500  0.2287
  808MOL0     O 8992   2.264   1.095   3.459  0.3976 -0.9425  0.5515
  808MOL0     C 8993   2.253   0.929   3.766 -0.7040 -0.3588 -0.7748
  808MOL0     C 8994   2.331   0.844   3.847  0.6708  0.5703  0.7197
  808MOL0     N 8995   2.584   1.048   4.316  0.0838  0.3639 -0.5264
  808MOL0     N 8996   2.488   1.145   4.314 -0.5142  0.3657 -0.6688
  808MOL0     C 8997   2.321   0.540   4.369  0.0800 -0.1225 -0.1609
  808MOL0     C 8998   2.428   0.449   4.368  0.3271 -0.1436  0.2074
  808MOL0     C 8999   2.768   0.237   4.241  0.1522 -0.2781 -0.2463
  808MOL0     C 9000   2.820   0.182   4.353  0.5476 -0.1649 -0.8491
  808MOL0     C 9001   2.914   0.082   4.340  0.4723 -0.6062 -0.2472
  808MOL0     C 9002   2.961   0.025   4.218  0.1848 -0.5919 -0.4708
  808MOL0     O 9003   3.054  -0.080   4.223 -0.3544 -0.3846  0.2540
  808MOL0     C 9004   3.050  -0.189   4.137  0.0044  0.6836  1.1795
  808MOL0     C 9005   3.175  -0.179   4.046  0.4428 -0.0119 -0.5916
  808MOL0     C 9006   3.301  -0.179   4.141  0.4043 -0.8217  0.5880
  808MOL0     C 9007   3.429  -0.149   4.066  0.4763 -0.1102  0.4977
  808MOL0     C 9008   3.510  -0.052   4.145 -0.0719 -0.3714 -1.2296
  808MOL0     C 9009   3.583   0.022   4.214  0.7092  0.0019  0.2623
  808MOL0     C 9010   2.907   0.081   4.105  0.6519  0.6314  0.3413
  808MOL0     C 9011   2.821   0.190   4.114 -0.8668  0.3179 -0.5352
  808MOL0     C 9012   2.786   0.245   3.985  0.1269 -0.4559  0.9496
  808MOL0     H 9013   2.696   0.669   4.397  0.7990  0.3962  0.5459
  808MOL0     H 9014   2.502   0.819   4.374  1.1775 -0.6819 -0.1095
  808MOL0     H 9015   2.324   0.935   4.454 -0.9013  0.4711  0.3851
  808MOL0     H 9016   2.318   0.948   4.285  1.4443  2.2548  1.8633
  808MOL0     H 9017   2.136   1.064   4.435  0.9442  0.1248  0.1212
  808MOL0     H 9018   2.060   0.900   4.418  1.9287  0.2699  2.5646
  808MOL0     H 9019   1.982   0.970   4.208 -0.7905  2.6248 -1.9426
  808MOL0     H 9020   2.144   0.976   4.157 -0.9306 -2.5052  0.8961
  808MOL0     H 9021   1.980   1.194   4.147 -1.7769  0.2511  1.5364
  808MOL0     H 9022   1.987   1.193   4.317 -3.9485 -1.6589 -1.7847
  808MOL0     H 9023   2.139   1.370   4.215 -2.3523 -0.4617 -0.2894
  808MOL0     H 9024   2.241   1.251   4.295 -1.8423  0.7155  0.8071
  808MOL0     H 9025   2.298   1.140   4.091  2.1743  1.4043  1.3781
  808MOL0     H 9026   2.191   1.241   4.001 -0.4640 -1.8911  0.3536
  808MOL0     H 9027   2.298   1.436   4.071  0.9777 -0.3599  4.4505
  808MOL0     H 9028   2.419   1.325   3.981  1.5658 -1.0793  0.6055
  808MOL0     H 9029   2.540   1.428   4.156  1.2228  0.4249  2.0816
  808MOL0     H 9030   2.405   1.402   4.269  1.1694  0.8762  0.7682
  808MOL0     H 9031   2.688   1.235   4.064  0.2639 -2.1679 -0.7353
  808MOL0     H 9032   2.824   1.011   4.086  1.5927 -2.0321  0.1815
  808MOL0     H 9033   2.831   0.940   4.254  0.6002  1.7987 -0.0376
  808MOL0     H 9034   2.800   0.771   4.113  1.9839  2.2612 -0.9509
  808MOL0     H 9035   2.658   0.798   4.212  1.4885 -0.8628  0.1562
  808MOL0     H 9036   2.678   0.857   3.928  0.9288  5.5506  2.2941
  808MOL0     H 9037   2.545   0.919   4.034  0.3454  1.0138  1.3919
  808MOL0     H 9038   2.477   0.675   4.072  1.0954 -1.2824  1.0271
  808MOL0     H 9039   2.636   0.629   4.007 -0.5263 -0.9076 -3.0736
  808MOL0     H 9040   2.545   0.739   3.618 -0.1335 -2.5194  1.6382
  808MOL0     H 9041   2.451   0.907   3.482  0.7754 -1.6812  1.6303
  808MOL0     H 9042   2.049   1.185   3.372  3.4432  0.4554 -1.6165
  808MOL0     H 9043   1.960   1.394   3.304 -0.9201  0.0080  0.9637
  808MOL0     H 9044   1.903   1.746   3.617 -0.7252  2.2964  0.2807
  808MOL0     H 9045   2.031   1.754   3.496 -0.8922  2.8192  2.0497
  808MOL0     H 9046   1.878   1.855   3.341  1.4901 -0.5078  0.0018
  808MOL0     H 9047   1.737   1.824   3.460 -0.4995  1.9056  0.3636
  808MOL0     H 9048   1.792   2.054   3.446  0.0165  0.0218  0.7598
  808MOL0     H 9049   1.803   1.997   3.604  2.3532  0.6178  0.9369
  808MOL0     H 9050   2.055   2.031   3.445  1.5140  1.0494  0.5071
  808MOL0     H 9051   2.028   1.977   3.618 -0.3070  1.5050  1.2708
  808MOL0     H 9052   1.908   2.193   3.664 -0.6637 -1.2319 -0.8203
  808MOL0     H 9053   1.979   2.261   3.513  0.0230 -0.2169  0.0307
  808MOL0     H 9054   2.128   2.135   3.751 -2.7752  0.8023  0.7981
  808MOL0     H 9055   2.192   2.214   3.607 -0.8066  1.2616 -1.4535
  808MOL0     H 9056   2.035   2.344   3.841 -0.9958  2.3822 -0.3056
  808MOL0     H 9057   2.063   2.422   3.691 -2.0721 -0.5331  1.5483
  808MOL0     H 9058   2.205   2.501   3.853 -2.2027  0.4084 -2.9528
  808MOL0     H 9059   2.273   2.339   3.892  0.5627 -0.6466 -1.1547
  808MOL0     H 9060   2.018   1.551   3.711  2.0699 -1.3196  1.5047
  808MOL0     H 9061   2.109   1.356   3.772  1.6831  0.5051 -0.4233
  808MOL0     H 9062   2.161   0.962   3.813  0.1533  0.7799  0.1732
  808MOL0     H 9063   2.293   0.814   3.944  2.6695 -1.0603  1.0680
  808MOL0     H 9064   2.221   0.501   4.353 -0.8791  2.5378 -1.3079
  808MOL0     H 9065   2.406   0.344   4.351  1.2209 -0.2922 -0.0434
  808MOL0     H 9066   2.800   0.228   4.449  1.9376  1.3654 -1.2457
  808MOL0     H 9067   2.961   0.050   4.433  1.1607  2.1519  0.4553
  808MOL0     H 9068   2.960  -0.197   4.075  1.4487 -0.7776 -0.8891
  808MOL0     H 9069   3.056  -0.285   4.190 -1.6725 -0.3759 -0.4094
  808MOL0     H 9070   3.175  -0.086   3.988  1.5893 -1.2489 -2.7395
  808MOL0     H 9071   3.189  -0.265   3.979  2.8413 -1.2312  1.3194
  808MOL0     H 9072   3.301  -0.272   4.198 -1.8075  0.2731  2.5025
  808MOL0     H 9073   3.280  -0.092   4.205 -0.9063  1.4216 -2.6045
  808MOL0     H 9074   3.485  -0.239   4.042 -1.3904 -1.5472  1.2986
  808MOL0     H 9075   3.403  -0.104   3.969  1.1335  1.7482  1.1260
  808MOL0     H 9076   3.649   0.077   4.278  0.8401 -0.8162  0.8459
  808MOL0     H 9077   2.938   0.051   4.005 -1.3805  1.6268 -0.6504
  808MOL0     H 9078   2.678   0.242   3.963  0.3998 -0.9887 -0.4069
  808MOL0     H 9079   2.830   0.343   3.966  2.9929 -2.0322 -1.1933
  808MOL0     H 9080   2.836   0.197   3.901 -2.3961 -0.0625 -0.8909
  809MOL0     O 9081   6.905   1.843   3.677  0.3299 -0.2847 -0.2142
  809MOL0     C 9082   6.789   1.833   3.627 -0.4371  0.2554 -0.9484
  809MOL0     O 9083   6.769   1.801   3.504 -0.4544 -0.4115 -0.0608
  809MOL0     C 9084   6.867   1.789   3.406  0.4007 -0.3794  0.6062
  809MOL0     C 9085   6.876   1.664   3.339  0.2922  0.0692 -0.8244
  809MOL0     C 9086   6.964   1.633   3.244 -0.6290 -0.6204 -0.6180
  809MOL0     C 9087   7.057   1.736   3.205 -0.1482  0.4493 -1.1287
  809MOL0     O 9088   7.140   1.715   3.097 -0.0909 -0.4478  0.3166
  809MOL0     C 9089   7.127   1.819   2.994  0.0342  0.0954 -0.6897
  809MOL0     C 9090   7.237   1.813   2.893 -0.4559  0.9088  0.5186
  809MOL0     C 9091   7.206   1.874   2.749  0.2342  0.3677  0.2082
  809MOL0     C 9092   7.121   1.779   2.671 -0.4017 -0.1298  0.5329
  809MOL0     C 9093   7.125   1.799   2.519 -0.0469  0.1637 -0.4476
  809MOL0     C 9094   7.102   1.940   2.484 -0.2374 -0.9820 -0.2447
  809MOL0     C 9095   7.103   1.969   2.330 -0.4093 -0.3192  0.6652
  809MOL0     C 9096   7.238   1.915   2.266  0.9273  0.1488 -0.2718
  809MOL0     N 9097   7.365   1.964   2.333  0.0813  0.7586 -0.7063
  809MOL0     C 9098   7.429   1.920   2.449 -0.2350 -0.0733  0.7474
  809MOL0     C 9099   7.546   1.988   2.449  0.4770  0.2038 -0.5250
  809MOL0     C 9100   7.643   1.983   2.553 -0.2492  0.5466 -0.1793
  809MOL0     C 9101   7.658   2.104   2.649  1.0986  0.1849 -0.5515
  809MOL0     C 9102   7.685   2.058   2.796 -0.8122  0.0331  0.5427
  809MOL0     C 9103   7.692   2.181   2.889 -0.2506 -0.0900 -0.2656
  809MOL0     O 9104   7.570   2.251   2.917 -0.5748 -0.4847 -0.8585
  809MOL0     C 9105   7.574   2.376   2.966 -0.1644 -0.3937  0.5017
  809MOL0     C 9106   7.452   2.449   2.950  0.0391 -0.3264 -0.4121
  809MOL0     C 9107   7.446   2.579   2.996 -1.3365  0.4566  0.1215
  809MOL0     C 9108   7.552   2.638   3.065 -0.2136 -0.1400 -0.2493
  809MOL0     C 9109   7.533   2.774   3.120  0.1323 -0.0844 -0.6740
  809MOL0     O 9110   7.649   2.835   3.175 -0.2194 -0.4204  0.2802
  809MOL0     C 9111   7.632   2.964   3.219  1.0941  0.7006 -1.0705
  809MOL0     C 9112   7.658   3.075   3.141 -0.9704 -1.3989  1.3666
  809MOL0     C 9113   7.627   3.208   3.187 -0.1188 -0.6585  0.3581
  809MOL0     C 9114   7.591   3.221   3.323 -0.3044  0.7205  0.1724
  809MOL0     O 9115   7.571   3.352   3.366 -0.0559 -0.4304  0.4851
  809MOL0     C 9116   7.483   3.375   3.478  0.4270 -1.1321  1.5500
  809MOL0     C 9117   7.423   3.513   3.468  0.0491  0.5016  0.1935
  809MOL0     C 9118   7.485   3.608   3.568  0.7548  0.1065 -0.1755
  809MOL0     C 9119   7.404   3.740   3.574 -0.4320  1.2488 -0.0803
  809MOL0     C 9120   7.480   3.844   3.664 -0.3793 -0.5792 -0.5403
  809MOL0     C 9121   7.409   3.984   3.701  0.6057  0.6962  1.0576
  809MOL0     C 9122   7.469   4.051   3.825  0.0671 -0.7503 -0.2231
  809MOL0     C 9123   7.410   4.179   3.864  0.0429 -0.2793  0.5068
  809MOL0    Cl 9124   7.246   4.130   3.932 -0.3357  0.3202  0.0926
  809MOL0     C 9125   7.562   3.106   3.396  0.4861  0.2477  0.0071
  809MOL0     C 9126   7.581   2.979   3.347  0.0072  0.5337 -0.2917
  809MOL0     O 9127   7.423   2.832   3.098  0.0091 -0.1789  0.2113
  809MOL0     C 9128   7.674   2.564   3.082 -0.4492 -0.1065  0.5269
  809MOL0     C 9129   7.681   2.433   3.040  0.8893  0.9895 -0.3439
  809MOL0     N 9130   7.548   2.063   2.333 -0.7617 -0.6309 -0.1147
  809MOL0     N 9131   7.441   2.057   2.263 -0.2954  0.8990 -0.8115
  809MOL0     C 9132   7.058   1.857   3.273  0.3907 -0.4535  0.0089
  809MOL0     C 9133   6.959   1.893   3.373 -0.1014  0.3805 -0.0318
  809MOL0     C 9134   6.675   1.845   3.717  1.1330 -0.0400  0.5727
  809MOL0     C 9135   6.541   1.820   3.655 -0.5159 -0.7235 -0.1354
  809MOL0     C 9136   6.426   1.811   3.739  0.9285 -0.5478 -1.0335
  809MOL0     C 9137   6.434   1.824   3.881 -1.4670  0.0597 -0.0710
  809MOL0     O 9138   6.319   1.824   3.955 -0.0378  0.7736  0.1610
  809MOL0     C 9139   6.261   1.684   3.968 -0.0100 -0.0018 -0.4566
  809MOL0     C 9140   6.263   1.631   4.114 -1.0986  0.8874 -0.4514
  809MOL0     C 9141   6.170   1.690   4.218  0.0491 -0.6603  1.0849
  809MOL0     C 9142   6.230   1.778   4.333 -0.5582 -0.4611 -0.1670
  809MOL0     C 9143   6.138   1.836   4.432 -0.6225  0.8003  0.2202
  809MOL0     C 9144   6.110   1.885   4.537  0.7604  0.1813 -0.5913
  809MOL0     C 9145   6.556   1.848   3.936 -0.8246  0.5213 -0.1234
  809MOL0     C 9146   6.675   1.858   3.861 -0.4832  0.7740  0.1766
  809MOL0     C 9147   6.793   1.885   3.957  0.3709 -0.4028  0.5736
  809MOL0     H 9148   6.819   1.581   3.381 -1.1679  0.5766 -1.7267
  809MOL0     H 9149   6.976   1.543   3.186  1.4891 -0.2255 -0.8606
  809MOL0     H 9150   7.028   1.821   2.949  0.4328 -0.5427 -1.6346
  809MOL0     H 9151   7.138   1.919   3.039  1.1489 -0.3698  0.1280
  809MOL0     H 9152   7.279   1.713   2.882 -1.0232  0.4835  1.9640
  809MOL0     H 9153   7.323   1.861   2.942  1.9626 -1.6514 -0.9109
  809MOL0     H 9154   7.298   1.889   2.692 -1.5995 -1.0341 -3.4424
  809MOL0     H 9155   7.161   1.973   2.756 -0.8764 -0.2314  2.4474
  809MOL0     H 9156   7.161   1.678   2.688  0.1546 -0.5633 -2.7024
  809MOL0     H 9157   7.018   1.786   2.706 -0.8423  0.9863 -0.9114
  809MOL0     H 9158   7.223   1.760   2.487  1.6910  3.3818  0.5318
  809MOL0     H 9159   7.051   1.741   2.463 -0.7690  1.1805 -0.5655
  809MOL0     H 9160   7.010   1.985   2.522  0.0740  0.8792 -1.5712
  809MOL0     H 9161   7.184   2.001   2.522  0.1248 -1.0514 -0.9096
  809MOL0     H 9162   7.084   2.074   2.302 -2.4280 -0.9731 -0.6824
  809MOL0     H 9163   7.010   1.931   2.286 -0.0081  0.5937 -1.0706
  809MOL0     H 9164   7.224   1.807   2.279 -0.1427  0.5727  2.9365
  809MOL0     H 9165   7.239   1.944   2.161  0.5923 -0.3388 -0.4119
  809MOL0     H 9166   7.386   1.850   2.520  0.2518 -2.1928 -0.9413
  809MOL0     H 9167   7.617   1.904   2.625 -3.8084  1.9910  0.3069
  809MOL0     H 9168   7.740   1.953   2.512 -0.8546 -2.9195  0.5799
  809MOL0     H 9169   7.734   2.176   2.617 -0.7592  3.9279  2.7507
  809MOL0     H 9170   7.563   2.156   2.645  1.1870  0.3136 -1.2347
  809MOL0     H 9171   7.772   1.993   2.804 -2.3308 -2.0525  1.0907
  809MOL0     H 9172   7.608   2.000   2.849 -0.4147 -2.7629 -1.7270
  809MOL0     H 9173   7.758   2.259   2.849 -0.0092 -0.1224  0.0583
  809MOL0     H 9174   7.735   2.148   2.984 -0.4725 -2.0774 -0.8270
  809MOL0     H 9175   7.376   2.404   2.888 -0.1289 -0.7458  0.0925
  809MOL0     H 9176   7.353   2.625   2.965 -2.6929 -1.9948  0.2590
  809MOL0     H 9177   7.697   3.063   3.040 -2.3805  2.9346  0.0716
  809MOL0     H 9178   7.642   3.291   3.119 -1.2307 -0.2617  0.5634
  809MOL0     H 9179   7.393   3.319   3.453 -0.7073  2.5428 -4.9778
  809MOL0     H 9180   7.508   3.347   3.581 -2.8681  1.0908  3.1639
  809MOL0     H 9181   7.424   3.548   3.364 -1.3154 -2.8639 -1.1166
  809MOL0     H 9182   7.318   3.502   3.496  0.6951 -3.3962  1.6622
  809MOL0     H 9183   7.470   3.561   3.666 -1.0399  1.0512  0.0415
  809MOL0     H 9184   7.590   3.621   3.538  1.2727 -0.0372  1.4713
  809MOL0     H 9185   7.306   3.722   3.618 -0.2327 -1.0687 -0.4829
  809MOL0     H 9186   7.403   3.782   3.473  0.1074  1.7676  0.1234
  809MOL0     H 9187   7.580   3.861   3.624 -0.1837 -0.6665 -0.0874
  809MOL0     H 9188   7.489   3.797   3.762 -1.2447  0.4716  0.0690
  809MOL0     H 9189   7.406   4.056   3.619 -1.6564 -1.0758 -0.5124
  809MOL0     H 9190   7.304   3.958   3.717 -0.2472  2.2394 -1.4029
  809MOL0     H 9191   7.576   4.066   3.803 -0.1877 -0.5834 -1.4361
  809MOL0     H 9192   7.460   3.987   3.913  0.2098  3.0582  2.8376
  809MOL0     H 9193   7.471   4.232   3.937  2.3836 -1.9990 -0.0923
  809MOL0     H 9194   7.407   4.237   3.771 -0.7544 -1.3869 -0.1921
  809MOL0     H 9195   7.523   3.125   3.495 -4.5536 -1.1945 -1.4006
  809MOL0     H 9196   7.547   2.891   3.401  1.0469 -0.0575 -0.5740
  809MOL0     H 9197   7.760   2.608   3.131 -0.2133 -0.2521  0.2523
  809MOL0     H 9198   7.779   2.385   3.043  0.2975 -0.4258 -2.0845
  809MOL0     H 9199   7.141   1.919   3.241 -0.1453 -0.3181 -1.1615
  809MOL0     H 9200   6.966   1.995   3.409  0.7760  0.7517 -1.1784
  809MOL0     H 9201   6.533   1.796   3.550  1.4674  1.9217 -1.0108
  809MOL0     H 9202   6.326   1.795   3.700  0.5444  1.6517 -1.0786
  809MOL0     H 9203   6.311   1.605   3.911  0.6485  0.3061 -0.3143
  809MOL0     H 9204   6.165   1.707   3.922  0.5235  3.6077 -0.0937
  809MOL0     H 9205   6.367   1.634   4.150 -0.8521  1.1441 -1.1597
  809MOL0     H 9206   6.237   1.525   4.108 -0.0698  0.7053 -2.7077
  809MOL0     H 9207   6.115   1.606   4.261  2.7097 -2.2616  1.5860
  809MOL0     H 9208   6.104   1.763   4.172  1.1100  0.8699  1.8928
  809MOL0     H 9209   6.306   1.717   4.382 -1.1113 -2.0450 -1.2027
  809MOL0     H 9210   6.281   1.859   4.280 -1.5112  0.2430 -0.0322
  809MOL0     H 9211   6.076   1.931   4.628 -1.4470 -1.0009 -0.7595
  809MOL0     H 9212   6.559   1.850   4.044 -3.4756  0.2053  0.0146
  809MOL0     H 9213   6.783   1.890   4.065  1.6271 -0.9663  0.7293
  809MOL0     H 9214   6.879   1.819   3.942  0.1961 -1.2413  2.9390
  809MOL0     H 9215   6.840   1.981   3.935 -1.8612  0.6660  0.2058
  810MOL0     O 9216   0.764   0.947   6.617  0.2635  0.3487 -0.2759
  810MOL0     C 9217   0.709   1.055   6.651  0.0243  0.7735  0.3290
  810MOL0     O 9218   0.784   1.171   6.670 -0.8871  1.1249  0.2367
  810MOL0     C 9219   0.916   1.187   6.651  0.0828  0.0571  0.3476
  810MOL0     C 9220   1.019   1.090   6.653  0.2041 -0.3057  1.4307
  810MOL0     C 9221   1.149   1.138   6.661 -0.5928 -0.0762  0.3996
  810MOL0     C 9222   1.179   1.271   6.650 -0.0512 -0.7212 -0.3277
  810MOL0     O 9223   1.313   1.309   6.655 -0.1703  0.1145  0.5237
  810MOL0     C 9224   1.396   1.233   6.568  0.4224 -0.3440  0.3985
  810MOL0     C 9225   1.519   1.316   6.526  0.1417 -0.6224 -0.0727
  810MOL0     C 9226   1.651   1.240   6.554  0.4572  0.9109  0.3470
  810MOL0     C 9227   1.717   1.254   6.694  0.2710 -0.1878 -0.1787
  810MOL0     C 9228   1.829   1.144   6.724  0.3417 -0.5742  0.7922
  810MOL0     C 9229   1.875   1.141   6.870 -0.3638  0.0126 -0.2005
  810MOL0     C 9230   1.974   1.023   6.897 -0.2719  1.2673 -0.3726
  810MOL0     C 9231   2.057   1.044   7.016  0.0773  0.0595 -0.7374
  810MOL0     N 9232   2.126   0.920   7.055  0.0738  0.8753  0.0939
  810MOL0     C 9233   2.079   0.846   7.166  0.0268 -0.1189  0.1776
  810MOL0     C 9234   2.187   0.762   7.197  1.0048  0.2115 -0.1314
  810MOL0     C 9235   2.193   0.666   7.315 -0.1219 -1.1918  1.0279
  810MOL0     C 9236   2.100   0.549   7.315 -0.3159  0.1843 -0.3778
  810MOL0     C 9237   2.072   0.523   7.471 -0.1811 -0.4804 -0.6491
  810MOL0     C 9238   1.999   0.391   7.496 -0.2008  0.9306 -0.0635
  810MOL0     O 9239   2.076   0.286   7.425  0.2483 -0.5892 -0.0233
  810MOL0     C 9240   2.042   0.155   7.433  0.1525 -0.3799 -0.1809
  810MOL0     C 9241   2.086   0.059   7.340 -0.3980  0.0103 -0.4980
  810MOL0     C 9242   2.061  -0.076   7.353 -0.3130  0.8311  0.0321
  810MOL0     C 9243   2.001  -0.126   7.469 -0.3507 -0.4034 -0.7480
  810MOL0     C 9244   1.977  -0.270   7.485  0.0594  0.2619 -0.5778
  810MOL0     O 9245   1.891  -0.313   7.580  0.4063  0.0367  0.3290
  810MOL0     C 9246   1.875  -0.438   7.618  0.7516  0.1512 -0.7484
  810MOL0     C 9247   1.970  -0.541   7.592  0.3897 -0.9241 -0.2681
  810MOL0     C 9248   1.963  -0.668   7.652 -0.3727 -0.6339  0.1399
  810MOL0     C 9249   1.852  -0.699   7.731  0.0511  0.0535 -0.0735
  810MOL0     O 9250   1.823  -0.822   7.782 -0.2731 -0.1782  0.2501
  810MOL0     C 9251   1.893  -0.942   7.737 -0.4446 -0.2838 -0.1657
  810MOL0     C 9252   1.848  -1.072   7.802 -0.6843  0.0524 -0.8757
  810MOL0     C 9253   1.812  -1.050   7.952  0.2805  0.4528 -0.2657
  810MOL0     C 9254   1.769  -1.186   8.014 -0.0180 -0.0717 -0.3558
  810MOL0     C 9255   1.764  -1.185   8.167  0.6588 -0.9593 -0.0141
  810MOL0     C 9256   1.701  -1.305   8.216 -0.5067 -0.1423 -0.9461
  810MOL0     C 9257   1.683  -1.291   8.371  0.4112  0.3913 -0.0728
  810MOL0     C 9258   1.744  -1.398   8.452 -0.4104  1.2640  0.1390
  810MOL0    Cl 9259   1.713  -1.557   8.406 -0.4191 -0.1007 -0.2113
  810MOL0     C 9260   1.757  -0.599   7.750 -1.0677  0.0361 -1.2678
  810MOL0     C 9261   1.763  -0.470   7.694 -0.4148  1.0332  0.1756
  810MOL0     O 9262   2.035  -0.336   7.405 -1.1932  0.5844 -0.2214
  810MOL0     C 9263   1.967  -0.039   7.573 -0.9635 -0.9098  0.4354
  810MOL0     C 9264   1.977   0.097   7.549 -0.2917 -0.6040  0.0094
  810MOL0     N 9265   2.284   0.785   7.103 -0.9148 -0.4572  0.3603
  810MOL0     N 9266   2.251   0.880   7.024 -0.1942 -0.0610 -0.6512
  810MOL0     C 9267   1.073   1.372   6.648  0.3705  0.0307 -0.2037
  810MOL0     C 9268   0.943   1.322   6.645 -0.1620 -0.2383  1.0347
  810MOL0     C 9269   0.564   1.055   6.680 -0.8191  0.4811  0.4598
  810MOL0     C 9270   0.515   1.129   6.787  0.5853 -0.4252 -1.2060
  810MOL0     C 9271   0.375   1.129   6.826 -0.1371 -0.3253  1.3726
  810MOL0     C 9272   0.280   1.050   6.754  0.1707 -0.4741  0.7429
  810MOL0     O 9273   0.141   1.035   6.785  0.8138 -0.3118  0.2977
  810MOL0     C 9274   0.081   1.106   6.892 -1.1702 -0.5651 -0.0116
  810MOL0     C 9275  -0.056   1.053   6.920  0.2559  0.0340 -0.0385
  810MOL0     C 9276  -0.141   1.132   7.023  0.3436 -0.6925  0.8255
  810MOL0     C 9277  -0.228   1.242   6.951  0.2417  0.1604  0.0800
  810MOL0     C 9278  -0.318   1.297   7.050 -0.4904  0.6492 -0.4383
  810MOL0     C 9279  -0.384   1.348   7.135 -0.3362 -0.5529  0.0999
  810MOL0     C 9280   0.328   0.975   6.648 -1.1398  0.1263  0.0064
  810MOL0     C 9281   0.466   0.973   6.611 -0.1912 -1.1192 -0.2840
  810MOL0     C 9282   0.500   0.892   6.495  0.3985  0.5694 -0.0629
  810MOL0     H 9283   0.980   0.990   6.665  0.4267 -0.1828  3.5672
  810MOL0     H 9284   1.233   1.071   6.681 -0.1270 -0.1365 -1.5311
  810MOL0     H 9285   1.428   1.142   6.621 -0.4473  0.5569  2.5856
  810MOL0     H 9286   1.336   1.209   6.480  1.3492  2.1757 -1.0262
  810MOL0     H 9287   1.523   1.409   6.584 -2.1086 -0.9535  0.7163
  810MOL0     H 9288   1.522   1.341   6.420  3.8424 -0.1139  0.0110
  810MOL0     H 9289   1.721   1.279   6.480 -0.1905  1.9796  0.2820
  810MOL0     H 9290   1.640   1.132   6.541 -0.4239  0.8597  1.3535
  810MOL0     H 9291   1.754   1.356   6.701  3.2103 -1.1883  0.0201
  810MOL0     H 9292   1.641   1.250   6.773 -0.2450 -3.1318 -0.6804
  810MOL0     H 9293   1.786   1.043   6.721 -1.0337 -0.5200  6.3736
  810MOL0     H 9294   1.904   1.154   6.646 -0.0310 -3.3732 -0.0372
  810MOL0     H 9295   1.931   1.234   6.882  0.6823 -0.7773  1.3225
  810MOL0     H 9296   1.793   1.137   6.943  0.0294  1.3279  0.3408
  810MOL0     H 9297   2.059   1.006   6.830  0.8668  0.1698  1.2699
  810MOL0     H 9298   1.918   0.929   6.901 -0.2226  1.2755  2.7560
  810MOL0     H 9299   2.132   1.116   6.981  2.3166 -0.2028  2.9639
  810MOL0     H 9300   1.994   1.080   7.097 -1.2963 -2.9275 -0.3538
  810MOL0     H 9301   1.981   0.858   7.210  0.8730  1.5175  1.7615
  810MOL0     H 9302   2.298   0.639   7.327  1.7739  3.9941 -0.7897
  810MOL0     H 9303   2.165   0.732   7.397  0.6722  1.0537 -0.3909
  810MOL0     H 9304   2.009   0.575   7.260 -0.4758 -1.5626 -1.0029
  810MOL0     H 9305   2.145   0.457   7.275 -1.7416 -1.5379  1.7500
  810MOL0     H 9306   2.013   0.611   7.500  1.5462  0.8951 -1.1272
  810MOL0     H 9307   2.162   0.536   7.532  0.6601 -0.0922 -1.9343
  810MOL0     H 9308   1.901   0.389   7.447  0.3725 -1.5764 -1.3169
  810MOL0     H 9309   1.997   0.371   7.603 -1.5871 -0.9970 -0.3864
  810MOL0     H 9310   2.132   0.108   7.255  0.1425  1.8327  0.7821
  810MOL0     H 9311   2.071  -0.144   7.269 -1.7723  1.3681 -0.6263
  810MOL0     H 9312   2.057  -0.520   7.531 -0.2417  1.5219 -0.4178
  810MOL0     H 9313   2.047  -0.734   7.634 -1.2188 -1.2149 -1.9096
  810MOL0     H 9314   1.873  -0.953   7.630 -2.3677 -0.3907  0.1677
  810MOL0     H 9315   2.000  -0.926   7.753 -0.0602 -1.6428 -1.1676
  810MOL0     H 9316   1.752  -1.096   7.755 -0.9267 -1.2384  0.2139
  810MOL0     H 9317   1.922  -1.150   7.781 -1.8104 -0.5478 -2.9489
  810MOL0     H 9318   1.902  -1.009   7.999  3.0328 -4.2998 -0.7293
  810MOL0     H 9319   1.729  -0.979   7.960 -1.3432 -1.5322  2.0447
  810MOL0     H 9320   1.837  -1.258   7.968  1.1881  1.0954 -0.4742
  810MOL0     H 9321   1.668  -1.210   7.980 -0.2283  1.1672 -0.6628
  810MOL0     H 9322   1.715  -1.092   8.197 -0.0312 -1.1570 -0.4911
  810MOL0     H 9323   1.869  -1.178   8.198  1.2761  1.9878 -2.2598
  810MOL0     H 9324   1.599  -1.310   8.177 -1.6242  0.9002  1.6293
  810MOL0     H 9325   1.770  -1.386   8.190  3.4900  2.3194  0.8816
  810MOL0     H 9326   1.575  -1.300   8.388  0.6970 -4.1865  0.5821
  810MOL0     H 9327   1.712  -1.193   8.410 -2.7420  0.8462  1.4480
  810MOL0     H 9328   1.853  -1.395   8.440 -0.3743  1.2875  0.4468
  810MOL0     H 9329   1.735  -1.384   8.560  2.9801 -1.8281  1.0739
  810MOL0     H 9330   1.675  -0.618   7.818 -0.2438 -0.2845 -0.3350
  810MOL0     H 9331   1.696  -0.391   7.727 -1.8075  0.3416 -0.8327
  810MOL0     H 9332   1.928  -0.071   7.670 -0.7149 -1.1464  0.4574
  810MOL0     H 9333   1.937   0.159   7.629  2.1818  1.1235  0.0321
  810MOL0     H 9334   1.095   1.476   6.627  0.6802 -0.2030 -1.1063
  810MOL0     H 9335   0.864   1.396   6.650 -0.7702 -0.4687 -2.4066
  810MOL0     H 9336   0.582   1.179   6.856 -1.0255 -0.6048  0.5697
  810MOL0     H 9337   0.341   1.179   6.916 -1.0031  2.7044 -0.4809
  810MOL0     H 9338   0.074   1.214   6.877 -2.2351 -0.7033 -0.6015
  810MOL0     H 9339   0.135   1.095   6.987  1.2307  3.4407 -0.6573
  810MOL0     H 9340  -0.039   0.957   6.969  2.7321  0.5947  0.3435
  810MOL0     H 9341  -0.126   1.033   6.839 -1.5023  4.1118  0.2244
  810MOL0     H 9342  -0.071   1.175   7.095  0.3674  5.0958 -2.1027
  810MOL0     H 9343  -0.208   1.062   7.074 -0.6712  1.0007  1.9361
  810MOL0     H 9344  -0.167   1.323   6.911  2.1552 -1.7353 -1.1056
  810MOL0     H 9345  -0.277   1.194   6.866 -1.9575 -1.1781  1.9660
  810MOL0     H 9346  -0.440   1.397   7.213 -0.8898 -0.0342 -0.6019
  810MOL0     H 9347   0.261   0.916   6.586 -0.5576  0.2012 -0.7041
  810MOL0     H 9348   0.425   0.896   6.416 -0.0209  0.2616  0.3157
  810MOL0     H 9349   0.596   0.913   6.447  1.5342 -1.9796  0.9182
  810MOL0     H 9350   0.509   0.787   6.524 -0.3215 -0.5894 -3.5645
  811MOL0     O 9351   8.029   7.951   3.283 -0.3060 -0.3596  0.3483
  811MOL0     C 9352   7.920   7.909   3.238 -0.3351 -0.0478  0.0735
  811MOL0     O 9353   7.903   7.800   3.155 -0.3624  0.6561  0.1530
  811MOL0     C 9354   8.013   7.748   3.090 -0.0808 -0.5226 -0.4079
  811MOL0     C 9355   8.114   7.667   3.140  0.4123  0.3043  0.1738
  811MOL0     C 9356   8.226   7.639   3.058 -0.6241 -0.2101 -0.5300
  811MOL0     C 9357   8.234   7.679   2.928 -0.0297 -0.5313  0.3879
  811MOL0     O 9358   8.347   7.662   2.848  0.3079 -0.2785  0.1202
  811MOL0     C 9359   8.481   7.699   2.879 -0.6296  0.5077  1.2309
  811MOL0     C 9360   8.504   7.848   2.883 -0.9083  0.2577 -0.0284
  811MOL0     C 9361   8.529   7.905   2.742  0.6614 -0.1178 -0.1060
  811MOL0     C 9362   8.396   7.939   2.665  0.9544  0.0394 -0.9160
  811MOL0     C 9363   8.415   8.001   2.518  0.8984  0.5743  0.4475
  811MOL0     C 9364   8.479   8.140   2.522 -1.0354 -0.2111  0.2312
  811MOL0     C 9365   8.504   8.192   2.374  0.7818  1.0313  0.2161
  811MOL0     C 9366   8.569   8.326   2.386  0.2372 -0.3450 -0.0648
  811MOL0     N 9367   8.698   8.342   2.313 -1.4072 -0.1242 -0.6950
  811MOL0     C 9368   8.714   8.394   2.186 -0.5355  0.4164  1.0797
  811MOL0     C 9369   8.849   8.390   2.166  0.3188  0.1090  0.7405
  811MOL0     C 9370   8.907   8.421   2.031 -0.3275 -0.2036  1.2199
  811MOL0     C 9371   8.975   8.559   2.051  0.0823  0.7518  0.7408
  811MOL0     C 9372   9.036   8.606   1.920  0.2619  0.1738  0.7705
  811MOL0     C 9373   9.092   8.743   1.935  0.3933 -0.2648  1.0453
  811MOL0     O 9374   9.181   8.739   2.045  0.1281  1.4049  1.5513
  811MOL0     C 9375   9.227   8.858   2.089  0.1283  0.2319 -0.3028
  811MOL0     C 9376   9.313   8.858   2.194  0.9041 -0.6181 -0.1537
  811MOL0     C 9377   9.369   8.972   2.248 -0.2932 -0.7070  0.0374
  811MOL0     C 9378   9.347   9.101   2.190 -0.2942  0.8835 -0.1027
  811MOL0     C 9379   9.419   9.220   2.242 -0.2556  0.4615  1.2160
  811MOL0     O 9380   9.467   9.209   2.367  0.1771  0.0878  0.0890
  811MOL0     C 9381   9.588   9.264   2.401 -0.4032  0.3301 -0.1926
  811MOL0     C 9382   9.663   9.333   2.315 -0.2552  1.5888  0.4070
  811MOL0     C 9383   9.791   9.381   2.355  0.2347 -0.1580 -0.8788
  811MOL0     C 9384   9.827   9.373   2.497 -0.0850 -0.2243  0.5853
  811MOL0     O 9385   9.949   9.412   2.545  1.0627 -0.0526  0.4930
  811MOL0     C 9386  10.000   9.531   2.487  0.1662  0.1179  0.1699
  811MOL0     C 9387  10.109   9.586   2.570 -1.2668 -0.2872 -0.4588
  811MOL0     C 9388  10.081   9.635   2.712  0.9486  0.5136 -0.1073
  811MOL0     C 9389  10.019   9.776   2.700  0.5475  0.3838 -0.2879
  811MOL0     C 9390   9.947   9.809   2.832  0.2623  0.7979 -0.6209
  811MOL0     C 9391  10.044   9.871   2.920 -0.4042 -0.5223  1.1939
  811MOL0     C 9392   9.977   9.905   3.054  0.2001  0.1173  0.4126
  811MOL0     C 9393  10.025  10.039   3.110 -1.1030  0.3012  0.1456
  811MOL0    Cl 9394   9.905  10.095   3.242  0.3400 -0.5414 -0.0085
  811MOL0     C 9395   9.741   9.293   2.578  1.1336  0.9122 -0.3608
  811MOL0     C 9396   9.623   9.231   2.534  0.0183 -0.8046  0.1798
  811MOL0     O 9397   9.403   9.318   2.170 -0.1756 -0.8999  0.0887
  811MOL0     C 9398   9.260   9.103   2.086 -0.6902 -0.2359  0.1114
  811MOL0     C 9399   9.191   8.994   2.045  0.3801  0.4061  0.0517
  811MOL0     N 9400   8.910   8.365   2.283 -0.8639  1.1675  0.2972
  811MOL0     N 9401   8.824   8.327   2.370  0.0884 -0.5784 -0.4550
  811MOL0     C 9402   8.126   7.738   2.873 -0.1640  0.9127  1.0121
  811MOL0     C 9403   8.014   7.777   2.958  0.5662  0.4609  0.6962
  811MOL0     C 9404   7.794   7.964   3.291 -0.5081 -0.1190 -1.4474
  811MOL0     C 9405   7.678   7.887   3.291 -0.1498 -0.2140  0.2181
  811MOL0     C 9406   7.559   7.926   3.339 -0.5748  0.5934  0.0362
  811MOL0     C 9407   7.546   8.056   3.404 -0.1376  1.1243  0.1878
  811MOL0     O 9408   7.427   8.087   3.465  0.2152  0.1233  0.4623
  811MOL0     C 9409   7.397   8.226   3.451  0.4851 -0.3518 -0.0464
  811MOL0     C 9410   7.247   8.250   3.478  0.3866 -0.2336 -0.2923
  811MOL0     C 9411   7.152   8.182   3.380  0.5902  1.0361  0.0396
  811MOL0     C 9412   7.099   8.046   3.432  0.5727 -0.4642  0.6713
  811MOL0     C 9413   7.012   8.037   3.552  0.0235  0.5762  0.3594
  811MOL0     C 9414   6.966   8.022   3.664  0.1726  1.2281  0.1867
  811MOL0     C 9415   7.660   8.142   3.403 -0.6220  0.1527 -0.2975
  811MOL0     C 9416   7.783   8.102   3.336  0.2075  0.6415 -0.5675
  811MOL0     C 9417   7.880   8.214   3.316 -0.6663  1.0777  0.0554
  811MOL0     H 9418   8.105   7.636   3.243  0.4383  1.4483  0.5248
  811MOL0     H 9419   8.314   7.587   3.094 -0.5264 -0.9849 -1.8327
  811MOL0     H 9420   8.496   7.664   2.982 -0.7233 -0.3180  0.9691
  811MOL0     H 9421   8.549   7.644   2.813  2.5177  1.1623  3.6500
  811MOL0     H 9422   8.593   7.866   2.944 -0.7341 -2.1568  0.5172
  811MOL0     H 9423   8.425   7.894   2.943 -1.5592 -2.0145  0.9760
  811MOL0     H 9424   8.588   7.826   2.695 -0.6081 -0.5413 -1.0303
  811MOL0     H 9425   8.590   7.995   2.759 -1.6517  1.5870 -0.2644
  811MOL0     H 9426   8.327   7.855   2.654 -1.4916  1.3620  2.6997
  811MOL0     H 9427   8.333   7.995   2.735 -2.1274 -2.2965 -1.6359
  811MOL0     H 9428   8.479   7.947   2.447 -3.0255 -0.4067 -2.7016
  811MOL0     H 9429   8.317   8.017   2.472  0.6647  3.8529  1.7698
  811MOL0     H 9430   8.421   8.214   2.578  1.2682  2.1800 -0.3156
  811MOL0     H 9431   8.577   8.129   2.570  1.2990  3.1668 -3.1835
  811MOL0     H 9432   8.409   8.187   2.321  0.8152  1.3028  0.1281
  811MOL0     H 9433   8.570   8.129   2.314  0.3145 -2.0766  2.7035
  811MOL0     H 9434   8.489   8.394   2.355  0.4769 -0.6166 -1.3462
  811MOL0     H 9435   8.590   8.350   2.490  1.9780 -1.8513 -0.0147
  811MOL0     H 9436   8.639   8.429   2.116  0.0613  0.0212  0.2221
  811MOL0     H 9437   8.984   8.347   2.006  1.6476  2.5862 -1.8166
  811MOL0     H 9438   8.829   8.420   1.955 -0.2118 -0.5742  1.1073
  811MOL0     H 9439   8.895   8.628   2.081 -3.2561 -3.0749  1.5691
  811MOL0     H 9440   9.050   8.544   2.128 -1.1064 -2.1557  1.4471
  811MOL0     H 9441   8.956   8.611   1.845  1.1058 -3.1710 -0.4967
  811MOL0     H 9442   9.105   8.538   1.869 -2.6644 -1.8936 -0.7219
  811MOL0     H 9443   9.015   8.820   1.944  3.7578  3.7657 -0.9920
  811MOL0     H 9444   9.148   8.789   1.853  1.1969 -0.1982  1.6233
  811MOL0     H 9445   9.336   8.760   2.234  0.3938 -3.0587 -5.1469
  811MOL0     H 9446   9.423   8.960   2.342  1.9951  0.3162 -1.0862
  811MOL0     H 9447   9.630   9.368   2.218  0.1138  2.4604  0.5798
  811MOL0     H 9448   9.854   9.432   2.283 -2.2207  5.0171  0.1734
  811MOL0     H 9449  10.032   9.516   2.384 -1.7479 -1.1620 -0.2993
  811MOL0     H 9450   9.928   9.614   2.487  1.0170  1.0236  3.7505
  811MOL0     H 9451  10.180   9.502   2.567 -2.1359 -1.0774  0.3489
  811MOL0     H 9452  10.153   9.670   2.516 -1.8236 -0.4918 -1.2427
  811MOL0     H 9453  10.018   9.564   2.766  2.1433  0.0287  0.6966
  811MOL0     H 9454  10.177   9.626   2.764  1.3557  0.4733 -0.8555
  811MOL0     H 9455   9.940   9.783   2.625  1.1662  0.2365 -0.9662
  811MOL0     H 9456  10.099   9.848   2.679  0.7499 -0.1324 -1.3582
  811MOL0     H 9457   9.906   9.711   2.859  0.0028  1.1208  0.2071
  811MOL0     H 9458   9.859   9.870   2.814  0.1867 -0.4514 -6.1948
  811MOL0     H 9459  10.136   9.814   2.929  1.0345  1.7413  1.5292
  811MOL0     H 9460  10.073   9.965   2.872  4.0773 -2.2672  0.0242
  811MOL0     H 9461  10.002   9.835   3.135  0.4769  1.7436  1.7971
  811MOL0     H 9462   9.868   9.896   3.052  0.3607 -2.8062 -1.6392
  811MOL0     H 9463  10.127  10.037   3.149 -1.4664  0.3328  1.1176
  811MOL0     H 9464  10.023  10.121   3.038  0.4175  1.8475  1.7726
  811MOL0     H 9465   9.749   9.293   2.686  0.9670  0.5050 -0.3458
  811MOL0     H 9466   9.559   9.180   2.605 -1.4980 -0.6456 -1.0039
  811MOL0     H 9467   9.240   9.195   2.033  0.8212 -0.7451 -1.4154
  811MOL0     H 9468   9.100   9.008   1.986 -1.8597 -2.8016  2.3934
  811MOL0     H 9469   8.115   7.773   2.771 -0.7469 -1.9619 -0.0161
  811MOL0     H 9470   7.920   7.825   2.932 -0.2688 -0.9358  0.9763
  811MOL0     H 9471   7.681   7.793   3.237  0.0261  0.8470 -1.7163
  811MOL0     H 9472   7.472   7.861   3.333 -1.0705  1.3596 -2.2284
  811MOL0     H 9473   7.413   8.258   3.347  0.7207 -0.9822 -0.2078
  811MOL0     H 9474   7.460   8.287   3.517 -2.0609  0.5216  1.7599
  811MOL0     H 9475   7.214   8.354   3.469 -1.5529 -0.5929  1.6935
  811MOL0     H 9476   7.230   8.226   3.584 -1.3353 -1.0725 -0.7247
  811MOL0     H 9477   7.203   8.160   3.285  1.0566 -4.2785  1.2206
  811MOL0     H 9478   7.073   8.257   3.368 -1.3956 -0.9346  0.2693
  811MOL0     H 9479   7.039   8.008   3.349 -0.0311  1.4715  0.1676
  811MOL0     H 9480   7.185   7.979   3.444 -0.1414 -0.9567  4.0307
  811MOL0     H 9481   6.933   8.007   3.765 -0.8626  0.4317 -0.2478
  811MOL0     H 9482   7.647   8.248   3.422  0.2392  0.6542 -2.1842
  811MOL0     H 9483   7.982   8.181   3.295 -0.0343  1.6473  1.9838
  811MOL0     H 9484   7.841   8.283   3.241 -2.0214 -0.9150 -1.1897
  811MOL0     H 9485   7.890   8.272   3.408 -0.4232  0.1890  0.6029
  812MOL0     O 9486   1.952   1.637   2.985  0.6980  0.0708  0.4566
  812MOL0     C 9487   2.024   1.735   2.966  0.0711  0.5659  0.6343
  812MOL0     O 9488   2.153   1.724   2.916  0.2677  0.0502  0.6069
  812MOL0     C 9489   2.232   1.605   2.920 -0.8314  0.3772 -0.2495
  812MOL0     C 9490   2.210   1.496   3.006  0.0303 -0.2395 -0.2949
  812MOL0     C 9491   2.281   1.381   3.009 -0.1021 -0.0834  1.0389
  812MOL0     C 9492   2.392   1.361   2.924 -0.7841 -0.0079  0.1435
  812MOL0     O 9493   2.450   1.236   2.926 -0.6537  0.3602  0.7158
  812MOL0     C 9494   2.567   1.214   2.841 -0.9624 -0.2941 -0.3457
  812MOL0     C 9495   2.554   1.139   2.706 -0.6617 -0.6549  0.4674
  812MOL0     C 9496   2.480   1.008   2.728  0.0246  0.6204  0.1269
  812MOL0     C 9497   2.458   0.928   2.598 -0.4583 -0.0855  0.0769
  812MOL0     C 9498   2.457   0.784   2.625  0.1700  0.0526  1.2184
  812MOL0     C 9499   2.346   0.725   2.716  0.2714 -0.8332  0.0196
  812MOL0     C 9500   2.210   0.771   2.681 -0.6394  0.6048  0.5389
  812MOL0     C 9501   2.165   0.717   2.551  0.1707 -0.2068  0.0583
  812MOL0     N 9502   2.022   0.685   2.554 -0.9923  0.5134 -0.1140
  812MOL0     C 9503   1.923   0.770   2.578 -0.1601 -1.0963  0.8188
  812MOL0     C 9504   1.812   0.721   2.512 -0.0869  0.0026  0.1564
  812MOL0     C 9505   1.690   0.802   2.474  0.0440  1.4227 -0.8674
  812MOL0     C 9506   1.602   0.822   2.600  0.5928 -0.4709 -0.0895
  812MOL0     C 9507   1.560   0.694   2.674  0.0630 -0.3606  0.2121
  812MOL0     C 9508   1.510   0.586   2.577  0.0838  0.0985 -0.4670
  812MOL0     O 9509   1.468   0.469   2.643 -0.6249 -0.6387 -0.3172
  812MOL0     C 9510   1.427   0.376   2.557 -0.6383  0.6060  0.3333
  812MOL0     C 9511   1.515   0.279   2.513 -0.8568  0.3054  0.5247
  812MOL0     C 9512   1.472   0.170   2.435 -0.1813  0.0373  0.3351
  812MOL0     C 9513   1.337   0.145   2.418  0.4906  0.2944 -0.3693
  812MOL0     C 9514   1.281   0.031   2.334 -1.4848  0.0078  0.6810
  812MOL0     O 9515   1.149   0.023   2.316 -0.3954  0.1015  0.0384
  812MOL0     C 9516   1.086  -0.081   2.255 -0.6832  1.2953  0.2682
  812MOL0     C 9517   0.983  -0.142   2.314  0.0143  0.1640 -0.7719
  812MOL0     C 9518   0.898  -0.234   2.249 -0.8333  0.1168 -0.5258
  812MOL0     C 9519   0.929  -0.267   2.116 -0.2567  0.9465 -0.0380
  812MOL0     O 9520   0.857  -0.356   2.046 -0.0162  0.5122  0.6204
  812MOL0     C 9521   0.736  -0.413   2.101 -0.3799 -0.5930  0.2649
  812MOL0     C 9522   0.678  -0.524   2.009  0.1429 -0.4303  0.3424
  812MOL0     C 9523   0.525  -0.558   2.048 -0.3318 -0.7618  0.4768
  812MOL0     C 9524   0.513  -0.582   2.205  0.2772  0.2871  0.4399
  812MOL0     C 9525   0.380  -0.644   2.239  0.8523  0.3583 -0.5757
  812MOL0     C 9526   0.359  -0.652   2.397 -0.3518  0.4323  0.1227
  812MOL0     C 9527   0.256  -0.754   2.437 -0.3140  0.3990 -0.4157
  812MOL0     C 9528   0.261  -0.755   2.589 -0.4680  0.3672  0.0769
  812MOL0    Cl 9529   0.177  -0.893   2.652  0.1999  0.1068 -0.2610
  812MOL0     C 9530   1.047  -0.223   2.057 -0.3328 -0.7431 -0.3582
  812MOL0     C 9531   1.127  -0.135   2.131  1.1021  0.1594  0.4327
  812MOL0     O 9532   1.365  -0.044   2.289  0.5441  0.0219  0.3427
  812MOL0     C 9533   1.241   0.244   2.473 -0.5833  0.1770  0.0267
  812MOL0     C 9534   1.290   0.357   2.533 -0.3534  0.5501  0.5901
  812MOL0     N 9535   1.849   0.606   2.442 -0.3086 -0.0897  0.6578
  812MOL0     N 9536   1.965   0.578   2.486 -0.8291  0.5595  0.1710
  812MOL0     C 9537   2.417   1.470   2.830 -0.4335 -0.4068  0.9560
  812MOL0     C 9538   2.339   1.584   2.836  0.1978  0.0084  0.1608
  812MOL0     C 9539   1.982   1.866   3.006 -0.3262 -0.8994  0.5663
  812MOL0     C 9540   1.855   1.869   3.062  0.2524  0.3529 -0.7599
  812MOL0     C 9541   1.799   1.985   3.115 -0.4116  0.2118  0.5957
  812MOL0     C 9542   1.863   2.107   3.099  0.6515  0.3705  0.4475
  812MOL0     O 9543   1.803   2.225   3.118  0.2128 -0.2185 -0.7905
  812MOL0     C 9544   1.861   2.351   3.110  0.2890 -0.0044 -0.5775
  812MOL0     C 9545   1.954   2.372   3.232 -0.7998 -0.1794 -0.0852
  812MOL0     C 9546   2.026   2.509   3.214 -0.5670 -0.5062  0.5301
  812MOL0     C 9547   1.938   2.634   3.253 -0.9091  0.2140  0.2308
  812MOL0     C 9548   1.952   2.732   3.139  0.7004 -0.5099  0.0778
  812MOL0     C 9549   1.966   2.805   3.041 -0.2865  0.4597 -0.0831
  812MOL0     C 9550   1.994   2.099   3.045  0.6793 -0.5807  1.1354
  812MOL0     C 9551   2.058   1.986   3.006 -0.2750  0.5155 -0.5410
  812MOL0     C 9552   2.191   2.010   2.943 -0.3342  0.3385  0.3433
  812MOL0     H 9553   2.154   1.518   3.097  1.6044 -2.0039  1.1903
  812MOL0     H 9554   2.260   1.295   3.071  1.7871 -0.6210  0.9945
  812MOL0     H 9555   2.635   1.300   2.832  2.8092 -3.1064 -1.1814
  812MOL0     H 9556   2.635   1.152   2.900  1.2763  0.2150 -2.2561
  812MOL0     H 9557   2.655   1.123   2.668  1.4484  0.5139  4.9344
  812MOL0     H 9558   2.503   1.198   2.630  1.5661 -1.4786 -1.8053
  812MOL0     H 9559   2.387   1.032   2.780 -0.4028 -1.8333  0.5963
  812MOL0     H 9560   2.554   0.958   2.791  1.0615 -0.6711 -2.0047
  812MOL0     H 9561   2.369   0.960   2.544  0.6436  2.9862 -0.0977
  812MOL0     H 9562   2.532   0.956   2.523 -1.1739 -1.3782 -1.1767
  812MOL0     H 9563   2.441   0.736   2.528  1.2479  0.4237  0.8380
  812MOL0     H 9564   2.555   0.755   2.664  1.1459 -0.7183 -1.5880
  812MOL0     H 9565   2.350   0.616   2.720  0.4275 -0.7992  0.9374
  812MOL0     H 9566   2.368   0.760   2.817 -1.3345  3.1899 -0.8154
  812MOL0     H 9567   2.195   0.880   2.680 -1.5530  0.5181 -2.1128
  812MOL0     H 9568   2.137   0.735   2.755 -4.4867  1.6331 -2.4368
  812MOL0     H 9569   2.185   0.776   2.462  4.2048  0.1874  1.0377
  812MOL0     H 9570   2.220   0.624   2.534  0.0804  0.2266 -2.9963
  812MOL0     H 9571   1.932   0.867   2.626  0.1971  0.6943 -2.5284
  812MOL0     H 9572   1.722   0.900   2.438  0.3885  2.3823  1.7802
  812MOL0     H 9573   1.633   0.747   2.399 -1.5002  1.2215  0.4097
  812MOL0     H 9574   1.661   0.886   2.666  0.7669  0.1217 -0.8026
  812MOL0     H 9575   1.525   0.894   2.572  2.3886  2.0270  1.0319
  812MOL0     H 9576   1.483   0.719   2.748 -0.2967 -0.1338 -0.2275
  812MOL0     H 9577   1.645   0.642   2.718  1.5206  2.0544  0.3538
  812MOL0     H 9578   1.597   0.555   2.519  1.2184 -1.3586  1.8119
  812MOL0     H 9579   1.437   0.643   2.519 -0.1158  1.7858  1.3242
  812MOL0     H 9580   1.618   0.301   2.536 -0.3474 -3.1821  2.1459
  812MOL0     H 9581   1.541   0.093   2.401 -1.1160 -0.3808 -0.6741
  812MOL0     H 9582   0.955  -0.096   2.407 -1.3439 -3.2658  0.6812
  812MOL0     H 9583   0.817  -0.277   2.307 -1.1145  0.9959 -0.2452
  812MOL0     H 9584   0.760  -0.447   2.202 -2.5621 -0.1045  1.0117
  812MOL0     H 9585   0.661  -0.333   2.101  1.2849  1.2028 -3.2732
  812MOL0     H 9586   0.684  -0.480   1.910  2.9397  2.8081  1.7468
  812MOL0     H 9587   0.745  -0.610   2.004  2.8468  1.4143  2.1373
  812MOL0     H 9588   0.461  -0.471   2.028  1.0183  0.0983 -0.2519
  812MOL0     H 9589   0.489  -0.642   1.988 -3.2449  0.7992 -0.1647
  812MOL0     H 9590   0.532  -0.501   2.277  2.7682 -2.9388  3.7844
  812MOL0     H 9591   0.590  -0.652   2.238 -1.8379 -0.6574  3.9658
  812MOL0     H 9592   0.385  -0.748   2.204  3.0058  0.5804 -1.0332
  812MOL0     H 9593   0.299  -0.601   2.180  0.4401 -1.1218 -1.1460
  812MOL0     H 9594   0.452  -0.676   2.448 -0.3916  0.2438  0.1090
  812MOL0     H 9595   0.330  -0.549   2.420  0.9779  1.1393 -1.1787
  812MOL0     H 9596   0.275  -0.855   2.401 -0.8631  0.6229 -1.3612
  812MOL0     H 9597   0.153  -0.725   2.415 -1.4492 -2.3544  0.7718
  812MOL0     H 9598   0.365  -0.763   2.621 -0.5917 -1.3784  0.0943
  812MOL0     H 9599   0.216  -0.664   2.630 -1.3975  1.3614 -2.9206
  812MOL0     H 9600   1.086  -0.256   1.961  1.3286  0.6057 -0.1995
  812MOL0     H 9601   1.214  -0.090   2.085  1.8149 -0.5595  1.0358
  812MOL0     H 9602   1.133   0.236   2.467 -0.6139  0.5951  0.0217
  812MOL0     H 9603   1.218   0.421   2.585 -0.3735  0.5484  0.5643
  812MOL0     H 9604   2.505   1.468   2.766 -0.2435 -0.9340  1.2235
  812MOL0     H 9605   2.358   1.664   2.765 -2.2109 -0.6980 -1.3873
  812MOL0     H 9606   1.792   1.781   3.076  1.5078 -0.6839 -1.4493
  812MOL0     H 9607   1.702   1.971   3.162 -0.9312 -1.2321 -0.8277
  812MOL0     H 9608   1.789   2.433   3.119  1.0897  0.8487 -1.7516
  812MOL0     H 9609   1.920   2.358   3.019  3.2059 -0.8465  1.1354
  812MOL0     H 9610   2.026   2.290   3.243 -1.6687 -0.7329  1.8621
  812MOL0     H 9611   1.887   2.372   3.318 -2.3397 -3.0651 -1.1498
  812MOL0     H 9612   2.059   2.532   3.112 -0.7728  2.3447  1.0277
  812MOL0     H 9613   2.124   2.506   3.262  0.0532  4.0654 -0.0193
  812MOL0     H 9614   1.835   2.615   3.285 -1.7461  1.2662 -1.6754
  812MOL0     H 9615   1.973   2.673   3.349  0.5254 -1.6320  0.5287
  812MOL0     H 9616   1.980   2.871   2.958  0.6222  0.4666  0.0615
  812MOL0     H 9617   2.050   2.192   3.042 -0.7793  0.3514 -1.7607
  812MOL0     H 9618   2.274   1.967   2.999 -0.6281 -1.1511 -0.3166
  812MOL0     H 9619   2.189   1.961   2.845  1.4044 -3.5722  2.0564
  812MOL0     H 9620   2.214   2.117   2.936 -1.2725  0.5308  0.0353
  813MOL0     O 9621   1.679   2.869   6.700 -0.2637  1.1207 -1.1828
  813MOL0     C 9622   1.665   2.744   6.714  0.2179 -0.3700  0.1739
  813MOL0     O 9623   1.727   2.647   6.630 -0.4986 -1.1279 -0.7223
  813MOL0     C 9624   1.777   2.704   6.513  0.0245 -0.6605 -0.3063
  813MOL0     C 9625   1.899   2.766   6.519 -0.3706 -0.0939 -0.0494
  813MOL0     C 9626   1.956   2.819   6.406 -1.7938  0.4089  0.3776
  813MOL0     C 9627   1.902   2.806   6.280  0.9281  0.4114  0.5230
  813MOL0     O 9628   1.960   2.861   6.164  1.0979  0.0437 -0.4355
  813MOL0     C 9629   1.880   2.925   6.066  0.4846 -0.0382  0.2657
  813MOL0     C 9630   1.966   2.982   5.951 -0.1227 -0.0117  0.4827
  813MOL0     C 9631   2.066   3.091   5.992 -0.4984 -0.5391 -0.2794
  813MOL0     C 9632   2.180   3.102   5.890  0.4034 -0.8105  0.8740
  813MOL0     C 9633   2.236   3.245   5.906 -0.0430 -0.4139 -0.1168
  813MOL0     C 9634   2.319   3.255   6.026 -0.2216 -0.8583 -0.1234
  813MOL0     C 9635   2.377   3.390   6.047  0.3523 -0.1081 -0.2717
  813MOL0     C 9636   2.426   3.429   6.184  0.2272  0.5355 -0.6071
  813MOL0     N 9637   2.533   3.338   6.232 -0.9481  0.0582 -0.0921
  813MOL0     C 9638   2.661   3.375   6.261  0.0669 -0.0238 -0.9273
  813MOL0     C 9639   2.713   3.272   6.333  0.0360 -0.3586 -0.8498
  813MOL0     C 9640   2.852   3.283   6.389  0.0013  0.1329  0.6395
  813MOL0     C 9641   2.936   3.151   6.394 -0.5197 -0.1353  0.4562
  813MOL0     C 9642   3.072   3.177   6.458  0.2882 -1.0983 -0.2731
  813MOL0     C 9643   3.123   3.043   6.505  0.6665 -0.1886  0.7191
  813MOL0     O 9644   3.260   3.045   6.540 -0.2175 -0.4105 -0.4657
  813MOL0     C 9645   3.310   2.923   6.585  0.1913  0.1839 -0.0795
  813MOL0     C 9646   3.261   2.798   6.561 -0.2006  0.8039  0.2337
  813MOL0     C 9647   3.306   2.694   6.645  0.1853  0.8217  0.6869
  813MOL0     C 9648   3.413   2.706   6.734 -0.0081 -0.4275  0.2541
  813MOL0     C 9649   3.454   2.596   6.818 -0.6145  0.6077 -0.5013
  813MOL0     O 9650   3.579   2.604   6.881 -0.6885  0.0183  0.4927
  813MOL0     C 9651   3.643   2.489   6.917 -1.0545  0.0254 -0.8983
  813MOL0     C 9652   3.605   2.400   7.026  0.3335 -0.3316 -0.0807
  813MOL0     C 9653   3.667   2.273   7.033 -0.3180  0.4252  0.5349
  813MOL0     C 9654   3.790   2.248   6.959  0.2565 -0.6220 -0.6092
  813MOL0     O 9655   3.855   2.125   6.938  0.1309  0.1836  0.9500
  813MOL0     C 9656   3.843   2.031   7.048 -0.4185  0.1003  0.6971
  813MOL0     C 9657   3.947   2.061   7.159 -0.9845  0.2211  0.2290
  813MOL0     C 9658   3.966   1.927   7.226 -0.4958  0.0165 -0.1122
  813MOL0     C 9659   4.045   1.951   7.347 -0.0238  0.1799  0.3646
  813MOL0     C 9660   4.058   1.820   7.421 -0.1499  0.3359  0.0502
  813MOL0     C 9661   4.186   1.831   7.504 -0.5058  0.4867  0.5888
  813MOL0     C 9662   4.206   1.690   7.562  1.5926 -0.1652  1.0257
  813MOL0     C 9663   4.290   1.698   7.687  0.3387 -0.6240 -0.3820
  813MOL0    Cl 9664   4.450   1.771   7.659 -0.3174  0.0411 -0.1594
  813MOL0     C 9665   3.839   2.348   6.880  0.4132 -0.4588  0.0392
  813MOL0     C 9666   3.761   2.457   6.850 -0.2218  0.1442  0.6861
  813MOL0     O 9667   3.388   2.497   6.833  0.5690 -0.6496  0.3238
  813MOL0     C 9668   3.467   2.833   6.749 -0.4499 -0.9244  0.0679
  813MOL0     C 9669   3.415   2.940   6.669 -0.5763  0.6201 -0.2940
  813MOL0     N 9670   2.615   3.186   6.365  0.0571 -0.3680 -0.1538
  813MOL0     N 9671   2.511   3.218   6.287  0.3147  0.4723 -0.3881
  813MOL0     C 9672   1.781   2.738   6.268 -0.0606 -0.3046 -0.1152
  813MOL0     C 9673   1.720   2.683   6.385  0.9247 -0.5558  0.0946
  813MOL0     C 9674   1.612   2.680   6.832  0.2230 -0.1351  0.2422
  813MOL0     C 9675   1.647   2.545   6.870  0.1333 -1.1455  0.2795
  813MOL0     C 9676   1.575   2.480   6.968  0.3545  0.5156 -0.2269
  813MOL0     C 9677   1.457   2.538   7.022  0.0120  0.4122 -0.0786
  813MOL0     O 9678   1.374   2.452   7.093 -0.0077 -0.2944 -0.6006
  813MOL0     C 9679   1.238   2.492   7.120 -1.4435 -0.4976  0.9040
  813MOL0     C 9680   1.171   2.393   7.216  0.0334 -1.7621  0.2771
  813MOL0     C 9681   1.254   2.359   7.332 -1.2489  0.3755  0.0838
  813MOL0     C 9682   1.164   2.296   7.442 -1.2574  0.4910  0.3649
  813MOL0     C 9683   1.250   2.229   7.538  0.1562 -0.1960 -0.0807
  813MOL0     C 9684   1.298   2.169   7.633 -0.0015  0.8922  0.2651
  813MOL0     C 9685   1.429   2.671   7.001  0.8724  0.7194  0.6896
  813MOL0     C 9686   1.503   2.740   6.909 -0.2732 -0.7617 -0.8190
  813MOL0     C 9687   1.467   2.881   6.885  0.5907  0.6262 -0.2764
  813MOL0     H 9688   1.953   2.782   6.612  5.4056 -0.6816 -2.8893
  813MOL0     H 9689   2.056   2.858   6.420 -1.3000 -1.0726  1.1909
  813MOL0     H 9690   1.816   2.844   6.031  2.9426 -2.7218  1.6096
  813MOL0     H 9691   1.831   3.015   6.105 -0.2520  0.9007 -2.5978
  813MOL0     H 9692   1.896   3.017   5.874 -0.3649  0.8501  1.0817
  813MOL0     H 9693   1.996   2.888   5.905 -1.9226 -0.2781 -0.2508
  813MOL0     H 9694   2.113   3.060   6.085  0.7759 -2.3556 -1.4453
  813MOL0     H 9695   2.014   3.185   6.009  0.9743  0.1646  0.4967
  813MOL0     H 9696   2.257   3.025   5.905  0.8247 -0.5317  0.1928
  813MOL0     H 9697   2.148   3.075   5.789  3.3420 -1.3450 -0.0105
  813MOL0     H 9698   2.306   3.263   5.824  0.2115  0.7401  0.3406
  813MOL0     H 9699   2.159   3.323   5.901  0.4267  0.2752  2.0588
  813MOL0     H 9700   2.269   3.224   6.118  0.7552 -2.0130  0.0441
  813MOL0     H 9701   2.399   3.185   5.999 -1.2065 -2.3248  0.6446
  813MOL0     H 9702   2.298   3.461   6.022  1.4854  0.4169 -2.5833
  813MOL0     H 9703   2.448   3.413   5.968  1.3004 -3.3988 -0.5270
  813MOL0     H 9704   2.461   3.532   6.194 -2.1996  1.3541  0.0276
  813MOL0     H 9705   2.351   3.405   6.260 -0.5335  0.0939 -1.4800
  813MOL0     H 9706   2.715   3.467   6.243 -2.2908  1.4584 -0.7700
  813MOL0     H 9707   2.902   3.366   6.337 -1.1851  1.1443  1.0434
  813MOL0     H 9708   2.841   3.320   6.492  0.1171 -0.2528  0.7917
  813MOL0     H 9709   2.891   3.076   6.460  0.8404 -1.4961 -0.1024
  813MOL0     H 9710   2.945   3.100   6.298 -1.1862  3.6888 -1.8612
  813MOL0     H 9711   3.062   3.245   6.544 -0.7297 -1.4806 -0.0653
  813MOL0     H 9712   3.145   3.210   6.384 -0.2056 -0.8280 -0.6505
  813MOL0     H 9713   3.100   2.970   6.427 -2.1770 -1.9431  2.9813
  813MOL0     H 9714   3.073   3.005   6.594 -1.3150  0.1979 -0.1678
  813MOL0     H 9715   3.184   2.788   6.485  1.1531  1.3041 -1.2522
  813MOL0     H 9716   3.269   2.592   6.642  0.8684  0.5253  1.9047
  813MOL0     H 9717   3.524   2.417   7.096 -0.1078  1.5788 -0.9972
  813MOL0     H 9718   3.628   2.203   7.106 -0.6800  2.5786  2.5080
  813MOL0     H 9719   3.741   2.020   7.085 -0.7799  0.5604 -0.1273
  813MOL0     H 9720   3.877   1.943   6.992 -4.4550 -0.8346 -0.6709
  813MOL0     H 9721   4.038   2.074   7.100 -0.1081  0.4828  1.5756
  813MOL0     H 9722   3.915   2.147   7.219 -0.7003  0.3771  0.1559
  813MOL0     H 9723   3.868   1.889   7.255 -0.2168 -0.4845  0.1814
  813MOL0     H 9724   4.010   1.844   7.170 -0.3573  0.3003 -0.4264
  813MOL0     H 9725   4.005   2.029   7.412 -0.0270 -1.4768  2.4615
  813MOL0     H 9726   4.134   1.982   7.290 -0.6189  0.6975 -0.2971
  813MOL0     H 9727   4.072   1.734   7.355  2.1159 -0.6770  1.7392
  813MOL0     H 9728   3.974   1.818   7.491 -0.1181  0.2963  0.0857
  813MOL0     H 9729   4.261   1.856   7.428  0.0149 -1.0230  0.5735
  813MOL0     H 9730   4.190   1.904   7.586 -1.0719 -0.0387  1.0942
  813MOL0     H 9731   4.248   1.628   7.483  3.6141  0.9558  1.1578
  813MOL0     H 9732   4.107   1.648   7.580 -0.0088  0.6623 -4.2318
  813MOL0     H 9733   4.237   1.750   7.767  0.8355 -1.6044  0.6019
  813MOL0     H 9734   4.307   1.600   7.732  2.0480  0.0624  0.5822
  813MOL0     H 9735   3.922   2.329   6.813 -0.1203  1.5495 -1.2817
  813MOL0     H 9736   3.791   2.541   6.789 -2.1125  1.9937  2.1352
  813MOL0     H 9737   3.528   2.853   6.836 -0.9252  1.9172 -0.1576
  813MOL0     H 9738   3.430   3.046   6.687 -1.1845  0.1379  3.8826
  813MOL0     H 9739   1.735   2.724   6.171  2.3819  1.1484 -1.6049
  813MOL0     H 9740   1.620   2.641   6.378  1.3865 -1.6831  0.1140
  813MOL0     H 9741   1.724   2.495   6.813 -1.3141 -0.0740 -2.7944
  813MOL0     H 9742   1.594   2.376   6.992 -2.0467 -0.3366 -1.6491
  813MOL0     H 9743   1.184   2.510   7.027  1.3250  1.6903 -0.4088
  813MOL0     H 9744   1.242   2.578   7.187  2.4623 -1.7059  2.5543
  813MOL0     H 9745   1.142   2.298   7.171 -1.0393 -1.7744  0.9349
  813MOL0     H 9746   1.074   2.441   7.232  1.1437  0.9571 -0.6077
  813MOL0     H 9747   1.288   2.455   7.371  0.3668  0.0390 -0.3864
  813MOL0     H 9748   1.340   2.299   7.302 -0.1716  0.0791  3.3438
  813MOL0     H 9749   1.111   2.376   7.493 -0.9951  1.8635 -1.4045
  813MOL0     H 9750   1.090   2.226   7.403 -1.7329  1.6411 -0.9073
  813MOL0     H 9751   1.342   2.122   7.718  1.2652  1.3541 -0.1104
  813MOL0     H 9752   1.348   2.714   7.058 -1.3296 -2.5634  0.3431
  813MOL0     H 9753   1.419   2.906   6.790 -0.6533 -1.8763 -0.3695
  813MOL0     H 9754   1.384   2.911   6.950  0.6430  2.9953 -1.1970
  813MOL0     H 9755   1.554   2.947   6.896  0.1971  1.5181 -2.1707
  814MOL0     O 9756   9.985   6.672   7.827 -0.0568  0.1050 -0.0085
  814MOL0     C 9757   9.965   6.745   7.926 -0.0461  0.0402 -0.2176
  814MOL0     O 9758  10.045   6.844   7.968 -0.1069  0.8550 -0.5866
  814MOL0     C 9759  10.155   6.880   7.901 -0.1642 -0.0256 -0.1948
  814MOL0     C 9760  10.266   6.794   7.894  0.3062  0.4654  0.0164
  814MOL0     C 9761  10.387   6.841   7.850 -0.0361 -0.0739  1.5429
  814MOL0     C 9762  10.409   6.972   7.808 -0.2795 -0.5098 -1.1979
  814MOL0     O 9763  10.538   7.003   7.765 -0.0385 -0.1040  0.3119
  814MOL0     C 9764  10.554   7.085   7.645 -0.6165 -0.3115 -1.4023
  814MOL0     C 9765  10.675   7.026   7.581 -0.3252 -0.5142  0.3450
  814MOL0     C 9766  10.768   7.140   7.517 -0.3836  0.0449  1.4815
  814MOL0     C 9767  10.891   7.077   7.448  1.5064 -0.3755 -0.3274
  814MOL0     C 9768  10.980   7.161   7.362  0.2898  0.1906 -0.1579
  814MOL0     C 9769  10.906   7.260   7.260 -0.1190  0.4179  0.4876
  814MOL0     C 9770  11.028   7.329   7.195  0.5144 -0.0132  0.8517
  814MOL0     C 9771  11.101   7.242   7.091  0.2349  1.1339 -1.0093
  814MOL0     N 9772  11.167   7.335   6.996  0.1571  0.6472  0.2526
  814MOL0     C 9773  11.298   7.303   6.959  0.5282 -0.5792 -0.4720
  814MOL0     C 9774  11.327   7.380   6.855 -0.0388  0.0303 -0.0432
  814MOL0     C 9775  11.458   7.394   6.795 -0.6056  0.0593 -0.5800
  814MOL0     C 9776  11.560   7.449   6.907 -0.7740 -0.1166 -0.4320
  814MOL0     C 9777  11.530   7.584   6.971 -0.5336  0.5291  0.6149
  814MOL0     C 9778  11.525   7.694   6.867 -0.1465  0.2776 -1.5652
  814MOL0     O 9779  11.522   7.821   6.927  0.4958 -0.4237 -0.0993
  814MOL0     C 9780  11.403   7.861   6.976 -0.4905  0.9236  0.1920
  814MOL0     C 9781  11.405   7.977   7.043 -0.1531 -0.5288 -0.9168
  814MOL0     C 9782  11.285   8.018   7.107  0.1295 -0.1562 -0.6685
  814MOL0     C 9783  11.175   7.927   7.126 -0.8781  0.6004  0.3295
  814MOL0     C 9784  11.054   7.982   7.186  0.5143  1.1975  0.1996
  814MOL0     O 9785  11.048   8.111   7.215 -0.9004  0.6480 -0.2970
  814MOL0     C 9786  10.929   8.165   7.258  0.9016 -0.5716  1.6674
  814MOL0     C 9787  10.859   8.271   7.195  0.2681  0.8331 -0.2316
  814MOL0     C 9788  10.749   8.333   7.261 -0.1379 -0.1341  0.1304
  814MOL0     C 9789  10.695   8.271   7.372  0.9424 -0.2227 -0.2273
  814MOL0     O 9790  10.588   8.337   7.438  0.7266  1.1284  0.3891
  814MOL0     C 9791  10.633   8.363   7.567 -0.9227 -0.7676  0.7566
  814MOL0     C 9792  10.533   8.463   7.627  1.0610 -0.4674 -0.2420
  814MOL0     C 9793  10.396   8.390   7.665  1.1229 -0.9243  0.3638
  814MOL0     C 9794  10.402   8.246   7.678  0.5484  0.2530 -0.5307
  814MOL0     C 9795  10.272   8.170   7.708  0.3106  0.7626 -0.4379
  814MOL0     C 9796  10.208   8.208   7.841  0.1734  0.6672  0.4023
  814MOL0     C 9797  10.121   8.095   7.891  0.9086  0.6283  0.2070
  814MOL0     C 9798  10.081   8.110   8.039  0.2246 -0.0934 -0.4338
  814MOL0    Cl 9799  10.211   8.063   8.136  0.7117  0.0695 -0.2827
  814MOL0     C 9800  10.752   8.155   7.424  1.2205 -0.5790 -0.1141
  814MOL0     C 9801  10.870   8.109   7.368 -0.6031 -0.1358  0.3059
  814MOL0     O 9802  10.962   7.895   7.193 -0.1297 -0.4809 -0.2083
  814MOL0     C 9803  11.171   7.810   7.054 -0.6137  0.3090  0.0256
  814MOL0     C 9804  11.283   7.779   6.981 -0.4702 -0.3099 -0.3527
  814MOL0     N 9805  11.210   7.449   6.827  0.3221  0.8514  0.6914
  814MOL0     N 9806  11.116   7.422   6.903 -0.3532 -0.0806  0.4377
  814MOL0     C 9807  10.303   7.060   7.817 -0.0237  0.5684  0.6287
  814MOL0     C 9808  10.175   7.022   7.865 -0.3354  0.7867 -1.4359
  814MOL0     C 9809   9.838   6.734   8.001 -0.5779  0.7889 -0.3153
  814MOL0     C 9810   9.723   6.772   7.926  0.1444  1.5595 -0.4708
  814MOL0     C 9811   9.603   6.763   7.992 -0.6468 -0.4457  0.7059
  814MOL0     C 9812   9.601   6.719   8.127 -0.2146 -1.4155  0.0436
  814MOL0     O 9813   9.489   6.704   8.206  0.1012 -0.1252 -0.1867
  814MOL0     C 9814   9.375   6.649   8.150 -0.0289  0.5971 -0.2427
  814MOL0     C 9815   9.357   6.499   8.196 -0.2402  0.1831 -0.6457
  814MOL0     C 9816   9.231   6.452   8.128 -0.5591  0.4435  0.3306
  814MOL0     C 9817   9.210   6.303   8.147 -0.2475 -0.2536 -0.0129
  814MOL0     C 9818   9.316   6.220   8.102 -0.5815 -0.3827 -0.0149
  814MOL0     C 9819   9.405   6.146   8.058  0.5152  0.0662  0.2016
  814MOL0     C 9820   9.708   6.684   8.189 -0.4757  0.7233 -0.7146
  814MOL0     C 9821   9.837   6.692   8.129  0.3326 -0.3390  0.2994
  814MOL0     C 9822   9.962   6.648   8.203 -0.9621  0.6527  0.5641
  814MOL0     H 9823  10.260   6.690   7.923 -0.0167  0.5085  0.1019
  814MOL0     H 9824  10.464   6.767   7.830 -1.7884 -1.2249 -1.4890
  814MOL0     H 9825  10.459   7.087   7.592 -2.1115  0.7135  1.1089
  814MOL0     H 9826  10.581   7.187   7.675  3.2744 -1.0595 -1.9154
  814MOL0     H 9827  10.641   6.953   7.507  2.0024  0.2326 -1.5962
  814MOL0     H 9828  10.733   6.969   7.654  1.2654  0.9981  0.3340
  814MOL0     H 9829  10.810   7.202   7.597  1.7285 -0.1182  0.5525
  814MOL0     H 9830  10.709   7.208   7.456  3.5631  0.9131 -1.8117
  814MOL0     H 9831  10.965   7.040   7.519 -0.3513  1.0086  2.5005
  814MOL0     H 9832  10.861   6.991   7.386 -1.4451 -1.2973  2.1187
  814MOL0     H 9833  11.041   7.213   7.438  0.5683 -0.3757  0.0110
  814MOL0     H 9834  11.044   7.100   7.299  0.2743 -0.0317  0.0387
  814MOL0     H 9835  10.848   7.208   7.183  0.4359 -0.9831  0.9815
  814MOL0     H 9836  10.852   7.344   7.304 -0.0716  3.0574 -3.9249
  814MOL0     H 9837  11.101   7.361   7.271  2.1712 -2.7210  0.5088
  814MOL0     H 9838  10.980   7.410   7.139 -1.6687 -3.3336 -2.5627
  814MOL0     H 9839  11.174   7.174   7.135 -1.1634  1.0880  1.4579
  814MOL0     H 9840  11.027   7.180   7.040  2.8782 -1.9967 -1.3596
  814MOL0     H 9841  11.369   7.236   7.007  0.2487  0.7586  1.9454
  814MOL0     H 9842  11.496   7.298   6.757 -0.4133  1.2671 -3.6603
  814MOL0     H 9843  11.447   7.453   6.704  1.6527 -0.1719 -1.0760
  814MOL0     H 9844  11.555   7.372   6.984  2.2427  0.8555  0.8906
  814MOL0     H 9845  11.667   7.443   6.884  0.1341 -0.8076  3.3942
  814MOL0     H 9846  11.608   7.609   7.045  1.2531 -0.3060 -0.8996
  814MOL0     H 9847  11.435   7.566   7.023 -0.6849 -0.4971  0.0144
  814MOL0     H 9848  11.450   7.691   6.787 -3.9409  0.7525  1.6709
  814MOL0     H 9849  11.625   7.690   6.822  1.2128 -1.6468  1.2965
  814MOL0     H 9850  11.495   8.038   7.037 -1.1586  1.0260 -0.6946
  814MOL0     H 9851  11.283   8.124   7.129  0.6240 -0.5077  1.2533
  814MOL0     H 9852  10.911   8.319   7.112  0.9178  0.2007 -0.2066
  814MOL0     H 9853  10.708   8.424   7.218 -0.8143  0.3909  1.8256
  814MOL0     H 9854  10.644   8.272   7.627 -1.5668  0.5776  3.0593
  814MOL0     H 9855  10.731   8.410   7.554 -0.3043 -1.1344  3.4696
  814MOL0     H 9856  10.578   8.509   7.715  0.6231  3.0550 -1.6950
  814MOL0     H 9857  10.520   8.547   7.558  2.4470 -1.5405 -1.8807
  814MOL0     H 9858  10.373   8.429   7.765  2.6719 -0.2132  0.4585
  814MOL0     H 9859  10.322   8.420   7.590  0.6411 -1.1891  0.7254
  814MOL0     H 9860  10.482   8.223   7.749 -1.9773 -1.3405  2.0219
  814MOL0     H 9861  10.434   8.200   7.584 -0.7824 -1.9627  0.0302
  814MOL0     H 9862  10.299   8.064   7.709 -1.6261  0.2164 -1.1467
  814MOL0     H 9863  10.201   8.182   7.625  2.2399 -0.5664 -2.3957
  814MOL0     H 9864  10.289   8.237   7.908  1.2543 -0.5360 -0.3341
  814MOL0     H 9865  10.146   8.298   7.835 -0.1603  0.4010 -0.2492
  814MOL0     H 9866  10.167   7.997   7.880 -0.1831  0.4009 -3.3190
  814MOL0     H 9867  10.025   8.092   7.839  0.7259  0.7875  0.5316
  814MOL0     H 9868  10.050   8.212   8.062 -0.1178 -0.3918  0.5030
  814MOL0     H 9869   9.992   8.047   8.052  0.1051 -0.1453 -1.3879
  814MOL0     H 9870  10.693   8.099   7.495  1.0678  0.2619  0.4444
  814MOL0     H 9871  10.916   8.019   7.410 -0.5456 -1.0097 -1.5412
  814MOL0     H 9872  11.092   7.735   7.055  0.6156 -1.0838 -1.6765
  814MOL0     H 9873  11.277   7.693   6.916  2.4794 -1.0308  0.1581
  814MOL0     H 9874  10.316   7.161   7.781  2.4271  0.4526  0.9959
  814MOL0     H 9875  10.104   7.098   7.895  0.6533  1.9613 -2.0031
  814MOL0     H 9876   9.726   6.794   7.820 -1.1688 -0.2399 -0.9331
  814MOL0     H 9877   9.513   6.792   7.938 -0.2872  1.8074  1.2401
  814MOL0     H 9878   9.373   6.655   8.040  5.8325  1.1760 -0.6327
  814MOL0     H 9879   9.295   6.705   8.200 -2.1862 -2.7422  0.3633
  814MOL0     H 9880   9.345   6.491   8.305  1.7157 -3.4200 -0.5362
  814MOL0     H 9881   9.449   6.444   8.172 -0.8118  0.0516 -2.7546
  814MOL0     H 9882   9.228   6.475   8.022 -2.8768 -1.0302  0.0018
  814MOL0     H 9883   9.148   6.518   8.155 -0.0490  1.1182  0.2628
  814MOL0     H 9884   9.182   6.284   8.250  5.2788 -1.3874  1.6170
  814MOL0     H 9885   9.124   6.271   8.088 -1.6492  1.5197  0.9649
  814MOL0     H 9886   9.487   6.082   8.033  0.6398 -0.9481  2.9164
  814MOL0     H 9887   9.701   6.633   8.284 -1.0270 -1.3306 -1.8096
  814MOL0     H 9888   9.947   6.602   8.301  0.3744  2.0740  1.5013
  814MOL0     H 9889  10.008   6.571   8.141 -1.9884  0.6344 -0.1969
  814MOL0     H 9890  10.027   6.736   8.219 -1.7924  1.7649 -1.7410
  815MOL0     O 9891   1.016   5.050   9.106 -0.1377  0.0279 -0.3049
  815MOL0     C 9892   1.008   4.942   9.160 -0.2488 -0.2830  0.1244
  815MOL0     O 9893   1.086   4.897   9.267 -0.5280 -0.0203 -0.0494
  815MOL0     C 9894   1.191   4.973   9.328  0.3854  0.2129  0.1147
  815MOL0     C 9895   1.287   4.911   9.413  0.2095  0.7282  0.8120
  815MOL0     C 9896   1.385   4.973   9.483  0.2460  0.2633 -0.0244
  815MOL0     C 9897   1.398   5.113   9.483  0.0483 -0.2618 -0.0943
  815MOL0     O 9898   1.494   5.178   9.552  0.3176 -0.5881 -0.2163
  815MOL0     C 9899   1.475   5.204   9.684  1.1112  0.1158  0.1433
  815MOL0     C 9900   1.340   5.277   9.711  0.3423  0.0614 -0.2541
  815MOL0     C 9901   1.327   5.285   9.859 -0.3429  0.6945 -0.6992
  815MOL0     C 9902   1.180   5.298   9.908 -0.0108  0.1634  0.1131
  815MOL0     C 9903   1.171   5.409  10.018 -0.3866  0.4747 -0.4085
  815MOL0     C 9904   1.120   5.545   9.959  0.4407  0.4279 -0.8099
  815MOL0     C 9905   1.165   5.666  10.044  0.5343  0.0588  0.5117
  815MOL0     C 9906   1.129   5.646  10.195  0.1426 -0.3536  0.9988
  815MOL0     N 9907   0.990   5.677  10.224  0.1883 -0.0861 -0.2945
  815MOL0     C 9908   0.906   5.585  10.292  0.0610 -0.5807 -0.2383
  815MOL0     C 9909   0.824   5.664  10.373  0.3527  0.6377  0.4859
  815MOL0     C 9910   0.700   5.640  10.455 -0.1648  0.9865 -0.9192
  815MOL0     C 9911   0.653   5.486  10.430 -0.5524  0.1601 -0.0737
  815MOL0     C 9912   0.590   5.455  10.297  0.9841 -0.0936 -0.6869
  815MOL0     C 9913   0.443   5.503  10.284 -0.9173 -1.1147 -1.0791
  815MOL0     O 9914   0.364   5.430  10.380 -0.3544 -0.2907  0.8246
  815MOL0     C 9915   0.314   5.310  10.334 -0.1319 -0.2749  0.9505
  815MOL0     C 9916   0.369   5.182  10.367  0.2663 -0.0334  0.1409
  815MOL0     C 9917   0.302   5.070  10.316 -0.3894 -0.5570  0.3015
  815MOL0     C 9918   0.178   5.078  10.249  0.3069 -0.4807  0.2113
  815MOL0     C 9919   0.102   4.963  10.195  0.3809 -0.0908 -0.4361
  815MOL0     O 9920  -0.017   4.978  10.137 -0.3191 -1.1029 -0.0544
  815MOL0     C 9921  -0.095   4.875  10.109  0.5351  0.0367  0.2563
  815MOL0     C 9922  -0.075   4.788   9.999  0.8259 -0.4533 -0.2458
  815MOL0     C 9923  -0.169   4.697   9.963  0.1898  0.0198  1.0848
  815MOL0     C 9924  -0.288   4.686  10.028 -0.0582 -0.4196  0.3638
  815MOL0     O 9925  -0.387   4.587  10.003 -0.5358 -0.8987 -0.0390
  815MOL0     C 9926  -0.523   4.641  10.015 -0.3279 -1.0181  0.2181
  815MOL0     C 9927  -0.549   4.768   9.931  1.0957  0.1987  0.1706
  815MOL0     C 9928  -0.695   4.815   9.940 -0.4333  0.0873 -1.4643
  815MOL0     C 9929  -0.706   4.941   9.860 -0.1741 -0.0817 -0.1538
  815MOL0     C 9930  -0.829   5.030   9.898  0.0807 -0.2391 -0.4621
  815MOL0     C 9931  -0.965   4.981   9.848 -0.0656 -0.5273 -0.6538
  815MOL0     C 9932  -1.082   5.080   9.878 -0.6033 -0.3061 -0.7585
  815MOL0     C 9933  -1.176   5.094   9.759 -0.0925  0.0970 -0.6105
  815MOL0    Cl 9934  -1.110   5.187   9.626 -0.0052 -0.1731  0.6082
  815MOL0     C 9935  -0.302   4.765  10.150 -0.5830 -1.1614  0.5247
  815MOL0     C 9936  -0.210   4.856  10.192 -0.1165 -0.3489  0.1604
  815MOL0     O 9937   0.149   4.857  10.228 -0.0702 -0.1155  1.1406
  815MOL0     C 9938   0.132   5.208  10.209  0.4834  0.0766 -0.5543
  815MOL0     C 9939   0.202   5.319  10.255 -0.0608 -0.4548 -0.4316
  815MOL0     N 9940   0.857   5.792  10.345  0.1097  0.5765 -0.7931
  815MOL0     N 9941   0.951   5.805  10.259  0.0194 -0.5098 -0.2320
  815MOL0     C 9942   1.309   5.180   9.397 -0.4413 -0.2107 -0.2313
  815MOL0     C 9943   1.207   5.116   9.319 -0.7939  0.1326 -0.9719
  815MOL0     C 9944   0.922   4.838   9.100 -0.0276 -0.0799 -0.5796
  815MOL0     C 9945   0.911   4.717   9.178  0.5776 -0.3248 -0.1207
  815MOL0     C 9946   0.839   4.609   9.129 -0.2691 -0.5560  0.2948
  815MOL0     C 9947   0.780   4.616   9.004  0.5812 -0.0038  0.0106
  815MOL0     O 9948   0.722   4.506   8.950  0.0254 -0.0346 -0.2164
  815MOL0     C 9949   0.575   4.496   8.964 -1.3482  0.3798 -0.8801
  815MOL0     C 9950   0.548   4.356   9.002 -0.4880 -0.0093 -0.8345
  815MOL0     C 9951   0.396   4.325   8.990  0.1734  0.1754  0.8176
  815MOL0     C 9952   0.338   4.238   9.098 -0.9653  0.7045  0.2378
  815MOL0     C 9953   0.389   4.100   9.082 -0.7073  0.9674 -0.4690
  815MOL0     C 9954   0.429   3.987   9.065  0.3026 -0.1250 -0.8309
  815MOL0     C 9955   0.789   4.736   8.929 -0.2927  0.1162  0.3314
  815MOL0     C 9956   0.853   4.844   8.978  0.7292 -0.2339 -0.0026
  815MOL0     C 9957   0.851   4.972   8.897 -0.4476 -0.1994  0.3898
  815MOL0     H 9958   1.270   4.804   9.425 -2.5382  1.1561  1.3190
  815MOL0     H 9959   1.452   4.915   9.546 -0.5242  0.7123  1.2430
  815MOL0     H 9960   1.465   5.106   9.733 -1.7094  0.8189  1.2017
  815MOL0     H 9961   1.558   5.262   9.723 -0.2302  1.3616  1.2648
  815MOL0     H 9962   1.253   5.230   9.664  0.3131  0.1729 -0.3130
  815MOL0     H 9963   1.363   5.375   9.667 -0.7853  0.6748  0.4733
  815MOL0     H 9964   1.370   5.381   9.888  0.2622 -0.5125  2.7961
  815MOL0     H 9965   1.390   5.206   9.900  1.5421  2.6224  0.2669
  815MOL0     H 9966   1.102   5.318   9.834  0.4746  1.1529 -0.1566
  815MOL0     H 9967   1.150   5.207   9.961  0.1208  0.9835  1.6510
  815MOL0     H 9968   1.093   5.369  10.084 -0.9633  0.4453 -1.1018
  815MOL0     H 9969   1.266   5.416  10.072 -1.5271 -0.5507  1.8923
  815MOL0     H 9970   1.147   5.553   9.853 -0.8767 -0.4051 -1.2350
  815MOL0     H 9971   1.011   5.548   9.964  0.5001  1.3483  3.4207
  815MOL0     H 9972   1.106   5.753  10.012  0.6953  0.4199  1.1680
  815MOL0     H 9973   1.271   5.687  10.028  0.3990  1.4172  1.2240
  815MOL0     H 9974   1.152   5.542  10.219  2.0773 -0.1222  0.3111
  815MOL0     H 9975   1.196   5.703  10.259 -1.3253  2.6122  0.0562
  815MOL0     H 9976   0.879   5.482  10.270 -1.6924 -0.3208  0.5257
  815MOL0     H 9977   0.711   5.665  10.562  0.4748  0.3027 -0.8177
  815MOL0     H 9978   0.624   5.707  10.414  0.7112  1.1111 -2.4257
  815MOL0     H 9979   0.737   5.420  10.454 -0.4744  0.0139 -0.7428
  815MOL0     H 9980   0.579   5.463  10.508  0.4721  3.2360  2.0122
  815MOL0     H 9981   0.594   5.347  10.283  0.3848 -0.1069 -0.7876
  815MOL0     H 9982   0.634   5.506  10.211 -1.3892  0.8555 -1.4280
  815MOL0     H 9983   0.411   5.489  10.180 -2.3563  0.2542 -0.8615
  815MOL0     H 9984   0.429   5.610  10.299  2.4946 -0.5147 -1.5367
  815MOL0     H 9985   0.465   5.182  10.418  0.6406 -1.5044 -0.5203
  815MOL0     H 9986   0.364   4.985  10.341  1.2751  0.9497  1.5267
  815MOL0     H 9987   0.015   4.789   9.937 -0.1051 -1.0544 -1.6532
  815MOL0     H 9988  -0.151   4.642   9.871  1.6057  2.9352 -0.5350
  815MOL0     H 9989  -0.599   4.568   9.985 -1.0160 -0.6945  1.1330
  815MOL0     H 9990  -0.540   4.673  10.119  0.3806 -0.9409  0.3111
  815MOL0     H 9991  -0.481   4.845   9.969  2.0006  0.1104 -1.1736
  815MOL0     H 9992  -0.525   4.742   9.827 -0.0783  3.0019 -0.8846
  815MOL0     H 9993  -0.764   4.736   9.909  0.5491 -1.7489  0.7007
  815MOL0     H 9994  -0.721   4.838  10.044  1.3832  3.8362 -1.6754
  815MOL0     H 9995  -0.713   4.893   9.762  0.6375 -5.1114  1.9321
  815MOL0     H 9996  -0.610   4.992   9.868 -0.7533  0.7441  2.7626
  815MOL0     H 9997  -0.814   5.122   9.841  1.0353  0.3162  0.6524
  815MOL0     H 9998  -0.833   5.044  10.007  1.6709 -0.0847 -0.4100
  815MOL0     H 9999  -0.962   4.977   9.738  1.7410 -1.0622 -0.6090
  815MOL0     H10000  -0.998   4.882   9.879  1.6687 -1.4272 -1.5023
  815MOL0     H10001  -1.038   5.175   9.910  1.5299 -0.9581 -1.6122
  815MOL0     H10002  -1.133   5.030   9.961 -0.4978  0.5527 -0.1561
  815MOL0     H10003  -1.216   4.998   9.725 -3.8757  0.9818  0.9135
  815MOL0     H10004  -1.264   5.142   9.801 -0.3824 -1.4605  0.6518
  815MOL0     H10005  -0.383   4.749  10.221  0.8010 -1.0397  2.1800
  815MOL0     H10006  -0.220   4.903  10.289  0.7882 -1.4909  0.8415
  815MOL0     H10007   0.034   5.225  10.165 -0.8727  0.7917  2.4783
  815MOL0     H10008   0.174   5.423  10.240 -0.9624 -0.4894  0.8459
  815MOL0     H10009   1.334   5.285   9.390 -0.5278 -0.1617  0.1982
  815MOL0     H10010   1.152   5.172   9.244  2.5650  2.4824 -1.9344
  815MOL0     H10011   0.960   4.703   9.274 -0.5760  0.9327  0.6976
  815MOL0     H10012   0.851   4.513   9.179  1.5620 -0.0645  0.8637
  815MOL0     H10013   0.531   4.521   8.867  0.8266 -0.9483 -2.3038
  815MOL0     H10014   0.551   4.567   9.044  1.1657 -1.5667  1.7997
  815MOL0     H10015   0.594   4.336   9.099 -1.0397 -1.7915 -0.9036
  815MOL0     H10016   0.594   4.281   8.936 -3.4593 -0.2188 -2.8470
  815MOL0     H10017   0.372   4.281   8.892 -3.0125  2.3340  0.4810
  815MOL0     H10018   0.346   4.422   8.997  0.1090  0.2594 -0.5525
  815MOL0     H10019   0.363   4.279   9.196 -1.3549 -2.6700  1.8848
  815MOL0     H10020   0.232   4.237   9.073 -1.1875  1.4185  1.1307
  815MOL0     H10021   0.485   3.900   9.040  3.8044  1.3747  1.0653
  815MOL0     H10022   0.739   4.728   8.833 -1.3790  0.0702  0.8962
  815MOL0     H10023   0.942   4.994   8.840 -1.7407  0.2077 -1.6433
  815MOL0     H10024   0.781   4.947   8.817  0.5106  0.9564 -0.8629
  815MOL0     H10025   0.826   5.066   8.948  2.0538  1.4443 -1.1803
  816MOL0     O10026   9.184  10.733   9.680 -0.0963  0.4616  0.2704
  816MOL0     C10027   9.281  10.662   9.655  0.1360 -0.0519 -0.4364
  816MOL0     O10028   9.405  10.703   9.618 -0.8708  0.2432  0.0394
  816MOL0     C10029   9.444  10.832   9.633  0.9082 -1.0661 -0.4512
  816MOL0     C10030   9.405  10.953   9.579 -0.0270  0.2354 -0.3213
  816MOL0     C10031   9.463  11.073   9.601  0.7458 -0.5956  0.7599
  816MOL0     C10032   9.569  11.083   9.687 -0.1919  0.1097  0.0177
  816MOL0     O10033   9.626  11.206   9.700 -0.4659 -0.3075  0.1743
  816MOL0     C10034   9.757  11.210   9.765  0.7034  0.7039 -0.3515
  816MOL0     C10035   9.792  11.351   9.797  0.9290 -1.1725 -0.3965
  816MOL0     C10036   9.790  11.452   9.686 -0.1151 -0.8675 -0.9177
  816MOL0     C10037   9.897  11.426   9.582 -0.9869  0.6242  0.7825
  816MOL0     C10038   9.931  11.529   9.475 -0.2296 -1.2550  0.1589
  816MOL0     C10039  10.030  11.485   9.370  0.2078  0.4629  0.8130
  816MOL0     C10040  10.177  11.477   9.417 -0.0288 -0.4350  0.1621
  816MOL0     C10041  10.287  11.525   9.311  1.0712  0.3288 -0.3345
  816MOL0     N10042  10.268  11.665   9.269 -0.4588 -0.5783 -0.2567
  816MOL0     C10043  10.318  11.726   9.152  0.0932  0.1768 -0.1394
  816MOL0     C10044  10.274  11.855   9.163 -0.0180 -1.0012 -0.4153
  816MOL0     C10045  10.278  11.972   9.076 -0.3642 -0.1338  0.9595
  816MOL0     C10046  10.347  12.092   9.117 -0.5021 -0.9127  0.1897
  816MOL0     C10047  10.287  12.192   9.223 -0.3155  0.4803  0.9300
  816MOL0     C10048  10.376  12.309   9.240 -0.5004 -0.3305 -0.4318
  816MOL0     O10049  10.373  12.400   9.124 -0.0937  0.5252  0.2681
  816MOL0     C10050  10.297  12.520   9.136 -0.5418 -0.7409  0.0135
  816MOL0     C10051  10.178  12.533   9.212  0.7360 -0.0446 -0.1457
  816MOL0     C10052  10.105  12.654   9.205 -0.2712 -0.5587  0.3500
  816MOL0     C10053  10.145  12.767   9.121 -0.2743 -0.7151 -0.2355
  816MOL0     C10054  10.063  12.898   9.138  0.0247  0.0722  0.9513
  816MOL0     O10055  10.125  13.002   9.058 -0.5520  0.3704 -0.0154
  816MOL0     C10056  10.094  13.132   9.075  0.9029  0.5874 -0.7380
  816MOL0     C10057  10.059  13.184   9.202  0.8739 -0.9292 -0.5714
  816MOL0     C10058  10.030  13.326   9.211  0.2778  0.2165  0.3781
  816MOL0     C10059  10.038  13.405   9.087 -0.1018 -0.1095  0.8513
  816MOL0     O10060  10.006  13.537   9.090  0.4616 -0.2888 -0.4596
  816MOL0     C10061   9.892  13.599   9.150  0.3172 -1.3650  1.0538
  816MOL0     C10062   9.931  13.742   9.181 -1.2703 -0.4220  0.2123
  816MOL0     C10063   9.807  13.829   9.223  0.2733  0.9757 -0.1720
  816MOL0     C10064   9.852  13.967   9.280 -0.6299 -0.2473 -0.7522
  816MOL0     C10065   9.740  14.057   9.334 -0.3698 -0.7362  0.4193
  816MOL0     C10066   9.787  14.208   9.349 -0.1190  0.3190  0.7898
  816MOL0     C10067   9.927  14.221   9.423  0.0645 -0.9303  0.1845
  816MOL0     C10068   9.946  14.359   9.486 -0.9864 -0.2715  0.3620
  816MOL0    Cl10069   9.961  14.480   9.371 -0.3943 -0.0338 -0.1513
  816MOL0     C10070  10.066  13.346   8.958  0.1456  0.5998 -0.3217
  816MOL0     C10071  10.100  13.212   8.963 -0.2564 -0.4597 -0.5183
  816MOL0     O10072   9.961  12.906   9.208  0.3834  0.3129 -0.3823
  816MOL0     C10073  10.251  12.748   9.045 -0.7599 -0.4210 -0.4985
  816MOL0     C10074  10.333  12.634   9.057  0.0454  0.1982  0.1615
  816MOL0     N10075  10.202  11.876   9.279 -0.0333 -0.4564 -0.0428
  816MOL0     N10076  10.202  11.764   9.338 -0.3685 -0.0528  0.1622
  816MOL0     C10077   9.621  10.967   9.743  0.2016 -0.1798  0.0232
  816MOL0     C10078   9.554  10.849   9.715 -1.4520 -0.4013 -0.6157
  816MOL0     C10079   9.255  10.513   9.685  0.0239  0.4752  0.2832
  816MOL0     C10080   9.126  10.474   9.733  0.1536  0.1206  0.7463
  816MOL0     C10081   9.091  10.347   9.752  0.2163  0.3325 -0.0354
  816MOL0     C10082   9.183  10.242   9.726  0.1200 -0.0598  0.4886
  816MOL0     O10083   9.133  10.119   9.744 -0.1657 -1.1044  0.5325
  816MOL0     C10084   9.205   9.998   9.716  0.5653 -0.1244  0.1675
  816MOL0     C10085   9.309   9.971   9.828  0.7044 -0.9764  0.1277
  816MOL0     C10086   9.398   9.864   9.765 -0.6332  0.0333  0.0213
  816MOL0     C10087   9.504   9.812   9.875 -0.2195 -0.2784 -0.4027
  816MOL0     C10088   9.624   9.887   9.861 -0.2187  0.8550 -1.1370
  816MOL0     C10089   9.719   9.965   9.837 -0.4656  1.1620  0.3600
  816MOL0     C10090   9.303  10.275   9.676 -0.3276  0.3578  0.4704
  816MOL0     C10091   9.350  10.404   9.662  0.2212  0.3868 -0.4803
  816MOL0     C10092   9.495  10.417   9.670 -0.7521 -0.8759  0.8111
  816MOL0     H10093   9.319  10.947   9.512 -1.8411 -0.1984  1.9119
  816MOL0     H10094   9.420  11.161   9.554 -2.5598 -3.3977 -2.0404
  816MOL0     H10095   9.745  11.153   9.858 -0.2167  1.7751  0.2060
  816MOL0     H10096   9.830  11.160   9.700  1.2179  1.9233 -0.7382
  816MOL0     H10097   9.892  11.350   9.841 -0.7379 -0.8850  3.9337
  816MOL0     H10098   9.735  11.378   9.887  0.6947 -1.4418 -0.4671
  816MOL0     H10099   9.811  11.551   9.725 -0.5672 -1.2349  0.3138
  816MOL0     H10100   9.699  11.454   9.626  1.5753  1.3455 -3.6388
  816MOL0     H10101   9.994  11.397   9.625 -0.0265  1.9204 -0.4189
  816MOL0     H10102   9.864  11.337   9.527  0.9546  0.7856 -0.7530
  816MOL0     H10103   9.840  11.554   9.420  0.7133  0.1191 -0.8406
  816MOL0     H10104   9.974  11.621   9.516  1.9846 -1.8507 -0.6732
  816MOL0     H10105  10.000  11.381   9.353  0.9136 -0.2516  3.3762
  816MOL0     H10106  10.030  11.538   9.275 -0.5186 -0.3269  0.3515
  816MOL0     H10107  10.203  11.376   9.449  2.9156  1.4724  4.7659
  816MOL0     H10108  10.204  11.540   9.502  5.4248 -2.4521  0.3199
  816MOL0     H10109  10.386  11.520   9.357  1.4583  1.8514 -0.9539
  816MOL0     H10110  10.278  11.470   9.216  0.4585  1.0911 -0.7247
  816MOL0     H10111  10.379  11.687   9.071  2.1524  1.7786  0.5264
  816MOL0     H10112  10.328  11.932   8.987 -1.0150  1.5946 -0.2185
  816MOL0     H10113  10.178  12.004   9.045 -0.2584  3.1629  3.4886
  816MOL0     H10114  10.454  12.072   9.129 -0.5187 -2.3652 -1.6402
  816MOL0     H10115  10.336  12.147   9.024  0.4658 -0.6645  0.2091
  816MOL0     H10116  10.286  12.144   9.321  3.9387 -0.3393  0.7690
  816MOL0     H10117  10.189  12.228   9.192 -0.6974  1.1704  2.8018
  816MOL0     H10118  10.478  12.292   9.275  0.1043  3.3707 -0.0307
  816MOL0     H10119  10.337  12.360   9.328  0.1206 -1.5537  0.5968
  816MOL0     H10120  10.140  12.455   9.276  1.2437  1.8331  2.6185
  816MOL0     H10121  10.024  12.676   9.273 -0.3577  1.1877 -0.2555
  816MOL0     H10122  10.050  13.114   9.284 -1.6078 -1.0013 -0.8420
  816MOL0     H10123  10.003  13.366   9.308  1.3592 -1.4645  1.4447
  816MOL0     H10124   9.799  13.592   9.094 -0.7060  0.0160  2.4919
  816MOL0     H10125   9.866  13.562   9.249 -0.9706  0.8452  1.6073
  816MOL0     H10126   9.993  13.746   9.270 -0.3475 -2.6154 -0.2617
  816MOL0     H10127   9.991  13.778   9.096 -0.8740  1.8897  1.3854
  816MOL0     H10128   9.730  13.835   9.146  0.3266 -4.5000 -1.0866
  816MOL0     H10129   9.756  13.775   9.303  1.3420  0.4384  0.1660
  816MOL0     H10130   9.918  14.007   9.202 -0.2740  1.1580  0.2164
  816MOL0     H10131   9.914  13.946   9.368 -2.6153  1.1170  1.0588
  816MOL0     H10132   9.720  14.027   9.437 -0.1323  2.4386  1.5129
  816MOL0     H10133   9.644  14.050   9.282 -2.3535 -1.9228  3.8905
  816MOL0     H10134   9.790  14.248   9.247 -3.0624 -0.4195  0.2978
  816MOL0     H10135   9.706  14.269   9.391  2.3084  0.6876  5.5643
  816MOL0     H10136  10.010  14.201   9.354  2.3296 -2.3388  3.0627
  816MOL0     H10137   9.934  14.152   9.508 -2.9997  0.3802  1.6497
  816MOL0     H10138   9.862  14.378   9.552 -0.0082  1.1162  1.2614
  816MOL0     H10139  10.037  14.347   9.546  0.5614  1.4169 -1.5251
  816MOL0     H10140  10.057  13.391   8.860 -2.8829 -2.7955 -1.8535
  816MOL0     H10141  10.122  13.147   8.878  3.2155 -1.2407  0.8047
  816MOL0     H10142  10.283  12.825   8.975  3.4998 -0.0784  1.5045
  816MOL0     H10143  10.420  12.633   8.991 -0.8540 -0.9638 -1.0765
  816MOL0     H10144   9.712  10.964   9.802 -0.1379  3.2197  0.9111
  816MOL0     H10145   9.598  10.757   9.750  0.7022  0.4214 -1.0269
  816MOL0     H10146   9.051  10.552   9.744  1.8593  1.4143  5.5176
  816MOL0     H10147   8.994  10.321   9.792  0.2125  2.5323  1.5477
  816MOL0     H10148   9.255  10.012   9.620 -0.4244  4.7179  0.0938
  816MOL0     H10149   9.134   9.915   9.705 -1.2741  1.1657  1.6763
  816MOL0     H10150   9.255   9.927   9.912 -1.3800  1.8794  0.4385
  816MOL0     H10151   9.357  10.067   9.849 -0.4848  0.3212 -2.6129
  816MOL0     H10152   9.436   9.884   9.664  0.2839  2.8790  0.8495
  816MOL0     H10153   9.332   9.778   9.750  0.6323 -0.6974 -1.7563
  816MOL0     H10154   9.478   9.831   9.980  0.1689 -3.0555  0.2743
  816MOL0     H10155   9.514   9.703   9.878 -1.5296 -0.3894  1.2254
  816MOL0     H10156   9.796  10.038   9.820  2.4515 -1.6650  0.3610
  816MOL0     H10157   9.371  10.191   9.665  1.6138  1.8610  0.6065
  816MOL0     H10158   9.511  10.444   9.775  1.5775  0.1094  0.2796
  816MOL0     H10159   9.545  10.325   9.638 -1.4784 -1.5446  1.5640
  816MOL0     H10160   9.539  10.489   9.599  1.3320 -2.8080 -0.0070
  817MOL0     O10161   8.267   2.030   5.714 -0.6318  0.8208 -0.4526
  817MOL0     C10162   8.252   2.092   5.613 -0.1401  0.3708  1.1542
  817MOL0     O10163   8.328   2.080   5.491  0.4012  0.1256 -0.3059
  817MOL0     C10164   8.443   2.001   5.497  0.1067 -0.2470  0.2832
  817MOL0     C10165   8.480   1.924   5.389 -0.3534 -0.7370 -0.0709
  817MOL0     C10166   8.592   1.846   5.379 -0.2094  0.5909  0.2073
  817MOL0     C10167   8.683   1.846   5.482  0.4399 -0.0002  0.5086
  817MOL0     O10168   8.786   1.754   5.461 -0.3790 -0.7102 -0.1866
  817MOL0     C10169   8.899   1.782   5.544 -0.2177  0.2342 -0.0491
  817MOL0     C10170   9.017   1.690   5.509  0.6348  0.2550  0.1925
  817MOL0     C10171   9.002   1.556   5.579  0.5592  0.1176 -0.5009
  817MOL0     C10172   9.091   1.447   5.515  0.0104 -0.3962 -0.5551
  817MOL0     C10173   9.074   1.304   5.570 -0.5515 -1.5391  0.8865
  817MOL0     C10174   9.199   1.222   5.544  0.0294 -1.2686 -0.3780
  817MOL0     C10175   9.204   1.118   5.653  0.6652  0.1001  0.1201
  817MOL0     C10176   9.076   1.029   5.663 -0.1514  0.0063 -0.4182
  817MOL0     N10177   8.972   1.075   5.753  0.1742  0.6476 -0.1590
  817MOL0     C10178   8.990   1.076   5.887  0.0015  0.3739 -0.3188
  817MOL0     C10179   8.862   1.091   5.948 -0.8523  0.7258  0.9183
  817MOL0     C10180   8.826   1.097   6.091  0.8301 -0.3396 -0.0413
  817MOL0     C10181   8.860   0.968   6.168  0.9826 -0.5639  0.4001
  817MOL0     C10182   8.925   1.009   6.305 -0.5520  0.9317 -0.1727
  817MOL0     C10183   9.077   1.060   6.293  0.7977  0.6016  0.3715
  817MOL0     O10184   9.161   0.960   6.225  0.0100  0.3959  0.0393
  817MOL0     C10185   9.271   0.914   6.288  0.3731  0.0326 -0.3734
  817MOL0     C10186   9.259   0.846   6.416 -0.2219 -0.1500  0.9855
  817MOL0     C10187   9.371   0.801   6.488 -1.3623 -0.0445  0.1458
  817MOL0     C10188   9.503   0.827   6.433 -0.3572 -0.2841  0.3742
  817MOL0     C10189   9.627   0.786   6.505 -0.5804 -1.1778  0.1141
  817MOL0     O10190   9.601   0.735   6.630  0.7518 -0.5304  0.5728
  817MOL0     C10191   9.699   0.709   6.712  0.3286  0.3916  0.3129
  817MOL0     C10192   9.695   0.581   6.783  0.0282 -0.6650 -0.2325
  817MOL0     C10193   9.795   0.541   6.875 -0.4358 -0.3391  0.6266
  817MOL0     C10194   9.896   0.633   6.910  0.1980  0.5642 -0.4048
  817MOL0     O10195   9.995   0.601   7.011  0.5725 -0.0887 -0.1580
  817MOL0     C10196   9.965   0.500   7.107 -0.2280  0.4599 -0.3883
  817MOL0     C10197  10.007   0.355   7.067 -0.4896  0.3732  0.6368
  817MOL0     C10198  10.057   0.291   7.193  0.5702 -0.3055 -1.2561
  817MOL0     C10199  10.099   0.147   7.159  0.3181 -0.0243  1.3104
  817MOL0     C10200  10.118   0.048   7.276  0.4648 -0.0193  0.1987
  817MOL0     C10201  10.179  -0.090   7.240 -0.2072  0.0787  0.0502
  817MOL0     C10202  10.190  -0.171   7.378  0.3785  0.1927  0.3547
  817MOL0     C10203  10.248  -0.310   7.344 -0.0658 -0.8495  0.2479
  817MOL0    Cl10204  10.126  -0.424   7.280  0.0641  0.3626 -0.1045
  817MOL0     C10205   9.895   0.764   6.850 -0.0411 -0.1110 -0.1800
  817MOL0     C10206   9.797   0.796   6.752  0.6391 -0.1754  0.1798
  817MOL0     O10207   9.738   0.800   6.450  0.3477 -0.1607  0.1377
  817MOL0     C10208   9.516   0.888   6.308  0.7391 -0.2337 -0.1996
  817MOL0     C10209   9.401   0.948   6.249 -0.0441 -0.2586  0.6777
  817MOL0     N10210   8.779   1.074   5.844  0.5610  0.7621  0.7612
  817MOL0     N10211   8.837   1.059   5.728  0.3641  0.7999 -0.1563
  817MOL0     C10212   8.649   1.915   5.602 -0.7954 -0.3599 -0.9320
  817MOL0     C10213   8.531   1.993   5.604  0.4509 -0.2868  0.9663
  817MOL0     C10214   8.151   2.199   5.599 -0.2296 -0.4671  0.1752
  817MOL0     C10215   8.183   2.332   5.564 -0.0716  0.2189  0.7599
  817MOL0     C10216   8.087   2.437   5.563 -0.1332  0.0009  0.3952
  817MOL0     C10217   7.953   2.411   5.589  0.7943 -0.2182  0.4878
  817MOL0     O10218   7.856   2.510   5.563 -0.2456  0.4656  0.0790
  817MOL0     C10219   7.895   2.635   5.501 -0.1325 -0.6234 -0.1819
  817MOL0     C10220   7.779   2.728   5.485  0.2899 -0.3755 -0.0361
  817MOL0     C10221   7.698   2.712   5.353  0.4203 -0.3414  0.6143
  817MOL0     C10222   7.583   2.809   5.338 -0.1037 -0.5904 -0.1954
  817MOL0     C10223   7.622   2.941   5.299 -0.7917  0.1604  0.3877
  817MOL0     C10224   7.656   3.041   5.239  0.7638 -0.1075  0.4678
  817MOL0     C10225   7.916   2.279   5.625  0.0341  0.5082  0.2239
  817MOL0     C10226   8.016   2.175   5.633 -0.1701  0.4026  0.3523
  817MOL0     C10227   7.968   2.050   5.699  0.1418 -0.2028 -0.3003
  817MOL0     H10228   8.416   1.925   5.302  2.2834 -0.4480 -2.1362
  817MOL0     H10229   8.611   1.786   5.290 -0.2969 -1.2220  1.3745
  817MOL0     H10230   8.941   1.881   5.521  0.2354 -0.1904 -1.1530
  817MOL0     H10231   8.873   1.767   5.649  0.3031  1.4137  0.2665
  817MOL0     H10232   9.109   1.737   5.547 -0.2759  1.5445  0.8754
  817MOL0     H10233   9.030   1.666   5.403 -0.3361 -0.6228  0.2649
  817MOL0     H10234   8.901   1.519   5.600  1.3726 -0.6353  2.4936
  817MOL0     H10235   9.030   1.571   5.683 -0.2579  0.5250 -0.3298
  817MOL0     H10236   9.057   1.448   5.411 -3.0045  3.0791  0.2209
  817MOL0     H10237   9.197   1.473   5.512 -0.1922  0.3488 -1.4973
  817MOL0     H10238   9.041   1.311   5.674 -0.8419 -1.1511  0.7718
  817MOL0     H10239   8.996   1.251   5.514  1.2573 -3.1573 -0.2005
  817MOL0     H10240   9.188   1.172   5.447 -2.1656 -3.1472  0.7339
  817MOL0     H10241   9.294   1.276   5.553 -1.8541  2.1319  1.2803
  817MOL0     H10242   9.221   1.164   5.751 -1.7847 -2.8299  2.0888
  817MOL0     H10243   9.286   1.047   5.637 -1.7731 -3.0331  0.6764
  817MOL0     H10244   9.035   1.004   5.564 -1.0920 -1.6415  0.3387
  817MOL0     H10245   9.108   0.937   5.712  0.9876  1.2731  1.3380
  817MOL0     H10246   9.085   1.080   5.939 -0.7247  0.2552  1.0752
  817MOL0     H10247   8.877   1.183   6.136 -1.8525  1.6886 -0.6515
  817MOL0     H10248   8.718   1.104   6.080  0.3832 -4.2889  0.4363
  817MOL0     H10249   8.767   0.914   6.187 -1.4565  1.6029 -3.8670
  817MOL0     H10250   8.920   0.894   6.114  0.5694 -0.2606 -0.4968
  817MOL0     H10251   8.929   0.937   6.388 -2.8241  1.6063  0.5901
  817MOL0     H10252   8.870   1.095   6.344 -2.4601 -0.3290  0.0136
  817MOL0     H10253   9.113   1.100   6.389 -2.4728  2.9971  0.7813
  817MOL0     H10254   9.087   1.147   6.228  1.1409 -0.1068 -0.5338
  817MOL0     H10255   9.159   0.828   6.454 -1.9231 -2.7853 -3.7548
  817MOL0     H10256   9.358   0.745   6.580  1.9770 -1.0028  0.1664
  817MOL0     H10257   9.619   0.509   6.752 -1.1208  0.7694 -0.8676
  817MOL0     H10258   9.793   0.452   6.938  2.6442 -0.4346  0.7145
  817MOL0     H10259  10.025   0.526   7.195 -0.3539 -3.8446  1.1845
  817MOL0     H10260   9.861   0.494   7.141 -0.2884 -3.8567 -0.8540
  817MOL0     H10261   9.931   0.314   7.001 -1.4017  3.6262 -0.5197
  817MOL0     H10262  10.096   0.356   7.004 -0.8802 -0.6725  0.0479
  817MOL0     H10263  10.137   0.352   7.237 -0.9276  1.1981 -0.5014
  817MOL0     H10264   9.968   0.288   7.257 -0.2869  2.3227 -2.2058
  817MOL0     H10265  10.199   0.162   7.118  1.5311 -0.3471  3.9389
  817MOL0     H10266  10.033   0.095   7.089  1.4263 -0.3823  0.4997
  817MOL0     H10267  10.021   0.033   7.325  0.2855 -1.3838 -0.5281
  817MOL0     H10268  10.163   0.097   7.363 -1.8632 -3.6692  3.8093
  817MOL0     H10269  10.116  -0.139   7.166 -2.9244  3.0031  0.2324
  817MOL0     H10270  10.277  -0.074   7.194  2.2484 -2.5146  3.7516
  817MOL0     H10271  10.092  -0.182   7.424 -1.2318  2.4719 -2.2186
  817MOL0     H10272  10.260  -0.109   7.434 -2.0401  2.5662  0.9518
  817MOL0     H10273  10.323  -0.317   7.264  0.5266 -3.0551  0.9332
  817MOL0     H10274  10.303  -0.347   7.431 -3.9632  0.1347  3.4039
  817MOL0     H10275   9.950   0.852   6.881 -2.0095  0.7882  0.9912
  817MOL0     H10276   9.796   0.892   6.702  0.5114  0.5166  1.4861
  817MOL0     H10277   9.612   0.921   6.271  0.3535 -0.2416 -1.2629
  817MOL0     H10278   9.410   1.018   6.166 -0.0538  0.6697  1.4424
  817MOL0     H10279   8.713   1.914   5.690 -0.8716 -0.7376 -0.8815
  817MOL0     H10280   8.512   2.050   5.694  2.6608  1.7301  0.2659
  817MOL0     H10281   8.284   2.359   5.534 -1.6852  3.8798 -2.1918
  817MOL0     H10282   8.116   2.534   5.524 -0.8151  0.0835  0.0838
  817MOL0     H10283   7.954   2.621   5.410 -1.3661  0.0582 -1.1185
  817MOL0     H10284   7.961   2.691   5.568 -2.6308  1.9308  0.3277
  817MOL0     H10285   7.820   2.829   5.482 -1.0282  0.1644 -1.2785
  817MOL0     H10286   7.706   2.720   5.566  0.9472  0.2983  0.6290
  817MOL0     H10287   7.647   2.615   5.359  1.3224 -0.9480 -0.7950
  817MOL0     H10288   7.768   2.708   5.268  0.1337  1.1040  0.2874
  817MOL0     H10289   7.512   2.775   5.262 -0.7288 -0.0444  0.1356
  817MOL0     H10290   7.522   2.812   5.429  2.6000 -0.6159  1.7352
  817MOL0     H10291   7.684   3.122   5.175 -0.0337 -1.8728 -2.2797
  817MOL0     H10292   7.810   2.263   5.643 -0.3134  2.0371 -0.2673
  817MOL0     H10293   7.871   2.067   5.746  0.3295  0.0103  0.0148
  817MOL0     H10294   7.982   1.967   5.629 -0.5188  0.3479 -1.0974
  817MOL0     H10295   8.030   2.025   5.786  1.4827  2.6286 -0.3468
  818MOL0     O10296   5.965   9.080   9.713  0.6461  0.2704  0.2748
  818MOL0     C10297   6.055   9.109   9.797  0.9410 -0.7252 -0.1269
  818MOL0     O10298   6.066   9.231   9.864  0.1184  0.0602  0.3840
  818MOL0     C10299   5.968   9.327   9.864 -0.5138  0.8459  0.6721
  818MOL0     C10300   6.011   9.456   9.865 -0.6194  0.5257 -0.5339
  818MOL0     C10301   5.921   9.559   9.906 -0.6531 -0.7866  0.2841
  818MOL0     C10302   5.793   9.539   9.940  0.5086  0.4207 -0.1881
  818MOL0     O10303   5.712   9.650   9.976  0.1384 -0.8844 -0.2834
  818MOL0     C10304   5.574   9.647   9.950  0.4524  0.7060  0.2591
  818MOL0     C10305   5.488   9.765   9.973  0.1054  0.0422  0.0148
  818MOL0     C10306   5.366   9.745  10.057  0.3718 -0.3300  0.1814
  818MOL0     C10307   5.299   9.888  10.066  0.7866 -0.2223 -1.2751
  818MOL0     C10308   5.151   9.873  10.121  0.0985  0.3167 -0.8859
  818MOL0     C10309   5.066  10.000  10.110  1.0349 -0.9762  0.5176
  818MOL0     C10310   4.923   9.993  10.190 -0.5101 -0.6871 -0.0731
  818MOL0     C10311   4.929   9.986  10.342  0.5939  1.1413 -0.4295
  818MOL0     N10312   4.896   9.857  10.396 -0.0903  0.7482  0.7342
  818MOL0     C10313   4.930   9.731  10.338  0.0676 -0.4627  0.0410
  818MOL0     C10314   4.872   9.643  10.430 -0.5137  0.9284  0.4463
  818MOL0     C10315   4.910   9.488  10.445  0.8600  0.6475  0.0995
  818MOL0     C10316   5.055   9.480  10.495 -0.3037  0.0673 -0.2294
  818MOL0     C10317   5.117   9.347  10.434 -0.6441 -0.4914  0.2641
  818MOL0     C10318   5.046   9.220  10.488  0.5492  0.0573 -0.6111
  818MOL0     O10319   5.061   9.127  10.383 -0.5227 -0.6908  0.1084
  818MOL0     C10320   5.017   8.994  10.403 -0.9461 -0.4645  1.0300
  818MOL0     C10321   4.974   8.938  10.525 -0.5285 -0.7780  0.8658
  818MOL0     C10322   4.937   8.801  10.534  0.3571  0.5563 -0.4359
  818MOL0     C10323   4.926   8.724  10.426  0.6662  0.8913 -0.2654
  818MOL0     C10324   4.876   8.585  10.437  0.1083 -0.3263  0.2029
  818MOL0     O10325   4.849   8.516  10.317 -0.3714  0.2940  0.3363
  818MOL0     C10326   4.781   8.400  10.307 -0.0240  0.4669 -0.3911
  818MOL0     C10327   4.808   8.302  10.212  0.5368 -0.2460  0.7595
  818MOL0     C10328   4.730   8.186  10.198  1.0796 -0.0086  0.0167
  818MOL0     C10329   4.624   8.164  10.283  0.9189  0.0233 -0.9422
  818MOL0     O10330   4.546   8.064  10.273  0.5468 -0.0862 -0.3512
  818MOL0     C10331   4.590   7.943  10.331 -0.5155  0.1413 -0.4971
  818MOL0     C10332   4.505   7.922  10.457  0.0258  0.9188  0.3429
  818MOL0     C10333   4.541   7.783  10.535  0.3678 -0.6732  0.3924
  818MOL0     C10334   4.502   7.794  10.682 -0.1342 -0.2717 -0.5607
  818MOL0     C10335   4.495   7.659  10.751 -1.0803  0.4343 -0.5838
  818MOL0     C10336   4.644   7.615  10.779  0.1022  0.5076  0.0567
  818MOL0     C10337   4.646   7.515  10.895 -0.3742 -0.6514  0.0503
  818MOL0     C10338   4.794   7.482  10.930  0.2078  0.2987 -0.7119
  818MOL0    Cl10339   4.884   7.407  10.802 -0.6903 -0.6842  0.0734
  818MOL0     C10340   4.597   8.263  10.390 -0.9885 -0.2766 -0.1923
  818MOL0     C10341   4.679   8.380  10.402 -0.3160  0.5652 -0.2993
  818MOL0     O10342   4.854   8.555  10.555  1.0306  0.3410 -0.4919
  818MOL0     C10343   4.972   8.775  10.305 -0.0254 -0.9698  0.3549
  818MOL0     C10344   5.020   8.907  10.290 -0.5141  0.0312  1.2734
  818MOL0     N10345   4.809   9.717  10.526  0.4178  0.0944  0.6444
  818MOL0     N10346   4.828   9.838  10.507  1.7839 -0.0885 -0.9228
  818MOL0     C10347   5.748   9.403   9.945 -0.1013 -0.4229 -0.9192
  818MOL0     C10348   5.838   9.299   9.904  0.3759 -0.0489  0.4789
  818MOL0     C10349   6.171   9.026   9.781 -0.1979  0.0053 -0.1674
  818MOL0     C10350   6.287   9.101   9.739  0.4025 -0.0875 -0.3330
  818MOL0     C10351   6.400   9.034   9.703  1.0160 -0.2933  0.3915
  818MOL0     C10352   6.413   8.900   9.727 -0.6189  0.8193  0.0591
  818MOL0     O10353   6.523   8.823   9.699 -0.3369 -0.4142 -0.3086
  818MOL0     C10354   6.658   8.871   9.711 -0.3733 -0.8432 -0.6938
  818MOL0     C10355   6.762   8.748   9.717 -0.3534  0.2399 -0.1095
  818MOL0     C10356   6.718   8.634   9.627  0.3329 -0.4896 -0.2666
  818MOL0     C10357   6.834   8.541   9.601 -0.1384 -0.0218  0.1137
  818MOL0     C10358   6.805   8.428   9.519  0.8202  0.0589 -0.6892
  818MOL0     C10359   6.755   8.329   9.470  0.4903 -0.1964 -0.0970
  818MOL0     C10360   6.306   8.827   9.777 -0.2424  0.3471 -0.0298
  818MOL0     C10361   6.176   8.886   9.798  0.2988 -0.4195  0.7416
  818MOL0     C10362   6.057   8.807   9.827 -0.2710 -0.4855  0.5282
  818MOL0     H10363   6.116   9.484   9.858 -1.3212  3.7720  0.4256
  818MOL0     H10364   5.960   9.657   9.932  1.5105 -0.8693 -2.1847
  818MOL0     H10365   5.570   9.635   9.841 -2.7709 -1.6236  0.4784
  818MOL0     H10366   5.533   9.557   9.997 -1.4126  2.3226  1.9088
  818MOL0     H10367   5.452   9.802   9.877 -0.9464  0.1289  0.4313
  818MOL0     H10368   5.559   9.840  10.010 -0.9257  2.3597 -2.4360
  818MOL0     H10369   5.393   9.706  10.155  0.1461 -0.4390  0.2012
  818MOL0     H10370   5.303   9.668  10.011 -1.1001  1.4563 -0.9302
  818MOL0     H10371   5.362   9.939  10.140  1.9848 -4.0422  0.6502
  818MOL0     H10372   5.302   9.948   9.975 -0.4714 -2.4747 -2.8712
  818MOL0     H10373   5.112   9.785  10.070  1.2686  0.2466 -1.6962
  818MOL0     H10374   5.153   9.854  10.229 -0.8541  0.5610 -0.8120
  818MOL0     H10375   5.127  10.083  10.148  0.3062 -0.1662 -0.0177
  818MOL0     H10376   5.041  10.011  10.004  0.9184 -2.9425  0.3018
  818MOL0     H10377   4.859   9.916  10.147 -2.2775  0.0167  1.1708
  818MOL0     H10378   4.879  10.092  10.172 -0.2174  0.5381  4.5126
  818MOL0     H10379   5.029  10.015  10.376 -0.1977  2.0975  1.2213
  818MOL0     H10380   4.868  10.072  10.372 -1.9812 -0.7224 -0.0912
  818MOL0     H10381   5.001   9.703  10.261  1.8837  0.7982  1.1770
  818MOL0     H10382   4.844   9.436  10.515 -0.1769 -0.8271 -1.8591
  818MOL0     H10383   4.891   9.438  10.349  0.6673 -3.3523  2.0115
  818MOL0     H10384   5.115   9.557  10.444  0.6907 -1.2225 -1.0633
  818MOL0     H10385   5.063   9.498  10.603  0.1686 -0.2600 -0.2061
  818MOL0     H10386   5.223   9.332  10.456 -0.1115  1.5897 -0.5873
  818MOL0     H10387   5.103   9.358  10.326  2.0648  0.3093 -0.0816
  818MOL0     H10388   4.946   9.248  10.521  0.5147 -0.2794 -0.4235
  818MOL0     H10389   5.090   9.185  10.582 -1.2444 -1.3437 -0.2347
  818MOL0     H10390   4.977   9.008  10.607 -1.0421  1.8990 -1.2637
  818MOL0     H10391   4.915   8.781  10.638  0.0508 -1.3540 -0.8276
  818MOL0     H10392   4.891   8.322  10.146  1.7578 -1.8068  1.7610
  818MOL0     H10393   4.744   8.119  10.113 -0.9734  3.8027 -3.7217
  818MOL0     H10394   4.572   7.856  10.267  0.8027 -1.7894  1.6107
  818MOL0     H10395   4.694   7.940  10.363 -0.9681 -4.4552  1.3246
  818MOL0     H10396   4.520   7.998  10.534  0.8006  1.7780 -0.6137
  818MOL0     H10397   4.398   7.926  10.433  0.4502  0.6760 -1.8257
  818MOL0     H10398   4.495   7.697  10.487 -1.1271  1.9750 -3.4730
  818MOL0     H10399   4.649   7.767  10.524  0.6284 -0.3150  2.1589
  818MOL0     H10400   4.402   7.838  10.687 -0.2322 -0.5764  2.2061
  818MOL0     H10401   4.568   7.863  10.736 -0.5255  0.8439 -1.4791
  818MOL0     H10402   4.427   7.587  10.704 -2.1042  0.7442  0.3696
  818MOL0     H10403   4.456   7.674  10.852  2.0930  1.3625  0.6412
  818MOL0     H10404   4.671   7.559  10.689 -4.8509 -1.1729 -0.7255
  818MOL0     H10405   4.718   7.695  10.790 -0.3455  1.6143 -3.8209
  818MOL0     H10406   4.585   7.426  10.878  2.4336 -3.1692  2.0479
  818MOL0     H10407   4.600   7.556  10.986 -1.1162 -1.8511  0.2496
  818MOL0     H10408   4.842   7.569  10.975 -0.3726  0.2444  0.0470
  818MOL0     H10409   4.786   7.419  11.019 -2.1901  2.5072  0.8071
  818MOL0     H10410   4.519   8.248  10.464 -1.7335 -0.9411 -1.0905
  818MOL0     H10411   4.665   8.454  10.480 -0.4923  1.1965 -0.9148
  818MOL0     H10412   4.971   8.710  10.218  2.1194  0.6201 -0.9576
  818MOL0     H10413   5.058   8.944  10.196 -2.1934  1.3543  1.0633
  818MOL0     H10414   5.649   9.375   9.979  0.4142 -2.7457 -1.1363
  818MOL0     H10415   5.817   9.194   9.920 -1.9194  0.1150 -1.0227
  818MOL0     H10416   6.287   9.209   9.723  1.2206 -0.0286  0.0352
  818MOL0     H10417   6.483   9.079   9.650  1.6096 -1.2641  0.4822
  818MOL0     H10418   6.667   8.938   9.797 -3.4397 -1.9634  0.6647
  818MOL0     H10419   6.676   8.928   9.619 -1.4688  2.0567  0.7573
  818MOL0     H10420   6.759   8.711   9.820  0.2011 -1.3286 -0.6353
  818MOL0     H10421   6.869   8.768   9.705 -0.4892  1.2382  0.1825
  818MOL0     H10422   6.669   8.661   9.533 -0.2371 -1.5657 -0.2907
  818MOL0     H10423   6.636   8.587   9.681 -2.2104  2.0916 -1.5813
  818MOL0     H10424   6.914   8.598   9.552 -2.3790  2.5405 -0.8036
  818MOL0     H10425   6.877   8.500   9.693  4.1784  1.1505 -1.1145
  818MOL0     H10426   6.725   8.234   9.432  2.0125 -1.6152  2.0063
  818MOL0     H10427   6.314   8.722   9.803  4.0049  0.6161  0.4907
  818MOL0     H10428   6.094   8.705   9.817  0.5446 -0.0693 -0.8547
  818MOL0     H10429   6.028   8.829   9.931 -1.0391  1.9052 -0.1294
  818MOL0     H10430   5.972   8.834   9.764  1.8344 -1.2942 -2.9473
  819MOL0     O10431   0.721   6.025   4.975 -0.3455 -0.4953  0.6350
  819MOL0     C10432   0.744   6.147   4.979  0.8167 -0.3384  0.9302
  819MOL0     O10433   0.871   6.209   4.977  0.3611 -0.5681  0.3621
  819MOL0     C10434   0.993   6.151   4.965  0.2226 -0.7034  0.6014
  819MOL0     C10435   1.097   6.209   5.034 -0.3991  0.2551  0.6058
  819MOL0     C10436   1.218   6.140   5.029  0.0719 -0.9514  0.4824
  819MOL0     C10437   1.243   6.018   4.969 -0.1384 -0.2279 -0.4543
  819MOL0     O10438   1.359   5.939   4.976 -0.1679 -0.7616 -0.4160
  819MOL0     C10439   1.440   5.972   5.094 -0.4518  0.0639 -0.9997
  819MOL0     C10440   1.566   5.888   5.079  0.1444  0.0977  0.6773
  819MOL0     C10441   1.665   5.926   5.187 -0.2536  0.6798 -0.3706
  819MOL0     C10442   1.815   5.883   5.163 -0.3436 -0.4315  0.3331
  819MOL0     C10443   1.910   6.003   5.167  0.7333  0.2819  0.5883
  819MOL0     C10444   1.919   6.087   5.035 -0.6151  0.0825 -0.7566
  819MOL0     C10445   2.019   6.205   5.051 -0.0565  0.4239  0.1866
  819MOL0     C10446   1.974   6.299   5.163 -0.9123 -0.9677 -0.2606
  819MOL0     N10447   2.048   6.430   5.161  0.0597 -0.7975 -0.1653
  819MOL0     C10448   2.130   6.484   5.075  0.5908  1.2680  0.3188
  819MOL0     C10449   2.144   6.616   5.109  1.1051 -0.0544 -0.1354
  819MOL0     C10450   2.213   6.731   5.033  0.1669  0.2170  0.2505
  819MOL0     C10451   2.277   6.838   5.119  0.1487 -0.8879 -0.9576
  819MOL0     C10452   2.297   6.967   5.041 -0.0579 -0.1451 -0.1053
  819MOL0     C10453   2.412   6.961   4.936  0.5579  1.3848  0.8535
  819MOL0     O10454   2.366   6.862   4.837 -0.3922  0.2414 -0.4179
  819MOL0     C10455   2.443   6.837   4.729 -0.7808  0.3119 -0.2723
  819MOL0     C10456   2.402   6.741   4.637 -0.0835  0.0631  0.6030
  819MOL0     C10457   2.474   6.704   4.521  0.3985  0.2166 -0.8766
  819MOL0     C10458   2.603   6.740   4.517  0.0528 -0.3892 -0.3319
  819MOL0     C10459   2.689   6.682   4.416 -0.6659 -0.2154  0.3167
  819MOL0     O10460   2.815   6.723   4.424 -0.5843  0.5257 -0.6739
  819MOL0     C10461   2.914   6.670   4.346  0.2173  0.1415  0.2467
  819MOL0     C10462   2.970   6.545   4.359 -0.0145 -0.4298  0.1486
  819MOL0     C10463   3.044   6.485   4.255  0.4306  0.0465 -0.4981
  819MOL0     C10464   3.053   6.544   4.131  0.2635  0.4983 -0.1150
  819MOL0     O10465   3.115   6.481   4.032  0.6307 -0.9996  0.2523
  819MOL0     C10466   3.247   6.533   4.008 -0.9028  0.0549  0.0979
  819MOL0     C10467   3.317   6.467   3.882 -0.9550 -0.2092 -0.1395
  819MOL0     C10468   3.324   6.312   3.880 -0.4818  0.0879 -0.1309
  819MOL0     C10469   3.390   6.262   3.740 -0.1979  0.0077 -0.3111
  819MOL0     C10470   3.381   6.112   3.732 -0.4853  0.6185  0.2390
  819MOL0     C10471   3.464   6.036   3.829  0.5008 -0.1519  0.8571
  819MOL0     C10472   3.618   6.035   3.819  1.4320  0.6500  0.4338
  819MOL0     C10473   3.669   5.955   3.944 -0.8498  0.0132  0.3010
  819MOL0    Cl10474   3.597   5.784   3.963 -0.1569 -0.6847  0.0501
  819MOL0     C10475   3.000   6.665   4.116 -0.0694  0.3374 -0.2277
  819MOL0     C10476   2.922   6.729   4.217 -1.1921 -0.1227  0.5933
  819MOL0     O10477   2.641   6.600   4.344  0.0064 -0.2044 -0.0286
  819MOL0     C10478   2.650   6.845   4.604 -0.0126 -0.9822  0.3193
  819MOL0     C10479   2.567   6.887   4.712  0.1765 -0.5569  0.5455
  819MOL0     N10480   2.077   6.637   5.225  1.1371  0.0297  0.2960
  819MOL0     N10481   2.018   6.525   5.259  1.3582  0.1405  0.4763
  819MOL0     C10482   1.142   5.965   4.893 -0.7689 -0.2726  0.3373
  819MOL0     C10483   1.025   6.028   4.896 -0.0494 -0.9311 -0.6304
  819MOL0     C10484   0.635   6.245   5.015  0.9855  0.3726 -0.4815
  819MOL0     C10485   0.666   6.386   5.001  0.4781  0.9542  0.1773
  819MOL0     C10486   0.569   6.483   5.026 -0.0700  0.7692  0.1686
  819MOL0     C10487   0.449   6.449   5.076 -0.3559 -0.4323 -0.0594
  819MOL0     O10488   0.343   6.535   5.103  0.8921  0.1843  0.1789
  819MOL0     C10489   0.359   6.680   5.086 -0.3008  0.6516 -0.6798
  819MOL0     C10490   0.255   6.755   5.179 -0.0674 -0.4799  0.2550
  819MOL0     C10491   0.107   6.767   5.121  0.0767 -0.2779  0.0093
  819MOL0     C10492   0.021   6.869   5.202 -0.4807 -0.7165  0.4509
  819MOL0     C10493  -0.057   6.944   5.102 -0.7754  0.1005  0.2115
  819MOL0     C10494  -0.124   7.002   5.018 -0.8024  0.2381 -0.1634
  819MOL0     C10495   0.421   6.317   5.089  0.4298  0.7555  0.2809
  819MOL0     C10496   0.507   6.209   5.056  0.1641  0.0997  1.0333
  819MOL0     C10497   0.444   6.068   5.045 -0.2216  0.3750  0.4696
  819MOL0     H10498   1.100   6.304   5.086  0.0735  2.2228 -2.6973
  819MOL0     H10499   1.300   6.189   5.082 -2.5170  3.8579  0.5833
  819MOL0     H10500   1.461   6.080   5.095 -0.6982  0.1434  1.5128
  819MOL0     H10501   1.378   5.962   5.184  0.5901  2.7782  0.1518
  819MOL0     H10502   1.602   5.917   4.980 -0.1488  1.1854  0.8734
  819MOL0     H10503   1.563   5.779   5.069 -2.1046  0.2932 -1.7597
  819MOL0     H10504   1.636   5.880   5.282  2.1080 -1.5843 -0.6610
  819MOL0     H10505   1.663   6.036   5.192  0.4271  0.8377 -2.5605
  819MOL0     H10506   1.845   5.829   5.254 -2.8227 -1.4602  0.6371
  819MOL0     H10507   1.837   5.812   5.082  0.1964 -1.6994  1.5471
  819MOL0     H10508   1.875   6.069   5.247 -0.8632  0.0023  0.1696
  819MOL0     H10509   2.010   5.972   5.198 -0.2097 -2.4965  1.1878
  819MOL0     H10510   1.951   6.023   4.952 -0.2736  0.7692 -1.1612
  819MOL0     H10511   1.820   6.124   5.007 -0.2704  1.0173 -0.7665
  819MOL0     H10512   2.037   6.260   4.958  5.1684  2.8174  2.2345
  819MOL0     H10513   2.120   6.173   5.080 -0.1373  2.4275  3.0649
  819MOL0     H10514   1.868   6.326   5.166 -0.7561 -0.3186 -0.3665
  819MOL0     H10515   2.002   6.238   5.250  1.0587 -1.1541 -0.9673
  819MOL0     H10516   2.190   6.445   4.994  0.5250  1.4073  0.2029
  819MOL0     H10517   2.284   6.691   4.960  0.2248  0.0508  0.3989
  819MOL0     H10518   2.139   6.784   4.972  0.1759 -0.0455  0.0118
  819MOL0     H10519   2.214   6.855   5.207  0.5856  0.2068 -0.8441
  819MOL0     H10520   2.372   6.795   5.151  0.9693  0.3687 -1.6260
  819MOL0     H10521   2.328   7.045   5.111 -3.2039  0.7308  0.4500
  819MOL0     H10522   2.199   6.995   5.003  1.1298  0.2237 -3.2157
  819MOL0     H10523   2.514   6.947   4.973 -0.4967 -1.3456  3.0436
  819MOL0     H10524   2.406   7.065   4.903 -1.1467  1.3448  0.9267
  819MOL0     H10525   2.302   6.705   4.662  0.6315 -0.7672  2.5562
  819MOL0     H10526   2.433   6.628   4.456  0.1047 -0.0447 -0.3940
  819MOL0     H10527   2.973   6.498   4.457 -0.2735 -0.7248  0.0171
  819MOL0     H10528   3.111   6.404   4.281  0.4702 -0.4051 -1.9315
  819MOL0     H10529   3.227   6.637   3.980 -2.8208 -0.3809 -0.3149
  819MOL0     H10530   3.320   6.537   4.089  0.4771 -0.9684 -1.0324
  819MOL0     H10531   3.266   6.500   3.790 -0.7259 -2.4965 -1.1535
  819MOL0     H10532   3.416   6.513   3.886 -1.4896  1.2216 -1.9652
  819MOL0     H10533   3.380   6.291   3.971 -2.7590 -2.4296  0.8150
  819MOL0     H10534   3.231   6.264   3.911  1.2560 -2.4347  1.5060
  819MOL0     H10535   3.497   6.284   3.733  0.4542 -2.7341 -0.0892
  819MOL0     H10536   3.344   6.309   3.652 -2.1840 -0.6361  0.3323
  819MOL0     H10537   3.412   6.077   3.633  1.1430 -0.0709  0.9608
  819MOL0     H10538   3.275   6.091   3.744 -0.7022  2.5350  2.7186
  819MOL0     H10539   3.425   6.060   3.929 -1.8248 -0.0479  0.0024
  819MOL0     H10540   3.432   5.933   3.808  1.0195 -0.0106 -0.7357
  819MOL0     H10541   3.655   6.138   3.819  0.3100  1.0949 -1.3219
  819MOL0     H10542   3.638   5.984   3.724 -3.6828  0.7403 -0.9776
  819MOL0     H10543   3.776   5.947   3.924 -1.2205 -0.8138 -1.5045
  819MOL0     H10544   3.651   6.028   4.024 -0.8784  2.8534 -2.1040
  819MOL0     H10545   2.998   6.720   4.022  0.4168 -0.7883 -0.9144
  819MOL0     H10546   2.886   6.826   4.186  1.7925  0.7876 -0.3366
  819MOL0     H10547   2.750   6.886   4.598  0.3815 -1.7274  1.4062
  819MOL0     H10548   2.622   6.961   4.769 -2.2261  4.4205 -2.9165
  819MOL0     H10549   1.163   5.868   4.847 -1.1165 -1.2366  2.1335
  819MOL0     H10550   0.943   5.966   4.860  1.9642 -3.2645 -1.4103
  819MOL0     H10551   0.768   6.415   4.979  1.5790 -0.9844  2.2343
  819MOL0     H10552   0.608   6.583   5.006  0.2430  0.4374 -0.9777
  819MOL0     H10553   0.338   6.714   4.985  2.0183 -1.5627 -2.0301
  819MOL0     H10554   0.458   6.710   5.123 -0.3694  2.0447 -1.5876
  819MOL0     H10555   0.293   6.854   5.205 -1.1956  0.5234 -1.6939
  819MOL0     H10556   0.250   6.695   5.270 -2.5197 -0.9634 -0.1283
  819MOL0     H10557   0.057   6.670   5.115  1.8783 -1.2305 -0.0147
  819MOL0     H10558   0.120   6.809   5.021  0.5344  1.8455  0.9019
  819MOL0     H10559  -0.037   6.818   5.279  0.7727 -0.8991  1.3000
  819MOL0     H10560   0.079   6.940   5.261 -1.0924 -0.5454  0.8548
  819MOL0     H10561  -0.160   7.042   4.925 -0.8295  2.8013  0.8529
  819MOL0     H10562   0.322   6.289   5.122 -0.6904  1.5844 -2.1623
  819MOL0     H10563   0.457   6.044   4.939 -0.7485 -0.2116  0.5360
  819MOL0     H10564   0.497   6.003   5.115  1.3721  0.4727 -0.5731
  819MOL0     H10565   0.338   6.066   5.069 -0.0746 -1.0354  1.0871
  820MOL0     O10566   3.048   0.651  10.752  0.4151  0.3907  0.9820
  820MOL0     C10567   3.149   0.728  10.734  0.4529  0.1505 -0.3406
  820MOL0     O10568   3.238   0.716  10.633  0.9478  0.0227 -0.2914
  820MOL0     C10569   3.210   0.617  10.539  0.0552 -0.3725 -0.8863
  820MOL0     C10570   3.296   0.513  10.533  0.0576 -0.5816  0.4112
  820MOL0     C10571   3.262   0.401  10.454 -0.6219  0.1087  0.1104
  820MOL0     C10572   3.159   0.401  10.363  0.4819  0.5770 -0.4586
  820MOL0     O10573   3.146   0.280  10.297  0.3605  0.1970 -0.0306
  820MOL0     C10574   3.016   0.232  10.250 -0.2693  0.1347  0.1168
  820MOL0     C10575   2.906   0.218  10.359  0.7685 -0.0540  0.5714
  820MOL0     C10576   2.795   0.107  10.327 -0.9331  0.9833  0.7326
  820MOL0     C10577   2.653   0.162  10.318 -0.9032  0.5164 -0.8306
  820MOL0     C10578   2.553   0.051  10.273 -0.0967  0.5993  0.0087
  820MOL0     C10579   2.428   0.105  10.203  0.2477  0.6962 -0.0173
  820MOL0     C10580   2.348  -0.018  10.159 -0.6617  0.7413 -0.5694
  820MOL0     C10581   2.211   0.036  10.141 -0.4220 -0.1033  0.4580
  820MOL0     N10582   2.109  -0.050  10.089 -0.0983 -0.0330 -0.6354
  820MOL0     C10583   1.997  -0.000  10.022  0.4919  0.1522  0.2012
  820MOL0     C10584   1.917  -0.099   9.979 -0.4785  0.7889 -0.7171
  820MOL0     C10585   1.787  -0.079   9.919 -0.8913  0.2322 -0.0835
  820MOL0     C10586   1.662  -0.120  10.012  0.8568  0.7477 -0.2519
  820MOL0     C10587   1.534  -0.061   9.944  0.7143 -0.3801 -0.9324
  820MOL0     C10588   1.408  -0.153   9.938  0.4170 -0.1711  0.2206
  820MOL0     O10589   1.368  -0.191  10.067  0.3794  0.1480 -0.2533
  820MOL0     C10590   1.310  -0.113  10.163  0.3189  0.6551  0.3505
  820MOL0     C10591   1.354  -0.127  10.289  1.0293 -0.3168 -0.2977
  820MOL0     C10592   1.299  -0.055  10.397 -0.6861  0.0875 -0.5284
  820MOL0     C10593   1.214   0.053  10.371  0.2314 -1.7407 -0.3952
  820MOL0     C10594   1.168   0.141  10.476 -0.1342 -0.6625 -0.7324
  820MOL0     O10595   1.119   0.264  10.443  0.3110  0.8039  0.4650
  820MOL0     C10596   1.087   0.344  10.544 -0.7579  0.3910 -0.8091
  820MOL0     C10597   1.162   0.354  10.657 -0.5213 -0.2865 -0.1449
  820MOL0     C10598   1.130   0.443  10.763  0.0567  0.6990 -0.2057
  820MOL0     C10599   1.034   0.532  10.750 -0.3787 -0.1972 -0.1653
  820MOL0     O10600   1.003   0.633  10.831  0.2690  1.3149 -0.1843
  820MOL0     C10601   1.086   0.665  10.935 -0.4595  0.0133 -0.2120
  820MOL0     C10602   1.209   0.733  10.872  0.1234  0.1692  0.7359
  820MOL0     C10603   1.185   0.865  10.812  0.7948 -0.4732  0.1969
  820MOL0     C10604   1.293   0.915  10.710  0.0488  0.0005 -0.7620
  820MOL0     C10605   1.289   1.064  10.686  0.0065 -0.3386 -0.5272
  820MOL0     C10606   1.366   1.105  10.563  0.6379 -0.0003  0.3286
  820MOL0     C10607   1.351   1.259  10.537  0.3956 -0.0759 -0.3450
  820MOL0     C10608   1.420   1.333  10.654 -0.5989  0.7619  0.5936
  820MOL0    Cl10609   1.455   1.499  10.619  0.1502 -0.0923 -0.2352
  820MOL0     C10610   0.953   0.518  10.642  0.7305 -0.8279 -1.4069
  820MOL0     C10611   0.971   0.425  10.546 -0.6638 -0.1072  0.8386
  820MOL0     O10612   1.157   0.086  10.584  0.0872  0.2845 -0.6222
  820MOL0     C10613   1.181   0.080  10.238 -0.9406 -0.4986 -0.8163
  820MOL0     C10614   1.222  -0.009  10.132  0.7813  0.8265  0.0367
  820MOL0     N10615   1.994  -0.205  10.015  1.3435 -0.1854  0.2185
  820MOL0     N10616   2.104  -0.184  10.079  0.3640  0.7233 -0.3227
  820MOL0     C10617   3.079   0.510  10.361  0.2631  1.0385  0.3016
  820MOL0     C10618   3.102   0.622  10.448 -0.5837 -0.1896 -0.5316
  820MOL0     C10619   3.179   0.832  10.839  0.3046 -0.6656 -0.5402
  820MOL0     C10620   3.083   0.930  10.864 -0.4515 -0.4797  0.5282
  820MOL0     C10621   3.111   1.042  10.947 -0.5304 -0.6266 -0.3474
  820MOL0     C10622   3.241   1.065  11.004  0.8529  0.2036 -0.4201
  820MOL0     O10623   3.276   1.174  11.080  0.1042  0.2379 -0.1002
  820MOL0     C10624   3.415   1.201  11.104 -0.5083 -0.6637 -0.3564
  820MOL0     C10625   3.450   1.354  11.118 -0.5801 -0.2070 -0.1124
  820MOL0     C10626   3.411   1.429  10.984  0.3048 -0.6489 -0.0224
  820MOL0     C10627   3.307   1.540  11.016 -0.7165 -0.0163  0.5729
  820MOL0     C10628   3.291   1.640  10.911 -0.0972  0.1740  0.4532
  820MOL0     C10629   3.302   1.718  10.819  0.3868  0.3900  0.3317
  820MOL0     C10630   3.337   0.957  10.988  0.0065  0.8890 -0.2477
  820MOL0     C10631   3.308   0.847  10.903  0.3405  0.0776  0.0331
  820MOL0     C10632   3.419   0.761  10.865 -0.6560 -0.0823  0.6039
  820MOL0     H10633   3.379   0.522  10.603 -0.3406 -1.3613  0.9969
  820MOL0     H10634   3.322   0.313  10.474 -2.2486 -0.8461  1.0583
  820MOL0     H10635   2.976   0.301  10.175 -3.8583  0.3498  1.9711
  820MOL0     H10636   3.036   0.139  10.196 -0.6199 -0.2439  0.6307
  820MOL0     H10637   2.856   0.315  10.364 -0.7032 -0.8315  3.8317
  820MOL0     H10638   2.950   0.191  10.456 -0.3109 -0.7318  0.8920
  820MOL0     H10639   2.809   0.026  10.400  3.4108  2.8571  2.3160
  820MOL0     H10640   2.827   0.062  10.233  1.2651 -0.4195  2.0673
  820MOL0     H10641   2.614   0.202  10.413 -0.2119 -0.8691  0.0764
  820MOL0     H10642   2.660   0.232  10.235 -1.2285 -2.6319 -3.7395
  820MOL0     H10643   2.598  -0.005  10.190 -0.0815  1.5029 -0.6115
  820MOL0     H10644   2.531  -0.011  10.359 -0.1713  3.9394  2.6166
  820MOL0     H10645   2.370   0.161  10.277 -2.4277 -1.2327 -0.5161
  820MOL0     H10646   2.454   0.164  10.115  3.0665 -0.0121  0.2393
  820MOL0     H10647   2.340  -0.095  10.236 -3.6761  0.1231 -1.3761
  820MOL0     H10648   2.390  -0.050  10.063 -0.8080 -0.1186 -0.3542
  820MOL0     H10649   2.177   0.082  10.235  2.6668  2.3058  0.5576
  820MOL0     H10650   2.216   0.112  10.062  0.4891 -1.8762 -1.2668
  820MOL0     H10651   1.969   0.104  10.020 -0.7393 -0.1680 -0.9800
  820MOL0     H10652   1.782   0.019   9.871  0.4386 -0.2902 -1.3613
  820MOL0     H10653   1.783  -0.148   9.834  1.3077  0.4563 -0.4347
  820MOL0     H10654   1.647  -0.228  10.010 -1.8911  1.0473  0.0918
  820MOL0     H10655   1.669  -0.078  10.113  0.0718  1.0436 -0.3063
  820MOL0     H10656   1.555  -0.024   9.843 -0.0464  0.0955 -0.9209
  820MOL0     H10657   1.512   0.032   9.998  0.8640 -0.5380 -0.5951
  820MOL0     H10658   1.434  -0.241   9.879 -0.9474 -1.8257  1.9253
  820MOL0     H10659   1.317  -0.126   9.885 -0.6130 -3.0025  0.3697
  820MOL0     H10660   1.444  -0.184  10.308  2.8914  0.8508 -4.5643
  820MOL0     H10661   1.330  -0.095  10.493 -0.1027 -1.6990 -1.4095
  820MOL0     H10662   1.249   0.292  10.673 -0.5895 -0.1225  0.9797
  820MOL0     H10663   1.188   0.450  10.855 -1.1169  2.8087  0.4468
  820MOL0     H10664   1.041   0.737  11.004 -1.5297 -1.0104  0.1968
  820MOL0     H10665   1.108   0.578  10.998 -1.6571 -0.1846 -0.0460
  820MOL0     H10666   1.273   0.759  10.957  1.0114  2.5534 -0.5820
  820MOL0     H10667   1.265   0.660  10.812 -0.9392 -0.7157  0.7963
  820MOL0     H10668   1.093   0.859  10.753 -0.8223 -2.7494  2.6990
  820MOL0     H10669   1.170   0.938  10.892  0.1387 -1.3715  0.9072
  820MOL0     H10670   1.276   0.854  10.621 -0.5873  0.3202 -0.8670
  820MOL0     H10671   1.391   0.890  10.752 -0.7593 -3.8727 -0.7196
  820MOL0     H10672   1.327   1.111  10.777 -3.3598  1.5323  0.0690
  820MOL0     H10673   1.183   1.093  10.688 -0.2404 -1.1897  1.8170
  820MOL0     H10674   1.468   1.068  10.580  0.1237 -0.5486  2.4052
  820MOL0     H10675   1.322   1.054  10.477 -0.5372 -1.2337  1.6101
  820MOL0     H10676   1.245   1.280  10.525  0.1044 -1.5245 -0.5128
  820MOL0     H10677   1.403   1.293  10.447  0.8380  0.9550  0.2773
  820MOL0     H10678   1.349   1.325  10.737 -0.3181 -2.9855  0.6573
  820MOL0     H10679   1.508   1.278  10.690  0.1778  3.8437  3.9976
  820MOL0     H10680   0.877   0.595  10.637  0.5687 -0.4373  3.1552
  820MOL0     H10681   0.911   0.426  10.455  0.2528 -0.7682  0.2030
  820MOL0     H10682   1.112   0.161  10.215  0.9945  1.7045  0.6458
  820MOL0     H10683   1.193   0.010  10.029  0.5726  0.2958 -0.0049
  820MOL0     H10684   2.983   0.525  10.313  0.2208  1.6361  0.5516
  820MOL0     H10685   3.023   0.698  10.449 -0.5956 -0.1579  1.8286
  820MOL0     H10686   2.983   0.913  10.824 -0.8429  0.3284  1.1174
  820MOL0     H10687   3.039   1.118  10.976  0.2077 -0.6434  1.6167
  820MOL0     H10688   3.464   1.172  11.011 -1.1524 -1.7522 -0.3692
  820MOL0     H10689   3.460   1.146  11.188  1.8372  0.2491 -0.9224
  820MOL0     H10690   3.557   1.357  11.138 -0.5194 -2.6564  0.1653
  820MOL0     H10691   3.392   1.400  11.199  1.9305  1.1004  1.0621
  820MOL0     H10692   3.364   1.357  10.917 -1.2545 -2.1612  2.5232
  820MOL0     H10693   3.495   1.481  10.937 -0.6370  2.0474  1.0546
  820MOL0     H10694   3.214   1.487  11.039 -0.0961 -0.5562  1.9432
  820MOL0     H10695   3.348   1.598  11.100  0.6372  1.8833 -1.2944
  820MOL0     H10696   3.310   1.785  10.736 -0.9802  0.6394  0.3857
  820MOL0     H10697   3.431   0.959  11.043  1.2665  2.3438 -2.3190
  820MOL0     H10698   3.498   0.768  10.940  0.5854  0.7967 -0.7239
  820MOL0     H10699   3.400   0.654  10.853  3.3425 -0.8152 -0.4599
  820MOL0     H10700   3.469   0.802  10.777  0.9676 -0.9459  1.0844
  821MOL0     O10701   1.310   7.530   7.068 -0.7061 -0.0007  0.6179
  821MOL0     C10702   1.395   7.604   7.123  0.0645 -0.5619  1.3010
  821MOL0     O10703   1.474   7.691   7.052  0.2171 -0.2500  0.8189
  821MOL0     C10704   1.463   7.708   6.919 -0.6909  0.4419 -0.1582
  821MOL0     C10705   1.571   7.787   6.869  1.1645 -0.0648 -0.3002
  821MOL0     C10706   1.573   7.819   6.732 -0.2942 -0.4785 -1.2882
  821MOL0     C10707   1.474   7.789   6.647  0.3903 -0.6024  0.1501
  821MOL0     O10708   1.494   7.828   6.518 -0.0611  0.7812  0.3225
  821MOL0     C10709   1.380   7.794   6.419 -0.1321  0.9877  0.0028
  821MOL0     C10710   1.362   7.908   6.319  0.2937 -1.0315 -0.3756
  821MOL0     C10711   1.257   7.865   6.219 -0.3128 -0.3310  0.2990
  821MOL0     C10712   1.116   7.935   6.246 -0.7067  0.9744 -0.1902
  821MOL0     C10713   1.046   7.892   6.378  0.2112  0.0394 -0.0272
  821MOL0     C10714   0.999   7.744   6.379 -0.8569 -0.1233 -0.1948
  821MOL0     C10715   0.964   7.726   6.518  0.4584  0.1707 -0.4378
  821MOL0     C10716   0.925   7.575   6.538  0.2895 -0.6154 -0.9824
  821MOL0     N10717   0.790   7.562   6.606 -0.4246 -0.7931  0.0898
  821MOL0     C10718   0.774   7.620   6.728 -0.3975 -0.6550 -0.5011
  821MOL0     C10719   0.644   7.631   6.739 -0.3132  0.1484 -0.2348
  821MOL0     C10720   0.569   7.681   6.856  0.6498 -0.0044  0.1928
  821MOL0     C10721   0.595   7.834   6.877  0.2462 -0.4644 -0.2756
  821MOL0     C10722   0.550   7.872   7.018  0.3637  0.2560  0.5012
  821MOL0     C10723   0.531   8.024   7.021  0.7016  0.0894 -0.4224
  821MOL0     O10724   0.466   8.066   7.140  0.5572  0.1768 -0.0016
  821MOL0     C10725   0.421   8.195   7.150 -0.0772 -0.8952  0.1462
  821MOL0     C10726   0.314   8.223   7.233  0.0067  0.1525  0.9724
  821MOL0     C10727   0.248   8.340   7.237 -0.3414 -0.7863 -0.1891
  821MOL0     C10728   0.307   8.462   7.190  0.8659  1.0133 -0.0272
  821MOL0     C10729   0.248   8.591   7.211 -0.3231 -0.5741 -1.0810
  821MOL0     O10730   0.304   8.701   7.139  0.0831 -0.0796  0.0513
  821MOL0     C10731   0.279   8.832   7.175  0.8712 -0.7871 -1.0293
  821MOL0     C10732   0.148   8.881   7.189 -0.7253  0.6493  0.0943
  821MOL0     C10733   0.123   9.017   7.210 -1.1111 -0.1899  0.4813
  821MOL0     C10734   0.234   9.101   7.217 -0.3973 -0.4032  0.2905
  821MOL0     O10735   0.226   9.234   7.236  0.8963 -0.1662 -0.8615
  821MOL0     C10736   0.096   9.305   7.245 -0.0449  0.0235  0.8065
  821MOL0     C10737   0.033   9.298   7.096 -0.3710  0.4908 -0.5725
  821MOL0     C10738   0.074   9.423   7.015 -0.1411  0.6190 -0.5381
  821MOL0     C10739  -0.037   9.533   7.040  0.5081 -0.8534  0.0609
  821MOL0     C10740   0.016   9.664   7.015 -0.4668 -0.3236  0.0099
  821MOL0     C10741   0.082   9.722   7.140 -0.2417 -0.6053  0.2482
  821MOL0     C10742   0.169   9.843   7.106  0.8341  0.9704 -0.3917
  821MOL0     C10743   0.205   9.907   7.240  0.1408  0.5325  0.4969
  821MOL0    Cl10744   0.289  10.058   7.218 -0.1481  0.1559  0.1339
  821MOL0     C10745   0.372   9.058   7.204  0.3314 -0.0394  0.1951
  821MOL0     C10746   0.394   8.917   7.189 -0.0002 -0.7100 -0.0101
  821MOL0     O10747   0.157   8.596   7.287 -0.5531  0.2091  0.0704
  821MOL0     C10748   0.428   8.441   7.116 -0.3166  0.0846 -0.2944
  821MOL0     C10749   0.467   8.307   7.075  0.3458 -0.1221 -0.2061
  821MOL0     N10750   0.573   7.586   6.626 -1.0452 -0.1924  0.0900
  821MOL0     N10751   0.667   7.568   6.541 -0.5061 -0.2958  0.3177
  821MOL0     C10752   1.365   7.697   6.692 -0.0188  0.1116 -0.0441
  821MOL0     C10753   1.362   7.663   6.830  0.0908  0.5528  0.4084
  821MOL0     C10754   1.387   7.614   7.271 -1.0193  1.2483 -0.5879
  821MOL0     C10755   1.499   7.670   7.332 -0.4507 -0.4152 -0.3439
  821MOL0     C10756   1.532   7.660   7.466  0.2345 -1.3961 -0.6399
  821MOL0     C10757   1.440   7.599   7.553 -0.8472  0.9225 -0.1765
  821MOL0     O10758   1.451   7.589   7.685 -0.5633  0.4229  0.2607
  821MOL0     C10759   1.554   7.646   7.765 -0.4007 -0.1403 -0.4757
  821MOL0     C10760   1.682   7.563   7.796 -1.3172 -0.3777  0.6721
  821MOL0     C10761   1.780   7.619   7.906 -0.1870  0.1897 -0.1264
  821MOL0     C10762   1.729   7.563   8.044  0.4579 -0.4083  0.1945
  821MOL0     C10763   1.751   7.416   8.064 -0.0483 -0.6270 -0.5398
  821MOL0     C10764   1.757   7.288   8.068  0.3567 -0.3473 -0.4558
  821MOL0     C10765   1.337   7.532   7.497 -0.6495 -0.5723 -0.1574
  821MOL0     C10766   1.302   7.536   7.361  0.3478 -0.5573  0.5503
  821MOL0     C10767   1.175   7.457   7.312  0.2632 -0.0784 -0.7472
  821MOL0     H10768   1.662   7.815   6.922  1.3939 -0.8363 -0.2667
  821MOL0     H10769   1.662   7.874   6.704 -2.6647  3.5756 -1.6681
  821MOL0     H10770   1.393   7.702   6.362 -3.8668  0.1022  0.2947
  821MOL0     H10771   1.286   7.784   6.475 -0.1344  0.7397 -0.0438
  821MOL0     H10772   1.463   7.926   6.283  0.8054 -0.4693  1.2566
  821MOL0     H10773   1.334   8.006   6.358 -0.5067 -1.5918  0.5331
  821MOL0     H10774   1.237   7.759   6.205 -1.0842 -0.1058 -0.4277
  821MOL0     H10775   1.294   7.888   6.118 -1.3948 -1.0869 -0.2998
  821MOL0     H10776   1.123   8.044   6.251 -0.9753  0.9964 -0.2386
  821MOL0     H10777   1.055   7.919   6.156 -1.0685 -1.0548  0.3492
  821MOL0     H10778   1.120   7.898   6.458  0.2809 -2.6070  0.2023
  821MOL0     H10779   0.960   7.956   6.399  0.1493 -0.1368  0.2624
  821MOL0     H10780   0.908   7.739   6.319 -2.0483 -0.7110  1.5756
  821MOL0     H10781   1.072   7.670   6.347 -2.0598 -0.8747 -1.3207
  821MOL0     H10782   0.884   7.794   6.547  1.8404  1.4652  0.4895
  821MOL0     H10783   1.048   7.747   6.584  0.6881  2.9455 -1.5025
  821MOL0     H10784   0.924   7.513   6.447  3.2657  2.7073 -3.5662
  821MOL0     H10785   1.007   7.533   6.596  2.3425  2.2403 -1.5908
  821MOL0     H10786   0.852   7.654   6.796  0.0159 -1.4135 -0.5817
  821MOL0     H10787   0.462   7.672   6.836  0.4079  0.3821  1.2365
  821MOL0     H10788   0.591   7.624   6.947 -1.2238  1.9446  1.9677
  821MOL0     H10789   0.701   7.860   6.868  0.6037 -1.8536 -0.2721
  821MOL0     H10790   0.549   7.890   6.795  1.6575 -0.0528 -0.8342
  821MOL0     H10791   0.629   7.853   7.092  0.9620  3.0117  0.6983
  821MOL0     H10792   0.459   7.822   7.051  1.1633 -1.5171  0.1379
  821MOL0     H10793   0.461   8.059   6.944  1.1143  2.9606  0.4013
  821MOL0     H10794   0.633   8.063   7.011  0.1054  1.9184  0.2506
  821MOL0     H10795   0.276   8.140   7.291 -1.0904 -1.9529 -2.4727
  821MOL0     H10796   0.158   8.348   7.297 -0.3779 -0.5921 -0.2686
  821MOL0     H10797   0.050   8.837   7.174 -1.2647  1.9742 -0.4403
  821MOL0     H10798   0.021   9.054   7.215 -0.5795  1.8002 -1.6626
  821MOL0     H10799   0.039   9.258   7.325 -1.4624  0.0690 -0.1429
  821MOL0     H10800   0.108   9.409   7.279  2.3052 -0.2676  1.0564
  821MOL0     H10801   0.078   9.209   7.052  1.3630 -0.2898  2.4883
  821MOL0     H10802  -0.075   9.280   7.104  0.0362 -2.1666 -0.3994
  821MOL0     H10803   0.174   9.460   7.040  0.7814 -2.3186  0.5655
  821MOL0     H10804   0.077   9.402   6.908  1.9031  1.3526 -0.6725
  821MOL0     H10805  -0.077   9.537   7.141 -0.5177 -0.0362 -0.3640
  821MOL0     H10806  -0.116   9.525   6.965  0.6022  1.8627 -0.4307
  821MOL0     H10807  -0.072   9.724   6.988 -0.3979 -0.7883 -1.3291
  821MOL0     H10808   0.082   9.659   6.928  0.0978 -0.2044  0.4279
  821MOL0     H10809   0.007   9.747   7.215  0.9105 -0.9781  1.5509
  821MOL0     H10810   0.145   9.643   7.181 -0.3177 -0.6541  0.2712
  821MOL0     H10811   0.112   9.908   7.039  1.1296  1.1046 -0.5182
  821MOL0     H10812   0.258   9.813   7.049 -0.7072  0.1042 -2.5129
  821MOL0     H10813   0.114   9.935   7.293 -1.4433 -0.6545 -1.4190
  821MOL0     H10814   0.259   9.842   7.310 -0.8623  1.8965  2.6336
  821MOL0     H10815   0.452   9.127   7.178 -1.3681  2.0154  0.1145
  821MOL0     H10816   0.498   8.899   7.166 -0.2054 -0.3968 -1.2508
  821MOL0     H10817   0.496   8.523   7.093 -0.2104 -0.5956 -2.6895
  821MOL0     H10818   0.561   8.306   7.019  0.2818  1.2927 -0.3898
  821MOL0     H10819   1.293   7.655   6.622 -1.2318 -0.0532  1.2545
  821MOL0     H10820   1.273   7.608   6.856  0.7768 -2.2074 -2.3836
  821MOL0     H10821   1.571   7.713   7.264 -0.9975  0.0283 -0.6532
  821MOL0     H10822   1.618   7.715   7.504 -0.0612 -0.6822 -0.9906
  821MOL0     H10823   1.504   7.657   7.862  0.4957 -1.8804  0.2427
  821MOL0     H10824   1.571   7.749   7.734  0.2518 -0.1349 -0.1314
  821MOL0     H10825   1.748   7.576   7.709  1.7137  0.0782  2.8773
  821MOL0     H10826   1.670   7.455   7.799  0.2813 -0.6736 -1.2968
  821MOL0     H10827   1.765   7.727   7.913 -0.8742 -0.0274  3.0757
  821MOL0     H10828   1.878   7.589   7.867  0.8477  4.0829 -0.8870
  821MOL0     H10829   1.774   7.621   8.125  0.2328  1.4578 -0.9527
  821MOL0     H10830   1.622   7.572   8.062  0.8835  1.1245  2.2948
  821MOL0     H10831   1.776   7.183   8.064 -0.3754 -0.6367  1.8536
  821MOL0     H10832   1.269   7.477   7.562 -1.3145 -1.2034 -1.3428
  821MOL0     H10833   1.204   7.353   7.297  0.6531 -0.0071 -0.5142
  821MOL0     H10834   1.096   7.452   7.387  2.4473  2.0206  1.9156
  821MOL0     H10835   1.129   7.509   7.228 -1.9405  1.2885  1.1821
  822MOL0     O10836   4.494   6.421   0.635  0.0676 -0.3367 -0.2405
  822MOL0     C10837   4.429   6.512   0.583  0.0754  0.5792 -0.0856
  822MOL0     O10838   4.384   6.630   0.646 -0.2285 -0.3366  0.1520
  822MOL0     C10839   4.455   6.672   0.754 -0.1611 -0.5120  0.1950
  822MOL0     C10840   4.384   6.739   0.852 -0.5053 -0.0620  0.5764
  822MOL0     C10841   4.440   6.792   0.968 -0.3467  0.6137 -0.3631
  822MOL0     C10842   4.577   6.779   0.986  0.3306  0.9815 -0.0553
  822MOL0     O10843   4.623   6.811   1.106  0.7022 -0.0418 -0.2665
  822MOL0     C10844   4.753   6.770   1.159  0.2543 -0.4279  1.7962
  822MOL0     C10845   4.772   6.823   1.302  0.9686  0.0357 -0.8097
  822MOL0     C10846   4.912   6.807   1.343 -0.1860  0.0890 -0.1831
  822MOL0     C10847   4.930   6.836   1.496  0.0114 -0.5993  0.5186
  822MOL0     C10848   5.066   6.777   1.524  0.0152  0.1165 -0.4948
  822MOL0     C10849   5.094   6.819   1.670  0.3379  0.6050  0.9408
  822MOL0     C10850   5.234   6.763   1.709 -0.0100  0.1888 -1.1573
  822MOL0     C10851   5.227   6.766   1.860  0.3736  0.4920 -0.3419
  822MOL0     N10852   5.197   6.895   1.927 -0.5231  0.0485 -0.3150
  822MOL0     C10853   5.069   6.940   1.952 -0.2803 -0.1850  0.1252
  822MOL0     C10854   5.090   7.063   2.007  0.5281  0.1460 -0.5030
  822MOL0     C10855   4.987   7.162   2.031 -0.1270 -0.0448 -0.0523
  822MOL0     C10856   4.942   7.145   2.176  0.8383 -0.3286  0.7790
  822MOL0     C10857   4.820   7.230   2.197 -0.1877 -0.9601  0.0457
  822MOL0     C10858   4.695   7.150   2.166  0.7693 -1.1132 -0.3528
  822MOL0     O10859   4.583   7.244   2.193  0.3580  0.8384 -0.5676
  822MOL0     C10860   4.537   7.333   2.104  1.5278 -0.9625  0.7271
  822MOL0     C10861   4.567   7.339   1.965 -1.6645 -0.1771 -0.6612
  822MOL0     C10862   4.516   7.432   1.877 -0.2924  0.8117  1.6862
  822MOL0     C10863   4.436   7.533   1.932 -0.2585 -0.8963 -0.2069
  822MOL0     C10864   4.378   7.635   1.838 -0.8467 -0.1815 -0.6835
  822MOL0     O10865   4.328   7.574   1.733  0.3567  0.2614  0.4355
  822MOL0     C10866   4.280   7.632   1.615  0.7217 -0.3934 -0.1840
  822MOL0     C10867   4.199   7.560   1.528  0.8185 -0.3428 -1.0860
  822MOL0     C10868   4.157   7.618   1.410  0.1731 -0.9782 -0.7103
  822MOL0     C10869   4.194   7.751   1.383  0.4380  0.5638  0.4284
  822MOL0     O10870   4.167   7.816   1.270  0.2084 -0.5344  0.5588
  822MOL0     C10871   4.072   7.757   1.171  1.1306 -0.3267  0.4007
  822MOL0     C10872   4.036   7.851   1.064 -0.1905 -0.0273  0.4827
  822MOL0     C10873   3.922   7.944   1.090 -0.9730  0.7939 -0.1008
  822MOL0     C10874   3.872   7.997   0.956  0.0241  0.2497 -0.4241
  822MOL0     C10875   3.776   8.107   0.992  0.1303 -0.1115 -0.7849
  822MOL0     C10876   3.705   8.155   0.867  0.4364  0.0120 -0.6277
  822MOL0     C10877   3.578   8.236   0.890  0.4427 -0.6343 -0.7640
  822MOL0     C10878   3.495   8.272   0.771 -0.7499 -0.1586  0.0186
  822MOL0    Cl10879   3.591   8.378   0.652 -0.0960  0.2439 -0.2825
  822MOL0     C10880   4.284   7.819   1.473  0.2404 -0.4757 -0.9142
  822MOL0     C10881   4.326   7.759   1.584  0.2836  0.5399 -0.6048
  822MOL0     O10882   4.354   7.748   1.873 -0.0258 -0.4651 -0.1811
  822MOL0     C10883   4.417   7.545   2.069  0.1169  0.5738  0.3351
  822MOL0     C10884   4.464   7.436   2.158 -0.0325  0.0019  0.1549
  822MOL0     N10885   5.225   7.079   2.024  0.6815 -1.1197  0.3847
  822MOL0     N10886   5.282   6.982   1.974 -0.0301  0.3622 -0.6400
  822MOL0     C10887   4.652   6.710   0.883 -0.0200  0.2253 -0.7383
  822MOL0     C10888   4.594   6.673   0.759  0.7908  0.5886  0.0047
  822MOL0     C10889   4.386   6.478   0.455  0.4722 -0.5064 -0.0497
  822MOL0     C10890   4.271   6.397   0.438 -0.3571  0.4204  0.2880
  822MOL0     C10891   4.221   6.375   0.310 -0.1265 -0.1844 -0.2383
  822MOL0     C10892   4.282   6.434   0.193  0.1562 -0.1917  0.2102
  822MOL0     O10893   4.247   6.402   0.068  0.2887  0.2753  0.7342
  822MOL0     C10894   4.112   6.403   0.038  0.5680 -0.3724 -0.0298
  822MOL0     C10895   4.094   6.370  -0.104 -0.5972  0.8706  0.5989
  822MOL0     C10896   4.123   6.485  -0.197  0.5223 -0.5697  1.3105
  822MOL0     C10897   4.100   6.445  -0.347  1.2314 -0.4238 -0.5776
  822MOL0     C10898   4.132   6.546  -0.448  0.2681 -0.8830 -0.4220
  822MOL0     C10899   4.183   6.632  -0.517 -1.5245  0.0170 -0.1937
  822MOL0     C10900   4.395   6.522   0.216  0.5253  0.6402  0.1201
  822MOL0     C10901   4.451   6.539   0.345  0.5021  0.4078 -0.5835
  822MOL0     C10902   4.555   6.632   0.359  1.2287 -0.6490  0.5362
  822MOL0     H10903   4.278   6.753   0.836 -0.4359  3.0236  2.2084
  822MOL0     H10904   4.387   6.838   1.051  1.6220  1.4769  0.4591
  822MOL0     H10905   4.743   6.662   1.153 -2.5725 -0.1696 -2.8450
  822MOL0     H10906   4.837   6.800   1.095 -0.2419  0.0317  1.3541
  822MOL0     H10907   4.705   6.771   1.370 -0.4758  3.6291  0.7719
  822MOL0     H10908   4.728   6.922   1.314  0.1551 -0.3555 -0.4603
  822MOL0     H10909   4.973   6.870   1.279  0.3966 -3.3898 -3.4203
  822MOL0     H10910   4.943   6.707   1.309 -0.5702  0.0921 -0.5545
  822MOL0     H10911   4.928   6.941   1.525 -1.7847 -1.2854  3.2367
  822MOL0     H10912   4.854   6.787   1.557 -0.1097 -2.4146 -1.0000
  822MOL0     H10913   5.074   6.668   1.514  0.2474  0.2258 -1.6656
  822MOL0     H10914   5.126   6.840   1.457 -0.6577  1.0936 -0.2051
  822MOL0     H10915   5.084   6.927   1.687 -0.3463  0.5630  0.8370
  822MOL0     H10916   5.011   6.772   1.724  1.1697 -0.6169  1.1859
  822MOL0     H10917   5.307   6.841   1.684  0.0046  1.1723  1.6118
  822MOL0     H10918   5.254   6.661   1.674 -2.2347 -0.6765 -0.0693
  822MOL0     H10919   5.151   6.694   1.891 -1.1451  1.4048 -1.8137
  822MOL0     H10920   5.318   6.737   1.914 -1.7706 -1.1352  2.6676
  822MOL0     H10921   4.974   6.890   1.934 -0.1777 -0.1094 -0.6482
  822MOL0     H10922   5.031   7.259   2.004  1.8150 -1.4427 -2.2962
  822MOL0     H10923   4.904   7.135   1.965 -1.1439 -1.3765  1.7179
  822MOL0     H10924   4.919   7.039   2.191 -0.9628  0.2207  2.3168
  822MOL0     H10925   5.023   7.184   2.238  1.4626  0.2340 -0.3608
  822MOL0     H10926   4.818   7.312   2.125 -2.9964 -0.0840  0.9938
  822MOL0     H10927   4.813   7.278   2.296 -0.6884 -3.1358  1.1231
  822MOL0     H10928   4.684   7.074   2.244 -0.1547  0.7694  1.4710
  822MOL0     H10929   4.708   7.120   2.062 -0.4002  3.3777 -2.0348
  822MOL0     H10930   4.643   7.271   1.928 -1.0000 -0.6567  1.4813
  822MOL0     H10931   4.534   7.433   1.770 -0.8037 -0.5581  1.5699
  822MOL0     H10932   4.177   7.455   1.547 -3.3343  0.1374 -2.1205
  822MOL0     H10933   4.105   7.556   1.338  0.8398  1.2057 -3.2056
  822MOL0     H10934   4.129   7.677   1.124 -2.2321 -0.2232 -4.5796
  822MOL0     H10935   3.986   7.708   1.217  0.0505 -0.4508 -1.6387
  822MOL0     H10936   4.124   7.908   1.032 -1.1260  1.1317 -0.0866
  822MOL0     H10937   4.014   7.781   0.982  5.9282 -1.7969 -0.1425
  822MOL0     H10938   3.836   7.896   1.137  0.2049  0.0724  1.4008
  822MOL0     H10939   3.951   8.031   1.149 -2.9197  0.6912  1.0680
  822MOL0     H10940   3.820   7.915   0.906  1.8991 -1.0695 -0.3222
  822MOL0     H10941   3.950   8.028   0.885 -0.4982 -0.5471 -1.3743
  822MOL0     H10942   3.817   8.190   1.049  0.2186 -0.8042  0.1899
  822MOL0     H10943   3.691   8.067   1.047 -0.8935  2.4346 -0.3610
  822MOL0     H10944   3.775   8.210   0.804  3.1001 -1.0768  1.1769
  822MOL0     H10945   3.668   8.062   0.822 -1.2446 -0.0340  0.7389
  822MOL0     H10946   3.619   8.327   0.934  0.2126 -0.0239 -1.7878
  822MOL0     H10947   3.513   8.181   0.959  0.1877  0.4177 -0.1394
  822MOL0     H10948   3.452   8.192   0.710 -2.4964  0.3219  0.5515
  822MOL0     H10949   3.404   8.329   0.793 -1.4012 -0.6514 -1.2793
  822MOL0     H10950   4.318   7.921   1.466  0.0871 -0.1237  2.0504
  822MOL0     H10951   4.411   7.804   1.635 -0.2798  0.8130  0.1044
  822MOL0     H10952   4.370   7.635   2.108 -0.5646  0.4315 -0.1429
  822MOL0     H10953   4.455   7.435   2.266 -1.2617 -0.7924  0.0614
  822MOL0     H10954   4.760   6.704   0.887 -0.0237  0.6044  1.1905
  822MOL0     H10955   4.659   6.639   0.679  3.4113  3.3537  0.7535
  822MOL0     H10956   4.226   6.354   0.527  0.6828 -0.7522  0.2663
  822MOL0     H10957   4.138   6.308   0.293 -0.2300  0.3543 -2.1875
  822MOL0     H10958   4.058   6.496   0.058  1.9888  0.0108  2.4041
  822MOL0     H10959   4.058   6.326   0.094  1.5307 -2.4696 -1.8173
  822MOL0     H10960   3.990   6.337  -0.112 -1.0976  2.0174  1.9571
  822MOL0     H10961   4.166   6.290  -0.123  1.9617  2.9788  0.7786
  822MOL0     H10962   4.226   6.520  -0.180  0.6239 -0.9225  1.4286
  822MOL0     H10963   4.038   6.549  -0.173 -0.0087 -1.0270  0.6730
  822MOL0     H10964   4.169   6.363  -0.369 -2.5003 -3.7835 -0.8661
  822MOL0     H10965   4.000   6.405  -0.364 -0.1156  1.2223  2.6300
  822MOL0     H10966   4.226   6.704  -0.584 -0.3072 -0.6603 -0.1706
  822MOL0     H10967   4.440   6.564   0.127 -0.9467 -0.7872 -1.3582
  822MOL0     H10968   4.579   6.674   0.260  3.6163 -1.7986  0.5371
  822MOL0     H10969   4.518   6.708   0.428  0.1356  0.2192 -0.9588
  822MOL0     H10970   4.651   6.591   0.393  2.6245  0.2857 -1.9709
  823MOL0     O10971  10.029   6.208   7.556  0.0245  0.5949 -0.0524
  823MOL0     C10972  10.146   6.217   7.548 -0.2841  0.2887 -0.5504
  823MOL0     O10973  10.214   6.315   7.477  0.4874 -0.2878 -0.4539
  823MOL0     C10974  10.138   6.402   7.397 -0.3900 -0.4879  0.3313
  823MOL0     C10975  10.025   6.477   7.435  0.0932 -0.8965 -0.5488
  823MOL0     C10976   9.955   6.563   7.340  0.2563 -0.0699 -0.1708
  823MOL0     C10977   9.997   6.561   7.198  0.1450  0.3535 -0.5305
  823MOL0     O10978   9.923   6.613   7.099 -0.6398 -0.9924  0.9973
  823MOL0     C10979   9.823   6.700   7.146  0.5258  0.0343  0.0755
  823MOL0     C10980   9.780   6.774   7.019  0.0998 -1.1429  0.1799
  823MOL0     C10981   9.693   6.685   6.914 -1.5134 -0.1993  0.0425
  823MOL0     C10982   9.629   6.784   6.820 -1.1157 -0.0750 -0.2740
  823MOL0     C10983   9.574   6.706   6.699  0.4203 -0.5282  0.1111
  823MOL0     C10984   9.505   6.816   6.611  0.2683  0.5720  0.0098
  823MOL0     C10985   9.450   6.782   6.476 -0.1376  0.6901  1.2243
  823MOL0     C10986   9.316   6.712   6.490  1.3312  0.7458  0.6976
  823MOL0     N10987   9.201   6.797   6.471 -0.3566 -0.2718  0.1510
  823MOL0     C10988   9.177   6.928   6.512 -0.6342 -0.0869 -0.2411
  823MOL0     C10989   9.068   6.955   6.445  0.5736 -0.1707 -0.2647
  823MOL0     C10990   8.997   7.084   6.452 -0.3892 -0.1905 -0.1283
  823MOL0     C10991   9.090   7.205   6.471 -0.3008  0.3743 -0.1238
  823MOL0     C10992   8.988   7.322   6.457  0.1913 -0.7858 -0.2468
  823MOL0     C10993   9.056   7.469   6.457  0.3231 -0.3422  0.4261
  823MOL0     O10994   9.073   7.515   6.315  0.2935  0.3485  0.0397
  823MOL0     C10995   8.984   7.590   6.251 -0.0094 -0.4622  0.6040
  823MOL0     C10996   9.022   7.695   6.159 -1.2902  0.0853 -0.5121
  823MOL0     C10997   8.928   7.779   6.093  0.2124  0.3175 -0.2394
  823MOL0     C10998   8.792   7.762   6.115 -0.2235  0.4889 -0.4250
  823MOL0     C10999   8.698   7.823   6.032  0.7584 -0.8071  0.1098
  823MOL0     O11000   8.570   7.784   6.032 -1.1859  0.9033 -0.2759
  823MOL0     C11001   8.483   7.855   5.957  1.0408 -1.2493 -0.3703
  823MOL0     C11002   8.512   7.906   5.826 -0.1754  0.2921 -0.0402
  823MOL0     C11003   8.420   7.988   5.761 -0.2476  0.8826 -0.2414
  823MOL0     C11004   8.297   8.021   5.822  0.4017 -0.7413 -0.7454
  823MOL0     O11005   8.224   8.109   5.754  0.6737 -0.0939  0.5693
  823MOL0     C11006   8.080   8.117   5.789 -0.3917  0.3063 -0.6299
  823MOL0     C11007   8.057   8.228   5.885 -0.4650 -0.4434 -0.2076
  823MOL0     C11008   8.119   8.363   5.847 -0.1185  0.2372  0.5783
  823MOL0     C11009   8.100   8.400   5.692  0.7971 -0.0955 -0.0482
  823MOL0     C11010   8.130   8.552   5.673  0.7820 -0.6675  1.1628
  823MOL0     C11011   8.128   8.581   5.521 -0.0878  0.2656 -0.4194
  823MOL0     C11012   8.162   8.729   5.477  0.0645 -0.0396 -0.4095
  823MOL0     C11013   8.128   8.769   5.333  0.4267  0.1728 -0.6743
  823MOL0    Cl11014   8.128   8.947   5.304  0.3678  0.0933 -0.0392
  823MOL0     C11015   8.271   7.975   5.949 -0.9232  0.3834 -0.3605
  823MOL0     C11016   8.362   7.882   6.011  0.0615 -0.1028 -0.2285
  823MOL0     O11017   8.742   7.930   5.973 -0.0249  0.1302 -0.0367
  823MOL0     C11018   8.755   7.668   6.216  0.1910  0.5295  0.2758
  823MOL0     C11019   8.843   7.586   6.275  0.3534  0.2889 -0.3946
  823MOL0     N11020   9.016   6.843   6.381 -0.0087 -0.2606 -0.1905
  823MOL0     N11021   9.093   6.742   6.395  0.0842  0.1538 -0.8484
  823MOL0     C11022  10.121   6.496   7.174  0.4175  0.5036  0.0054
  823MOL0     C11023  10.186   6.416   7.266 -0.4319  1.1635 -0.4829
  823MOL0     C11024  10.240   6.114   7.607 -0.1670  0.5634 -0.3516
  823MOL0     C11025  10.370   6.105   7.566 -0.4966  0.2021 -0.0122
  823MOL0     C11026  10.464   6.015   7.620 -0.1844 -0.1157 -0.3609
  823MOL0     C11027  10.424   5.927   7.721 -0.5935 -0.1809  0.0177
  823MOL0     O11028  10.522   5.839   7.770 -0.9122 -0.3589 -0.0971
  823MOL0     C11029  10.497   5.786   7.902  0.4314 -0.5096  1.0408
  823MOL0     C11030  10.432   5.652   7.871  0.2088  1.0108  0.8237
  823MOL0     C11031  10.361   5.588   7.999 -0.3060 -0.1119  1.2638
  823MOL0     C11032  10.465   5.559   8.112  0.3027 -0.4065 -0.6193
  823MOL0     C11033  10.398   5.467   8.206 -0.0039  0.1324 -0.5663
  823MOL0     C11034  10.345   5.407   8.295 -0.3735 -0.3318 -0.4411
  823MOL0     C11035  10.288   5.936   7.771  0.1988 -0.0186  0.5825
  823MOL0     C11036  10.202   6.038   7.727  0.0788  0.9190  0.5321
  823MOL0     C11037  10.065   6.046   7.797 -0.3210 -0.3369  0.6920
  823MOL0     H11038   9.988   6.480   7.537 -2.8524 -1.8513 -1.4830
  823MOL0     H11039   9.869   6.619   7.374  0.2110  0.0983 -0.5688
  823MOL0     H11040   9.738   6.641   7.181 -0.9678  0.6401 -2.2744
  823MOL0     H11041   9.848   6.771   7.226 -0.1218 -0.5524  0.8166
  823MOL0     H11042   9.866   6.815   6.967  1.9178 -1.5653  2.6848
  823MOL0     H11043   9.713   6.850   7.061 -0.5354 -0.6316 -1.6437
  823MOL0     H11044   9.626   6.624   6.974  0.1981 -1.3196  0.8984
  823MOL0     H11045   9.756   6.612   6.862  0.1945 -0.3055  2.1372
  823MOL0     H11046   9.553   6.837   6.878  0.1120 -0.3454  1.6724
  823MOL0     H11047   9.696   6.862   6.783  2.0797 -3.5814 -2.6338
  823MOL0     H11048   9.647   6.655   6.636  1.1951 -1.4517  1.6846
  823MOL0     H11049   9.497   6.632   6.725 -0.0303 -0.0527  0.1352
  823MOL0     H11050   9.430   6.872   6.669 -0.1967 -1.6487  1.6817
  823MOL0     H11051   9.584   6.887   6.584  0.0697  0.4056 -1.0440
  823MOL0     H11052   9.516   6.706   6.432 -0.6138 -0.1043  1.8430
  823MOL0     H11053   9.433   6.862   6.404  0.2193  0.5584  0.9902
  823MOL0     H11054   9.299   6.622   6.431  1.0260  0.8500  0.6268
  823MOL0     H11055   9.308   6.663   6.588 -0.2895  2.0935  1.2649
  823MOL0     H11056   9.233   7.000   6.570 -0.8100  2.9473 -3.5076
  823MOL0     H11057   8.923   7.101   6.374  0.2825  2.3519 -0.2845
  823MOL0     H11058   8.932   7.074   6.540 -0.9511  0.2722 -0.4884
  823MOL0     H11059   9.136   7.196   6.570  2.8686 -0.8892 -1.5480
  823MOL0     H11060   9.163   7.206   6.389 -0.5702 -3.7863 -0.6249
  823MOL0     H11061   8.921   7.311   6.543 -2.0612  4.4787 -0.9326
  823MOL0     H11062   8.937   7.317   6.360 -0.0860  0.2560 -0.1644
  823MOL0     H11063   9.152   7.466   6.509  1.1778  3.8142 -0.5476
  823MOL0     H11064   8.982   7.539   6.495  1.6553  1.2547  0.1892
  823MOL0     H11065   9.126   7.714   6.134 -1.9531  3.2571 -1.2702
  823MOL0     H11066   8.966   7.846   6.017 -0.8472  2.5580  1.0936
  823MOL0     H11067   8.598   7.861   5.777  1.2388  1.4913  1.2488
  823MOL0     H11068   8.426   8.019   5.657  3.2460 -0.1127 -0.4584
  823MOL0     H11069   8.020   8.121   5.698  1.0576  2.4704 -1.5739
  823MOL0     H11070   8.050   8.028   5.844 -0.5173 -0.0132 -1.2005
  823MOL0     H11071   7.949   8.244   5.894 -0.1816  1.9477 -0.4412
  823MOL0     H11072   8.089   8.200   5.986 -0.5657 -0.5518 -0.2054
  823MOL0     H11073   8.084   8.442   5.915 -0.1156  1.0532 -0.3479
  823MOL0     H11074   8.226   8.349   5.863  0.0275 -1.1449 -1.2956
  823MOL0     H11075   7.995   8.385   5.666  0.6848  1.4024 -0.5282
  823MOL0     H11076   8.156   8.327   5.633 -1.9330 -1.9255 -0.5387
  823MOL0     H11077   8.229   8.579   5.711  2.3374 -0.4427 -2.6459
  823MOL0     H11078   8.059   8.617   5.725  1.8659  1.5673 -0.0357
  823MOL0     H11079   8.206   8.515   5.482  0.1211 -0.2150  0.7895
  823MOL0     H11080   8.030   8.549   5.483 -1.4042  3.3969 -0.0244
  823MOL0     H11081   8.269   8.749   5.489  0.9063 -4.4157  1.2215
  823MOL0     H11082   8.113   8.793   5.552  1.5832  2.0900 -1.1303
  823MOL0     H11083   8.195   8.709   5.270  1.5576  1.5991 -0.8848
  823MOL0     H11084   8.029   8.748   5.290 -0.2188  2.5869 -0.4955
  823MOL0     H11085   8.181   8.008   6.000 -0.2198  1.2185  0.3838
  823MOL0     H11086   8.337   7.837   6.107 -3.2165  3.9436  1.1517
  823MOL0     H11087   8.650   7.660   6.241  0.1065  1.1599  0.1476
  823MOL0     H11088   8.788   7.521   6.342 -0.1773  1.4926  0.3829
  823MOL0     H11089  10.169   6.496   7.077 -0.0065 -0.7243 -0.2225
  823MOL0     H11090  10.281   6.370   7.241 -0.4682  1.0924 -0.4923
  823MOL0     H11091  10.398   6.163   7.478 -0.8235  1.9537  0.9790
  823MOL0     H11092  10.557   5.996   7.567  0.5010 -0.9341  1.0543
  823MOL0     H11093  10.424   5.838   7.964 -0.9756 -0.3229 -0.7031
  823MOL0     H11094  10.591   5.786   7.958  1.2624 -0.3571 -0.3160
  823MOL0     H11095  10.499   5.579   7.823 -0.9818  0.4216  0.0105
  823MOL0     H11096  10.356   5.671   7.795 -1.7302 -1.9884  1.8515
  823MOL0     H11097  10.317   5.492   7.971 -2.6252  1.4974 -1.0966
  823MOL0     H11098  10.278   5.651   8.032 -0.5010  1.4278 -1.7904
  823MOL0     H11099  10.563   5.529   8.072  1.5396  1.7448  0.5591
  823MOL0     H11100  10.472   5.655   8.164  0.5098  0.9389 -2.9359
  823MOL0     H11101  10.293   5.353   8.371  3.9115 -2.2139  1.4644
  823MOL0     H11102  10.246   5.869   7.845 -0.9830  0.7501  0.6338
  823MOL0     H11103   9.989   5.997   7.734 -0.1727 -0.9474  0.9818
  823MOL0     H11104  10.059   5.987   7.889 -1.8652 -0.0688  0.7836
  823MOL0     H11105  10.037   6.151   7.811 -0.3250 -0.1861 -0.3390
  824MOL0     O11106   9.186   5.444  10.154  0.0354 -0.7647  0.5744
  824MOL0     C11107   9.254   5.456  10.254 -0.1829 -0.0332 -0.5487
  824MOL0     O11108   9.237   5.563  10.341 -0.6484 -0.1028  0.4644
  824MOL0     C11109   9.110   5.623  10.339 -0.3698 -0.7353  0.1654
  824MOL0     C11110   8.983   5.564  10.351  0.3441 -0.2053  0.1876
  824MOL0     C11111   8.871   5.648  10.357  0.2633  0.5486  0.4945
  824MOL0     C11112   8.871   5.776  10.343 -0.5734  0.1778  0.6415
  824MOL0     O11113   8.749   5.839  10.331  0.2070  0.1567 -0.3304
  824MOL0     C11114   8.743   5.980  10.341 -0.1776 -0.4918  0.2504
  824MOL0     C11115   8.748   6.051  10.199 -0.5356 -0.1262 -0.1578
  824MOL0     C11116   8.696   6.199  10.218  0.7298  0.1132  0.3519
  824MOL0     C11117   8.683   6.279  10.088 -0.7917 -0.8109  0.3150
  824MOL0     C11118   8.663   6.427  10.102  0.9355 -0.0882 -0.5264
  824MOL0     C11119   8.795   6.504  10.136  0.8932 -0.3099  0.7809
  824MOL0     C11120   8.795   6.667  10.113 -0.3108  0.5722 -0.7245
  824MOL0     C11121   8.686   6.730  10.202  1.2910 -0.6265 -0.5785
  824MOL0     N11122   8.748   6.724  10.341 -0.3925 -0.5474  0.5754
  824MOL0     C11123   8.826   6.819  10.389 -0.5485  0.1764 -0.3997
  824MOL0     C11124   8.851   6.774  10.511 -0.9219 -0.2575 -0.0468
  824MOL0     C11125   8.970   6.832  10.587 -0.3419 -0.1726 -0.1896
  824MOL0     C11126   8.948   6.828  10.744 -0.8109  0.1637  0.0392
  824MOL0     C11127   8.914   6.964  10.802  0.4978  0.2777  0.4215
  824MOL0     C11128   8.905   6.953  10.956  0.0576 -0.6677 -0.0451
  824MOL0     O11129   8.825   6.844  11.007  0.1053  0.4401  1.0359
  824MOL0     C11130   8.704   6.868  11.069  1.0320  0.7435 -0.3483
  824MOL0     C11131   8.603   6.760  11.067  0.2152  0.2527  0.3967
  824MOL0     C11132   8.468   6.786  11.128  0.2350 -0.1370 -0.3305
  824MOL0     C11133   8.443   6.906  11.195  0.3016  0.1193 -1.1161
  824MOL0     C11134   8.310   6.934  11.256  0.9526 -0.8259  0.2712
  824MOL0     O11135   8.294   7.048  11.330  0.0402  0.2130 -0.4668
  824MOL0     C11136   8.171   7.090  11.379  0.2052  0.0595  0.9427
  824MOL0     C11137   8.050   7.091  11.319 -0.4930  0.6812  0.2423
  824MOL0     C11138   7.939   7.147  11.381 -0.3148 -0.4620 -1.1586
  824MOL0     C11139   7.948   7.197  11.510 -0.0215  0.1816  0.0824
  824MOL0     O11140   7.825   7.231  11.570 -0.1638  0.7342  0.6135
  824MOL0     C11141   7.821   7.306  11.688 -0.0679 -0.5548  0.2385
  824MOL0     C11142   7.672   7.307  11.735 -1.0480 -0.1789 -0.1986
  824MOL0     C11143   7.602   7.416  11.657 -0.4854  0.0846  0.0222
  824MOL0     C11144   7.446   7.418  11.667 -0.2324 -0.1832 -0.1303
  824MOL0     C11145   7.381   7.387  11.533 -0.1607  0.0779  0.2818
  824MOL0     C11146   7.227   7.359  11.543 -1.5474  1.0093 -1.4483
  824MOL0     C11147   7.197   7.232  11.621 -0.3238  0.2602  0.0805
  824MOL0     C11148   7.051   7.219  11.633  0.5747  0.9873 -1.1721
  824MOL0    Cl11149   6.999   7.068  11.734 -0.0090  0.2271  0.1364
  824MOL0     C11150   8.059   7.185  11.585 -0.1782 -0.9669 -0.0393
  824MOL0     C11151   8.166   7.127  11.517 -0.4362  0.8243  1.4300
  824MOL0     O11152   8.218   6.852  11.237  0.1062  0.6083 -0.5077
  824MOL0     C11153   8.547   6.992  11.216 -0.7733 -0.0611  0.2012
  824MOL0     C11154   8.676   6.969  11.150  0.3331  0.7364 -1.3049
  824MOL0     N11155   8.796   6.649  10.533  0.6239 -0.4091  0.1177
  824MOL0     N11156   8.719   6.623  10.438 -0.0643 -0.3305  0.3396
  824MOL0     C11157   8.995   5.833  10.323  0.9414 -0.1768  0.6323
  824MOL0     C11158   9.111   5.761  10.329 -0.2439 -0.3497 -0.2676
  824MOL0     C11159   9.385   5.385  10.264  0.1468  1.1886 -0.3825
  824MOL0     C11160   9.485   5.451  10.332 -0.6765  0.0935  0.7968
  824MOL0     C11161   9.605   5.385  10.364 -0.2348 -0.6875  0.2363
  824MOL0     C11162   9.638   5.254  10.332  0.0640 -0.2484  0.2164
  824MOL0     O11163   9.765   5.204  10.350  1.3118 -0.0159 -0.2643
  824MOL0     C11164   9.814   5.112  10.251 -0.3229  0.4820  0.2393
  824MOL0     C11165   9.951   5.081  10.295 -0.4360  0.0635 -0.1570
  824MOL0     C11166  10.027   4.987  10.204  0.5832  0.4564 -0.5061
  824MOL0     C11167  10.046   5.045  10.061  0.4839  0.5710  0.1600
  824MOL0     C11168  10.127   5.171  10.060 -1.0992  1.3567 -0.4223
  824MOL0     C11169  10.180   5.274  10.048 -0.0005  0.2739 -0.1508
  824MOL0     C11170   9.535   5.197  10.254  0.0918 -0.1123  0.3933
  824MOL0     C11171   9.409   5.255  10.214  0.1758  0.5535 -0.2456
  824MOL0     C11172   9.312   5.156  10.156 -0.3031  0.0819  0.5451
  824MOL0     H11173   8.962   5.458  10.340  0.0133  0.0440 -1.8017
  824MOL0     H11174   8.775   5.597  10.345  0.5951  0.2131 -0.8777
  824MOL0     H11175   8.652   6.013  10.392  0.6921  1.5570  0.5739
  824MOL0     H11176   8.819   6.009  10.413  0.6136 -2.1971  0.1563
  824MOL0     H11177   8.665   6.003  10.147 -0.9983  0.3746  0.1170
  824MOL0     H11178   8.839   6.040  10.139 -0.9600 -0.5755 -0.7369
  824MOL0     H11179   8.763   6.249  10.289 -0.6590  0.9446  1.1240
  824MOL0     H11180   8.596   6.196  10.262  0.9360 -2.4492  0.7875
  824MOL0     H11181   8.776   6.273  10.031  0.1947  1.9437  1.4458
  824MOL0     H11182   8.614   6.233  10.017  1.8186 -2.2005 -1.4691
  824MOL0     H11183   8.626   6.468  10.007 -0.2714 -0.2163 -0.1329
  824MOL0     H11184   8.593   6.444  10.185  3.1111  0.4797  1.2913
  824MOL0     H11185   8.831   6.479  10.236  0.9630  2.4552  1.5259
  824MOL0     H11186   8.877   6.467  10.074 -0.8497 -0.4271 -1.5720
  824MOL0     H11187   8.764   6.698  10.013 -3.8035 -2.5602 -0.8260
  824MOL0     H11188   8.893   6.710  10.133 -0.8743  2.0970 -1.0833
  824MOL0     H11189   8.654   6.827  10.165  2.4825 -0.1182 -0.3326
  824MOL0     H11190   8.603   6.659  10.200  0.8787 -0.2140 -3.6666
  824MOL0     H11191   8.873   6.909  10.349  0.1119  1.0464  2.1804
  824MOL0     H11192   9.045   6.756  10.566  0.6160  0.0026  2.2905
  824MOL0     H11193   9.009   6.930  10.559  0.0337 -0.7296 -1.7141
  824MOL0     H11194   8.870   6.754  10.766 -0.2353 -0.1423  1.1459
  824MOL0     H11195   9.039   6.788  10.791  0.4026  0.2970 -2.0722
  824MOL0     H11196   8.819   6.997  10.758 -1.3794 -2.3003  2.2458
  824MOL0     H11197   8.993   7.036  10.780  0.3328  0.8781  1.7161
  824MOL0     H11198   8.881   7.054  10.991 -1.1373 -0.3157 -1.7724
  824MOL0     H11199   9.008   6.929  10.982  0.6753  1.7200 -0.0934
  824MOL0     H11200   8.604   6.669  11.008 -1.2978  0.9041 -0.6905
  824MOL0     H11201   8.388   6.716  11.111  0.4796  0.1592 -3.3187
  824MOL0     H11202   8.028   7.040  11.226 -2.0457  0.0891  0.8846
  824MOL0     H11203   7.837   7.157  11.344 -2.2837  1.7009  3.8901
  824MOL0     H11204   7.893   7.270  11.762 -2.3951 -1.7421  2.0566
  824MOL0     H11205   7.863   7.405  11.665 -0.3587  0.2480  2.8139
  824MOL0     H11206   7.629   7.210  11.708  1.9442 -1.9351  0.9065
  824MOL0     H11207   7.662   7.343  11.838  2.5116  2.6845 -0.6569
  824MOL0     H11208   7.638   7.512  11.693  1.6070 -1.2185  1.6735
  824MOL0     H11209   7.631   7.404  11.552  2.4273  2.8218  0.3752
  824MOL0     H11210   7.408   7.519  11.688 -0.0978 -0.1303 -0.1434
  824MOL0     H11211   7.418   7.364  11.757  0.4206  0.8564  0.7210
  824MOL0     H11212   7.420   7.291  11.500 -1.4597  0.1255 -1.5830
  824MOL0     H11213   7.410   7.461  11.457  1.9669 -1.3940 -0.4067
  824MOL0     H11214   7.181   7.433  11.608 -0.7162 -2.4249  3.6331
  824MOL0     H11215   7.183   7.356  11.443  2.5522 -0.4586 -3.4253
  824MOL0     H11216   7.237   7.243  11.722  1.4109  0.3097 -0.5848
  824MOL0     H11217   7.235   7.141  11.573 -0.8845  0.3365 -0.5256
  824MOL0     H11218   7.017   7.306  11.690  0.2498 -0.5273  1.0991
  824MOL0     H11219   6.992   7.219  11.541 -0.7369  0.7050 -0.3548
  824MOL0     H11220   8.078   7.221  11.686 -0.1174 -1.4111  0.1076
  824MOL0     H11221   8.261   7.135  11.569 -0.6395  2.7049  1.5729
  824MOL0     H11222   8.534   7.080  11.277  0.1901 -0.0575  0.4197
  824MOL0     H11223   8.760   7.037  11.162  0.5829  0.7107 -2.8080
  824MOL0     H11224   8.996   5.942  10.319 -2.1325 -0.0790  0.1423
  824MOL0     H11225   9.211   5.804  10.329 -1.1514  1.9670 -2.3293
  824MOL0     H11226   9.472   5.550  10.376 -2.1446  0.9803 -1.4505
  824MOL0     H11227   9.675   5.438  10.428 -2.3397  0.5540  1.6295
  824MOL0     H11228   9.801   5.134  10.145  3.3088  1.0736 -0.2009
  824MOL0     H11229   9.758   5.018  10.261  0.4170 -0.1097 -0.9730
  824MOL0     H11230   9.933   5.027  10.389 -1.3487 -0.7538 -0.7887
  824MOL0     H11231  10.009   5.173  10.311  0.8506 -0.6641 -0.5194
  824MOL0     H11232   9.975   4.891  10.190 -0.8162  1.1518 -0.3283
  824MOL0     H11233  10.124   4.968  10.249 -0.7407 -1.0819  1.9200
  824MOL0     H11234  10.106   4.971  10.008 -1.5280 -1.0207  0.0049
  824MOL0     H11235   9.954   5.048  10.002  0.8210 -1.3077 -0.5021
  824MOL0     H11236  10.235   5.365  10.030 -0.8229  0.7286 -0.3874
  824MOL0     H11237   9.551   5.094  10.222  1.1756 -0.4279  1.8119
  824MOL0     H11238   9.214   5.153  10.205  1.6464 -0.4730  4.9233
  824MOL0     H11239   9.297   5.180  10.050  1.1129  1.2658  0.5749
  824MOL0     H11240   9.349   5.055  10.171 -0.2969 -0.3099 -1.7350
  825MOL0     O11241   9.940   1.262   1.435 -0.1141  0.7410 -0.0127
  825MOL0     C11242   9.863   1.311   1.507 -0.0510 -0.5710 -1.0317
  825MOL0     O11243   9.791   1.424   1.485 -1.2658  0.1483 -0.2768
  825MOL0     C11244   9.839   1.517   1.397 -0.4696 -0.6762  0.0961
  825MOL0     C11245   9.850   1.648   1.452 -0.1152  0.9521 -0.4548
  825MOL0     C11246   9.890   1.759   1.381  0.3402  0.2196  0.1501
  825MOL0     C11247   9.914   1.740   1.246  0.7388 -0.2768  0.7732
  825MOL0     O11248   9.951   1.836   1.165 -0.7675 -0.4908  0.2264
  825MOL0     C11249   9.844   1.936   1.129 -0.1611  0.7227  0.3266
  825MOL0     C11250   9.860   2.058   1.226 -0.3641  0.5537  0.1073
  825MOL0     C11251  10.001   2.128   1.215  0.6472  0.4946 -0.5690
  825MOL0     C11252   9.977   2.271   1.248  0.5203  0.3856 -0.2109
  825MOL0     C11253  10.108   2.353   1.241 -0.5239  0.3382  0.3006
  825MOL0     C11254  10.087   2.502   1.262  0.6513  0.1515 -0.6079
  825MOL0     C11255  10.213   2.585   1.231 -0.1525  0.2836  0.7988
  825MOL0     C11256  10.267   2.597   1.090 -0.5086 -0.5512 -0.0872
  825MOL0     N11257  10.159   2.627   0.988 -0.2093 -0.6069 -0.1013
  825MOL0     C11258  10.075   2.530   0.945  0.3234 -0.0182  0.5288
  825MOL0     C11259   9.961   2.597   0.910 -0.8091 -0.8084  0.5187
  825MOL0     C11260   9.826   2.542   0.862 -0.1952 -0.9459  1.0281
  825MOL0     C11261   9.774   2.428   0.950 -0.1458 -0.4614  0.6065
  825MOL0     C11262   9.640   2.369   0.902  0.6729  0.3692 -1.4918
  825MOL0     C11263   9.586   2.249   0.987 -1.2069 -0.3989  0.6315
  825MOL0     O11264   9.469   2.192   0.926 -0.2986 -0.4861 -0.5764
  825MOL0     C11265   9.401   2.096   0.986 -0.7531 -0.4575  0.1965
  825MOL0     C11266   9.445   2.016   1.100  0.3045  0.4634  0.4488
  825MOL0     C11267   9.365   1.914   1.137 -1.0428  0.4011 -0.0184
  825MOL0     C11268   9.238   1.887   1.078 -0.2978  0.2080  0.6406
  825MOL0     C11269   9.165   1.772   1.123  0.1488  0.1677 -0.7170
  825MOL0     O11270   9.166   1.757   1.252 -0.1944  0.5756 -0.3807
  825MOL0     C11271   9.076   1.669   1.312  1.2835 -0.3155 -0.4663
  825MOL0     C11272   8.951   1.626   1.257 -0.2174  0.2487  1.0401
  825MOL0     C11273   8.871   1.530   1.317  0.6207 -0.9333  0.1775
  825MOL0     C11274   8.918   1.461   1.430 -0.6449 -0.8826 -0.1361
  825MOL0     O11275   8.854   1.344   1.464 -0.5993  0.1555  0.2925
  825MOL0     C11276   8.916   1.227   1.468 -0.3085  1.2744 -0.8054
  825MOL0     C11277   8.901   1.136   1.347 -0.1929 -0.5091  0.3202
  825MOL0     C11278   8.923   0.991   1.388 -0.1885  0.7487 -0.3544
  825MOL0     C11279   8.927   0.897   1.265 -0.2794 -0.9653 -0.5572
  825MOL0     C11280   8.902   0.766   1.344 -0.0519  0.6396 -0.0943
  825MOL0     C11281   8.906   0.636   1.250  0.2125 -0.1060  0.8111
  825MOL0     C11282   8.871   0.511   1.327  0.1937  0.2532 -0.2514
  825MOL0     C11283   8.897   0.395   1.231  0.2359 -0.7431  0.0340
  825MOL0    Cl11284   8.858   0.239   1.305 -0.2029  0.0256 -0.0028
  825MOL0     C11285   9.031   1.521   1.503  0.0418  0.5703  1.2959
  825MOL0     C11286   9.100   1.627   1.446 -0.3935 -0.0101  0.4748
  825MOL0     O11287   9.110   1.697   1.039 -0.8557  0.6317 -0.5652
  825MOL0     C11288   9.209   1.959   0.959  0.1808 -0.0285  1.1024
  825MOL0     C11289   9.292   2.062   0.915 -0.0020 -0.1712 -0.1296
  825MOL0     N11290   9.980   2.738   0.930 -0.7201 -0.0146  0.0315
  825MOL0     N11291  10.098   2.746   0.987  0.3673 -0.7175 -0.0907
  825MOL0     C11292   9.912   1.613   1.186 -0.3581  0.5985 -1.3195
  825MOL0     C11293   9.870   1.500   1.260 -0.6516  0.1513  0.8226
  825MOL0     C11294   9.818   1.235   1.632  0.0230  0.2637  0.7463
  825MOL0     C11295   9.686   1.254   1.684  0.1553 -0.1091 -0.4564
  825MOL0     C11296   9.642   1.173   1.789  0.6240 -0.2468  0.8743
  825MOL0     C11297   9.706   1.057   1.818  0.1230 -1.2969 -1.0357
  825MOL0     O11298   9.649   0.969   1.904 -0.4594 -1.0867  0.4062
  825MOL0     C11299   9.576   0.874   1.823  0.8266  0.2803  0.5130
  825MOL0     C11300   9.509   0.772   1.922 -0.2371  0.3055 -0.5614
  825MOL0     C11301   9.418   0.673   1.853 -0.0098  0.0422  1.1332
  825MOL0     C11302   9.326   0.607   1.953  1.1659 -0.7945 -0.4794
  825MOL0     C11303   9.286   0.485   1.896  0.2488 -0.5630  1.0922
  825MOL0     C11304   9.257   0.379   1.834 -0.4565 -0.3949  0.5828
  825MOL0     C11305   9.829   1.037   1.777 -0.6101 -0.2140 -0.1570
  825MOL0     C11306   9.887   1.119   1.679 -0.0636  0.6439  0.0984
  825MOL0     C11307  10.030   1.085   1.642 -0.5593  0.0802 -0.2269
  825MOL0     H11308   9.821   1.654   1.556  1.4356  4.2465 -0.1023
  825MOL0     H11309   9.888   1.858   1.425  0.1207  0.5392 -0.5759
  825MOL0     H11310   9.855   1.976   1.027 -3.2457  1.0650  0.0175
  825MOL0     H11311   9.744   1.897   1.151 -0.8287  0.1021 -3.1234
  825MOL0     H11312   9.840   2.023   1.328  2.4916 -0.3743  0.4271
  825MOL0     H11313   9.778   2.130   1.215 -2.3635 -1.3030  1.7180
  825MOL0     H11314  10.039   2.111   1.114 -1.3977 -3.6629 -0.8314
  825MOL0     H11315  10.072   2.081   1.284 -0.8117 -1.0844 -0.0852
  825MOL0     H11316   9.903   2.307   1.176 -0.1562 -1.8525 -0.7067
  825MOL0     H11317   9.939   2.281   1.351 -1.5197  1.7832 -1.0240
  825MOL0     H11318  10.176   2.312   1.316  0.1915 -1.1628 -1.1124
  825MOL0     H11319  10.157   2.345   1.144 -0.3151 -0.7362  0.4800
  825MOL0     H11320  10.001   2.527   1.199  0.1680 -1.9785 -0.8530
  825MOL0     H11321  10.050   2.512   1.364  3.0210 -1.5797  0.5199
  825MOL0     H11322  10.294   2.571   1.304 -0.5422 -0.1547  1.1497
  825MOL0     H11323  10.184   2.688   1.253  0.5507  0.4760  0.8649
  825MOL0     H11324  10.338   2.681   1.091 -2.0956  0.8524 -0.1614
  825MOL0     H11325  10.327   2.511   1.061 -0.7110  0.3376 -3.5358
  825MOL0     H11326  10.091   2.424   0.933 -0.6751 -0.3340  1.7656
  825MOL0     H11327   9.754   2.624   0.863  2.5395  1.6483  0.4489
  825MOL0     H11328   9.844   2.514   0.758 -2.1565 -1.6367  0.8380
  825MOL0     H11329   9.856   2.357   0.967  1.1335  1.1795  1.5135
  825MOL0     H11330   9.759   2.475   1.048  0.2153 -0.5166  0.6896
  825MOL0     H11331   9.648   2.338   0.797 -2.0114  1.4751 -2.1115
  825MOL0     H11332   9.567   2.450   0.898  0.0531 -0.0003  0.8812
  825MOL0     H11333   9.568   2.277   1.091 -2.0545 -0.8832  0.6232
  825MOL0     H11334   9.669   2.178   0.988 -0.4564  0.4589  0.6100
  825MOL0     H11335   9.542   2.029   1.147  0.1109 -1.6466  1.5602
  825MOL0     H11336   9.390   1.835   1.207 -1.1881 -0.5996 -1.0581
  825MOL0     H11337   8.904   1.661   1.166 -1.3460 -2.0446  0.6897
  825MOL0     H11338   8.778   1.499   1.271  0.1682  0.4056  0.1481
  825MOL0     H11339   9.025   1.234   1.477 -0.2885  0.0875  0.1556
  825MOL0     H11340   8.863   1.186   1.554 -3.7764  2.6662 -2.1123
  825MOL0     H11341   8.809   1.148   1.288  0.8525  1.6061 -1.0056
  825MOL0     H11342   8.978   1.176   1.280  1.1090 -3.0047  0.2066
  825MOL0     H11343   9.014   0.981   1.448 -0.9147 -1.0208  0.5358
  825MOL0     H11344   8.840   0.964   1.455 -0.2304 -0.3366 -0.8166
  825MOL0     H11345   9.030   0.890   1.227  0.5136 -0.7876  1.4199
  825MOL0     H11346   8.860   0.934   1.188  0.4934 -1.3328 -1.4257
  825MOL0     H11347   8.802   0.758   1.388 -0.2705  3.1921  0.0023
  825MOL0     H11348   8.980   0.755   1.421 -1.4612  2.1198  1.6225
  825MOL0     H11349   8.834   0.655   1.170  2.6529  4.2311 -0.7566
  825MOL0     H11350   8.997   0.619   1.192 -0.9278  0.5701 -1.2876
  825MOL0     H11351   8.766   0.517   1.358 -0.2573  0.8438 -1.7849
  825MOL0     H11352   8.943   0.494   1.407 -1.4689 -1.6859  0.9168
  825MOL0     H11353   8.842   0.402   1.137  1.7771 -0.4228 -0.8638
  825MOL0     H11354   9.002   0.390   1.201  0.2871  0.0576  0.0543
  825MOL0     H11355   9.056   1.491   1.604  0.8026  2.3614  1.6832
  825MOL0     H11356   9.186   1.668   1.497  0.1521  0.4394 -0.7762
  825MOL0     H11357   9.121   1.930   0.903  1.0976 -1.7693  0.4836
  825MOL0     H11358   9.265   2.135   0.839 -0.6431  1.5158  1.6306
  825MOL0     H11359   9.930   1.615   1.079  2.2236 -1.2565 -0.9997
  825MOL0     H11360   9.868   1.407   1.204 -1.8057  0.8237 -0.3109
  825MOL0     H11361   9.617   1.332   1.653  0.0848 -0.8816 -2.3771
  825MOL0     H11362   9.550   1.188   1.844  0.6873  2.8245  0.2888
  825MOL0     H11363   9.648   0.813   1.769 -2.5164 -3.0402 -0.6556
  825MOL0     H11364   9.506   0.919   1.751 -2.7039 -4.7654  0.2387
  825MOL0     H11365   9.451   0.825   1.998 -1.1747  1.4038 -1.9937
  825MOL0     H11366   9.589   0.719   1.974  4.3161  5.9360 -0.8352
  825MOL0     H11367   9.463   0.602   1.783 -2.1828 -0.8761  0.5620
  825MOL0     H11368   9.361   0.739   1.788  0.7011  1.6386  2.0834
  825MOL0     H11369   9.369   0.584   2.051 -0.4714 -0.8762  0.2525
  825MOL0     H11370   9.239   0.668   1.980  0.3982 -2.9982  2.5674
  825MOL0     H11371   9.259   0.280   1.794  4.0310 -1.3401  2.5963
  825MOL0     H11372   9.869   0.944   1.816 -1.2675  0.0072  1.1140
  825MOL0     H11373  10.073   1.020   1.718 -2.3838  0.0003  0.8114
  825MOL0     H11374  10.029   1.043   1.541 -0.9187 -1.1595  0.2760
  825MOL0     H11375  10.091   1.176   1.643  2.4404 -1.7917 -0.0053
  826MOL0     O11376   4.001   2.883   4.482  0.2170  0.2238  0.8024
  826MOL0     C11377   4.108   2.871   4.541  0.4466 -0.4353  0.4448
  826MOL0     O11378   4.215   2.946   4.522 -1.0516 -0.8220 -0.2002
  826MOL0     C11379   4.189   3.073   4.471  0.1401 -0.3810 -0.2305
  826MOL0     C11380   4.178   3.082   4.332 -0.5869  0.1645  0.0990
  826MOL0     C11381   4.168   3.211   4.280 -0.1272  0.1384 -0.2579
  826MOL0     C11382   4.155   3.332   4.355 -0.0521  0.1242 -0.1439
  826MOL0     O11383   4.165   3.455   4.295  0.3536 -0.3850 -0.0987
  826MOL0     C11384   4.077   3.560   4.331 -0.3556  0.3730  0.2673
  826MOL0     C11385   4.138   3.697   4.281  0.5290  0.2875 -0.4339
  826MOL0     C11386   4.135   3.716   4.136  0.5960  0.1162  0.0506
  826MOL0     C11387   4.201   3.844   4.073  0.7446  0.1919  0.3448
  826MOL0     C11388   4.155   3.983   4.136 -0.4083  0.0079 -0.3380
  826MOL0     C11389   4.107   4.071   4.025 -0.5011  0.3543  0.2591
  826MOL0     C11390   4.097   4.208   4.071 -0.4051  0.5742  0.0537
  826MOL0     C11391   4.018   4.292   3.973 -0.2032 -0.2200 -0.1625
  826MOL0     N11392   3.867   4.272   3.969 -0.4467  0.6676 -0.1999
  826MOL0     C11393   3.779   4.289   4.080  0.1820 -0.0635 -0.5855
  826MOL0     C11394   3.661   4.257   4.038  0.5761 -0.1421  1.0359
  826MOL0     C11395   3.536   4.263   4.115  0.0335 -0.0712  0.1436
  826MOL0     C11396   3.445   4.376   4.071 -0.7636 -0.6338 -0.7204
  826MOL0     C11397   3.336   4.419   4.163 -0.7061 -0.2389 -0.2462
  826MOL0     C11398   3.369   4.559   4.220 -0.4115 -0.1808  0.5935
  826MOL0     O11399   3.305   4.558   4.351  0.4236  0.1038  0.1058
  826MOL0     C11400   3.338   4.665   4.429  0.5857 -0.1453  0.0527
  826MOL0     C11401   3.474   4.714   4.444  0.3421 -0.3713  0.2111
  826MOL0     C11402   3.494   4.823   4.533  0.6383 -0.6221  0.7424
  826MOL0     C11403   3.389   4.874   4.616 -0.0905  0.3111  0.4742
  826MOL0     C11404   3.422   4.978   4.718 -0.5091 -0.0370 -0.0064
  826MOL0     O11405   3.321   5.012   4.801 -0.5566 -0.1865 -0.2499
  826MOL0     C11406   3.347   5.068   4.927  1.3726 -0.1187  0.6847
  826MOL0     C11407   3.449   5.049   5.010  0.0153 -0.4542  1.2281
  826MOL0     C11408   3.456   5.106   5.136 -1.0032 -0.1387 -0.7275
  826MOL0     C11409   3.350   5.181   5.191 -0.3780 -0.1604  0.0646
  826MOL0     O11410   3.359   5.229   5.323 -0.1673 -0.2252 -0.4671
  826MOL0     C11411   3.240   5.207   5.406  0.0379  0.3507  0.0497
  826MOL0     C11412   3.216   5.336   5.485 -0.7305 -0.0964  0.4874
  826MOL0     C11413   3.150   5.312   5.622 -0.4310  1.1138 -0.0346
  826MOL0     C11414   3.204   5.410   5.732  0.6139 -0.1813 -0.1032
  826MOL0     C11415   3.111   5.539   5.740 -0.4146  0.0412  0.1396
  826MOL0     C11416   3.146   5.636   5.861  1.0687 -0.3946  0.4105
  826MOL0     C11417   3.126   5.784   5.829 -0.6055  0.4265 -0.2138
  826MOL0     C11418   3.153   5.863   5.961 -0.3931  1.0991 -0.0667
  826MOL0    Cl11419   3.160   6.042   5.922  0.1393 -0.6226 -0.0545
  826MOL0     C11420   3.242   5.197   5.105 -0.2082  0.3393  0.1876
  826MOL0     C11421   3.244   5.142   4.974  0.0299 -1.3503  0.3362
  826MOL0     O11422   3.537   5.021   4.725 -0.4351  0.0654 -0.8036
  826MOL0     C11423   3.266   4.829   4.589 -0.2923 -1.2018 -0.3958
  826MOL0     C11424   3.245   4.737   4.489  0.3299  0.4219 -0.1088
  826MOL0     N11425   3.669   4.212   3.905 -0.0934  0.4941 -0.5206
  826MOL0     N11426   3.792   4.231   3.866 -0.6562 -0.3531  0.6083
  826MOL0     C11427   4.166   3.315   4.502 -0.1643 -0.5331  0.3221
  826MOL0     C11428   4.181   3.181   4.561 -0.4888  0.4421  0.0543
  826MOL0     C11429   4.116   2.753   4.638  0.4780  0.1405  0.0165
  826MOL0     C11430   4.196   2.764   4.754 -0.0234 -1.1919  0.8943
  826MOL0     C11431   4.227   2.658   4.833 -0.0710 -0.7471 -0.3051
  826MOL0     C11432   4.173   2.536   4.818 -0.2995 -0.6743 -0.3100
  826MOL0     O11433   4.204   2.431   4.896 -0.2286  0.5282  0.4613
  826MOL0     C11434   4.345   2.394   4.889  0.0872  0.3021 -1.3837
  826MOL0     C11435   4.418   2.419   5.017  0.5302 -0.4659 -0.2847
  826MOL0     C11436   4.346   2.337   5.123 -0.1523  0.3469  0.1351
  826MOL0     C11437   4.331   2.193   5.093 -0.0650  0.0799 -0.2462
  826MOL0     C11438   4.348   2.108   5.217  0.1929 -0.2969 -0.7462
  826MOL0     C11439   4.368   2.038   5.312 -0.1154  0.7143  0.5786
  826MOL0     C11440   4.098   2.525   4.709  0.2548  0.0192  0.4693
  826MOL0     C11441   4.069   2.624   4.609  0.1152 -0.4208 -1.0329
  826MOL0     C11442   3.993   2.585   4.483  0.4865 -0.0470 -0.4687
  826MOL0     H11443   4.204   3.002   4.264  0.0834  0.5158 -0.0766
  826MOL0     H11444   4.159   3.229   4.174 -2.8474  1.0872  0.0626
  826MOL0     H11445   3.990   3.550   4.266 -0.7000 -1.7054  0.9886
  826MOL0     H11446   4.038   3.550   4.433 -0.4582 -4.0603 -0.0493
  826MOL0     H11447   4.242   3.689   4.313 -0.0690 -0.7313  1.3822
  826MOL0     H11448   4.086   3.782   4.325  0.4991  0.1865 -0.2719
  826MOL0     H11449   4.033   3.709   4.098  0.1377  1.0200  1.0432
  826MOL0     H11450   4.181   3.628   4.091 -0.7879  0.5041 -2.2508
  826MOL0     H11451   4.307   3.818   4.070  0.2764 -1.9752  0.5231
  826MOL0     H11452   4.177   3.851   3.967 -3.1456 -1.4418  0.9586
  826MOL0     H11453   4.073   3.968   4.207 -0.5588 -2.6966 -0.9478
  826MOL0     H11454   4.238   4.024   4.195  0.3033 -0.7377 -0.7961
  826MOL0     H11455   4.193   4.079   3.957 -0.3444  2.0647  0.6174
  826MOL0     H11456   4.013   4.034   3.984  0.2045 -0.9947 -0.1976
  826MOL0     H11457   4.199   4.248   4.074  1.2646 -3.0482  4.5413
  826MOL0     H11458   4.046   4.205   4.167  0.7076  0.5125  0.6641
  826MOL0     H11459   4.039   4.394   4.007  0.0398 -1.0163  2.2589
  826MOL0     H11460   4.067   4.285   3.875  2.5778 -2.9458  1.2811
  826MOL0     H11461   3.802   4.324   4.180 -1.0884  0.5152 -0.4816
  826MOL0     H11462   3.492   4.163   4.110 -0.9045  0.3355 -0.0509
  826MOL0     H11463   3.558   4.276   4.221  0.7908 -1.8904  0.2403
  826MOL0     H11464   3.515   4.458   4.054  0.5282 -1.6650 -0.5027
  826MOL0     H11465   3.399   4.350   3.975 -0.7975 -2.5348 -0.2426
  826MOL0     H11466   3.327   4.349   4.247 -0.7194  1.2031  0.9907
  826MOL0     H11467   3.238   4.428   4.114 -2.5010  1.7077  3.3344
  826MOL0     H11468   3.330   4.649   4.171  1.5507  1.0325  1.1465
  826MOL0     H11469   3.477   4.572   4.230  0.1930 -3.8701  0.4066
  826MOL0     H11470   3.553   4.663   4.390 -0.1968 -1.7763  0.6847
  826MOL0     H11471   3.592   4.868   4.547  0.4921 -0.0457 -0.0622
  826MOL0     H11472   3.522   4.974   4.983 -0.8138 -1.1183  0.7758
  826MOL0     H11473   3.539   5.090   5.204  0.2289 -1.7994 -2.4797
  826MOL0     H11474   3.157   5.170   5.346  0.1293  1.3252 -0.7073
  826MOL0     H11475   3.244   5.121   5.473  0.6213  1.2189  1.1506
  826MOL0     H11476   3.306   5.398   5.485 -0.0218 -1.0985 -0.6904
  826MOL0     H11477   3.149   5.403   5.430  0.5420  0.2548 -0.6893
  826MOL0     H11478   3.043   5.302   5.598 -0.0766 -2.6830 -0.6845
  826MOL0     H11479   3.186   5.216   5.659  0.0965  2.4209  3.1710
  826MOL0     H11480   3.308   5.438   5.712  2.1880 -3.8780  2.0127
  826MOL0     H11481   3.212   5.360   5.828  0.2694 -2.0734 -1.0117
  826MOL0     H11482   3.006   5.510   5.746 -0.2919 -0.7614 -1.1214
  826MOL0     H11483   3.130   5.585   5.643 -0.3724 -1.9695 -0.8719
  826MOL0     H11484   3.091   5.608   5.951 -2.8252 -0.7572 -1.8422
  826MOL0     H11485   3.252   5.629   5.885  1.5450  0.6504 -1.2308
  826MOL0     H11486   3.019   5.793   5.806 -1.6620 -3.3995  2.1875
  826MOL0     H11487   3.182   5.813   5.740  0.2457  0.6993  0.3950
  826MOL0     H11488   3.078   5.842   6.038  1.7914  1.3172  2.2358
  826MOL0     H11489   3.243   5.815   6.001 -0.0358 -0.6524 -2.6959
  826MOL0     H11490   3.158   5.258   5.137  2.8005  2.9497  3.9869
  826MOL0     H11491   3.152   5.143   4.916  1.0782  1.3770 -1.4423
  826MOL0     H11492   3.178   4.875   4.633  2.8215  3.3908  1.8616
  826MOL0     H11493   3.143   4.701   4.487 -0.2150  1.0192  5.0140
  826MOL0     H11494   4.169   3.409   4.555  1.2020 -0.1509 -0.3982
  826MOL0     H11495   4.183   3.172   4.670 -1.4987  1.6360  0.1905
  826MOL0     H11496   4.232   2.860   4.788 -1.1185 -0.3274 -0.3388
  826MOL0     H11497   4.295   2.671   4.917 -0.5958 -3.3007  0.6033
  826MOL0     H11498   4.398   2.456   4.817  0.5536  1.1966 -0.2995
  826MOL0     H11499   4.351   2.290   4.854 -0.6050  0.3687 -1.7111
  826MOL0     H11500   4.412   2.522   5.054 -1.0675 -0.4100 -0.6230
  826MOL0     H11501   4.525   2.399   5.003  0.9303  0.5902  1.0004
  826MOL0     H11502   4.243   2.375   5.126 -1.5924 -2.5881 -3.6130
  826MOL0     H11503   4.393   2.348   5.221 -1.1785  3.2572  0.4243
  826MOL0     H11504   4.229   2.175   5.057  0.3062  1.3682 -2.0659
  826MOL0     H11505   4.399   2.158   5.016  1.3068 -0.2088  1.0518
  826MOL0     H11506   4.379   1.971   5.396 -0.8439 -1.3174 -0.8672
  826MOL0     H11507   4.043   2.431   4.702 -3.0292  1.5379  2.9145
  826MOL0     H11508   3.892   2.626   4.482  0.4713  0.0367  1.4057
  826MOL0     H11509   4.054   2.622   4.399  1.0506  1.6897  0.6411
  826MOL0     H11510   3.976   2.477   4.484  1.2561 -0.1756 -0.2583
  827MOL0     O11511   8.077  10.595   5.154 -0.2786  0.5365 -0.2599
  827MOL0     C11512   7.984  10.648   5.213  0.7379 -0.1029  0.4057
  827MOL0     O11513   7.877  10.584   5.258  0.7221  0.7552 -0.5007
  827MOL0     C11514   7.887  10.446   5.251 -0.0861 -0.0162 -0.7839
  827MOL0     C11515   7.941  10.385   5.367 -0.1791 -0.5738 -0.1264
  827MOL0     C11516   7.939  10.246   5.377  0.6790  0.4275 -0.3156
  827MOL0     C11517   7.880  10.175   5.275  0.1549 -0.5131  0.4041
  827MOL0     O11518   7.883  10.034   5.259  0.4739  0.4013  0.2392
  827MOL0     C11519   7.878   9.943   5.369 -0.3452 -0.1847  0.2642
  827MOL0     C11520   7.908   9.801   5.314 -0.7239 -0.2475 -0.0544
  827MOL0     C11521   7.777   9.752   5.250 -0.1568 -1.0857 -0.7230
  827MOL0     C11522   7.800   9.619   5.169  1.2132 -0.2318  0.4270
  827MOL0     C11523   7.857   9.644   5.020 -0.6877 -0.6131 -0.1293
  827MOL0     C11524   7.896   9.512   4.953  0.3489 -0.1008 -1.1780
  827MOL0     C11525   7.941   9.548   4.814  0.3218 -0.2812  0.6571
  827MOL0     C11526   7.828   9.547   4.714  0.0019  1.3061 -0.2399
  827MOL0     N11527   7.839   9.438   4.612 -0.7327  0.3880 -0.2650
  827MOL0     C11528   7.831   9.303   4.650  0.4869 -0.0900  0.5204
  827MOL0     C11529   7.831   9.239   4.531 -1.0097 -0.1726  0.0356
  827MOL0     C11530   7.795   9.101   4.514 -0.5023  0.7309  0.0748
  827MOL0     C11531   7.897   9.019   4.426  0.1626  0.2589 -0.1928
  827MOL0     C11532   7.991   8.942   4.513 -0.3925  1.1278 -0.1298
  827MOL0     C11533   7.933   8.843   4.617  0.0481  0.8608 -0.0816
  827MOL0     O11534   8.021   8.733   4.651 -0.2009  0.0666 -0.0124
  827MOL0     C11535   7.985   8.662   4.763 -0.3802 -0.1817 -0.6102
  827MOL0     C11536   7.865   8.601   4.783  0.3107 -0.9444  0.1493
  827MOL0     C11537   7.834   8.544   4.903 -0.4425  0.2319 -0.6751
  827MOL0     C11538   7.928   8.534   5.003 -0.3574 -1.3262 -0.3452
  827MOL0     C11539   7.886   8.462   5.130  0.1165 -0.3348  0.8268
  827MOL0     O11540   7.757   8.404   5.129  0.0669  0.1917 -0.1740
  827MOL0     C11541   7.710   8.333   5.241 -0.3457 -0.3732 -0.3094
  827MOL0     C11542   7.785   8.243   5.326 -0.7537 -0.7611 -0.3014
  827MOL0     C11543   7.724   8.183   5.432 -0.0870 -0.2044  0.2432
  827MOL0     C11544   7.587   8.193   5.452 -0.1309 -0.5083 -0.3840
  827MOL0     O11545   7.524   8.128   5.556 -0.1424  0.9105  0.2401
  827MOL0     C11546   7.606   8.044   5.653  0.1644 -0.2188 -0.6466
  827MOL0     C11547   7.508   8.002   5.759  0.9700 -0.1717 -0.0492
  827MOL0     C11548   7.557   7.887   5.852 -1.1126  0.6414 -0.7291
  827MOL0     C11549   7.488   7.892   5.994 -0.5598  0.6706 -0.2758
  827MOL0     C11550   7.521   7.773   6.079  0.2548  0.5634  0.0433
  827MOL0     C11551   7.434   7.773   6.203 -0.0921 -0.4160  0.8227
  827MOL0     C11552   7.451   7.651   6.289  0.4802 -0.3019 -0.7058
  827MOL0     C11553   7.378   7.664   6.419 -0.3120  0.1881 -0.1050
  827MOL0    Cl11554   7.200   7.674   6.385 -0.3537  0.2396 -0.2586
  827MOL0     C11555   7.511   8.287   5.374 -0.8320  0.0118  0.0228
  827MOL0     C11556   7.571   8.353   5.271 -1.0758  0.0894  0.3227
  827MOL0     O11557   7.965   8.452   5.229 -0.3301  1.2659  0.2806
  827MOL0     C11558   8.057   8.588   4.987  0.1398 -0.5454 -0.1397
  827MOL0     C11559   8.087   8.649   4.861  0.6095  1.2335  0.3671
  827MOL0     N11560   7.865   9.327   4.428  0.5261 -0.0210 -0.2910
  827MOL0     N11561   7.869   9.449   4.474 -0.7784 -0.5342 -0.3371
  827MOL0     C11562   7.813  10.237   5.169  0.9609 -1.0314  0.6142
  827MOL0     C11563   7.809  10.376   5.158 -0.1315  0.4912 -0.3096
  827MOL0     C11564   7.968  10.794   5.211 -0.5109 -0.2597 -0.1872
  827MOL0     C11565   7.869  10.844   5.295  0.6062 -1.1440  0.0227
  827MOL0     C11566   7.865  10.983   5.316 -0.0855  1.0112 -0.7493
  827MOL0     C11567   7.944  11.066   5.237  0.0256  0.8610 -0.0155
  827MOL0     O11568   7.928  11.198   5.248 -0.1203  0.0020  0.1196
  827MOL0     C11569   8.019  11.269   5.327 -0.3150  0.3720  0.0941
  827MOL0     C11570   8.138  11.315   5.245 -1.1236 -1.2480  0.4283
  827MOL0     C11571   8.147  11.470   5.268 -0.8314 -0.0362  0.4322
  827MOL0     C11572   8.284  11.523   5.231 -0.7284  0.6344 -0.2871
  827MOL0     C11573   8.316  11.518   5.090  0.5492  0.0636 -0.7310
  827MOL0     C11574   8.353  11.488   4.983 -0.2588  1.0113  0.1927
  827MOL0     C11575   8.035  11.010   5.148  0.1397 -0.1241 -0.1417
  827MOL0     C11576   8.052  10.874   5.131 -0.6840 -0.2527 -0.7400
  827MOL0     C11577   8.160  10.834   5.031 -0.3685  0.0598 -0.4053
  827MOL0     H11578   7.987  10.428   5.455  2.1629 -0.3416 -1.3967
  827MOL0     H11579   7.984  10.192   5.461 -0.6659  1.8183  1.3759
  827MOL0     H11580   7.949   9.970   5.447 -0.1554  3.0408 -0.8572
  827MOL0     H11581   7.780   9.959   5.415 -0.2106  3.0504 -0.3255
  827MOL0     H11582   7.937   9.738   5.398 -1.8230  0.4147  0.8456
  827MOL0     H11583   7.989   9.805   5.241  0.4404  0.4559  1.2560
  827MOL0     H11584   7.744   9.825   5.175  6.5198  2.1979 -1.1995
  827MOL0     H11585   7.712   9.737   5.337  2.8164  0.5445  1.9689
  827MOL0     H11586   7.856   9.539   5.218  0.5776 -3.2015 -3.1770
  827MOL0     H11587   7.695   9.589   5.158  0.0173  2.8467  2.3298
  827MOL0     H11588   7.773   9.700   4.976 -0.8555  2.0396  3.1928
  827MOL0     H11589   7.943   9.711   5.018 -0.3542 -1.0344 -0.1533
  827MOL0     H11590   7.970   9.464   5.017  2.1703  4.4468  0.5612
  827MOL0     H11591   7.809   9.446   4.947  1.6060 -1.8265 -1.0790
  827MOL0     H11592   8.013   9.474   4.777 -0.3366  0.3097 -2.0435
  827MOL0     H11593   8.002   9.639   4.815  0.7804 -0.5860  0.6886
  827MOL0     H11594   7.729   9.541   4.759  0.1362 -0.4172 -0.0877
  827MOL0     H11595   7.821   9.636   4.650 -0.9586  1.3968 -0.0296
  827MOL0     H11596   7.821   9.258   4.749  2.8285  0.6323  1.1413
  827MOL0     H11597   7.778   9.041   4.604  2.3130 -2.2804 -1.2155
  827MOL0     H11598   7.700   9.097   4.460  1.3236 -3.0446 -3.3677
  827MOL0     H11599   7.837   8.954   4.361  0.7596 -0.8275  0.3247
  827MOL0     H11600   7.957   9.086   4.364 -0.4309  1.4237  0.4555
  827MOL0     H11601   8.031   9.021   4.577  1.7038 -0.9152  1.2469
  827MOL0     H11602   8.071   8.904   4.450 -0.3875  1.3735 -0.2736
  827MOL0     H11603   7.838   8.801   4.583 -1.3163  1.7358  2.3572
  827MOL0     H11604   7.926   8.900   4.710  2.1940 -0.3714  0.9076
  827MOL0     H11605   7.803   8.595   4.694 -3.0586 -0.1248  2.3031
  827MOL0     H11606   7.737   8.497   4.917 -0.6432  0.4671 -1.2551
  827MOL0     H11607   7.890   8.241   5.297 -0.9168 -1.5842 -0.8638
  827MOL0     H11608   7.783   8.100   5.469 -1.2916 -0.4569  1.7210
  827MOL0     H11609   7.641   7.952   5.606  2.4525 -0.1531  0.8150
  827MOL0     H11610   7.688   8.099   5.700  1.3518 -1.1771 -1.5359
  827MOL0     H11611   7.481   8.085   5.826 -2.2435  0.1617 -1.5417
  827MOL0     H11612   7.410   7.972   5.720 -2.7298  1.4748  6.4350
  827MOL0     H11613   7.524   7.800   5.794 -2.0457  1.4278 -1.4121
  827MOL0     H11614   7.666   7.888   5.863 -1.0022  1.0718 -1.7032
  827MOL0     H11615   7.383   7.909   5.971 -0.1242 -0.3791 -3.5542
  827MOL0     H11616   7.522   7.984   6.043  1.6620  0.6734 -1.6814
  827MOL0     H11617   7.629   7.773   6.100  0.5222 -1.6394 -1.1016
  827MOL0     H11618   7.504   7.675   6.033  0.7964 -0.7289  2.4463
  827MOL0     H11619   7.473   7.856   6.262  0.6340 -0.1604  0.0026
  827MOL0     H11620   7.332   7.793   6.169 -0.3469 -2.0517  0.5595
  827MOL0     H11621   7.556   7.643   6.318  0.2410  0.4830  0.4693
  827MOL0     H11622   7.418   7.556   6.247  2.3201 -1.1739 -0.2965
  827MOL0     H11623   7.403   7.580   6.484  1.8725  0.0333 -1.0655
  827MOL0     H11624   7.418   7.751   6.473 -0.1372  1.4040 -2.0870
  827MOL0     H11625   7.409   8.301   5.405 -0.7727  0.2131  0.1280
  827MOL0     H11626   7.500   8.414   5.216 -2.2490 -1.6149 -0.1386
  827MOL0     H11627   8.122   8.581   5.073 -1.8892  2.1634  1.7761
  827MOL0     H11628   8.181   8.703   4.845  0.1224  1.9394 -0.2192
  827MOL0     H11629   7.774  10.174   5.089 -0.6670  2.1247 -1.2785
  827MOL0     H11630   7.741  10.428   5.091 -3.0803 -1.5072  0.9266
  827MOL0     H11631   7.798  10.782   5.350  0.0264  0.9576  1.7813
  827MOL0     H11632   7.797  11.022   5.391  0.1864  2.5494 -1.2632
  827MOL0     H11633   8.060  11.217   5.415  6.6042  3.1197 -0.8550
  827MOL0     H11634   7.966  11.357   5.363 -0.1319  0.6020 -0.1962
  827MOL0     H11635   8.133  11.286   5.139  0.5822 -1.0545  0.2769
  827MOL0     H11636   8.229  11.267   5.281 -1.2721 -2.9704 -1.3373
  827MOL0     H11637   8.133  11.484   5.375  3.3501  1.0720  0.9873
  827MOL0     H11638   8.063  11.526   5.226 -0.1162  1.1452  0.5307
  827MOL0     H11639   8.288  11.627   5.264 -1.0728  0.0414  1.7746
  827MOL0     H11640   8.362  11.478   5.292 -0.5317  2.2658  0.7254
  827MOL0     H11641   8.389  11.464   4.885  0.4325 -0.2034  0.7217
  827MOL0     H11642   8.088  11.089   5.095 -0.1477 -0.5958 -1.1539
  827MOL0     H11643   8.199  10.914   4.966 -0.5215 -0.9967 -1.8283
  827MOL0     H11644   8.245  10.794   5.087 -0.3099 -0.6756 -1.0144
  827MOL0     H11645   8.126  10.758   4.960  0.4674 -0.5873 -0.1277
  828MOL0     O11646   6.407   9.951   1.899  0.2846 -0.4058  0.2777
  828MOL0     C11647   6.467  10.007   1.989  0.1676  0.0643 -0.0489
  828MOL0     O11648   6.479   9.961   2.119  0.1625 -0.1453  0.3031
  828MOL0     C11649   6.437   9.838   2.164  1.0135  0.2861 -0.0252
  828MOL0     C11650   6.493   9.788   2.291  0.1695 -0.5532  0.7031
  828MOL0     C11651   6.442   9.669   2.351 -0.5259 -0.1728 -0.3185
  828MOL0     C11652   6.336   9.599   2.295 -0.3846 -0.2648 -0.2100
  828MOL0     O11653   6.267   9.493   2.354 -0.2146 -0.0528 -0.4588
  828MOL0     C11654   6.311   9.453   2.481  0.1434  1.0538  0.1451
  828MOL0     C11655   6.230   9.327   2.507  0.4329  0.6803 -0.8068
  828MOL0     C11656   6.262   9.253   2.646 -0.8700  0.9755  0.3111
  828MOL0     C11657   6.409   9.194   2.635 -0.3707 -1.1517 -1.1381
  828MOL0     C11658   6.446   9.118   2.761  0.6625  0.8601 -0.1257
  828MOL0     C11659   6.344   9.007   2.801 -0.2726 -0.6412 -0.5987
  828MOL0     C11660   6.401   8.922   2.913  0.3112 -0.4558 -0.2270
  828MOL0     C11661   6.288   8.831   2.979 -0.0740 -0.5801 -0.4833
  828MOL0     N11662   6.318   8.797   3.126 -0.1570 -0.6876 -0.2712
  828MOL0     C11663   6.306   8.895   3.219  0.0369  0.9142 -0.7432
  828MOL0     C11664   6.312   8.829   3.339  0.4797  0.3948  0.0506
  828MOL0     C11665   6.318   8.883   3.481 -0.0756 -0.1048  0.1179
  828MOL0     C11666   6.411   8.804   3.563  0.0225  0.2297  0.8851
  828MOL0     C11667   6.438   8.854   3.702 -0.6764 -0.1621 -0.5127
  828MOL0     C11668   6.312   8.830   3.787 -0.0136  1.1164 -0.0919
  828MOL0     O11669   6.300   8.687   3.793  0.3437  0.3474 -0.8482
  828MOL0     C11670   6.196   8.642   3.871  0.0629 -0.8264 -0.2174
  828MOL0     C11671   6.110   8.714   3.953  0.3304  0.3278 -0.9194
  828MOL0     C11672   6.005   8.658   4.023 -0.0273 -0.1331  0.0925
  828MOL0     C11673   5.967   8.524   3.990  0.2115 -0.8722  0.0883
  828MOL0     C11674   5.844   8.463   4.063 -0.5557  0.3215 -0.5611
  828MOL0     O11675   5.782   8.544   4.148 -0.5272  0.2081 -0.2166
  828MOL0     C11676   5.668   8.503   4.211  0.8506  0.6125  0.5911
  828MOL0     C11677   5.648   8.511   4.343 -0.1063  0.9981  0.0284
  828MOL0     C11678   5.530   8.481   4.414 -0.7631  0.4400  0.8438
  828MOL0     C11679   5.421   8.430   4.341  0.1704 -0.4938  0.7425
  828MOL0     O11680   5.309   8.390   4.401 -0.2304 -0.0437  0.5106
  828MOL0     C11681   5.238   8.492   4.466  1.1786  0.2969 -0.1781
  828MOL0     C11682   5.178   8.442   4.595  0.1972 -0.0147  0.5754
  828MOL0     C11683   5.110   8.541   4.682 -0.1007  0.9000  0.6866
  828MOL0     C11684   4.957   8.534   4.663 -0.2865 -0.0778 -0.4159
  828MOL0     C11685   4.904   8.584   4.527 -0.6039 -0.2211 -0.4503
  828MOL0     C11686   4.967   8.715   4.491 -0.4706 -0.2059 -0.5853
  828MOL0     C11687   4.887   8.749   4.368  0.0859  0.0247 -0.3368
  828MOL0     C11688   4.945   8.863   4.289 -0.0058  0.4219 -0.3436
  828MOL0    Cl11689   4.906   9.003   4.394  0.7696 -0.0831 -0.2148
  828MOL0     C11690   5.446   8.397   4.207  0.2728 -0.0647  0.3359
  828MOL0     C11691   5.566   8.440   4.144 -0.3571  0.1761 -0.6980
  828MOL0     O11692   5.807   8.354   4.023 -0.1980 -0.0191  0.3112
  828MOL0     C11693   6.051   8.446   3.913  0.5149 -0.7074  0.9394
  828MOL0     C11694   6.157   8.509   3.850 -0.0784  0.3437 -0.3792
  828MOL0     N11695   6.309   8.691   3.308 -0.7390  0.6449  0.1225
  828MOL0     N11696   6.324   8.667   3.180  1.8188  0.0573 -0.1905
  828MOL0     C11697   6.286   9.644   2.173  1.0088 -0.5141  0.5752
  828MOL0     C11698   6.331   9.760   2.102 -0.0116  0.6050  0.2377
  828MOL0     C11699   6.533  10.141   1.968  0.3874  1.0833  0.8918
  828MOL0     C11700   6.561  10.227   2.075 -0.1616  0.5913 -0.3922
  828MOL0     C11701   6.631  10.352   2.049 -0.0725 -0.0864 -0.3884
  828MOL0     C11702   6.665  10.399   1.923 -0.2741 -0.4009  0.1456
  828MOL0     O11703   6.722  10.522   1.892 -0.1014  0.1941 -0.4186
  828MOL0     C11704   6.850  10.507   1.845 -0.7921 -0.0327  0.5383
  828MOL0     C11705   6.926  10.636   1.849 -0.3224  0.7534  1.2807
  828MOL0     C11706   6.906  10.723   1.719 -1.0849 -0.7994  0.3764
  828MOL0     C11707   7.000  10.847   1.732 -0.1789 -0.4821  0.3120
  828MOL0     C11708   6.952  10.950   1.822  0.0046 -0.0197 -0.3963
  828MOL0     C11709   6.896  11.035   1.887 -0.1753 -0.2608 -0.2442
  828MOL0     C11710   6.636  10.313   1.817  0.0230 -0.2384  0.7746
  828MOL0     C11711   6.578  10.186   1.836  0.4366 -0.3286  0.2834
  828MOL0     C11712   6.586  10.098   1.710 -0.5164 -0.1010 -1.0865
  828MOL0     H11713   6.567   9.849   2.341 -2.0191  0.3377  3.0854
  828MOL0     H11714   6.487   9.640   2.445  0.1829  0.6814 -0.3754
  828MOL0     H11715   6.421   9.447   2.483  0.0702 -0.5951  1.3497
  828MOL0     H11716   6.281   9.531   2.551  0.1941 -0.0330  1.4282
  828MOL0     H11717   6.220   9.263   2.419  1.2194  0.0750 -0.4728
  828MOL0     H11718   6.129   9.367   2.505  0.7926  1.6045 -0.9162
  828MOL0     H11719   6.190   9.175   2.674  1.6270 -1.3025  0.8327
  828MOL0     H11720   6.254   9.323   2.730 -4.9386  1.5285 -0.3551
  828MOL0     H11721   6.408   9.118   2.556  0.9360 -3.9997  1.3600
  828MOL0     H11722   6.479   9.275   2.614 -0.8220 -0.7036 -0.9248
  828MOL0     H11723   6.540   9.068   2.736 -0.9942 -2.6111 -0.0982
  828MOL0     H11724   6.451   9.194   2.840 -3.2444  2.0346 -0.7942
  828MOL0     H11725   6.257   9.065   2.830 -0.0772  0.3826 -1.9722
  828MOL0     H11726   6.315   8.938   2.721 -1.9279 -0.3135 -0.3161
  828MOL0     H11727   6.431   8.992   2.992 -2.3329  0.6465 -0.1159
  828MOL0     H11728   6.485   8.864   2.873  0.4943 -0.2743 -0.1120
  828MOL0     H11729   6.187   8.871   2.972 -2.9285 -6.7940 -1.8471
  828MOL0     H11730   6.287   8.730   2.936 -3.9591 -2.5044  3.4411
  828MOL0     H11731   6.315   9.003   3.207  3.9839  0.7369 -0.7649
  828MOL0     H11732   6.360   8.983   3.491 -2.2018  0.6736  2.3095
  828MOL0     H11733   6.214   8.884   3.515 -0.3035 -1.5483 -0.4589
  828MOL0     H11734   6.385   8.698   3.557 -3.6874  1.0318  0.1470
  828MOL0     H11735   6.508   8.810   3.515  0.5392 -1.2088  1.6751
  828MOL0     H11736   6.457   8.961   3.717 -0.2428 -0.5046  1.8844
  828MOL0     H11737   6.516   8.786   3.737 -2.5760 -2.0142  0.3458
  828MOL0     H11738   6.226   8.859   3.725 -1.1730 -0.0242  0.9263
  828MOL0     H11739   6.300   8.886   3.880 -0.1480  0.2074  0.4470
  828MOL0     H11740   6.133   8.817   3.977 -2.2443  1.0287 -1.1717
  828MOL0     H11741   5.948   8.708   4.101  2.8069  1.9230  0.9957
  828MOL0     H11742   5.724   8.555   4.406 -0.4012 -0.1563  1.2557
  828MOL0     H11743   5.519   8.475   4.521 -4.7154 -2.0223  0.4998
  828MOL0     H11744   5.304   8.578   4.486  2.4863  0.0056 -2.7619
  828MOL0     H11745   5.151   8.518   4.405 -2.5358  0.1854  4.5630
  828MOL0     H11746   5.108   8.365   4.562  0.3251 -0.4443  1.2957
  828MOL0     H11747   5.265   8.400   4.646  0.6529  0.3626  0.1253
  828MOL0     H11748   5.133   8.517   4.787  2.0484 -1.2644 -0.1818
  828MOL0     H11749   5.153   8.640   4.667  0.1493  0.7413  0.3397
  828MOL0     H11750   4.914   8.593   4.744  0.4845 -3.0480  2.3454
  828MOL0     H11751   4.921   8.436   4.694 -0.2695 -0.3302 -1.1662
  828MOL0     H11752   4.795   8.583   4.538 -0.3681 -1.8884  5.4686
  828MOL0     H11753   4.927   8.501   4.460 -1.2067 -1.4287  0.7815
  828MOL0     H11754   4.951   8.782   4.575 -3.3433  0.6373 -1.7028
  828MOL0     H11755   5.075   8.719   4.475 -0.3913 -0.3891 -0.1145
  828MOL0     H11756   4.784   8.778   4.391  0.1135 -0.4211  0.3899
  828MOL0     H11757   4.879   8.671   4.292 -0.4542  0.8946 -1.1878
  828MOL0     H11758   5.054   8.857   4.284  0.2753  4.0477 -1.4127
  828MOL0     H11759   4.905   8.865   4.187  1.4158  1.4713 -0.9157
  828MOL0     H11760   5.369   8.332   4.168 -2.2033  2.0353  1.4308
  828MOL0     H11761   5.577   8.401   4.043  4.5921 -1.6993  0.2422
  828MOL0     H11762   6.032   8.341   3.894 -1.3865 -0.0198 -1.4354
  828MOL0     H11763   6.212   8.456   3.773 -0.0004 -2.0522  1.2345
  828MOL0     H11764   6.221   9.581   2.114 -0.7725  2.0257 -0.3474
  828MOL0     H11765   6.284   9.787   2.008  1.3531 -1.5525 -1.1415
  828MOL0     H11766   6.523  10.205   2.174 -0.5102 -1.1611 -0.8916
  828MOL0     H11767   6.645  10.417   2.135 -2.1137  0.7830 -0.6456
  828MOL0     H11768   6.867  10.463   1.746 -0.9627  1.8568 -0.3655
  828MOL0     H11769   6.896  10.439   1.918 -1.5541 -0.6479  0.4651
  828MOL0     H11770   7.034  10.630   1.862 -0.2971  1.5707  1.4889
  828MOL0     H11771   6.888  10.680   1.942 -0.1849  0.9943  1.2235
  828MOL0     H11772   6.803  10.758   1.713 -0.4992  0.8922 -0.6372
  828MOL0     H11773   6.924  10.677   1.621  0.2189  4.0098 -1.9700
  828MOL0     H11774   7.103  10.814   1.749  0.8106  0.4190 -3.1531
  828MOL0     H11775   7.001  10.898   1.635 -0.0057 -2.4856 -0.7882
  828MOL0     H11776   6.869  11.118   1.950  2.8003 -1.0293  2.3058
  828MOL0     H11777   6.681  10.326   1.719 -2.5791  0.3462 -0.4331
  828MOL0     H11778   6.487  10.060   1.681 -0.3371 -1.3528 -0.1112
  828MOL0     H11779   6.633  10.135   1.619  2.5184 -3.2183 -0.9741
  828MOL0     H11780   6.646  10.009   1.730 -2.0904 -0.5502  2.5636
  829MOL0     O11781   3.608   0.531   9.438  0.2357  0.9087  0.1334
  829MOL0     C11782   3.662   0.435   9.483 -0.6302  0.5297  0.8131
  829MOL0     O11783   3.697   0.429   9.608  0.0302 -0.4970 -0.0834
  829MOL0     C11784   3.716   0.544   9.685  0.6070 -0.6633 -1.3893
  829MOL0     C11785   3.769   0.670   9.647  0.2767 -0.4839  1.1496
  829MOL0     C11786   3.793   0.774   9.735 -0.3398 -0.5171 -0.0586
  829MOL0     C11787   3.767   0.756   9.872 -0.8100 -0.5040  0.1517
  829MOL0     O11788   3.781   0.871   9.946 -0.0678 -0.4164 -0.1270
  829MOL0     C11789   3.835   0.845  10.073 -0.0836  0.8263  0.2715
  829MOL0     C11790   3.857   0.979  10.148  0.0318  0.2237 -0.3562
  829MOL0     C11791   3.928   0.956  10.284 -0.4245  0.3349  1.4100
  829MOL0     C11792   4.080   0.920  10.267  0.4520  0.1708  0.1262
  829MOL0     C11793   4.130   0.873  10.409  0.0297  0.3873  0.0919
  829MOL0     C11794   4.059   0.751  10.465 -0.1152 -0.3166  0.3571
  829MOL0     C11795   4.031   0.628  10.382 -0.6254  0.3388  0.6093
  829MOL0     C11796   4.164   0.562  10.329 -0.6504 -0.1914 -0.2870
  829MOL0     N11797   4.130   0.454  10.233  0.5425 -0.1517 -0.8890
  829MOL0     C11798   4.102   0.468  10.101 -0.6160 -0.0968 -0.7959
  829MOL0     C11799   4.055   0.354  10.054 -0.4098 -0.3277  0.3080
  829MOL0     C11800   4.005   0.328   9.917 -0.2493  0.0893  0.0399
  829MOL0     C11801   4.087   0.231   9.833  0.2649 -0.1769  0.2312
  829MOL0     C11802   4.026   0.190   9.687 -0.0299 -0.8564 -0.6020
  829MOL0     C11803   4.027   0.308   9.590 -0.6183 -0.1603  0.0654
  829MOL0     O11804   4.164   0.349   9.576  0.2892  0.0547 -0.4254
  829MOL0     C11805   4.188   0.478   9.583 -0.3908 -0.1216  0.0707
  829MOL0     C11806   4.108   0.576   9.516 -0.2070 -0.5866 -0.6427
  829MOL0     C11807   4.134   0.717   9.539 -0.1350 -0.1083  0.0616
  829MOL0     C11808   4.241   0.760   9.608  0.0570  0.3735 -0.0769
  829MOL0     C11809   4.266   0.905   9.635  0.0409  0.3511 -0.1510
  829MOL0     O11810   4.321   0.924   9.759  0.1039  0.0525  0.4360
  829MOL0     C11811   4.337   1.052   9.803  0.1818 -0.3705  0.5909
  829MOL0     C11812   4.389   1.161   9.728 -0.3724  0.3143 -0.1044
  829MOL0     C11813   4.390   1.284   9.784 -0.0353  0.2219  0.2133
  829MOL0     C11814   4.358   1.307   9.921  0.3726  0.5153  0.1562
  829MOL0     O11815   4.360   1.431   9.980 -0.7159  0.0569  0.3671
  829MOL0     C11816   4.489   1.507   9.974  0.0391 -0.5787  0.5432
  829MOL0     C11817   4.557   1.481  10.104 -0.4327 -0.0455 -1.1985
  829MOL0     C11818   4.500   1.577  10.212 -0.2321  0.4351  1.6071
  829MOL0     C11819   4.517   1.540  10.353 -0.1064 -0.1081 -0.0085
  829MOL0     C11820   4.655   1.556  10.419 -0.3200 -0.5291  0.3073
  829MOL0     C11821   4.686   1.705  10.446 -0.3331 -0.3408 -0.1342
  829MOL0     C11822   4.797   1.707  10.551  0.2800 -0.1636  0.5254
  829MOL0     C11823   4.836   1.841  10.615  0.3659 -0.4717  0.1365
  829MOL0    Cl11824   4.874   1.947  10.478  0.3033 -0.0301 -0.4132
  829MOL0     C11825   4.301   1.197   9.998 -0.8054  0.2191  0.7889
  829MOL0     C11826   4.289   1.070   9.928  0.4167 -0.1127 -0.5033
  829MOL0     O11827   4.225   0.985   9.558  0.9240 -0.4513  0.4458
  829MOL0     C11828   4.326   0.659   9.670  0.8562 -0.4166 -0.6946
  829MOL0     C11829   4.300   0.524   9.654  0.6667 -0.2852  0.8677
  829MOL0     N11830   4.062   0.263  10.159  0.6805 -0.3164 -0.1093
  829MOL0     N11831   4.105   0.323  10.270 -0.9072  0.6006  0.0593
  829MOL0     C11832   3.713   0.633   9.913  0.1051 -0.2897 -0.0004
  829MOL0     C11833   3.698   0.526   9.819 -0.6815  0.4145 -0.5551
  829MOL0     C11834   3.688   0.322   9.393 -0.0623 -0.2516 -0.7162
  829MOL0     C11835   3.718   0.343   9.261  0.5326 -0.1921 -0.5645
  829MOL0     C11836   3.743   0.233   9.173 -0.5369  0.1478 -0.2568
  829MOL0     C11837   3.739   0.095   9.225  0.4016 -0.8312  0.0743
  829MOL0     O11838   3.718  -0.011   9.141 -0.1018 -0.7323 -0.0524
  829MOL0     C11839   3.786  -0.007   9.013  0.6159  0.0433  0.5269
  829MOL0     C11840   3.670   0.024   8.913 -1.3515  0.3671 -0.2038
  829MOL0     C11841   3.721   0.041   8.771 -0.3064 -0.5637  0.3873
  829MOL0     C11842   3.614   0.108   8.678 -0.7224  0.0691 -1.0865
  829MOL0     C11843   3.488   0.025   8.660 -0.6799 -0.7746 -0.3324
  829MOL0     C11844   3.390  -0.041   8.670  0.4692 -0.1064  0.1991
  829MOL0     C11845   3.702   0.074   9.357 -0.2865 -0.4591 -0.2477
  829MOL0     C11846   3.682   0.189   9.442  0.2065  0.2142  1.3679
  829MOL0     C11847   3.605   0.155   9.567 -0.2370  0.2928  0.8460
  829MOL0     H11848   3.804   0.684   9.545  0.7561  0.6445  1.4511
  829MOL0     H11849   3.841   0.868   9.709  1.7166 -1.1647  1.1319
  829MOL0     H11850   3.761   0.783  10.124 -2.6762  2.4114 -1.3358
  829MOL0     H11851   3.932   0.794  10.064 -1.1117 -1.2743  0.5134
  829MOL0     H11852   3.761   1.022  10.178  0.3231  0.5722  0.1004
  829MOL0     H11853   3.919   1.049  10.091  2.8208 -3.0248 -1.6304
  829MOL0     H11854   3.884   0.868  10.330  0.1709 -1.8216 -1.8417
  829MOL0     H11855   3.893   1.049  10.331 -5.4035 -0.3236 -0.3289
  829MOL0     H11856   4.103   0.850  10.187  1.1501 -0.4831  0.8680
  829MOL0     H11857   4.125   1.017  10.245 -1.9415  1.7869  1.8430
  829MOL0     H11858   4.236   0.854  10.387  0.8136  1.3062  2.7150
  829MOL0     H11859   4.121   0.948  10.488 -0.2712 -0.8610  1.2962
  829MOL0     H11860   4.122   0.725  10.551 -0.5806  4.0921  2.3370
  829MOL0     H11861   3.964   0.786  10.507 -0.9246  1.0294 -2.3444
  829MOL0     H11862   3.959   0.642  10.302 -1.8060  1.2025  1.7804
  829MOL0     H11863   3.989   0.544  10.438  1.6220 -1.5831 -0.4274
  829MOL0     H11864   4.227   0.635  10.276 -0.0304 -1.2701 -1.0760
  829MOL0     H11865   4.208   0.518  10.419 -2.2675  1.8429  1.5984
  829MOL0     H11866   4.100   0.559  10.041 -0.5963 -0.2864 -1.0886
  829MOL0     H11867   3.906   0.284   9.911  0.9092 -2.5672 -1.3612
  829MOL0     H11868   4.005   0.422   9.860  3.0943 -2.0112 -3.9619
  829MOL0     H11869   4.186   0.274   9.815  0.6478 -0.8762  0.5993
  829MOL0     H11870   4.100   0.132   9.878  0.0307 -0.4169 -0.2232
  829MOL0     H11871   3.924   0.155   9.702 -0.7470  1.2061 -0.3893
  829MOL0     H11872   4.087   0.107   9.651  2.5232 -0.0465  1.5086
  829MOL0     H11873   3.963   0.371   9.653 -3.1076 -2.0609 -0.4136
  829MOL0     H11874   3.980   0.279   9.496 -0.6769 -2.7567  0.8181
  829MOL0     H11875   4.029   0.544   9.449 -1.6250  2.1048 -0.3686
  829MOL0     H11876   4.066   0.780   9.481  0.7495  0.6908 -0.1304
  829MOL0     H11877   4.422   1.143   9.626 -2.5396 -1.3348 -0.6111
  829MOL0     H11878   4.434   1.368   9.730 -0.2307 -1.1550 -2.2275
  829MOL0     H11879   4.556   1.458   9.903 -0.4467 -1.1220  0.4458
  829MOL0     H11880   4.468   1.613   9.957 -0.7404 -0.6126  1.2247
  829MOL0     H11881   4.553   1.381  10.146  3.5010  0.3585  0.6101
  829MOL0     H11882   4.662   1.508  10.091 -0.5524  0.2237 -1.6326
  829MOL0     H11883   4.542   1.678  10.210  4.4508 -1.2494  0.7105
  829MOL0     H11884   4.396   1.579  10.181  0.1511  0.0363  0.2323
  829MOL0     H11885   4.500   1.432  10.362  1.9416 -0.4548  0.1410
  829MOL0     H11886   4.439   1.600  10.401 -1.5850 -2.2800  0.4595
  829MOL0     H11887   4.739   1.527  10.356 -0.6755  0.1054 -0.4751
  829MOL0     H11888   4.666   1.495  10.509  2.8182 -1.0907 -0.3457
  829MOL0     H11889   4.723   1.749  10.354  4.8696 -3.8710 -0.1603
  829MOL0     H11890   4.592   1.753  10.475  0.9394  1.4293  1.2976
  829MOL0     H11891   4.882   1.657  10.504 -2.2616 -4.1372 -0.3125
  829MOL0     H11892   4.753   1.647  10.631 -0.4654 -1.1909 -0.6216
  829MOL0     H11893   4.755   1.876  10.679  2.3114  2.0661  1.4003
  829MOL0     H11894   4.921   1.831  10.682  1.0903  2.9160 -0.0982
  829MOL0     H11895   4.274   1.205  10.102 -1.0756 -0.9615  0.8215
  829MOL0     H11896   4.233   0.992   9.979  0.5182 -1.0136 -1.7227
  829MOL0     H11897   4.416   0.695   9.719  2.1296  0.3944 -3.4555
  829MOL0     H11898   4.367   0.447   9.691 -1.1871 -2.3384  0.1707
  829MOL0     H11899   3.684   0.610  10.015  1.8415  0.5051  0.7079
  829MOL0     H11900   3.659   0.429   9.848 -2.6939  1.1236 -0.7381
  829MOL0     H11901   3.716   0.442   9.216  4.0578 -0.8267 -2.4712
  829MOL0     H11902   3.744   0.254   9.066 -2.7852 -2.8355 -0.9791
  829MOL0     H11903   3.822  -0.106   8.983 -2.5280 -1.2683  0.6974
  829MOL0     H11904   3.860   0.073   8.998 -0.1101  0.4003 -1.4391
  829MOL0     H11905   3.632   0.119   8.952  1.0490  0.2062  2.9348
  829MOL0     H11906   3.595  -0.056   8.914 -0.0235 -0.9124  0.0242
  829MOL0     H11907   3.744  -0.061   8.741 -0.5289 -1.4737  3.0425
  829MOL0     H11908   3.808   0.105   8.754 -2.6010  2.3702 -1.3031
  829MOL0     H11909   3.605   0.211   8.713 -0.5189 -0.5966  1.1021
  829MOL0     H11910   3.657   0.092   8.579  1.2497 -1.0078 -0.1159
  829MOL0     H11911   3.298  -0.095   8.656  0.1475  1.1514 -3.8575
  829MOL0     H11912   3.673  -0.027   9.383 -0.6562 -0.5106 -0.8544
  829MOL0     H11913   3.668   0.141   9.655 -1.0113 -1.0493  1.2120
  829MOL0     H11914   3.536   0.238   9.585 -0.4999  0.6506 -1.4349
  829MOL0     H11915   3.542   0.068   9.550  0.7976 -0.0342 -1.8142
  830MOL0     O11916   8.349   4.808  11.118 -0.4178  0.0032  0.2345
  830MOL0     C11917   8.366   4.913  11.060  1.0634 -0.1910  1.0299
  830MOL0     O11918   8.295   5.028  11.080 -0.3191 -0.6327 -0.4620
  830MOL0     C11919   8.244   5.050  11.208 -0.3179 -0.6035 -0.3994
  830MOL0     C11920   8.106   5.052  11.232  0.1386  0.0579 -0.8758
  830MOL0     C11921   8.060   5.071  11.365  0.2281 -0.8070 -0.5427
  830MOL0     C11922   8.147   5.097  11.475  0.6190  0.3077  0.0150
  830MOL0     O11923   8.110   5.111  11.604  0.7680  0.2856 -0.3257
  830MOL0     C11924   8.018   5.214  11.628 -0.0939  0.3726 -0.2300
  830MOL0     C11925   7.935   5.165  11.748  0.9421 -0.7928 -1.0152
  830MOL0     C11926   7.809   5.248  11.785  0.1816  0.2517 -0.6764
  830MOL0     C11927   7.684   5.161  11.800 -0.2939  0.5937  1.2291
  830MOL0     C11928   7.551   5.239  11.839 -0.2052 -0.6773  0.4898
  830MOL0     C11929   7.560   5.284  11.985  0.3650  0.9781 -0.4132
  830MOL0     C11930   7.563   5.160  12.082  0.4447  0.0130  0.4692
  830MOL0     C11931   7.425   5.099  12.095 -0.8998  0.1319  0.3758
  830MOL0     N11932   7.424   5.004  12.201  0.1508  0.4925  0.3257
  830MOL0     C11933   7.509   4.895  12.200 -0.2844 -0.6722 -0.3824
  830MOL0     C11934   7.442   4.805  12.281  1.5210 -0.1006  0.1346
  830MOL0     C11935   7.479   4.661  12.311 -0.1677 -0.6037  0.3907
  830MOL0     C11936   7.378   4.565  12.249 -0.1764 -0.5959 -0.6493
  830MOL0     C11937   7.379   4.574  12.092 -0.6496  0.2747  0.4715
  830MOL0     C11938   7.509   4.526  12.035 -0.4545  0.4045  0.8620
  830MOL0     O11939   7.550   4.386  12.066 -0.3113 -0.2713 -0.3751
  830MOL0     C11940   7.533   4.284  11.976  0.1126 -0.0215  0.0845
  830MOL0     C11941   7.631   4.183  11.986 -0.2331  0.5817  0.8246
  830MOL0     C11942   7.621   4.076  11.900  0.4563  0.6413 -1.1031
  830MOL0     C11943   7.517   4.066  11.805  0.1340  0.5543  0.2923
  830MOL0     C11944   7.505   3.944  11.723 -0.1672 -0.2642 -0.2791
  830MOL0     O11945   7.447   3.963  11.601 -0.7393  0.2755 -0.0537
  830MOL0     C11946   7.447   3.859  11.508 -0.6954 -0.0372  1.1456
  830MOL0     C11947   7.476   3.888  11.374  0.4001 -0.4258 -0.4529
  830MOL0     C11948   7.437   3.787  11.285 -0.4419 -0.2209 -0.1275
  830MOL0     C11949   7.376   3.667  11.330 -0.2448 -0.1240 -0.9637
  830MOL0     O11950   7.345   3.567  11.251 -0.0931 -0.7227  0.4772
  830MOL0     C11951   7.364   3.573  11.108  0.3510 -0.7994  0.4982
  830MOL0     C11952   7.298   3.448  11.049  1.5940  0.5388 -0.5039
  830MOL0     C11953   7.392   3.393  10.943 -1.2111  0.3964  0.1036
  830MOL0     C11954   7.332   3.273  10.874 -0.1307  0.5758 -0.1284
  830MOL0     C11955   7.426   3.221  10.763  0.8731  0.5830  0.0710
  830MOL0     C11956   7.358   3.108  10.683 -0.1355 -0.4133  0.0839
  830MOL0     C11957   7.220   3.145  10.624 -0.4904 -0.1125 -0.2726
  830MOL0     C11958   7.182   3.073  10.501 -0.2874 -0.6241  0.8387
  830MOL0    Cl11959   7.212   2.897  10.515 -0.4329  0.4636 -0.2753
  830MOL0     C11960   7.351   3.640  11.461  0.2547  0.3092 -0.6236
  830MOL0     C11961   7.397   3.739  11.550  0.4043 -0.0384  0.7105
  830MOL0     O11962   7.562   3.841  11.759  0.0099 -0.1052 -0.5547
  830MOL0     C11963   7.419   4.161  11.812 -0.3266 -1.1268  0.3672
  830MOL0     C11964   7.428   4.277  11.893 -0.5514  0.7281  0.0977
  830MOL0     N11965   7.318   4.860  12.314  0.2052  0.0438  0.2311
  830MOL0     N11966   7.305   4.974  12.266  0.3257 -0.8257  0.5414
  830MOL0     C11967   8.283   5.103  11.445  0.1300  0.6259  0.1190
  830MOL0     C11968   8.324   5.081  11.316  0.4381  0.4810  0.3946
  830MOL0     C11969   8.460   4.903  10.950  1.0813 -0.9059  0.3953
  830MOL0     C11970   8.544   4.790  10.938 -0.3142  0.2475 -0.0609
  830MOL0     C11971   8.640   4.772  10.837  0.3603  0.6732 -0.3989
  830MOL0     C11972   8.654   4.876  10.743 -1.2611  1.0443  0.2882
  830MOL0     O11973   8.754   4.855  10.645 -0.6642  0.0982 -0.4466
  830MOL0     C11974   8.738   4.935  10.528 -0.2087  0.2335 -0.1898
  830MOL0     C11975   8.825   4.892  10.410 -0.3925  0.1088 -0.1108
  830MOL0     C11976   8.975   4.879  10.460  0.4370 -0.5195 -0.2442
  830MOL0     C11977   9.063   4.848  10.335  0.5167 -0.0243 -0.0750
  830MOL0     C11978   9.172   4.775  10.391  0.1929  0.1550  0.4134
  830MOL0     C11979   9.269   4.722  10.431  0.1143 -0.1728 -0.5448
  830MOL0     C11980   8.561   4.978  10.748  0.0931 -0.4435 -0.6275
  830MOL0     C11981   8.463   4.997  10.843 -0.4493 -0.9218  1.5317
  830MOL0     C11982   8.379   5.122  10.827  0.4355  1.0447  0.4115
  830MOL0     H11983   8.031   5.033  11.156  1.3017 -0.4868 -1.9080
  830MOL0     H11984   7.953   5.061  11.373 -0.2393  2.2261 -1.8051
  830MOL0     H11985   8.078   5.302  11.652  0.6441 -0.0958 -0.3289
  830MOL0     H11986   7.954   5.238  11.542  0.5724 -1.6264 -1.3585
  830MOL0     H11987   7.995   5.152  11.839 -0.6668  1.8255  0.5578
  830MOL0     H11988   7.900   5.063  11.728  3.4970 -2.0239  0.2909
  830MOL0     H11989   7.800   5.338  11.722  0.2841  1.3127  0.7695
  830MOL0     H11990   7.833   5.288  11.884  2.9256  1.0767 -1.5934
  830MOL0     H11991   7.665   5.123  11.700  1.5479 -1.0274  1.4403
  830MOL0     H11992   7.703   5.068  11.855  0.9440 -1.9195 -2.9672
  830MOL0     H11993   7.562   5.329  11.779  0.7116  0.6793  2.5594
  830MOL0     H11994   7.457   5.192  11.809 -1.2987  0.4573  1.9863
  830MOL0     H11995   7.654   5.339  11.998 -0.5106  2.0863  1.5992
  830MOL0     H11996   7.478   5.355  11.997  0.3650  1.0544 -0.8548
  830MOL0     H11997   7.595   5.210  12.174  0.9799  1.6070 -0.5351
  830MOL0     H11998   7.648   5.095  12.060 -0.0316 -0.0404 -1.2931
  830MOL0     H11999   7.361   5.184  12.119 -1.1743  0.8642 -2.4828
  830MOL0     H12000   7.397   5.054  11.999  0.2553  0.3796 -0.0971
  830MOL0     H12001   7.608   4.891  12.154 -0.0423  1.2500 -0.1175
  830MOL0     H12002   7.583   4.633  12.292  0.3823  1.1601  0.6849
  830MOL0     H12003   7.469   4.647  12.419  0.1460  3.1317  1.0372
  830MOL0     H12004   7.390   4.463  12.285  2.2880  0.0987  0.7560
  830MOL0     H12005   7.280   4.602  12.281  0.3927  0.2902  0.1152
  830MOL0     H12006   7.361   4.672  12.047 -0.6337 -0.9082 -2.3131
  830MOL0     H12007   7.302   4.505  12.057 -0.0262 -2.0572  3.3298
  830MOL0     H12008   7.593   4.592  12.059 -0.4321  0.5295  0.4511
  830MOL0     H12009   7.514   4.539  11.926  2.2113 -0.0448  0.8645
  830MOL0     H12010   7.711   4.187  12.059  1.0074 -0.3295 -0.4366
  830MOL0     H12011   7.692   3.995  11.903 -1.9106 -1.5627  2.2126
  830MOL0     H12012   7.541   3.972  11.351  0.9331 -0.3578  1.1857
  830MOL0     H12013   7.464   3.788  11.180  0.6090  0.2882  0.1315
  830MOL0     H12014   7.322   3.668  11.074 -0.7369 -1.8683 -1.3240
  830MOL0     H12015   7.472   3.571  11.093  0.3053  1.8004 -0.7419
  830MOL0     H12016   7.263   3.370  11.118  0.5526 -0.1057 -1.7145
  830MOL0     H12017   7.204   3.484  11.005  1.5275  1.8765  0.6667
  830MOL0     H12018   7.419   3.472  10.872  0.5445  0.4229  0.7593
  830MOL0     H12019   7.487   3.376  10.995 -2.9213 -0.9092  3.0576
  830MOL0     H12020   7.233   3.301  10.835 -0.1651  0.0803 -0.3996
  830MOL0     H12021   7.316   3.181  10.931 -6.4791 -0.7161 -3.0992
  830MOL0     H12022   7.511   3.170  10.810  0.8225 -0.1164 -0.5601
  830MOL0     H12023   7.453   3.302  10.695  2.9450  0.3325  0.5334
  830MOL0     H12024   7.425   3.058  10.611  0.9014 -1.1486  1.5152
  830MOL0     H12025   7.326   3.027  10.749  0.1107  0.1309  0.8801
  830MOL0     H12026   7.223   3.251  10.597 -2.1476  0.7279  2.4050
  830MOL0     H12027   7.139   3.133  10.697 -0.4930  0.4727 -0.1757
  830MOL0     H12028   7.076   3.090  10.484  0.1017  0.5734 -0.5968
  830MOL0     H12029   7.235   3.115  10.415 -0.2970  0.0335  1.1490
  830MOL0     H12030   7.303   3.546  11.486 -1.7855  1.7241  1.1682
  830MOL0     H12031   7.366   3.716  11.651 -0.7476 -2.1605 -0.0599
  830MOL0     H12032   7.334   4.151  11.745 -0.0696  0.8505 -0.3002
  830MOL0     H12033   7.348   4.351  11.887 -0.6186  0.6355 -0.1338
  830MOL0     H12034   8.356   5.102  11.525  0.7367 -0.6493 -0.4124
  830MOL0     H12035   8.429   5.089  11.288  1.0245  1.0848  2.5930
  830MOL0     H12036   8.548   4.709  11.010 -0.0313 -0.7325 -1.1329
  830MOL0     H12037   8.700   4.683  10.819 -1.9907 -0.7864 -1.5921
  830MOL0     H12038   8.755   5.038  10.562 -1.3067  0.1950  0.5185
  830MOL0     H12039   8.634   4.935  10.496  0.0571 -0.1535 -1.0588
  830MOL0     H12040   8.819   4.955  10.321  2.9599 -2.0341 -2.0666
  830MOL0     H12041   8.792   4.795  10.372 -2.7356  1.2652 -1.2973
  830MOL0     H12042   8.983   4.817  10.550  0.2058  0.5075  0.4940
  830MOL0     H12043   9.015   4.974  10.495 -1.2965  0.8691 -1.7989
  830MOL0     H12044   9.011   4.792  10.256  0.4401  0.8397 -0.6529
  830MOL0     H12045   9.095   4.945  10.296 -1.3804 -1.2515 -5.5177
  830MOL0     H12046   9.348   4.680  10.490  1.5778  1.6431 -1.1122
  830MOL0     H12047   8.569   5.065  10.684  1.2493  1.1277  1.5641
  830MOL0     H12048   8.419   5.198  10.896  2.1980 -0.5157  1.1974
  830MOL0     H12049   8.383   5.168  10.728  1.4241  2.6203  1.1386
  830MOL0     H12050   8.278   5.085  10.839  1.6333 -2.4702  0.6486
  831MOL0     O12051   3.285   6.647   6.132  0.2285 -0.7863 -0.5438
  831MOL0     C12052   3.367   6.636   6.223 -0.3619 -0.0752 -0.2059
  831MOL0     O12053   3.343   6.679   6.353 -0.3458 -1.0386  0.0801
  831MOL0     C12054   3.222   6.702   6.411  0.6439 -0.1142  0.3114
  831MOL0     C12055   3.103   6.645   6.368  0.3109 -0.5696  0.2498
  831MOL0     C12056   2.991   6.652   6.443  0.6802  0.3017 -0.8216
  831MOL0     C12057   2.999   6.708   6.573 -0.3151 -0.3597 -0.1995
  831MOL0     O12058   2.887   6.727   6.659  0.3218  0.5540  0.9700
  831MOL0     C12059   2.759   6.708   6.598  0.0345 -0.0309 -1.1109
  831MOL0     C12060   2.643   6.741   6.703  0.1119 -0.0824  0.0533
  831MOL0     C12061   2.614   6.893   6.698 -0.5273 -1.0683 -0.6320
  831MOL0     C12062   2.575   6.947   6.841 -0.4881  0.3854 -0.2899
  831MOL0     C12063   2.569   7.100   6.840 -0.1065  0.2721  0.3932
  831MOL0     C12064   2.705   7.163   6.870  0.9243  0.5801  0.3411
  831MOL0     C12065   2.706   7.313   6.828 -0.6573 -0.4705  0.1438
  831MOL0     C12066   2.836   7.388   6.882  0.6939  0.8735 -0.0307
  831MOL0     N12067   2.842   7.527   6.855  0.1773 -0.1867 -0.2528
  831MOL0     C12068   2.877   7.571   6.733 -0.5317  0.2941  0.1641
  831MOL0     C12069   2.866   7.704   6.744  0.1492  1.0130 -0.3684
  831MOL0     C12070   2.919   7.810   6.653  0.0471 -0.0420 -0.0752
  831MOL0     C12071   3.027   7.912   6.696  0.2702  0.4846 -0.0553
  831MOL0     C12072   3.044   8.017   6.598 -0.7840 -0.0150 -0.2852
  831MOL0     C12073   3.151   7.982   6.487 -0.2533 -0.4208  0.5393
  831MOL0     O12074   3.188   8.102   6.414 -0.2842 -0.5070  0.3517
  831MOL0     C12075   3.309   8.096   6.356  0.5133 -0.1001  0.0150
  831MOL0     C12076   3.420   8.146   6.422 -0.3129  0.6048  0.2502
  831MOL0     C12077   3.536   8.168   6.350  0.1818 -0.0267  0.4450
  831MOL0     C12078   3.553   8.119   6.227  0.3693 -0.2666  0.6559
  831MOL0     C12079   3.687   8.136   6.158  1.2680  0.5409  0.8923
  831MOL0     O12080   3.684   8.111   6.019 -0.9894  0.6144  1.0577
  831MOL0     C12081   3.805   8.124   5.958 -0.0570  0.1132  0.4044
  831MOL0     C12082   3.830   8.234   5.881  0.3674 -0.4492 -0.3018
  831MOL0     C12083   3.948   8.242   5.803 -0.0418 -0.1231 -0.5701
  831MOL0     C12084   4.039   8.136   5.793  0.3058 -0.3163  0.7942
  831MOL0     O12085   4.148   8.136   5.710  0.5454  0.0651  0.3826
  831MOL0     C12086   4.218   8.260   5.698  0.1458 -0.0668  0.3547
  831MOL0     C12087   4.350   8.227   5.626 -0.4085 -0.1201  0.0854
  831MOL0     C12088   4.442   8.342   5.572  0.7990 -0.2614 -0.5069
  831MOL0     C12089   4.469   8.464   5.673  0.2449 -0.2223 -1.4082
  831MOL0     C12090   4.560   8.411   5.799 -0.3241  1.4561  0.1840
  831MOL0     C12091   4.613   8.514   5.896  0.6498  0.4210 -0.1733
  831MOL0     C12092   4.765   8.556   5.861 -0.1115  0.3870  0.3817
  831MOL0     C12093   4.773   8.655   5.745  0.1470 -0.5912  0.4075
  831MOL0    Cl12094   4.702   8.798   5.795  0.1338 -0.7540 -0.1964
  831MOL0     C12095   4.008   8.020   5.865  0.5952 -0.5197  0.7301
  831MOL0     C12096   3.896   8.014   5.944  0.4300 -0.1296 -0.2166
  831MOL0     O12097   3.788   8.156   6.225  0.8375  0.7175  0.0790
  831MOL0     C12098   3.448   8.045   6.169  0.2033 -0.8223  0.1096
  831MOL0     C12099   3.328   8.034   6.233  0.0399 -0.3690  0.5163
  831MOL0     N12100   2.813   7.733   6.876 -0.8713 -0.0252  0.3974
  831MOL0     N12101   2.788   7.624   6.939  0.5713 -0.1338  0.1893
  831MOL0     C12102   3.124   6.742   6.621 -0.7833 -0.2146 -1.6294
  831MOL0     C12103   3.236   6.749   6.538 -0.4727 -0.2899  0.0421
  831MOL0     C12104   3.497   6.566   6.193 -0.2682  0.2654  0.2756
  831MOL0     C12105   3.603   6.593   6.282  0.4747  0.5286 -0.8353
  831MOL0     C12106   3.725   6.517   6.276  0.4209 -0.0335 -0.5942
  831MOL0     C12107   3.745   6.409   6.193  0.0890 -0.0037  0.1208
  831MOL0     O12108   3.854   6.336   6.208 -0.0111 -0.2276  0.2632
  831MOL0     C12109   3.880   6.215   6.131 -0.6812 -0.6994 -0.7745
  831MOL0     C12110   3.922   6.097   6.212 -0.6324  0.5419 -0.2907
  831MOL0     C12111   3.821   5.984   6.230  0.2544 -0.5720 -0.8861
  831MOL0     C12112   3.729   6.034   6.348  0.0987 -0.4090  0.3312
  831MOL0     C12113   3.596   5.968   6.333  0.7361 -0.6708  0.5892
  831MOL0     C12114   3.492   5.892   6.320 -0.0505 -0.4806  0.2542
  831MOL0     C12115   3.648   6.404   6.088  0.8203 -0.8292 -1.0351
  831MOL0     C12116   3.521   6.473   6.088 -0.0043  0.7453  0.0781
  831MOL0     C12117   3.423   6.449   5.981 -0.1017  0.2939 -0.6509
  831MOL0     H12118   3.101   6.597   6.271 -2.4511 -2.7353  1.2172
  831MOL0     H12119   2.896   6.614   6.405  1.3916 -0.1223 -2.2563
  831MOL0     H12120   2.738   6.763   6.507 -1.0097  3.7263  1.1802
  831MOL0     H12121   2.747   6.601   6.576 -1.0895  0.1208 -1.3213
  831MOL0     H12122   2.665   6.701   6.802 -0.5794 -1.8740 -0.4796
  831MOL0     H12123   2.559   6.683   6.665  0.0776  0.7224 -1.1691
  831MOL0     H12124   2.537   6.909   6.622 -0.0483  0.9740 -0.7419
  831MOL0     H12125   2.705   6.946   6.669 -1.5319 -0.4534 -2.8646
  831MOL0     H12126   2.472   6.913   6.852 -0.5661  0.5571 -0.5052
  831MOL0     H12127   2.641   6.911   6.921 -2.6944 -2.6445  0.3397
  831MOL0     H12128   2.529   7.122   6.741 -0.8288 -0.8608  0.4157
  831MOL0     H12129   2.502   7.145   6.913 -0.4830  3.4884 -1.7309
  831MOL0     H12130   2.723   7.146   6.977 -1.6422  1.1151  0.9047
  831MOL0     H12131   2.782   7.123   6.803 -2.6303 -1.0084 -3.1811
  831MOL0     H12132   2.610   7.359   6.854 -1.1640  0.4888 -3.0865
  831MOL0     H12133   2.704   7.330   6.720  0.1175  0.0825  0.2076
  831MOL0     H12134   2.846   7.378   6.991 -3.4466 -0.9164  0.3940
  831MOL0     H12135   2.925   7.332   6.852 -0.9298 -1.8868 -0.0819
  831MOL0     H12136   2.900   7.527   6.637 -0.4915 -0.7652  0.6443
  831MOL0     H12137   2.962   7.757   6.568 -2.2956 -2.8856  0.3468
  831MOL0     H12138   2.832   7.870   6.623  0.2139  0.4302  0.3572
  831MOL0     H12139   3.000   7.961   6.790  1.6451  3.3038 -1.0224
  831MOL0     H12140   3.119   7.851   6.696  1.2064  1.8528 -1.2272
  831MOL0     H12141   3.090   8.095   6.660 -0.4761 -0.5613  0.1854
  831MOL0     H12142   2.949   8.051   6.556  0.2824  2.8800 -0.5461
  831MOL0     H12143   3.114   7.910   6.413 -1.9826  1.2266 -0.2926
  831MOL0     H12144   3.236   7.950   6.546  0.5561 -0.3663 -0.5626
  831MOL0     H12145   3.410   8.189   6.521 -0.4340  1.4363 -0.1175
  831MOL0     H12146   3.612   8.231   6.395 -0.2801  0.3774  0.6745
  831MOL0     H12147   3.758   8.315   5.888  0.1268 -0.7642  1.2553
  831MOL0     H12148   3.954   8.329   5.737 -4.2105  0.8284  0.0150
  831MOL0     H12149   4.157   8.331   5.641 -0.3097  0.0721  1.0043
  831MOL0     H12150   4.238   8.320   5.787 -1.1474  0.9991 -0.0448
  831MOL0     H12151   4.414   8.170   5.694 -0.3409  0.7505  0.7614
  831MOL0     H12152   4.334   8.163   5.538  0.7472 -0.0423 -0.1893
  831MOL0     H12153   4.540   8.297   5.554  1.1001 -0.3121  1.0699
  831MOL0     H12154   4.399   8.394   5.486 -2.6825  1.4428  1.9788
  831MOL0     H12155   4.371   8.499   5.708 -0.4654 -0.8504 -2.6855
  831MOL0     H12156   4.520   8.556   5.641  0.1538  1.6560  3.1224
  831MOL0     H12157   4.643   8.347   5.767 -3.0290 -3.5419  2.0664
  831MOL0     H12158   4.495   8.344   5.856 -1.5133  3.2006  0.9644
  831MOL0     H12159   4.550   8.602   5.906 -0.1432 -0.3213  1.7762
  831MOL0     H12160   4.611   8.475   5.998 -1.1347 -1.6954 -0.9507
  831MOL0     H12161   4.825   8.472   5.824 -0.1062 -0.2311  1.7266
  831MOL0     H12162   4.810   8.591   5.954 -0.2071  0.0169  0.5721
  831MOL0     H12163   4.882   8.662   5.736  0.4631 -3.4579  1.1027
  831MOL0     H12164   4.732   8.616   5.651  0.1253 -5.8702  2.2938
  831MOL0     H12165   4.076   7.939   5.839  0.2004 -0.4205 -0.7047
  831MOL0     H12166   3.863   7.925   5.998 -0.8853  0.9340  0.8058
  831MOL0     H12167   3.476   7.997   6.076  0.8611  1.7823 -1.1259
  831MOL0     H12168   3.241   7.984   6.194 -0.4777  0.4102  0.6584
  831MOL0     H12169   3.130   6.767   6.726  1.9474  3.0502 -2.3862
  831MOL0     H12170   3.336   6.782   6.567  0.5411  0.2139 -3.5259
  831MOL0     H12171   3.592   6.664   6.364 -0.9105 -0.3593 -0.2223
  831MOL0     H12172   3.804   6.549   6.343 -2.3122  1.8152  2.0083
  831MOL0     H12173   3.945   6.243   6.048  1.1806  0.2168  0.9333
  831MOL0     H12174   3.792   6.172   6.081 -1.1385 -0.2551 -0.3587
  831MOL0     H12175   3.946   6.128   6.314 -1.4858 -2.9541  1.1173
  831MOL0     H12176   4.009   6.056   6.161  0.0482  2.6888 -0.9924
  831MOL0     H12177   3.861   5.892   6.273 -0.4529 -0.7037 -0.4954
  831MOL0     H12178   3.764   5.972   6.137 -0.8606 -1.4778 -0.1079
  831MOL0     H12179   3.764   6.008   6.448  0.4453 -2.3051 -0.2557
  831MOL0     H12180   3.717   6.143   6.341 -0.2498 -0.5327 -1.7456
  831MOL0     H12181   3.401   5.838   6.313 -0.6291 -0.0703  3.3877
  831MOL0     H12182   3.664   6.330   6.009  2.0907 -2.6259  0.7868
  831MOL0     H12183   3.397   6.541   5.927 -2.4556 -0.4507 -0.9341
  831MOL0     H12184   3.455   6.373   5.910 -1.8518 -0.4910 -0.6485
  831MOL0     H12185   3.336   6.413   6.037  0.5935  0.1717  0.3645
  832MOL0     O12186   4.306   1.427   4.719 -0.3155  0.1612 -0.2117
  832MOL0     C12187   4.343   1.332   4.649  0.5088 -0.9338 -0.0137
  832MOL0     O12188   4.469   1.312   4.616 -0.1309 -0.0769  0.4521
  832MOL0     C12189   4.560   1.392   4.674  0.0238  0.4168 -0.4080
  832MOL0     C12190   4.592   1.372   4.807 -1.6351 -0.1337 -0.4084
  832MOL0     C12191   4.682   1.455   4.871 -1.4388  0.2951 -0.2127
  832MOL0     C12192   4.741   1.560   4.809  0.4176  0.9212 -0.4321
  832MOL0     O12193   4.816   1.640   4.890 -0.0336  0.1998  0.2084
  832MOL0     C12194   4.924   1.711   4.830 -1.1272 -0.2274 -1.0036
  832MOL0     C12195   4.978   1.809   4.933 -0.4269 -0.6254 -1.2152
  832MOL0     C12196   5.054   1.750   5.066 -0.1612  1.5781 -0.2485
  832MOL0     C12197   5.048   1.848   5.182  0.6310  0.3301  0.5237
  832MOL0     C12198   5.104   1.985   5.157  0.3832  0.0770 -0.4135
  832MOL0     C12199   5.254   1.986   5.140 -0.2834 -0.1393  0.1471
  832MOL0     C12200   5.303   2.131   5.125 -0.0924  0.6329  0.4147
  832MOL0     C12201   5.270   2.181   4.982 -0.3233  0.1018 -0.3582
  832MOL0     N12202   5.332   2.319   4.966 -0.2160  0.9012  0.1712
  832MOL0     C12203   5.297   2.438   5.035  0.7683  0.6543  0.1729
  832MOL0     C12204   5.408   2.516   5.010 -0.4553 -0.1835 -0.5581
  832MOL0     C12205   5.424   2.662   5.053 -0.7977 -0.6261  0.1311
  832MOL0     C12206   5.515   2.673   5.180  0.5404  0.4160 -0.6804
  832MOL0     C12207   5.452   2.599   5.301 -0.4686  0.2395  0.1625
  832MOL0     C12208   5.548   2.611   5.425  0.2058 -0.5112 -0.2874
  832MOL0     O12209   5.473   2.656   5.539  0.3707 -0.3112 -1.0554
  832MOL0     C12210   5.475   2.589   5.662 -0.2473  0.0450 -0.7454
  832MOL0     C12211   5.411   2.646   5.779  0.9707  0.1867  0.7658
  832MOL0     C12212   5.441   2.611   5.905 -0.0663  0.8964 -0.5252
  832MOL0     C12213   5.499   2.489   5.925 -0.3811  0.4536 -0.1031
  832MOL0     C12214   5.507   2.437   6.064  0.3514 -0.3423  0.4288
  832MOL0     O12215   5.556   2.306   6.077 -0.1030 -0.5828 -0.3019
  832MOL0     C12216   5.556   2.258   6.205 -0.1874 -0.6252  0.2565
  832MOL0     C12217   5.671   2.292   6.270  0.1023  0.3633 -0.1987
  832MOL0     C12218   5.678   2.256   6.407 -0.7479  0.1341  0.0729
  832MOL0     C12219   5.580   2.184   6.475  0.4393 -0.3456  0.1832
  832MOL0     O12220   5.594   2.153   6.602  0.1671 -0.7126 -1.0338
  832MOL0     C12221   5.646   2.247   6.697 -0.6765  0.1601 -1.7348
  832MOL0     C12222   5.630   2.182   6.829 -0.8606  0.1942  1.0216
  832MOL0     C12223   5.706   2.262   6.935 -0.2284  0.3801  0.7218
  832MOL0     C12224   5.612   2.363   7.017 -0.1222 -0.4815  0.0726
  832MOL0     C12225   5.685   2.423   7.146  0.6615 -0.3684  0.4949
  832MOL0     C12226   5.596   2.535   7.204  0.4655  0.5825 -1.0149
  832MOL0     C12227   5.645   2.582   7.338 -0.8209 -0.1641 -0.3854
  832MOL0     C12228   5.602   2.728   7.363  0.8108 -1.1510  0.3233
  832MOL0    Cl12229   5.709   2.852   7.287 -0.2487 -0.2047  0.3370
  832MOL0     C12230   5.462   2.152   6.406 -0.9521  0.4992  0.6495
  832MOL0     C12231   5.446   2.197   6.269 -0.6418  0.7543  0.1186
  832MOL0     O12232   5.474   2.512   6.158  0.2829  0.3586  0.5115
  832MOL0     C12233   5.559   2.411   5.815  0.0884 -0.8002  0.1803
  832MOL0     C12234   5.543   2.459   5.687  0.1428  0.2547  0.9397
  832MOL0     N12235   5.503   2.452   4.936 -0.5920  0.2379 -0.7446
  832MOL0     N12236   5.448   2.343   4.909  0.3084 -0.3079 -0.4514
  832MOL0     C12237   4.719   1.576   4.672 -0.5906  0.0955  0.4775
  832MOL0     C12238   4.626   1.494   4.604 -0.1061  0.1877 -1.0014
  832MOL0     C12239   4.248   1.235   4.593  0.6026  0.0476 -0.4951
  832MOL0     C12240   4.304   1.141   4.504  0.0791 -0.8282 -0.1224
  832MOL0     C12241   4.224   1.046   4.442  0.6598  0.6493  0.2306
  832MOL0     C12242   4.086   1.040   4.458 -1.0035  0.4191 -0.2371
  832MOL0     O12243   4.011   0.945   4.401  0.5072  0.1666  0.0929
  832MOL0     C12244   4.053   0.883   4.283 -0.8696  0.3535  0.4068
  832MOL0     C12245   4.076   0.969   4.165  0.0468  0.2496 -0.1902
  832MOL0     C12246   4.103   0.864   4.055  0.7610 -0.0019 -0.2662
  832MOL0     C12247   4.125   0.934   3.921 -0.2246  0.0555 -0.8675
  832MOL0     C12248   4.211   0.868   3.828 -0.6367 -1.2803  0.9191
  832MOL0     C12249   4.278   0.809   3.738 -0.9367  0.0504  0.1841
  832MOL0     C12250   4.029   1.123   4.546 -0.1942 -1.0174  0.6336
  832MOL0     C12251   4.106   1.222   4.614 -0.3077 -0.7245  0.3094
  832MOL0     C12252   4.032   1.315   4.707 -0.1430  0.2241  0.2479
  832MOL0     H12253   4.546   1.288   4.858  0.1209 -1.1466 -0.4236
  832MOL0     H12254   4.700   1.447   4.977 -2.9608 -0.1446  0.0452
  832MOL0     H12255   4.999   1.637   4.802 -3.7537 -3.4306 -0.2109
  832MOL0     H12256   4.895   1.772   4.744  1.5677  1.0070 -1.1215
  832MOL0     H12257   4.887   1.856   4.971  1.7079 -0.1849  4.0292
  832MOL0     H12258   5.037   1.885   4.881  1.3795 -0.5381  0.8457
  832MOL0     H12259   5.159   1.724   5.050  0.5600  1.6506  3.4021
  832MOL0     H12260   4.993   1.663   5.093  0.5517 -0.1255 -3.6444
  832MOL0     H12261   4.941   1.854   5.203  0.1540 -0.9737 -1.2859
  832MOL0     H12262   5.111   1.808   5.261  1.3649 -0.5561 -0.4806
  832MOL0     H12263   5.057   2.024   5.066  0.5540  0.5015 -0.3251
  832MOL0     H12264   5.072   2.043   5.245  0.4494 -1.9607  1.0160
  832MOL0     H12265   5.296   1.936   5.228  1.1433 -2.6919 -1.8453
  832MOL0     H12266   5.276   1.919   5.057 -3.4930  0.2974 -1.1995
  832MOL0     H12267   5.410   2.142   5.145 -0.6686  2.0926  3.2668
  832MOL0     H12268   5.258   2.191   5.205 -1.5024 -1.2238  1.1020
  832MOL0     H12269   5.311   2.123   4.898 -0.2380  0.0340 -0.2700
  832MOL0     H12270   5.161   2.192   4.979 -0.7568 -0.4596  5.0028
  832MOL0     H12271   5.206   2.466   5.087  1.2430 -0.1170  1.4735
  832MOL0     H12272   5.467   2.714   4.966  0.4169 -0.0511  1.0517
  832MOL0     H12273   5.331   2.712   5.078  0.3010  0.4019  2.4099
  832MOL0     H12274   5.611   2.623   5.163  0.1887  0.3624 -2.7458
  832MOL0     H12275   5.524   2.781   5.198 -2.9891  0.6441  0.4119
  832MOL0     H12276   5.447   2.493   5.275  1.3589  0.0127  0.6210
  832MOL0     H12277   5.357   2.648   5.323  0.1255  0.3777  2.8337
  832MOL0     H12278   5.619   2.690   5.398 -1.6755  1.2127 -0.4576
  832MOL0     H12279   5.607   2.521   5.443 -1.4165 -1.5031  0.3913
  832MOL0     H12280   5.343   2.731   5.776  0.4011 -0.2609 -1.9236
  832MOL0     H12281   5.408   2.667   5.993  1.6843 -1.0122  1.4900
  832MOL0     H12282   5.740   2.356   6.218 -3.8333  4.8671 -0.5429
  832MOL0     H12283   5.769   2.282   6.459  1.1809 -1.8690 -2.0363
  832MOL0     H12284   5.747   2.283   6.673 -1.9934  3.8578 -2.5000
  832MOL0     H12285   5.586   2.338   6.707 -1.4790 -0.5401  0.4249
  832MOL0     H12286   5.523   2.173   6.848 -1.1496  0.5146 -0.3200
  832MOL0     H12287   5.673   2.082   6.817  0.9317  1.2054 -2.2186
  832MOL0     H12288   5.740   2.182   7.001  0.6993 -0.0159 -0.2059
  832MOL0     H12289   5.790   2.314   6.888 -1.0677  0.2961 -0.9223
  832MOL0     H12290   5.518   2.315   7.045 -0.4442  0.0835 -0.0546
  832MOL0     H12291   5.579   2.437   6.944  2.1452  0.5903  0.0373
  832MOL0     H12292   5.782   2.474   7.141  1.2332 -1.2169  2.1068
  832MOL0     H12293   5.691   2.349   7.227 -2.3538 -2.4287 -0.9813
  832MOL0     H12294   5.600   2.629   7.148 -0.6066  0.0493 -2.0446
  832MOL0     H12295   5.492   2.502   7.212  1.1864 -2.9862 -3.8316
  832MOL0     H12296   5.752   2.577   7.358 -1.2646  0.5655  2.7211
  832MOL0     H12297   5.591   2.523   7.412 -0.0593  0.2497  0.5353
  832MOL0     H12298   5.501   2.744   7.324  0.8755  0.3800  0.7298
  832MOL0     H12299   5.597   2.744   7.471 -0.8477 -0.4541  0.1711
  832MOL0     H12300   5.381   2.099   6.454 -0.6808 -0.3061  0.2354
  832MOL0     H12301   5.357   2.177   6.209  1.0757  1.4868 -2.8697
  832MOL0     H12302   5.595   2.313   5.842  1.9113 -0.2019  0.0453
  832MOL0     H12303   5.576   2.387   5.613 -0.1590 -1.7588  2.7029
  832MOL0     H12304   4.761   1.654   4.609  0.9094 -0.1720  1.0967
  832MOL0     H12305   4.609   1.507   4.497  1.2687  0.7864 -1.1716
  832MOL0     H12306   4.407   1.132   4.469  0.4111 -0.2844  0.6615
  832MOL0     H12307   4.270   0.973   4.376 -1.6352  1.2157 -2.1916
  832MOL0     H12308   3.976   0.810   4.259  0.0710 -0.6970  0.5201
  832MOL0     H12309   4.142   0.822   4.300 -1.4016 -0.6897 -0.4261
  832MOL0     H12310   4.166   1.028   4.184  0.6785 -1.1030  1.2655
  832MOL0     H12311   3.991   1.031   4.137  0.3988  1.5757  1.4951
  832MOL0     H12312   4.033   0.781   4.045 -0.3629  1.0658 -1.5435
  832MOL0     H12313   4.194   0.816   4.093 -1.1856 -3.3319  0.6493
  832MOL0     H12314   4.027   0.949   3.875 -0.0315 -0.3065 -1.4096
  832MOL0     H12315   4.172   1.032   3.930  2.3147 -1.0415 -1.3574
  832MOL0     H12316   4.335   0.741   3.677  0.6517  1.3289  0.1701
  832MOL0     H12317   3.921   1.127   4.546 -0.2302 -1.1701  2.4823
  832MOL0     H12318   3.940   1.271   4.747  0.6580 -0.5835  1.2558
  832MOL0     H12319   4.090   1.331   4.798  0.4314 -2.6265  0.4594
  832MOL0     H12320   4.018   1.412   4.657  2.8160 -0.3049 -1.8892
  833MOL0     O12321   5.658  11.442   9.723  0.3367 -0.5969  0.1033
  833MOL0     C12322   5.614  11.332   9.692  0.1584 -0.8666 -0.1159
  833MOL0     O12323   5.580  11.223   9.778 -0.0919 -0.7380  0.2765
  833MOL0     C12324   5.635  11.234   9.906  0.2265  0.0781  0.7803
  833MOL0     C12325   5.568  11.178  10.017 -0.1523  0.3135  0.4629
  833MOL0     C12326   5.601  11.184  10.146 -0.1453 -0.4627 -0.2658
  833MOL0     C12327   5.735  11.217  10.173 -0.0384  0.8420  0.0427
  833MOL0     O12328   5.804  11.197  10.286  0.3749 -0.2743  0.5637
  833MOL0     C12329   5.715  11.191  10.394  0.0538  0.1079  0.0685
  833MOL0     C12330   5.814  11.192  10.505  0.0369 -0.2209  0.4117
  833MOL0     C12331   5.809  11.063  10.572 -0.3456 -0.3182  0.2131
  833MOL0     C12332   5.941  11.048  10.658  0.1431  0.1178 -0.0245
  833MOL0     C12333   5.912  10.946  10.768  0.5388  0.2983  1.8507
  833MOL0     C12334   5.946  10.980  10.907  0.2392 -0.1318  0.7279
  833MOL0     C12335   5.903  10.880  11.013 -0.1297  0.0239 -0.2604
  833MOL0     C12336   5.932  10.923  11.151  0.0747 -0.9239 -0.1099
  833MOL0     N12337   5.884  10.837  11.258  0.2937  0.9739 -0.4164
  833MOL0     C12338   5.954  10.728  11.296  0.3127  0.4135 -0.1104
  833MOL0     C12339   5.874  10.678  11.392  0.3524  0.4030  0.1013
  833MOL0     C12340   5.930  10.565  11.472 -0.2075 -0.1461  0.0425
  833MOL0     C12341   5.919  10.574  11.626  0.0081  0.4751 -0.4170
  833MOL0     C12342   5.775  10.563  11.670  0.1066 -0.1957  0.2789
  833MOL0     C12343   5.723  10.424  11.700  0.3396  0.3098  0.7576
  833MOL0     O12344   5.620  10.440  11.807  0.3698  0.4406 -0.1475
  833MOL0     C12345   5.543  10.329  11.826  0.6578 -1.0327 -0.6900
  833MOL0     C12346   5.431  10.345  11.913  1.1167 -0.6068  0.5838
  833MOL0     C12347   5.346  10.238  11.938 -0.4795  0.3597 -1.0503
  833MOL0     C12348   5.374  10.110  11.892 -0.2201 -0.1709  0.1374
  833MOL0     C12349   5.291   9.995  11.931 -0.2165  0.5414 -1.4111
  833MOL0     O12350   5.334   9.873  11.880  0.5671 -0.0797  0.0319
  833MOL0     C12351   5.292   9.762  11.949  0.2720 -0.1949  0.2603
  833MOL0     C12352   5.392   9.695  12.017 -0.4021 -0.1374  1.0770
  833MOL0     C12353   5.368   9.569  12.071  0.0947 -0.1741 -0.6948
  833MOL0     C12354   5.245   9.510  12.069 -0.6968 -0.2563  0.5624
  833MOL0     O12355   5.226   9.393  12.137 -0.4973 -0.0278 -0.1112
  833MOL0     C12356   5.111   9.318  12.103  0.1151  0.4880  0.0057
  833MOL0     C12357   5.123   9.177  12.142  0.7759  0.2627 -0.6631
  833MOL0     C12358   5.229   9.092  12.063  0.1424  0.3078  0.5959
  833MOL0     C12359   5.221   8.937  12.104  0.1431 -0.5028  0.6670
  833MOL0     C12360   5.290   8.913  12.239  0.4651  0.1304  0.1403
  833MOL0     C12361   5.436   8.952  12.237 -0.1953  0.3600 -0.0965
  833MOL0     C12362   5.521   8.930  12.106 -0.5028 -0.9962  0.6432
  833MOL0     C12363   5.668   8.944  12.128 -0.0293  0.3410 -0.3558
  833MOL0    Cl12364   5.756   8.920  11.981  0.3448  0.5100  0.4393
  833MOL0     C12365   5.139   9.582  12.015  0.2246  0.3565  0.3474
  833MOL0     C12366   5.160   9.701  11.940 -0.4249 -0.6686 -0.1934
  833MOL0     O12367   5.194  10.006  12.008 -1.0590 -0.4857  0.2935
  833MOL0     C12368   5.487  10.092  11.806 -0.1699 -0.2802  0.0324
  833MOL0     C12369   5.562  10.203  11.771  0.3142  1.4974 -0.0658
  833MOL0     N12370   5.758  10.755  11.405 -0.2841 -1.2459 -0.6022
  833MOL0     N12371   5.762  10.854  11.316  0.0761  0.7959 -0.1331
  833MOL0     C12372   5.810  11.272  10.067  0.3904  0.2821 -0.5584
  833MOL0     C12373   5.765  11.282   9.936  0.3174 -0.5522  0.1968
  833MOL0     C12374   5.562  11.331   9.550  0.1587 -0.5834  0.8406
  833MOL0     C12375   5.445  11.259   9.525  0.1824 -0.6590  0.6999
  833MOL0     C12376   5.404  11.237   9.389 -0.6856 -0.4419  0.2088
  833MOL0     C12377   5.482  11.289   9.282 -0.3117  0.7801  0.2778
  833MOL0     O12378   5.451  11.273   9.147  0.5257  0.4859  0.4390
  833MOL0     C12379   5.387  11.150   9.105  0.6391  0.1895 -0.1659
  833MOL0     C12380   5.411  11.122   8.962 -0.1700 -1.0788 -0.1706
  833MOL0     C12381   5.340  11.222   8.867  0.4921  0.2787  0.3588
  833MOL0     C12382   5.354  11.192   8.723  2.3098  0.0762 -0.8554
  833MOL0     C12383   5.490  11.186   8.678  1.0154 -0.3453 -0.1012
  833MOL0     C12384   5.602  11.166   8.639  1.1709  0.3701 -0.3535
  833MOL0     C12385   5.594  11.364   9.310 -0.6888 -1.1825  1.1437
  833MOL0     C12386   5.640  11.380   9.441 -0.4557 -0.4335  0.1241
  833MOL0     C12387   5.776  11.439   9.466  0.5685  0.1200  1.3864
  833MOL0     H12388   5.474  11.133   9.988 -0.8045  0.5088  2.1221
  833MOL0     H12389   5.525  11.145  10.213 -0.3073 -0.3217 -0.3682
  833MOL0     H12390   5.672  11.291  10.406 -0.2777 -0.3372  3.2505
  833MOL0     H12391   5.644  11.109  10.379  0.9976 -1.5306  3.5624
  833MOL0     H12392   5.773  11.263  10.577 -2.7404  1.1395 -2.2886
  833MOL0     H12393   5.914  11.214  10.467 -0.3642 -1.1705 -1.3179
  833MOL0     H12394   5.809  10.973  10.511  2.5294 -2.5045  3.1313
  833MOL0     H12395   5.724  11.071  10.640  0.5281 -0.4547  1.3441
  833MOL0     H12396   6.034  11.029  10.603 -0.3149  1.9466 -1.5654
  833MOL0     H12397   5.963  11.147  10.700  1.3861  0.6097 -1.7228
  833MOL0     H12398   5.806  10.920  10.762  0.3160  1.1411  2.0876
  833MOL0     H12399   5.961  10.850  10.748  0.4520  0.8184 -1.6018
  833MOL0     H12400   6.055  10.984  10.914  0.6012 -0.5602 -2.9271
  833MOL0     H12401   5.899  11.072  10.945 -0.3424 -0.5816  1.1256
  833MOL0     H12402   5.947  10.781  10.997  2.1591  0.7687  0.8671
  833MOL0     H12403   5.797  10.871  10.991 -0.5813 -0.4145  1.8813
  833MOL0     H12404   6.036  10.951  11.172 -0.2795 -0.3466  0.9700
  833MOL0     H12405   5.885  11.018  11.176  2.3633 -0.2033  1.8228
  833MOL0     H12406   6.057  10.702  11.271  1.0652  1.9998  1.1939
  833MOL0     H12407   5.864  10.485  11.438 -0.5675  1.1818 -2.6713
  833MOL0     H12408   6.026  10.545  11.425 -0.5836  0.7751 -1.1822
  833MOL0     H12409   5.969  10.488  11.672  1.0059  0.1193 -2.0914
  833MOL0     H12410   5.968  10.668  11.655  2.2791 -1.0785  1.1290
  833MOL0     H12411   5.699  10.617  11.612 -0.3744  0.6662  1.6760
  833MOL0     H12412   5.765  10.613  11.766 -0.3616 -3.1255  1.8923
  833MOL0     H12413   5.804  10.359  11.734 -0.3106 -0.7554  0.3180
  833MOL0     H12414   5.692  10.380  11.605  3.6288  3.2460 -1.9854
  833MOL0     H12415   5.410  10.441  11.960 -1.8050 -0.2343 -1.2199
  833MOL0     H12416   5.269  10.252  12.013  0.4318  1.2316 -0.2639
  833MOL0     H12417   5.497   9.724  12.010 -0.4557 -0.3375 -2.3892
  833MOL0     H12418   5.449   9.508  12.110  1.5501  0.6540 -2.2758
  833MOL0     H12419   5.025   9.363  12.154 -0.4304 -1.5348  1.0102
  833MOL0     H12420   5.104   9.320  11.994 -1.0127  0.5233  0.0677
  833MOL0     H12421   5.152   9.184  12.248  0.8942  2.1825 -0.7932
  833MOL0     H12422   5.024   9.132  12.130  1.5608 -2.1284  0.9285
  833MOL0     H12423   5.220   9.090  11.954  0.9621 -2.3560  0.5007
  833MOL0     H12424   5.322   9.146  12.082 -0.7026  1.9287  0.3237
  833MOL0     H12425   5.266   8.883  12.020  1.4912  3.3110 -1.3128
  833MOL0     H12426   5.120   8.896  12.096  0.1097 -0.5115  1.1211
  833MOL0     H12427   5.295   8.805  12.254  0.1736  0.1437  0.3304
  833MOL0     H12428   5.242   8.969  12.319  1.4175 -0.6546  1.2976
  833MOL0     H12429   5.449   9.060  12.246  0.8219  0.3386 -1.0841
  833MOL0     H12430   5.478   8.900  12.324  1.5307  1.0164 -0.4900
  833MOL0     H12431   5.498   9.006  12.031 -0.1144 -0.8608  0.6645
  833MOL0     H12432   5.502   8.834  12.058 -0.9771  0.5032 -2.4518
  833MOL0     H12433   5.696   9.040  12.171 -0.3356 -1.1001  3.4768
  833MOL0     H12434   5.711   8.862  12.187  0.7819  0.0101 -1.3781
  833MOL0     H12435   5.041   9.535  12.013 -0.0125  0.7726 -2.6343
  833MOL0     H12436   5.082   9.762  11.894 -1.0418  1.1044  2.9160
  833MOL0     H12437   5.495   9.994  11.760 -0.1542  0.0277 -0.6335
  833MOL0     H12438   5.638  10.188  11.695 -0.8366  3.6542 -1.7481
  833MOL0     H12439   5.915  11.297  10.077  0.1448  1.3520 -0.4838
  833MOL0     H12440   5.833  11.316   9.859  2.0394  1.2913  2.3627
  833MOL0     H12441   5.381  11.230   9.607  0.7619 -0.3207  1.2868
  833MOL0     H12442   5.312  11.181   9.376 -0.4466 -1.8282  3.4646
  833MOL0     H12443   5.279  11.148   9.121  0.9803  1.3808  2.7313
  833MOL0     H12444   5.432  11.084   9.180  0.1029  0.7575  0.6696
  833MOL0     H12445   5.395  11.014   8.952  2.0267 -1.5673  0.9775
  833MOL0     H12446   5.518  11.122   8.938 -0.3596 -1.1480 -1.0630
  833MOL0     H12447   5.373  11.322   8.897  1.6283  0.0710 -0.1637
  833MOL0     H12448   5.233  11.206   8.884 -0.2502 -1.0779 -4.3353
  833MOL0     H12449   5.308  11.097   8.693 -0.5268 -1.1713  5.6779
  833MOL0     H12450   5.320  11.282   8.671  1.2315  0.5914  0.6849
  833MOL0     H12451   5.705  11.146   8.616  1.5955  0.8338  1.0505
  833MOL0     H12452   5.640  11.418   9.227 -0.6458 -0.7293  1.4581
  833MOL0     H12453   5.832  11.431   9.372  2.0691 -0.2976  2.2850
  833MOL0     H12454   5.775  11.542   9.502 -0.5506  0.3504  0.7454
  833MOL0     H12455   5.827  11.379   9.542 -1.0229 -0.7677  1.7950
  834MOL0     O12456   8.510  11.429   1.874  0.4541  0.5344  0.4406
  834MOL0     C12457   8.597  11.384   1.804  0.1106 -0.1576 -0.2812
  834MOL0     O12458   8.709  11.454   1.765  0.0634  0.3416 -0.0056
  834MOL0     C12459   8.741  11.580   1.815  0.5999  0.0769 -0.3233
  834MOL0     C12460   8.830  11.659   1.738  0.0807  0.3244 -1.0532
  834MOL0     C12461   8.888  11.783   1.788  0.3034  0.3906 -0.1475
  834MOL0     C12462   8.840  11.842   1.906 -0.3915  0.2951 -0.3118
  834MOL0     O12463   8.885  11.964   1.939  0.6691  0.0260 -0.1783
  834MOL0     C12464   8.793  12.071   1.901 -0.8097 -0.1243 -0.5260
  834MOL0     C12465   8.822  12.104   1.747 -0.3608  0.8915 -1.1255
  834MOL0     C12466   8.705  12.179   1.677 -1.3009  0.5332  0.0824
  834MOL0     C12467   8.700  12.330   1.702  0.0250 -0.0874  0.6140
  834MOL0     C12468   8.588  12.390   1.620  0.0875 -0.7222 -0.1096
  834MOL0     C12469   8.455  12.356   1.671 -0.6033  0.0521  1.0138
  834MOL0     C12470   8.346  12.404   1.580 -0.2248 -0.0991 -0.9513
  834MOL0     C12471   8.198  12.367   1.614  0.4417 -0.6681  0.2738
  834MOL0     N12472   8.115  12.367   1.493  0.5849  0.2886  0.8721
  834MOL0     C12473   8.106  12.474   1.405 -0.1770 -0.1250 -0.1286
  834MOL0     C12474   8.022  12.432   1.310 -0.5083 -0.8399  0.0844
  834MOL0     C12475   7.986  12.518   1.190  0.9376 -1.0856 -0.1580
  834MOL0     C12476   8.081  12.523   1.073  1.3506 -0.4917 -0.4088
  834MOL0     C12477   8.013  12.581   0.945 -0.0371 -0.6725  0.8035
  834MOL0     C12478   8.009  12.472   0.837 -0.3801  1.5762  0.8629
  834MOL0     O12479   7.950  12.496   0.709  0.0210 -0.7054  0.6094
  834MOL0     C12480   7.810  12.516   0.690  0.1499  0.5985 -0.5543
  834MOL0     C12481   7.776  12.552   0.563 -1.2333 -0.3309  0.8531
  834MOL0     C12482   7.641  12.569   0.530 -0.3909 -0.3180  0.0280
  834MOL0     C12483   7.544  12.582   0.624 -0.1177 -0.2903  0.2287
  834MOL0     C12484   7.405  12.596   0.582 -0.1337 -0.5944 -0.2256
  834MOL0     O12485   7.312  12.593   0.687 -0.0372 -0.6356 -0.3840
  834MOL0     C12486   7.186  12.584   0.652 -0.5991  0.3436 -0.8347
  834MOL0     C12487   7.138  12.469   0.593 -0.7244  0.1752 -1.0055
  834MOL0     C12488   7.005  12.462   0.551 -0.0904  0.0832  0.6958
  834MOL0     C12489   6.914  12.567   0.575  0.5189 -0.6967 -1.5768
  834MOL0     O12490   6.788  12.556   0.521 -0.2764 -0.3167  0.0908
  834MOL0     C12491   6.762  12.463   0.418  0.0722 -0.5761 -1.4317
  834MOL0     C12492   6.634  12.510   0.359  0.2547  0.3587 -0.5460
  834MOL0     C12493   6.641  12.649   0.288  0.6042  1.2599  0.1570
  834MOL0     C12494   6.486  12.670   0.262  0.6940  1.2510  0.1495
  834MOL0     C12495   6.454  12.770   0.149  0.3085  0.2793 -0.3956
  834MOL0     C12496   6.302  12.798   0.131  0.3441  0.3503  0.0609
  834MOL0     C12497   6.267  12.946   0.168 -0.5180  0.5771 -0.3023
  834MOL0     C12498   6.280  12.976   0.317  0.3589 -0.5137 -0.0493
  834MOL0    Cl12499   6.190  12.859   0.414 -0.4005  0.0735 -0.1181
  834MOL0     C12500   6.959  12.678   0.640  0.5313 -0.3673  0.1422
  834MOL0     C12501   7.095  12.689   0.674 -0.5774 -0.2128  0.7413
  834MOL0     O12502   7.369  12.590   0.463 -0.0547  0.2886 -0.4880
  834MOL0     C12503   7.583  12.561   0.763  0.2488  0.7668  0.5033
  834MOL0     C12504   7.713  12.522   0.794  0.1071  0.3552  0.2750
  834MOL0     N12505   7.979  12.300   1.335  0.0970  0.3223  0.3703
  834MOL0     N12506   8.045  12.262   1.440 -0.4032  0.3372 -0.2633
  834MOL0     C12507   8.751  11.764   1.982  0.2573 -0.1326  0.2354
  834MOL0     C12508   8.703  11.637   1.943  0.6427  0.2959  0.4372
  834MOL0     C12509   8.579  11.250   1.739  0.3072  0.3334  0.1914
  834MOL0     C12510   8.506  11.154   1.810 -0.4158 -0.2789  0.9887
  834MOL0     C12511   8.500  11.022   1.756 -0.8397  1.0037 -0.8512
  834MOL0     C12512   8.559  10.980   1.644  1.1836 -0.6166  0.4231
  834MOL0     O12513   8.521  10.854   1.597 -0.1703  0.2994  0.2794
  834MOL0     C12514   8.554  10.806   1.470  0.8309  0.0818  0.2163
  834MOL0     C12515   8.460  10.694   1.441  0.5141 -0.2802  0.6080
  834MOL0     C12516   8.497  10.569   1.513 -0.6048  0.5742 -0.5359
  834MOL0     C12517   8.400  10.456   1.481 -0.0385  0.4033 -0.4168
  834MOL0     C12518   8.443  10.334   1.554  1.1938 -0.1359 -0.2668
  834MOL0     C12519   8.473  10.247   1.626 -0.5251  0.1188 -0.5324
  834MOL0     C12520   8.634  11.077   1.573  0.7155  0.1520 -0.0052
  834MOL0     C12521   8.649  11.213   1.621 -0.1835  0.1933 -0.0013
  834MOL0     C12522   8.722  11.310   1.525 -0.6101  0.2244  0.2351
  834MOL0     H12523   8.867  11.627   1.642 -2.7932  2.7318 -3.1239
  834MOL0     H12524   8.971  11.826   1.734  1.4874 -0.2244  1.1273
  834MOL0     H12525   8.692  12.029   1.905 -0.2005 -1.6842 -0.7858
  834MOL0     H12526   8.802  12.164   1.958 -1.5114 -0.1785 -0.3265
  834MOL0     H12527   8.834  12.009   1.695  1.7143  0.8244 -0.6173
  834MOL0     H12528   8.917  12.156   1.731 -1.7352  3.2731 -2.0936
  834MOL0     H12529   8.607  12.136   1.698 -1.6874  1.9626  1.3984
  834MOL0     H12530   8.728  12.170   1.570 -0.4351  2.9535 -0.0117
  834MOL0     H12531   8.687  12.355   1.808 -2.1982 -1.0129  0.6157
  834MOL0     H12532   8.791  12.384   1.675  1.2585 -2.0211  0.7045
  834MOL0     H12533   8.610  12.497   1.610 -1.5961 -0.5183 -2.3578
  834MOL0     H12534   8.598  12.346   1.520  1.1485  0.7914 -0.7181
  834MOL0     H12535   8.450  12.246   1.670  1.5056 -0.0777  0.4124
  834MOL0     H12536   8.431  12.403   1.767 -1.6225  1.3769  0.1340
  834MOL0     H12537   8.359  12.354   1.484 -4.4600 -1.4193 -1.0416
  834MOL0     H12538   8.355  12.512   1.564  1.5827 -0.0844 -0.0580
  834MOL0     H12539   8.186  12.272   1.668  1.4937 -0.0549  1.6593
  834MOL0     H12540   8.161  12.441   1.686  3.8632  1.6588 -0.1449
  834MOL0     H12541   8.149  12.573   1.416 -2.0218  0.5374  1.8267
  834MOL0     H12542   7.884  12.496   1.155  1.2655 -0.9034 -1.2879
  834MOL0     H12543   7.982  12.621   1.224  0.4068 -1.5888  1.3808
  834MOL0     H12544   8.168  12.580   1.105 -0.5780  1.6919  1.3034
  834MOL0     H12545   8.125  12.425   1.053 -0.4592 -1.3015 -0.6853
  834MOL0     H12546   8.064  12.666   0.901 -2.9079 -0.4154 -2.5219
  834MOL0     H12547   7.912  12.623   0.956  0.6221  0.5874  2.4495
  834MOL0     H12548   7.952  12.399   0.895  0.4515  1.2555  1.2991
  834MOL0     H12549   8.112  12.436   0.826 -1.3906 -1.1867 -0.5504
  834MOL0     H12550   7.853  12.548   0.488  0.1576 -0.3530  2.2371
  834MOL0     H12551   7.617  12.591   0.426  2.1474 -0.5108 -0.6729
  834MOL0     H12552   7.211  12.391   0.573  1.0182  1.0326  1.4756
  834MOL0     H12553   6.983  12.373   0.493  2.1546 -0.1168  0.0817
  834MOL0     H12554   6.841  12.475   0.344  0.4082 -2.0624 -1.3496
  834MOL0     H12555   6.747  12.365   0.465  1.2410  1.3416  3.5367
  834MOL0     H12556   6.608  12.424   0.297  0.4211 -1.4394  1.7382
  834MOL0     H12557   6.563  12.520   0.441 -0.3179 -1.9061 -0.7186
  834MOL0     H12558   6.682  12.722   0.359  1.3921  1.5159 -0.5484
  834MOL0     H12559   6.710  12.656   0.204  1.6787  0.3354  0.9333
  834MOL0     H12560   6.444  12.713   0.353  0.8961  3.6422 -0.8151
  834MOL0     H12561   6.443  12.571   0.243  0.0956  1.3466  0.9849
  834MOL0     H12562   6.489  12.718   0.059 -3.4956 -1.7684 -0.9253
  834MOL0     H12563   6.512  12.862   0.158 -1.9553  1.6687  0.9362
  834MOL0     H12564   6.272  12.763   0.032  0.1651  0.2226  0.1594
  834MOL0     H12565   6.248  12.730   0.198 -0.8662  0.3368 -0.8918
  834MOL0     H12566   6.161  12.957   0.142 -0.0036  0.5004 -2.6091
  834MOL0     H12567   6.330  13.018   0.116 -0.8164  1.1674  0.1332
  834MOL0     H12568   6.381  12.960   0.355 -0.2198 -2.5280  0.7731
  834MOL0     H12569   6.243  13.075   0.345  1.2586 -0.6344  1.7127
  834MOL0     H12570   6.890  12.759   0.661 -0.0796 -1.3807  2.3449
  834MOL0     H12571   7.127  12.773   0.734  0.1719 -0.9692  1.4305
  834MOL0     H12572   7.513  12.554   0.845 -0.9589  0.0156 -0.5595
  834MOL0     H12573   7.744  12.519   0.898  3.0689  0.2631 -0.5099
  834MOL0     H12574   8.719  11.803   2.078 -0.7655 -0.3073 -0.0159
  834MOL0     H12575   8.636  11.595   2.017  1.6209  0.1525  1.2650
  834MOL0     H12576   8.452  11.178   1.901 -1.3552  1.2421  0.0679
  834MOL0     H12577   8.439  10.957   1.817 -3.6507  5.1687  1.2643
  834MOL0     H12578   8.658  10.770   1.469 -0.2953 -3.6729  0.4887
  834MOL0     H12579   8.528  10.884   1.398 -4.5887 -0.4016  1.1909
  834MOL0     H12580   8.487  10.683   1.336  0.8762  0.5279  0.6096
  834MOL0     H12581   8.353  10.712   1.455 -0.4790 -4.0804 -0.9128
  834MOL0     H12582   8.520  10.582   1.619  2.6403  0.1903 -1.0777
  834MOL0     H12583   8.590  10.541   1.462  0.6159  2.6636  0.4128
  834MOL0     H12584   8.301  10.492   1.512  0.1097  0.5260 -0.0886
  834MOL0     H12585   8.408  10.428   1.375  0.8562 -1.2964  0.0585
  834MOL0     H12586   8.511  10.173   1.694 -2.0435 -1.8033 -1.6776
  834MOL0     H12587   8.666  11.026   1.482 -0.8311  0.3539 -0.6978
  834MOL0     H12588   8.829  11.315   1.550  0.2338 -3.3995 -1.9309
  834MOL0     H12589   8.706  11.266   1.426  0.0580 -1.6208  0.9133
  834MOL0     H12590   8.686  11.414   1.525 -1.1382  0.0604 -0.8335
  835MOL0     O12591   0.560   0.647  10.724 -0.1472 -0.8309 -0.4826
  835MOL0     C12592   0.602   0.534  10.741  0.2410  0.7871 -1.5873
  835MOL0     O12593   0.632   0.485  10.862  1.0131  0.1625  0.4019
  835MOL0     C12594   0.602   0.569  10.971 -0.0739 -0.3302 -0.2715
  835MOL0     C12595   0.685   0.673  11.007 -0.4550 -0.2359 -0.2260
  835MOL0     C12596   0.661   0.740  11.131 -0.0833  0.3131 -0.4293
  835MOL0     C12597   0.554   0.701  11.211 -1.0733 -0.1776  0.2946
  835MOL0     O12598   0.518   0.762  11.334  0.5413  0.0734 -0.3795
  835MOL0     C12599   0.529   0.904  11.347  0.0804  0.4232  0.8125
  835MOL0     C12600   0.530   0.938  11.495  0.4971 -0.0701 -0.2412
  835MOL0     C12601   0.657   0.890  11.565  0.1382  0.3203 -0.1311
  835MOL0     C12602   0.620   0.830  11.709 -0.4169 -0.6540 -0.6214
  835MOL0     C12603   0.737   0.838  11.805 -0.1745 -0.8843  1.1513
  835MOL0     C12604   0.732   0.727  11.915 -0.4798  0.4104 -0.2882
  835MOL0     C12605   0.867   0.732  12.010  0.3545 -0.0402  0.0638
  835MOL0     C12606   0.988   0.672  11.947 -0.1245 -0.1181 -0.2726
  835MOL0     N12607   1.099   0.663  12.036 -0.7192 -0.6206  0.2916
  835MOL0     C12608   1.172   0.769  12.080  0.5230 -0.0215  0.5112
  835MOL0     C12609   1.252   0.714  12.184  0.2902  0.4583 -0.2130
  835MOL0     C12610   1.332   0.800  12.287  0.5903 -0.2006 -0.9934
  835MOL0     C12611   1.402   0.922  12.222  0.5603 -0.6188 -0.1569
  835MOL0     C12612   1.493   0.887  12.099  0.1732  0.5040  0.0049
  835MOL0     C12613   1.531   1.012  12.011  0.8140  0.3055  0.2246
  835MOL0     O12614   1.409   1.065  11.957  0.0208 -0.1870  0.3658
  835MOL0     C12615   1.400   1.193  11.912 -0.7647 -0.0814  0.7962
  835MOL0     C12616   1.511   1.278  11.898 -0.8505 -0.4271 -0.2785
  835MOL0     C12617   1.487   1.410  11.859 -0.8717  0.3194  0.3029
  835MOL0     C12618   1.365   1.457  11.812 -0.5652  1.3109 -1.1249
  835MOL0     C12619   1.345   1.590  11.752 -0.5795  0.1492  0.3488
  835MOL0     O12620   1.236   1.604  11.676  0.5910 -0.5198  0.0815
  835MOL0     C12621   1.190   1.725  11.624  0.4999 -0.4227  0.1903
  835MOL0     C12622   1.264   1.839  11.586  0.2639 -0.4657 -0.1361
  835MOL0     C12623   1.193   1.938  11.509 -0.1490 -0.7823  1.1325
  835MOL0     C12624   1.054   1.927  11.476 -0.4688  0.4963  0.7366
  835MOL0     O12625   1.001   2.012  11.384 -0.1024 -0.0776  0.2749
  835MOL0     C12626   0.864   2.012  11.331 -0.1053 -0.6998 -0.4140
  835MOL0     C12627   0.853   2.134  11.239  0.3619 -0.2447  1.2524
  835MOL0     C12628   0.710   2.158  11.184  0.3144 -0.6819  0.7035
  835MOL0     C12629   0.696   2.297  11.132 -0.3970  0.6570  0.7383
  835MOL0     C12630   0.562   2.317  11.055 -0.5657  0.3426 -0.3553
  835MOL0     C12631   0.445   2.362  11.146 -1.1309  0.0435  0.1044
  835MOL0     C12632   0.319   2.325  11.070  1.2252  0.9066  0.0786
  835MOL0     C12633   0.218   2.258  11.170  0.3349  0.0905  0.2956
  835MOL0    Cl12634   0.164   2.367  11.300 -0.1036  0.1349  0.2122
  835MOL0     C12635   0.994   1.812  11.517  0.0729  0.2110 -0.1530
  835MOL0     C12636   1.053   1.713  11.595  0.4320  0.1830  0.0945
  835MOL0     O12637   1.419   1.687  11.782 -1.4206 -0.2544  0.4150
  835MOL0     C12638   1.249   1.367  11.830 -0.4553  0.5998  0.0846
  835MOL0     C12639   1.271   1.230  11.878  0.3591 -0.4699  0.0241
  835MOL0     N12640   1.228   0.581  12.196 -0.5380  0.2300  0.2134
  835MOL0     N12641   1.133   0.556  12.111 -0.1116 -0.2973  0.0006
  835MOL0     C12642   0.473   0.595  11.176  0.6318 -0.8394 -0.1450
  835MOL0     C12643   0.502   0.525  11.059  0.4957 -0.3736  1.6307
  835MOL0     C12644   0.619   0.444  10.618  0.2806  0.8645  0.0184
  835MOL0     C12645   0.698   0.331  10.641  0.0331 -0.1532 -0.5904
  835MOL0     C12646   0.740   0.240  10.541  1.0004 -0.8337 -0.3104
  835MOL0     C12647   0.684   0.259  10.407 -1.2093  0.1668 -0.9248
  835MOL0     O12648   0.693   0.173  10.306  0.0948  1.0802 -0.2386
  835MOL0     C12649   0.767   0.048  10.313  0.1610 -0.2345  0.4333
  835MOL0     C12650   0.721  -0.054  10.212 -0.4830 -0.0277  0.2713
  835MOL0     C12651   0.808  -0.184  10.228  0.2039 -0.1306 -0.0415
  835MOL0     C12652   0.830  -0.261  10.096 -0.0232 -0.4647 -0.2251
  835MOL0     C12653   0.905  -0.183  10.000 -0.4960 -0.1180 -0.2751
  835MOL0     C12654   0.967  -0.125   9.917 -0.2159  0.4637  0.2256
  835MOL0     C12655   0.603   0.370  10.386  1.2465  0.5215  0.3945
  835MOL0     C12656   0.571   0.462  10.484 -0.2169  0.5045 -0.2332
  835MOL0     C12657   0.479   0.572  10.434 -0.5939  0.2063 -0.0740
  835MOL0     H12658   0.768   0.696  10.941 -0.1032 -5.0171 -1.8448
  835MOL0     H12659   0.720   0.823  11.170 -1.0191  0.0400  1.7300
  835MOL0     H12660   0.626   0.935  11.307 -0.4165  0.1072 -0.6881
  835MOL0     H12661   0.442   0.961  11.316  1.8191  2.8028  0.0003
  835MOL0     H12662   0.445   0.893  11.546  0.2391  2.9407  2.3379
  835MOL0     H12663   0.512   1.043  11.521 -4.3029 -1.1928  2.1092
  835MOL0     H12664   0.740   0.962  11.571  1.6566 -1.2979 -0.8260
  835MOL0     H12665   0.710   0.814  11.506 -0.4733  0.6078 -1.0626
  835MOL0     H12666   0.534   0.880  11.755 -1.4867  1.0224 -4.1284
  835MOL0     H12667   0.597   0.727  11.678 -0.0797 -1.2846  1.1237
  835MOL0     H12668   0.829   0.813  11.752  0.1539 -1.1094  1.8216
  835MOL0     H12669   0.746   0.937  11.852  0.8876 -0.4541  0.1046
  835MOL0     H12670   0.647   0.744  11.981 -1.0162  2.7554 -1.4631
  835MOL0     H12671   0.714   0.633  11.863  0.2732 -0.2269  0.5672
  835MOL0     H12672   0.839   0.676  12.099  2.6631  1.9258  2.1672
  835MOL0     H12673   0.893   0.837  12.027 -1.7332  1.0771 -2.7603
  835MOL0     H12674   0.979   0.573  11.901 -2.2521 -0.1591  0.1282
  835MOL0     H12675   1.013   0.738  11.863  2.8951 -1.3129 -0.4340
  835MOL0     H12676   1.152   0.871  12.047 -4.8194 -0.6254  0.9573
  835MOL0     H12677   1.257   0.830  12.361  1.2598  0.2394 -0.4794
  835MOL0     H12678   1.399   0.729  12.336 -3.2752 -5.2621 -2.1823
  835MOL0     H12679   1.327   0.998  12.197  1.3120  0.1982  0.0163
  835MOL0     H12680   1.462   0.968  12.300  0.6998 -0.9262 -0.0829
  835MOL0     H12681   1.459   0.808  12.031 -0.4298 -1.1920  2.1554
  835MOL0     H12682   1.588   0.855  12.143 -0.5694  0.3669  1.5690
  835MOL0     H12683   1.600   0.969  11.938  1.9381 -1.4509  2.2104
  835MOL0     H12684   1.574   1.081  12.085 -2.2478 -0.4734  2.9657
  835MOL0     H12685   1.607   1.257  11.945 -1.8969  1.3714  2.9940
  835MOL0     H12686   1.565   1.486  11.861  1.0999 -1.5988 -0.0041
  835MOL0     H12687   1.366   1.841  11.621  0.5389 -1.6555 -0.7984
  835MOL0     H12688   1.232   2.036  11.486 -2.0759 -0.5164 -1.4537
  835MOL0     H12689   0.841   1.916  11.283 -2.0388 -2.6523  3.8278
  835MOL0     H12690   0.793   2.033  11.411 -0.3174  0.0008 -0.7831
  835MOL0     H12691   0.890   2.225  11.288  1.8809  1.3732 -2.5142
  835MOL0     H12692   0.916   2.113  11.153  0.4505 -1.8566  1.6845
  835MOL0     H12693   0.691   2.078  11.112 -2.3484 -0.0748  0.6183
  835MOL0     H12694   0.639   2.151  11.267 -0.4986  3.5157  0.5885
  835MOL0     H12695   0.766   2.331  11.055  1.1372  0.2090  1.8812
  835MOL0     H12696   0.693   2.373  11.211  0.3184  0.8515  0.5827
  835MOL0     H12697   0.543   2.213  11.030  3.6880 -0.7316  0.1404
  835MOL0     H12698   0.565   2.379  10.965  1.7247  0.4550 -0.2708
  835MOL0     H12699   0.444   2.322  11.248 -4.0126 -0.5893 -0.0917
  835MOL0     H12700   0.437   2.470  11.157 -0.7182 -0.1075  2.2032
  835MOL0     H12701   0.334   2.260  10.984  0.2841  2.1425 -1.0787
  835MOL0     H12702   0.275   2.421  11.041  1.7988  0.6806 -1.6453
  835MOL0     H12703   0.122   2.229  11.128 -0.0812 -3.0677  2.9692
  835MOL0     H12704   0.258   2.165  11.212  1.6858  0.3072 -0.4507
  835MOL0     H12705   0.888   1.792  11.508  0.0817 -0.0619  0.3375
  835MOL0     H12706   0.993   1.628  11.626 -3.1585  2.6359  0.3202
  835MOL0     H12707   1.152   1.388  11.787 -0.1369 -0.9202 -1.5352
  835MOL0     H12708   1.190   1.158  11.890 -0.5988  0.4147 -0.9081
  835MOL0     H12709   0.388   0.575  11.239  0.9807 -0.0543  0.5994
  835MOL0     H12710   0.437   0.448  11.021 -2.1329  1.1693  2.6930
  835MOL0     H12711   0.733   0.307  10.741  1.7089 -4.0778 -1.8873
  835MOL0     H12712   0.805   0.154  10.556  2.7472  0.2482 -1.2846
  835MOL0     H12713   0.747   0.005  10.411 -1.6000  2.1963  1.2325
  835MOL0     H12714   0.872   0.069  10.289 -0.3047  0.6837 -0.9582
  835MOL0     H12715   0.728  -0.019  10.109  1.1226 -1.4216 -0.1464
  835MOL0     H12716   0.618  -0.076  10.241 -0.8700  2.8739  1.3728
  835MOL0     H12717   0.754  -0.240  10.304  2.1453  0.5760  1.9571
  835MOL0     H12718   0.904  -0.179  10.281 -0.2161 -0.1633  0.7294
  835MOL0     H12719   0.886  -0.349  10.129  0.1753 -0.0488  0.5882
  835MOL0     H12720   0.737  -0.288  10.045  0.6001  3.7095 -4.1644
  835MOL0     H12721   1.005  -0.070   9.833  0.2583 -0.3290 -0.0900
  835MOL0     H12722   0.560   0.366  10.286 -3.7613 -3.0228  2.2756
  835MOL0     H12723   0.538   0.644  10.378 -0.3863  1.4719  1.6744
  835MOL0     H12724   0.395   0.533  10.375 -2.3945  1.6459  1.3819
  835MOL0     H12725   0.431   0.624  10.518  0.4962 -1.7563  1.8682
  836MOL0     O12726   0.103   0.150  11.461 -0.1370 -0.0943 -0.3497
  836MOL0     C12727   0.169   0.254  11.451  0.1102 -0.5019 -0.5440
  836MOL0     O12728   0.300   0.263  11.443 -0.6524 -0.1600  0.2270
  836MOL0     C12729   0.404   0.177  11.457  0.0265 -0.7993 -0.0073
  836MOL0     C12730   0.528   0.238  11.479 -0.6718 -0.0697 -0.4969
  836MOL0     C12731   0.645   0.159  11.493 -0.2278  0.3471 -0.7337
  836MOL0     C12732   0.637   0.017  11.508  0.9440 -0.0230  0.7459
  836MOL0     O12733   0.745  -0.049  11.541 -0.5702  1.0800  0.6559
  836MOL0     C12734   0.769  -0.192  11.508 -0.1022  0.3573  0.8196
  836MOL0     C12735   0.923  -0.211  11.532  0.3267 -0.0090  0.5961
  836MOL0     C12736   1.010  -0.222  11.407 -0.3852  1.2345 -1.0131
  836MOL0     C12737   1.004  -0.350  11.324 -0.2657 -0.1061 -1.2170
  836MOL0     C12738   1.013  -0.335  11.179  0.7379 -0.8398  0.2737
  836MOL0     C12739   0.993  -0.465  11.112  0.3670 -0.2908  0.8150
  836MOL0     C12740   0.990  -0.450  10.965  0.1729 -0.3577 -0.3233
  836MOL0     C12741   1.015  -0.589  10.902  0.9150 -0.1173 -0.8959
  836MOL0     N12742   0.934  -0.617  10.780 -0.5057 -0.4690 -0.6676
  836MOL0     C12743   0.968  -0.695  10.670  0.1065 -0.6416  0.4272
  836MOL0     C12744   0.851  -0.706  10.600 -0.2068  0.1795 -0.0023
  836MOL0     C12745   0.828  -0.808  10.491 -0.1523 -0.9086  0.1389
  836MOL0     C12746   0.821  -0.756  10.353  0.2153  0.4723 -0.2909
  836MOL0     C12747   0.747  -0.865  10.272 -0.0208 -0.1469 -0.6718
  836MOL0     C12748   0.721  -0.816  10.127  1.0304 -0.8389 -1.0867
  836MOL0     O12749   0.738  -0.917  10.027  0.1489 -0.8996 -0.5226
  836MOL0     C12750   0.856  -0.939   9.964 -0.3465 -0.9349 -0.7896
  836MOL0     C12751   0.852  -1.043   9.878 -1.1760 -0.6709 -0.6503
  836MOL0     C12752   0.966  -1.077   9.810 -0.0340 -1.1151 -0.4067
  836MOL0     C12753   1.082  -0.999   9.813 -0.2310  0.2664 -0.1546
  836MOL0     C12754   1.197  -1.032   9.736  0.9133 -0.8489 -0.0432
  836MOL0     O12755   1.303  -0.944   9.759  0.3892 -0.1160 -0.0552
  836MOL0     C12756   1.411  -0.950   9.678 -0.6695  0.4708  0.3896
  836MOL0     C12757   1.525  -0.917   9.744  0.0315  0.2882 -1.0195
  836MOL0     C12758   1.643  -0.903   9.672 -0.2730  1.6336  0.7037
  836MOL0     C12759   1.651  -0.923   9.533 -1.1775 -0.6401 -0.2673
  836MOL0     O12760   1.768  -0.894   9.470  0.6872 -0.1859 -0.3174
  836MOL0     C12761   1.782  -0.900   9.326  0.4377  0.5815  0.7786
  836MOL0     C12762   1.896  -1.005   9.285 -0.1430 -0.8601  0.0435
  836MOL0     C12763   2.024  -0.997   9.374 -0.2489 -0.4349 -0.2346
  836MOL0     C12764   2.098  -1.129   9.366  0.0278 -0.5205 -1.1795
  836MOL0     C12765   2.247  -1.106   9.423  1.3540  0.6687 -0.0442
  836MOL0     C12766   2.320  -1.243   9.459  0.7051 -0.0903 -0.4214
  836MOL0     C12767   2.428  -1.217   9.557  0.3195 -0.2457  0.0031
  836MOL0     C12768   2.570  -1.160   9.494  0.8686  0.1998  1.0695
  836MOL0    Cl12769   2.621  -1.279   9.374  0.4380  0.0620  0.1663
  836MOL0     C12770   1.535  -0.975   9.472 -0.2053 -0.5805  0.7421
  836MOL0     C12771   1.422  -0.986   9.542 -0.6815  1.3885 -1.0175
  836MOL0     O12772   1.198  -1.128   9.661  0.6701  0.0672  0.9958
  836MOL0     C12773   1.072  -0.875   9.888  0.1712 -0.0701  0.8833
  836MOL0     C12774   0.968  -0.854   9.968  0.4555  0.5290 -0.9780
  836MOL0     N12775   0.751  -0.634  10.658 -0.1729 -0.9141  0.9742
  836MOL0     N12776   0.803  -0.576  10.760 -0.7015 -0.3896  0.0554
  836MOL0     C12777   0.506  -0.036  11.485  0.1105 -0.0562 -1.4551
  836MOL0     C12778   0.394   0.046  11.461  0.0453 -0.1226 -0.2210
  836MOL0     C12779   0.097   0.384  11.467 -0.7193 -0.7612  0.4091
  836MOL0     C12780   0.168   0.503  11.452 -0.1061  0.5073  0.9908
  836MOL0     C12781   0.100   0.625  11.441  0.5386 -0.6840 -0.1010
  836MOL0     C12782  -0.039   0.638  11.443 -0.8424 -0.6713  0.2367
  836MOL0     O12783  -0.084   0.769  11.421 -0.6744  0.0338  0.2453
  836MOL0     C12784  -0.194   0.797  11.509 -0.3935 -1.1961 -0.3998
  836MOL0     C12785  -0.208   0.955  11.498  0.3170 -0.2539 -0.5202
  836MOL0     C12786  -0.310   1.018  11.594 -0.0928 -0.6601 -0.4014
  836MOL0     C12787  -0.367   1.158  11.543 -1.0093 -0.0023  0.4094
  836MOL0     C12788  -0.449   1.154  11.419 -0.9458 -0.1857  1.1116
  836MOL0     C12789  -0.511   1.136  11.313  0.0902 -0.7652 -0.1369
  836MOL0     C12790  -0.106   0.522  11.474  0.6237  0.6456 -0.3716
  836MOL0     C12791  -0.044   0.400  11.486  0.4639  0.2248 -0.4788
  836MOL0     C12792  -0.139   0.278  11.511  0.2041  0.1433  0.8242
  836MOL0     H12793   0.532   0.347  11.473  4.4324 -0.0660 -1.6123
  836MOL0     H12794   0.745   0.193  11.521 -0.7241 -0.3242  2.1208
  836MOL0     H12795   0.727  -0.255  11.587  0.1668  1.4521  1.8645
  836MOL0     H12796   0.725  -0.224  11.413 -1.4412  0.8682  1.2444
  836MOL0     H12797   0.950  -0.281  11.612  2.5600  1.6962  1.4703
  836MOL0     H12798   0.960  -0.126  11.589 -0.8780 -0.9312  2.8916
  836MOL0     H12799   1.114  -0.220  11.441 -0.6984  0.7216  0.0355
  836MOL0     H12800   0.998  -0.140  11.337 -0.2009  0.3251 -2.1397
  836MOL0     H12801   1.078  -0.424  11.353 -1.0230 -0.8746 -1.2006
  836MOL0     H12802   0.907  -0.394  11.351  0.7688 -1.5103  0.4454
  836MOL0     H12803   0.940  -0.260  11.147  0.6520 -0.2789  1.6980
  836MOL0     H12804   1.116  -0.304  11.157 -0.1024  1.2869 -0.9386
  836MOL0     H12805   1.080  -0.528  11.132  0.2512 -0.2945  1.3056
  836MOL0     H12806   0.900  -0.509  11.147 -1.4768  2.8224  0.2685
  836MOL0     H12807   1.067  -0.384  10.924 -0.0852 -0.1133 -0.4147
  836MOL0     H12808   0.892  -0.406  10.942 -0.3391 -0.9260  0.7407
  836MOL0     H12809   1.121  -0.594  10.873  0.8645 -0.6887 -0.9921
  836MOL0     H12810   0.989  -0.664  10.977  0.3043  0.0499 -0.9331
  836MOL0     H12811   1.049  -0.765  10.649 -0.4913 -1.0555 -0.6108
  836MOL0     H12812   0.903  -0.888  10.494 -0.1647 -0.9679 -0.7798
  836MOL0     H12813   0.733  -0.850  10.524  0.1786  0.0983  2.5852
  836MOL0     H12814   0.759  -0.666  10.360  0.4134  0.4727  2.3605
  836MOL0     H12815   0.922  -0.732  10.318  0.0438  0.2974 -0.9319
  836MOL0     H12816   0.647  -0.892  10.308 -1.2972  2.8682 -1.6607
  836MOL0     H12817   0.813  -0.952  10.265 -2.5536 -2.0354 -3.0898
  836MOL0     H12818   0.773  -0.722  10.106 -0.9989  0.0364 -2.5591
  836MOL0     H12819   0.615  -0.787  10.126  0.9165 -0.7892  2.1049
  836MOL0     H12820   0.761  -1.101   9.884 -1.9947  0.6587  0.3923
  836MOL0     H12821   0.946  -1.161   9.743 -1.5938 -4.7134  4.0458
  836MOL0     H12822   1.526  -0.914   9.853 -1.6472 -2.2604 -0.8581
  836MOL0     H12823   1.730  -0.867   9.726  0.9288  0.9855 -0.7722
  836MOL0     H12824   1.696  -0.914   9.259 -0.3216  0.7770  1.6867
  836MOL0     H12825   1.822  -0.801   9.303  0.4353  0.4220  0.0646
  836MOL0     H12826   1.849  -1.104   9.282  0.3519 -1.0745 -1.5790
  836MOL0     H12827   1.928  -0.985   9.182 -0.0820  1.6742  0.4989
  836MOL0     H12828   2.085  -0.914   9.339 -1.0303 -0.4628 -1.7351
  836MOL0     H12829   1.998  -0.985   9.480 -1.4089  1.2824 -0.6668
  836MOL0     H12830   2.097  -1.160   9.261  0.2471  0.3623 -1.4485
  836MOL0     H12831   2.053  -1.205   9.430  2.7147  0.4269  2.0897
  836MOL0     H12832   2.227  -1.044   9.511  0.3265 -0.2187  0.3721
  836MOL0     H12833   2.309  -1.043   9.359 -0.7521  1.9250 -0.9736
  836MOL0     H12834   2.253  -1.317   9.504  2.0374 -0.1661  1.5793
  836MOL0     H12835   2.363  -1.282   9.367  0.4865 -1.1384 -0.0977
  836MOL0     H12836   2.455  -1.316   9.595  0.9691  0.4770  1.5323
  836MOL0     H12837   2.402  -1.158   9.646  1.8499 -0.4717  0.6310
  836MOL0     H12838   2.569  -1.070   9.432  0.3026 -1.8996 -2.1979
  836MOL0     H12839   2.646  -1.155   9.573  2.9849  0.2795 -0.8622
  836MOL0     H12840   1.531  -0.986   9.364 -1.2300  2.9527  0.2730
  836MOL0     H12841   1.347  -1.043   9.488  0.6356 -2.9007  1.2051
  836MOL0     H12842   1.153  -0.805   9.907 -1.8806  2.0620  2.3494
  836MOL0     H12843   0.957  -0.777  10.044 -3.4646 -2.5630  2.0690
  836MOL0     H12844   0.494  -0.143  11.493 -0.4900  0.1330  1.3479
  836MOL0     H12845   0.308  -0.013  11.432 -0.5638  1.0526 -0.9214
  836MOL0     H12846   0.276   0.511  11.453 -0.0409  0.4170 -1.2383
  836MOL0     H12847   0.165   0.710  11.423  0.9036 -1.4103 -2.6876
  836MOL0     H12848  -0.146   0.784  11.606  0.7156 -0.4749 -0.8368
  836MOL0     H12849  -0.287   0.739  11.502 -0.9232 -0.5497  0.8553
  836MOL0     H12850  -0.224   0.987  11.395 -0.5051  0.4768 -0.1834
  836MOL0     H12851  -0.107   0.986  11.527 -0.3681  0.2943  1.4943
  836MOL0     H12852  -0.275   1.015  11.697 -0.0769  0.2205 -0.3709
  836MOL0     H12853  -0.400   0.958  11.602  1.5968 -3.6144 -1.9182
  836MOL0     H12854  -0.433   1.208  11.615 -0.1764  0.4670  0.8734
  836MOL0     H12855  -0.274   1.215  11.532 -1.9594  1.1353 -2.8071
  836MOL0     H12856  -0.581   1.111  11.236  0.1886  1.1531 -0.9064
  836MOL0     H12857  -0.214   0.522  11.473  0.6064 -0.4296  0.2138
  836MOL0     H12858  -0.174   0.238  11.416 -2.8403 -0.7211  2.2147
  836MOL0     H12859  -0.100   0.191  11.564  3.0585 -0.6130 -2.1595
  836MOL0     H12860  -0.226   0.316  11.566 -2.0827 -2.5974 -0.6766
  837MOL0     O12861   8.474   8.640   2.545  0.1943 -0.6452  0.5339
  837MOL0     C12862   8.539   8.745   2.548 -0.0063 -0.5480  0.5561
  837MOL0     O12863   8.602   8.806   2.432 -0.8325 -0.0098  0.4406
  837MOL0     C12864   8.553   8.771   2.306  0.4662 -0.4771  0.3069
  837MOL0     C12865   8.414   8.769   2.279  0.8525  0.0193  0.2225
  837MOL0     C12866   8.362   8.719   2.156  0.3216  0.6956  0.0204
  837MOL0     C12867   8.449   8.674   2.055 -0.3039  0.0096  0.1089
  837MOL0     O12868   8.387   8.629   1.939 -0.5069 -0.3886  0.0931
  837MOL0     C12869   8.460   8.668   1.813  0.1241  1.1199  0.8776
  837MOL0     C12870   8.403   8.584   1.698 -0.0516 -0.4391 -0.1220
  837MOL0     C12871   8.437   8.427   1.702  0.0038 -0.8113  0.3887
  837MOL0     C12872   8.583   8.402   1.704 -0.1053  0.2223  0.4200
  837MOL0     C12873   8.598   8.254   1.664 -0.8285  0.3687  0.3033
  837MOL0     C12874   8.720   8.184   1.713 -1.4539 -0.1272 -0.8655
  837MOL0     C12875   8.854   8.251   1.676  1.0164 -0.4289 -0.4457
  837MOL0     C12876   8.875   8.274   1.530 -0.1638  0.2092 -0.3491
  837MOL0     N12877   8.887   8.152   1.448 -0.0005  0.0797 -0.0729
  837MOL0     C12878   8.970   8.047   1.470  0.0870  0.5619 -0.6329
  837MOL0     C12879   8.972   7.979   1.346  0.4441 -0.3297 -0.6496
  837MOL0     C12880   9.032   7.852   1.312 -0.2239  0.1784 -0.6204
  837MOL0     C12881   9.169   7.836   1.351 -0.5379 -0.2808  0.1204
  837MOL0     C12882   9.255   7.939   1.266  0.5237 -1.0517 -0.9984
  837MOL0     C12883   9.395   7.887   1.255  0.1186 -0.2617 -0.5581
  837MOL0     O12884   9.443   7.870   1.396  0.3749  0.3814  0.2395
  837MOL0     C12885   9.521   7.960   1.459 -1.1915 -1.4037 -0.4666
  837MOL0     C12886   9.573   7.904   1.581 -1.0559 -0.6364 -0.0561
  837MOL0     C12887   9.660   7.984   1.660 -0.8210 -0.3080 -0.1573
  837MOL0     C12888   9.693   8.119   1.619 -0.2293 -0.1791 -0.8786
  837MOL0     C12889   9.785   8.197   1.701 -0.2538 -0.4192  0.6259
  837MOL0     O12890   9.800   8.331   1.669  0.7573  0.6673  0.2466
  837MOL0     C12891   9.893   8.419   1.735 -0.2069  0.3383 -0.6992
  837MOL0     C12892   9.989   8.391   1.843  1.1250  0.2169 -0.1720
  837MOL0     C12893  10.067   8.496   1.900 -0.5985 -0.6238 -0.4002
  837MOL0     C12894  10.059   8.626   1.847 -0.1228  0.1233  0.3467
  837MOL0     O12895  10.142   8.729   1.902 -0.6207 -0.5157  0.7317
  837MOL0     C12896  10.137   8.732   2.054 -0.4957  0.2587 -0.1317
  837MOL0     C12897  10.195   8.855   2.111  0.0048  0.6471 -0.1129
  837MOL0     C12898  10.338   8.889   2.063 -0.5817  0.4026  0.2394
  837MOL0     C12899  10.383   9.020   2.124  0.2651  0.2785  0.2984
  837MOL0     C12900  10.529   9.046   2.099 -0.1865  0.5468 -0.1132
  837MOL0     C12901  10.591   9.144   2.197 -0.1174 -0.3459 -0.7086
  837MOL0     C12902  10.746   9.156   2.172  1.0067 -0.0601  0.7512
  837MOL0     C12903  10.793   9.276   2.249 -0.0926  0.0129 -0.3734
  837MOL0    Cl12904  10.831   9.234   2.428  0.3284  0.0468  0.1334
  837MOL0     C12905   9.968   8.651   1.740  0.0577  0.0965  0.5797
  837MOL0     C12906   9.888   8.551   1.689 -0.4435  0.4622  0.4862
  837MOL0     O12907   9.845   8.129   1.785 -0.2138 -0.3419  0.0546
  837MOL0     C12908   9.634   8.171   1.502 -0.2253 -0.6262 -0.1452
  837MOL0     C12909   9.552   8.093   1.420 -0.0917 -0.2413 -0.0041
  837MOL0     N12910   8.886   8.041   1.254 -0.2811  0.2263 -0.4317
  837MOL0     N12911   8.835   8.143   1.319 -0.2955  0.3396 -0.4373
  837MOL0     C12912   8.589   8.677   2.087 -0.5198  0.2894  0.5526
  837MOL0     C12913   8.634   8.720   2.210  0.8610  0.3672 -0.4059
  837MOL0     C12914   8.560   8.806   2.680  0.6006  0.0090 -0.5834
  837MOL0     C12915   8.490   8.750   2.799 -0.1006 -0.3618  0.6267
  837MOL0     C12916   8.508   8.799   2.934 -0.5956  1.4036  0.8259
  837MOL0     C12917   8.595   8.910   2.946  0.2424 -0.2591 -0.2583
  837MOL0     O12918   8.620   8.955   3.065 -0.3594  0.3507 -0.5374
  837MOL0     C12919   8.516   8.990   3.151  1.2391  0.3992  0.5503
  837MOL0     C12920   8.488   9.138   3.143 -0.0413  0.2136  1.0494
  837MOL0     C12921   8.590   9.238   3.195  0.2483 -0.0137  0.9331
  837MOL0     C12922   8.690   9.272   3.076 -0.2419 -0.6171 -0.5551
  837MOL0     C12923   8.794   9.363   3.117 -0.2776 -0.4052 -0.6607
  837MOL0     C12924   8.875   9.445   3.144 -1.5206  0.6750  1.6130
  837MOL0     C12925   8.664   8.972   2.836 -0.1050 -0.0745 -0.3989
  837MOL0     C12926   8.644   8.916   2.706 -0.4870 -0.5236 -0.6725
  837MOL0     C12927   8.744   8.978   2.607 -0.6217 -0.9875 -0.0497
  837MOL0     H12928   8.342   8.790   2.357  0.8920  4.0650 -0.6393
  837MOL0     H12929   8.256   8.722   2.133 -0.4273 -0.9721  2.8377
  837MOL0     H12930   8.452   8.777   1.801  2.2284  1.4096  1.7345
  837MOL0     H12931   8.566   8.641   1.812  0.2228  0.6327 -4.2767
  837MOL0     H12932   8.462   8.624   1.615  0.4185  1.2883  0.9813
  837MOL0     H12933   8.296   8.604   1.689  0.0523  0.8367  1.0868
  837MOL0     H12934   8.392   8.389   1.610  1.3568  0.0045 -0.6512
  837MOL0     H12935   8.390   8.380   1.789 -1.2307  1.6900  1.1370
  837MOL0     H12936   8.647   8.445   1.626 -1.8366  0.1561 -1.1129
  837MOL0     H12937   8.618   8.418   1.806  0.3580  0.9693  0.1501
  837MOL0     H12938   8.507   8.194   1.675 -0.4811  0.1138  2.0547
  837MOL0     H12939   8.614   8.269   1.557  0.9812 -2.2021  0.1380
  837MOL0     H12940   8.704   8.180   1.821 -1.8454  0.0207 -0.9184
  837MOL0     H12941   8.724   8.077   1.693 -1.1285 -0.7607  2.0265
  837MOL0     H12942   8.928   8.188   1.726 -0.8241 -0.4630  2.4448
  837MOL0     H12943   8.851   8.352   1.718 -2.6717 -0.6606  0.1849
  837MOL0     H12944   8.809   8.347   1.482  0.7146  2.0785  1.1579
  837MOL0     H12945   8.979   8.306   1.526  0.2988 -1.3019 -3.1146
  837MOL0     H12946   9.029   8.023   1.558  0.5391 -1.0700 -1.3379
  837MOL0     H12947   8.981   7.770   1.363  1.8312  0.2223  1.7317
  837MOL0     H12948   9.031   7.840   1.204 -2.0988  1.2270 -0.7607
  837MOL0     H12949   9.194   7.867   1.453 -0.5084  0.8175 -0.2100
  837MOL0     H12950   9.216   7.740   1.330  0.4651  0.6064 -2.0475
  837MOL0     H12951   9.260   8.033   1.322  1.4868  0.7552 -3.8868
  837MOL0     H12952   9.212   7.980   1.174 -4.1063  3.8349  2.6954
  837MOL0     H12953   9.446   7.960   1.192 -2.8711 -0.3045 -3.2549
  837MOL0     H12954   9.393   7.797   1.193 -1.1456 -0.1527 -0.6889
  837MOL0     H12955   9.543   7.804   1.610  2.4913 -1.7535  0.1575
  837MOL0     H12956   9.673   7.937   1.757 -2.9717 -1.5080 -0.3945
  837MOL0     H12957  10.000   8.288   1.877 -2.8561  0.1628  1.6121
  837MOL0     H12958  10.143   8.470   1.972 -1.3355 -0.7746  0.3448
  837MOL0     H12959  10.034   8.730   2.089  0.1219  1.0159  1.8280
  837MOL0     H12960  10.192   8.645   2.092 -2.5171 -0.8543  0.3935
  837MOL0     H12961  10.131   8.941   2.087 -3.2453 -1.7636 -0.6273
  837MOL0     H12962  10.207   8.842   2.219 -0.5822  0.9413 -0.0092
  837MOL0     H12963  10.402   8.809   2.101 -1.0691  0.2194  0.6814
  837MOL0     H12964  10.350   8.900   1.955  1.4542  2.1952  0.5722
  837MOL0     H12965  10.365   9.018   2.232 -1.4923  0.8437  0.0374
  837MOL0     H12966  10.330   9.101   2.072 -0.4465  0.8206  1.8147
  837MOL0     H12967  10.556   9.073   1.996 -1.7985 -2.3932 -1.4472
  837MOL0     H12968  10.587   8.954   2.112  2.4124  2.1893  0.7853
  837MOL0     H12969  10.544   9.242   2.195  1.3292  0.5759  3.1748
  837MOL0     H12970  10.584   9.116   2.302  0.1439  2.6802  0.1975
  837MOL0     H12971  10.749   9.173   2.064 -0.3757  3.6174  1.1441
  837MOL0     H12972  10.802   9.066   2.201  3.7873  0.8367 -1.3671
  837MOL0     H12973  10.888   9.310   2.207 -0.3650  1.1501 -0.1087
  837MOL0     H12974  10.716   9.353   2.234 -0.6353  0.3775  3.2442
  837MOL0     H12975   9.949   8.744   1.688 -2.4158 -1.3315 -1.3321
  837MOL0     H12976   9.817   8.572   1.609 -1.7787  0.6834  1.6976
  837MOL0     H12977   9.653   8.267   1.455 -0.1281 -0.8531 -0.5738
  837MOL0     H12978   9.523   8.153   1.335 -2.1354  0.2166  0.9358
  837MOL0     H12979   8.661   8.632   2.019 -1.3328 -1.9707  1.0858
  837MOL0     H12980   8.740   8.704   2.228  1.3104  2.4912 -0.9281
  837MOL0     H12981   8.419   8.671   2.781 -1.0395 -0.4934  4.1898
  837MOL0     H12982   8.454   8.755   3.017 -0.0972 -0.6922  0.1002
  837MOL0     H12983   8.540   8.969   3.256 -0.5496  2.6028  1.4834
  837MOL0     H12984   8.422   8.943   3.120  0.7979  1.7199 -0.1690
  837MOL0     H12985   8.395   9.157   3.197  0.0171 -2.9260  2.4743
  837MOL0     H12986   8.466   9.162   3.039 -1.1155  3.4072  1.9010
  837MOL0     H12987   8.644   9.208   3.285  1.7536  3.1411  1.2197
  837MOL0     H12988   8.531   9.329   3.214  1.2736  1.3314 -1.6785
  837MOL0     H12989   8.730   9.184   3.025 -2.8965 -0.0211 -4.0789
  837MOL0     H12990   8.640   9.341   3.006  2.1281 -0.8668 -2.6382
  837MOL0     H12991   8.946   9.519   3.174  0.3886 -0.5306  0.2672
  837MOL0     H12992   8.733   9.052   2.858 -0.1845 -0.1003 -0.0489
  837MOL0     H12993   8.698   9.025   2.520 -1.4599 -1.1599  0.2939
  837MOL0     H12994   8.809   9.048   2.661  0.6776 -0.3349 -2.3405
  837MOL0     H12995   8.811   8.902   2.566  2.0950  0.8220  0.7350
  838MOL0     O12996   7.460   8.588   7.548 -0.8801 -0.0241  0.2503
  838MOL0     C12997   7.491   8.470   7.582  0.0637  0.2997 -0.1168
  838MOL0     O12998   7.593   8.402   7.530 -0.2877  1.0865  0.4680
  838MOL0     C12999   7.649   8.464   7.419  0.7254 -0.1512 -0.3473
  838MOL0     C13000   7.773   8.536   7.409  0.2273  0.7684  0.2995
  838MOL0     C13001   7.809   8.582   7.281  0.0490  0.4603 -0.3281
  838MOL0     C13002   7.729   8.567   7.163 -1.1471 -0.3285  0.1344
  838MOL0     O13003   7.788   8.612   7.048  0.6397  0.2102  0.2401
  838MOL0     C13004   7.703   8.631   6.931  0.1638  0.1418  0.3588
  838MOL0     C13005   7.752   8.759   6.858 -0.0696  1.1889  0.6872
  838MOL0     C13006   7.686   8.792   6.720  1.4497  0.4323 -0.2354
  838MOL0     C13007   7.558   8.718   6.698 -0.5335  0.2219 -0.6998
  838MOL0     C13008   7.489   8.767   6.575  0.7098  0.2662 -0.6660
  838MOL0     C13009   7.381   8.670   6.546  0.5235  1.2953  0.2142
  838MOL0     C13010   7.300   8.697   6.417  0.2129 -1.1040  0.2287
  838MOL0     C13011   7.187   8.589   6.406 -0.1785 -0.5184  0.2414
  838MOL0     N13012   7.099   8.617   6.298 -0.8064 -0.0231  0.7293
  838MOL0     C13013   7.119   8.589   6.161  0.1428 -0.5932 -0.2562
  838MOL0     C13014   7.021   8.646   6.087 -0.8714  0.0770  0.0170
  838MOL0     C13015   7.001   8.633   5.948 -1.1405  0.4861  1.2018
  838MOL0     C13016   7.130   8.634   5.861 -0.1979 -0.2420 -0.3610
  838MOL0     C13017   7.082   8.648   5.716  0.9161  1.1691 -0.2548
  838MOL0     C13018   7.198   8.649   5.616  1.1551  1.3280  0.4029
  838MOL0     O13019   7.132   8.613   5.487 -0.1792  0.2896 -0.3073
  838MOL0     C13020   7.207   8.640   5.374  0.3693  0.2318  0.1070
  838MOL0     C13021   7.164   8.575   5.257 -0.4766 -0.0321 -0.6578
  838MOL0     C13022   7.231   8.581   5.136 -0.3281 -0.1691 -0.2492
  838MOL0     C13023   7.356   8.654   5.123  0.4607  0.4739 -0.6530
  838MOL0     C13024   7.424   8.682   4.996  0.1709 -0.4533 -0.1614
  838MOL0     O13025   7.368   8.621   4.886 -0.0244  0.2680 -0.4228
  838MOL0     C13026   7.431   8.642   4.762  1.0755 -0.2250 -0.9081
  838MOL0     C13027   7.481   8.536   4.691 -0.5342  0.8251  0.6207
  838MOL0     C13028   7.527   8.557   4.556 -0.5162  0.1278 -1.0173
  838MOL0     C13029   7.534   8.689   4.509 -1.3525 -0.3278 -1.1067
  838MOL0     O13030   7.584   8.709   4.389 -1.0392 -0.2243 -0.4372
  838MOL0     C13031   7.493   8.696   4.277  0.2278 -0.5542 -0.3971
  838MOL0     C13032   7.550   8.728   4.140  0.2432 -0.2511  0.6209
  838MOL0     C13033   7.438   8.749   4.038  1.1195 -0.1196 -1.0541
  838MOL0     C13034   7.486   8.826   3.918 -0.9548  0.4613  0.0513
  838MOL0     C13035   7.394   8.845   3.801 -0.0370 -0.3345 -0.1298
  838MOL0     C13036   7.250   8.888   3.838 -1.1680 -0.1764  0.2298
  838MOL0     C13037   7.152   8.841   3.723  0.1631 -0.5320 -0.0221
  838MOL0     C13038   7.002   8.870   3.774  0.1794  0.8109 -0.1513
  838MOL0    Cl13039   6.892   8.822   3.648 -0.0511 -0.3152 -0.1435
  838MOL0     C13040   7.488   8.798   4.584 -0.6343  0.5150 -0.1124
  838MOL0     C13041   7.439   8.768   4.710  0.6378  0.4038  0.1792
  838MOL0     O13042   7.533   8.734   5.009  0.0304 -0.1139  0.5256
  838MOL0     C13043   7.404   8.707   5.245 -0.1950 -0.4325 -0.6285
  838MOL0     C13044   7.337   8.701   5.368 -0.7000  0.1668 -0.1215
  838MOL0     N13045   6.941   8.713   6.177 -0.9565  0.3338  0.5684
  838MOL0     N13046   6.989   8.693   6.297  0.4724  0.0617 -0.9455
  838MOL0     C13047   7.616   8.485   7.176  0.1652 -0.2840  0.2468
  838MOL0     C13048   7.578   8.437   7.296  0.6845  0.5246 -0.5957
  838MOL0     C13049   7.392   8.399   7.662  0.9133 -0.4967  0.3841
  838MOL0     C13050   7.392   8.259   7.643  0.1411  0.3465  0.5891
  838MOL0     C13051   7.298   8.181   7.711 -0.1305  0.0776  0.0472
  838MOL0     C13052   7.209   8.236   7.805  0.1256  0.6135 -1.1132
  838MOL0     O13053   7.115   8.171   7.884  0.8052  0.0368  0.9507
  838MOL0     C13054   7.157   8.063   7.965 -0.6430  0.5737 -0.0172
  838MOL0     C13055   7.085   8.040   8.092 -0.3381 -0.4820  0.0410
  838MOL0     C13056   6.941   7.998   8.064  0.1007 -0.3611 -0.1491
  838MOL0     C13057   6.938   7.848   8.021  0.0676  0.6970 -0.1508
  838MOL0     C13058   6.811   7.798   7.983  0.2667  0.9701 -0.4836
  838MOL0     C13059   6.709   7.733   7.948  0.5007 -0.5985  0.3200
  838MOL0     C13060   7.202   8.371   7.808 -0.5142 -0.3666 -0.0512
  838MOL0     C13061   7.289   8.457   7.744 -0.8730  0.3019 -0.8745
  838MOL0     C13062   7.275   8.606   7.759 -0.1524 -0.9362  0.4664
  838MOL0     H13063   7.825   8.541   7.505 -1.1288 -1.7625  1.2809
  838MOL0     H13064   7.902   8.637   7.272  1.3831 -1.7740 -1.0407
  838MOL0     H13065   7.692   8.544   6.866 -1.1540 -2.1952  3.4316
  838MOL0     H13066   7.601   8.655   6.963  0.2087  1.2021 -0.2572
  838MOL0     H13067   7.857   8.747   6.830  0.5117  1.5697  2.5671
  838MOL0     H13068   7.741   8.839   6.932 -1.7216  4.0253 -2.3749
  838MOL0     H13069   7.761   8.798   6.641  0.4288  0.7487 -1.2132
  838MOL0     H13070   7.662   8.898   6.734  2.0364  0.6067 -0.5129
  838MOL0     H13071   7.580   8.611   6.695  2.2056  0.4347  3.1663
  838MOL0     H13072   7.505   8.751   6.788  2.2230 -1.4978  1.7656
  838MOL0     H13073   7.445   8.865   6.597  1.1293 -0.1370  2.3237
  838MOL0     H13074   7.553   8.788   6.488  1.0813  0.4347 -0.3582
  838MOL0     H13075   7.422   8.568   6.541 -3.5794 -0.5310 -0.9789
  838MOL0     H13076   7.319   8.676   6.636 -0.0643 -1.4031  0.0929
  838MOL0     H13077   7.379   8.686   6.343  0.7165 -0.7367  0.7049
  838MOL0     H13078   7.248   8.794   6.418 -3.0195 -2.6831 -0.5186
  838MOL0     H13079   7.235   8.491   6.393  2.1453  0.6251 -0.1629
  838MOL0     H13080   7.147   8.597   6.508  2.8955  0.8800  1.4567
  838MOL0     H13081   7.195   8.521   6.124  0.8735 -0.3741  0.8030
  838MOL0     H13082   6.949   8.537   5.934  0.8001 -0.8786  2.7984
  838MOL0     H13083   6.927   8.706   5.912  0.5566  1.6485 -0.0887
  838MOL0     H13084   7.198   8.715   5.889  2.2918 -2.5264  0.7454
  838MOL0     H13085   7.182   8.537   5.869 -0.0908 -0.1980 -0.5249
  838MOL0     H13086   7.031   8.742   5.693  0.7859  0.7464 -1.7858
  838MOL0     H13087   7.023   8.557   5.706  0.3110  1.5412 -0.1069
  838MOL0     H13088   7.276   8.573   5.631 -0.7989 -0.5357  1.8105
  838MOL0     H13089   7.252   8.743   5.612 -0.7994  2.4641 -0.7929
  838MOL0     H13090   7.074   8.515   5.265 -0.5207 -0.0181 -1.0113
  838MOL0     H13091   7.190   8.524   5.054 -2.3005  0.4932  0.2215
  838MOL0     H13092   7.489   8.434   4.727 -2.5370 -0.7789 -2.8338
  838MOL0     H13093   7.573   8.471   4.508 -0.3315 -0.7762  0.6990
  838MOL0     H13094   7.458   8.593   4.263 -0.6513 -0.5328  1.3104
  838MOL0     H13095   7.399   8.751   4.288 -0.0172 -1.1760  0.8258
  838MOL0     H13096   7.599   8.825   4.137 -0.1138 -0.0738  0.5251
  838MOL0     H13097   7.620   8.652   4.104 -0.3914  0.0929 -1.5189
  838MOL0     H13098   7.397   8.651   4.010 -1.3798  0.3014  0.7261
  838MOL0     H13099   7.364   8.807   4.094  0.5190 -0.1306 -1.8191
  838MOL0     H13100   7.576   8.777   3.879  0.6907  0.6600  3.2954
  838MOL0     H13101   7.517   8.928   3.944  2.5927 -0.4345 -0.2501
  838MOL0     H13102   7.381   8.746   3.757 -1.0016 -1.1297  1.7795
  838MOL0     H13103   7.430   8.910   3.721  1.0038  2.0190  2.1065
  838MOL0     H13104   7.227   8.835   3.932  1.4161  0.6141  1.3975
  838MOL0     H13105   7.243   8.995   3.858 -2.3757 -0.0612 -0.6862
  838MOL0     H13106   7.153   8.738   3.686 -0.6091 -1.0988  1.4940
  838MOL0     H13107   7.186   8.884   3.628  0.0386 -1.4055 -0.4754
  838MOL0     H13108   6.982   8.808   3.862  1.6710 -0.8498 -0.9165
  838MOL0     H13109   6.986   8.975   3.800 -0.1335  0.4105  1.3793
  838MOL0     H13110   7.488   8.891   4.527  0.7654  0.6322  0.0531
  838MOL0     H13111   7.398   8.854   4.763 -1.3923 -0.8625  0.8048
  838MOL0     H13112   7.495   8.766   5.240  0.0299 -0.8519 -1.8666
  838MOL0     H13113   7.385   8.747   5.453 -2.0114 -1.4716  1.5844
  838MOL0     H13114   7.545   8.479   7.094  0.2200  2.2507 -0.0726
  838MOL0     H13115   7.489   8.375   7.292  0.7803  0.4352 -1.4696
  838MOL0     H13116   7.466   8.205   7.584 -1.5810 -0.3146 -1.0936
  838MOL0     H13117   7.305   8.075   7.687 -1.2509 -0.7320  2.8265
  838MOL0     H13118   7.253   8.096   8.004 -2.2289  2.2968  2.8041
  838MOL0     H13119   7.167   7.975   7.902  0.3512 -1.2684  2.5646
  838MOL0     H13120   7.102   8.134   8.146 -1.9248  0.1958 -0.5627
  838MOL0     H13121   7.138   7.966   8.152  0.0734 -0.2073  0.0200
  838MOL0     H13122   6.891   8.060   7.989 -1.2108  0.8967  1.6995
  838MOL0     H13123   6.877   8.006   8.152  1.4084 -0.4763  0.8451
  838MOL0     H13124   6.990   7.832   7.926  0.8105  3.1946 -0.2364
  838MOL0     H13125   6.983   7.797   8.106 -0.6885  1.8615  0.9935
  838MOL0     H13126   6.632   7.666   7.915  1.1855 -2.2171  1.8213
  838MOL0     H13127   7.124   8.421   7.865 -1.0471 -2.0569  0.7937
  838MOL0     H13128   7.345   8.638   7.837 -0.2892 -1.3383  0.7542
  838MOL0     H13129   7.294   8.660   7.665  1.0942 -0.8644  0.7521
  838MOL0     H13130   7.177   8.626   7.804  0.7484  2.9403  1.0733
  839MOL0     O13131  10.848   6.216   6.914 -0.3325 -0.5999 -0.4224
  839MOL0     C13132  10.840   6.110   6.980 -0.5714  0.2270  0.0217
  839MOL0     O13133  10.824   5.994   6.922  0.7545  0.6241 -0.0062
  839MOL0     C13134  10.774   6.002   6.798 -0.1786  0.3194  0.0871
  839MOL0     C13135  10.854   6.012   6.682 -0.4201  0.2077 -0.0710
  839MOL0     C13136  10.784   6.032   6.558 -0.0319  0.0709 -0.4360
  839MOL0     C13137  10.645   6.017   6.548  0.1290 -0.5170 -0.1260
  839MOL0     O13138  10.570   6.014   6.440 -0.5570 -0.3382  0.7455
  839MOL0     C13139  10.640   5.970   6.321 -0.1128 -0.3909 -0.4284
  839MOL0     C13140  10.547   5.931   6.218  0.9108  0.8821  0.1021
  839MOL0     C13141  10.621   5.866   6.102 -0.8844  0.1845  0.5605
  839MOL0     C13142  10.516   5.825   5.990 -0.3752  0.6552  0.3989
  839MOL0     C13143  10.597   5.771   5.871  0.1344 -0.3837  0.3569
  839MOL0     C13144  10.499   5.759   5.756  0.0530 -0.0744  0.1826
  839MOL0     C13145  10.558   5.678   5.638  0.1744  0.3018 -0.9711
  839MOL0     C13146  10.479   5.645   5.516  0.9179 -0.7965 -0.2763
  839MOL0     N13147  10.396   5.754   5.463 -0.0869  1.2249 -0.1600
  839MOL0     C13148  10.441   5.865   5.399  0.4767 -0.3261  0.2958
  839MOL0     C13149  10.327   5.923   5.354 -0.0958 -0.2010 -0.2387
  839MOL0     C13150  10.324   6.042   5.281 -0.2915  0.2548 -0.0559
  839MOL0     C13151  10.235   6.141   5.352 -0.0580 -0.7723 -0.3457
  839MOL0     C13152  10.235   6.267   5.265  0.1941 -0.5501  0.1202
  839MOL0     C13153  10.143   6.376   5.326 -0.3832 -0.5876  0.4306
  839MOL0     O13154  10.163   6.494   5.247  0.3674 -0.2068 -0.2204
  839MOL0     C13155  10.096   6.603   5.283 -0.1613  0.0545  0.2335
  839MOL0     C13156  10.003   6.620   5.391  0.6816  0.6023  0.3111
  839MOL0     C13157   9.931   6.738   5.413  1.1331  0.0952 -0.0718
  839MOL0     C13158   9.948   6.844   5.325  0.1927 -0.8198  0.3915
  839MOL0     C13159   9.883   6.972   5.356 -0.1268 -0.0964  1.3781
  839MOL0     O13160   9.940   7.091   5.314 -0.1880 -0.0373 -0.0171
  839MOL0     C13161   9.875   7.208   5.332 -0.0791  0.1350 -0.5511
  839MOL0     C13162   9.888   7.310   5.242  0.0752  0.8038  0.0921
  839MOL0     C13163   9.836   7.444   5.271  0.4892  0.0924  0.3251
  839MOL0     C13164   9.760   7.468   5.387  0.2238  0.3467  0.7375
  839MOL0     O13165   9.704   7.586   5.430  0.0410 -0.5091  0.3894
  839MOL0     C13166   9.673   7.682   5.327  0.9106  0.6978 -0.7723
  839MOL0     C13167   9.627   7.821   5.376  0.2383  0.0157 -0.0942
  839MOL0     C13168   9.712   7.879   5.488 -0.2516 -0.3676  0.2529
  839MOL0     C13169   9.634   7.984   5.565 -0.3580 -0.4873 -0.1456
  839MOL0     C13170   9.731   8.078   5.638 -0.4713  0.1446 -0.5203
  839MOL0     C13171   9.780   8.003   5.766 -0.3422  0.0984 -0.9451
  839MOL0     C13172   9.904   8.084   5.808 -1.0161  0.7246 -1.1530
  839MOL0     C13173   9.965   8.049   5.946  0.2966 -1.0922 -0.7242
  839MOL0    Cl13174  10.044   7.884   5.935  0.3858  0.0533 -0.3090
  839MOL0     C13175   9.754   7.363   5.478 -0.4380  0.1235 -0.0194
  839MOL0     C13176   9.814   7.244   5.451 -0.5406 -0.0437 -0.6748
  839MOL0     O13177   9.773   6.969   5.397 -0.5000  0.3715 -0.8097
  839MOL0     C13178  10.033   6.820   5.207  0.2412 -0.3821  0.0264
  839MOL0     C13179  10.111   6.702   5.194  0.6448 -1.0281 -0.2813
  839MOL0     N13180  10.219   5.852   5.401  0.1930  0.1417  0.5045
  839MOL0     N13181  10.262   5.748   5.462  0.5989 -0.1872  0.1918
  839MOL0     C13182  10.573   5.993   6.665  0.5033  0.3893 -0.1263
  839MOL0     C13183  10.640   5.990   6.783  0.3859 -0.2186 -1.0715
  839MOL0     C13184  10.850   6.127   7.132  0.2741  1.0043  0.2588
  839MOL0     C13185  10.781   6.029   7.213 -0.4135 -0.2158  0.1574
  839MOL0     C13186  10.807   6.024   7.360 -0.5924 -0.7056 -0.0983
  839MOL0     C13187  10.883   6.128   7.423 -0.2404 -0.2175  0.1376
  839MOL0     O13188  10.903   6.134   7.560  0.3160 -1.2571  0.2473
  839MOL0     C13189  10.891   6.016   7.634  0.6087  0.2301 -0.4073
  839MOL0     C13190  10.924   6.036   7.784 -0.2860 -0.8385 -0.2078
  839MOL0     C13191  10.798   6.085   7.864 -1.1235  0.0410 -0.6638
  839MOL0     C13192  10.835   6.104   8.016  0.6138 -0.5281 -0.6220
  839MOL0     C13193  10.729   6.120   8.122 -0.6248 -0.2650  0.3623
  839MOL0     C13194  10.653   6.124   8.211  0.4062 -0.2454  0.4138
  839MOL0     C13195  10.944   6.219   7.344  0.2620  0.2210  0.9147
  839MOL0     C13196  10.940   6.218   7.201  0.3322  0.5866  1.2884
  839MOL0     C13197  11.033   6.316   7.130 -0.4273 -0.3759 -0.1744
  839MOL0     H13198  10.962   6.013   6.684 -0.4135 -0.7630  1.0518
  839MOL0     H13199  10.841   6.049   6.468 -2.2473 -0.6595 -2.0595
  839MOL0     H13200  10.689   6.050   6.264 -2.5514 -1.1108 -3.8224
  839MOL0     H13201  10.710   5.890   6.347  0.8955  0.8565  0.8371
  839MOL0     H13202  10.501   6.022   6.180  0.4985  0.6409  0.0203
  839MOL0     H13203  10.468   5.871   6.265  1.7541  0.3240  0.8441
  839MOL0     H13204  10.673   5.780   6.145  0.6429  0.3541 -0.8406
  839MOL0     H13205  10.687   5.942   6.061 -1.2468  0.2350  0.0575
  839MOL0     H13206  10.444   5.755   6.033  1.9919  0.2073  4.1072
  839MOL0     H13207  10.458   5.915   5.970 -1.7799  0.2742  2.4837
  839MOL0     H13208  10.674   5.846   5.850 -0.2536 -0.3085 -0.8679
  839MOL0     H13209  10.639   5.675   5.900  1.3878 -0.3583 -1.2633
  839MOL0     H13210  10.408   5.707   5.788 -1.8960  3.0045  0.0988
  839MOL0     H13211  10.469   5.858   5.722  1.3731  1.1332  2.3316
  839MOL0     H13212  10.604   5.585   5.674  0.3298 -0.5449 -3.1987
  839MOL0     H13213  10.642   5.738   5.602  0.9375 -1.6047 -2.5917
  839MOL0     H13214  10.552   5.627   5.436  2.6949 -1.6669  1.4658
  839MOL0     H13215  10.401   5.570   5.531 -0.0245  0.2772  0.3957
  839MOL0     H13216  10.542   5.900   5.379  1.1017 -1.8381  0.6271
  839MOL0     H13217  10.421   6.091   5.271 -1.1941  1.7328 -2.7521
  839MOL0     H13218  10.286   6.016   5.182  2.2414 -1.8917 -0.5619
  839MOL0     H13219  10.131   6.108   5.350 -0.4544 -0.0163  2.9869
  839MOL0     H13220  10.267   6.166   5.453 -1.8677 -0.1349  0.0943
  839MOL0     H13221  10.187   6.241   5.170 -1.1090  5.4035 -1.2338
  839MOL0     H13222  10.334   6.307   5.238 -0.2021  0.8005  0.5815
  839MOL0     H13223  10.171   6.393   5.431  1.7598  0.2904 -0.2270
  839MOL0     H13224  10.037   6.354   5.313 -1.0007  2.0039  0.6858
  839MOL0     H13225   9.970   6.540   5.457  1.4103 -0.5296 -0.6447
  839MOL0     H13226   9.856   6.750   5.490  2.7691  4.2298  1.1414
  839MOL0     H13227   9.942   7.291   5.149  3.1368 -3.2865  2.3679
  839MOL0     H13228   9.871   7.512   5.194  1.1383 -0.4419  0.1416
  839MOL0     H13229   9.762   7.692   5.263  0.8609  1.2061 -0.7653
  839MOL0     H13230   9.599   7.639   5.258 -1.8834  0.7605  1.9749
  839MOL0     H13231   9.629   7.883   5.286 -1.0072 -1.2678 -1.0422
  839MOL0     H13232   9.524   7.821   5.411  0.8151 -0.8231  1.7352
  839MOL0     H13233   9.734   7.805   5.566 -0.3628 -1.1309 -0.4244
  839MOL0     H13234   9.809   7.904   5.444  0.2975 -2.1248  0.3973
  839MOL0     H13235   9.554   7.936   5.622  1.5878 -3.7469  0.1198
  839MOL0     H13236   9.586   8.047   5.490 -5.0172 -2.5682  0.7367
  839MOL0     H13237   9.687   8.174   5.669  2.2279  0.7047  2.0291
  839MOL0     H13238   9.806   8.116   5.568 -3.0492 -0.0119 -3.5892
  839MOL0     H13239   9.709   8.005   5.849  0.5924  1.0331 -0.1491
  839MOL0     H13240   9.816   7.902   5.745 -1.6074 -0.6705  0.4574
  839MOL0     H13241   9.883   8.190   5.825 -3.4124 -0.1703  2.7506
  839MOL0     H13242   9.983   8.068   5.735  0.3474  0.2773  0.3732
  839MOL0     H13243  10.038   8.124   5.977  0.5136 -2.0606  1.2690
  839MOL0     H13244   9.881   8.050   6.017  1.1651 -1.8391  0.3455
  839MOL0     H13245   9.712   7.370   5.578  2.7199 -0.8956  1.5119
  839MOL0     H13246   9.800   7.161   5.520  0.3125 -1.5668 -2.2413
  839MOL0     H13247  10.034   6.902   5.135 -3.6300  1.4116  1.7200
  839MOL0     H13248  10.190   6.691   5.120  2.0882 -1.0974  1.2292
  839MOL0     H13249  10.468   5.973   6.647  1.2071 -3.8642 -0.7209
  839MOL0     H13250  10.583   5.971   6.873 -0.1199 -0.8568 -1.5217
  839MOL0     H13251  10.720   5.957   7.160  0.7641 -0.1130 -1.4054
  839MOL0     H13252  10.755   5.947   7.416  0.6984 -0.5542  1.3628
  839MOL0     H13253  10.960   5.941   7.596 -0.7356 -0.6776 -1.1299
  839MOL0     H13254  10.792   5.971   7.635  0.8860 -0.3764 -0.0625
  839MOL0     H13255  11.006   6.108   7.797  0.1704 -1.3309 -0.3269
  839MOL0     H13256  10.961   5.940   7.822 -2.0706 -1.7762 -0.7319
  839MOL0     H13257  10.723   6.005   7.861 -1.7119  0.0983  4.5065
  839MOL0     H13258  10.761   6.173   7.811  2.9133  0.8289 -2.4911
  839MOL0     H13259  10.902   6.021   8.039  0.4800 -0.6320 -0.6105
  839MOL0     H13260  10.899   6.192   8.030  0.8926 -0.9454  0.9492
  839MOL0     H13261  10.575   6.129   8.284 -0.2014  5.0174 -0.1972
  839MOL0     H13262  10.994   6.296   7.401 -1.7374  3.0253 -0.7880
  839MOL0     H13263  10.972   6.403   7.105  1.7854  1.3161 -0.0333
  839MOL0     H13264  11.110   6.346   7.202 -1.9904  0.3072  1.2782
  839MOL0     H13265  11.074   6.268   7.041  3.0608  3.5183 -0.9538
  840MOL0     O13266  11.272   5.174   9.225  0.6844  0.4150  0.2435
  840MOL0     C13267  11.245   5.250   9.136 -0.2037  0.2636  0.6001
  840MOL0     O13268  11.144   5.337   9.126  1.0832 -0.3552  0.1767
  840MOL0     C13269  11.070   5.358   9.246  0.7917  0.5610  0.6439
  840MOL0     C13270  10.947   5.293   9.269  0.4807  0.6385 -0.5364
  840MOL0     C13271  10.878   5.308   9.391 -0.5853  0.1628 -0.5059
  840MOL0     C13272  10.925   5.394   9.490  0.3446  0.3351 -0.5113
  840MOL0     O13273  10.850   5.432   9.601 -0.2326  0.1988 -0.8485
  840MOL0     C13274  10.750   5.344   9.642 -0.7039 -0.1730 -0.7129
  840MOL0     C13275  10.707   5.412   9.777  0.2817 -0.3782  0.3983
  840MOL0     C13276  10.797   5.415   9.897  1.8153 -0.1483 -0.1017
  840MOL0     C13277  10.718   5.366  10.023 -0.4547  0.1669 -0.4073
  840MOL0     C13278  10.816   5.337  10.134 -0.2832  0.6071 -0.5928
  840MOL0     C13279  10.744   5.281  10.241 -0.3919  0.6462 -0.1857
  840MOL0     C13280  10.848   5.263  10.360  1.0024  1.2752  0.0311
  840MOL0     C13281  10.810   5.169  10.477 -0.1581 -0.7039  0.4638
  840MOL0     N13282  10.693   5.214  10.556  0.1250  0.2638 -0.0888
  840MOL0     C13283  10.577   5.141  10.583  0.2132  1.0983 -0.2636
  840MOL0     C13284  10.520   5.212  10.687  0.9035 -0.4043 -0.0481
  840MOL0     C13285  10.378   5.172  10.742 -1.0552 -0.0582 -0.2342
  840MOL0     C13286  10.398   5.101  10.881  0.2682 -0.1514  0.2066
  840MOL0     C13287  10.269   5.109  10.974 -0.5345 -1.1085  0.5232
  840MOL0     C13288  10.145   5.025  10.930  0.2244  0.8570  0.5938
  840MOL0     O13289  10.086   5.078  10.810  0.2599  0.0541  0.3031
  840MOL0     C13290   9.993   5.169  10.801 -0.2883  1.5547  0.1990
  840MOL0     C13291   9.913   5.213  10.903  0.4611 -0.3431 -0.4870
  840MOL0     C13292   9.819   5.317  10.889  0.2306  0.9862  0.3397
  840MOL0     C13293   9.806   5.387  10.765  0.3075 -0.7728  0.2378
  840MOL0     C13294   9.705   5.490  10.745 -0.8912  0.0545  0.4403
  840MOL0     O13295   9.611   5.497  10.843  0.3846 -0.4850  0.0950
  840MOL0     C13296   9.492   5.570  10.813 -0.1472 -0.9905  0.2332
  840MOL0     C13297   9.457   5.673  10.902  0.1143  0.4893 -0.1056
  840MOL0     C13298   9.328   5.727  10.906  0.1220  0.1659  0.1774
  840MOL0     C13299   9.239   5.694  10.803  0.3234  1.0371 -0.7297
  840MOL0     O13300   9.128   5.770  10.792  0.3196 -0.3373 -0.3226
  840MOL0     C13301   9.029   5.742  10.696  0.3872  0.7674 -0.7234
  840MOL0     C13302   8.897   5.808  10.733  0.0203 -0.6622  0.1266
  840MOL0     C13303   8.899   5.967  10.707  0.5606  0.6593  0.0697
  840MOL0     C13304   8.777   6.040  10.739  0.3758 -1.1103 -0.3738
  840MOL0     C13305   8.798   6.193  10.722  0.5689  0.0081  0.7202
  840MOL0     C13306   8.685   6.280  10.768  0.4435 -0.2443  0.8515
  840MOL0     C13307   8.689   6.423  10.737 -1.0050 -0.5360  0.0947
  840MOL0     C13308   8.560   6.498  10.739 -0.0881 -0.1977  0.0558
  840MOL0    Cl13309   8.472   6.454  10.888  0.0682  0.3805  0.4825
  840MOL0     C13310   9.270   5.590  10.714  0.8239  0.5026 -0.3421
  840MOL0     C13311   9.402   5.541  10.714 -0.1447  0.5447  0.8770
  840MOL0     O13312   9.708   5.556  10.637 -0.5219 -0.1428 -0.3576
  840MOL0     C13313   9.905   5.357  10.669  0.1245 -1.4184 -0.1111
  840MOL0     C13314   9.986   5.245  10.681 -0.6513  0.6491 -0.6444
  840MOL0     N13315  10.602   5.321  10.718  0.2869 -1.1401 -0.2676
  840MOL0     N13316  10.705   5.315  10.644  0.7710  0.0172  0.3541
  840MOL0     C13317  11.044   5.459   9.468 -0.0816  0.4156 -0.2144
  840MOL0     C13318  11.117   5.439   9.348  0.1890 -0.3984 -0.3913
  840MOL0     C13319  11.326   5.223   9.021  0.9080 -0.2062  0.7292
  840MOL0     C13320  11.254   5.185   8.900 -1.4152 -0.2700  0.1607
  840MOL0     C13321  11.317   5.176   8.782 -0.9924  0.2164  0.2409
  840MOL0     C13322  11.459   5.185   8.774 -1.0388 -0.1685 -0.2044
  840MOL0     O13323  11.532   5.162   8.654  0.0239 -0.1573 -0.7631
  840MOL0     C13324  11.464   5.085   8.551  0.0333  0.0066 -0.3379
  840MOL0     C13325  11.446   4.942   8.586 -0.5983  0.3503  0.3728
  840MOL0     C13326  11.564   4.881   8.675 -0.5956 -0.4617  0.7801
  840MOL0     C13327  11.510   4.836   8.812 -0.2906 -0.2380 -0.9831
  840MOL0     C13328  11.627   4.784   8.892 -0.0899 -0.5348 -0.1810
  840MOL0     C13329  11.719   4.733   8.949  0.1138 -1.0505 -0.5324
  840MOL0     C13330  11.525   5.212   8.891  0.1100  1.3255  0.3940
  840MOL0     C13331  11.464   5.236   9.014 -0.1026 -0.0562 -0.1152
  840MOL0     C13332  11.560   5.262   9.134  0.3706  0.0983  0.4847
  840MOL0     H13333  10.908   5.220   9.199  0.0473 -0.6120  0.9400
  840MOL0     H13334  10.790   5.245   9.394 -0.1725 -0.6064 -2.6683
  840MOL0     H13335  10.666   5.357   9.573 -1.1953  0.1215 -0.0739
  840MOL0     H13336  10.784   5.240   9.645  0.4172  0.0735  4.5931
  840MOL0     H13337  10.614   5.363   9.807 -0.0044 -0.4141 -0.5164
  840MOL0     H13338  10.674   5.516   9.769 -0.7584 -0.7870 -0.9451
  840MOL0     H13339  10.855   5.506   9.914  1.0713  0.1306  0.9911
  840MOL0     H13340  10.869   5.335   9.875  0.6396 -1.1846 -0.3316
  840MOL0     H13341  10.655   5.449  10.057  0.8682  0.8604  0.4545
  840MOL0     H13342  10.647   5.285  10.012  1.0854 -1.4399  0.8850
  840MOL0     H13343  10.884   5.259  10.099  0.2777  1.5964 -1.7730
  840MOL0     H13344  10.872   5.429  10.149 -1.8772  1.4992  0.1496
  840MOL0     H13345  10.673   5.353  10.283 -1.5759 -0.6232  0.0693
  840MOL0     H13346  10.709   5.179  10.224 -1.0211  0.7904  0.2178
  840MOL0     H13347  10.848   5.365  10.399  0.3661  2.0329 -1.8563
  840MOL0     H13348  10.948   5.241  10.322  1.5971  2.8439  0.5885
  840MOL0     H13349  10.785   5.067  10.443 -1.1053  0.0829 -1.3604
  840MOL0     H13350  10.890   5.163  10.551 -0.7830  3.8332  1.7509
  840MOL0     H13351  10.535   5.059  10.525  2.6203 -0.6549  0.3014
  840MOL0     H13352  10.309   5.257  10.740  0.2069  1.0285  0.4038
  840MOL0     H13353  10.332   5.093  10.683 -0.4243 -0.1357 -0.6371
  840MOL0     H13354  10.427   4.998  10.856 -0.2937  0.5015 -3.8043
  840MOL0     H13355  10.473   5.154  10.940 -1.0068  0.6043  1.1837
  840MOL0     H13356  10.227   5.210  10.978  0.8272 -0.5603  2.0102
  840MOL0     H13357  10.290   5.087  11.079 -0.1303  5.8670  2.3945
  840MOL0     H13358  10.067   5.006  11.005  0.4710 -0.2067  0.5996
  840MOL0     H13359  10.178   4.925  10.900 -5.2060 -0.5892 -1.7742
  840MOL0     H13360   9.916   5.152  10.993 -0.4875 -1.1350 -0.9716
  840MOL0     H13361   9.749   5.334  10.970 -1.0368 -0.5408 -0.3738
  840MOL0     H13362   9.519   5.707  10.984 -3.0265  1.8629  1.9321
  840MOL0     H13363   9.291   5.790  10.986 -5.3108 -2.5482  0.2444
  840MOL0     H13364   9.058   5.775  10.596 -1.1262  0.6780 -1.2240
  840MOL0     H13365   9.015   5.634  10.697  0.2410  0.7016  2.5834
  840MOL0     H13366   8.822   5.756  10.673  0.4486  1.2671 -2.2301
  840MOL0     H13367   8.863   5.789  10.836 -1.5916  0.7346 -0.1028
  840MOL0     H13368   8.975   6.002  10.778 -0.7846  0.5351  1.6495
  840MOL0     H13369   8.933   5.992  10.607  4.5343  1.2904  1.3912
  840MOL0     H13370   8.751   6.005  10.840  0.9850 -0.8302 -0.1154
  840MOL0     H13371   8.695   5.997  10.681  1.2558 -2.6414 -0.5468
  840MOL0     H13372   8.810   6.206  10.614 -0.1274  1.8390  0.8341
  840MOL0     H13373   8.892   6.212  10.774 -1.1284 -1.3080  4.6420
  840MOL0     H13374   8.590   6.243  10.728  0.0089 -0.8531  2.3800
  840MOL0     H13375   8.673   6.276  10.877  1.8011  2.1339  1.1593
  840MOL0     H13376   8.727   6.433  10.635 -0.4577 -1.2931  0.2128
  840MOL0     H13377   8.764   6.470  10.802  3.0888 -1.1241 -3.7315
  840MOL0     H13378   8.565   6.607  10.744 -2.6563 -0.0364  0.1687
  840MOL0     H13379   8.504   6.472  10.649 -0.9189  0.9049  0.2328
  840MOL0     H13380   9.212   5.567  10.625 -1.3335  2.5629  0.4159
  840MOL0     H13381   9.419   5.468  10.636  0.8208  0.9158  0.7203
  840MOL0     H13382   9.907   5.408  10.573  2.1274  1.4103  1.2917
  840MOL0     H13383  10.055   5.220  10.601  1.9441  1.5597  1.1428
  840MOL0     H13384  11.072   5.534   9.541  0.3062  1.4389 -1.3647
  840MOL0     H13385  11.208   5.499   9.344 -0.3484  0.7982  2.4963
  840MOL0     H13386  11.146   5.176   8.902 -1.2722 -2.4141  0.7602
  840MOL0     H13387  11.262   5.147   8.692 -1.4790 -1.4879  1.0364
  840MOL0     H13388  11.527   5.078   8.461  2.1615 -0.5538  1.1210
  840MOL0     H13389  11.367   5.128   8.524 -2.7031 -1.2966  5.8118
  840MOL0     H13390  11.433   4.879   8.498 -1.9255  3.6915 -2.0017
  840MOL0     H13391  11.352   4.938   8.642 -1.0358  2.5647 -0.1136
  840MOL0     H13392  11.640   4.958   8.692  0.6127 -1.2977 -0.5484
  840MOL0     H13393  11.603   4.795   8.618 -0.3421 -0.1760  0.5180
  840MOL0     H13394  11.460   4.915   8.868  1.7594  1.2309 -1.1189
  840MOL0     H13395  11.429   4.765   8.795 -0.8787 -0.3238  1.6966
  840MOL0     H13396  11.808   4.681   8.979  1.0356 -1.6159 -3.8686
  840MOL0     H13397  11.633   5.217   8.887  0.0695  1.5229 -0.4723
  840MOL0     H13398  11.572   5.167   9.188  1.0109 -0.4530 -0.5902
  840MOL0     H13399  11.652   5.289   9.081 -0.6414 -1.1451 -2.0591
  840MOL0     H13400  11.515   5.332   9.205 -1.0587 -3.0974  2.9701
  841MOL0     O13401   4.810   8.658   2.088  0.1570 -0.0041 -0.4067
  841MOL0     C13402   4.869   8.666   2.193 -0.0469  0.8190 -1.1265
  841MOL0     O13403   4.840   8.587   2.299  0.5855  0.0851 -1.1664
  841MOL0     C13404   4.725   8.513   2.318  0.0813  0.0714  0.7537
  841MOL0     C13405   4.659   8.445   2.211 -1.3889  0.4896 -0.4560
  841MOL0     C13406   4.552   8.363   2.234  0.3154 -0.9714  0.8369
  841MOL0     C13407   4.487   8.351   2.357 -1.0862  0.9369  0.1907
  841MOL0     O13408   4.386   8.260   2.344  0.1761 -1.2756 -0.9011
  841MOL0     C13409   4.323   8.227   2.468  0.3817 -0.3248  0.6672
  841MOL0     C13410   4.208   8.115   2.445 -0.3158 -0.4027 -0.1152
  841MOL0     C13411   4.258   7.983   2.396 -0.6751 -0.0665  0.3337
  841MOL0     C13412   4.147   7.880   2.369 -0.0070  0.1754 -0.0137
  841MOL0     C13413   4.201   7.742   2.351  0.0204  0.2894  0.9201
  841MOL0     C13414   4.088   7.637   2.375 -0.4439  0.6598  0.1628
  841MOL0     C13415   4.155   7.500   2.361  0.9667 -0.3457  0.0867
  841MOL0     C13416   4.054   7.389   2.317 -0.4061  0.5802 -0.6591
  841MOL0     N13417   4.140   7.264   2.319 -0.0649  0.2023 -0.5080
  841MOL0     C13418   4.209   7.213   2.213 -0.2259 -0.3458  0.2558
  841MOL0     C13419   4.235   7.096   2.253  0.7176  1.1842  0.1737
  841MOL0     C13420   4.299   6.992   2.173  0.5474  0.4337  0.1240
  841MOL0     C13421   4.249   6.848   2.206  0.3149  0.0467 -0.1791
  841MOL0     C13422   4.313   6.787   2.336 -1.0266 -0.1350  0.0459
  841MOL0     C13423   4.469   6.788   2.345 -0.2136  0.0336 -0.1938
  841MOL0     O13424   4.518   6.693   2.254 -0.4737 -0.9951 -0.1032
  841MOL0     C13425   4.642   6.649   2.271 -0.3014 -0.3930  0.1398
  841MOL0     C13426   4.728   6.700   2.366 -0.0507 -0.9939  0.1297
  841MOL0     C13427   4.861   6.668   2.370  0.4820 -0.3181 -0.6454
  841MOL0     C13428   4.908   6.566   2.284  0.5462  0.4135  0.5969
  841MOL0     C13429   5.051   6.525   2.279  0.2281 -0.2450  0.1894
  841MOL0     O13430   5.106   6.509   2.155  0.2726  0.0854 -0.1220
  841MOL0     C13431   5.239   6.484   2.158  0.2304  0.1038 -1.0864
  841MOL0     C13432   5.299   6.354   2.151  0.5565 -0.4090  0.1141
  841MOL0     C13433   5.440   6.339   2.146 -0.1606 -0.5484 -0.3779
  841MOL0     C13434   5.518   6.452   2.188 -0.3037  1.0074  0.1644
  841MOL0     O13435   5.646   6.423   2.219 -0.9131 -0.3467  0.6317
  841MOL0     C13436   5.672   6.391   2.359 -0.1591  0.2991 -0.1000
  841MOL0     C13437   5.816   6.339   2.361 -0.5185  0.1387 -0.6325
  841MOL0     C13438   5.912   6.449   2.411  0.5431  0.1948 -0.4674
  841MOL0     C13439   6.062   6.432   2.381 -0.4013 -0.1396 -0.2587
  841MOL0     C13440   6.124   6.571   2.424 -0.1385 -0.1674  0.4586
  841MOL0     C13441   6.097   6.698   2.334 -0.2343 -0.3394  0.0351
  841MOL0     C13442   6.213   6.799   2.357 -0.4980  1.0178 -0.3755
  841MOL0     C13443   6.206   6.901   2.243 -0.5798 -0.1521 -0.5224
  841MOL0    Cl13444   6.314   7.043   2.292 -0.2044 -0.4553  0.3527
  841MOL0     C13445   5.459   6.579   2.198  0.8521 -0.0839  0.1844
  841MOL0     C13446   5.326   6.596   2.177  0.3321  0.9479 -0.4337
  841MOL0     O13447   5.106   6.516   2.392 -0.7186 -0.6988 -0.4689
  841MOL0     C13448   4.824   6.507   2.187 -0.2811  0.3241 -0.1240
  841MOL0     C13449   4.699   6.564   2.171  0.0409 -0.1140 -0.3024
  841MOL0     N13450   4.207   7.090   2.385 -0.1575 -0.1360  0.3420
  841MOL0     N13451   4.153   7.184   2.432  0.1407  0.2133  0.1902
  841MOL0     C13452   4.540   8.421   2.468 -0.7470 -0.4552 -0.7694
  841MOL0     C13453   4.659   8.502   2.448 -0.5053 -0.0232  0.5338
  841MOL0     C13454   4.964   8.775   2.217  0.3861  0.6339 -0.1848
  841MOL0     C13455   5.002   8.792   2.351 -0.9472  1.0664  0.5499
  841MOL0     C13456   5.088   8.893   2.394 -1.1862 -0.5067 -0.3449
  841MOL0     C13457   5.136   8.988   2.302  0.5031  0.3620 -0.0711
  841MOL0     O13458   5.209   9.100   2.351 -0.2211  0.0049 -0.2863
  841MOL0     C13459   5.329   9.143   2.269  0.9324  0.5048 -0.1417
  841MOL0     C13460   5.391   9.271   2.332 -0.3312  1.0019 -0.7118
  841MOL0     C13461   5.288   9.391   2.327 -0.9871 -0.5297  0.2597
  841MOL0     C13462   5.357   9.530   2.349  0.1701 -0.5964  0.2711
  841MOL0     C13463   5.258   9.637   2.305 -0.9151 -0.0862 -0.8517
  841MOL0     C13464   5.180   9.724   2.274  0.0242 -0.2747 -0.1332
  841MOL0     C13465   5.101   8.971   2.170  0.3195  0.4790 -0.2629
  841MOL0     C13466   5.005   8.878   2.123 -0.1412 -0.4019 -0.1164
  841MOL0     C13467   4.961   8.889   1.984  0.4351 -0.0724 -0.6215
  841MOL0     H13468   4.690   8.447   2.107 -1.0074 -2.6139 -0.5006
  841MOL0     H13469   4.509   8.332   2.139 -0.0961 -0.5697  0.8863
  841MOL0     H13470   4.406   8.187   2.526  1.1751 -1.5010 -1.2008
  841MOL0     H13471   4.268   8.313   2.508  2.1890  1.3510 -0.2867
  841MOL0     H13472   4.134   8.157   2.376  0.3181  1.2130  0.1509
  841MOL0     H13473   4.163   8.110   2.544  1.9997 -1.1738  0.9622
  841MOL0     H13474   4.332   7.944   2.467 -0.6292 -0.1067  0.2638
  841MOL0     H13475   4.316   8.001   2.305  0.2725 -0.9682  0.7381
  841MOL0     H13476   4.078   7.874   2.454 -0.0192  0.3383 -0.0121
  841MOL0     H13477   4.085   7.920   2.288 -1.7978 -3.5561 -0.7506
  841MOL0     H13478   4.224   7.717   2.247 -0.5858 -2.2042  1.3161
  841MOL0     H13479   4.281   7.731   2.425 -0.0614  3.0761  1.5323
  841MOL0     H13480   4.052   7.651   2.478  3.2720 -0.7426  1.8161
  841MOL0     H13481   4.010   7.653   2.300  1.6074 -0.2421 -2.2961
  841MOL0     H13482   4.214   7.466   2.446  0.8383 -0.9209 -0.0454
  841MOL0     H13483   4.222   7.511   2.275  1.5792  1.7389  0.7820
  841MOL0     H13484   3.968   7.381   2.384  0.1407 -3.7053 -0.2121
  841MOL0     H13485   4.036   7.400   2.209  2.7544  1.0769 -1.2533
  841MOL0     H13486   4.240   7.261   2.121  2.9562 -2.2174  0.1922
  841MOL0     H13487   4.275   6.995   2.067 -3.8058 -3.2617  0.6870
  841MOL0     H13488   4.408   6.996   2.175  0.6142  0.0967 -1.5730
  841MOL0     H13489   4.140   6.846   2.209  0.3204  0.1219  2.2878
  841MOL0     H13490   4.289   6.781   2.129  1.1524  1.8826 -1.4299
  841MOL0     H13491   4.281   6.683   2.337  3.9174 -1.9074  1.6243
  841MOL0     H13492   4.282   6.839   2.427  0.9318  2.1801 -0.4973
  841MOL0     H13493   4.484   6.761   2.449 -1.9473  0.7146  0.2700
  841MOL0     H13494   4.528   6.880   2.332 -1.7887  1.0982 -0.1881
  841MOL0     H13495   4.692   6.775   2.436  1.1781 -0.6116  0.3740
  841MOL0     H13496   4.924   6.723   2.440 -2.4011  0.8186  1.2377
  841MOL0     H13497   5.237   6.268   2.129  0.4308 -0.1995 -0.3737
  841MOL0     H13498   5.496   6.247   2.133  1.1100  0.2515 -0.7682
  841MOL0     H13499   5.653   6.488   2.406 -0.5937  0.8450 -1.3786
  841MOL0     H13500   5.600   6.312   2.383  1.2036 -1.3793 -1.2625
  841MOL0     H13501   5.810   6.251   2.424 -3.3730  0.7137  0.0363
  841MOL0     H13502   5.850   6.314   2.260  1.8281  3.0466 -0.7206
  841MOL0     H13503   5.877   6.538   2.359  0.3328  1.6220  1.9627
  841MOL0     H13504   5.889   6.469   2.516  2.7549  2.8589 -0.3693
  841MOL0     H13505   6.080   6.405   2.277 -1.8210 -1.2546 -0.2502
  841MOL0     H13506   6.092   6.349   2.446  0.4909  0.4465  0.0889
  841MOL0     H13507   6.232   6.558   2.419 -0.2866 -1.2851 -0.3936
  841MOL0     H13508   6.106   6.590   2.530 -2.9577 -3.5533  0.7711
  841MOL0     H13509   6.071   6.667   2.232  0.0875  1.7232 -0.7248
  841MOL0     H13510   6.006   6.750   2.366 -0.2407  2.2375 -3.5381
  841MOL0     H13511   6.309   6.747   2.350  0.3515  2.5844 -0.9810
  841MOL0     H13512   6.199   6.844   2.456  2.1780 -1.0428  1.0899
  841MOL0     H13513   6.238   6.856   2.149  0.7445 -3.4060  1.2939
  841MOL0     H13514   6.102   6.933   2.242 -0.8827 -0.6152  2.8299
  841MOL0     H13515   5.517   6.659   2.243 -0.0515 -0.5309  2.2939
  841MOL0     H13516   5.278   6.692   2.195  0.4479  1.1798 -1.3105
  841MOL0     H13517   4.856   6.426   2.123 -1.4005 -0.6532  0.5025
  841MOL0     H13518   4.619   6.533   2.106  0.9290 -0.1295 -1.4113
  841MOL0     H13519   4.505   8.405   2.569  0.9847 -0.9355 -0.1996
  841MOL0     H13520   4.701   8.566   2.525 -1.1561 -1.1889  1.8893
  841MOL0     H13521   4.968   8.728   2.432 -1.3530  1.8023  0.9682
  841MOL0     H13522   5.110   8.906   2.499 -1.2996 -3.3121  0.0987
  841MOL0     H13523   5.302   9.154   2.163  2.6764 -1.7525 -0.9212
  841MOL0     H13524   5.406   9.065   2.270  1.2553  0.8089  1.4182
  841MOL0     H13525   5.467   9.292   2.256  0.8497 -2.8020 -0.7708
  841MOL0     H13526   5.433   9.251   2.431 -0.1260 -3.9611 -1.5706
  841MOL0     H13527   5.211   9.371   2.402 -1.0275 -3.4902 -0.4117
  841MOL0     H13528   5.244   9.388   2.227 -1.3496 -0.6282  0.4202
  841MOL0     H13529   5.386   9.550   2.453  0.1824  2.4897 -0.2431
  841MOL0     H13530   5.442   9.551   2.284  0.4448  2.1972  1.4098
  841MOL0     H13531   5.122   9.809   2.242  1.4093  1.6998  2.2384
  841MOL0     H13532   5.131   9.043   2.095 -0.1769 -0.9578 -1.9094
  841MOL0     H13533   4.861   8.932   1.985  0.7085  0.5874  1.1095
  841MOL0     H13534   5.022   8.945   1.912 -0.6450  0.2457 -1.3105
  841MOL0     H13535   4.953   8.792   1.933 -2.4261  0.3756 -1.1774
  842MOL0     O13536   8.334   7.036   6.587  0.1479 -0.1363  0.5750
  842MOL0     C13537   8.273   7.033   6.478 -0.0214 -0.0878 -1.0895
  842MOL0     O13538   8.147   6.993   6.462 -0.3176 -0.1968 -0.4417
  842MOL0     C13539   8.090   6.937   6.580 -0.1453 -0.6118  0.3626
  842MOL0     C13540   8.044   6.809   6.567  0.0091  0.0640 -0.4718
  842MOL0     C13541   7.972   6.746   6.665 -0.4201 -0.9623  0.5358
  842MOL0     C13542   7.946   6.812   6.785 -0.3532 -0.5618  0.2804
  842MOL0     O13543   7.863   6.766   6.884 -0.9011  0.2576  0.2638
  842MOL0     C13544   7.820   6.627   6.878  0.6890 -0.1277 -0.1915
  842MOL0     C13545   7.762   6.597   7.013  0.3892  0.6167  0.7298
  842MOL0     C13546   7.623   6.676   7.027  0.5437  0.4676 -0.1793
  842MOL0     C13547   7.574   6.691   7.175  0.6658  0.6273 -0.3604
  842MOL0     C13548   7.651   6.793   7.260  0.8637 -0.1734  0.2975
  842MOL0     C13549   7.627   6.946   7.220  0.2375  0.8875 -0.8576
  842MOL0     C13550   7.486   6.970   7.184 -0.0694 -0.2865  0.0157
  842MOL0     C13551   7.455   7.119   7.198  0.5857  0.5208  0.0941
  842MOL0     N13552   7.534   7.202   7.093  0.3820  0.7249 -0.2607
  842MOL0     C13553   7.582   7.164   6.970  1.0076  0.0547  0.3729
  842MOL0     C13554   7.639   7.278   6.925  0.4781 -0.0741 -0.0108
  842MOL0     C13555   7.716   7.296   6.801 -0.9143 -0.2531  0.0032
  842MOL0     C13556   7.636   7.361   6.683 -0.4617 -0.4252 -0.2544
  842MOL0     C13557   7.614   7.509   6.709  0.0866  0.1449  0.1210
  842MOL0     C13558   7.744   7.585   6.685  0.5823  0.1199  0.0278
  842MOL0     O13559   7.697   7.722   6.693 -0.2867  0.0005  0.2590
  842MOL0     C13560   7.706   7.801   6.577  0.3016  0.6491 -0.1333
  842MOL0     C13561   7.619   7.902   6.551 -0.1563 -0.2030  0.0874
  842MOL0     C13562   7.627   7.990   6.441  0.8127 -0.7511  0.4735
  842MOL0     C13563   7.736   7.990   6.359 -0.1856  1.0042 -0.0800
  842MOL0     C13564   7.759   8.082   6.242 -0.1432  0.1022 -0.6469
  842MOL0     O13565   7.662   8.188   6.221  0.3060  0.5410 -0.2785
  842MOL0     C13566   7.667   8.267   6.118  0.1961 -0.0061 -0.8439
  842MOL0     C13567   7.562   8.282   6.035  1.0023 -0.0421 -0.0728
  842MOL0     C13568   7.562   8.368   5.925 -0.1391 -0.5950 -0.1983
  842MOL0     C13569   7.680   8.442   5.895 -0.1102 -0.5779  0.7085
  842MOL0     O13570   7.697   8.533   5.792  0.6223  0.8173  0.4829
  842MOL0     C13571   7.626   8.522   5.674  0.1031  0.3905  0.4157
  842MOL0     C13572   7.691   8.597   5.558  0.1807 -0.1286  0.3457
  842MOL0     C13573   7.695   8.748   5.573 -0.2865  0.0613  0.5891
  842MOL0     C13574   7.739   8.813   5.442  1.0378  0.5042 -0.0208
  842MOL0     C13575   7.726   8.967   5.440 -0.7617 -0.5349 -0.7059
  842MOL0     C13576   7.774   9.033   5.308  0.5379  0.9586 -0.0605
  842MOL0     C13577   7.687   9.005   5.182 -0.5669 -0.3155  0.1496
  842MOL0     C13578   7.780   9.011   5.048 -0.1705  0.2820 -0.3028
  842MOL0    Cl13579   7.803   9.180   4.998  0.1984  0.1346  0.4904
  842MOL0     C13580   7.780   8.432   5.990 -0.5345  0.2580  0.1325
  842MOL0     C13581   7.782   8.339   6.098  0.4441 -0.2958  0.1540
  842MOL0     O13582   7.868   8.073   6.177 -0.0611  1.0538 -0.5531
  842MOL0     C13583   7.831   7.883   6.387 -0.6211  0.1836  0.3144
  842MOL0     C13584   7.816   7.800   6.496  0.2933 -0.1595  0.9177
  842MOL0     N13585   7.639   7.378   7.017 -0.6793 -0.9101  0.2455
  842MOL0     N13586   7.578   7.331   7.115  0.1390 -0.5241  0.2491
  842MOL0     C13587   7.999   6.941   6.808 -0.9395  0.9919 -0.7495
  842MOL0     C13588   8.069   7.000   6.706 -0.0899 -0.2990  0.0051
  842MOL0     C13589   8.329   7.099   6.358 -1.1541  0.0627 -0.9751
  842MOL0     C13590   8.242   7.155   6.267 -0.6171  0.5274  0.1548
  842MOL0     C13591   8.295   7.206   6.152 -0.2017  0.7734  0.8325
  842MOL0     C13592   8.430   7.215   6.120 -0.8965 -0.3417  0.3498
  842MOL0     O13593   8.487   7.280   6.013  0.0324 -0.0249 -0.2617
  842MOL0     C13594   8.424   7.402   5.977 -0.3326 -0.6643  0.0157
  842MOL0     C13595   8.498   7.455   5.858  0.3244 -0.1111 -0.0149
  842MOL0     C13596   8.395   7.521   5.773  0.1831  0.0459  0.0966
  842MOL0     C13597   8.461   7.597   5.661  0.1731 -0.4267  1.5426
  842MOL0     C13598   8.364   7.691   5.601  0.3728 -0.1480  0.3888
  842MOL0     C13599   8.285   7.757   5.538  0.0469  0.4036 -0.2472
  842MOL0     C13600   8.517   7.148   6.209 -0.3080 -0.3987 -0.9379
  842MOL0     C13601   8.468   7.092   6.326  0.3556 -0.7900 -0.8039
  842MOL0     C13602   8.574   7.041   6.417 -0.0738  0.5006  0.0957
  842MOL0     H13603   8.064   6.758   6.473  2.9415  3.1035 -1.7286
  842MOL0     H13604   7.939   6.647   6.635 -2.5141 -0.0921 -0.2191
  842MOL0     H13605   7.752   6.596   6.798 -0.6392 -2.0557  1.6174
  842MOL0     H13606   7.900   6.553   6.872 -3.3817 -5.0037 -0.3190
  842MOL0     H13607   7.836   6.623   7.089  1.5709 -0.4932 -0.0037
  842MOL0     H13608   7.741   6.489   7.017 -4.7734  1.2667 -1.4236
  842MOL0     H13609   7.546   6.618   6.974 -0.3312  1.9257 -0.5817
  842MOL0     H13610   7.621   6.773   6.977  0.7920  1.0307  0.8986
  842MOL0     H13611   7.469   6.720   7.166  0.8894  1.8403  0.6127
  842MOL0     H13612   7.587   6.593   7.222  2.8173 -0.1586 -2.3798
  842MOL0     H13613   7.621   6.780   7.365  1.4237 -4.6235  0.1212
  842MOL0     H13614   7.758   6.770   7.251  0.0912 -3.5014 -3.7132
  842MOL0     H13615   7.666   6.999   7.307  0.8703 -0.8803 -0.0228
  842MOL0     H13616   7.686   6.984   7.136  0.9846  0.4546 -0.5419
  842MOL0     H13617   7.413   6.911   7.240  0.7080  0.9125  2.4836
  842MOL0     H13618   7.462   6.959   7.078 -5.4103  0.2738  0.9199
  842MOL0     H13619   7.347   7.134   7.184  0.5405 -1.4298 -2.5642
  842MOL0     H13620   7.476   7.154   7.299  0.7300  0.4923  0.0737
  842MOL0     H13621   7.585   7.078   6.904 -2.5203  2.1729 -3.0064
  842MOL0     H13622   7.806   7.358   6.814 -1.1142  0.4638 -1.7455
  842MOL0     H13623   7.743   7.196   6.766 -1.2508 -1.6144  3.3360
  842MOL0     H13624   7.689   7.355   6.588 -1.5633  0.8119 -0.9863
  842MOL0     H13625   7.541   7.309   6.669 -1.3544  1.6955 -2.8073
  842MOL0     H13626   7.567   7.521   6.807 -3.8425 -1.1134 -1.3874
  842MOL0     H13627   7.538   7.561   6.649  1.4039  1.6408 -0.3204
  842MOL0     H13628   7.781   7.559   6.586  0.3347 -2.6829  0.5862
  842MOL0     H13629   7.818   7.556   6.761 -0.7924 -0.0462  1.3513
  842MOL0     H13630   7.535   7.919   6.617 -1.3902 -0.7713 -1.2620
  842MOL0     H13631   7.555   8.071   6.430  1.1770 -0.6504 -1.5752
  842MOL0     H13632   7.471   8.226   6.058 -0.4910  2.1597 -0.2822
  842MOL0     H13633   7.475   8.369   5.860  1.6360 -0.7412 -2.7190
  842MOL0     H13634   7.623   8.417   5.644  1.0752  0.6647 -0.7274
  842MOL0     H13635   7.523   8.556   5.684 -0.0501 -0.6340  2.7958
  842MOL0     H13636   7.795   8.563   5.548 -0.0529 -1.0450  0.9150
  842MOL0     H13637   7.627   8.566   5.476  1.8209 -3.5020  0.1482
  842MOL0     H13638   7.594   8.773   5.605 -1.0515 -0.3678 -1.3871
  842MOL0     H13639   7.771   8.768   5.649 -1.1026 -0.0235  1.4385
  842MOL0     H13640   7.680   8.776   5.359  0.2532  2.1202 -0.2295
  842MOL0     H13641   7.842   8.776   5.435  0.7123 -0.4730  0.2709
  842MOL0     H13642   7.783   9.015   5.519 -0.8851  2.0217 -2.0829
  842MOL0     H13643   7.622   9.002   5.447  0.0016  1.9076 -0.6950
  842MOL0     H13644   7.768   9.142   5.319  2.6245  1.0708  0.3602
  842MOL0     H13645   7.877   9.013   5.280  0.4187  1.7459 -1.1258
  842MOL0     H13646   7.607   9.079   5.175  0.3800  1.0313  2.5263
  842MOL0     H13647   7.646   8.904   5.194 -0.2564 -0.3927  0.5980
  842MOL0     H13648   7.877   8.970   5.076  0.2403  0.8495 -0.8797
  842MOL0     H13649   7.738   8.951   4.967 -0.7593 -0.4394  0.5103
  842MOL0     H13650   7.865   8.497   5.971 -1.5439  1.6225  0.1915
  842MOL0     H13651   7.871   8.322   6.159 -0.5223  0.3175  1.8047
  842MOL0     H13652   7.921   7.874   6.325 -0.0371  1.8294  0.8749
  842MOL0     H13653   7.895   7.733   6.530 -0.2786 -1.2857  0.0675
  842MOL0     H13654   7.969   6.987   6.901 -0.8310  1.2000 -0.8171
  842MOL0     H13655   8.114   7.093   6.739 -1.3728 -0.5946  2.9329
  842MOL0     H13656   8.135   7.143   6.284 -0.6860  1.5936  0.5238
  842MOL0     H13657   8.220   7.241   6.081 -1.1845 -1.2030  0.8114
  842MOL0     H13658   8.431   7.471   6.062 -0.8640 -0.7157  0.1076
  842MOL0     H13659   8.318   7.387   5.955 -0.4351  0.1030 -0.0227
  842MOL0     H13660   8.546   7.368   5.813  1.2573 -1.1218  2.7311
  842MOL0     H13661   8.582   7.521   5.881  0.8911 -0.4496 -1.0762
  842MOL0     H13662   8.345   7.586   5.845 -0.8323 -3.1990  2.5466
  842MOL0     H13663   8.317   7.458   5.730 -1.1554  2.5904 -1.4818
  842MOL0     H13664   8.547   7.653   5.698  2.4375 -1.9139 -1.0450
  842MOL0     H13665   8.494   7.528   5.583 -4.0911  0.6184 -1.5509
  842MOL0     H13666   8.206   7.789   5.473  0.6064 -0.4175 -1.3889
  842MOL0     H13667   8.624   7.150   6.191 -0.1109  0.6213  0.2071
  842MOL0     H13668   8.600   7.107   6.500 -0.2175 -1.1015  1.4838
  842MOL0     H13669   8.537   6.947   6.459  0.6648 -0.5398 -1.4727
  842MOL0     H13670   8.670   7.014   6.372  0.0872  1.7184 -0.3268
  843MOL0     O13671   6.015   7.182   6.996  0.2944  0.8745  0.1997
  843MOL0     C13672   5.954   7.074   7.017 -0.1671  0.3268  0.2591
  843MOL0     O13673   6.008   6.951   7.057  0.0852  0.1023  0.7553
  843MOL0     C13674   6.136   6.956   7.090 -0.2052 -0.2712  0.1951
  843MOL0     C13675   6.181   6.995   7.222  0.5580 -0.5588  0.8337
  843MOL0     C13676   6.313   7.011   7.255 -0.6112  1.6459 -0.7869
  843MOL0     C13677   6.403   7.000   7.149 -1.4858  1.4305 -0.5703
  843MOL0     O13678   6.533   7.038   7.179 -0.7406 -0.1431 -0.3129
  843MOL0     C13679   6.630   6.941   7.149 -0.4637  1.1863  1.4843
  843MOL0     C13680   6.725   6.987   7.036  0.7669  0.7528  0.2914
  843MOL0     C13681   6.844   6.891   7.031 -0.0657  0.8875  0.0938
  843MOL0     C13682   6.959   6.932   6.927  0.5171 -0.6619  0.2483
  843MOL0     C13683   7.045   7.041   6.982 -0.8494 -0.6530 -0.1758
  843MOL0     C13684   7.099   7.145   6.872  0.6596  0.0830  0.3764
  843MOL0     C13685   7.194   7.253   6.931 -0.2582  0.2219  0.0326
  843MOL0     C13686   7.274   7.326   6.824 -0.1403 -0.5473  0.2239
  843MOL0     N13687   7.197   7.400   6.720  0.1187  0.0331  0.3116
  843MOL0     C13688   7.106   7.506   6.751  0.0743 -0.3404 -0.3262
  843MOL0     C13689   7.035   7.530   6.639 -0.7877  1.0452  0.6816
  843MOL0     C13690   6.912   7.603   6.626 -0.4701 -0.4322  0.0525
  843MOL0     C13691   6.912   7.747   6.695 -0.1252  0.1106  0.0532
  843MOL0     C13692   6.780   7.811   6.640 -0.3239 -0.1018  0.6678
  843MOL0     C13693   6.653   7.757   6.703  0.9688 -0.4101 -0.2574
  843MOL0     O13694   6.640   7.761   6.846  0.3605  0.3601  0.2384
  843MOL0     C13695   6.509   7.787   6.887 -0.5045  0.0077 -0.7105
  843MOL0     C13696   6.490   7.901   6.971  0.3810 -0.6462 -0.1044
  843MOL0     C13697   6.371   7.933   7.029 -0.2697  0.1868  0.8841
  843MOL0     C13698   6.258   7.857   6.989  0.7106 -0.2565  0.4392
  843MOL0     C13699   6.127   7.890   7.045  0.2813  0.3034 -0.3652
  843MOL0     O13700   6.114   8.008   7.109  0.0398  0.5263  0.7955
  843MOL0     C13701   5.994   8.043   7.161  0.8077 -0.7223 -0.4655
  843MOL0     C13702   5.903   8.126   7.105  0.3102  0.1665  0.1417
  843MOL0     C13703   5.775   8.150   7.150  0.0466 -0.0682 -0.2112
  843MOL0     C13704   5.748   8.096   7.282 -0.8361  0.7260 -0.2212
  843MOL0     O13705   5.621   8.128   7.328 -0.1176 -0.6584 -0.2012
  843MOL0     C13706   5.619   8.156   7.471  0.2627 -0.5045  0.3914
  843MOL0     C13707   5.498   8.227   7.524 -0.0721 -0.1137  0.5228
  843MOL0     C13708   5.473   8.365   7.442 -0.4888 -0.2469 -0.4436
  843MOL0     C13709   5.452   8.478   7.554 -0.0329 -0.3944 -0.8596
  843MOL0     C13710   5.378   8.594   7.505 -0.0042  0.8421 -0.4407
  843MOL0     C13711   5.232   8.549   7.464 -0.5153  0.0135 -0.3798
  843MOL0     C13712   5.144   8.669   7.421 -0.1386  0.2102 -0.6512
  843MOL0     C13713   4.988   8.650   7.399 -0.4785 -0.5934  0.5258
  843MOL0    Cl13714   4.893   8.607   7.545  0.2357  0.1074 -0.0571
  843MOL0     C13715   5.839   8.025   7.355  1.0535 -0.1329  1.2027
  843MOL0     C13716   5.963   7.997   7.286 -0.4010 -0.4908 -0.2423
  843MOL0     O13717   6.032   7.818   7.019 -0.4070 -0.5812 -0.2878
  843MOL0     C13718   6.269   7.748   6.907  0.2345  0.2714  0.4662
  843MOL0     C13719   6.387   7.706   6.857 -1.0671 -0.2111 -0.3734
  843MOL0     N13720   7.094   7.447   6.539  0.5204 -0.8539  0.4436
  843MOL0     N13721   7.183   7.373   6.588 -0.2669 -0.4007  0.5391
  843MOL0     C13722   6.359   6.968   7.017  0.8665 -0.8273  0.0415
  843MOL0     C13723   6.225   6.948   6.992 -0.6665 -0.0469 -0.1635
  843MOL0     C13724   5.814   7.074   6.995  0.8160 -0.7821  0.5279
  843MOL0     C13725   5.742   7.000   7.090  0.2989 -0.4377 -0.5466
  843MOL0     C13726   5.609   6.989   7.079 -0.4146  0.4493  0.4963
  843MOL0     C13727   5.533   7.039   6.970 -0.9450 -0.2438 -0.1627
  843MOL0     O13728   5.402   7.021   6.964  0.3407 -0.0745  0.3006
  843MOL0     C13729   5.321   6.966   7.067 -0.3503  0.4304 -0.5774
  843MOL0     C13730   5.172   7.015   7.052 -0.2515 -0.2904 -0.2481
  843MOL0     C13731   5.133   6.988   6.915  0.1948 -0.9614 -0.4063
  843MOL0     C13732   4.986   7.013   6.884  0.3176  0.6044  0.2563
  843MOL0     C13733   4.937   7.148   6.921  0.0565 -0.2166 -1.1549
  843MOL0     C13734   4.899   7.256   6.946  0.1452 -0.2556 -0.3194
  843MOL0     C13735   5.606   7.110   6.867  0.0796  0.2573 -0.5420
  843MOL0     C13736   5.745   7.141   6.887  0.0178  0.0089 -0.0531
  843MOL0     C13737   5.804   7.223   6.776 -0.1044 -0.2798  0.0620
  843MOL0     H13738   6.117   6.996   7.310  4.1937 -2.3632  3.7438
  843MOL0     H13739   6.347   7.035   7.356 -2.3996 -0.2609  0.3348
  843MOL0     H13740   6.693   6.922   7.237  1.5887  1.3835  0.1142
  843MOL0     H13741   6.584   6.848   7.115 -0.0008  1.6345 -0.4849
  843MOL0     H13742   6.772   7.082   7.062 -0.5185  1.4154  0.2901
  843MOL0     H13743   6.684   6.987   6.935  3.7859 -1.9231 -1.1242
  843MOL0     H13744   6.835   6.787   7.001  3.2499  0.1303  1.2044
  843MOL0     H13745   6.891   6.898   7.130  1.7477  0.1148 -0.6652
  843MOL0     H13746   7.011   6.841   6.895 -0.9643 -0.8090 -1.9652
  843MOL0     H13747   6.915   6.967   6.834  1.9274 -0.4066 -0.3519
  843MOL0     H13748   6.985   7.100   7.051 -2.3450 -1.8895 -0.3593
  843MOL0     H13749   7.125   6.992   7.037  0.1254 -0.8098 -1.6690
  843MOL0     H13750   7.156   7.078   6.808 -0.2586 -0.6147  0.2677
  843MOL0     H13751   7.010   7.190   6.827 -0.0403 -0.9178  0.7261
  843MOL0     H13752   7.259   7.216   7.010  0.2320  1.1890  0.0919
  843MOL0     H13753   7.135   7.326   6.988 -0.2322  0.9857 -0.9064
  843MOL0     H13754   7.332   7.400   6.880 -2.1608 -1.8191  4.4041
  843MOL0     H13755   7.355   7.266   6.780 -1.0063 -0.3194 -1.7730
  843MOL0     H13756   7.082   7.540   6.851 -2.1158 -1.5867 -0.3668
  843MOL0     H13757   6.912   7.629   6.520 -0.6778  2.6194  0.7075
  843MOL0     H13758   6.825   7.543   6.654 -2.0206  1.1901 -1.0726
  843MOL0     H13759   6.909   7.738   6.804  0.7764  0.4621  0.1169
  843MOL0     H13760   6.997   7.812   6.673 -1.2140  2.8021  2.9830
  843MOL0     H13761   6.772   7.814   6.531 -0.1332 -0.0986  0.6532
  843MOL0     H13762   6.787   7.914   6.676  6.3643 -0.1312  0.5935
  843MOL0     H13763   6.639   7.657   6.662  1.7450 -0.0915 -1.3589
  843MOL0     H13764   6.574   7.827   6.672  0.3344 -0.6523  0.7699
  843MOL0     H13765   6.579   7.960   6.989 -0.9965  0.5099  3.8478
  843MOL0     H13766   6.364   8.024   7.087 -1.2083  0.0740  0.9639
  843MOL0     H13767   5.934   8.177   7.015  1.1426  0.7651  0.7428
  843MOL0     H13768   5.703   8.204   7.090  0.2597 -0.6190 -0.9705
  843MOL0     H13769   5.628   8.062   7.525  1.5760 -0.6956 -0.1469
  843MOL0     H13770   5.710   8.213   7.494  0.6123 -1.6967  2.1177
  843MOL0     H13771   5.406   8.168   7.512 -0.7798  0.9792  0.4973
  843MOL0     H13772   5.510   8.234   7.633  1.9596 -3.5515  0.6513
  843MOL0     H13773   5.569   8.396   7.399 -0.2204  0.7260  0.7924
  843MOL0     H13774   5.398   8.366   7.363  0.8897  1.3408 -1.8170
  843MOL0     H13775   5.550   8.499   7.597  1.3978 -0.2395 -3.9246
  843MOL0     H13776   5.390   8.429   7.630  0.0952 -0.3055 -0.6964
  843MOL0     H13777   5.427   8.623   7.411  1.0813 -1.9598 -0.8210
  843MOL0     H13778   5.375   8.663   7.590 -0.1770 -0.7464  0.8810
  843MOL0     H13779   5.238   8.485   7.375 -3.1867 -0.9268  0.0439
  843MOL0     H13780   5.182   8.504   7.550  3.4394  1.0238  2.7545
  843MOL0     H13781   5.193   8.703   7.330 -0.2151 -0.0618 -0.7932
  843MOL0     H13782   5.146   8.746   7.499 -2.3867 -1.1638  0.9068
  843MOL0     H13783   4.954   8.738   7.345 -1.6745 -0.7819  0.9379
  843MOL0     H13784   4.984   8.566   7.329  1.2183  0.2926 -0.7215
  843MOL0     H13785   5.814   7.997   7.457 -0.8384  1.0732  1.1146
  843MOL0     H13786   6.032   7.930   7.335  2.2677 -0.5602 -3.6907
  843MOL0     H13787   6.181   7.694   6.875 -0.4120  1.5076  0.0830
  843MOL0     H13788   6.377   7.621   6.790  1.3419 -2.0278  1.3849
  843MOL0     H13789   6.425   6.982   6.932  2.0023 -3.4901  0.3743
  843MOL0     H13790   6.198   6.933   6.888 -0.6071  1.2899 -0.3882
  843MOL0     H13791   5.786   6.968   7.185  2.0188  1.7253 -0.5354
  843MOL0     H13792   5.558   6.914   7.139 -1.8433 -0.5700 -1.8794
  843MOL0     H13793   5.350   6.997   7.168 -2.3263 -3.4091  1.3661
  843MOL0     H13794   5.327   6.857   7.061 -0.0352  0.5267 -3.9094
  843MOL0     H13795   5.167   7.121   7.076  0.7699 -0.5637  1.3499
  843MOL0     H13796   5.098   6.977   7.122 -0.9134  0.6005 -0.4534
  843MOL0     H13797   5.150   6.880   6.913  0.5251 -0.9522  0.8557
  843MOL0     H13798   5.195   7.040   6.842 -1.2470 -0.3374 -1.2246
  843MOL0     H13799   4.969   7.003   6.777  2.1884  3.6089 -0.4703
  843MOL0     H13800   4.914   6.943   6.926  2.1801 -1.0692  0.8288
  843MOL0     H13801   4.851   7.350   6.963 -2.0460 -1.5543  1.1300
  843MOL0     H13802   5.545   7.155   6.789 -3.7500 -2.8849  0.3591
  843MOL0     H13803   5.828   7.152   6.696  0.0753 -0.5705  0.3761
  843MOL0     H13804   5.735   7.299   6.736  1.4452  1.6725  0.9599
  843MOL0     H13805   5.898   7.272   6.802 -1.7609  1.9284  2.3569
  844MOL0     O13806   0.490   9.772   6.529 -0.0048  0.5068 -0.0418
  844MOL0     C13807   0.416   9.870   6.516 -0.2530 -1.1439  1.4749
  844MOL0     O13808   0.452  10.007   6.537 -0.1355  0.1127  0.3475
  844MOL0     C13809   0.579  10.029   6.570  0.1172  0.2242  0.3755
  844MOL0     C13810   0.609  10.062   6.699 -0.7084 -0.2490 -1.5620
  844MOL0     C13811   0.747  10.086   6.734  0.4000 -0.3320  0.0791
  844MOL0     C13812   0.842  10.094   6.630  0.1165 -0.1652 -0.0036
  844MOL0     O13813   0.973  10.128   6.654 -1.1117  0.3356 -0.0565
  844MOL0     C13814   1.034  10.115   6.785  0.3755 -0.3913 -0.8362
  844MOL0     C13815   1.180  10.162   6.783 -0.0924  0.3864 -0.0612
  844MOL0     C13816   1.250  10.165   6.916  0.1849 -0.3629 -0.7322
  844MOL0     C13817   1.386  10.238   6.909 -0.1314  0.0560 -0.4798
  844MOL0     C13818   1.370  10.393   6.907  0.4613  0.5068 -0.2708
  844MOL0     C13819   1.489  10.474   6.857 -0.5610  0.2015  0.0403
  844MOL0     C13820   1.537  10.439   6.719 -0.1413 -0.1666  0.1764
  844MOL0     C13821   1.647  10.529   6.663 -0.3105 -0.5697  0.0893
  844MOL0     N13822   1.594  10.661   6.623 -0.7939  1.3984  0.1895
  844MOL0     C13823   1.642  10.781   6.681  1.1939 -0.4711 -0.0869
  844MOL0     C13824   1.578  10.872   6.608  0.2305  0.4010  0.8570
  844MOL0     C13825   1.578  11.022   6.643 -0.3556 -0.6201  0.8091
  844MOL0     C13826   1.717  11.086   6.640  0.6921 -0.1549 -0.2349
  844MOL0     C13827   1.742  11.166   6.510 -0.1524 -0.1004  0.8455
  844MOL0     C13828   1.795  11.091   6.389 -0.5320  0.0151  1.3576
  844MOL0     O13829   1.795  11.185   6.276 -0.0154 -0.0461 -0.5520
  844MOL0     C13830   1.904  11.270   6.282 -0.4424 -0.3229  0.0819
  844MOL0     C13831   2.025  11.259   6.347 -0.6563 -0.3951 -1.3575
  844MOL0     C13832   2.118  11.358   6.360 -0.0076  0.1248  0.1697
  844MOL0     C13833   2.099  11.481   6.305 -0.2848 -0.7846  0.0967
  844MOL0     C13834   2.188  11.594   6.329  0.6303  0.3011  0.7531
  844MOL0     O13835   2.270  11.592   6.431 -0.2045 -1.0177 -0.1205
  844MOL0     C13836   2.347  11.698   6.458  0.6699 -0.1112 -0.3797
  844MOL0     C13837   2.353  11.733   6.588 -0.1778  0.8304 -0.5602
  844MOL0     C13838   2.413  11.850   6.633  0.1362  0.3487 -0.2595
  844MOL0     C13839   2.497  11.923   6.544 -0.4251 -0.3754 -0.3936
  844MOL0     O13840   2.569  12.041   6.569 -0.6142 -0.2540  0.3532
  844MOL0     C13841   2.602  12.071   6.703  0.8032  0.4921  0.1949
  844MOL0     C13842   2.568  12.226   6.714 -0.8903 -0.2689  0.5400
  844MOL0     C13843   2.415  12.259   6.728 -0.8742 -0.0582 -1.5509
  844MOL0     C13844   2.384  12.404   6.696  0.9063  0.6909  1.0954
  844MOL0     C13845   2.461  12.508   6.781 -0.8142  0.1615 -0.3271
  844MOL0     C13846   2.460  12.648   6.715 -0.2558 -0.4523  0.2246
  844MOL0     C13847   2.537  12.665   6.581 -0.4859  0.1715 -0.1909
  844MOL0     C13848   2.555  12.817   6.546 -1.0464 -0.0435  0.2173
  844MOL0    Cl13849   2.578  12.821   6.368 -0.0669 -0.3903  0.2024
  844MOL0     C13850   2.497  11.880   6.414  0.3559  0.4170  0.4206
  844MOL0     C13851   2.416  11.780   6.355  0.9820  0.4363 -1.0883
  844MOL0     O13852   2.178  11.685   6.239 -0.2816 -0.2393 -0.5279
  844MOL0     C13853   1.985  11.505   6.223 -0.1071  0.5494  0.7485
  844MOL0     C13854   1.881  11.402   6.225 -0.2740  0.0549  1.0828
  844MOL0     N13855   1.487  10.807   6.520 -0.2015 -0.7210 -0.1370
  844MOL0     N13856   1.498  10.678   6.528 -0.2557  0.4195 -0.0689
  844MOL0     C13857   0.798  10.084   6.499 -0.2218  0.7330 -0.0111
  844MOL0     C13858   0.670  10.050   6.466  1.6561 -0.1319 -0.3331
  844MOL0     C13859   0.279   9.861   6.467 -0.2133  0.3934  1.1063
  844MOL0     C13860   0.221   9.944   6.369  0.1902 -0.1256  0.1782
  844MOL0     C13861   0.097   9.927   6.317 -0.1049  0.8406  0.6000
  844MOL0     C13862   0.011   9.821   6.367 -0.1906 -0.6351  0.8320
  844MOL0     O13863  -0.116   9.800   6.309 -0.1164  0.2048 -0.3487
  844MOL0     C13864  -0.214   9.882   6.363 -0.5100  0.2299 -0.3388
  844MOL0     C13865  -0.255   9.967   6.252  0.3079  0.2709  0.0274
  844MOL0     C13866  -0.360  10.077   6.299 -0.6840 -0.4734  0.1455
  844MOL0     C13867  -0.300  10.210   6.254  1.2711 -0.1890  0.3525
  844MOL0     C13868  -0.172  10.243   6.332  0.8540 -0.2887  0.0503
  844MOL0     C13869  -0.083  10.278   6.407  0.5408 -0.0988 -0.2913
  844MOL0     C13870   0.068   9.737   6.464  0.0222 -0.5395  0.1416
  844MOL0     C13871   0.189   9.758   6.520  0.1264  1.0661 -0.4982
  844MOL0     C13872   0.226   9.684   6.650 -0.6525 -0.2731  0.3306
  844MOL0     H13873   0.548  10.055   6.789  0.5684  0.3567 -0.6224
  844MOL0     H13874   0.771  10.100   6.839  1.6448 -1.3183 -0.0487
  844MOL0     H13875   0.977  10.177   6.854  1.9828 -0.0255  0.2076
  844MOL0     H13876   1.016  10.015   6.825 -1.4435  0.2314  0.0204
  844MOL0     H13877   1.177  10.261   6.736  2.8236  1.1552  1.1998
  844MOL0     H13878   1.242  10.100   6.717  3.5225  3.1677  0.4207
  844MOL0     H13879   1.261  10.066   6.961 -3.7011 -0.1328  1.1713
  844MOL0     H13880   1.192  10.221   6.990  0.6077 -0.2868 -0.4555
  844MOL0     H13881   1.438  10.208   7.001 -1.0488  4.8560  1.9774
  844MOL0     H13882   1.435  10.218   6.814 -0.0745  1.7971 -0.8570
  844MOL0     H13883   1.295  10.427   6.836 -0.6777  1.0427  1.1547
  844MOL0     H13884   1.334  10.423   7.005 -3.9612 -0.0399 -1.5190
  844MOL0     H13885   1.471  10.582   6.857  1.0577  0.5251  1.6170
  844MOL0     H13886   1.571  10.453   6.926  0.0246  1.9341 -0.0744
  844MOL0     H13887   1.445  10.427   6.660 -0.3716 -1.2220  0.7203
  844MOL0     H13888   1.586  10.342   6.723  0.1430  0.0058  1.4291
  844MOL0     H13889   1.726  10.549   6.737 -0.0897  0.0121 -0.2958
  844MOL0     H13890   1.693  10.484   6.575 -1.1584 -0.9941 -0.1440
  844MOL0     H13891   1.699  10.804   6.771  0.5133 -2.5644  0.9545
  844MOL0     H13892   1.517  11.055   6.559 -0.4260 -5.7888 -1.5465
  844MOL0     H13893   1.527  11.027   6.740 -1.4240 -1.6119  0.3139
  844MOL0     H13894   1.727  11.159   6.721 -3.0785  2.2019 -1.6172
  844MOL0     H13895   1.793  11.009   6.649 -0.6100 -1.2905  1.9623
  844MOL0     H13896   1.813  11.247   6.532 -0.2115  0.3178 -0.4447
  844MOL0     H13897   1.650  11.222   6.490 -0.5900 -0.0485  2.7702
  844MOL0     H13898   1.723  11.010   6.369 -0.1537 -0.3783  1.5791
  844MOL0     H13899   1.895  11.048   6.399  0.7326  2.5560  0.4884
  844MOL0     H13900   2.046  11.162   6.392 -0.4825 -0.1465 -0.9025
  844MOL0     H13901   2.205  11.328   6.418 -0.9694 -2.6967  0.3209
  844MOL0     H13902   2.270  11.690   6.643 -0.6689 -0.0654 -1.9498
  844MOL0     H13903   2.401  11.895   6.731  5.2314  3.0370 -0.5275
  844MOL0     H13904   2.549  12.012   6.779 -0.2872  1.3659  0.1404
  844MOL0     H13905   2.711  12.067   6.715  1.3688  2.4705 -3.1056
  844MOL0     H13906   2.614  12.270   6.804 -0.2869  0.1460  0.0390
  844MOL0     H13907   2.620  12.274   6.631  0.1786  1.6918  2.2516
  844MOL0     H13908   2.354  12.182   6.680  0.8106 -2.5214 -0.0288
  844MOL0     H13909   2.385  12.246   6.832 -0.0231  2.2264 -0.9675
  844MOL0     H13910   2.275  12.412   6.706  0.6449 -0.0808 -0.7932
  844MOL0     H13911   2.399  12.422   6.589  0.3773 -3.9889  0.0295
  844MOL0     H13912   2.565  12.477   6.794 -1.3516 -1.1386  1.1324
  844MOL0     H13913   2.421  12.526   6.881  2.7941  1.5584  1.0209
  844MOL0     H13914   2.360  12.689   6.700  0.3804  0.9179 -0.4144
  844MOL0     H13915   2.511  12.709   6.790 -0.7722 -1.6135  1.5755
  844MOL0     H13916   2.472  12.618   6.507  1.2548  1.3540 -2.6199
  844MOL0     H13917   2.637  12.620   6.582 -0.1476  0.8998 -0.7489
  844MOL0     H13918   2.472  12.874   6.588 -0.3943  1.8767 -0.9758
  844MOL0     H13919   2.644  12.866   6.587 -1.5910  0.9456  0.2295
  844MOL0     H13920   2.553  11.941   6.344  1.6041 -0.7027  0.3975
  844MOL0     H13921   2.411  11.757   6.249  0.8583  2.1499 -1.4813
  844MOL0     H13922   1.983  11.606   6.184  2.0715  1.6958  3.2901
  844MOL0     H13923   1.784  11.420   6.180  0.6006  0.1427 -0.8450
  844MOL0     H13924   0.876  10.107   6.426  0.1229  3.9525  1.1819
  844MOL0     H13925   0.634  10.034   6.365 -3.5385  0.1993  1.2058
  844MOL0     H13926   0.275  10.032   6.334  1.0207  0.3095  2.3600
  844MOL0     H13927   0.063   9.984   6.231 -1.7231 -0.4896  0.3045
  844MOL0     H13928  -0.181   9.940   6.450 -1.8276 -1.5074  1.4143
  844MOL0     H13929  -0.293   9.818   6.405 -0.2031 -0.6579 -1.0758
  844MOL0     H13930  -0.291   9.910   6.166  0.2730 -0.6168  0.6177
  844MOL0     H13931  -0.167  10.014   6.207  0.9300 -1.8742 -1.1494
  844MOL0     H13932  -0.391  10.063   6.403 -0.6084 -4.6569 -0.2005
  844MOL0     H13933  -0.449  10.082   6.235 -1.9237  1.9208  1.9251
  844MOL0     H13934  -0.284  10.208   6.146 -1.0193 -0.3407 -0.0456
  844MOL0     H13935  -0.374  10.288   6.272  1.3517  0.3188 -1.3605
  844MOL0     H13936  -0.021  10.301   6.491 -0.5555  0.1671  0.4619
  844MOL0     H13937  -0.007   9.667   6.501 -1.4122  0.4175 -0.8356
  844MOL0     H13938   0.146   9.627   6.698 -0.0765 -1.8987 -0.5828
  844MOL0     H13939   0.314   9.625   6.624  0.4993  1.1504  0.8337
  844MOL0     H13940   0.269   9.764   6.711 -0.9951 -0.0563  0.2902
  845MOL0     O13941   3.505   7.701   5.109  0.2214  0.3102  0.4412
  845MOL0     C13942   3.455   7.721   5.000 -0.9583 -0.3353  0.0212
  845MOL0     O13943   3.447   7.843   4.938  0.2234  0.5217  0.8196
  845MOL0     C13944   3.541   7.940   4.968  0.0469 -0.9507 -0.5269
  845MOL0     C13945   3.675   7.914   4.976  0.2953  0.5782  0.0801
  845MOL0     C13946   3.763   8.014   4.974  0.4074 -0.5845  0.1121
  845MOL0     C13947   3.733   8.151   4.977 -0.0445 -0.2498  0.0901
  845MOL0     O13948   3.810   8.254   4.990 -0.0990  0.0603  1.1280
  845MOL0     C13949   3.945   8.235   5.034  0.7368 -0.1381 -0.2226
  845MOL0     C13950   4.030   8.365   5.063 -0.2939  0.6678  1.5065
  845MOL0     C13951   4.128   8.407   4.939  1.0988  0.0635 -0.1997
  845MOL0     C13952   4.204   8.532   4.973  0.3557  0.0155  0.2141
  845MOL0     C13953   4.119   8.660   4.978 -0.0442 -0.9097 -1.2140
  845MOL0     C13954   4.060   8.716   4.849  0.0530  0.9708  0.8567
  845MOL0     C13955   3.966   8.835   4.870 -1.0148  0.0170  0.1777
  845MOL0     C13956   4.054   8.959   4.906 -0.4993  0.1207 -0.4564
  845MOL0     N13957   3.989   9.046   5.005  0.1322  0.0016  0.3613
  845MOL0     C13958   3.995   9.033   5.141 -0.2293  0.2226  1.1122
  845MOL0     C13959   3.947   9.149   5.182 -0.0981 -0.3350  0.9644
  845MOL0     C13960   3.943   9.190   5.329 -0.0281 -0.5513 -0.5581
  845MOL0     C13961   4.073   9.263   5.367 -0.0057 -0.4766  0.3552
  845MOL0     C13962   4.069   9.314   5.514  0.8666 -0.4530  0.8283
  845MOL0     C13963   3.939   9.382   5.562  0.0182  0.8703  0.0418
  845MOL0     O13964   3.875   9.293   5.652  0.4873  0.7128  0.3128
  845MOL0     C13965   3.741   9.310   5.656 -1.0669  0.5707 -0.0719
  845MOL0     C13966   3.689   9.420   5.724 -0.3498 -0.2947  0.2056
  845MOL0     C13967   3.553   9.432   5.738 -0.5859 -0.0923  0.5452
  845MOL0     C13968   3.466   9.340   5.672  0.1860 -1.0033  0.2060
  845MOL0     C13969   3.322   9.361   5.677 -0.6160 -0.0276 -0.1312
  845MOL0     O13970   3.234   9.277   5.611 -0.9239 -1.0100 -0.5234
  845MOL0     C13971   3.102   9.297   5.602 -0.2133  0.2321 -0.0383
  845MOL0     C13972   3.057   9.417   5.555  0.5949  0.5708  0.2913
  845MOL0     C13973   2.905   9.419   5.543 -0.6638  0.5162  0.6839
  845MOL0     C13974   2.825   9.312   5.573  0.2085 -0.2267  0.8152
  845MOL0     O13975   2.691   9.300   5.574  0.5358 -0.1633 -0.5771
  845MOL0     C13976   2.615   9.406   5.522  0.6793 -0.1089 -0.0354
  845MOL0     C13977   2.468   9.354   5.507 -0.3821 -0.4793 -0.5502
  845MOL0     C13978   2.374   9.472   5.466  0.1847 -0.4529 -0.0182
  845MOL0     C13979   2.356   9.484   5.311 -0.3843  0.0772 -0.6943
  845MOL0     C13980   2.247   9.590   5.266 -0.1958  0.5021  0.1716
  845MOL0     C13981   2.197   9.553   5.124 -0.7625  0.2834 -0.2193
  845MOL0     C13982   2.083   9.639   5.100  0.9927  0.3636 -0.0646
  845MOL0     C13983   2.063   9.648   4.949 -0.6666 -0.5395  0.2072
  845MOL0    Cl13984   1.950   9.786   4.900  0.3444 -0.3213 -0.5194
  845MOL0     C13985   2.889   9.202   5.628 -0.5727 -0.1736 -0.3011
  845MOL0     C13986   3.023   9.193   5.639  0.3992 -0.3581 -0.6801
  845MOL0     O13987   3.278   9.457   5.746 -0.5524  0.2493 -0.2332
  845MOL0     C13988   3.520   9.219   5.617  0.4069 -1.6596  0.2453
  845MOL0     C13989   3.659   9.213   5.597 -0.2361  0.8409 -0.0289
  845MOL0     N13990   3.936   9.242   5.081  0.3434  1.0682  0.0448
  845MOL0     N13991   3.939   9.168   4.968  0.1053  0.0342 -0.8032
  845MOL0     C13992   3.599   8.175   4.964 -0.5156  0.1521 -0.7921
  845MOL0     C13993   3.506   8.068   4.958  0.7149  0.5761  0.6948
  845MOL0     C13994   3.395   7.605   4.919  0.4357  0.1702 -0.2575
  845MOL0     C13995   3.368   7.628   4.778  0.4763 -0.5168 -0.6143
  845MOL0     C13996   3.301   7.517   4.709 -1.2526  0.4282  0.4985
  845MOL0     C13997   3.259   7.399   4.770 -0.4177 -0.1199  0.0769
  845MOL0     O13998   3.193   7.292   4.706  0.2015  0.3698 -0.6276
  845MOL0     C13999   3.111   7.337   4.599  0.2564  0.3383 -0.6712
  845MOL0     C14000   3.017   7.231   4.559  0.8129 -0.1261 -0.1742
  845MOL0     C14001   2.976   7.271   4.421  0.0231 -0.0353 -0.1473
  845MOL0     C14002   2.882   7.161   4.355 -0.7762 -0.6853 -0.2074
  845MOL0     C14003   2.850   7.205   4.218 -0.2373 -0.0936 -0.1147
  845MOL0     C14004   2.816   7.198   4.102  0.6710 -0.2635  0.4408
  845MOL0     C14005   3.286   7.388   4.906 -0.1709  0.8982 -0.0411
  845MOL0     C14006   3.355   7.479   4.984 -0.8820 -0.8397  0.9260
  845MOL0     C14007   3.394   7.436   5.123 -0.2242  0.0367 -0.6914
  845MOL0     H14008   3.713   7.812   4.968 -2.6295 -0.4634 -2.1507
  845MOL0     H14009   3.865   7.978   4.957  0.4391 -0.4221 -0.0518
  845MOL0     H14010   3.936   8.181   5.129 -0.1906 -0.5224 -0.5196
  845MOL0     H14011   3.992   8.162   4.967  2.1449 -0.5120  1.0871
  845MOL0     H14012   4.095   8.336   5.146  0.6236 -0.3401  0.4710
  845MOL0     H14013   3.962   8.443   5.097 -1.5446  0.2262  0.1289
  845MOL0     H14014   4.065   8.419   4.851  1.0491  2.0568  0.0664
  845MOL0     H14015   4.201   8.327   4.920  0.8923  0.2438 -1.8895
  845MOL0     H14016   4.250   8.528   5.072  1.8304  0.7335 -0.4049
  845MOL0     H14017   4.288   8.548   4.905  0.5093  0.2950  0.4639
  845MOL0     H14018   4.034   8.634   5.041 -0.4235 -1.0068 -1.7634
  845MOL0     H14019   4.187   8.726   5.033 -2.9952  0.9637  0.4522
  845MOL0     H14020   4.150   8.752   4.798  0.0207  0.7383  0.6311
  845MOL0     H14021   4.003   8.644   4.789  0.2752  0.6497  1.0277
  845MOL0     H14022   3.898   8.808   4.951 -0.3626 -2.1575  0.0612
  845MOL0     H14023   3.913   8.865   4.780 -1.4974 -2.2713 -0.3622
  845MOL0     H14024   4.153   8.922   4.935 -0.8085 -0.4880 -0.1561
  845MOL0     H14025   4.078   9.016   4.816  1.6992  1.9171  1.1207
  845MOL0     H14026   4.028   8.947   5.199 -1.2464 -1.4003 -0.5889
  845MOL0     H14027   3.855   9.250   5.355  0.5426  0.0457  0.0728
  845MOL0     H14028   3.950   9.098   5.388 -0.5416  0.9947  2.1134
  845MOL0     H14029   4.160   9.198   5.353  2.2501  2.1552  1.1996
  845MOL0     H14030   4.086   9.353   5.306 -0.7005 -0.4195  0.2813
  845MOL0     H14031   4.147   9.387   5.537 -0.0398  1.2207 -1.1249
  845MOL0     H14032   4.088   9.217   5.561  1.5372 -0.7647 -0.0595
  845MOL0     H14033   3.872   9.417   5.483  0.2330  1.0362 -0.0647
  845MOL0     H14034   3.957   9.472   5.622  1.8384 -0.9152  2.3980
  845MOL0     H14035   3.751   9.495   5.770 -0.1578 -1.9064  2.7372
  845MOL0     H14036   3.521   9.521   5.791 -0.3902 -0.8534  1.9688
  845MOL0     H14037   3.125   9.501   5.545 -0.9875  2.3013  2.7682
  845MOL0     H14038   2.858   9.514   5.521  0.4310  0.7394 -0.8020
  845MOL0     H14039   2.630   9.490   5.590  2.3628  0.9829 -1.6569
  845MOL0     H14040   2.628   9.446   5.421  0.4595  1.5000  0.5483
  845MOL0     H14041   2.457   9.277   5.430 -0.5815  0.8533 -1.9048
  845MOL0     H14042   2.433   9.307   5.600 -2.6028  0.5152 -0.8177
  845MOL0     H14043   2.281   9.458   5.522 -0.8431  4.2792 -0.0615
  845MOL0     H14044   2.411   9.565   5.509 -2.0009 -0.0719  1.2134
  845MOL0     H14045   2.335   9.384   5.273 -0.1486  0.4003 -1.6997
  845MOL0     H14046   2.452   9.515   5.270  0.3414 -3.1337 -1.7263
  845MOL0     H14047   2.277   9.695   5.278 -2.2527  1.0266  1.2549
  845MOL0     H14048   2.156   9.575   5.325  0.4321  1.0082  1.2825
  845MOL0     H14049   2.287   9.575   5.065  0.2401 -1.6473  0.5012
  845MOL0     H14050   2.177   9.445   5.127 -1.9013  0.5172  1.3695
  845MOL0     H14051   2.113   9.736   5.139  0.2622 -0.6198  3.2461
  845MOL0     H14052   1.994   9.599   5.148 -0.4216  1.3701 -1.7411
  845MOL0     H14053   2.157   9.683   4.905 -0.0319 -0.0666  1.8681
  845MOL0     H14054   2.038   9.553   4.902 -0.2804  0.3393 -1.9231
  845MOL0     H14055   2.831   9.113   5.652 -1.2096  0.6399  1.3061
  845MOL0     H14056   3.067   9.102   5.679  1.6611  2.1109  4.5094
  845MOL0     H14057   3.456   9.144   5.573 -0.5945 -1.2070  0.9017
  845MOL0     H14058   3.699   9.127   5.545 -1.8824 -0.9403  1.5105
  845MOL0     H14059   3.581   8.282   4.964  2.2176  0.6716  0.1828
  845MOL0     H14060   3.401   8.088   4.942  0.6464 -1.6036 -2.4551
  845MOL0     H14061   3.403   7.720   4.733  0.8395 -1.4906 -2.4073
  845MOL0     H14062   3.292   7.539   4.603 -2.6345  1.3228  0.7724
  845MOL0     H14063   3.180   7.368   4.520  1.2673  3.2276  1.2048
  845MOL0     H14064   3.063   7.430   4.632  0.7700 -0.5602  3.0638
  845MOL0     H14065   2.926   7.227   4.619 -0.2615 -2.2753 -1.7936
  845MOL0     H14066   3.069   7.135   4.562  0.6888 -0.1730  0.8663
  845MOL0     H14067   3.069   7.266   4.363  0.1353 -0.8100  0.0874
  845MOL0     H14068   2.934   7.371   4.409 -1.9546 -0.8860 -0.7878
  845MOL0     H14069   2.935   7.065   4.355  1.4616  0.4780  0.5403
  845MOL0     H14070   2.786   7.168   4.407 -1.1681  5.8232 -1.0213
  845MOL0     H14071   2.775   7.192   4.003 -1.2212  1.2991  1.0782
  845MOL0     H14072   3.260   7.300   4.964  5.1095 -0.5349  0.6524
  845MOL0     H14073   3.373   7.330   5.140  1.4057 -0.5738 -2.1747
  845MOL0     H14074   3.502   7.445   5.142 -0.1805  0.0184 -0.9385
  845MOL0     H14075   3.349   7.502   5.198 -0.4308  1.1770 -1.7928
  846MOL0     O14076   9.795   6.777   6.026  0.0016  0.0218  0.3785
  846MOL0     C14077   9.729   6.862   6.085  0.4867 -0.1502 -0.0766
  846MOL0     O14078   9.729   6.876   6.224 -0.5888  0.4360  0.0929
  846MOL0     C14079   9.790   6.778   6.304  0.1708 -0.0336  1.0292
  846MOL0     C14080   9.810   6.635   6.292  1.4375 -1.0046  0.3219
  846MOL0     C14081   9.871   6.562   6.395 -0.3900  0.0636 -0.8431
  846MOL0     C14082   9.907   6.633   6.515 -1.4479  0.7523  0.0493
  846MOL0     O14083   9.945   6.568   6.627  0.0458  0.0248 -0.6696
  846MOL0     C14084   9.988   6.432   6.635  0.2107 -0.2027 -0.5971
  846MOL0     C14085  10.004   6.394   6.787  0.4669  0.7584 -0.7962
  846MOL0     C14086  10.094   6.263   6.810 -0.4426 -0.1006 -0.3745
  846MOL0     C14087  10.010   6.131   6.813 -0.3001 -0.2474 -0.2759
  846MOL0     C14088  10.097   6.009   6.848  0.1312  0.4922  0.0822
  846MOL0     C14089  10.129   6.015   6.999 -0.1042 -0.5167  0.2066
  846MOL0     C14090  10.227   5.911   7.053 -1.1563  0.2578 -0.2507
  846MOL0     C14091  10.239   5.933   7.203 -0.0801  0.4286  0.2952
  846MOL0     N14092  10.326   5.828   7.258  0.0035  1.1427 -0.2898
  846MOL0     C14093  10.333   5.767   7.379 -1.0720 -0.5308  0.0406
  846MOL0     C14094  10.442   5.693   7.388 -0.0609 -0.5970  0.5881
  846MOL0     C14095  10.457   5.585   7.494 -0.7223 -0.0804 -0.7841
  846MOL0     C14096  10.572   5.493   7.460  0.2550 -0.3415 -0.5651
  846MOL0     C14097  10.700   5.565   7.479 -0.9874  0.2625 -0.0305
  846MOL0     C14098  10.745   5.606   7.617 -0.5272  0.9907  0.2224
  846MOL0     O14099  10.745   5.491   7.696 -0.5739  0.6347 -0.2998
  846MOL0     C14100  10.805   5.505   7.818 -0.0484 -0.3364  0.0273
  846MOL0     C14101  10.857   5.620   7.871 -0.5762 -0.9024 -0.0833
  846MOL0     C14102  10.886   5.629   8.014 -0.3183  0.1869 -0.0993
  846MOL0     C14103  10.868   5.511   8.087  0.5045 -0.1625 -0.8660
  846MOL0     C14104  10.885   5.514   8.233  0.3912  0.1278 -0.9687
  846MOL0     O14105  10.924   5.397   8.290  0.3730 -0.3270  0.1983
  846MOL0     C14106  10.913   5.385   8.424  0.3928 -0.4202  0.3046
  846MOL0     C14107  10.797   5.403   8.493  1.4093  0.2084  0.3153
  846MOL0     C14108  10.790   5.415   8.632 -0.3312 -0.9734 -0.5722
  846MOL0     C14109  10.901   5.387   8.714 -0.4568  0.0256  0.8528
  846MOL0     O14110  10.889   5.357   8.847  0.5816 -0.5457 -0.1306
  846MOL0     C14111  10.890   5.457   8.946  0.0769  0.4482 -0.4968
  846MOL0     C14112  10.798   5.572   8.954 -0.5059 -0.5270 -0.4245
  846MOL0     C14113  10.649   5.555   8.956  0.5632  0.2813 -0.7623
  846MOL0     C14114  10.591   5.488   9.087 -0.8402  0.5110 -0.0363
  846MOL0     C14115  10.437   5.488   9.098  0.3807  0.1540 -0.9494
  846MOL0     C14116  10.392   5.444   9.235  0.5616 -0.9360 -0.2928
  846MOL0     C14117  10.243   5.485   9.251 -0.2426  0.1542 -0.5298
  846MOL0     C14118  10.199   5.489   9.397 -1.0484 -0.2239  0.5245
  846MOL0    Cl14119  10.284   5.629   9.473 -0.3736  0.3357  0.3211
  846MOL0     C14120  11.017   5.368   8.653 -0.9365 -0.5360  0.1371
  846MOL0     C14121  11.026   5.379   8.509 -0.1503 -1.1772 -0.2498
  846MOL0     O14122  10.881   5.623   8.292  0.0996  0.3021  0.4309
  846MOL0     C14123  10.821   5.393   8.030  0.2928 -0.7455 -0.1106
  846MOL0     C14124  10.794   5.390   7.897  0.1614 -0.0686 -0.5030
  846MOL0     N14125  10.516   5.710   7.276 -0.2505  0.6998  0.7705
  846MOL0     N14126  10.448   5.793   7.205  0.1758  0.1595  0.2333
  846MOL0     C14127   9.887   6.773   6.532 -0.0924  0.7564  0.4585
  846MOL0     C14128   9.825   6.838   6.421  0.7102  0.3159  0.8789
  846MOL0     C14129   9.634   6.945   6.013  0.0133 -0.6128  0.8858
  846MOL0     C14130   9.512   6.987   6.062  0.4268 -0.3360 -0.2816
  846MOL0     C14131   9.410   7.041   5.988 -0.0738  0.0524 -0.8805
  846MOL0     C14132   9.431   7.077   5.854  0.2055  0.0323 -0.0336
  846MOL0     O14133   9.320   7.137   5.795 -0.5231 -0.0923  0.2715
  846MOL0     C14134   9.296   7.116   5.655  0.3608 -0.5978 -0.2675
  846MOL0     C14135   9.280   7.240   5.582  0.0714  0.0250  0.1089
  846MOL0     C14136   9.410   7.311   5.554 -0.1037  0.3479 -0.7391
  846MOL0     C14137   9.396   7.418   5.445  0.8007 -0.6968 -0.4126
  846MOL0     C14138   9.320   7.546   5.479 -0.9461 -0.5170 -0.2758
  846MOL0     C14139   9.260   7.643   5.511 -0.8348 -0.4591  0.5174
  846MOL0     C14140   9.554   7.054   5.806 -0.3561  0.2127  0.1327
  846MOL0     C14141   9.660   6.985   5.874  0.4382 -0.7123  0.1349
  846MOL0     C14142   9.775   6.958   5.783 -0.5618 -0.4244  0.3599
  846MOL0     H14143   9.765   6.594   6.203  0.8466  0.7071 -0.2134
  846MOL0     H14144   9.902   6.458   6.385  2.2455  0.6493  0.3760
  846MOL0     H14145   9.914   6.366   6.588 -2.0404  2.3956 -0.9649
  846MOL0     H14146  10.082   6.418   6.581  0.3719  0.7095 -0.5731
  846MOL0     H14147   9.904   6.379   6.830  0.5168 -2.3726 -1.5204
  846MOL0     H14148  10.055   6.469   6.848  0.6756 -1.8025  2.4303
  846MOL0     H14149  10.137   6.287   6.908  0.0821  0.4389 -0.7340
  846MOL0     H14150  10.185   6.250   6.751 -0.5314  0.7909 -0.7244
  846MOL0     H14151   9.927   6.138   6.883 -0.2361  0.8570 -0.2863
  846MOL0     H14152   9.965   6.122   6.713 -2.6866  0.4965  0.6693
  846MOL0     H14153  10.051   5.914   6.819  2.7662 -1.5903  2.1511
  846MOL0     H14154  10.188   6.009   6.786  0.7488 -4.4646  0.5860
  846MOL0     H14155  10.172   6.112   7.022  0.4486 -1.2044  2.3277
  846MOL0     H14156  10.033   5.997   7.050 -0.2533 -1.5850 -0.4123
  846MOL0     H14157  10.322   5.928   7.001  0.0253 -3.5228  0.4059
  846MOL0     H14158  10.200   5.809   7.023  2.3844 -0.4804 -1.4331
  846MOL0     H14159  10.280   6.033   7.221 -0.4627  0.4410  1.1274
  846MOL0     H14160  10.144   5.927   7.256  1.8843 -1.6084  3.9738
  846MOL0     H14161  10.261   5.792   7.457 -4.9291 -0.5616 -3.1890
  846MOL0     H14162  10.455   5.633   7.592 -0.5053 -0.5452 -0.5524
  846MOL0     H14163  10.368   5.521   7.497 -1.2320  0.6444  0.1162
  846MOL0     H14164  10.568   5.406   7.527 -2.1147 -0.0685 -0.2935
  846MOL0     H14165  10.557   5.464   7.356 -1.9849 -1.0853 -0.0832
  846MOL0     H14166  10.707   5.655   7.417  3.0535 -0.6548 -1.2761
  846MOL0     H14167  10.772   5.496   7.433 -0.9328  0.2223  0.1136
  846MOL0     H14168  10.676   5.684   7.651 -0.9850  1.9175 -2.6184
  846MOL0     H14169  10.837   5.660   7.594  0.6848 -2.3147 -4.1444
  846MOL0     H14170  10.877   5.703   7.805  0.1884 -1.9744 -1.2516
  846MOL0     H14171  10.938   5.713   8.059 -0.3847  0.3833 -0.3848
  846MOL0     H14172  10.701   5.417   8.444  1.9798 -0.7893 -1.1599
  846MOL0     H14173  10.696   5.435   8.684  1.1974  0.4215  1.8255
  846MOL0     H14174  10.868   5.403   9.039  0.5067  1.4983  0.2308
  846MOL0     H14175  10.987   5.507   8.952  1.5607 -2.0790 -1.7091
  846MOL0     H14176  10.835   5.629   9.040 -0.3846 -2.0914  0.6113
  846MOL0     H14177  10.829   5.636   8.872  2.6642 -1.5018 -0.1203
  846MOL0     H14178  10.604   5.654   8.946 -1.1501 -0.4548 -0.6542
  846MOL0     H14179  10.614   5.508   8.863 -0.0461 -0.2962 -0.2520
  846MOL0     H14180  10.645   5.525   9.175  2.9291 -1.8700 -1.1229
  846MOL0     H14181  10.627   5.386   9.071  0.7072  0.9936  0.1883
  846MOL0     H14182  10.400   5.415   9.026  1.3637 -1.3866  0.0439
  846MOL0     H14183  10.408   5.593   9.092  0.1509  0.3468  2.0683
  846MOL0     H14184  10.399   5.337   9.253  1.5735 -0.3435  4.0527
  846MOL0     H14185  10.458   5.493   9.307 -0.0232 -1.3762  0.5488
  846MOL0     H14186  10.177   5.414   9.200 -1.6611  0.9211  0.1544
  846MOL0     H14187  10.222   5.581   9.202 -0.0829  0.1057 -0.6956
  846MOL0     H14188  10.094   5.517   9.407 -1.7676 -2.8203  0.9846
  846MOL0     H14189  10.216   5.393   9.447  1.1540 -0.9272 -1.3919
  846MOL0     H14190  11.107   5.354   8.713  1.0141  3.9312 -1.2705
  846MOL0     H14191  11.118   5.362   8.454  0.4895  0.9749  0.0705
  846MOL0     H14192  10.794   5.307   8.091  0.7018 -1.3401 -0.7574
  846MOL0     H14193  10.752   5.298   7.858  0.0015 -0.2384  0.0607
  846MOL0     H14194   9.920   6.814   6.627  1.7516  1.0454 -0.2481
  846MOL0     H14195   9.815   6.945   6.435  1.8693  0.1099  4.0837
  846MOL0     H14196   9.500   6.967   6.168 -0.1584  0.0350 -0.2741
  846MOL0     H14197   9.316   7.068   6.036  1.4111 -1.0246  3.0138
  846MOL0     H14198   9.194   7.078   5.642  0.0216  0.8760 -2.5413
  846MOL0     H14199   9.371   7.061   5.598  0.9711 -1.3537  1.2025
  846MOL0     H14200   9.221   7.308   5.644 -0.4278  0.4881 -0.8623
  846MOL0     H14201   9.224   7.223   5.491  1.0305 -1.9772 -0.1659
  846MOL0     H14202   9.479   7.235   5.517  1.4589  2.7148 -3.0092
  846MOL0     H14203   9.445   7.361   5.645  0.0532 -0.5813 -0.2812
  846MOL0     H14204   9.490   7.451   5.399 -0.4053  1.0528 -1.7556
  846MOL0     H14205   9.340   7.369   5.365 -1.3902 -2.8393  2.2792
  846MOL0     H14206   9.211   7.738   5.521  4.2143  2.6289 -0.2454
  846MOL0     H14207   9.576   7.084   5.704 -1.0986 -1.0216 -0.4160
  846MOL0     H14208   9.873   6.983   5.825 -1.9275  0.0750  3.5147
  846MOL0     H14209   9.784   6.849   5.773  0.2578 -0.3068 -0.3414
  846MOL0     H14210   9.761   6.991   5.679 -1.9532  0.9446  0.9437
  847MOL0     O14211   2.187   1.253   7.202  0.1347 -0.0179  0.2744
  847MOL0     C14212   2.176   1.177   7.301 -0.1109  0.0725 -0.4295
  847MOL0     O14213   2.064   1.152   7.371  0.8703  1.0471 -0.2567
  847MOL0     C14214   1.945   1.207   7.340  0.6055 -0.2683 -0.0554
  847MOL0     C14215   1.908   1.339   7.357 -0.1413  1.1296 -0.4707
  847MOL0     C14216   1.778   1.382   7.333  0.2443 -0.1928  0.1615
  847MOL0     C14217   1.677   1.293   7.304 -0.4744 -0.9483 -0.1728
  847MOL0     O14218   1.556   1.354   7.284 -0.2143  0.1981 -0.0368
  847MOL0     C14219   1.471   1.283   7.185  0.2996  0.2135 -0.9336
  847MOL0     C14220   1.347   1.377   7.159 -1.1117  0.2252 -0.4927
  847MOL0     C14221   1.337   1.453   7.023  0.5005 -0.9099  0.3373
  847MOL0     C14222   1.447   1.562   7.005 -0.0472 -0.1492  0.6970
  847MOL0     C14223   1.438   1.615   6.864  0.0001  0.2571 -1.1485
  847MOL0     C14224   1.521   1.751   6.844 -0.1656 -0.3360  0.3500
  847MOL0     C14225   1.481   1.829   6.717 -0.9298  0.6427 -0.8766
  847MOL0     C14226   1.591   1.868   6.612  0.0066 -1.1230  0.2417
  847MOL0     N14227   1.657   1.758   6.536 -0.0042  0.6021 -0.0290
  847MOL0     C14228   1.615   1.727   6.407 -1.1971 -1.0807 -0.5639
  847MOL0     C14229   1.692   1.618   6.394 -0.1774  0.0850  0.3246
  847MOL0     C14230   1.699   1.539   6.259 -0.5472 -0.9290  0.1063
  847MOL0     C14231   1.801   1.604   6.164  0.5158 -0.2616  1.4280
  847MOL0     C14232   1.822   1.502   6.040  0.9304 -1.1801  0.2913
  847MOL0     C14233   1.691   1.516   5.946  0.1160 -0.6106  0.5197
  847MOL0     O14234   1.706   1.415   5.842  0.4747 -0.4646  0.0870
  847MOL0     C14235   1.592   1.366   5.786  0.1097 -0.1798  0.1415
  847MOL0     C14236   1.469   1.415   5.817 -0.4838 -0.5293  0.4410
  847MOL0     C14237   1.358   1.340   5.766 -0.3554 -0.3310  0.4234
  847MOL0     C14238   1.369   1.218   5.693 -0.3142 -0.2780 -0.7025
  847MOL0     C14239   1.254   1.159   5.643 -0.1677  0.0759 -0.4203
  847MOL0     O14240   1.257   1.019   5.618  0.7193  0.1767  0.0782
  847MOL0     C14241   1.146   0.962   5.561 -0.4021 -0.7919  0.5220
  847MOL0     C14242   1.121   0.838   5.609 -0.1355  0.3133  0.1465
  847MOL0     C14243   1.001   0.772   5.563  0.0752  0.0297  0.5045
  847MOL0     C14244   0.927   0.813   5.452  0.2250 -0.4045 -0.2474
  847MOL0     O14245   0.811   0.756   5.406 -0.7149  0.2150  0.1915
  847MOL0     C14246   0.833   0.622   5.362 -0.7285  0.4084  0.3154
  847MOL0     C14247   0.710   0.598   5.279  0.4619  0.0644 -0.7655
  847MOL0     C14248   0.688   0.462   5.219  1.0352  0.7079 -0.1216
  847MOL0     C14249   0.791   0.427   5.116  0.7672  0.3966  0.4040
  847MOL0     C14250   0.760   0.293   5.046  0.1017  0.3523  0.2768
  847MOL0     C14251   0.838   0.280   4.909  0.1382  0.5787 -0.3860
  847MOL0     C14252   0.823   0.144   4.840  1.3543 -0.5673  0.2905
  847MOL0     C14253   0.871   0.132   4.707 -1.3927  1.5684 -0.1816
  847MOL0    Cl14254   1.046   0.088   4.709 -0.1474 -0.0654 -0.4417
  847MOL0     C14255   0.969   0.931   5.392 -0.1577 -0.8807  0.0660
  847MOL0     C14256   1.073   1.014   5.444 -0.7800 -0.0448 -1.2397
  847MOL0     O14257   1.162   1.238   5.630 -0.3066  0.5001  0.7517
  847MOL0     C14258   1.501   1.173   5.668 -0.3214  0.9509  0.9575
  847MOL0     C14259   1.606   1.245   5.715 -0.0574  0.0025  0.1371
  847MOL0     N14260   1.772   1.595   6.509  0.1861 -0.6701  0.4705
  847MOL0     N14261   1.748   1.681   6.593  0.2761 -0.7277 -0.4983
  847MOL0     C14262   1.706   1.157   7.287 -0.0945 -0.1836  0.2634
  847MOL0     C14263   1.841   1.117   7.294  0.0995  0.4917  0.4136
  847MOL0     C14264   2.295   1.105   7.351 -0.6409 -0.1552  0.0097
  847MOL0     C14265   2.283   1.035   7.468 -0.1124 -0.1389 -0.8710
  847MOL0     C14266   2.383   0.953   7.510  1.2806  0.0454 -0.3279
  847MOL0     C14267   2.498   0.944   7.435  0.3002  0.3436  0.3078
  847MOL0     O14268   2.599   0.860   7.469 -0.1256 -0.2385 -0.1191
  847MOL0     C14269   2.593   0.781   7.593 -0.1757  0.8319 -0.2698
  847MOL0     C14270   2.737   0.711   7.610 -0.1071  0.6364 -0.5809
  847MOL0     C14271   2.729   0.572   7.659 -0.2487  0.2010 -0.7292
  847MOL0     C14272   2.708   0.467   7.556  0.5150 -0.0135  0.2563
  847MOL0     C14273   2.565   0.475   7.498  0.7321  1.1577 -0.4896
  847MOL0     C14274   2.445   0.460   7.462  0.3552 -0.4772  0.1047
  847MOL0     C14275   2.519   1.021   7.325  0.2430  0.0002  0.6218
  847MOL0     C14276   2.418   1.096   7.276  0.4592  0.3892  0.0909
  847MOL0     C14277   2.443   1.160   7.139  0.3740 -0.7934 -0.1019
  847MOL0     H14278   1.972   1.415   7.400  0.1754  0.2955  0.5653
  847MOL0     H14279   1.740   1.484   7.340 -3.2812 -1.1421 -2.5613
  847MOL0     H14280   1.521   1.278   7.088 -0.2308 -1.1792 -1.1582
  847MOL0     H14281   1.438   1.184   7.219  0.3115  0.9727  1.4644
  847MOL0     H14282   1.336   1.440   7.248  0.9572  1.1563 -0.8296
  847MOL0     H14283   1.260   1.311   7.152 -0.4444 -0.8732  0.9076
  847MOL0     H14284   1.239   1.501   7.016 -0.0345 -1.5086  2.8069
  847MOL0     H14285   1.350   1.383   6.940 -1.2311  0.1158 -0.8547
  847MOL0     H14286   1.435   1.648   7.071 -3.6012  1.1315 -1.3596
  847MOL0     H14287   1.545   1.516   7.024 -0.4577 -0.4022  2.3345
  847MOL0     H14288   1.453   1.536   6.790 -1.0897  0.1461 -1.2676
  847MOL0     H14289   1.336   1.649   6.843  0.0038  2.1138  1.3366
  847MOL0     H14290   1.491   1.812   6.929 -4.5097 -0.2816 -0.9660
  847MOL0     H14291   1.629   1.737   6.851 -0.2075  0.3108  4.9443
  847MOL0     H14292   1.458   1.930   6.752  4.1701  1.0269  2.5721
  847MOL0     H14293   1.399   1.778   6.666 -2.1469  1.6342  0.0314
  847MOL0     H14294   1.536   1.924   6.535 -1.5548 -1.9011  0.7483
  847MOL0     H14295   1.664   1.931   6.664 -0.2337 -0.7568  0.1457
  847MOL0     H14296   1.542   1.777   6.345  0.7656 -2.9494 -4.8022
  847MOL0     H14297   1.723   1.436   6.285  0.2665 -0.6212  0.6375
  847MOL0     H14298   1.602   1.536   6.208 -1.3697 -0.3287  1.5518
  847MOL0     H14299   1.763   1.704   6.140 -0.2150 -1.1182 -1.3688
  847MOL0     H14300   1.898   1.611   6.215  1.4802 -0.9005 -0.2277
  847MOL0     H14301   1.832   1.399   6.075  0.3079 -0.3841  3.0111
  847MOL0     H14302   1.910   1.532   5.983  1.6113 -0.8591  1.4876
  847MOL0     H14303   1.683   1.620   5.911  0.6330 -0.7304  0.0424
  847MOL0     H14304   1.608   1.503   6.016 -0.7385  4.2108  0.7979
  847MOL0     H14305   1.438   1.503   5.872  3.3690  1.4360 -0.2190
  847MOL0     H14306   1.261   1.388   5.776 -1.0846 -1.9461  1.5074
  847MOL0     H14307   1.177   0.796   5.691 -4.4656 -1.5183  2.5167
  847MOL0     H14308   0.970   0.678   5.608  1.7721 -1.4249 -1.1845
  847MOL0     H14309   0.922   0.610   5.301 -0.8627  2.3054 -0.3392
  847MOL0     H14310   0.840   0.557   5.449 -2.1893 -0.4541 -0.1749
  847MOL0     H14311   0.621   0.631   5.334  1.3429  3.5412 -1.1644
  847MOL0     H14312   0.700   0.678   5.205 -1.9408  3.1443  2.5154
  847MOL0     H14313   0.696   0.383   5.295 -0.2748  0.9576  0.3025
  847MOL0     H14314   0.586   0.459   5.180  1.6741  3.5183 -2.3381
  847MOL0     H14315   0.889   0.410   5.161  0.5331  0.3864  0.9228
  847MOL0     H14316   0.804   0.506   5.042  1.0961 -0.0694 -0.0446
  847MOL0     H14317   0.652   0.292   5.027  0.4929  1.8099 -2.6164
  847MOL0     H14318   0.786   0.205   5.105 -0.6575  2.1656  3.5263
  847MOL0     H14319   0.796   0.368   4.860  1.2389  1.0900 -0.4338
  847MOL0     H14320   0.941   0.302   4.937  1.1991 -2.9269 -1.0734
  847MOL0     H14321   0.716   0.127   4.850  1.1111  0.1187 -0.9730
  847MOL0     H14322   0.852   0.058   4.901  0.6448 -0.4280  0.8375
  847MOL0     H14323   0.818   0.045   4.666 -0.5344  0.8863  0.1343
  847MOL0     H14324   0.856   0.217   4.640 -1.4828  2.0839  0.4776
  847MOL0     H14325   0.915   0.975   5.308  1.3066  0.3866 -0.2692
  847MOL0     H14326   1.097   1.111   5.401 -0.5385  0.6170  0.3327
  847MOL0     H14327   1.510   1.078   5.616 -0.0059  0.4094  1.9697
  847MOL0     H14328   1.702   1.195   5.720 -0.5570 -1.0082 -0.0825
  847MOL0     H14329   1.621   1.094   7.263 -0.7856  0.1963  1.5866
  847MOL0     H14330   1.852   1.009   7.287  0.4046  0.4847  0.9421
  847MOL0     H14331   2.189   1.047   7.520  0.0735 -1.0157 -0.3087
  847MOL0     H14332   2.374   0.889   7.598  3.5846  1.4083  1.0256
  847MOL0     H14333   2.515   0.705   7.583  0.2366  0.2360  0.8701
  847MOL0     H14334   2.574   0.847   7.679 -0.4136  0.7736 -0.2776
  847MOL0     H14335   2.809   0.782   7.652 -1.1476  1.2375  0.2572
  847MOL0     H14336   2.776   0.694   7.509  3.8468  0.6885  0.7795
  847MOL0     H14337   2.650   0.556   7.733 -0.2606 -1.0084 -0.9744
  847MOL0     H14338   2.820   0.556   7.717 -2.5438 -0.6939  2.9814
  847MOL0     H14339   2.789   0.477   7.484  0.7217 -1.6320  0.2318
  847MOL0     H14340   2.725   0.370   7.603  2.5678  0.5986  0.8924
  847MOL0     H14341   2.352   0.433   7.417 -1.2294  0.6787  2.5069
  847MOL0     H14342   2.614   1.019   7.272  0.0892  1.7706  0.2209
  847MOL0     H14343   2.363   1.134   7.069  0.2974  0.0645 -0.3483
  847MOL0     H14344   2.445   1.269   7.153  0.1926 -1.0551  2.2976
  847MOL0     H14345   2.539   1.129   7.097  1.3490  1.7429  0.0324
  848MOL0     O14346   8.661   8.179   0.658 -1.0246  0.0638  0.2327
  848MOL0     C14347   8.770   8.210   0.611 -0.4090  0.2895 -0.1804
  848MOL0     O14348   8.791   8.314   0.523 -0.3887  0.0339 -0.5585
  848MOL0     C14349   8.715   8.432   0.520  0.0141 -0.1131  0.6903
  848MOL0     C14350   8.622   8.475   0.616  0.0713 -0.7588  0.5914
  848MOL0     C14351   8.554   8.595   0.599  0.9242  0.1752 -0.6823
  848MOL0     C14352   8.585   8.680   0.494  0.0973  0.2099  0.9100
  848MOL0     O14353   8.513   8.789   0.465  0.1791  0.4078 -0.6590
  848MOL0     C14354   8.577   8.907   0.511  0.2163 -0.3602  0.3778
  848MOL0     C14355   8.490   8.988   0.612  1.2803  0.1264  0.4340
  848MOL0     C14356   8.342   9.026   0.562  0.3830 -0.0938 -0.7225
  848MOL0     C14357   8.270   9.087   0.678  0.7544 -0.0572 -0.8135
  848MOL0     C14358   8.132   9.148   0.638 -0.5764  0.4735 -0.6605
  848MOL0     C14359   8.154   9.260   0.537  0.2218 -0.8513 -0.7225
  848MOL0     C14360   8.022   9.346   0.536  0.5451  0.3871  1.3647
  848MOL0     C14361   8.032   9.478   0.609  0.3490 -0.1694 -0.8571
  848MOL0     N14362   7.912   9.556   0.606 -0.0092 -0.3636  0.0990
  848MOL0     C14363   7.846   9.600   0.496  1.2774 -0.5752  0.1831
  848MOL0     C14364   7.733   9.670   0.536 -0.2862 -0.6978 -0.0691
  848MOL0     C14365   7.632   9.744   0.458 -0.3329  0.4324 -0.2873
  848MOL0     C14366   7.526   9.643   0.408  0.5188  0.0843  0.5032
  848MOL0     C14367   7.402   9.716   0.360 -0.5115  0.2664  0.1565
  848MOL0     C14368   7.435   9.814   0.246  0.4035 -0.3673  0.0394
  848MOL0     O14369   7.513   9.756   0.137  0.4773 -0.0159 -0.0766
  848MOL0     C14370   7.558   9.844   0.043  0.1024  0.5006  0.3920
  848MOL0     C14371   7.691   9.888   0.047  0.2331 -0.6787  1.0136
  848MOL0     C14372   7.737   9.980  -0.046 -0.0661  0.9384  0.1099
  848MOL0     C14373   7.647  10.028  -0.143  0.2257 -0.0938  0.5561
  848MOL0     C14374   7.688  10.139  -0.231 -0.5270 -0.5014 -1.0440
  848MOL0     O14375   7.639  10.146  -0.359 -0.0475  0.4472 -0.4281
  848MOL0     C14376   7.679  10.238  -0.449 -0.1837 -0.0215 -0.2821
  848MOL0     C14377   7.806  10.300  -0.447  0.1567  0.0794  1.4094
  848MOL0     C14378   7.845  10.377  -0.560 -0.2726 -0.5897  0.0718
  848MOL0     C14379   7.760  10.386  -0.672  0.3019  0.2579 -0.7146
  848MOL0     O14380   7.797  10.462  -0.775  0.1942  0.2306  0.1971
  848MOL0     C14381   7.756  10.605  -0.758 -0.1063 -0.1886  0.8117
  848MOL0     C14382   7.604  10.624  -0.787  0.7966 -0.7405  0.7804
  848MOL0     C14383   7.555  10.576  -0.926  0.5555  0.1917  0.6502
  848MOL0     C14384   7.408  10.617  -0.962  0.0201 -0.1867  0.0010
  848MOL0     C14385   7.379  10.561  -1.108 -0.3154 -0.0620  0.4380
  848MOL0     C14386   7.244  10.597  -1.162 -0.7735 -0.4970  0.7539
  848MOL0     C14387   7.135  10.490  -1.121 -1.1741 -0.3307 -0.2125
  848MOL0     C14388   7.006  10.548  -1.138  0.4827  0.5477  0.3840
  848MOL0    Cl14389   6.974  10.697  -1.044  0.0038  0.1963  0.0645
  848MOL0     C14390   7.640  10.321  -0.666 -0.2180  0.3443 -0.1079
  848MOL0     C14391   7.602  10.243  -0.560 -0.7383  0.6898  1.1704
  848MOL0     O14392   7.773  10.218  -0.180 -0.3328 -0.1511 -0.2789
  848MOL0     C14393   7.518   9.979  -0.154 -0.7748  0.3064 -0.7443
  848MOL0     C14394   7.473   9.876  -0.060 -0.2314  0.1494  0.6372
  848MOL0     N14395   7.727   9.662   0.676  0.1168 -0.3447  0.6717
  848MOL0     N14396   7.831   9.593   0.716 -0.1972  0.5045  0.3258
  848MOL0     C14397   8.677   8.642   0.394 -0.4465 -0.3601 -0.1197
  848MOL0     C14398   8.734   8.516   0.405  0.2515 -0.4902  0.5515
  848MOL0     C14399   8.887   8.110   0.623 -0.9895 -0.7497 -0.9064
  848MOL0     C14400   8.988   8.134   0.523 -1.1733  0.7469  0.0166
  848MOL0     C14401   9.080   8.027   0.495  0.5214  0.2681  0.2410
  848MOL0     C14402   9.099   7.921   0.583  0.2809  0.5678  0.0692
  848MOL0     O14403   9.189   7.826   0.574  0.1389 -0.3064 -0.3073
  848MOL0     C14404   9.271   7.802   0.463  0.2511  0.4905  0.2381
  848MOL0     C14405   9.384   7.700   0.494 -0.0056  0.3208  0.2832
  848MOL0     C14406   9.340   7.571   0.558 -0.5228 -0.1417 -0.2390
  848MOL0     C14407   9.463   7.509   0.631 -0.9027  0.2859 -0.2436
  848MOL0     C14408   9.570   7.473   0.532 -0.5288 -0.9081 -0.2417
  848MOL0     C14409   9.658   7.452   0.450 -0.0754  0.7527 -0.8139
  848MOL0     C14410   9.010   7.910   0.698 -0.4556 -0.3847  0.8822
  848MOL0     C14411   8.904   7.997   0.713  0.4359 -0.2608  0.1048
  848MOL0     C14412   8.813   7.978   0.834 -1.0686  0.0000 -0.4389
  848MOL0     H14413   8.598   8.401   0.692 -0.6932 -2.6727 -1.4029
  848MOL0     H14414   8.477   8.610   0.674 -0.4263 -3.4255 -1.1539
  848MOL0     H14415   8.674   8.879   0.553  2.5568  0.0747 -4.1559
  848MOL0     H14416   8.601   8.978   0.431 -0.1904 -0.5580  0.0783
  848MOL0     H14417   8.541   9.082   0.633  0.7699  0.3488  0.7121
  848MOL0     H14418   8.484   8.936   0.708  2.2473 -0.1090  0.3725
  848MOL0     H14419   8.290   8.946   0.509  2.2261 -0.7468 -1.6382
  848MOL0     H14420   8.342   9.109   0.491 -0.5605  0.9565  0.4465
  848MOL0     H14421   8.246   9.009   0.751  4.3938 -1.0667 -0.4986
  848MOL0     H14422   8.325   9.167   0.728 -2.5742  0.5591  2.2728
  848MOL0     H14423   8.072   9.065   0.598 -1.6428  0.4014  0.9930
  848MOL0     H14424   8.076   9.185   0.725 -0.9651  1.2135 -1.2182
  848MOL0     H14425   8.235   9.327   0.565  0.1162 -0.0014 -2.3129
  848MOL0     H14426   8.177   9.224   0.436  2.9241  1.4491 -1.0479
  848MOL0     H14427   7.935   9.282   0.555 -0.2460  0.8736 -0.3831
  848MOL0     H14428   8.018   9.374   0.430  0.1475 -0.3074  1.1894
  848MOL0     H14429   8.061   9.459   0.712  2.2617 -1.4164 -1.5586
  848MOL0     H14430   8.106   9.549   0.572 -1.6355  3.4391  1.4977
  848MOL0     H14431   7.887   9.588   0.396  1.9763  0.4102  0.3352
  848MOL0     H14432   7.583   9.813   0.528  0.8403 -0.7264  1.7895
  848MOL0     H14433   7.677   9.803   0.378 -2.3396  0.3043 -1.5816
  848MOL0     H14434   7.559   9.583   0.323  1.5213  0.5915  0.5248
  848MOL0     H14435   7.519   9.583   0.500  1.1340  2.1773  1.9741
  848MOL0     H14436   7.358   9.777   0.440 -3.5190 -0.6215 -0.6673
  848MOL0     H14437   7.326   9.642   0.332 -2.8970  2.0303  1.5237
  848MOL0     H14438   7.484   9.896   0.301 -1.3467  1.6956 -1.2946
  848MOL0     H14439   7.337   9.853   0.215 -1.1961 -3.8200  0.2514
  848MOL0     H14440   7.767   9.853   0.116  2.9657 -0.7619 -1.8486
  848MOL0     H14441   7.840  10.014  -0.041  0.4589 -0.5637  0.0080
  848MOL0     H14442   7.872  10.296  -0.361 -1.2694 -1.7219  2.5149
  848MOL0     H14443   7.940  10.429  -0.569 -0.7940  0.0711 -2.5030
  848MOL0     H14444   7.790  10.637  -0.659  1.4814 -1.3918  0.6983
  848MOL0     H14445   7.815  10.660  -0.832 -0.3503 -0.8274  0.1270
  848MOL0     H14446   7.555  10.567  -0.708 -1.8961 -1.2676 -1.1169
  848MOL0     H14447   7.589  10.732  -0.778  5.5865  0.1619  0.5540
  848MOL0     H14448   7.631  10.608  -0.997 -1.7271 -0.3569 -2.2212
  848MOL0     H14449   7.569  10.468  -0.924  1.1218  0.1942 -1.2188
  848MOL0     H14450   7.410  10.726  -0.952  2.0533 -0.2485  0.6057
  848MOL0     H14451   7.339  10.570  -0.890 -2.1321 -0.7964 -2.3314
  848MOL0     H14452   7.387  10.452  -1.100 -2.9458 -0.3043  0.4679
  848MOL0     H14453   7.450  10.603  -1.180 -1.9643 -0.9928 -1.8439
  848MOL0     H14454   7.215  10.699  -1.134  0.3579  0.5017 -1.5237
  848MOL0     H14455   7.264  10.608  -1.269  0.2143 -1.3395  0.8358
  848MOL0     H14456   7.148  10.455  -1.019  3.0270  0.7730 -0.1538
  848MOL0     H14457   7.154  10.410  -1.193  0.7853  0.9188 -1.1987
  848MOL0     H14458   7.010  10.577  -1.243  1.2362  0.3913  0.3631
  848MOL0     H14459   6.933  10.467  -1.128 -0.4319  1.3710  0.5008
  848MOL0     H14460   7.584  10.309  -0.759 -0.0815 -1.1503 -0.0301
  848MOL0     H14461   7.504  10.197  -0.561 -0.7535  0.6159  2.8182
  848MOL0     H14462   7.450  10.036  -0.217  0.6918  3.0360 -0.0114
  848MOL0     H14463   7.374   9.831  -0.060 -0.2014 -0.0044  2.5646
  848MOL0     H14464   8.708   8.716   0.321 -2.2016  3.3763  2.5393
  848MOL0     H14465   8.811   8.485   0.335 -1.0139 -1.0584 -0.6457
  848MOL0     H14466   8.986   8.217   0.453  1.7865  1.1511  0.2907
  848MOL0     H14467   9.153   8.032   0.415  2.6799 -0.9087  2.0268
  848MOL0     H14468   9.306   7.901   0.431 -0.2565 -0.1937 -2.6208
  848MOL0     H14469   9.209   7.760   0.384 -2.0048  2.0162  1.0868
  848MOL0     H14470   9.449   7.757   0.562 -1.9944  1.6099  1.2200
  848MOL0     H14471   9.442   7.687   0.402 -2.9360  1.0494 -1.8117
  848MOL0     H14472   9.297   7.508   0.479 -3.4459  1.1573  0.1942
  848MOL0     H14473   9.263   7.586   0.634 -0.9362 -0.4326 -0.5926
  848MOL0     H14474   9.498   7.583   0.704  1.2919 -0.9964  0.1067
  848MOL0     H14475   9.435   7.417   0.683 -2.1224 -0.3898 -1.9732
  848MOL0     H14476   9.747   7.434   0.394 -0.1451 -0.8841 -0.4401
  848MOL0     H14477   9.032   7.821   0.756  1.4659 -0.8682 -0.4985
  848MOL0     H14478   8.874   7.947   0.918 -0.4104  4.8921  1.1847
  848MOL0     H14479   8.780   8.076   0.870  2.3462  0.5196  1.6763
  848MOL0     H14480   8.723   7.916   0.825  0.6839 -3.3903  2.7675
  849MOL0     O14481   6.808   3.092   2.686  0.2558 -0.1099 -0.7557
  849MOL0     C14482   6.816   3.173   2.781 -0.2491  0.6044 -0.2989
  849MOL0     O14483   6.853   3.140   2.910 -0.1199 -0.7238  0.3005
  849MOL0     C14484   6.921   3.027   2.922  0.0702  1.2363 -0.2422
  849MOL0     C14485   6.842   2.906   2.951 -1.1738 -0.1083  0.3070
  849MOL0     C14486   6.899   2.798   3.014 -0.2480 -0.5300 -0.2555
  849MOL0     C14487   7.031   2.796   3.050  0.7755  0.5443 -0.4522
  849MOL0     O14488   7.074   2.680   3.096 -0.4051  0.0691 -0.3045
  849MOL0     C14489   7.142   2.686   3.227 -0.1743 -0.4370  0.1559
  849MOL0     C14490   7.042   2.656   3.343  0.1890  0.9349  0.0690
  849MOL0     C14491   7.073   2.713   3.485 -0.1601 -0.5612 -0.6156
  849MOL0     C14492   6.944   2.770   3.541  0.2286  0.0358  1.0019
  849MOL0     C14493   6.953   2.841   3.673 -0.4784 -0.1869 -0.3952
  849MOL0     C14494   6.832   2.926   3.702 -0.0946  0.4142  0.1820
  849MOL0     C14495   6.858   3.010   3.824 -0.3274 -0.1997  0.7596
  849MOL0     C14496   6.743   3.104   3.874 -0.0796  1.0569  0.3106
  849MOL0     N14497   6.717   3.198   3.768  0.0939 -0.2608  0.4181
  849MOL0     C14498   6.624   3.182   3.668  0.4274 -0.0036 -0.5408
  849MOL0     C14499   6.641   3.290   3.591 -0.0999  0.2048  0.7152
  849MOL0     C14500   6.562   3.330   3.472 -0.5938 -0.2086 -0.5906
  849MOL0     C14501   6.436   3.249   3.454 -0.1474  0.4530  0.4310
  849MOL0     C14502   6.350   3.297   3.344 -0.1029 -0.5479 -0.6467
  849MOL0     C14503   6.225   3.207   3.302  0.7427  0.7314  0.0664
  849MOL0     O14504   6.099   3.212   3.381 -0.4651 -0.1135  0.2526
  849MOL0     C14505   5.998   3.135   3.330 -0.5685 -0.6992 -0.0158
  849MOL0     C14506   5.992   3.001   3.358 -0.3423 -0.5244  0.3784
  849MOL0     C14507   5.900   2.921   3.310  0.3396  0.2218 -0.6152
  849MOL0     C14508   5.789   2.970   3.244 -0.2537 -0.4956  0.2732
  849MOL0     C14509   5.669   2.894   3.198 -0.2429  0.1525 -0.3374
  849MOL0     O14510   5.694   2.771   3.149 -0.2593 -0.1318 -1.0757
  849MOL0     C14511   5.591   2.691   3.098 -0.1380  0.0275  1.6547
  849MOL0     C14512   5.612   2.619   2.973  0.0653  0.0233 -0.3080
  849MOL0     C14513   5.520   2.528   2.924 -0.2641  0.6861  0.1135
  849MOL0     C14514   5.399   2.508   2.998  0.2854 -1.0193  0.3980
  849MOL0     O14515   5.311   2.410   2.966 -0.2532 -0.0907 -0.8337
  849MOL0     C14516   5.168   2.419   2.990  0.0787  0.1606 -0.3144
  849MOL0     C14517   5.109   2.293   2.931 -0.5761  0.5500  0.2187
  849MOL0     C14518   5.097   2.286   2.780  0.5129  0.4766  0.4730
  849MOL0     C14519   5.031   2.151   2.759  0.1759 -0.0751  0.6136
  849MOL0     C14520   5.004   2.119   2.616  0.5691 -0.7280  0.6966
  849MOL0     C14521   4.898   2.011   2.579 -0.8049  0.2018 -0.2120
  849MOL0     C14522   4.885   2.005   2.426  0.5788  1.1008  0.0698
  849MOL0     C14523   4.771   1.916   2.392  0.4456 -0.3715 -0.4110
  849MOL0    Cl14524   4.613   1.995   2.431  0.3077  0.1279  0.2299
  849MOL0     C14525   5.376   2.592   3.111 -0.1083 -0.1414  0.2894
  849MOL0     C14526   5.475   2.671   3.166 -0.7249 -1.3385 -0.0959
  849MOL0     O14527   5.558   2.940   3.204 -0.2565 -0.9219 -0.5076
  849MOL0     C14528   5.784   3.109   3.214 -0.5781 -0.2312  0.5432
  849MOL0     C14529   5.885   3.185   3.263  0.4589 -0.8953  0.3634
  849MOL0     N14530   6.742   3.366   3.635  0.1233  0.4071 -0.3511
  849MOL0     N14531   6.792   3.311   3.744  0.0153 -0.4959 -0.0687
  849MOL0     C14532   7.112   2.905   3.010  0.6145  0.6427  0.6160
  849MOL0     C14533   7.056   3.020   2.954  0.1806  0.5176 -0.1274
  849MOL0     C14534   6.756   3.311   2.764 -0.8176 -0.8718 -0.9412
  849MOL0     C14535   6.673   3.344   2.662 -0.1603 -0.5729  0.3986
  849MOL0     C14536   6.621   3.471   2.638  0.4132 -0.9064 -1.1845
  849MOL0     C14537   6.650   3.574   2.719 -0.0756 -0.2861 -0.2417
  849MOL0     O14538   6.607   3.697   2.682  0.7301 -0.1293 -0.4189
  849MOL0     C14539   6.624   3.812   2.775  0.1085 -0.8644  0.3489
  849MOL0     C14540   6.533   3.923   2.718 -1.6875  0.0882  0.2914
  849MOL0     C14541   6.389   3.925   2.764 -0.1313  0.3349 -0.5007
  849MOL0     C14542   6.293   4.025   2.685 -0.1672 -1.5190 -0.1570
  849MOL0     C14543   6.329   4.160   2.727  0.2944 -0.3115 -0.3104
  849MOL0     C14544   6.359   4.274   2.743 -0.3278 -0.1362  0.5919
  849MOL0     C14545   6.731   3.542   2.837 -0.0472 -0.5609 -0.0435
  849MOL0     C14546   6.785   3.418   2.856 -1.0385  0.3515 -0.4676
  849MOL0     C14547   6.882   3.412   2.972 -0.6183 -0.2692 -0.4734
  849MOL0     H14548   6.733   2.901   2.950 -1.4124  2.9125  0.9983
  849MOL0     H14549   6.829   2.717   3.032  0.4755 -1.3061 -0.8454
  849MOL0     H14550   7.227   2.618   3.230  0.7688  0.6352  4.4036
  849MOL0     H14551   7.176   2.790   3.232  0.2577 -0.3633 -2.5790
  849MOL0     H14552   7.034   2.549   3.362 -1.0391  0.2952 -3.3526
  849MOL0     H14553   6.943   2.683   3.306  1.0415  1.0098 -2.3739
  849MOL0     H14554   7.139   2.800   3.482  0.8067 -1.1548  1.4120
  849MOL0     H14555   7.111   2.633   3.550  3.4678  0.0778 -1.7267
  849MOL0     H14556   6.909   2.840   3.464 -0.0760 -2.9824 -1.8361
  849MOL0     H14557   6.863   2.697   3.535 -1.3224  1.5765 -5.8858
  849MOL0     H14558   6.964   2.773   3.758 -0.7774  0.3365  0.0718
  849MOL0     H14559   7.039   2.909   3.674  1.8865 -2.8408 -3.3903
  849MOL0     H14560   6.802   2.990   3.619 -0.0582  1.3477  0.8665
  849MOL0     H14561   6.751   2.855   3.720  1.0636 -2.4281 -4.2304
  849MOL0     H14562   6.944   3.078   3.821 -0.6682  0.2349 -2.5625
  849MOL0     H14563   6.881   2.943   3.908  0.5202  2.1359  2.4919
  849MOL0     H14564   6.652   3.054   3.909  0.1525  1.7419  1.9719
  849MOL0     H14565   6.782   3.153   3.964 -1.8025 -0.0925  1.7476
  849MOL0     H14566   6.553   3.102   3.646  0.2523 -0.4996  1.5607
  849MOL0     H14567   6.534   3.436   3.475  2.4647  0.6989 -0.2832
  849MOL0     H14568   6.627   3.324   3.384 -1.1933  0.6989 -1.1104
  849MOL0     H14569   6.469   3.146   3.441 -0.6263  0.5971 -2.7331
  849MOL0     H14570   6.376   3.261   3.545  2.0366  1.1485  1.8475
  849MOL0     H14571   6.417   3.303   3.258 -0.3047 -0.4330 -0.7968
  849MOL0     H14572   6.319   3.401   3.355  1.6717  0.0974 -1.4915
  849MOL0     H14573   6.251   3.101   3.299 -0.0424  0.5679 -1.7876
  849MOL0     H14574   6.202   3.236   3.199 -4.3915 -0.3696  0.6487
  849MOL0     H14575   6.073   2.954   3.414 -1.4333 -0.0838  2.4525
  849MOL0     H14576   5.898   2.815   3.331  1.3472  0.4310  0.6095
  849MOL0     H14577   5.694   2.649   2.909  0.8648  2.7117  1.7700
  849MOL0     H14578   5.532   2.472   2.833 -0.7926  0.3447  0.2512
  849MOL0     H14579   5.149   2.424   3.097  0.2040  0.5518 -0.3102
  849MOL0     H14580   5.114   2.507   2.955  1.7213  1.4691  0.3195
  849MOL0     H14581   5.174   2.218   2.977  1.2099  2.1804  0.4642
  849MOL0     H14582   5.009   2.277   2.972 -0.8849 -1.5483 -1.2029
  849MOL0     H14583   5.036   2.373   2.752  3.0432  2.2074  0.0664
  849MOL0     H14584   5.193   2.296   2.728  0.5564  0.5501  0.5684
  849MOL0     H14585   4.933   2.146   2.807 -2.0028  0.5744 -3.3801
  849MOL0     H14586   5.099   2.074   2.798  3.6186 -0.7032 -5.4655
  849MOL0     H14587   5.096   2.093   2.562  0.3828 -2.5401  1.2033
  849MOL0     H14588   4.976   2.214   2.570  0.5773 -0.4599  1.2339
  849MOL0     H14589   4.941   1.917   2.614 -0.6142 -0.2876 -1.6892
  849MOL0     H14590   4.799   2.029   2.622 -0.2542  1.2624  0.6711
  849MOL0     H14591   4.978   1.968   2.382 -1.0689 -2.8663 -0.4353
  849MOL0     H14592   4.873   2.104   2.381  2.3932  0.2030 -2.6706
  849MOL0     H14593   4.767   1.905   2.283 -1.9567 -0.2444 -0.3904
  849MOL0     H14594   4.786   1.818   2.437  1.3751  1.0314  2.5882
  849MOL0     H14595   5.279   2.594   3.160 -0.5636  1.8608 -0.5974
  849MOL0     H14596   5.455   2.724   3.258 -0.3897 -1.7665  0.2228
  849MOL0     H14597   5.705   3.153   3.154 -2.2485  1.3659  3.6477
  849MOL0     H14598   5.890   3.289   3.232  1.4799 -0.3421  2.2202
  849MOL0     H14599   7.216   2.897   3.040 -0.2203 -1.5137  3.3044
  849MOL0     H14600   7.131   3.094   2.924  4.6886 -3.4273  0.2269
  849MOL0     H14601   6.638   3.266   2.596  1.0428 -0.3147 -0.5731
  849MOL0     H14602   6.559   3.486   2.550 -0.3827  2.1168 -0.2151
  849MOL0     H14603   6.725   3.852   2.781  0.0048 -0.8102  4.0483
  849MOL0     H14604   6.598   3.785   2.878 -3.2578  2.8340  0.6960
  849MOL0     H14605   6.541   3.907   2.610  1.0361 -1.1203  0.5914
  849MOL0     H14606   6.581   4.019   2.736 -0.5338  0.0737 -2.3552
  849MOL0     H14607   6.388   3.944   2.872  1.1194  0.4934 -0.4988
  849MOL0     H14608   6.354   3.822   2.753  0.0170  0.3469 -1.0929
  849MOL0     H14609   6.320   4.024   2.579  2.5850 -2.4430  0.4517
  849MOL0     H14610   6.186   4.011   2.698 -0.4761 -0.0746 -0.9508
  849MOL0     H14611   6.390   4.377   2.744  1.4119 -0.5839 -1.4000
  849MOL0     H14612   6.756   3.614   2.915  3.2775 -2.9753  1.3441
  849MOL0     H14613   6.964   3.349   2.936 -2.6235 -2.6179 -1.2817
  849MOL0     H14614   6.919   3.510   3.003  0.5847 -1.1850  1.1217
  849MOL0     H14615   6.835   3.363   3.058  1.7417  0.0543  1.0819
  850MOL0     O14616   2.540  10.895   5.272  0.5013 -0.7055  0.5056
  850MOL0     C14617   2.456  10.972   5.322  0.4566  0.2171  0.3009
  850MOL0     O14618   2.331  11.008   5.280  0.1100 -0.1459  0.0821
  850MOL0     C14619   2.284  10.964   5.158  0.1848 -0.2052  0.4697
  850MOL0     C14620   2.193  10.864   5.147 -0.1608 -0.5731 -0.3927
  850MOL0     C14621   2.147  10.816   5.027  0.9279  0.2134  0.2528
  850MOL0     C14622   2.196  10.868   4.905 -0.4137  0.6928 -1.0507
  850MOL0     O14623   2.153  10.818   4.786 -0.1466 -0.2941  0.0113
  850MOL0     C14624   2.014  10.836   4.747  0.0491 -0.1485  0.6101
  850MOL0     C14625   1.994  10.774   4.614 -0.8852 -0.5811 -0.3726
  850MOL0     C14626   1.844  10.770   4.580  1.1758  0.1699  0.3097
  850MOL0     C14627   1.810  10.718   4.440  0.4989 -0.9935  0.9860
  850MOL0     C14628   1.663  10.720   4.410  0.1935 -0.1281 -0.6797
  850MOL0     C14629   1.616  10.672   4.270 -0.8707  0.2985  0.4224
  850MOL0     C14630   1.471  10.634   4.269 -0.3422  0.8940  0.6596
  850MOL0     C14631   1.414  10.618   4.124  0.3717 -0.2620 -0.2097
  850MOL0     N14632   1.262  10.588   4.132 -0.2624 -1.2000  0.6324
  850MOL0     C14633   1.211  10.470   4.194  0.7289  0.5377  0.7444
  850MOL0     C14634   1.074  10.497   4.205 -0.4907  0.5525 -0.1109
  850MOL0     C14635   0.955  10.412   4.250  0.2198  0.1631 -0.1638
  850MOL0     C14636   0.867  10.488   4.354  0.0945 -1.0846  0.0573
  850MOL0     C14637   0.764  10.415   4.428 -0.4531  0.4667 -0.4762
  850MOL0     C14638   0.674  10.326   4.349 -0.1361 -0.2586  0.3654
  850MOL0     O14639   0.592  10.411   4.265 -0.7389 -0.5186  0.4699
  850MOL0     C14640   0.466  10.432   4.309  0.7960  0.1377  0.1486
  850MOL0     C14641   0.412  10.432   4.438  0.5636 -0.2671  0.1315
  850MOL0     C14642   0.278  10.466   4.466 -0.6380 -0.9586 -1.0316
  850MOL0     C14643   0.191  10.507   4.361  0.4934 -0.2400 -0.1568
  850MOL0     C14644   0.058  10.552   4.397  0.7233 -0.4754  1.0800
  850MOL0     O14645  -0.010  10.578   4.282 -0.2905  1.1361 -0.2399
  850MOL0     C14646  -0.145  10.606   4.309 -0.9252  0.0380 -0.1687
  850MOL0     C14647  -0.190  10.741   4.307 -0.1451 -0.1330  0.0039
  850MOL0     C14648  -0.323  10.776   4.314 -0.6956  0.0850  0.1448
  850MOL0     C14649  -0.420  10.677   4.336 -0.6789 -0.4995 -1.0615
  850MOL0     O14650  -0.558  10.699   4.335 -0.1205 -0.7696 -0.2882
  850MOL0     C14651  -0.615  10.825   4.380 -0.9351 -0.0490 -1.1279
  850MOL0     C14652  -0.636  10.905   4.255 -0.1498  0.6163 -0.7000
  850MOL0     C14653  -0.644  11.053   4.272  0.1483  0.4251 -0.4715
  850MOL0     C14654  -0.678  11.125   4.134  0.0204 -0.2840  0.4270
  850MOL0     C14655  -0.669  11.281   4.138  0.5295 -0.0959 -0.0909
  850MOL0     C14656  -0.725  11.321   3.996 -0.0159 -0.9968 -0.6653
  850MOL0     C14657  -0.790  11.454   4.006  0.3726  0.0382 -0.4585
  850MOL0     C14658  -0.699  11.581   4.024 -0.7046 -1.0587  0.1011
  850MOL0    Cl14659  -0.798  11.707   4.107  0.0831 -0.1117  0.4827
  850MOL0     C14660  -0.374  10.540   4.347 -0.4624  0.9904 -0.4372
  850MOL0     C14661  -0.237  10.512   4.324 -0.2598  0.9480  0.9942
  850MOL0     O14662   0.009  10.562   4.510  0.1897  0.4031 -0.3831
  850MOL0     C14663   0.249  10.505   4.228 -0.6036  0.1948 -0.4117
  850MOL0     C14664   0.380  10.465   4.204 -0.0658  0.1592 -0.5476
  850MOL0     N14665   1.054  10.632   4.170 -0.5146 -0.1644  0.1744
  850MOL0     N14666   1.154  10.680   4.121 -0.3404 -0.0934 -0.1327
  850MOL0     C14667   2.306  10.947   4.913  0.3043  0.1822 -0.4751
  850MOL0     C14668   2.348  10.999   5.040 -0.0970 -0.1105 -0.4228
  850MOL0     C14669   2.513  11.026   5.445 -0.3215 -0.7394 -0.1746
  850MOL0     C14670   2.567  11.156   5.430 -0.3027 -0.6287 -0.5863
  850MOL0     C14671   2.622  11.215   5.546  0.2874  0.3351  0.4935
  850MOL0     C14672   2.622  11.157   5.675  0.4308  0.8128  0.2038
  850MOL0     O14673   2.686  11.214   5.790 -0.5964 -0.5422  0.0166
  850MOL0     C14674   2.727  11.350   5.795 -1.0307  0.1066  0.2152
  850MOL0     C14675   2.876  11.345   5.743  0.1478  0.6905 -0.3112
  850MOL0     C14676   2.937  11.482   5.717  1.0103  0.9220 -0.3332
  850MOL0     C14677   2.864  11.564   5.605 -0.1552 -0.7938 -0.0657
  850MOL0     C14678   2.953  11.666   5.533 -0.2165  0.2051  0.6119
  850MOL0     C14679   3.031  11.735   5.473  1.0409  0.0388  0.0987
  850MOL0     C14680   2.573  11.028   5.678  0.1465  0.7474  0.2528
  850MOL0     C14681   2.515  10.957   5.573  0.5400 -0.2058  1.3017
  850MOL0     C14682   2.460  10.821   5.591  0.3610  0.6711 -0.9940
  850MOL0     H14683   2.161  10.822   5.242 -1.5587 -1.2578 -1.1339
  850MOL0     H14684   2.074  10.735   5.024 -0.8655  1.7858 -0.0847
  850MOL0     H14685   1.940  10.795   4.815 -1.0382  1.0134  0.1782
  850MOL0     H14686   1.996  10.944   4.741 -1.0755 -0.4037 -3.2727
  850MOL0     H14687   2.038  10.674   4.614 -2.9472 -1.6199 -3.0067
  850MOL0     H14688   2.043  10.841   4.542  0.6292  1.1684  2.1225
  850MOL0     H14689   1.784  10.862   4.588 -0.7876 -0.9207 -1.0117
  850MOL0     H14690   1.805  10.703   4.657  1.7826  0.0424  0.5099
  850MOL0     H14691   1.866  10.786   4.376 -0.1146 -0.7663  0.6891
  850MOL0     H14692   1.859  10.621   4.429  3.8739  0.6693  0.0497
  850MOL0     H14693   1.618  10.655   4.486 -1.7030  1.5861 -0.2399
  850MOL0     H14694   1.632  10.824   4.428 -0.4113 -0.4564  0.3044
  850MOL0     H14695   1.641  10.748   4.196 -2.1529  0.0413 -0.3021
  850MOL0     H14696   1.668  10.581   4.240  0.0767  0.3384  1.8461
  850MOL0     H14697   1.418  10.712   4.324 -0.8542  0.4339  0.8334
  850MOL0     H14698   1.462  10.545   4.332  3.6110 -0.0459  0.1753
  850MOL0     H14699   1.429  10.709   4.065 -2.3559  1.0815  0.9856
  850MOL0     H14700   1.461  10.537   4.069  0.6052 -0.8732  0.8574
  850MOL0     H14701   1.263  10.383   4.232  0.3442 -0.0328 -0.0068
  850MOL0     H14702   0.911  10.385   4.153  3.6633  0.5475 -1.9781
  850MOL0     H14703   1.001  10.330   4.306  0.6255  1.2438  1.1369
  850MOL0     H14704   0.943  10.525   4.424  1.2858 -2.1303 -0.6473
  850MOL0     H14705   0.813  10.569   4.304 -0.4276 -2.7648 -2.2255
  850MOL0     H14706   0.708  10.488   4.487  2.8069 -0.3985  4.2909
  850MOL0     H14707   0.805  10.353   4.509 -0.1859  1.2750  0.0178
  850MOL0     H14708   0.622  10.266   4.425  1.8200  0.6226  2.5049
  850MOL0     H14709   0.730  10.247   4.299  0.8008  1.0901 -0.7990
  850MOL0     H14710   0.467  10.408   4.529  0.3273 -0.0971  0.3187
  850MOL0     H14711   0.242  10.463   4.569  1.2462  0.2050 -0.2958
  850MOL0     H14712  -0.115  10.819   4.294 -1.9060  1.2683 -2.6330
  850MOL0     H14713  -0.345  10.882   4.307  1.7350  0.6400 -0.0546
  850MOL0     H14714  -0.709  10.816   4.435 -0.1777 -0.8465  0.1118
  850MOL0     H14715  -0.534  10.868   4.441 -0.1882  1.4264 -3.0277
  850MOL0     H14716  -0.550  10.900   4.187 -0.2826  2.6782 -1.1028
  850MOL0     H14717  -0.718  10.870   4.192 -0.3456  1.6739 -1.0610
  850MOL0     H14718  -0.718  11.084   4.346 -1.2406  2.1955 -2.5073
  850MOL0     H14719  -0.548  11.090   4.310 -2.0281  4.1179  2.0745
  850MOL0     H14720  -0.777  11.089   4.103 -1.2795  1.3075  2.4648
  850MOL0     H14721  -0.603  11.085   4.065 -0.2470 -0.4578  0.2355
  850MOL0     H14722  -0.566  11.312   4.156  0.6246 -1.0021  1.0372
  850MOL0     H14723  -0.737  11.309   4.219  1.2754  1.0416  0.1689
  850MOL0     H14724  -0.649  11.314   3.918  1.4375  2.7032  0.2099
  850MOL0     H14725  -0.804  11.258   3.955  0.9145  0.0557 -4.4905
  850MOL0     H14726  -0.862  11.448   4.088  0.9302 -1.4849 -0.0397
  850MOL0     H14727  -0.848  11.471   3.915  0.3957  3.5970  0.0380
  850MOL0     H14728  -0.615  11.557   4.090 -0.9843 -1.6645  0.2341
  850MOL0     H14729  -0.670  11.610   3.922 -2.3503  0.2948 -0.0360
  850MOL0     H14730  -0.444  10.458   4.360 -1.3247  1.9176  0.9095
  850MOL0     H14731  -0.194  10.416   4.298  0.7810  1.8973 -1.0409
  850MOL0     H14732   0.198  10.559   4.148  1.0221  1.7007 -0.5055
  850MOL0     H14733   0.421  10.469   4.104  2.6601 -0.5501  0.4395
  850MOL0     H14734   2.364  10.981   4.827  1.7969  0.5963  0.6526
  850MOL0     H14735   2.431  11.067   5.052 -1.4918  1.2071  2.7753
  850MOL0     H14736   2.584  11.198   5.331  2.3633  1.7150  0.7097
  850MOL0     H14737   2.682  11.304   5.531  0.9849 -0.1063  0.6196
  850MOL0     H14738   2.722  11.397   5.894 -0.1606  0.6361  0.0194
  850MOL0     H14739   2.659  11.413   5.738 -1.4152 -0.0973  0.4402
  850MOL0     H14740   2.879  11.295   5.645 -0.3397  1.1666 -0.5752
  850MOL0     H14741   2.943  11.289   5.809  1.6718 -1.8945 -3.6870
  850MOL0     H14742   3.042  11.461   5.694  1.9514  4.2797  0.3045
  850MOL0     H14743   2.957  11.546   5.804  0.6575 -2.2882  2.3144
  850MOL0     H14744   2.814  11.500   5.533  0.1730 -0.0526 -0.9791
  850MOL0     H14745   2.790  11.623   5.660 -0.9802 -2.5218  0.7602
  850MOL0     H14746   3.098  11.798   5.418 -1.2087  2.8179  0.3214
  850MOL0     H14747   2.567  10.973   5.771 -2.9621 -1.1629 -0.9521
  850MOL0     H14748   2.510  10.768   5.673 -3.4580  0.2063  1.2922
  850MOL0     H14749   2.354  10.815   5.615  0.9128  0.5931  1.7723
  850MOL0     H14750   2.478  10.764   5.500  0.0430  0.0663 -0.6859
  851MOL0     O14751  11.115   4.825  10.710 -0.2380  0.2242  0.5229
  851MOL0     C14752  11.104   4.735  10.626  0.7724  0.0538  0.2827
  851MOL0     O14753  11.197   4.651  10.578  0.1053  0.7424 -0.1156
  851MOL0     C14754  11.333   4.665  10.609 -0.5037  0.9658  0.5724
  851MOL0     C14755  11.419   4.667  10.501  0.8961  0.3898  0.7123
  851MOL0     C14756  11.555   4.679  10.520 -0.7022  0.8353  0.0304
  851MOL0     C14757  11.608   4.705  10.652 -0.9416 -0.0038  0.2674
  851MOL0     O14758  11.743   4.739  10.685  0.4147 -0.2696 -0.3444
  851MOL0     C14759  11.836   4.712  10.579  0.7440  0.4626 -0.5398
  851MOL0     C14760  11.975   4.748  10.642  0.1199 -0.8170  0.1064
  851MOL0     C14761  11.977   4.888  10.724 -0.3712  0.4735  0.4695
  851MOL0     C14762  12.106   4.963  10.717 -0.0072  0.3879  0.3811
  851MOL0     C14763  12.088   5.099  10.799  0.1489  0.2502  0.3924
  851MOL0     C14764  12.219   5.169  10.808  0.5687 -0.7679 -0.5438
  851MOL0     C14765  12.193   5.306  10.872 -0.1615 -0.5231  0.5640
  851MOL0     C14766  12.211   5.309  11.022 -1.4145 -0.4245 -0.2597
  851MOL0     N14767  12.353   5.331  11.065 -0.2320  0.1429  0.8670
  851MOL0     C14768  12.402   5.462  11.068  1.1252  0.2350 -0.0241
  851MOL0     C14769  12.514   5.453  11.150 -0.0718 -0.9582  0.4764
  851MOL0     C14770  12.579   5.565  11.211  0.5115  0.5047  0.2537
  851MOL0     C14771  12.584   5.692  11.127  0.8496 -0.2975  0.0415
  851MOL0     C14772  12.658   5.797  11.208  0.9579 -0.1193 -0.2652
  851MOL0     C14773  12.670   5.928  11.125  1.3376  0.0254 -0.6813
  851MOL0     O14774  12.762   6.023  11.183  0.4568 -0.5474  0.4143
  851MOL0     C14775  12.737   6.158  11.156 -0.8730  0.8097 -0.4496
  851MOL0     C14776  12.673   6.209  11.042  0.4091  0.2098  0.1565
  851MOL0     C14777  12.645   6.349  11.040 -0.1894  0.6601  0.3340
  851MOL0     C14778  12.713   6.434  11.127  1.2775 -1.0884 -0.3913
  851MOL0     C14779  12.678   6.573  11.120  1.0607 -0.7602  0.8378
  851MOL0     O14780  12.556   6.592  11.050 -0.6031  0.1156  0.0517
  851MOL0     C14781  12.516   6.726  11.054  0.9528  0.0185  0.4114
  851MOL0     C14782  12.505   6.782  10.926  0.0303  0.7866 -0.6024
  851MOL0     C14783  12.434   6.897  10.897  0.0771 -0.0390  0.8862
  851MOL0     C14784  12.371   6.961  11.003  0.2892  0.1284 -0.1708
  851MOL0     O14785  12.295   7.069  10.996  0.4936  0.4417 -0.5982
  851MOL0     C14786  12.312   7.161  10.892 -0.3048 -0.2106 -0.6291
  851MOL0     C14787  12.281   7.304  10.940  0.3711 -0.5788  0.5324
  851MOL0     C14788  12.132   7.336  10.928 -0.5469  0.6641 -0.4894
  851MOL0     C14789  12.111   7.477  10.983  0.0292 -0.1609 -0.6764
  851MOL0     C14790  11.971   7.542  10.960 -0.3515 -0.0575 -0.0989
  851MOL0     C14791  11.939   7.522  10.801  0.0133 -0.6020  0.6003
  851MOL0     C14792  11.804   7.597  10.774  0.5349  0.4640  0.0389
  851MOL0     C14793  11.718   7.543  10.662  0.0825 -0.8881  0.3320
  851MOL0    Cl14794  11.589   7.439  10.735  0.2610 -0.2274 -0.0282
  851MOL0     C14795  12.376   6.905  11.129  0.4089  0.3297 -0.4320
  851MOL0     C14796  12.439   6.787  11.153 -0.5805  0.4321  0.2293
  851MOL0     O14797  12.751   6.655  11.174  0.4814 -0.4208 -0.5605
  851MOL0     C14798  12.785   6.379  11.237  0.1660  0.0110  0.6248
  851MOL0     C14799  12.797   6.246  11.250 -0.9232 -0.2846 -0.6252
  851MOL0     N14800  12.550   5.325  11.172 -0.5680 -0.1871  0.5810
  851MOL0     N14801  12.458   5.253  11.112  0.7430  0.4259 -0.1855
  851MOL0     C14802  11.522   4.696  10.755 -0.9175 -1.2653 -0.3959
  851MOL0     C14803  11.388   4.671  10.731 -1.4646  0.8356 -0.3031
  851MOL0     C14804  10.966   4.719  10.561  0.3205 -0.4123 -0.1684
  851MOL0     C14805  10.961   4.634  10.450 -0.4529 -0.4167  0.4758
  851MOL0     C14806  10.846   4.597  10.394 -0.6702 -0.2704 -0.5973
  851MOL0     C14807  10.728   4.650  10.434 -0.6471 -1.2480 -0.3479
  851MOL0     O14808  10.611   4.610  10.374 -0.3992 -0.7499  0.8128
  851MOL0     C14809  10.546   4.718  10.310  0.4674 -0.2020 -0.5919
  851MOL0     C14810  10.452   4.645  10.218 -0.7050  0.4015 -0.5043
  851MOL0     C14811  10.344   4.733  10.170  0.1774  0.3665 -0.0150
  851MOL0     C14812  10.244   4.657  10.073 -0.1294  0.6631 -0.0351
  851MOL0     C14813  10.119   4.636  10.146  0.1656  1.2056  0.6848
  851MOL0     C14814  10.014   4.613  10.186  0.7409  0.4899 -0.0503
  851MOL0     C14815  10.724   4.737  10.544  0.3897 -0.5093 -0.8331
  851MOL0     C14816  10.842   4.769  10.610 -1.2465 -0.2911 -0.1068
  851MOL0     C14817  10.842   4.868  10.725  0.4978  0.1039 -0.0630
  851MOL0     H14818  11.394   4.647  10.397  1.7560 -1.0712  0.7513
  851MOL0     H14819  11.607   4.695  10.426  2.2047  3.7509  1.9039
  851MOL0     H14820  11.827   4.605  10.556 -2.4898  0.6568 -0.5400
  851MOL0     H14821  11.815   4.780  10.496 -3.4979  1.1392  0.8648
  851MOL0     H14822  12.051   4.732  10.565 -0.7223 -0.4987 -0.8166
  851MOL0     H14823  12.004   4.669  10.711  0.2437 -2.7669 -2.0769
  851MOL0     H14824  11.934   4.881  10.825  0.7625  3.6811  1.2949
  851MOL0     H14825  11.903   4.945  10.667 -0.7012  2.6625  2.8957
  851MOL0     H14826  12.179   4.895  10.761 -1.0870 -1.8075 -1.0387
  851MOL0     H14827  12.144   4.971  10.614 -0.1474 -3.6391 -0.1604
  851MOL0     H14828  12.017   5.160  10.744 -0.6833  0.3153  1.5036
  851MOL0     H14829  12.047   5.079  10.899  0.4000  2.1839  0.9190
  851MOL0     H14830  12.287   5.111  10.871 -1.0917 -1.7086  0.4611
  851MOL0     H14831  12.234   5.190  10.702 -2.8704 -2.6038 -1.5695
  851MOL0     H14832  12.094   5.344  10.847 -0.3605 -1.8251 -0.8143
  851MOL0     H14833  12.273   5.373  10.839  0.4355 -2.0735 -1.3054
  851MOL0     H14834  12.150   5.394  11.054 -4.5259 -2.1913 -1.0778
  851MOL0     H14835  12.169   5.221  11.073  0.0551 -0.0304  1.7680
  851MOL0     H14836  12.357   5.546  11.018  0.5202  1.4651  2.4217
  851MOL0     H14837  12.512   5.587  11.295  1.5447 -0.9134  1.4914
  851MOL0     H14838  12.677   5.533  11.248 -0.3482  0.7913  3.0668
  851MOL0     H14839  12.646   5.688  11.038 -0.9877 -3.0321 -1.2387
  851MOL0     H14840  12.486   5.730  11.096  1.6904  1.2854 -0.8075
  851MOL0     H14841  12.758   5.761  11.232  1.2117 -1.6058 -3.1698
  851MOL0     H14842  12.603   5.808  11.302 -0.4867 -1.1241 -0.9576
  851MOL0     H14843  12.568   5.968  11.126  1.2863 -0.0911 -1.0100
  851MOL0     H14844  12.694   5.920  11.018 -0.8538  1.3947 -1.3456
  851MOL0     H14845  12.636   6.140  10.967  1.2408  0.0896 -0.1497
  851MOL0     H14846  12.587   6.383  10.954 -1.6928  2.0041  1.8159
  851MOL0     H14847  12.561   6.730  10.848  1.6082  1.1695  0.2381
  851MOL0     H14848  12.415   6.917  10.792  2.7659 -1.4534  0.0483
  851MOL0     H14849  12.419   7.152  10.871  0.1051 -1.8274  1.7360
  851MOL0     H14850  12.256   7.140  10.800 -1.5695 -1.3738  0.3616
  851MOL0     H14851  12.298   7.319  11.047  1.5065  2.6394  0.0192
  851MOL0     H14852  12.345   7.364  10.875  4.3162 -2.6584  2.1467
  851MOL0     H14853  12.112   7.328  10.821  0.8409  2.0176 -0.8911
  851MOL0     H14854  12.063   7.267  10.977 -3.2154  2.3686 -1.6464
  851MOL0     H14855  12.173   7.546  10.924 -0.4643 -0.5983 -1.7170
  851MOL0     H14856  12.124   7.467  11.091 -0.1919 -2.7477 -0.8396
  851MOL0     H14857  11.981   7.647  10.991 -1.1406 -0.9796  3.8622
  851MOL0     H14858  11.893   7.490  11.017  0.0092 -1.5803 -0.9364
  851MOL0     H14859  12.022   7.563  10.743 -0.8953 -0.4869 -0.6574
  851MOL0     H14860  11.919   7.418  10.776 -1.2182 -0.2814  0.2281
  851MOL0     H14861  11.834   7.701  10.756 -0.6870  0.7394 -0.5210
  851MOL0     H14862  11.735   7.598  10.858  1.0769 -2.0583  0.5996
  851MOL0     H14863  11.676   7.625  10.603 -0.7902 -2.3976 -1.2295
  851MOL0     H14864  11.786   7.475  10.609  3.0920  0.3208  2.3836
  851MOL0     H14865  12.332   6.962  11.210 -3.8065 -0.5049 -1.8813
  851MOL0     H14866  12.446   6.733  11.247  1.2156 -1.2387 -0.7950
  851MOL0     H14867  12.834   6.444  11.309 -0.1864 -0.5827  1.4297
  851MOL0     H14868  12.856   6.204  11.331  0.7113  3.6791  0.4821
  851MOL0     H14869  11.555   4.722  10.855  0.8888 -0.9169 -1.0388
  851MOL0     H14870  11.322   4.664  10.816 -1.6446  1.6694 -0.3683
  851MOL0     H14871  11.050   4.588  10.409  2.4613  3.3592  1.9493
  851MOL0     H14872  10.829   4.518  10.322 -5.5176  0.1995 -0.3103
  851MOL0     H14873  10.609   4.790  10.257  0.4996  0.5301  0.4331
  851MOL0     H14874  10.492   4.777  10.384 -0.3340  0.6460 -1.7968
  851MOL0     H14875  10.392   4.565  10.262 -3.1918  1.2157 -2.1707
  851MOL0     H14876  10.506   4.606  10.131  1.3712 -1.1512  1.3595
  851MOL0     H14877  10.381   4.817  10.109  0.1538 -1.4085 -2.6227
  851MOL0     H14878  10.296   4.782  10.255  0.1376 -1.4080  1.0286
  851MOL0     H14879  10.237   4.706   9.976  1.8186  1.7299  0.3119
  851MOL0     H14880  10.288   4.558  10.057 -2.4432 -0.7185  1.5945
  851MOL0     H14881   9.916   4.580  10.215  0.1933  0.3108 -1.9390
  851MOL0     H14882  10.630   4.772  10.585  0.5692  1.8278 -2.2072
  851MOL0     H14883  10.739   4.897  10.743 -0.5073 -2.3114 -1.4392
  851MOL0     H14884  10.893   4.840  10.818 -1.1724  0.4101  0.9879
  851MOL0     H14885  10.893   4.959  10.692  1.6547 -1.3819 -2.6954
  852MOL0     O14886   6.936   6.876   9.772  0.1694 -0.7103 -0.0706
  852MOL0     C14887   6.962   6.937   9.669  0.1025 -0.0751 -0.2942
  852MOL0     O14888   7.018   6.883   9.553  0.9954  0.6831 -0.1307
  852MOL0     C14889   7.043   6.745   9.543  0.2061  0.2600 -0.0938
  852MOL0     C14890   7.170   6.708   9.494 -0.1192 -0.3358 -0.0894
  852MOL0     C14891   7.203   6.578   9.484  0.3231 -0.0789 -0.2093
  852MOL0     C14892   7.120   6.483   9.537  0.3139  0.5243  0.9939
  852MOL0     O14893   7.148   6.349   9.529 -0.2026 -0.0189  0.4244
  852MOL0     C14894   7.120   6.270   9.641 -0.6455 -0.1902  0.1455
  852MOL0     C14895   7.160   6.124   9.600 -1.1728  1.1480 -1.0274
  852MOL0     C14896   7.103   6.030   9.699 -0.1571 -0.0466 -0.4514
  852MOL0     C14897   7.152   5.889   9.691  0.6716  1.1189 -0.0434
  852MOL0     C14898   7.109   5.803   9.573  0.3068  0.0886 -1.3784
  852MOL0     C14899   7.221   5.690   9.547  0.3209 -0.3840  0.2140
  852MOL0     C14900   7.236   5.584   9.656 -0.8609  0.9127 -0.2698
  852MOL0     C14901   7.372   5.521   9.688 -0.4056  0.5513 -0.5169
  852MOL0     N14902   7.433   5.560   9.814  0.6646  0.0633 -0.1274
  852MOL0     C14903   7.443   5.690   9.849 -0.3262 -0.5249  0.3921
  852MOL0     C14904   7.473   5.687   9.980 -0.3835 -0.5384 -0.6331
  852MOL0     C14905   7.482   5.806  10.064  0.1270  0.2409  0.5328
  852MOL0     C14906   7.617   5.830  10.130  0.5218  0.7341  0.0963
  852MOL0     C14907   7.669   5.728  10.229 -0.3091  0.7504 -0.2429
  852MOL0     C14908   7.800   5.779  10.291 -0.2168  0.5738 -0.2144
  852MOL0     O14909   7.891   5.841  10.190 -0.1957  0.4279 -1.0134
  852MOL0     C14910   8.023   5.810  10.178 -0.7096  1.4001  0.6140
  852MOL0     C14911   8.103   5.887  10.089 -0.3814 -0.8335  0.0274
  852MOL0     C14912   8.230   5.856  10.057 -0.0892  0.3152 -0.1266
  852MOL0     C14913   8.297   5.744  10.108  0.1246 -0.3076  0.4252
  852MOL0     C14914   8.430   5.710  10.065 -0.1205 -0.7271 -0.9797
  852MOL0     O14915   8.493   5.808   9.987  0.4905  0.0628 -0.4030
  852MOL0     C14916   8.627   5.807   9.950 -0.2153  0.4133  0.5895
  852MOL0     C14917   8.673   5.894   9.859  0.0082  0.4475  0.2657
  852MOL0     C14918   8.808   5.889   9.809 -0.0502 -0.0386  0.2260
  852MOL0     C14919   8.894   5.793   9.869  0.1816 -0.4423  0.4133
  852MOL0     O14920   9.023   5.788   9.815 -0.5976 -0.1332 -0.1333
  852MOL0     C14921   9.123   5.716   9.899  0.7671 -0.2645 -0.0545
  852MOL0     C14922   9.262   5.727   9.844 -0.4080  0.5771 -0.8902
  852MOL0     C14923   9.358   5.637   9.926 -0.2118  0.5369  0.5224
  852MOL0     C14924   9.501   5.642   9.865 -0.4863 -0.4256 -0.1749
  852MOL0     C14925   9.581   5.516   9.886  0.1496  0.6413 -0.1409
  852MOL0     C14926   9.728   5.545   9.926  0.0084  0.1953 -0.9026
  852MOL0     C14927   9.742   5.526  10.078 -0.1868 -0.2759 -0.4394
  852MOL0     C14928   9.892   5.499  10.103  0.1473 -0.1204 -0.3983
  852MOL0    Cl14929   9.929   5.490  10.283 -0.1629  0.1059  0.4919
  852MOL0     C14930   8.851   5.709   9.972  1.5789  0.8173 -1.3051
  852MOL0     C14931   8.719   5.721  10.011 -0.1143 -0.2085 -1.0098
  852MOL0     O14932   8.472   5.603  10.105 -0.3755  0.1017 -0.1599
  852MOL0     C14933   8.229   5.662  10.203  0.0264  0.8600 -0.1421
  852MOL0     C14934   8.091   5.692  10.233 -0.5271 -0.1359  0.4489
  852MOL0     N14935   7.468   5.558  10.028 -0.3977  0.2322  0.5399
  852MOL0     N14936   7.447   5.481   9.923 -0.6286  0.8403  0.0222
  852MOL0     C14937   6.993   6.520   9.588  0.5019  0.0055 -0.0616
  852MOL0     C14938   6.948   6.649   9.586 -0.0483 -0.2479  0.0144
  852MOL0     C14939   6.937   7.089   9.662 -0.2181  0.4518  0.6854
  852MOL0     C14940   6.995   7.162   9.548 -0.3445  0.6456 -0.1991
  852MOL0     C14941   6.979   7.297   9.520 -0.1452 -0.3050  0.2618
  852MOL0     C14942   6.909   7.375   9.610 -0.3826 -0.4020 -0.4351
  852MOL0     O14943   6.906   7.504   9.575  0.1590 -0.3953  0.0912
  852MOL0     C14944   6.786   7.584   9.613 -1.0338 -0.3076 -0.2169
  852MOL0     C14945   6.664   7.547   9.541  0.4683 -0.3551 -0.1487
  852MOL0     C14946   6.675   7.505   9.400 -0.6963  0.0635 -0.0122
  852MOL0     C14947   6.753   7.599   9.301 -0.4832 -0.4732 -0.4717
  852MOL0     C14948   6.756   7.553   9.163 -0.1848 -1.7933  0.1704
  852MOL0     C14949   6.764   7.524   9.051  1.7655 -0.4166  0.3804
  852MOL0     C14950   6.871   7.310   9.734 -0.4414 -0.1490  0.2382
  852MOL0     C14951   6.876   7.171   9.757  0.4575 -0.3219 -0.7132
  852MOL0     C14952   6.816   7.118   9.884 -0.7847  0.1453  1.3071
  852MOL0     H14953   7.241   6.786   9.468 -1.1923  0.4686 -0.6762
  852MOL0     H14954   7.297   6.553   9.435  0.2752  2.8141 -1.9860
  852MOL0     H14955   7.194   6.303   9.716  0.3124 -0.5372 -0.6220
  852MOL0     H14956   7.019   6.271   9.682 -1.6627 -1.1787 -2.1715
  852MOL0     H14957   7.268   6.112   9.611 -1.6020 -1.8555  7.0112
  852MOL0     H14958   7.106   6.099   9.508 -2.1844  0.2021 -0.2127
  852MOL0     H14959   6.996   6.033   9.673  0.0821  0.1937 -1.4402
  852MOL0     H14960   7.111   6.080   9.796  0.3116  0.3389 -0.6846
  852MOL0     H14961   7.261   5.886   9.705  0.2285  1.1194  5.4100
  852MOL0     H14962   7.108   5.850   9.783 -1.2947 -1.7509 -2.0319
  852MOL0     H14963   7.010   5.760   9.590  0.9848 -0.9116  0.2828
  852MOL0     H14964   7.102   5.873   9.489 -1.0049  1.2480 -0.3594
  852MOL0     H14965   7.198   5.634   9.456  2.3220 -2.7794  1.0639
  852MOL0     H14966   7.317   5.739   9.529 -2.1036  4.3656 -1.5480
  852MOL0     H14967   7.168   5.499   9.642  0.2552  0.0667 -0.6669
  852MOL0     H14968   7.205   5.637   9.746  1.0239  2.5501 -0.4995
  852MOL0     H14969   7.360   5.413   9.702 -3.3375  1.0221  1.6290
  852MOL0     H14970   7.432   5.532   9.597  1.8190 -0.6589  0.7071
  852MOL0     H14971   7.431   5.774   9.782  2.5330  0.1925  0.6654
  852MOL0     H14972   7.455   5.886   9.995 -0.3299 -0.7248 -0.4388
  852MOL0     H14973   7.410   5.793  10.145  0.8088  3.9704  1.9158
  852MOL0     H14974   7.686   5.859  10.050 -0.4139  1.7691 -0.3674
  852MOL0     H14975   7.597   5.923  10.183 -3.9580 -0.4758  0.9608
  852MOL0     H14976   7.687   5.630  10.182  1.2032  0.3011  1.1742
  852MOL0     H14977   7.606   5.721  10.318 -1.6492  1.8989 -1.0610
  852MOL0     H14978   7.853   5.699  10.346 -1.3790 -1.3229 -1.7124
  852MOL0     H14979   7.778   5.854  10.367 -3.4578  0.9634 -1.3711
  852MOL0     H14980   8.054   5.971  10.042  0.9778 -0.6547 -1.1340
  852MOL0     H14981   8.278   5.916   9.980 -0.3493  0.2418 -0.3475
  852MOL0     H14982   8.615   5.974   9.813  0.2826  0.8749  0.6502
  852MOL0     H14983   8.858   5.960   9.745  5.0397 -0.4143  3.2006
  852MOL0     H14984   9.124   5.752  10.003 -1.1661  0.2298 -0.1712
  852MOL0     H14985   9.098   5.610   9.901  1.1002 -0.3702 -1.1198
  852MOL0     H14986   9.254   5.701   9.738  0.7697 -2.8949 -0.2505
  852MOL0     H14987   9.289   5.832   9.854  0.3787  0.6795 -3.3532
  852MOL0     H14988   9.353   5.655  10.034 -2.7976  1.9123  0.2380
  852MOL0     H14989   9.318   5.535   9.925  0.3418  0.3137 -0.2005
  852MOL0     H14990   9.554   5.721   9.920  2.1518 -2.7969  0.9456
  852MOL0     H14991   9.504   5.674   9.760  0.6837 -0.3564 -0.1369
  852MOL0     H14992   9.579   5.450   9.799 -2.5932  0.6399 -0.1539
  852MOL0     H14993   9.533   5.455   9.962  1.5646 -1.2780 -0.7060
  852MOL0     H14994   9.792   5.475   9.871 -1.2600 -1.4764 -0.3343
  852MOL0     H14995   9.760   5.645   9.898 -1.3518  0.8539 -0.1830
  852MOL0     H14996   9.686   5.438  10.111 -1.9280  1.2782  0.8746
  852MOL0     H14997   9.698   5.607  10.135 -1.4229 -1.3708  0.2150
  852MOL0     H14998   9.926   5.407  10.056 -1.9081 -1.0176 -0.2271
  852MOL0     H14999   9.947   5.582  10.057 -1.2286  2.6839  2.5435
  852MOL0     H15000   8.919   5.651  10.034 -0.3236  0.7358  0.8259
  852MOL0     H15001   8.686   5.666  10.099  1.6119 -0.1986 -0.3204
  852MOL0     H15002   8.284   5.583  10.253  1.4559  1.2085 -1.1025
  852MOL0     H15003   8.041   5.615  10.292  0.2765 -0.2793  0.9457
  852MOL0     H15004   6.919   6.447   9.620  1.8801 -1.1978  0.5297
  852MOL0     H15005   6.851   6.675   9.626  0.3666 -0.3570  1.1230
  852MOL0     H15006   7.049   7.110   9.471 -0.5600 -1.2507  0.8672
  852MOL0     H15007   7.021   7.336   9.428 -1.1800 -0.5792 -0.3438
  852MOL0     H15008   6.806   7.684   9.575  0.9879 -0.5187  0.2229
  852MOL0     H15009   6.770   7.591   9.721  1.4530  4.3074  0.0902
  852MOL0     H15010   6.582   7.618   9.557  0.5036 -0.2760 -0.3122
  852MOL0     H15011   6.621   7.464   9.597 -0.8022  2.6978  3.9125
  852MOL0     H15012   6.579   7.477   9.357 -0.9154 -0.1784  0.6278
  852MOL0     H15013   6.728   7.410   9.398 -3.1867 -1.5046  2.1385
  852MOL0     H15014   6.710   7.698   9.318  2.7887  0.3963  5.7896
  852MOL0     H15015   6.859   7.597   9.330 -0.8579  0.4277  1.0963
  852MOL0     H15016   6.769   7.509   8.945  0.4398  0.7589  0.1330
  852MOL0     H15017   6.822   7.375   9.806 -0.9097 -0.0919 -0.1311
  852MOL0     H15018   6.748   7.037   9.855 -1.9735  1.2723  0.8868
  852MOL0     H15019   6.900   7.073   9.938 -0.7030 -0.8124  0.4230
  852MOL0     H15020   6.764   7.192   9.945  0.5263  2.9903 -0.7763
  853MOL0     O15021   6.447   8.714   0.408 -0.2567 -0.3382  0.4532
  853MOL0     C15022   6.428   8.726   0.285  0.9748  1.0179  0.8852
  853MOL0     O15023   6.348   8.636   0.214 -0.6457 -0.2629 -0.0259
  853MOL0     C15024   6.280   8.545   0.293 -0.2217  0.0293  0.3634
  853MOL0     C15025   6.334   8.426   0.327 -0.3501 -0.4347 -0.1725
  853MOL0     C15026   6.258   8.339   0.402 -0.2531  0.2063  0.1377
  853MOL0     C15027   6.128   8.373   0.454  0.4278  0.2175  0.1111
  853MOL0     O15028   6.046   8.292   0.529  0.2249  0.0841 -0.0192
  853MOL0     C15029   6.109   8.180   0.592 -1.1651  0.8975 -0.0896
  853MOL0     C15030   6.014   8.125   0.711  0.4866  1.6354  0.7533
  853MOL0     C15031   6.076   7.997   0.760 -0.2990  0.4324  1.1097
  853MOL0     C15032   5.988   7.940   0.877  0.3384  0.4311 -0.2615
  853MOL0     C15033   6.066   7.934   1.010 -0.7426 -0.0108 -0.1815
  853MOL0     C15034   6.073   8.082   1.069 -0.2393  0.3320 -1.5376
  853MOL0     C15035   6.143   8.078   1.199  0.9091 -0.7313  0.4788
  853MOL0     C15036   6.186   8.214   1.249  0.0793  0.9193 -0.2545
  853MOL0     N15037   6.231   8.194   1.388  0.2944 -0.7317 -0.0509
  853MOL0     C15038   6.363   8.208   1.420 -0.1266  0.6918 -0.2166
  853MOL0     C15039   6.370   8.168   1.551 -0.2861  0.7072 -0.3670
  853MOL0     C15040   6.497   8.189   1.639  0.3362  0.5884  0.4395
  853MOL0     C15041   6.632   8.134   1.579 -0.6833  0.2700  0.3406
  853MOL0     C15042   6.696   8.245   1.494 -0.5149 -0.1585  0.1768
  853MOL0     C15043   6.764   8.196   1.364 -0.2457  1.0947 -0.1524
  853MOL0     O15044   6.894   8.131   1.399  0.1549 -0.3698 -0.5723
  853MOL0     C15045   6.948   8.032   1.327  0.2757  0.2199 -0.7674
  853MOL0     C15046   7.082   8.015   1.337 -0.1650  0.0336 -0.5328
  853MOL0     C15047   7.141   7.912   1.277 -0.9545  0.0923 -0.3758
  853MOL0     C15048   7.081   7.830   1.184 -0.1910 -0.2634 -0.3805
  853MOL0     C15049   7.160   7.737   1.102 -0.4144 -0.1668  0.6276
  853MOL0     O15050   7.122   7.606   1.100  0.3369 -0.4948 -0.4831
  853MOL0     C15051   7.197   7.524   1.026 -0.3300 -0.4251 -0.3515
  853MOL0     C15052   7.253   7.413   1.094  0.4492  0.7131  0.5392
  853MOL0     C15053   7.328   7.320   1.026  1.0622  0.1799  0.5216
  853MOL0     C15054   7.357   7.331   0.896 -0.6423  0.4742 -0.0727
  853MOL0     O15055   7.456   7.254   0.832  0.5322  0.3351 -0.1108
  853MOL0     C15056   7.557   7.326   0.768 -0.6217  0.9024 -0.8237
  853MOL0     C15057   7.665   7.224   0.738 -0.3542  0.0826  0.0090
  853MOL0     C15058   7.616   7.096   0.659 -0.0111 -0.2356 -0.6237
  853MOL0     C15059   7.719   7.001   0.616  0.5844 -0.1617  0.1944
  853MOL0     C15060   7.653   6.908   0.516  0.0762  0.1928 -0.1579
  853MOL0     C15061   7.735   6.808   0.454 -0.7037  0.3179  0.2196
  853MOL0     C15062   7.809   6.702   0.543 -0.0296  0.5214  0.1263
  853MOL0     C15063   7.721   6.646   0.657 -0.4565 -0.2373 -0.2215
  853MOL0    Cl15064   7.818   6.550   0.772 -0.4949 -0.0125 -0.6183
  853MOL0     C15065   7.292   7.430   0.821  1.0112 -1.2322 -0.6555
  853MOL0     C15066   7.214   7.522   0.890  0.5364  0.1217  0.2773
  853MOL0     O15067   7.266   7.776   1.075 -0.5724 -0.2128 -0.4637
  853MOL0     C15068   6.941   7.839   1.173  0.1571  0.7550 -0.0803
  853MOL0     C15069   6.872   7.940   1.253 -0.2965  1.0407  0.6270
  853MOL0     N15070   6.249   8.112   1.585  0.8109  1.1206 -0.3141
  853MOL0     N15071   6.168   8.128   1.486 -0.4631  0.2854  0.3635
  853MOL0     C15072   6.075   8.489   0.411 -0.1284 -0.0256  0.6507
  853MOL0     C15073   6.149   8.582   0.337 -0.2833  1.0909  0.4279
  853MOL0     C15074   6.483   8.852   0.221 -0.0505 -0.2104 -0.8177
  853MOL0     C15075   6.565   8.930   0.300 -0.9900  0.9621 -0.3866
  853MOL0     C15076   6.635   9.041   0.250 -0.1201 -0.0329  0.5932
  853MOL0     C15077   6.618   9.085   0.117  0.0689 -0.4268 -0.4646
  853MOL0     O15078   6.710   9.184   0.088  0.0997  0.1515  0.0121
  853MOL0     C15079   6.669   9.303   0.025 -0.9906  0.6793 -1.5749
  853MOL0     C15080   6.600   9.407   0.114  0.3492  0.7716 -0.3123
  853MOL0     C15081   6.524   9.512   0.028 -0.2343 -0.5241  0.0865
  853MOL0     C15082   6.611   9.610  -0.059  0.1442 -0.0799  0.0518
  853MOL0     C15083   6.518   9.710  -0.129 -0.2880  0.5273 -0.4881
  853MOL0     C15084   6.436   9.762  -0.194 -1.0168  0.0296  0.3350
  853MOL0     C15085   6.528   9.013   0.037 -0.5663 -0.3493  0.2965
  853MOL0     C15086   6.462   8.895   0.087 -0.8954 -0.0955  0.2559
  853MOL0     C15087   6.391   8.796  -0.009  0.2089 -0.1417  0.0733
  853MOL0     H15088   6.431   8.404   0.282  2.0328  2.0794  3.2135
  853MOL0     H15089   6.309   8.246   0.423  1.5839  1.5525  2.2001
  853MOL0     H15090   6.121   8.099   0.520 -2.1659  1.5333 -0.9938
  853MOL0     H15091   6.204   8.207   0.639 -0.1612 -0.6347 -1.1610
  853MOL0     H15092   5.920   8.105   0.658  2.5264 -0.7995 -2.3073
  853MOL0     H15093   6.014   8.203   0.788 -0.5460  0.4755  1.9750
  853MOL0     H15094   6.175   8.017   0.802 -1.2026  0.9508  3.1280
  853MOL0     H15095   6.097   7.928   0.678 -2.9791  1.0328 -0.1928
  853MOL0     H15096   5.903   8.008   0.885  1.6866  2.2751 -0.9253
  853MOL0     H15097   5.956   7.839   0.848 -0.2837  0.9993 -1.6774
  853MOL0     H15098   6.018   7.867   1.082  1.7865  0.8935  2.5279
  853MOL0     H15099   6.164   7.891   0.986  0.6524  3.4950 -1.2966
  853MOL0     H15100   6.125   8.145   0.996  1.9559 -1.7580 -1.9070
  853MOL0     H15101   5.973   8.113   1.098 -0.9625 -2.6445 -0.4439
  853MOL0     H15102   6.231   8.012   1.202  1.8756  0.3996 -1.1690
  853MOL0     H15103   6.065   8.034   1.261  0.2339  1.5119  1.2915
  853MOL0     H15104   6.249   8.262   1.173 -2.7582  1.6250 -2.3636
  853MOL0     H15105   6.102   8.285   1.248  1.1301  2.4850  3.8317
  853MOL0     H15106   6.451   8.250   1.372  0.0144  0.3522 -0.2577
  853MOL0     H15107   6.502   8.291   1.676 -0.6511  0.2887  1.4458
  853MOL0     H15108   6.488   8.128   1.729  0.0523 -2.6449 -1.6046
  853MOL0     H15109   6.698   8.101   1.660  0.0682 -3.4668 -1.5798
  853MOL0     H15110   6.630   8.041   1.523 -1.9936 -0.5439  1.6730
  853MOL0     H15111   6.773   8.296   1.552 -1.6273  1.1926  0.5164
  853MOL0     H15112   6.631   8.325   1.459  3.1130  3.0921  0.1630
  853MOL0     H15113   6.798   8.280   1.302  2.3067 -0.8482 -1.5758
  853MOL0     H15114   6.705   8.131   1.298  0.8214  0.9242 -0.9694
  853MOL0     H15115   7.134   8.076   1.410 -0.0289  2.8670 -2.8281
  853MOL0     H15116   7.248   7.902   1.295 -0.4722  1.2757 -2.3051
  853MOL0     H15117   7.233   7.394   1.199  0.8219  0.3112  0.5371
  853MOL0     H15118   7.351   7.233   1.086  1.0325 -0.8191 -0.8663
  853MOL0     H15119   7.531   7.364   0.668 -1.1736  0.8453 -0.7014
  853MOL0     H15120   7.596   7.412   0.824  1.4746 -0.9379  0.6733
  853MOL0     H15121   7.740   7.265   0.669  0.5266 -0.2132  0.7691
  853MOL0     H15122   7.710   7.193   0.833  0.7414 -2.4012 -1.2179
  853MOL0     H15123   7.529   7.056   0.712 -2.2262  2.0990 -2.2829
  853MOL0     H15124   7.569   7.138   0.570 -2.3636  0.3967  0.8378
  853MOL0     H15125   7.744   6.953   0.711 -0.9062 -1.0360  0.1717
  853MOL0     H15126   7.811   7.047   0.578  1.9528 -3.5563 -0.9784
  853MOL0     H15127   7.623   6.965   0.427  1.4161 -1.6208 -1.8649
  853MOL0     H15128   7.562   6.861   0.555  0.0125  0.3833 -0.0776
  853MOL0     H15129   7.669   6.755   0.385 -1.0929  2.5897 -1.2597
  853MOL0     H15130   7.818   6.850   0.397  0.2561  0.8893  1.9380
  853MOL0     H15131   7.900   6.745   0.586  0.6136 -0.0688 -0.6033
  853MOL0     H15132   7.836   6.620   0.475 -1.3069 -1.0637  1.4232
  853MOL0     H15133   7.665   6.726   0.705 -0.4216 -0.2774 -0.1129
  853MOL0     H15134   7.647   6.580   0.612 -0.5637  0.2846 -0.8195
  853MOL0     H15135   7.310   7.441   0.715 -1.0896  1.4861 -0.8496
  853MOL0     H15136   7.169   7.594   0.823 -0.7764 -0.5948  0.3465
  853MOL0     H15137   6.888   7.767   1.112  0.1577 -0.1720  0.9758
  853MOL0     H15138   6.763   7.947   1.255 -0.2004  2.8084  1.4561
  853MOL0     H15139   5.983   8.531   0.451  0.2364  0.7592  0.6886
  853MOL0     H15140   6.095   8.668   0.300  0.4756  0.1853 -3.0839
  853MOL0     H15141   6.582   8.901   0.404 -1.4919 -1.2025 -0.8571
  853MOL0     H15142   6.707   9.091   0.314  2.8785 -1.0336 -1.6982
  853MOL0     H15143   6.599   9.269  -0.053 -0.8972 -3.7533  0.0012
  853MOL0     H15144   6.760   9.334  -0.027  0.5045 -3.0732 -1.5035
  853MOL0     H15145   6.664   9.468   0.180  1.9808  0.8898 -1.9347
  853MOL0     H15146   6.536   9.344   0.175  1.7875  0.1304  0.5953
  853MOL0     H15147   6.467   9.569   0.103 -0.8503  0.6072 -1.1929
  853MOL0     H15148   6.447   9.460  -0.030  1.2930 -1.8267 -0.8286
  853MOL0     H15149   6.680   9.666   0.005  0.0946  0.0859 -0.0396
  853MOL0     H15150   6.669   9.556  -0.134 -0.4617 -0.3392 -0.2360
  853MOL0     H15151   6.362   9.806  -0.257 -2.1057  1.1402  2.2960
  853MOL0     H15152   6.533   9.042  -0.068 -3.1698  1.5674  0.6231
  853MOL0     H15153   6.284   8.801   0.014 -0.3628  3.3787 -2.4576
  853MOL0     H15154   6.396   8.827  -0.113 -1.9808 -1.4798 -0.4873
  853MOL0     H15155   6.441   8.699   0.001 -1.3967 -0.8997  1.2710
  854MOL0     O15156  10.285   1.256  11.389 -0.3020  0.8970  0.3203
  854MOL0     C15157  10.351   1.304  11.486  0.6120 -0.1845  0.5018
  854MOL0     O15158  10.448   1.256  11.558 -0.3195  0.4781  0.1999
  854MOL0     C15159  10.529   1.156  11.502 -0.9629  0.0799  0.4394
  854MOL0     C15160  10.608   1.091  11.589 -0.5130  0.0324  0.2917
  854MOL0     C15161  10.705   1.000  11.547  0.5997  0.0518 -0.9135
  854MOL0     C15162  10.716   0.961  11.415  0.2462 -0.3376  0.4810
  854MOL0     O15163  10.814   0.883  11.369  1.0023  0.5115  1.3198
  854MOL0     C15164  10.778   0.754  11.327 -0.6556 -0.3231  0.2723
  854MOL0     C15165  10.899   0.680  11.270 -0.5667  0.1843  0.0222
  854MOL0     C15166  10.856   0.532  11.253 -0.6546 -0.2443  0.4439
  854MOL0     C15167  10.965   0.441  11.189  0.0323  0.5577  0.2045
  854MOL0     C15168  10.931   0.290  11.219 -0.4133  0.3392 -0.4781
  854MOL0     C15169  11.004   0.199  11.119 -1.2807  0.0337 -0.5259
  854MOL0     C15170  10.957   0.045  11.126 -0.4085  0.1788 -0.7843
  854MOL0     C15171  11.040  -0.041  11.216  0.1180  0.4037  0.1678
  854MOL0     N15172  11.010  -0.038  11.360  0.0796  0.6097  0.9705
  854MOL0     C15173  10.906  -0.114  11.410 -0.3437 -0.7333 -0.7109
  854MOL0     C15174  10.923  -0.103  11.546  0.8071 -1.4014  0.1565
  854MOL0     C15175  10.829  -0.156  11.660 -0.3251 -0.5448  0.4712
  854MOL0     C15176  10.811  -0.306  11.641  0.3852  0.4681 -0.9756
  854MOL0     C15177  10.933  -0.386  11.672 -1.0785  0.2942  0.4640
  854MOL0     C15178  10.907  -0.506  11.754 -1.0530  0.3348 -0.4484
  854MOL0     O15179  10.869  -0.464  11.886 -0.4942  0.3036 -0.2870
  854MOL0     C15180  10.791  -0.558  11.954 -0.8002 -0.6580  0.0162
  854MOL0     C15181  10.653  -0.574  11.941 -0.1211  0.4431  0.4182
  854MOL0     C15182  10.587  -0.686  11.999  0.2381  0.2768  1.0877
  854MOL0     C15183  10.649  -0.760  12.098  0.8741  0.2986  0.9669
  854MOL0     C15184  10.581  -0.866  12.157  0.3715  0.2574 -0.4176
  854MOL0     O15185  10.659  -0.954  12.242  0.5524 -0.0307  0.8058
  854MOL0     C15186  10.585  -1.044  12.316 -0.7168  0.0413 -0.3219
  854MOL0     C15187  10.655  -1.159  12.346  0.3480  0.3818 -0.6704
  854MOL0     C15188  10.603  -1.246  12.440  0.8827 -0.6680  0.0260
  854MOL0     C15189  10.506  -1.202  12.532  0.8034 -0.7908  0.3992
  854MOL0     O15190  10.467  -1.297  12.621  0.2332  0.0810  0.6020
  854MOL0     C15191  10.557  -1.313  12.731 -0.0948  0.1896  0.4880
  854MOL0     C15192  10.498  -1.383  12.848  0.1361 -0.0451  0.6705
  854MOL0     C15193  10.571  -1.348  12.990 -0.3952  0.0965  0.3043
  854MOL0     C15194  10.486  -1.394  13.106  0.2002  1.0501  0.3830
  854MOL0     C15195  10.576  -1.384  13.230  0.4856 -0.6072 -0.3840
  854MOL0     C15196  10.505  -1.303  13.342  0.0875  0.2004  0.1874
  854MOL0     C15197  10.595  -1.307  13.461 -0.4539 -0.8066 -0.5531
  854MOL0     C15198  10.557  -1.189  13.556 -0.0391  1.5508  1.2311
  854MOL0    Cl15199  10.662  -1.183  13.696 -0.6678 -0.9701  0.2345
  854MOL0     C15200  10.437  -1.082  12.503 -0.4425  0.6409 -0.4399
  854MOL0     C15201  10.478  -1.012  12.398  0.2165 -0.3645  0.4850
  854MOL0     O15202  10.458  -0.870  12.133 -0.3301  0.1963 -0.0960
  854MOL0     C15203  10.783  -0.735  12.120 -0.4001 -0.2598 -0.2393
  854MOL0     C15204  10.861  -0.645  12.039  0.5546 -0.2190  0.3213
  854MOL0     N15205  11.031  -0.029  11.574  0.2764 -1.0498  0.5882
  854MOL0     N15206  11.089   0.010  11.466  0.2687  0.0795  0.2450
  854MOL0     C15207  10.637   1.021  11.320  0.6515 -0.0199 -0.6053
  854MOL0     C15208  10.542   1.118  11.363  0.4440 -0.3284  0.8511
  854MOL0     C15209  10.313   1.434  11.522 -0.3152  0.3274 -0.4841
  854MOL0     C15210  10.401   1.527  11.475  0.0677 -1.3893 -0.6569
  854MOL0     C15211  10.371   1.666  11.482 -0.0388 -0.9020  0.4678
  854MOL0     C15212  10.245   1.706  11.545  0.0377 -0.0795  0.4843
  854MOL0     O15213  10.203   1.838  11.560  0.2014  0.5230 -0.5651
  854MOL0     C15214  10.185   1.918  11.443  0.3287  0.2517  0.6065
  854MOL0     C15215  10.079   2.011  11.481  0.2393 -0.0532  0.4914
  854MOL0     C15216   9.937   1.939  11.475  0.6446  0.0118  0.7462
  854MOL0     C15217   9.880   1.943  11.339 -0.3824 -0.3189  0.9240
  854MOL0     C15218   9.872   2.081  11.278  0.1816  0.2416 -0.6012
  854MOL0     C15219   9.889   2.190  11.226 -0.2878  0.4737  0.2051
  854MOL0     C15220  10.153   1.602  11.585 -0.5264 -0.5509  0.2551
  854MOL0     C15221  10.183   1.466  11.567 -0.3623 -0.2233  0.9147
  854MOL0     C15222  10.084   1.364  11.605 -0.2968 -0.5080 -0.3640
  854MOL0     H15223  10.599   1.109  11.695 -1.8916 -0.0911  0.2099
  854MOL0     H15224  10.780   0.964  11.618 -0.5194 -0.3908  0.0799
  854MOL0     H15225  10.737   0.697  11.410 -2.9979  0.6677 -0.1340
  854MOL0     H15226  10.702   0.752  11.249  1.3403 -0.8127 -1.7783
  854MOL0     H15227  10.985   0.683  11.338 -0.3053 -0.6912 -0.2583
  854MOL0     H15228  10.952   0.709  11.179  2.6416 -1.5676  1.1889
  854MOL0     H15229  10.773   0.527  11.182  0.2143 -1.3740 -0.5398
  854MOL0     H15230  10.836   0.490  11.352  0.2896  0.1090  0.7940
  854MOL0     H15231  10.985   0.455  11.082  2.3282 -1.1042  0.3339
  854MOL0     H15232  11.061   0.463  11.236  1.1107 -2.8775 -0.0984
  854MOL0     H15233  10.953   0.258  11.321  0.1440 -0.3431 -0.8068
  854MOL0     H15234  10.823   0.281  11.201 -0.8338  0.5973  1.5680
  854MOL0     H15235  10.989   0.239  11.018 -2.3882  0.6166 -0.1344
  854MOL0     H15236  11.112   0.205  11.137 -0.7598  2.0377 -3.5706
  854MOL0     H15237  10.980   0.017  11.022  1.7915  3.0697 -1.2005
  854MOL0     H15238  10.852   0.034  11.152 -0.6366  0.4834 -1.5543
  854MOL0     H15239  11.036  -0.142  11.174 -4.5934 -0.4313  2.0141
  854MOL0     H15240  11.140   0.001  11.205  0.1590  1.0404  2.5229
  854MOL0     H15241  10.827  -0.167  11.359  0.2214 -2.2075 -0.1048
  854MOL0     H15242  10.876  -0.134  11.756  0.6957 -0.2628 -0.0694
  854MOL0     H15243  10.737  -0.098  11.653 -0.3414 -0.5671  0.5070
  854MOL0     H15244  10.723  -0.343  11.694  0.5657  3.0930  1.3729
  854MOL0     H15245  10.782  -0.324  11.537  1.0207  1.5618 -1.3659
  854MOL0     H15246  11.013  -0.327  11.717  0.8655 -1.3696 -0.6362
  854MOL0     H15247  10.971  -0.419  11.575 -3.8461  0.9697 -0.9521
  854MOL0     H15248  10.991  -0.575  11.758 -1.5836 -0.3470 -0.7940
  854MOL0     H15249  10.829  -0.560  11.700 -0.6645 -0.3095 -0.3644
  854MOL0     H15250  10.598  -0.499  11.887  1.0285 -0.3709 -2.0062
  854MOL0     H15251  10.482  -0.701  11.977  0.4333 -3.2183  1.9605
  854MOL0     H15252  10.739  -1.180  12.281 -0.6166  1.4957 -2.3553
  854MOL0     H15253  10.646  -1.346  12.444 -0.9538 -1.4569  0.9419
  854MOL0     H15254  10.648  -1.368  12.705  0.2762 -0.6977  3.3260
  854MOL0     H15255  10.586  -1.217  12.774  1.6253 -0.6966  1.4072
  854MOL0     H15256  10.394  -1.349  12.841 -0.4408 -1.9571 -0.6928
  854MOL0     H15257  10.510  -1.491  12.834 -0.6428 -0.2859  1.6716
  854MOL0     H15258  10.664  -1.405  12.987  1.3860  2.8008  0.8161
  854MOL0     H15259  10.609  -1.245  12.990  1.1824 -0.4182 -2.0240
  854MOL0     H15260  10.463  -1.496  13.077  2.4966  0.3029  0.9983
  854MOL0     H15261  10.393  -1.336  13.117 -1.1958 -0.4674 -2.3555
  854MOL0     H15262  10.671  -1.337  13.205 -1.0182  2.0118 -1.5131
  854MOL0     H15263  10.607  -1.484  13.263 -0.7864 -1.2077 -0.9420
  854MOL0     H15264  10.498  -1.202  13.301  0.9935  1.1336  2.2297
  854MOL0     H15265  10.405  -1.341  13.363 -0.7894  0.3568 -3.0463
  854MOL0     H15266  10.699  -1.288  13.434  0.3578 -0.7437  2.3202
  854MOL0     H15267  10.599  -1.406  13.508 -0.9952 -0.4812  0.1967
  854MOL0     H15268  10.574  -1.099  13.496  1.2364  0.6201  0.1423
  854MOL0     H15269  10.451  -1.185  13.582 -0.2906 -1.9493  1.1392
  854MOL0     H15270  10.359  -1.047  12.570  0.3511 -0.1485  0.9467
  854MOL0     H15271  10.430  -0.916  12.386 -2.8519 -1.8932 -0.4405
  854MOL0     H15272  10.843  -0.798  12.184  1.7912 -0.4145 -2.3045
  854MOL0     H15273  10.970  -0.637  12.038  0.4372  2.8038 -1.0032
  854MOL0     H15274  10.643   0.997  11.214 -2.8089  0.7442 -1.0883
  854MOL0     H15275  10.474   1.153  11.285  0.5578 -1.6224  0.1548
  854MOL0     H15276  10.495   1.489  11.437  0.4375 -1.9485  0.7542
  854MOL0     H15277  10.446   1.730  11.438 -0.3261 -1.6433 -1.1778
  854MOL0     H15278  10.158   1.860  11.354  0.6169  2.5117 -1.0379
  854MOL0     H15279  10.282   1.961  11.416  1.6869 -0.9188  3.2570
  854MOL0     H15280  10.085   2.103  11.421 -1.1078 -0.5905 -0.5152
  854MOL0     H15281  10.099   2.049  11.582  0.3458 -3.5533  1.9332
  854MOL0     H15282   9.875   1.991  11.549 -0.2660  2.9696 -1.8859
  854MOL0     H15283   9.949   1.833  11.499 -0.5573 -0.0257  1.2447
  854MOL0     H15284   9.928   1.873  11.270  2.4932  2.9304 -0.6755
  854MOL0     H15285   9.775   1.911  11.345 -0.6703 -0.2663 -2.0849
  854MOL0     H15286   9.911   2.284  11.180  3.9392  0.9937  2.7945
  854MOL0     H15287  10.067   1.625  11.645 -1.2612 -1.8821 -0.2397
  854MOL0     H15288  10.048   1.389  11.706 -0.8703  1.6186 -1.0319
  854MOL0     H15289   9.999   1.372  11.536 -0.6375 -0.0181  0.0986
  854MOL0     H15290  10.114   1.262  11.583 -1.3463 -0.9448  0.1228
  855MOL0     O15291   3.374   7.251   6.112  0.1378 -1.0958 -0.0952
  855MOL0     C15292   3.409   7.138   6.122 -0.1283 -0.6178 -0.0053
  855MOL0     O15293   3.456   7.071   6.235  0.0369 -0.0217  1.1795
  855MOL0     C15294   3.466   7.120   6.362 -0.2273 -0.2579 -0.4082
  855MOL0     C15295   3.472   7.261   6.405  0.1513  0.3686 -0.1480
  855MOL0     C15296   3.504   7.296   6.534 -0.7403 -1.0970 -0.1654
  855MOL0     C15297   3.545   7.207   6.623  0.3769 -0.0160 -0.9140
  855MOL0     O15298   3.581   7.266   6.748  0.3508 -0.2349 -0.6403
  855MOL0     C15299   3.693   7.215   6.817 -0.0963 -0.5380 -0.5805
  855MOL0     C15300   3.732   7.312   6.928 -0.2797  0.3596  0.5983
  855MOL0     C15301   3.796   7.234   7.052  0.2085 -0.5887 -0.0485
  855MOL0     C15302   3.802   7.333   7.166 -0.2640 -0.1274 -0.2835
  855MOL0     C15303   3.885   7.280   7.280 -0.4179  0.4937 -0.5292
  855MOL0     C15304   3.834   7.331   7.417 -0.0422  0.2002 -0.4916
  855MOL0     C15305   3.945   7.301   7.529 -0.2477 -0.6402  0.7104
  855MOL0     C15306   3.907   7.381   7.648  0.0912  0.4156 -1.1479
  855MOL0     N15307   3.982   7.326   7.760 -0.2791 -0.1259 -0.1696
  855MOL0     C15308   3.940   7.290   7.883  0.3591  0.8770 -0.3402
  855MOL0     C15309   4.043   7.255   7.951 -0.6320  0.4087 -0.2726
  855MOL0     C15310   4.064   7.195   8.082  0.1241 -0.1655  1.1587
  855MOL0     C15311   4.176   7.279   8.164  0.1807 -0.0967 -0.2186
  855MOL0     C15312   4.151   7.428   8.179  0.4291 -0.1006  0.5939
  855MOL0     C15313   4.266   7.487   8.264  0.2345 -0.3883 -0.6804
  855MOL0     O15314   4.253   7.433   8.399 -0.3804 -0.3693  0.2285
  855MOL0     C15315   4.314   7.506   8.505  0.2406 -0.3580  0.0453
  855MOL0     C15316   4.325   7.439   8.623 -0.3795  0.2364 -0.4217
  855MOL0     C15317   4.366   7.503   8.734  0.0424 -1.0283 -0.6674
  855MOL0     C15318   4.430   7.633   8.732 -0.5318  2.0367  0.1966
  855MOL0     C15319   4.492   7.684   8.850 -0.2728 -0.0492 -0.7392
  855MOL0     O15320   4.522   7.809   8.849 -1.1108 -0.2384  0.2387
  855MOL0     C15321   4.554   7.885   8.953  0.2251 -0.6332 -0.5028
  855MOL0     C15322   4.560   7.852   9.089  0.3727  1.1203 -0.3149
  855MOL0     C15323   4.594   7.953   9.179 -0.4310  0.3007  0.8698
  855MOL0     C15324   4.607   8.085   9.137 -0.5363 -0.3221  0.3394
  855MOL0     O15325   4.652   8.178   9.234  0.1717 -0.0156  0.5673
  855MOL0     C15326   4.646   8.319   9.206 -0.2620  0.3558  0.6693
  855MOL0     C15327   4.656   8.398   9.337  0.3706 -0.6289 -0.2817
  855MOL0     C15328   4.784   8.369   9.398  0.3943  0.2358 -0.5682
  855MOL0     C15329   4.791   8.411   9.546  0.6867 -0.5359 -0.3663
  855MOL0     C15330   4.914   8.345   9.617 -0.0283 -0.0860 -1.1396
  855MOL0     C15331   5.048   8.405   9.568 -0.0599  0.5310 -0.3246
  855MOL0     C15332   5.147   8.371   9.672  0.0100  0.2637 -0.3213
  855MOL0     C15333   5.288   8.355   9.616  0.6838 -1.4085 -0.4815
  855MOL0    Cl15334   5.349   8.494   9.531 -0.0645  0.0711 -0.0230
  855MOL0     C15335   4.587   8.127   9.006  0.3480  0.5332 -0.4226
  855MOL0     C15336   4.571   8.026   8.915  0.0316 -0.0857  0.7927
  855MOL0     O15337   4.495   7.611   8.949  0.2962  0.1478  0.0939
  855MOL0     C15338   4.421   7.707   8.615 -0.5839  0.3241  0.8294
  855MOL0     C15339   4.367   7.643   8.499 -0.2685 -0.1391  0.0064
  855MOL0     N15340   4.149   7.282   7.868 -0.4752 -0.0540 -0.4919
  855MOL0     N15341   4.113   7.322   7.753 -0.1326  0.6156  0.5780
  855MOL0     C15342   3.532   7.072   6.596 -0.6127 -0.0843 -0.4304
  855MOL0     C15343   3.484   7.030   6.469 -0.1726 -0.5275 -0.0743
  855MOL0     C15344   3.419   7.052   6.000  0.2177 -0.7297  0.1435
  855MOL0     C15345   3.508   6.939   5.998 -0.0324  0.1167 -0.1951
  855MOL0     C15346   3.526   6.857   5.885  0.9377 -0.1645  0.7934
  855MOL0     C15347   3.443   6.881   5.776  0.6585  0.1321 -0.1597
  855MOL0     O15348   3.444   6.816   5.656  0.4735 -0.4302 -0.0675
  855MOL0     C15349   3.453   6.668   5.650  0.5002 -0.9195  0.0330
  855MOL0     C15350   3.485   6.639   5.512 -0.4595  0.2992 -0.6545
  855MOL0     C15351   3.480   6.484   5.487  1.1119  0.1613 -0.8373
  855MOL0     C15352   3.336   6.434   5.441  0.1150  0.2423  0.7638
  855MOL0     C15353   3.303   6.498   5.310  0.1857  0.4444 -0.8912
  855MOL0     C15354   3.291   6.560   5.203  0.2705  0.3967 -0.0989
  855MOL0     C15355   3.352   6.978   5.786 -0.2220  0.1014  0.6136
  855MOL0     C15356   3.333   7.075   5.882 -0.6654  0.2053  0.5099
  855MOL0     C15357   3.218   7.174   5.847  0.1903  0.3238  0.9151
  855MOL0     H15358   3.477   7.337   6.328  0.8662  2.5963  1.9813
  855MOL0     H15359   3.503   7.401   6.562  0.2823 -1.6161  2.0727
  855MOL0     H15360   3.666   7.117   6.857 -0.0081 -0.6606 -0.8204
  855MOL0     H15361   3.789   7.216   6.764 -0.8660 -4.0332 -2.3355
  855MOL0     H15362   3.649   7.367   6.973 -0.2340  0.2342  0.8390
  855MOL0     H15363   3.797   7.390   6.888 -0.7838  0.6283  0.2877
  855MOL0     H15364   3.896   7.196   7.027 -0.2629 -2.0740  0.1856
  855MOL0     H15365   3.734   7.147   7.075 -0.7196  0.0427 -0.1105
  855MOL0     H15366   3.841   7.432   7.138 -0.3890 -0.1915 -0.6977
  855MOL0     H15367   3.703   7.357   7.204  0.2033  2.7460 -0.6012
  855MOL0     H15368   3.882   7.171   7.274 -1.0123  0.2753  2.2224
  855MOL0     H15369   3.988   7.317   7.268 -0.9903  2.5832  0.6159
  855MOL0     H15370   3.819   7.439   7.414 -0.5779  0.0992 -2.1947
  855MOL0     H15371   3.751   7.270   7.455  1.6611 -3.4651 -2.1550
  855MOL0     H15372   4.046   7.330   7.500 -0.3805 -2.0593 -1.3456
  855MOL0     H15373   3.955   7.194   7.548  2.3548 -1.0676 -2.2298
  855MOL0     H15374   3.922   7.486   7.624  1.2939  1.1220  2.1420
  855MOL0     H15375   3.800   7.375   7.668  0.5156  2.4601  2.5179
  855MOL0     H15376   3.836   7.283   7.911  0.5878 -3.3209 -0.0367
  855MOL0     H15377   3.967   7.209   8.131 -2.3768 -0.1993 -3.2837
  855MOL0     H15378   4.075   7.086   8.078 -0.3405 -0.2175  1.2310
  855MOL0     H15379   4.184   7.229   8.261  2.1886 -0.0877 -0.3495
  855MOL0     H15380   4.272   7.264   8.115  0.0523 -3.7509  0.3665
  855MOL0     H15381   4.055   7.443   8.230  0.6762  0.7977  0.7986
  855MOL0     H15382   4.148   7.469   8.078 -0.2537  1.9784  1.4121
  855MOL0     H15383   4.260   7.596   8.265 -0.1126 -0.3417  2.6075
  855MOL0     H15384   4.362   7.468   8.214  1.0105  1.5841 -0.0066
  855MOL0     H15385   4.282   7.341   8.639  2.0308 -0.8914 -0.3663
  855MOL0     H15386   4.365   7.439   8.822 -1.0651 -0.5455 -0.3008
  855MOL0     H15387   4.541   7.748   9.115 -2.8456  0.8207 -3.1183
  855MOL0     H15388   4.613   7.918   9.280  4.4146  0.8401  0.3776
  855MOL0     H15389   4.727   8.331   9.134  2.4113 -2.1023  3.0307
  855MOL0     H15390   4.557   8.354   9.153  1.4116  3.9162 -0.1131
  855MOL0     H15391   4.649   8.503   9.309 -3.0333  0.4847  3.8084
  855MOL0     H15392   4.565   8.368   9.389  1.4144 -0.7199  1.5831
  855MOL0     H15393   4.779   8.259   9.399  2.1656  0.1121 -1.2614
  855MOL0     H15394   4.873   8.400   9.343 -2.4800  3.6889 -3.7847
  855MOL0     H15395   4.698   8.388   9.599 -0.7407  2.8610 -1.0894
  855MOL0     H15396   4.808   8.519   9.543 -1.0502  0.0064  3.3525
  855MOL0     H15397   4.912   8.236   9.609 -1.3214 -0.4766  2.4895
  855MOL0     H15398   4.909   8.374   9.723 -1.3262 -0.0594 -1.1900
  855MOL0     H15399   5.075   8.357   9.474 -1.4212  2.6074 -1.8645
  855MOL0     H15400   5.021   8.510   9.556  0.9843  0.7456 -0.8930
  855MOL0     H15401   5.126   8.268   9.705 -0.1788  0.7293  1.1022
  855MOL0     H15402   5.143   8.445   9.752 -1.7163 -1.0180  0.8618
  855MOL0     H15403   5.353   8.330   9.701  1.7314  2.9544  0.2393
  855MOL0     H15404   5.288   8.272   9.546  1.6283 -0.8172 -1.2119
  855MOL0     H15405   4.592   8.229   8.971  0.9228  0.2039 -1.3262
  855MOL0     H15406   4.579   8.051   8.810 -3.0319  3.0483  1.1068
  855MOL0     H15407   4.471   7.802   8.597  0.3134  0.0914  2.0415
  855MOL0     H15408   4.367   7.705   8.410  2.4418 -0.3084 -0.1775
  855MOL0     H15409   3.549   7.011   6.684 -2.4991  2.2902  1.7272
  855MOL0     H15410   3.492   6.923   6.454  2.3184 -0.3300 -0.4958
  855MOL0     H15411   3.580   6.920   6.077  2.0105  0.7762 -1.8051
  855MOL0     H15412   3.601   6.778   5.883  0.0441 -1.0699 -2.6297
  855MOL0     H15413   3.358   6.619   5.676 -0.2827 -1.4089 -3.2488
  855MOL0     H15414   3.537   6.641   5.714  0.2442  2.0386  1.7725
  855MOL0     H15415   3.587   6.676   5.502 -0.7163  0.7778 -1.6243
  855MOL0     H15416   3.410   6.691   5.451 -1.5765 -0.8113 -0.2810
  855MOL0     H15417   3.482   6.434   5.585 -1.3588  0.5398 -0.5337
  855MOL0     H15418   3.563   6.453   5.423  0.6954 -1.1836 -0.7472
  855MOL0     H15419   3.330   6.325   5.437 -2.3044  0.2582  2.0974
  855MOL0     H15420   3.259   6.457   5.515 -1.9298 -0.5859 -0.9936
  855MOL0     H15421   3.292   6.611   5.109  1.1637 -2.5402 -1.8282
  855MOL0     H15422   3.294   6.979   5.694 -2.6103  1.7615  2.0302
  855MOL0     H15423   3.132   7.131   5.795 -0.5494 -0.4681  2.7005
  855MOL0     H15424   3.190   7.230   5.937  0.4787 -1.5882  2.2436
  855MOL0     H15425   3.264   7.248   5.780  0.3861  0.7005  1.4548
  856MOL0     O15426   6.001   5.730   6.668  0.1188  0.0207 -0.9195
  856MOL0     C15427   5.884   5.713   6.637 -0.2682 -0.4134 -0.3889
  856MOL0     O15428   5.793   5.636   6.703  0.1512 -0.3642  0.4684
  856MOL0     C15429   5.832   5.569   6.809 -0.0736  0.3169  0.8931
  856MOL0     C15430   5.829   5.622   6.931  0.9178  0.0795 -0.9133
  856MOL0     C15431   5.877   5.560   7.046 -0.2353  0.0792  0.1354
  856MOL0     C15432   5.925   5.426   7.039 -0.6232  0.2454 -0.3567
  856MOL0     O15433   5.976   5.359   7.152 -0.4223 -0.1229  0.4514
  856MOL0     C15434   5.976   5.212   7.158 -0.7258 -0.2164  0.3700
  856MOL0     C15435   6.052   5.191   7.289 -0.5747 -0.4171  0.8883
  856MOL0     C15436   5.998   5.257   7.412  0.5316  0.2107  1.2527
  856MOL0     C15437   5.875   5.179   7.457  0.4228  0.3597 -0.5546
  856MOL0     C15438   5.788   5.230   7.572 -0.2514 -0.3449  0.1144
  856MOL0     C15439   5.675   5.126   7.575 -0.5448  0.0926 -2.0432
  856MOL0     C15440   5.565   5.160   7.680  0.4187 -0.5441 -0.2129
  856MOL0     C15441   5.585   5.119   7.821 -0.0339 -0.5687 -0.3408
  856MOL0     N15442   5.466   5.145   7.914  0.7526 -0.5238 -1.2130
  856MOL0     C15443   5.475   5.243   8.011  1.0858 -0.1018  0.4092
  856MOL0     C15444   5.370   5.198   8.092 -0.1101  0.5365 -0.3913
  856MOL0     C15445   5.324   5.266   8.218  0.1041 -0.0283  0.3300
  856MOL0     C15446   5.404   5.205   8.334 -0.3231  0.5426  0.0834
  856MOL0     C15447   5.343   5.204   8.477 -0.0769  0.2408  0.5627
  856MOL0     C15448   5.286   5.339   8.519  0.0144 -0.5149  0.5992
  856MOL0     O15449   5.256   5.334   8.661  0.6933  0.0841  0.1310
  856MOL0     C15450   5.178   5.429   8.722  0.1696  0.1945  1.3652
  856MOL0     C15451   5.149   5.551   8.658 -0.7442 -1.4837 -0.1418
  856MOL0     C15452   5.064   5.636   8.725 -0.3650 -0.3734  0.0443
  856MOL0     C15453   5.003   5.605   8.844  0.1887  0.1557 -0.3530
  856MOL0     C15454   4.912   5.703   8.921  0.5081 -0.6036  1.1761
  856MOL0     O15455   4.896   5.831   8.872  0.2880  0.0013 -0.3274
  856MOL0     C15456   4.833   5.921   8.945  0.0597 -0.3087  0.2714
  856MOL0     C15457   4.717   5.981   8.893  1.1272 -0.5664 -0.0556
  856MOL0     C15458   4.631   6.065   8.972 -0.3824  0.0438 -0.5682
  856MOL0     C15459   4.683   6.099   9.096  0.5725  0.1283 -0.0897
  856MOL0     O15460   4.629   6.194   9.186  0.0776 -0.2536 -0.3140
  856MOL0     C15461   4.487   6.224   9.170  0.5437  0.6133 -0.1619
  856MOL0     C15462   4.398   6.106   9.216  0.2137 -0.3360 -0.1215
  856MOL0     C15463   4.434   6.061   9.362 -0.3046 -0.3457  0.1824
  856MOL0     C15464   4.436   6.176   9.471 -0.3324  1.2160  0.3500
  856MOL0     C15465   4.471   6.141   9.619 -0.8020 -0.3288  0.1793
  856MOL0     C15466   4.620   6.103   9.642 -0.1221 -0.2533 -0.0705
  856MOL0     C15467   4.718   6.188   9.571 -0.5600  0.6040 -1.5280
  856MOL0     C15468   4.870   6.151   9.602  0.3662  0.2274 -0.0375
  856MOL0    Cl15469   4.891   5.968   9.594 -0.3416 -0.0450  0.8820
  856MOL0     C15470   4.806   6.051   9.139 -0.0583  0.3333  0.6944
  856MOL0     C15471   4.885   5.960   9.066  0.3284  0.5720  0.7417
  856MOL0     O15472   4.840   5.663   9.012  0.3327 -0.3164  0.2799
  856MOL0     C15473   5.030   5.477   8.907 -0.1128 -0.8360  0.2606
  856MOL0     C15474   5.116   5.390   8.839  0.3579  0.4913  0.0642
  856MOL0     N15475   5.315   5.078   8.044 -0.1229 -0.2160  0.2296
  856MOL0     N15476   5.375   5.048   7.931  0.7749  0.5609 -0.7728
  856MOL0     C15477   5.929   5.368   6.904 -0.5516 -0.4654 -0.2923
  856MOL0     C15478   5.879   5.440   6.792 -0.3939  0.9117  0.2018
  856MOL0     C15479   5.824   5.779   6.520 -1.1209 -0.3580 -0.1304
  856MOL0     C15480   5.685   5.806   6.529  0.2170  0.5909 -0.6290
  856MOL0     C15481   5.626   5.876   6.422  0.6188  0.6922  0.1942
  856MOL0     C15482   5.686   5.905   6.296 -0.6416 -0.0723  0.3164
  856MOL0     O15483   5.622   5.974   6.199 -0.4741 -0.2734  0.2133
  856MOL0     C15484   5.601   5.900   6.075 -0.8829 -0.8334  0.1879
  856MOL0     C15485   5.687   5.953   5.964 -0.9490 -0.2849  0.0015
  856MOL0     C15486   5.668   6.109   5.949  0.0363 -0.2160 -0.0394
  856MOL0     C15487   5.700   6.163   5.807  0.8619 -0.1323 -0.1843
  856MOL0     C15488   5.851   6.153   5.782 -0.3389 -0.2226 -0.3614
  856MOL0     C15489   5.968   6.165   5.770 -0.3780 -0.3799  0.6275
  856MOL0     C15490   5.828   5.872   6.288  0.8013 -0.0584 -0.2627
  856MOL0     C15491   5.895   5.817   6.397 -0.8277  0.5371  0.0250
  856MOL0     C15492   6.045   5.785   6.377  0.1827 -0.5041 -0.4911
  856MOL0     H15493   5.772   5.714   6.940  0.1502 -0.1608 -2.8509
  856MOL0     H15494   5.881   5.606   7.144 -1.0507  0.1179  0.1595
  856MOL0     H15495   5.882   5.160   7.175 -1.8675  1.3205 -0.9515
  856MOL0     H15496   6.023   5.168   7.070 -2.9977 -0.6836 -0.6716
  856MOL0     H15497   6.153   5.225   7.265 -1.2208 -0.1161 -1.6830
  856MOL0     H15498   6.057   5.084   7.312 -3.9909 -0.9016 -0.0887
  856MOL0     H15499   5.980   5.365   7.406 -0.3115  0.1028  1.6402
  856MOL0     H15500   6.072   5.251   7.492 -1.5945 -1.8908  3.2404
  856MOL0     H15501   5.801   5.170   7.377  0.8274  1.1146 -1.0203
  856MOL0     H15502   5.909   5.078   7.483  1.1321  1.0738  1.4615
  856MOL0     H15503   5.842   5.240   7.667 -0.9653  2.4171  0.2972
  856MOL0     H15504   5.747   5.327   7.544  1.4491  0.1924 -0.6199
  856MOL0     H15505   5.617   5.122   7.482  0.0994 -0.7119 -2.4302
  856MOL0     H15506   5.713   5.025   7.592 -2.7071 -0.3766  0.6547
  856MOL0     H15507   5.471   5.120   7.640 -0.1623  0.3245  0.2614
  856MOL0     H15508   5.566   5.269   7.681 -0.1231 -0.4849  2.4988
  856MOL0     H15509   5.621   5.015   7.821 -0.7622 -0.8506 -1.8387
  856MOL0     H15510   5.672   5.175   7.855 -1.5813  0.6424  1.8337
  856MOL0     H15511   5.560   5.307   8.035  0.4513  0.6988  0.5926
  856MOL0     H15512   5.346   5.373   8.222 -0.6329  0.0928  2.6505
  856MOL0     H15513   5.215   5.261   8.224 -0.4923  3.5130 -3.0616
  856MOL0     H15514   5.421   5.098   8.318 -3.6708 -0.2843  1.1377
  856MOL0     H15515   5.504   5.246   8.347  0.9174 -2.3841  0.5114
  856MOL0     H15516   5.431   5.199   8.542 -0.0311  1.2611  0.5942
  856MOL0     H15517   5.272   5.122   8.495  1.1085 -1.4421 -1.8077
  856MOL0     H15518   5.193   5.356   8.463 -0.1879 -1.9970  0.4440
  856MOL0     H15519   5.351   5.416   8.479  0.9083 -0.5842  1.8600
  856MOL0     H15520   5.199   5.589   8.570 -3.9974  0.8691 -1.1608
  856MOL0     H15521   5.043   5.733   8.682  0.7145  1.4545  3.2427
  856MOL0     H15522   4.682   5.947   8.796 -1.4237  0.7914  0.3168
  856MOL0     H15523   4.539   6.106   8.933  0.3916  0.6933 -1.7513
  856MOL0     H15524   4.467   6.306   9.239 -0.2692  0.0691  0.2705
  856MOL0     H15525   4.454   6.243   9.067 -2.1811  0.7329  0.6430
  856MOL0     H15526   4.293   6.138   9.222  0.4873  0.2638  3.4999
  856MOL0     H15527   4.400   6.028   9.139 -1.1067 -0.5009 -0.0202
  856MOL0     H15528   4.376   5.972   9.390  0.4499 -0.7477  0.4830
  856MOL0     H15529   4.536   6.023   9.365 -0.2954 -0.2906  0.9311
  856MOL0     H15530   4.332   6.211   9.476 -0.7881 -0.2578  2.3988
  856MOL0     H15531   4.497   6.260   9.436  0.1246  1.4691  1.7179
  856MOL0     H15532   4.401   6.062   9.647 -0.6518  0.1883  2.0914
  856MOL0     H15533   4.450   6.232   9.676 -0.8446 -0.2194 -0.0085
  856MOL0     H15534   4.634   6.102   9.751 -2.6291 -1.3863  0.3018
  856MOL0     H15535   4.626   6.001   9.605 -0.6793 -0.3879  0.2035
  856MOL0     H15536   4.697   6.288   9.611 -0.8875 -1.3886  4.2101
  856MOL0     H15537   4.722   6.178   9.462  3.1614 -2.9727 -1.3314
  856MOL0     H15538   4.943   6.213   9.549 -0.3484 -1.6193 -3.4884
  856MOL0     H15539   4.899   6.166   9.707  0.2543 -0.3426  0.0806
  856MOL0     H15540   4.832   6.072   9.243 -1.5522 -0.3981  1.2414
  856MOL0     H15541   4.983   5.927   9.096 -0.1786 -1.3233  0.4091
  856MOL0     H15542   4.986   5.452   9.003 -0.3713  0.6894  0.5623
  856MOL0     H15543   5.141   5.296   8.887  1.5801  0.5464 -0.4335
  856MOL0     H15544   5.960   5.266   6.883 -2.5820 -1.2769  0.4866
  856MOL0     H15545   5.872   5.386   6.698  1.4646  0.9490  0.0039
  856MOL0     H15546   5.634   5.780   6.621  1.4549  1.7206  0.4151
  856MOL0     H15547   5.521   5.894   6.441  0.9486 -0.4579  3.8103
  856MOL0     H15548   5.496   5.898   6.046 -1.0037 -2.9393  0.6403
  856MOL0     H15549   5.634   5.796   6.082  1.8547 -0.1911 -1.5742
  856MOL0     H15550   5.642   5.904   5.877 -1.4715 -3.1453  1.7358
  856MOL0     H15551   5.792   5.929   5.980 -1.2068 -1.2626  0.3727
  856MOL0     H15552   5.719   6.156   6.034 -1.9287 -0.9370  1.6085
  856MOL0     H15553   5.568   6.140   5.982 -0.1741 -0.5760 -0.3370
  856MOL0     H15554   5.636   6.140   5.721  0.1406 -2.6695  0.9237
  856MOL0     H15555   5.669   6.267   5.819  0.3655 -0.1075 -1.5392
  856MOL0     H15556   6.073   6.184   5.768 -0.7266  2.1537  1.7613
  856MOL0     H15557   5.882   5.913   6.203  1.6671  0.5332  0.5517
  856MOL0     H15558   6.105   5.870   6.412  0.8001 -1.5814  1.2075
  856MOL0     H15559   6.074   5.694   6.431  4.1157  0.0480 -1.3759
  856MOL0     H15560   6.062   5.775   6.270 -0.6653  2.0153 -0.9398
  857MOL0     O15561   9.965   8.605   8.417 -0.1972  0.2682  0.1265
  857MOL0     C15562   9.897   8.700   8.459 -0.8415 -0.3640  0.1268
  857MOL0     O15563   9.952   8.815   8.507  0.1864 -1.3644  0.0261
  857MOL0     C15564  10.084   8.830   8.518 -0.4240 -0.0975  0.1910
  857MOL0     C15565  10.169   8.738   8.587  0.2812 -0.5430 -0.4092
  857MOL0     C15566  10.304   8.784   8.615 -0.0267 -0.6546 -0.4506
  857MOL0     C15567  10.352   8.905   8.566 -0.7877 -1.3368 -0.5984
  857MOL0     O15568  10.487   8.925   8.598  0.2046 -0.0201 -0.0899
  857MOL0     C15569  10.512   9.069   8.623 -0.2767  0.1998 -0.0502
  857MOL0     C15570  10.633   9.109   8.715 -0.4121  0.7387  0.0196
  857MOL0     C15571  10.762   9.117   8.635 -0.3465 -0.3051  1.2860
  857MOL0     C15572  10.777   9.231   8.530  0.3232 -1.3463  0.4151
  857MOL0     C15573  10.904   9.219   8.441 -1.0530 -0.0066 -0.1235
  857MOL0     C15574  11.028   9.229   8.536  0.4877 -0.1762  0.3592
  857MOL0     C15575  11.160   9.263   8.459 -1.0454 -0.4566 -0.0182
  857MOL0     C15576  11.281   9.183   8.492  0.3095 -0.5352  0.7401
  857MOL0     N15577  11.278   9.043   8.432 -0.4931 -0.0962  0.0640
  857MOL0     C15578  11.199   8.932   8.457  0.0538 -0.3595 -0.3696
  857MOL0     C15579  11.230   8.841   8.358 -0.4376  0.3225  0.4260
  857MOL0     C15580  11.155   8.713   8.341 -0.2574  0.3407 -0.2571
  857MOL0     C15581  11.179   8.648   8.204  0.5550  0.5742 -0.9448
  857MOL0     C15582  11.086   8.527   8.194 -0.8120  0.4569  0.7331
  857MOL0     C15583  10.975   8.545   8.078  0.6757 -0.3528 -0.0613
  857MOL0     O15584  10.851   8.617   8.121 -0.2099  0.7688 -0.2512
  857MOL0     C15585  10.751   8.539   8.172  1.0853 -0.3331 -0.1321
  857MOL0     C15586  10.654   8.488   8.077 -0.5453 -0.6897 -0.9484
  857MOL0     C15587  10.529   8.451   8.130  0.1543 -0.0785  0.6525
  857MOL0     C15588  10.505   8.477   8.268 -0.3324  0.3400  0.3167
  857MOL0     C15589  10.363   8.450   8.319 -0.1049  1.1949 -1.0753
  857MOL0     O15590  10.353   8.436   8.454  0.5691  0.4096 -0.4459
  857MOL0     C15591  10.251   8.385   8.534  0.1861  0.2075  0.0235
  857MOL0     C15592  10.250   8.408   8.675  0.2694  0.4511  0.1512
  857MOL0     C15593  10.137   8.370   8.757 -0.1772 -0.2291  0.4914
  857MOL0     C15594  10.027   8.309   8.700  0.2941  0.7484  0.5603
  857MOL0     O15595   9.920   8.271   8.786 -0.0643  0.1387  0.4305
  857MOL0     C15596   9.849   8.151   8.748 -0.4709  0.2628  0.8209
  857MOL0     C15597   9.749   8.116   8.853  0.6676  0.5012 -0.5601
  857MOL0     C15598   9.607   8.148   8.824  1.0475  0.4205 -0.1943
  857MOL0     C15599   9.499   8.120   8.936  0.6390 -0.1988  0.2607
  857MOL0     C15600   9.360   8.166   8.903  0.1194  0.1678 -0.2918
  857MOL0     C15601   9.274   8.123   8.784  1.2345  0.0795  0.4381
  857MOL0     C15602   9.132   8.185   8.811  0.5163 -0.4437 -0.1264
  857MOL0     C15603   9.049   8.119   8.922  1.2602 -0.9329  0.6693
  857MOL0    Cl15604   8.892   8.209   8.949  0.3577  0.6494 -0.0418
  857MOL0     C15605  10.025   8.281   8.559 -0.6069  0.2716  0.6969
  857MOL0     C15606  10.138   8.325   8.480  1.0313  0.6102  0.5045
  857MOL0     O15607  10.268   8.429   8.239 -0.4166 -1.6885  1.0439
  857MOL0     C15608  10.599   8.536   8.354 -0.4598 -0.1243 -0.6578
  857MOL0     C15609  10.722   8.557   8.308 -0.4596 -0.4191 -0.3574
  857MOL0     N15610  11.331   8.892   8.281  0.0534  0.5939 -0.6466
  857MOL0     N15611  11.352   9.015   8.321  0.3471  0.6855  0.0823
  857MOL0     C15612  10.267   8.987   8.499 -0.1826 -0.2568  0.6798
  857MOL0     C15613  10.132   8.956   8.469 -0.0186  0.2256 -0.9680
  857MOL0     C15614   9.752   8.700   8.468  0.0871  0.5392 -0.2482
  857MOL0     C15615   9.675   8.818   8.478 -0.0864 -0.2759  0.7437
  857MOL0     C15616   9.540   8.819   8.489  0.1593  0.2314  0.2455
  857MOL0     C15617   9.480   8.698   8.504  0.5559  0.8479  0.0338
  857MOL0     O15618   9.352   8.689   8.521  0.1178 -0.2309 -0.2772
  857MOL0     C15619   9.282   8.666   8.400 -0.0027 -0.2836  0.8214
  857MOL0     C15620   9.137   8.683   8.434  0.0953 -0.2921  0.5652
  857MOL0     C15621   9.068   8.538   8.431 -0.3518 -1.1963  0.7615
  857MOL0     C15622   8.927   8.531   8.494  0.5912  0.7300 -0.0589
  857MOL0     C15623   8.832   8.629   8.446 -0.2245  0.5452 -1.1261
  857MOL0     C15624   8.758   8.710   8.404 -1.2312 -0.8101  0.3670
  857MOL0     C15625   9.549   8.584   8.506 -0.1771 -0.2244  0.0032
  857MOL0     C15626   9.683   8.580   8.480 -1.0093  0.0301 -0.5001
  857MOL0     C15627   9.753   8.449   8.511  0.7307  0.3591  0.2273
  857MOL0     H15628  10.144   8.639   8.624 -2.8705  0.7540  1.3194
  857MOL0     H15629  10.371   8.711   8.659 -0.9356 -1.4829 -0.4140
  857MOL0     H15630  10.520   9.116   8.524 -1.0818  0.3136 -0.0637
  857MOL0     H15631  10.424   9.111   8.671 -0.5889  0.4701 -0.8526
  857MOL0     H15632  10.642   9.042   8.802 -1.9806 -0.8852 -0.9877
  857MOL0     H15633  10.626   9.211   8.753 -2.4657  1.0047 -0.9553
  857MOL0     H15634  10.764   9.025   8.575 -1.8839  1.9655 -2.6321
  857MOL0     H15635  10.844   9.115   8.708 -1.9436 -0.2935  3.1574
  857MOL0     H15636  10.688   9.243   8.467  0.2200  2.3665  1.0323
  857MOL0     H15637  10.773   9.316   8.599 -1.2678 -1.3185  0.3312
  857MOL0     H15638  10.894   9.125   8.385  0.1428 -0.0062 -0.3600
  857MOL0     H15639  10.932   9.299   8.373  0.0261 -0.6400 -0.4461
  857MOL0     H15640  11.007   9.308   8.609 -2.4648 -0.2943 -0.2254
  857MOL0     H15641  11.034   9.137   8.594 -1.6612  1.3148  3.1850
  857MOL0     H15642  11.188   9.368   8.475 -0.0270 -0.6351 -0.5124
  857MOL0     H15643  11.128   9.260   8.355  0.0095  0.8678 -0.4165
  857MOL0     H15644  11.365   9.240   8.452 -0.5311 -0.5646 -1.1778
  857MOL0     H15645  11.296   9.181   8.601 -1.2492  1.6741  1.0593
  857MOL0     H15646  11.123   8.910   8.531 -0.5232 -1.1220 -1.1706
  857MOL0     H15647  11.181   8.639   8.417 -0.4937 -0.3685 -0.8497
  857MOL0     H15648  11.049   8.738   8.353 -0.4197  0.0748 -1.0933
  857MOL0     H15649  11.172   8.726   8.128 -1.0469  3.3542  1.8293
  857MOL0     H15650  11.281   8.609   8.211  0.4821  0.6748  1.5881
  857MOL0     H15651  11.039   8.502   8.290  0.9991 -0.2315  1.4751
  857MOL0     H15652  11.151   8.445   8.164 -0.0989  1.2696  0.0059
  857MOL0     H15653  10.945   8.447   8.040 -0.4666  0.0745 -0.2866
  857MOL0     H15654  11.016   8.598   7.992 -1.3050  1.0230 -0.2238
  857MOL0     H15655  10.682   8.479   7.973 -0.4001  3.1397 -1.3841
  857MOL0     H15656  10.452   8.413   8.064 -0.7868  0.5834  1.3326
  857MOL0     H15657  10.321   8.467   8.733 -0.0684 -1.0127  2.2008
  857MOL0     H15658  10.144   8.408   8.859 -0.3434  0.8792  0.1005
  857MOL0     H15659   9.802   8.155   8.649 -1.0244 -0.3059  1.0524
  857MOL0     H15660   9.928   8.076   8.745  0.1058  0.8818 -0.6528
  857MOL0     H15661   9.759   8.008   8.868  2.2303  0.8679  1.4003
  857MOL0     H15662   9.775   8.161   8.949  0.8752 -0.0631 -0.3463
  857MOL0     H15663   9.586   8.251   8.796  1.8057  0.8967  0.9104
  857MOL0     H15664   9.582   8.098   8.730  0.1116 -0.4506  0.4917
  857MOL0     H15665   9.529   8.167   9.030  0.9441 -0.6652  0.4011
  857MOL0     H15666   9.482   8.013   8.955 -0.5547  0.3623  2.7488
  857MOL0     H15667   9.365   8.275   8.910  0.8701  0.0350  2.1249
  857MOL0     H15668   9.310   8.140   8.996  1.4295 -3.9210 -0.5207
  857MOL0     H15669   9.325   8.154   8.692  0.7162  0.7005  0.3566
  857MOL0     H15670   9.278   8.013   8.781 -0.6183  0.0091 -0.9979
  857MOL0     H15671   9.082   8.198   8.715  1.3009  1.0055 -0.3657
  857MOL0     H15672   9.152   8.285   8.849  1.3848 -0.3622 -0.7839
  857MOL0     H15673   9.040   8.012   8.901 -0.5554 -0.6744 -0.0356
  857MOL0     H15674   9.100   8.126   9.018 -3.7778  1.7856  3.5870
  857MOL0     H15675   9.942   8.233   8.507  0.8190 -0.5454 -0.9241
  857MOL0     H15676  10.133   8.316   8.372 -0.9297  2.0961  0.4278
  857MOL0     H15677  10.580   8.578   8.452  1.4669  0.0570 -0.3066
  857MOL0     H15678  10.808   8.604   8.355 -0.0237  0.2562 -1.7688
  857MOL0     H15679  10.302   9.082   8.461  0.0747 -0.3756  0.6169
  857MOL0     H15680  10.054   9.020   8.430 -0.4555 -0.3035 -0.9773
  857MOL0     H15681   9.728   8.911   8.463  1.7660 -1.1077  1.6956
  857MOL0     H15682   9.485   8.913   8.488  2.2123  1.5601  2.5444
  857MOL0     H15683   9.302   8.564   8.364 -1.0804 -0.3036  0.2477
  857MOL0     H15684   9.304   8.743   8.326  1.5334  0.4683  2.0004
  857MOL0     H15685   9.090   8.751   8.362 -0.8626 -2.4414 -0.9603
  857MOL0     H15686   9.119   8.728   8.532  2.6430  0.1817  0.8828
  857MOL0     H15687   9.135   8.471   8.485 -0.8858 -2.8592 -0.5508
  857MOL0     H15688   9.059   8.504   8.327  1.0518  0.6328 -0.0186
  857MOL0     H15689   8.874   8.437   8.474  0.3262  0.3714  2.0588
  857MOL0     H15690   8.944   8.525   8.602  1.8931 -1.5731 -0.3357
  857MOL0     H15691   8.689   8.779   8.360 -2.6779 -1.8718  0.8943
  857MOL0     H15692   9.492   8.496   8.533  0.8234 -0.6993  0.6468
  857MOL0     H15693   9.795   8.458   8.611  0.7681 -1.6804  0.4466
  857MOL0     H15694   9.696   8.356   8.518  5.0943 -2.5185  1.7603
  857MOL0     H15695   9.834   8.422   8.443  2.1577 -1.5408  2.5406
  858MOL0     O15696  11.125   4.164   2.418  0.0773  0.2665 -0.2951
  858MOL0     C15697  11.033   4.224   2.475  0.1161  0.1832 -0.0332
  858MOL0     O15698  10.949   4.176   2.565  0.3076 -0.2010 -0.2701
  858MOL0     C15699  10.956   4.047   2.613  0.1436 -0.5662  0.2895
  858MOL0     C15700  10.890   4.025   2.735 -0.0180  0.5204 -0.5129
  858MOL0     C15701  10.896   3.896   2.798 -0.2728  0.2273  0.1698
  858MOL0     C15702  10.956   3.785   2.746  0.6744  0.1207  0.4381
  858MOL0     O15703  10.950   3.663   2.803 -0.4598 -0.3568  0.7871
  858MOL0     C15704  11.033   3.553   2.758 -0.1881 -0.7411  0.2444
  858MOL0     C15705  11.019   3.441   2.864  0.3845 -0.4508  0.0858
  858MOL0     C15706  11.100   3.455   2.987 -0.7250  0.1339  0.8975
  858MOL0     C15707  11.100   3.331   3.079 -0.0346 -0.2861  0.5366
  858MOL0     C15708  11.218   3.349   3.164  0.0426  0.4596 -0.4851
  858MOL0     C15709  11.242   3.213   3.242  0.2889  0.1710  0.1548
  858MOL0     C15710  11.374   3.224   3.318  1.0277  0.3229  0.9624
  858MOL0     C15711  11.378   3.354   3.407 -0.8198  0.7006 -0.0492
  858MOL0     N15712  11.300   3.341   3.535 -0.2636 -0.4422  0.9241
  858MOL0     C15713  11.218   3.437   3.584  0.2255  0.9281 -0.7456
  858MOL0     C15714  11.193   3.395   3.714 -0.6029 -0.5396 -0.2546
  858MOL0     C15715  11.101   3.482   3.814 -0.4764 -0.1337 -0.3376
  858MOL0     C15716  10.996   3.390   3.880 -0.2437  0.5283  0.5496
  858MOL0     C15717  10.868   3.454   3.933 -0.9093  0.7035  0.0532
  858MOL0     C15718  10.888   3.543   4.059  0.1909  0.1370  0.0094
  858MOL0     O15719  10.771   3.610   4.106  0.7754  0.4753  0.6032
  858MOL0     C15720  10.704   3.704   4.030  1.0420 -0.5888 -0.0545
  858MOL0     C15721  10.757   3.775   3.918 -0.1088 -0.4927 -0.4377
  858MOL0     C15722  10.693   3.883   3.858 -0.0586 -0.7588  0.3504
  858MOL0     C15723  10.555   3.914   3.884 -0.8363  0.5729 -0.6974
  858MOL0     C15724  10.480   4.011   3.807 -0.2637  1.0096  0.6998
  858MOL0     O15725  10.541   4.076   3.706 -0.0844  0.0668  0.6663
  858MOL0     C15726  10.487   4.196   3.665  0.1232 -0.4218 -1.5390
  858MOL0     C15727  10.481   4.229   3.528  0.4390  0.1989 -0.1348
  858MOL0     C15728  10.431   4.349   3.499  0.0631 -0.6570 -0.8201
  858MOL0     C15729  10.385   4.446   3.588  0.1015 -0.5733  0.2740
  858MOL0     O15730  10.334   4.569   3.545  0.2785  0.5694 -0.1823
  858MOL0     C15731  10.351   4.597   3.407 -0.8904  0.4528 -0.4633
  858MOL0     C15732  10.316   4.745   3.385  1.0576 -0.0065  0.2230
  858MOL0     C15733  10.316   4.803   3.241 -0.5389 -0.4104 -0.5429
  858MOL0     C15734  10.176   4.816   3.183  0.0821  0.7364  0.5390
  858MOL0     C15735  10.172   4.826   3.027  0.6262 -0.2953  0.1430
  858MOL0     C15736  10.213   4.969   2.985  0.1876 -0.0288 -0.4326
  858MOL0     C15737  10.234   4.979   2.827 -0.1048  1.5551  0.4123
  858MOL0     C15738  10.235   5.120   2.770  0.7718 -0.4952  0.0421
  858MOL0    Cl15739  10.397   5.205   2.819  0.1410 -0.2203  0.1444
  858MOL0     C15740  10.406   4.426   3.721  0.5521 -0.2203 -0.1314
  858MOL0     C15741  10.441   4.298   3.759  0.6268 -0.0323 -0.2557
  858MOL0     O15742  10.357   4.017   3.830 -0.3158  0.1985 -0.2023
  858MOL0     C15743  10.498   3.832   3.981  0.1137 -0.2747  0.2467
  858MOL0     C15744  10.570   3.738   4.054  0.2076 -0.4404  0.3044
  858MOL0     N15745  11.259   3.271   3.737  0.5514  0.1527  0.4032
  858MOL0     N15746  11.317   3.238   3.629 -0.0979 -0.0640 -0.3556
  858MOL0     C15747  11.023   3.811   2.620 -0.5194 -0.1178  0.0488
  858MOL0     C15748  11.019   3.937   2.549 -0.5984 -0.7647 -0.9469
  858MOL0     C15749  11.002   4.349   2.416 -0.3070  0.3349  0.2032
  858MOL0     C15750  10.928   4.435   2.491  0.5023  0.0776 -0.1504
  858MOL0     C15751  10.901   4.570   2.460 -0.4882  0.5679 -1.3787
  858MOL0     C15752  10.944   4.616   2.340 -0.0446 -0.1081 -0.1637
  858MOL0     O15753  10.923   4.754   2.317 -0.2074  0.3388  0.4808
  858MOL0     C15754  11.001   4.823   2.226 -0.1837  0.4990 -0.5046
  858MOL0     C15755  10.974   4.981   2.226  0.4503 -0.2485 -0.3080
  858MOL0     C15756  11.102   5.046   2.173  0.8675 -0.3585 -0.0389
  858MOL0     C15757  11.227   5.038   2.258 -0.2792  0.4960  0.2222
  858MOL0     C15758  11.315   4.936   2.215 -0.4744  0.2215  0.1511
  858MOL0     C15759  11.401   4.854   2.176  0.6110 -1.3151 -0.1086
  858MOL0     C15760  10.996   4.533   2.245 -0.2922 -0.1390 -0.1841
  858MOL0     C15761  11.049   4.403   2.287  0.8762 -0.3386 -0.2715
  858MOL0     C15762  11.102   4.314   2.175 -1.3284 -0.1951 -0.9319
  858MOL0     H15763  10.827   4.103   2.777 -0.2001  0.9325 -1.5201
  858MOL0     H15764  10.843   3.867   2.888 -0.2150 -1.5544 -0.3270
  858MOL0     H15765  10.995   3.516   2.662 -2.1408 -2.5743  1.6296
  858MOL0     H15766  11.136   3.589   2.760 -0.3829 -0.1486  2.2084
  858MOL0     H15767  11.030   3.342   2.820 -3.2553 -0.6478 -0.6459
  858MOL0     H15768  10.915   3.446   2.899  0.0899  1.6345 -0.9229
  858MOL0     H15769  11.081   3.546   3.046 -1.3267  1.0480 -0.6323
  858MOL0     H15770  11.201   3.465   2.947  2.0633 -2.0086  6.3667
  858MOL0     H15771  11.009   3.321   3.138  0.5827 -3.3958  1.1268
  858MOL0     H15772  11.098   3.241   3.017 -3.4433 -0.1062  0.2034
  858MOL0     H15773  11.310   3.375   3.112  2.1127 -2.9095  1.1732
  858MOL0     H15774  11.198   3.436   3.228  0.9013  0.6009 -0.3950
  858MOL0     H15775  11.164   3.199   3.318  1.7818  2.7725  2.3701
  858MOL0     H15776  11.228   3.125   3.179 -4.5763 -0.0374  1.1676
  858MOL0     H15777  11.456   3.217   3.246  1.6512 -0.7417  1.7400
  858MOL0     H15778  11.382   3.139   3.386  1.0755 -0.7067 -0.3084
  858MOL0     H15779  11.486   3.355   3.425 -0.9557 -3.5295  2.4256
  858MOL0     H15780  11.354   3.441   3.346  1.0874  0.5745 -1.0797
  858MOL0     H15781  11.173   3.522   3.534 -1.6869 -1.2072 -2.8838
  858MOL0     H15782  11.149   3.530   3.899  0.6888 -0.4067 -0.8215
  858MOL0     H15783  11.051   3.564   3.761  2.7223  1.2614 -1.4891
  858MOL0     H15784  10.975   3.311   3.807 -2.3902 -1.6161  3.2996
  858MOL0     H15785  11.045   3.344   3.966 -1.5895  1.9676  2.1431
  858MOL0     H15786  10.805   3.371   3.964 -2.1688  1.1428 -1.2392
  858MOL0     H15787  10.822   3.520   3.860 -0.3941 -0.0000 -0.9289
  858MOL0     H15788  10.961   3.623   4.038  0.7782 -0.5939 -0.7722
  858MOL0     H15789  10.942   3.483   4.133  1.3542 -0.0329 -0.9392
  858MOL0     H15790  10.861   3.767   3.888  0.4528  3.1181  0.1749
  858MOL0     H15791  10.747   3.922   3.772 -0.4574 -3.4917 -1.2349
  858MOL0     H15792  10.504   4.163   3.445 -0.7190 -1.3198  0.7020
  858MOL0     H15793  10.421   4.357   3.392  0.9499  3.0015 -0.7585
  858MOL0     H15794  10.451   4.582   3.367 -0.2733  1.0981  0.7984
  858MOL0     H15795  10.271   4.544   3.353 -1.7009  0.8722  0.2921
  858MOL0     H15796  10.217   4.760   3.428  1.5198 -2.0413  2.2180
  858MOL0     H15797  10.372   4.813   3.450 -1.1011  1.1749  0.9321
  858MOL0     H15798  10.360   4.903   3.236 -1.9900  0.4222  1.6916
  858MOL0     H15799  10.369   4.731   3.178  1.5361  0.8776 -0.3583
  858MOL0     H15800  10.136   4.910   3.221 -2.2727 -0.1129  0.3342
  858MOL0     H15801  10.118   4.734   3.228 -1.6304  1.2761 -0.5796
  858MOL0     H15802  10.067   4.815   2.998  0.8168  0.3918 -0.8362
  858MOL0     H15803  10.235   4.745   2.990 -2.1426 -2.3706 -0.3931
  858MOL0     H15804  10.153   5.054   3.019  3.9671  3.7091 -2.1858
  858MOL0     H15805  10.312   4.979   3.030  0.5912  0.6487 -1.4181
  858MOL0     H15806  10.143   4.930   2.790 -1.1471  1.8704  2.4219
  858MOL0     H15807  10.322   4.920   2.798 -0.2041  0.5768  1.9598
  858MOL0     H15808  10.226   5.115   2.661  4.5317  2.5427 -0.6277
  858MOL0     H15809  10.142   5.173   2.793  0.4199 -0.3053 -1.7051
  858MOL0     H15810  10.361   4.504   3.782 -1.6110  0.3164 -2.2711
  858MOL0     H15811  10.448   4.297   3.868 -0.4648  2.3604 -0.0999
  858MOL0     H15812  10.396   3.850   4.011  0.2873  1.3836 -0.0250
  858MOL0     H15813  10.519   3.694   4.138  0.8829 -2.2607 -0.1812
  858MOL0     H15814  11.073   3.730   2.568 -0.4793  0.5450 -0.9751
  858MOL0     H15815  11.067   3.941   2.452 -0.6018 -1.4822 -0.9835
  858MOL0     H15816  10.894   4.407   2.590 -1.3073  0.1440 -0.7153
  858MOL0     H15817  10.850   4.638   2.528 -2.9849 -1.4700 -1.0652
  858MOL0     H15818  10.979   4.783   2.126 -0.0774  1.2600 -0.8359
  858MOL0     H15819  11.109   4.804   2.231 -0.0018  1.8059  1.6697
  858MOL0     H15820  10.952   5.004   2.331  0.4198 -4.5862  0.8437
  858MOL0     H15821  10.885   5.003   2.166 -1.0689  0.2690  1.9774
  858MOL0     H15822  11.072   5.150   2.158 -2.7265 -1.2057  0.2678
  858MOL0     H15823  11.120   5.001   2.074 -1.2831  0.3328 -0.7980
  858MOL0     H15824  11.286   5.130   2.251  0.7475 -0.0080  1.6517
  858MOL0     H15825  11.202   5.029   2.364  1.5251  1.4680  0.7884
  858MOL0     H15826  11.472   4.779   2.145  0.3183 -2.1108  1.0468
  858MOL0     H15827  11.011   4.570   2.144  2.7587  2.2451  0.9442
  858MOL0     H15828  11.077   4.362   2.079 -2.5714  0.4686 -0.2974
  858MOL0     H15829  11.208   4.294   2.195 -1.5982 -0.5693  0.1968
  858MOL0     H15830  11.054   4.216   2.170 -0.9786 -0.3804 -0.6820
  859MOL0     O15831   4.892   6.033  11.343  0.4739  0.5586  0.3027
  859MOL0     C15832   4.853   6.147  11.336  1.4840 -0.1449  0.6420
  859MOL0     O15833   4.767   6.193  11.232  0.4663 -0.0205  0.0299
  859MOL0     C15834   4.699   6.105  11.151  0.4753 -0.0049 -0.3828
  859MOL0     C15835   4.711   6.121  11.016  0.5459 -0.1192 -0.3203
  859MOL0     C15836   4.667   6.022  10.927  0.5561 -0.0519 -0.6541
  859MOL0     C15837   4.608   5.907  10.974  0.6401 -0.3541 -0.4616
  859MOL0     O15838   4.582   5.809  10.876  0.5530 -0.2390 -0.2358
  859MOL0     C15839   4.605   5.672  10.909  0.5448 -0.2613 -0.5689
  859MOL0     C15840   4.609   5.608  10.773 -0.2422 -0.4456  0.1132
  859MOL0     C15841   4.650   5.463  10.792 -0.4109 -0.5241 -0.6191
  859MOL0     C15842   4.668   5.404  10.650  0.3160  0.0896  0.6134
  859MOL0     C15843   4.540   5.320  10.609  0.7250  0.4547 -1.2718
  859MOL0     C15844   4.556   5.263  10.471  0.4208  0.2564  0.5467
  859MOL0     C15845   4.436   5.171  10.432 -0.3716 -0.7179 -1.2354
  859MOL0     C15846   4.452   5.121  10.287  0.9412  0.8440  0.0773
  859MOL0     N15847   4.362   5.010  10.250  0.6225 -0.1704  0.0784
  859MOL0     C15848   4.232   5.027  10.217  0.1020  0.3848 -0.0303
  859MOL0     C15849   4.183   4.905  10.209  0.3793 -0.3668  0.0604
  859MOL0     C15850   4.041   4.871  10.160 -0.5011  0.4509  0.0567
  859MOL0     C15851   4.012   4.897  10.005 -0.2169 -0.2192  0.2168
  859MOL0     C15852   3.877   4.830   9.983 -0.1511 -0.2845  0.2849
  859MOL0     C15853   3.853   4.805   9.826 -0.6966  1.1735 -0.3991
  859MOL0     O15854   3.725   4.734   9.824 -0.6466 -0.3594 -0.1577
  859MOL0     C15855   3.660   4.747   9.705  0.4702  0.2717  0.6977
  859MOL0     C15856   3.719   4.777   9.579  0.2377 -0.7901 -0.3955
  859MOL0     C15857   3.655   4.776   9.458  1.1137  0.2102 -0.0446
  859MOL0     C15858   3.512   4.758   9.455 -0.2312  0.1150 -0.6708
  859MOL0     C15859   3.433   4.761   9.339  0.1797 -0.0087 -0.5506
  859MOL0     O15860   3.312   4.692   9.351 -0.3613  0.6126  0.7961
  859MOL0     C15861   3.214   4.716   9.261  0.1950  0.4692  0.0500
  859MOL0     C15862   3.105   4.631   9.271  0.0293 -0.9798 -0.4014
  859MOL0     C15863   2.999   4.632   9.183  0.2321  0.9003 -0.1913
  859MOL0     C15864   2.980   4.731   9.085 -0.3784  0.3936  0.2645
  859MOL0     O15865   2.871   4.715   9.002  0.6005  0.3816  0.1822
  859MOL0     C15866   2.859   4.809   8.904  0.0056  0.4653 -0.2805
  859MOL0     C15867   2.724   4.792   8.838  0.2100  0.4357  0.1433
  859MOL0     C15868   2.709   4.656   8.763 -0.2885 -0.5224  0.0466
  859MOL0     C15869   2.773   4.657   8.619  0.0050 -0.5503 -1.2776
  859MOL0     C15870   2.788   4.526   8.562 -0.3367 -0.5932 -0.0955
  859MOL0     C15871   2.881   4.428   8.632  0.2213 -0.8176  0.6998
  859MOL0     C15872   2.834   4.290   8.606  0.2939 -0.3740 -0.1967
  859MOL0     C15873   2.708   4.267   8.695  0.3502 -0.2907  0.7490
  859MOL0    Cl15874   2.660   4.096   8.648 -0.2276 -0.5573  0.1402
  859MOL0     C15875   3.083   4.820   9.070 -0.7931 -0.4077 -0.5064
  859MOL0     C15876   3.193   4.814   9.162 -0.2971 -0.3115 -0.1902
  859MOL0     O15877   3.480   4.819   9.246 -0.2256  0.3560  0.7310
  859MOL0     C15878   3.447   4.720   9.586 -1.1372 -0.3017 -0.8552
  859MOL0     C15879   3.523   4.710   9.696  0.0402  0.2777  0.4570
  859MOL0     N15880   4.286   4.814  10.228 -0.0305  0.5381 -1.2641
  859MOL0     N15881   4.391   4.881  10.268  1.1468  0.1814  0.4876
  859MOL0     C15882   4.594   5.894  11.113  0.2211 -0.3111 -0.6773
  859MOL0     C15883   4.632   5.992  11.196  0.1219  0.2749 -0.2306
  859MOL0     C15884   4.893   6.253  11.433 -0.6499 -0.0849  0.0066
  859MOL0     C15885   4.854   6.391  11.431  0.0500  1.1956  0.1184
  859MOL0     C15886   4.899   6.484  11.524 -0.1343  0.1156  1.4906
  859MOL0     C15887   4.987   6.446  11.629  0.2716  0.2309 -0.5816
  859MOL0     O15888   5.050   6.541  11.712  0.7664  0.4578  0.3260
  859MOL0     C15889   5.191   6.540  11.681 -0.7045  1.0110  0.1726
  859MOL0     C15890   5.243   6.681  11.661 -0.0846 -0.2800  1.1537
  859MOL0     C15891   5.227   6.761  11.789 -0.0249 -1.7571 -1.2842
  859MOL0     C15892   5.227   6.916  11.779 -0.0847  0.0865 -0.0268
  859MOL0     C15893   5.363   6.963  11.755  0.2146  0.9081  1.0767
  859MOL0     C15894   5.479   6.989  11.743 -0.2410  0.0358  0.2638
  859MOL0     C15895   5.012   6.308  11.648  0.0036 -0.4059  0.3196
  859MOL0     C15896   4.971   6.220  11.552 -0.1304 -0.0945  0.3388
  859MOL0     C15897   5.024   6.077  11.582 -0.1189 -0.1171 -0.0225
  859MOL0     H15898   4.773   6.202  10.978  1.1472 -0.6823 -0.5439
  859MOL0     H15899   4.681   6.020  10.820 -3.1865 -2.7217 -1.3038
  859MOL0     H15900   4.692   5.654  10.972 -1.4020 -0.1776  2.3041
  859MOL0     H15901   4.523   5.626  10.965  2.6392 -0.7616  2.2704
  859MOL0     H15902   4.679   5.660  10.708 -1.4107 -1.1103 -1.7698
  859MOL0     H15903   4.507   5.618  10.735 -0.5448  1.1804  1.2784
  859MOL0     H15904   4.578   5.404  10.849  1.9235 -1.9532  1.0018
  859MOL0     H15905   4.744   5.457  10.847 -0.6198  0.1371 -0.1746
  859MOL0     H15906   4.694   5.487  10.583  1.2744  0.1741  1.0628
  859MOL0     H15907   4.757   5.340  10.654 -0.0873 -0.7585 -2.0711
  859MOL0     H15908   4.534   5.237  10.680 -0.1915  0.3081 -1.5083
  859MOL0     H15909   4.456   5.387  10.628  1.1923  0.2203  2.5819
  859MOL0     H15910   4.558   5.342  10.396 -2.5463 -1.1759 -1.1749
  859MOL0     H15911   4.647   5.202  10.475 -0.4101 -1.0477 -0.0023
  859MOL0     H15912   4.339   5.219  10.451 -0.0753 -0.9539  1.1346
  859MOL0     H15913   4.449   5.086  10.499 -1.0936  0.1250  0.0256
  859MOL0     H15914   4.430   5.206  10.222 -1.0831 -0.8748 -1.6486
  859MOL0     H15915   4.550   5.083  10.259 -0.3074  0.4963 -4.6655
  859MOL0     H15916   4.165   5.113  10.211 -1.4097 -0.8371 -1.4553
  859MOL0     H15917   4.039   4.762  10.168 -1.5332  0.0784 -3.6615
  859MOL0     H15918   3.965   4.922  10.220 -1.5740 -1.4102  0.3909
  859MOL0     H15919   4.003   5.005   9.992 -0.7161 -0.3405 -0.4935
  859MOL0     H15920   4.094   4.859   9.943  0.3009  4.1887 -2.1972
  859MOL0     H15921   3.794   4.891  10.019  0.1061 -0.0244  0.4492
  859MOL0     H15922   3.876   4.728  10.023  1.3853 -1.4694 -2.3704
  859MOL0     H15923   3.927   4.733   9.788 -0.0934  1.8257 -0.4733
  859MOL0     H15924   3.869   4.903   9.780  2.5868  1.3161  0.7565
  859MOL0     H15925   3.825   4.786   9.558  0.1989 -2.8579 -1.7568
  859MOL0     H15926   3.715   4.788   9.368  0.1665  0.1346 -0.6953
  859MOL0     H15927   3.092   4.571   9.361  0.9929 -0.5050  0.0609
  859MOL0     H15928   2.916   4.566   9.209 -0.3199  2.0740  1.1489
  859MOL0     H15929   2.865   4.908   8.950 -2.3674 -0.7918  3.1985
  859MOL0     H15930   2.936   4.801   8.828  0.0644  3.9530 -0.7685
  859MOL0     H15931   2.650   4.811   8.917 -0.3271  0.3685 -0.3386
  859MOL0     H15932   2.709   4.866   8.760  0.1124  0.8573  0.5582
  859MOL0     H15933   2.751   4.574   8.822  0.7839 -1.4340 -1.9172
  859MOL0     H15934   2.601   4.644   8.771 -0.1192 -1.2019  1.9050
  859MOL0     H15935   2.875   4.697   8.613  0.3477 -1.0180  0.7244
  859MOL0     H15936   2.712   4.717   8.551 -0.3193 -0.3077 -0.7783
  859MOL0     H15937   2.836   4.536   8.465  2.7254  1.2381  1.4492
  859MOL0     H15938   2.691   4.480   8.541  0.1390 -1.0274 -1.4007
  859MOL0     H15939   2.985   4.434   8.599  0.0940 -1.4438  0.1652
  859MOL0     H15940   2.897   4.441   8.740  1.7624 -2.7511  0.7594
  859MOL0     H15941   2.911   4.218   8.634  0.5312 -0.5518 -1.2682
  859MOL0     H15942   2.817   4.274   8.499  2.8878 -1.8839 -0.4879
  859MOL0     H15943   2.743   4.260   8.799  1.6737 -0.6618  0.2977
  859MOL0     H15944   2.624   4.335   8.678 -1.0726 -2.0687  0.3661
  859MOL0     H15945   3.074   4.888   8.986  2.7720 -0.0093 -0.7258
  859MOL0     H15946   3.268   4.890   9.144 -2.1073  1.3097 -1.3261
  859MOL0     H15947   3.340   4.710   9.603 -0.7183 -2.4598  0.9113
  859MOL0     H15948   3.486   4.680   9.794  2.4911 -1.8713  0.8337
  859MOL0     H15949   4.540   5.808  11.152 -1.7852 -0.7129 -3.9461
  859MOL0     H15950   4.613   5.976  11.301 -0.3178 -1.1617 -0.5123
  859MOL0     H15951   4.783   6.426  11.357  0.0146  0.9996  0.0584
  859MOL0     H15952   4.874   6.589  11.509 -0.7302 -0.3162 -1.0125
  859MOL0     H15953   5.213   6.469  11.601 -1.5292 -1.8122  2.2745
  859MOL0     H15954   5.253   6.493  11.759  1.0987 -1.5227 -2.5612
  859MOL0     H15955   5.183   6.739  11.590  0.0388 -0.2520  1.0708
  859MOL0     H15956   5.348   6.681  11.630 -0.1846  0.1779  0.8205
  859MOL0     H15957   5.299   6.736  11.867 -2.4268 -0.7766  1.4035
  859MOL0     H15958   5.132   6.740  11.839  0.2521 -0.6778 -0.2744
  859MOL0     H15959   5.168   6.946  11.691 -0.3482 -0.2875  0.0226
  859MOL0     H15960   5.198   6.972  11.868  3.0184  4.0849 -1.2213
  859MOL0     H15961   5.576   7.033  11.737 -0.1887 -0.1748 -0.5192
  859MOL0     H15962   5.065   6.283  11.739  0.6917 -1.6301 -0.3902
  859MOL0     H15963   4.944   6.004  11.599  1.3698 -1.0447  4.2026
  859MOL0     H15964   5.081   6.042  11.496  0.8490  0.1028  0.5083
  859MOL0     H15965   5.094   6.080  11.666  0.9249  0.9752 -0.9066
  860MOL0     O15966   8.528   5.363   8.465 -0.2919  0.4558  0.7112
  860MOL0     C15967   8.588   5.276   8.538  0.1172 -1.0740  0.9328
  860MOL0     O15968   8.719   5.293   8.575  0.2709  0.3207  0.2087
  860MOL0     C15969   8.781   5.407   8.538  0.5461 -0.8465 -0.2803
  860MOL0     C15970   8.878   5.409   8.438 -0.1214  0.4895  0.7834
  860MOL0     C15971   8.938   5.529   8.391 -0.3082  0.3012 -0.3834
  860MOL0     C15972   8.893   5.656   8.442  0.4661  1.6779 -0.6932
  860MOL0     O15973   8.947   5.774   8.412  0.3024  0.6942  0.2346
  860MOL0     C15974   9.030   5.778   8.299  0.2423 -0.8018 -0.2021
  860MOL0     C15975   9.051   5.936   8.256  0.0356 -0.2717 -0.5418
  860MOL0     C15976   8.926   6.008   8.219 -0.8296  0.3826 -0.5452
  860MOL0     C15977   8.823   5.931   8.126 -0.6541 -0.9093 -0.0363
  860MOL0     C15978   8.695   6.012   8.081 -0.5030 -1.2285  1.0934
  860MOL0     C15979   8.609   5.919   7.989  0.1186 -0.3212  0.1950
  860MOL0     C15980   8.478   5.989   7.945  0.1168 -0.2467 -0.1625
  860MOL0     C15981   8.363   5.888   7.893 -0.2705  0.2087 -0.2072
  860MOL0     N15982   8.241   5.975   7.878  0.2260 -0.6091 -0.2167
  860MOL0     C15983   8.127   5.967   7.971  0.8802 -0.6974  0.4281
  860MOL0     C15984   8.046   6.071   7.926  0.6328  0.1903 -0.7106
  860MOL0     C15985   7.915   6.111   7.989 -0.0427  0.5893 -0.4803
  860MOL0     C15986   7.902   6.258   7.989 -0.2608  0.6527  0.1364
  860MOL0     C15987   7.981   6.335   8.096  0.3265 -0.0657 -0.3978
  860MOL0     C15988   8.133   6.330   8.076  0.0281  0.3746  0.5455
  860MOL0     O15989   8.191   6.382   8.196  0.1391 -0.2018  0.0854
  860MOL0     C15990   8.330   6.405   8.189  0.0366 -0.2912 -0.2519
  860MOL0     C15991   8.372   6.492   8.289 -0.2812  0.4907 -0.6118
  860MOL0     C15992   8.503   6.528   8.299  0.6715  0.1309 -0.2003
  860MOL0     C15993   8.601   6.463   8.220  0.5549  0.1048  0.0144
  860MOL0     C15994   8.747   6.475   8.248 -0.3976 -0.7622  1.0081
  860MOL0     O15995   8.810   6.591   8.297  0.0423 -0.8609  0.6306
  860MOL0     C15996   8.949   6.591   8.340  0.1508 -0.0987  1.3910
  860MOL0     C15997   9.016   6.478   8.389 -1.5571 -0.1826 -0.5959
  860MOL0     C15998   9.138   6.491   8.462  1.0347  0.1860 -0.4034
  860MOL0     C15999   9.192   6.619   8.490 -0.5761  0.0951  0.0070
  860MOL0     O16000   9.313   6.620   8.558  0.4033 -0.2802 -0.7061
  860MOL0     C16001   9.395   6.737   8.552 -0.9739 -0.4168  0.4557
  860MOL0     C16002   9.529   6.680   8.549 -0.0845 -0.0920  0.4401
  860MOL0     C16003   9.631   6.791   8.580  1.4410  0.1793  0.6091
  860MOL0     C16004   9.619   6.899   8.469  0.3555  1.1143 -0.2360
  860MOL0     C16005   9.733   7.001   8.490 -0.1312  0.3836  0.0974
  860MOL0     C16006   9.853   6.960   8.415 -0.5081 -0.0560 -0.1462
  860MOL0     C16007   9.969   7.062   8.428 -0.1971 -0.1564 -0.4907
  860MOL0     C16008  10.026   7.114   8.296  1.1477  0.1786  0.1643
  860MOL0    Cl16009   9.913   7.184   8.179  0.1112 -0.3473 -0.5360
  860MOL0     C16010   9.128   6.731   8.434 -0.7880  0.8907  0.3055
  860MOL0     C16011   9.009   6.713   8.360 -0.5944 -0.0986  0.3722
  860MOL0     O16012   8.807   6.367   8.229 -0.0072 -0.8941  0.4196
  860MOL0     C16013   8.554   6.374   8.123 -0.1997 -0.2616  0.6010
  860MOL0     C16014   8.422   6.341   8.103 -0.5111 -0.5758 -1.2811
  860MOL0     N16015   8.105   6.132   7.820  0.0496  0.1172  0.8435
  860MOL0     N16016   8.223   6.082   7.800 -0.1326 -0.0291 -0.6336
  860MOL0     C16017   8.796   5.649   8.540 -0.5161  0.4946 -0.9603
  860MOL0     C16018   8.742   5.532   8.589 -0.1711  0.3886 -0.4051
  860MOL0     C16019   8.511   5.155   8.570 -0.7177  0.1475 -1.8082
  860MOL0     C16020   8.422   5.115   8.467 -0.2399 -1.0223 -0.3766
  860MOL0     C16021   8.344   4.997   8.468  0.4704 -0.9732  0.0963
  860MOL0     C16022   8.342   4.925   8.590 -0.1972 -0.2386 -0.5245
  860MOL0     O16023   8.244   4.841   8.630 -0.2584  0.3142 -0.3088
  860MOL0     C16024   8.170   4.772   8.526 -0.2157 -0.2541  0.7913
  860MOL0     C16025   8.032   4.820   8.499  0.3038  0.3579 -0.3021
  860MOL0     C16026   7.939   4.823   8.617  0.2995  0.5449 -0.4574
  860MOL0     C16027   7.801   4.887   8.577 -0.1306  0.1430  0.0072
  860MOL0     C16028   7.699   4.861   8.679  0.1653  0.3352  0.6301
  860MOL0     C16029   7.615   4.848   8.770 -0.0201  0.8588 -0.4025
  860MOL0     C16030   8.427   4.970   8.693 -0.2488 -0.9140  0.0875
  860MOL0     C16031   8.509   5.078   8.686  0.1938 -0.6956 -0.2422
  860MOL0     C16032   8.598   5.111   8.809  0.3705 -0.8714 -0.2280
  860MOL0     H16033   8.908   5.313   8.398 -3.0409  0.3460 -1.4030
  860MOL0     H16034   9.021   5.518   8.321 -0.9412  0.1187 -1.1179
  860MOL0     H16035   9.130   5.734   8.311  1.8750  3.0051  1.8958
  860MOL0     H16036   8.996   5.728   8.208 -2.7636  1.9208 -0.7455
  860MOL0     H16037   9.116   5.946   8.169  1.0374  2.9313  0.4399
  860MOL0     H16038   9.108   5.986   8.334  2.5179  1.4810 -3.2484
  860MOL0     H16039   8.941   6.104   8.170 -3.3544  3.0289  3.3049
  860MOL0     H16040   8.886   6.029   8.318  1.5833 -1.1302  0.8814
  860MOL0     H16041   8.883   5.888   8.046 -0.0643 -0.8711  0.3757
  860MOL0     H16042   8.800   5.851   8.197  0.1538  2.0743  4.0132
  860MOL0     H16043   8.636   6.050   8.164  2.2399  1.0134  2.1561
  860MOL0     H16044   8.730   6.096   8.021 -0.0061  0.0327  3.0766
  860MOL0     H16045   8.666   5.902   7.897  0.0336  2.0060 -0.3514
  860MOL0     H16046   8.570   5.835   8.046 -1.1180 -0.5979 -1.0072
  860MOL0     H16047   8.513   6.044   7.857  2.5309 -2.8508 -0.9727
  860MOL0     H16048   8.435   6.055   8.021 -0.6927 -0.1592 -0.6873
  860MOL0     H16049   8.392   5.854   7.794  6.5002 -0.8568  1.6447
  860MOL0     H16050   8.353   5.798   7.955 -0.4225 -2.9036 -4.3707
  860MOL0     H16051   8.102   5.910   8.060  1.6233 -0.9723  0.4701
  860MOL0     H16052   7.844   6.056   7.927  0.7381  0.4685 -1.2667
  860MOL0     H16053   7.899   6.069   8.089  0.4502 -0.3646 -0.7943
  860MOL0     H16054   7.923   6.302   7.891 -2.2277 -0.5002 -0.8663
  860MOL0     H16055   7.799   6.274   8.019 -0.1724  0.9046  0.3048
  860MOL0     H16056   7.954   6.288   8.192  2.8639  0.3546  0.6047
  860MOL0     H16057   7.940   6.436   8.097  2.8274  1.0006  0.6294
  860MOL0     H16058   8.171   6.378   7.986 -0.7271  0.4589  0.2684
  860MOL0     H16059   8.177   6.230   8.074  0.1498 -0.0221  6.3258
  860MOL0     H16060   8.300   6.533   8.358  2.1369  0.9155  1.8621
  860MOL0     H16061   8.538   6.588   8.383 -1.7642 -2.9889  3.3511
  860MOL0     H16062   8.979   6.376   8.381  0.1424 -0.8948  0.1135
  860MOL0     H16063   9.169   6.396   8.506 -1.2631 -0.7858 -0.7475
  860MOL0     H16064   9.391   6.799   8.463  1.2116  0.9686  1.2365
  860MOL0     H16065   9.374   6.805   8.635 -0.8001  2.0178 -1.3778
  860MOL0     H16066   9.537   6.609   8.632 -4.4674  2.9692  3.9751
  860MOL0     H16067   9.551   6.624   8.458 -0.7099 -1.5924  1.1875
  860MOL0     H16068   9.606   6.838   8.676  1.4367 -0.8143  1.1134
  860MOL0     H16069   9.733   6.751   8.583  1.4297 -0.2285 -2.0089
  860MOL0     H16070   9.530   6.955   8.498  1.2896  1.6488  1.7516
  860MOL0     H16071   9.610   6.848   8.372 -1.8354  1.1111 -0.0831
  860MOL0     H16072   9.758   7.011   8.595  2.1282  1.2694 -0.4690
  860MOL0     H16073   9.700   7.097   8.451 -2.1662 -0.4039 -0.2407
  860MOL0     H16074   9.898   6.869   8.458  0.2061  0.6276  0.5998
  860MOL0     H16075   9.829   6.940   8.311  1.9839 -5.8803  0.0116
  860MOL0     H16076  10.050   7.017   8.486 -0.7709  0.4859  0.8441
  860MOL0     H16077   9.928   7.143   8.489  1.4013 -0.5986  1.2790
  860MOL0     H16078  10.112   7.181   8.310  0.3883  2.2396 -3.6788
  860MOL0     H16079  10.074   7.031   8.243  1.1725  1.3887 -1.8205
  860MOL0     H16080   9.152   6.832   8.466  0.3406  0.7524 -0.0513
  860MOL0     H16081   8.954   6.804   8.339  1.5756  1.2850  0.3626
  860MOL0     H16082   8.621   6.323   8.054  2.0625 -0.1430  2.5764
  860MOL0     H16083   8.395   6.261   8.035 -1.5983 -1.3056 -0.0251
  860MOL0     H16084   8.759   5.745   8.575  1.1734  1.6761 -2.2025
  860MOL0     H16085   8.666   5.558   8.662  1.1503  1.2877  0.7051
  860MOL0     H16086   8.429   5.150   8.365 -0.2486 -2.0051 -0.7196
  860MOL0     H16087   8.278   4.979   8.384 -0.4996  0.5835  0.4944
  860MOL0     H16088   8.167   4.664   8.544  0.5322 -0.4420 -0.1434
  860MOL0     H16089   8.224   4.777   8.431 -2.2279 -0.6595 -0.4288
  860MOL0     H16090   8.002   4.753   8.418 -0.5439  0.1720  0.1487
  860MOL0     H16091   8.034   4.921   8.458 -0.7447  0.9838  1.0978
  860MOL0     H16092   7.976   4.865   8.711 -0.9174 -1.7633  1.1376
  860MOL0     H16093   7.918   4.719   8.643  0.3125  0.9932  1.4989
  860MOL0     H16094   7.811   4.996   8.569 -1.0962  0.1192 -2.2272
  860MOL0     H16095   7.771   4.853   8.477 -2.5991 -2.4849  1.5036
  860MOL0     H16096   7.555   4.833   8.858 -0.9387 -1.5385 -1.3575
  860MOL0     H16097   8.426   4.914   8.786 -2.1762  2.1506  2.1070
  860MOL0     H16098   8.582   5.042   8.892 -1.9907 -0.2134 -0.0501
  860MOL0     H16099   8.701   5.143   8.792 -0.3779  1.2716 -1.0534
  860MOL0     H16100   8.566   5.211   8.840  1.2093 -0.7540  0.2781
  861MOL0     O16101   8.575   5.403  10.977  0.0430 -0.4370  0.2554
  861MOL0     C16102   8.578   5.504  10.918  0.4514 -0.1669  0.2566
  861MOL0     O16103   8.669   5.534  10.823 -0.1762  0.2084 -0.3737
  861MOL0     C16104   8.776   5.451  10.782  1.4924  0.3427 -0.0246
  861MOL0     C16105   8.783   5.412  10.646 -1.0299 -0.0990 -0.2148
  861MOL0     C16106   8.893   5.342  10.598  0.0934 -0.7924 -0.3536
  861MOL0     C16107   8.997   5.314  10.681 -0.5779  0.2940 -0.2158
  861MOL0     O16108   9.099   5.247  10.617  0.5859  0.0227 -0.7848
  861MOL0     C16109   9.192   5.179  10.704  0.3843  0.7433  0.6247
  861MOL0     C16110   9.297   5.096  10.624  0.3802 -0.3624 -0.2233
  861MOL0     C16111   9.416   5.051  10.710 -0.0097 -0.1437  0.0970
  861MOL0     C16112   9.511   4.969  10.628 -0.8999  0.6464 -0.6895
  861MOL0     C16113   9.636   4.934  10.700  0.2004  0.4271  0.3546
  861MOL0     C16114   9.725   4.858  10.605 -0.8631 -0.5140 -0.9554
  861MOL0     C16115   9.870   4.827  10.653  0.1761  0.1284 -0.1605
  861MOL0     C16116   9.939   4.730  10.566  0.0951  0.0943  0.5864
  861MOL0     N16117  10.084   4.747  10.585 -0.2070  0.3864 -0.9573
  861MOL0     C16118  10.156   4.670  10.678  0.0685  0.7884  0.3897
  861MOL0     C16119  10.275   4.713  10.672 -1.1646 -0.2711  0.2134
  861MOL0     C16120  10.390   4.680  10.768  0.0120  0.1942 -0.0955
  861MOL0     C16121  10.462   4.546  10.722 -0.0359 -1.3140 -0.3766
  861MOL0     C16122  10.604   4.525  10.793  0.7578  1.2574  0.2468
  861MOL0     C16123  10.598   4.426  10.907  0.2122 -0.4847 -0.4686
  861MOL0     O16124  10.721   4.361  10.935 -0.2931  0.2192 -0.4313
  861MOL0     C16125  10.825   4.441  10.986  0.5481 -0.5433  0.2638
  861MOL0     C16126  10.835   4.462  11.125  0.7357 -0.3314  0.2523
  861MOL0     C16127  10.932   4.556  11.186  0.2265 -0.3217  0.0018
  861MOL0     C16128  11.024   4.619  11.103  0.5961  0.1771 -0.2333
  861MOL0     C16129  11.130   4.696  11.158 -0.4686  0.2676 -0.4279
  861MOL0     O16130  11.230   4.737  11.073  0.5447  0.6740 -0.2719
  861MOL0     C16131  11.340   4.803  11.113 -0.1861  0.2717  0.6387
  861MOL0     C16132  11.398   4.880  11.008 -0.0075 -0.3372  0.3127
  861MOL0     C16133  11.512   4.958  11.034  0.3311 -0.0080  0.7988
  861MOL0     C16134  11.573   4.948  11.163  0.4484  0.6066  0.1072
  861MOL0     O16135  11.683   5.012  11.196  0.8403 -0.1226 -0.2475
  861MOL0     C16136  11.717   5.126  11.129  0.0839  0.1361 -0.0231
  861MOL0     C16137  11.809   5.225  11.215  0.3049 -0.8104 -0.9734
  861MOL0     C16138  11.741   5.286  11.340 -0.2731 -0.1589  0.8365
  861MOL0     C16139  11.815   5.403  11.394 -0.0197 -1.1514  0.1034
  861MOL0     C16140  11.798   5.528  11.310  0.6515 -0.3215  0.0303
  861MOL0     C16141  11.859   5.647  11.391 -0.5687 -0.0056 -0.7951
  861MOL0     C16142  11.882   5.761  11.295  0.1780  0.4028  1.1534
  861MOL0     C16143  11.927   5.886  11.365 -0.1680 -0.1495  0.0306
  861MOL0    Cl16144  11.950   6.026  11.246  0.0101  0.2770 -0.4603
  861MOL0     C16145  11.512   4.866  11.261 -1.1094  0.5373  0.1010
  861MOL0     C16146  11.396   4.798  11.240 -0.4183  0.0273 -0.5253
  861MOL0     O16147  11.116   4.726  11.275  0.9568 -0.2764 -0.1261
  861MOL0     C16148  11.017   4.592  10.961 -0.3146 -0.1964 -0.0465
  861MOL0     C16149  10.920   4.508  10.905 -0.6584  0.7670  0.3401
  861MOL0     N16150  10.284   4.815  10.581  0.4563  0.1672  0.1042
  861MOL0     N16151  10.173   4.823  10.515 -0.2452 -0.0889 -1.1944
  861MOL0     C16152   8.979   5.344  10.819 -0.4388  0.0105  0.4609
  861MOL0     C16153   8.878   5.428  10.868  1.3466  0.0541  0.1155
  861MOL0     C16154   8.491   5.626  10.952 -0.4690 -0.3243 -0.1423
  861MOL0     C16155   8.538   5.754  10.918 -0.9216 -0.2530  0.0526
  861MOL0     C16156   8.473   5.869  10.947 -0.5462  0.5460  0.3411
  861MOL0     C16157   8.360   5.861  11.031  0.8755 -1.2787 -0.4058
  861MOL0     O16158   8.282   5.966  11.069 -0.3300 -0.8266  0.3200
  861MOL0     C16159   8.302   6.097  11.008 -0.4794 -0.0719 -0.0793
  861MOL0     C16160   8.237   6.211  11.090 -0.1882 -0.1664 -0.5599
  861MOL0     C16161   8.086   6.200  11.076 -0.4224 -0.3475 -0.3712
  861MOL0     C16162   7.991   6.289  11.153  0.7189 -0.1915 -0.1771
  861MOL0     C16163   8.022   6.427  11.166  0.2153  0.6403  0.2332
  861MOL0     C16164   8.070   6.537  11.163 -0.4106 -0.7109 -0.0666
  861MOL0     C16165   8.308   5.740  11.057 -0.5258  0.8391 -1.7892
  861MOL0     C16166   8.367   5.615  11.019 -0.5658 -0.2471 -0.2624
  861MOL0     C16167   8.300   5.485  11.062 -0.0208  0.6920 -0.3424
  861MOL0     H16168   8.688   5.411  10.594 -1.1086 -1.2366 -0.0694
  861MOL0     H16169   8.894   5.299  10.498  1.1814 -2.4412  0.3278
  861MOL0     H16170   9.254   5.246  10.765  0.6640 -0.1547  1.3513
  861MOL0     H16171   9.137   5.110  10.768  1.7126  0.7317  1.8132
  861MOL0     H16172   9.330   5.164  10.545  0.2467  0.5529  0.4833
  861MOL0     H16173   9.250   5.014  10.570  0.4631 -0.0512 -0.7698
  861MOL0     H16174   9.384   4.999  10.801  0.1009 -0.2097  0.0994
  861MOL0     H16175   9.469   5.136  10.754 -2.3936  1.0391  0.8509
  861MOL0     H16176   9.462   4.880  10.589 -1.9437  1.8513 -2.2435
  861MOL0     H16177   9.542   5.019  10.535 -2.7384  0.0774 -1.6564
  861MOL0     H16178   9.681   5.019  10.752  0.3635 -0.4237  1.6481
  861MOL0     H16179   9.602   4.875  10.786  1.3815  2.0468  2.0150
  861MOL0     H16180   9.670   4.765  10.588 -0.9862 -0.5323 -0.4746
  861MOL0     H16181   9.748   4.909  10.511  3.5060  0.7750  0.5540
  861MOL0     H16182   9.859   4.790  10.755 -3.3768  0.5033 -0.2492
  861MOL0     H16183   9.929   4.917  10.672  1.2814 -0.4068 -1.0046
  861MOL0     H16184   9.915   4.629  10.600  0.9309  0.0502  1.0855
  861MOL0     H16185   9.919   4.758  10.463  0.5455  2.9932  1.1907
  861MOL0     H16186  10.108   4.605  10.751 -0.8182  2.2448  1.1568
  861MOL0     H16187  10.456   4.767  10.774 -0.0696  0.1965  0.8944
  861MOL0     H16188  10.348   4.662  10.867  3.1209  0.3640  1.3603
  861MOL0     H16189  10.397   4.461  10.743 -1.8517 -0.4285 -2.1033
  861MOL0     H16190  10.479   4.560  10.614  1.1515  3.0012  0.1741
  861MOL0     H16191  10.645   4.622  10.824 -2.1857  2.5185  0.5527
  861MOL0     H16192  10.671   4.472  10.725 -2.6437  0.2703 -2.5795
  861MOL0     H16193  10.515   4.356  10.892 -0.6825 -0.5248  3.4233
  861MOL0     H16194  10.572   4.469  11.005  1.9521 -2.2496  0.8509
  861MOL0     H16195  10.761   4.418  11.191  1.0097 -0.9641  0.1441
  861MOL0     H16196  10.930   4.569  11.293 -3.1248 -2.0762  0.2778
  861MOL0     H16197  11.347   4.891  10.913 -0.2732 -0.5976  0.4218
  861MOL0     H16198  11.558   5.016  10.954 -0.5359  1.6072  1.4285
  861MOL0     H16199  11.766   5.113  11.032  0.7458  2.4503 -0.0624
  861MOL0     H16200  11.630   5.189  11.108  1.2152  1.6982 -0.2061
  861MOL0     H16201  11.903   5.173  11.235  0.0467 -0.0380  3.4508
  861MOL0     H16202  11.846   5.303  11.148 -0.7319 -1.2267 -2.0625
  861MOL0     H16203  11.639   5.319  11.321 -0.5620 -1.1523  0.5841
  861MOL0     H16204  11.757   5.212  11.419 -0.7456 -1.0829  0.0802
  861MOL0     H16205  11.921   5.373  11.393 -0.0821 -1.6939  2.8533
  861MOL0     H16206  11.797   5.417  11.501  0.6540 -1.5672  0.2813
  861MOL0     H16207  11.691   5.541  11.294 -0.2911 -2.1254  3.6283
  861MOL0     H16208  11.851   5.523  11.215  0.5154  2.2355 -0.2551
  861MOL0     H16209  11.779   5.666  11.463  1.0267  1.1830  0.7761
  861MOL0     H16210  11.944   5.612  11.451 -1.3440 -3.1587 -1.3625
  861MOL0     H16211  11.797   5.783  11.231 -0.1462  1.7408  1.9966
  861MOL0     H16212  11.965   5.744  11.225 -2.5322  0.6932 -2.3833
  861MOL0     H16213  11.861   5.920  11.445 -0.1451  0.3366 -0.1550
  861MOL0     H16214  12.031   5.874  11.400  1.2774  1.2136 -3.3615
  861MOL0     H16215  11.559   4.857  11.358  2.2813  0.7877 -1.3723
  861MOL0     H16216  11.367   4.738  11.326  0.6700 -0.4219 -0.4577
  861MOL0     H16217  11.098   4.627  10.897  5.0185 -5.9607  2.3948
  861MOL0     H16218  10.906   4.491  10.799 -2.0239  3.2584  0.0432
  861MOL0     H16219   9.053   5.315  10.893 -2.8924 -3.5753  1.7705
  861MOL0     H16220   8.873   5.449  10.974 -2.0728 -2.9395  0.7448
  861MOL0     H16221   8.636   5.769  10.873 -0.9595  1.0835  0.3824
  861MOL0     H16222   8.517   5.961  10.910  0.2382  0.3294  0.7058
  861MOL0     H16223   8.276   6.090  10.902  4.0940 -1.8727 -1.3142
  861MOL0     H16224   8.405   6.132  11.019 -0.4465 -0.2542  0.2234
  861MOL0     H16225   8.266   6.305  11.041  0.0804  0.1057  0.0992
  861MOL0     H16226   8.278   6.210  11.191  2.6270 -2.4473 -1.5799
  861MOL0     H16227   8.066   6.092  11.074 -0.8200 -0.2800 -0.1352
  861MOL0     H16228   8.069   6.230  10.972  0.0825  0.4246 -0.2379
  861MOL0     H16229   7.892   6.268  11.110  0.5280 -0.6773  0.4892
  861MOL0     H16230   7.968   6.242  11.248 -0.4394 -1.2624 -0.9516
  861MOL0     H16231   8.118   6.633  11.162 -0.8409 -0.4971 -0.9882
  861MOL0     H16232   8.227   5.749  11.129  0.0901  0.2443 -1.0057
  861MOL0     H16233   8.206   5.495  11.117  0.7646 -2.2859  1.8068
  861MOL0     H16234   8.274   5.427  10.973  0.0060  2.1627 -1.3312
  861MOL0     H16235   8.369   5.423  11.121 -1.0314  0.0777  0.2161
  862MOL0     O16236   9.286   9.319   4.367 -0.2608  0.7116 -0.4223
  862MOL0     C16237   9.172   9.340   4.418  0.7884  0.1252  0.6111
  862MOL0     O16238   9.152   9.441   4.511 -0.4183  0.0684 -0.3463
  862MOL0     C16239   9.233   9.553   4.528 -0.2352 -0.4873 -0.0868
  862MOL0     C16240   9.158   9.671   4.551 -0.2538 -0.1890  0.6621
  862MOL0     C16241   9.225   9.788   4.599 -0.1379 -0.6369 -1.2853
  862MOL0     C16242   9.367   9.791   4.627 -0.0594  0.0516 -0.4478
  862MOL0     O16243   9.413   9.901   4.694  0.3107 -0.1532  0.4178
  862MOL0     C16244   9.540   9.880   4.774  0.9046  0.2758 -0.2062
  862MOL0     C16245   9.526   9.792   4.901  0.5696 -0.7718 -0.7133
  862MOL0     C16246   9.641   9.824   5.006 -0.2996  0.7461  0.2139
  862MOL0     C16247   9.585   9.902   5.131 -0.0332 -0.1623  0.9345
  862MOL0     C16248   9.600  10.045   5.099  0.2564 -0.1686  0.6187
  862MOL0     C16249   9.543  10.137   5.204 -0.4891  0.6064 -1.2537
  862MOL0     C16250   9.576  10.282   5.164 -0.1882 -0.1023 -0.0585
  862MOL0     C16251   9.458  10.381   5.181  0.6580 -0.0232 -0.9096
  862MOL0     N16252   9.451  10.436   5.312 -0.6247 -0.6649  0.5326
  862MOL0     C16253   9.461  10.369   5.430  0.4068  0.3538  0.2232
  862MOL0     C16254   9.450  10.458   5.531 -0.0883 -0.7163 -0.4748
  862MOL0     C16255   9.447  10.432   5.678  0.3427  0.6026 -0.0319
  862MOL0     C16256   9.472  10.567   5.745  0.1125 -0.5695  0.6240
  862MOL0     C16257   9.480  10.555   5.896  1.3670 -0.0928 -0.3701
  862MOL0     C16258   9.586  10.468   5.973  0.2503  0.0045 -0.5081
  862MOL0     O16259   9.713  10.517   5.939  0.6371  0.9081  0.0532
  862MOL0     C16260   9.817  10.424   5.966 -0.2423 -0.3726 -0.2913
  862MOL0     C16261   9.813  10.310   6.042  0.2523 -0.1318 -0.3875
  862MOL0     C16262   9.920  10.221   6.067 -0.0208  0.2216 -0.0147
  862MOL0     C16263  10.047  10.267   6.041 -0.9202 -0.3215 -0.5519
  862MOL0     C16264  10.173  10.187   6.086 -0.1094  0.4182  0.7283
  862MOL0     O16265  10.158  10.068   6.146 -0.1018 -0.1196  0.0055
  862MOL0     C16266  10.266   9.984   6.180  0.2507 -0.5571  0.0705
  862MOL0     C16267  10.296   9.962   6.314  0.8335  0.2291  0.5255
  862MOL0     C16268  10.409   9.898   6.358  0.3752 -0.3918  0.4427
  862MOL0     C16269  10.501   9.847   6.266  0.6886  0.2519 -0.3994
  862MOL0     O16270  10.611   9.772   6.313  0.9625  1.0147 -0.1712
  862MOL0     C16271  10.708   9.744   6.218  0.4398 -0.6732  0.2118
  862MOL0     C16272  10.829   9.689   6.284 -0.2433  0.2695 -0.7739
  862MOL0     C16273  10.796   9.547   6.331 -0.8123  0.7779 -0.6472
  862MOL0     C16274  10.924   9.481   6.371  0.2201  0.2208  0.0722
  862MOL0     C16275  10.901   9.328   6.394  0.0013  1.3708 -0.7490
  862MOL0     C16276  11.019   9.252   6.459 -1.6242 -0.2041  0.5996
  862MOL0     C16277  11.022   9.100   6.430 -0.5654 -0.2509  0.5076
  862MOL0     C16278  11.138   9.018   6.499 -0.1887  0.0615  0.3878
  862MOL0    Cl16279  11.111   8.848   6.461  0.4134 -0.0805 -0.4134
  862MOL0     C16280  10.482   9.881   6.125  0.9978 -1.0232 -0.9542
  862MOL0     C16281  10.366   9.950   6.085  0.5419  0.4176  0.4818
  862MOL0     O16282  10.285  10.229   6.051 -0.0167  0.3608  0.4311
  862MOL0     C16283  10.052  10.384   5.970 -0.1137 -0.0497 -0.4048
  862MOL0     C16284   9.943  10.450   5.927  0.5183 -0.8896 -0.6646
  862MOL0     N16285   9.427  10.583   5.479 -0.3881  0.2660 -0.0997
  862MOL0     N16286   9.425  10.567   5.351 -0.3332 -0.7141 -0.0430
  862MOL0     C16287   9.437   9.676   4.600 -0.4620  0.4170  0.6259
  862MOL0     C16288   9.374   9.550   4.557  1.1137 -0.7531  0.3120
  862MOL0     C16289   9.065   9.247   4.367 -0.2050  0.7030  0.0070
  862MOL0     C16290   9.100   9.151   4.262  0.0326 -0.3464 -0.5401
  862MOL0     C16291   9.006   9.059   4.217 -0.5092 -0.6467 -0.5487
  862MOL0     C16292   8.873   9.059   4.270  0.9797  0.2252 -0.6383
  862MOL0     O16293   8.784   8.960   4.230 -0.5726  0.0746 -0.4521
  862MOL0     C16294   8.717   8.969   4.111  0.3221  0.4038 -0.0409
  862MOL0     C16295   8.783   8.871   4.004 -0.2004  0.4196 -0.4261
  862MOL0     C16296   8.795   8.726   4.045  0.6796  0.2632  0.1257
  862MOL0     C16297   8.810   8.629   3.932 -0.3326  0.0259  0.1554
  862MOL0     C16298   8.690   8.617   3.851  0.4155 -0.0674  0.4058
  862MOL0     C16299   8.609   8.632   3.762 -0.5598  0.6990 -0.1387
  862MOL0     C16300   8.842   9.150   4.368  0.0623  0.1677 -0.7925
  862MOL0     C16301   8.937   9.249   4.415 -0.2676 -0.3420  0.3779
  862MOL0     C16302   8.893   9.342   4.525  1.1779  0.0257 -0.3742
  862MOL0     H16303   9.050   9.679   4.538 -0.0479 -0.0660 -1.4168
  862MOL0     H16304   9.177   9.884   4.618 -2.4853 -1.8116 -0.9543
  862MOL0     H16305   9.620   9.837   4.713  0.0852  0.8270 -1.7396
  862MOL0     H16306   9.570   9.979   4.810 -0.7172  0.5762  0.4294
  862MOL0     H16307   9.533   9.689   4.866  0.3619 -0.5268 -1.4892
  862MOL0     H16308   9.423   9.798   4.935 -0.3066 -3.5682 -2.5356
  862MOL0     H16309   9.730   9.846   4.946  0.8260 -5.3430 -1.0124
  862MOL0     H16310   9.686   9.734   5.049 -0.5673 -0.4209 -1.8213
  862MOL0     H16311   9.478   9.890   5.149 -0.3780  1.4885  0.1688
  862MOL0     H16312   9.646   9.871   5.216 -0.4634 -2.5501  0.4359
  862MOL0     H16313   9.705  10.068   5.078 -0.1970  1.5571  0.0809
  862MOL0     H16314   9.544  10.067   5.008  1.1103  0.4231  0.2167
  862MOL0     H16315   9.435  10.119   5.212 -0.6530  0.7993 -2.8083
  862MOL0     H16316   9.580  10.114   5.304 -1.2924  0.2648 -1.0295
  862MOL0     H16317   9.613  10.278   5.061  2.9675 -0.6553  0.9863
  862MOL0     H16318   9.664  10.306   5.224 -1.3750 -2.0971  2.6867
  862MOL0     H16319   9.462  10.462   5.107  2.1198 -0.3928 -1.2601
  862MOL0     H16320   9.360  10.335   5.165  0.6157 -0.4535  0.4582
  862MOL0     H16321   9.479  10.265   5.451  2.1615  0.2996 -1.2965
  862MOL0     H16322   9.357  10.382   5.713  0.8886  2.0043  3.8531
  862MOL0     H16323   9.527  10.361   5.702  0.4911 -0.5851 -3.5214
  862MOL0     H16324   9.570  10.603   5.714  0.5623  0.1796  2.7189
  862MOL0     H16325   9.387  10.631   5.718 -1.3002 -2.4173  0.4325
  862MOL0     H16326   9.383  10.518   5.931  0.2145  0.2184 -2.9501
  862MOL0     H16327   9.506  10.657   5.927 -0.2690  0.4659 -0.7060
  862MOL0     H16328   9.573  10.363   5.944  1.8094 -0.0636 -1.0251
  862MOL0     H16329   9.570  10.471   6.081  1.0278  0.4844 -0.3993
  862MOL0     H16330   9.714  10.274   6.070  0.1724  1.8975  2.3570
  862MOL0     H16331   9.896  10.124   6.109 -3.0417  1.3714  1.1842
  862MOL0     H16332  10.214   9.989   6.380 -1.5776 -2.4356 -1.1123
  862MOL0     H16333  10.422   9.881   6.465 -1.2789  0.6899  0.8480
  862MOL0     H16334  10.674   9.670   6.146  1.2798 -2.3716  1.4919
  862MOL0     H16335  10.733   9.837   6.166 -3.2585  0.7611  0.6725
  862MOL0     H16336  10.907   9.689   6.207  0.4196  1.2574 -0.1374
  862MOL0     H16337  10.865   9.751   6.368  0.1772  1.7569 -2.0064
  862MOL0     H16338  10.723   9.557   6.412 -0.3085  0.9154 -0.2017
  862MOL0     H16339  10.758   9.488   6.247 -2.2310  0.4254  0.2073
  862MOL0     H16340  10.948   9.536   6.463  0.1080 -0.3472  0.4463
  862MOL0     H16341  11.004   9.490   6.297 -0.7474 -3.6297 -1.6555
  862MOL0     H16342  10.869   9.269   6.307  1.4206 -1.4392  0.5213
  862MOL0     H16343  10.821   9.326   6.469  1.1784 -1.9319  0.6055
  862MOL0     H16344  11.114   9.298   6.430 -0.7236 -1.5821  1.2629
  862MOL0     H16345  11.010   9.273   6.566 -1.1220 -1.6445  0.9574
  862MOL0     H16346  11.041   9.095   6.322 -1.3895 -1.0382  0.3845
  862MOL0     H16347  10.931   9.046   6.458 -1.6814  0.0039 -2.3125
  862MOL0     H16348  11.241   9.040   6.469  0.5350 -0.1653  2.5377
  862MOL0     H16349  11.120   9.033   6.606 -2.2925  2.4188 -0.2091
  862MOL0     H16350  10.553   9.849   6.049  2.9661  0.2818  0.2441
  862MOL0     H16351  10.337   9.974   5.983 -0.1409 -2.4644 -0.0884
  862MOL0     H16352  10.147  10.429   5.943 -0.6059  0.2683 -1.6638
  862MOL0     H16353   9.955  10.540   5.867 -1.6094  0.3927  0.6763
  862MOL0     H16354   9.542   9.667   4.626 -0.3612 -1.6946 -0.2813
  862MOL0     H16355   9.420   9.452   4.561  0.2435 -1.2288 -0.7121
  862MOL0     H16356   9.196   9.154   4.212 -0.9743  0.0606 -2.5380
  862MOL0     H16357   9.031   9.002   4.128 -2.3612 -2.2170 -0.1348
  862MOL0     H16358   8.713   9.073   4.080 -0.3642  0.0034 -1.3645
  862MOL0     H16359   8.616   8.928   4.115  0.4234  0.1294 -0.2917
  862MOL0     H16360   8.885   8.908   3.985  0.3031 -0.9908 -0.5631
  862MOL0     H16361   8.735   8.887   3.907  0.6720  0.1923 -0.9053
  862MOL0     H16362   8.695   8.709   4.085 -1.4265  1.7440 -3.8866
  862MOL0     H16363   8.875   8.712   4.119  2.8502  0.7454 -1.9801
  862MOL0     H16364   8.886   8.668   3.863 -3.3875  2.6746 -1.9802
  862MOL0     H16365   8.837   8.525   3.955  0.4412 -0.8175 -3.7531
  862MOL0     H16366   8.540   8.617   3.681  1.0707 -0.7090 -1.3628
  862MOL0     H16367   8.748   9.128   4.417  0.8789 -1.2194  0.2134
  862MOL0     H16368   8.785   9.333   4.534  1.3293 -2.7023 -0.5660
  862MOL0     H16369   8.947   9.329   4.619 -0.7559 -2.7720  0.4738
  862MOL0     H16370   8.922   9.441   4.487  2.5046 -1.0182 -2.2786
  863MOL0     O16371   6.310   2.231   2.189 -1.1523  0.3007  0.2379
  863MOL0     C16372   6.200   2.222   2.231  1.1024  0.0144 -0.0368
  863MOL0     O16373   6.130   2.305   2.311 -0.0525 -0.3457 -0.0862
  863MOL0     C16374   6.182   2.424   2.356  0.5654 -0.2343  0.1381
  863MOL0     C16375   6.114   2.476   2.465  0.1355 -0.0332 -0.1492
  863MOL0     C16376   6.139   2.606   2.519  0.1335  1.2324 -0.2570
  863MOL0     C16377   6.236   2.683   2.462 -0.3156  0.4444  0.4624
  863MOL0     O16378   6.245   2.802   2.534 -0.5831 -0.0445 -0.7668
  863MOL0     C16379   6.352   2.889   2.489 -0.6913 -0.9931 -0.4782
  863MOL0     C16380   6.338   3.041   2.547  0.6871  0.5402 -0.3711
  863MOL0     C16381   6.225   3.123   2.481  0.4069 -0.6901  0.8326
  863MOL0     C16382   6.199   3.264   2.542  0.5974 -0.7031 -0.2306
  863MOL0     C16383   6.104   3.334   2.455 -0.4595  0.0685  0.6795
  863MOL0     C16384   6.162   3.383   2.319 -0.1655 -0.7844  0.7103
  863MOL0     C16385   6.271   3.488   2.322  0.9706  0.3145 -0.2155
  863MOL0     C16386   6.255   3.615   2.415 -0.9449 -0.2844 -0.0896
  863MOL0     N16387   6.139   3.706   2.385  0.4896 -0.0785  0.5114
  863MOL0     C16388   6.140   3.824   2.308 -0.1459  0.3011  0.0493
  863MOL0     C16389   6.019   3.872   2.306 -0.1801  1.1537 -0.7318
  863MOL0     C16390   5.966   4.001   2.258 -0.2285  0.6838  0.1147
  863MOL0     C16391   5.967   4.131   2.348 -0.9678  0.3204  0.5856
  863MOL0     C16392   6.112   4.190   2.362 -0.0602 -0.6466  0.4467
  863MOL0     C16393   6.115   4.313   2.470 -0.1588  0.0677  0.7558
  863MOL0     O16394   6.046   4.427   2.412  0.9445  0.5879  0.0032
  863MOL0     C16395   5.999   4.519   2.507  0.0272  0.7001  0.4111
  863MOL0     C16396   5.885   4.596   2.472 -0.7691  0.1295  0.3372
  863MOL0     C16397   5.840   4.709   2.541 -0.3687 -0.8852 -0.1788
  863MOL0     C16398   5.905   4.741   2.664  0.0926 -0.1873  1.3281
  863MOL0     C16399   5.863   4.845   2.753  0.1508 -1.1166 -0.0410
  863MOL0     O16400   5.764   4.929   2.703  0.0667  1.0000 -0.0571
  863MOL0     C16401   5.714   5.020   2.796  0.6001  0.6258 -0.6741
  863MOL0     C16402   5.635   4.985   2.915 -0.2483 -0.0883 -0.7490
  863MOL0     C16403   5.589   5.088   3.003 -0.4771  0.2229  0.2074
  863MOL0     C16404   5.608   5.219   2.969  0.1580 -0.2473 -0.3808
  863MOL0     O16405   5.554   5.329   3.045  0.0102  0.0155 -1.2030
  863MOL0     C16406   5.549   5.327   3.185 -0.0069 -0.4768 -0.2066
  863MOL0     C16407   5.685   5.342   3.261 -0.7924 -0.4148 -0.3551
  863MOL0     C16408   5.761   5.208   3.274 -0.6846  0.5925  0.5101
  863MOL0     C16409   5.820   5.167   3.412  0.5512  0.3209  0.4448
  863MOL0     C16410   5.916   5.047   3.399  0.7781 -0.3975 -0.4423
  863MOL0     C16411   5.860   4.916   3.348  1.0409  0.0314 -0.5017
  863MOL0     C16412   5.973   4.809   3.330  0.4996 -0.8876 -0.8949
  863MOL0     C16413   6.036   4.829   3.191  0.1091 -0.1115  1.2165
  863MOL0    Cl16414   6.154   4.709   3.159  0.1678 -0.1364  0.1486
  863MOL0     C16415   5.681   5.249   2.847 -0.6833 -0.3346 -0.0526
  863MOL0     C16416   5.733   5.154   2.761  0.2741  0.0644 -0.0985
  863MOL0     O16417   5.934   4.863   2.855  0.0435  0.8227  0.2515
  863MOL0     C16418   6.001   4.643   2.709  0.2591 -0.0770  0.5156
  863MOL0     C16419   6.044   4.531   2.634  0.8542  0.0702 -0.6446
  863MOL0     N16420   5.938   3.788   2.378  0.4960 -0.4504  0.8085
  863MOL0     N16421   6.008   3.686   2.414  0.7633  0.3309 -0.0299
  863MOL0     C16422   6.314   2.633   2.350  0.0792 -0.1972  0.3966
  863MOL0     C16423   6.288   2.503   2.303  0.7027  0.2669  1.5254
  863MOL0     C16424   6.110   2.109   2.184 -0.1443 -0.7024  0.5189
  863MOL0     C16425   6.016   2.046   2.270 -0.4678 -0.2784 -0.4112
  863MOL0     C16426   5.935   1.937   2.222  0.1313  0.0961  0.1765
  863MOL0     C16427   5.966   1.877   2.097  1.0152 -0.6273  0.1949
  863MOL0     O16428   5.888   1.771   2.066  0.1304 -0.2805  0.0329
  863MOL0     C16429   5.879   1.720   1.933  0.8737  0.5616 -0.1242
  863MOL0     C16430   5.960   1.589   1.929 -0.0749  0.0176 -0.4964
  863MOL0     C16431   5.923   1.490   2.036 -0.8064  0.8006 -0.2764
  863MOL0     C16432   5.774   1.458   2.067 -0.1650 -0.6815 -0.8054
  863MOL0     C16433   5.748   1.341   2.145  1.0636  0.2279 -1.0634
  863MOL0     C16434   5.711   1.240   2.201  0.8921  0.6312 -0.5684
  863MOL0     C16435   6.057   1.944   2.012  0.8107  0.5756  0.2711
  863MOL0     C16436   6.125   2.056   2.052  0.0178 -0.2631 -0.0796
  863MOL0     C16437   6.216   2.104   1.944 -0.5522 -0.6260 -0.6792
  863MOL0     H16438   6.048   2.414   2.525  2.2580 -1.5985  0.6714
  863MOL0     H16439   6.069   2.628   2.599 -1.8312 -0.3937 -1.4303
  863MOL0     H16440   6.443   2.838   2.522 -1.9719 -2.1359  1.4885
  863MOL0     H16441   6.339   2.896   2.381 -3.3192 -2.2816 -0.3337
  863MOL0     H16442   6.421   3.106   2.517 -0.1362  1.4032 -0.8566
  863MOL0     H16443   6.331   3.043   2.656  0.9820  3.5519 -0.3086
  863MOL0     H16444   6.135   3.060   2.479 -0.0139 -0.1587  2.0269
  863MOL0     H16445   6.247   3.137   2.375 -1.8144 -2.8957 -0.0322
  863MOL0     H16446   6.142   3.245   2.634  0.9182 -3.4466 -0.5127
  863MOL0     H16447   6.285   3.329   2.559  0.1133 -0.3900  1.1438
  863MOL0     H16448   6.022   3.265   2.435 -0.2144  0.1538 -0.7691
  863MOL0     H16449   6.057   3.420   2.504 -2.1702  0.7647 -1.9734
  863MOL0     H16450   6.186   3.298   2.253  3.2417  0.2650  0.4165
  863MOL0     H16451   6.080   3.421   2.257  1.4189  2.4725  0.3872
  863MOL0     H16452   6.273   3.532   2.222 -1.8021  0.0065 -0.4872
  863MOL0     H16453   6.365   3.442   2.350  2.3470  2.9930 -0.0783
  863MOL0     H16454   6.248   3.593   2.522 -0.4408  2.1753  0.5269
  863MOL0     H16455   6.351   3.667   2.407  0.1591 -2.0651  1.0314
  863MOL0     H16456   6.225   3.868   2.257 -1.7121 -0.8640 -3.9608
  863MOL0     H16457   6.002   4.021   2.156  2.0245  1.8687  1.0766
  863MOL0     H16458   5.858   3.985   2.249  0.3351 -4.0139 -1.0956
  863MOL0     H16459   5.901   4.215   2.322 -1.3022  0.4794  1.8378
  863MOL0     H16460   5.932   4.103   2.448  1.1059 -1.1278  0.9480
  863MOL0     H16461   6.156   4.231   2.270 -3.7948  4.0240  0.3148
  863MOL0     H16462   6.172   4.106   2.398 -0.9731 -1.7014 -0.3915
  863MOL0     H16463   6.213   4.352   2.499 -0.4808  0.8429  0.8135
  863MOL0     H16464   6.065   4.269   2.557 -1.6195 -0.8618 -0.4971
  863MOL0     H16465   5.832   4.568   2.381 -6.8941 -2.1500  3.9719
  863MOL0     H16466   5.758   4.771   2.507 -0.6922  0.3728  2.5930
  863MOL0     H16467   5.627   4.877   2.926 -1.8432  0.0196 -0.7145
  863MOL0     H16468   5.531   5.050   3.087  1.7774 -0.4278  1.5537
  863MOL0     H16469   5.478   5.407   3.209 -0.8457 -1.0792 -0.6314
  863MOL0     H16470   5.497   5.235   3.213 -1.2797  0.2325 -0.1903
  863MOL0     H16471   5.747   5.420   3.217  1.5607 -2.5572 -1.0933
  863MOL0     H16472   5.641   5.364   3.359 -0.1098  0.5343 -0.2434
  863MOL0     H16473   5.701   5.122   3.245  1.9395 -0.6263 -1.7737
  863MOL0     H16474   5.839   5.208   3.197 -1.1609 -0.3032  0.0078
  863MOL0     H16475   5.740   5.156   3.486 -1.2239 -0.1671 -1.4594
  863MOL0     H16476   5.879   5.255   3.435  1.8892 -0.3847 -0.1808
  863MOL0     H16477   5.964   5.027   3.495  0.2308 -0.6104 -0.2134
  863MOL0     H16478   5.992   5.081   3.327  0.6217 -0.2601 -0.5414
  863MOL0     H16479   5.793   4.876   3.423  2.6061 -0.3621  0.7424
  863MOL0     H16480   5.812   4.922   3.250 -2.0969  1.8515  0.9792
  863MOL0     H16481   5.916   4.717   3.343 -0.8573 -0.0154 -0.4119
  863MOL0     H16482   6.051   4.817   3.405  2.1868  1.4142 -2.7485
  863MOL0     H16483   5.962   4.809   3.113  2.0583 -4.6313  0.1747
  863MOL0     H16484   6.087   4.924   3.172 -1.1342  0.6762  1.6390
  863MOL0     H16485   5.705   5.349   2.814  2.3449  0.0267  2.7769
  863MOL0     H16486   5.784   5.186   2.670 -0.2434  1.9957  0.2394
  863MOL0     H16487   6.048   4.658   2.805  0.3636 -0.0556  0.4612
  863MOL0     H16488   6.137   4.484   2.664  0.3068  0.4078  1.7869
  863MOL0     H16489   6.392   2.684   2.295 -1.7219  0.9878 -1.2060
  863MOL0     H16490   6.346   2.461   2.222 -1.2579 -0.1441  0.2559
  863MOL0     H16491   5.992   2.086   2.368 -1.6160  0.7190 -1.0670
  863MOL0     H16492   5.864   1.883   2.283  0.5999 -3.7144 -2.2942
  863MOL0     H16493   5.918   1.787   1.855  0.0453  1.3134  0.0942
  863MOL0     H16494   5.776   1.690   1.911  1.6030 -1.1330 -1.4481
  863MOL0     H16495   6.068   1.600   1.938 -0.0316 -0.9016  0.3469
  863MOL0     H16496   5.944   1.555   1.826 -2.2122  1.1403 -0.5957
  863MOL0     H16497   5.975   1.528   2.124  0.2159 -2.3752  0.6160
  863MOL0     H16498   5.966   1.396   2.000  0.1979  1.8807 -2.0741
  863MOL0     H16499   5.725   1.545   2.112 -1.8755 -2.2708  0.5747
  863MOL0     H16500   5.711   1.436   1.980 -2.2528  1.6938 -0.0301
  863MOL0     H16501   5.659   1.160   2.249  0.2113  2.3131  1.6696
  863MOL0     H16502   6.072   1.897   1.915 -1.5598 -0.1349  0.1942
  863MOL0     H16503   6.192   2.075   1.841  3.1227 -0.3359 -1.7888
  863MOL0     H16504   6.220   2.213   1.947 -1.7976 -0.5831  2.3318
  863MOL0     H16505   6.321   2.074   1.955  0.0292  1.8313  1.2424
  864MOL0     O16506   8.900   8.011  11.039  0.8367  0.0505  0.0487
  864MOL0     C16507   8.933   7.900  11.081  0.0931 -0.0923 -0.0762
  864MOL0     O16508   8.886   7.774  11.041  0.2585 -0.6014 -0.1740
  864MOL0     C16509   8.836   7.774  10.911  0.3094 -0.5038  0.6600
  864MOL0     C16510   8.707   7.716  10.881 -0.0645 -0.8657 -0.4319
  864MOL0     C16511   8.660   7.707  10.748 -0.0360  0.6373  0.1798
  864MOL0     C16512   8.740   7.752  10.646  0.1793  0.2796  0.9604
  864MOL0     O16513   8.712   7.727  10.511  0.4885 -0.5293 -0.0575
  864MOL0     C16514   8.579   7.679  10.472  0.5398 -0.4327 -0.2998
  864MOL0     C16515   8.577   7.669  10.316 -0.5390  0.3781  0.4531
  864MOL0     C16516   8.565   7.806  10.242 -0.1016  0.0850 -0.8217
  864MOL0     C16517   8.505   7.781  10.107  0.6177  0.1470 -0.1303
  864MOL0     C16518   8.500   7.911  10.039 -0.0596 -0.3901 -0.1284
  864MOL0     C16519   8.410   7.914   9.917  0.0488  0.3022  0.2177
  864MOL0     C16520   8.477   7.845   9.807 -0.1971 -1.1446  0.1395
  864MOL0     C16521   8.414   7.865   9.669  0.5990  0.3797 -1.0419
  864MOL0     N16522   8.269   7.836   9.656  0.3312 -0.8934 -1.2318
  864MOL0     C16523   8.221   7.713   9.623 -0.1803 -0.4541 -0.3096
  864MOL0     C16524   8.090   7.709   9.647 -0.0412 -0.0367 -0.0379
  864MOL0     C16525   8.014   7.596   9.601 -0.0569 -0.1046 -0.3453
  864MOL0     C16526   8.033   7.467   9.680  0.4676 -0.2889 -0.0547
  864MOL0     C16527   8.021   7.469   9.835  0.2653 -0.1875 -0.1153
  864MOL0     C16528   7.896   7.546   9.885 -0.3853  0.3254  0.6285
  864MOL0     O16529   7.905   7.546  10.022  0.1593  0.1874 -0.0306
  864MOL0     C16530   7.975   7.633  10.087  0.2988 -0.7285 -0.6178
  864MOL0     C16531   8.003   7.615  10.222  0.0915  1.0781 -0.7263
  864MOL0     C16532   8.056   7.710  10.301 -0.4996 -0.8338  0.2936
  864MOL0     C16533   8.113   7.828  10.240 -0.5861 -0.3712  0.5919
  864MOL0     C16534   8.184   7.927  10.319 -0.1291 -0.6546 -0.1655
  864MOL0     O16535   8.199   7.887  10.449 -0.0288 -0.6250  0.0409
  864MOL0     C16536   8.250   7.986  10.535  0.5069  0.2796 -0.4203
  864MOL0     C16537   8.388   8.005  10.547  0.5123 -0.2243  0.1822
  864MOL0     C16538   8.438   8.089  10.649 -1.1055  0.0578  0.9228
  864MOL0     C16539   8.348   8.170  10.719  0.3235  0.5739  1.1336
  864MOL0     O16540   8.377   8.268  10.804  0.4203  0.2797  0.0546
  864MOL0     C16541   8.510   8.325  10.801 -0.3257  0.6142 -0.2058
  864MOL0     C16542   8.540   8.396  10.937  1.0263 -0.9264  0.1619
  864MOL0     C16543   8.557   8.296  11.050  0.7096 -0.4689 -0.8124
  864MOL0     C16544   8.650   8.351  11.158  1.2208  0.6583  0.1768
  864MOL0     C16545   8.661   8.229  11.251 -0.2819 -0.3890  0.6098
  864MOL0     C16546   8.715   8.262  11.387 -0.4739 -0.0762  0.2751
  864MOL0     C16547   8.731   8.138  11.482  0.4335  0.9567  0.2083
  864MOL0     C16548   8.749   8.178  11.620  0.4229  0.2611 -0.4190
  864MOL0    Cl16549   8.911   8.164  11.674  0.1908  0.4755 -0.3435
  864MOL0     C16550   8.207   8.162  10.687 -0.3020 -1.1757  0.7054
  864MOL0     C16551   8.146   8.067  10.595 -0.8809 -0.1259  0.4409
  864MOL0     O16552   8.222   8.025  10.261 -0.5534 -0.1188  0.0708
  864MOL0     C16553   8.075   7.855  10.113 -0.0875  0.2603 -0.4375
  864MOL0     C16554   8.002   7.761  10.045  0.3608 -0.1449 -0.4974
  864MOL0     N16555   8.045   7.835   9.698 -0.7066  0.0878 -0.0717
  864MOL0     N16556   8.159   7.901   9.710 -0.4369 -0.4884 -0.1078
  864MOL0     C16557   8.869   7.798  10.671 -1.0032  0.8335 -0.2621
  864MOL0     C16558   8.918   7.811  10.805  0.6159 -0.6960  0.8638
  864MOL0     C16559   9.041   7.891  11.179  0.3907  0.2404 -0.2423
  864MOL0     C16560   9.007   7.919  11.315 -0.0412  0.2298  0.1145
  864MOL0     C16561   9.100   7.917  11.424 -0.2819  0.6496 -1.0788
  864MOL0     C16562   9.229   7.882  11.398 -0.4397 -0.2683  0.0728
  864MOL0     O16563   9.326   7.866  11.500  0.0486  0.0179  0.0361
  864MOL0     C16564   9.304   7.773  11.606 -0.6334 -0.3958  0.2604
  864MOL0     C16565   9.418   7.675  11.624 -0.2162 -0.6290 -0.1225
  864MOL0     C16566   9.453   7.595  11.490  0.6010  0.5909  0.3135
  864MOL0     C16567   9.558   7.485  11.530  0.3994 -0.0590 -1.0017
  864MOL0     C16568   9.562   7.376  11.434  0.2679  0.4743 -0.5965
  864MOL0     C16569   9.589   7.277  11.373  0.4437  0.2917 -0.2603
  864MOL0     C16570   9.261   7.843  11.269  0.3808 -0.1316 -0.1719
  864MOL0     C16571   9.172   7.845  11.157 -0.1437 -0.0696 -0.3601
  864MOL0     C16572   9.207   7.783  11.021 -0.1386  0.2028  0.5069
  864MOL0     H16573   8.650   7.693  10.971  1.4161  2.4814  1.5822
  864MOL0     H16574   8.570   7.651  10.724  0.9055 -0.9716  0.2596
  864MOL0     H16575   8.565   7.575  10.505  1.2399 -1.3797 -2.7026
  864MOL0     H16576   8.509   7.753  10.510  2.7059  1.6401 -0.1122
  864MOL0     H16577   8.494   7.605  10.285  0.4376 -2.8613  3.7845
  864MOL0     H16578   8.667   7.615  10.284  0.2176  1.1192  1.2590
  864MOL0     H16579   8.662   7.854  10.227  0.5742 -1.1418 -0.5373
  864MOL0     H16580   8.499   7.873  10.297  1.5505 -0.3890  1.8759
  864MOL0     H16581   8.564   7.714  10.044  1.5913 -0.3398  1.2696
  864MOL0     H16582   8.404   7.749  10.137 -0.1197  3.1771  0.9335
  864MOL0     H16583   8.468   7.984  10.114 -0.9002  0.6535 -1.4470
  864MOL0     H16584   8.603   7.935  10.011 -0.0538 -0.2561  0.0096
  864MOL0     H16585   8.316   7.863   9.940  0.6747 -1.4487 -0.8708
  864MOL0     H16586   8.378   8.016   9.894 -4.8503 -1.2168 -0.9567
  864MOL0     H16587   8.474   7.739   9.835 -2.3456 -2.0917 -3.1139
  864MOL0     H16588   8.579   7.886   9.803 -1.3423  2.2152  1.6490
  864MOL0     H16589   8.439   7.967   9.639 -0.3110  0.1233 -2.8595
  864MOL0     H16590   8.463   7.800   9.596 -1.5855 -0.7708 -1.5501
  864MOL0     H16591   8.278   7.625   9.596 -2.5414 -3.0040  2.3837
  864MOL0     H16592   7.908   7.621   9.607  0.2307  0.8493  1.4820
  864MOL0     H16593   8.037   7.577   9.496  0.8426  2.2452 -0.6354
  864MOL0     H16594   7.947   7.411   9.644  1.0414 -1.3019  0.1065
  864MOL0     H16595   8.128   7.418   9.654  0.6265 -1.2771  2.1709
  864MOL0     H16596   8.111   7.514   9.878  0.9695 -0.7687 -0.9440
  864MOL0     H16597   7.991   7.367   9.859  0.2769 -0.6918 -2.0393
  864MOL0     H16598   7.810   7.482   9.864 -1.5681  1.6994  1.0966
  864MOL0     H16599   7.882   7.641   9.831 -0.8500 -1.9802 -3.7582
  864MOL0     H16600   7.958   7.526  10.263 -4.1389  2.3176 -2.2181
  864MOL0     H16601   8.053   7.694  10.409  1.2564  1.5361  0.7781
  864MOL0     H16602   8.462   7.962  10.480 -0.7090 -0.8460 -0.8190
  864MOL0     H16603   8.545   8.091  10.663 -1.1410 -0.7850  1.3769
  864MOL0     H16604   8.586   8.247  10.790  0.7254  1.3984  1.1785
  864MOL0     H16605   8.519   8.408  10.729  0.7479  1.4023  0.7916
  864MOL0     H16606   8.636   8.447  10.926  1.1082 -0.2497  3.1386
  864MOL0     H16607   8.465   8.474  10.951  3.2407  1.4395 -0.5523
  864MOL0     H16608   8.462   8.263  11.091  0.3598  1.6950  0.2725
  864MOL0     H16609   8.606   8.206  11.012  0.9646 -1.0861  0.9258
  864MOL0     H16610   8.598   8.431  11.211  1.4319  0.6927  0.3320
  864MOL0     H16611   8.746   8.393  11.126  2.2821  0.5388  2.9476
  864MOL0     H16612   8.737   8.160  11.212  1.3776  1.7866 -0.2632
  864MOL0     H16613   8.567   8.175  11.263 -1.4643  0.6393 -2.8562
  864MOL0     H16614   8.815   8.305  11.381  0.3628 -2.0512 -0.9541
  864MOL0     H16615   8.641   8.329  11.433 -0.2051 -1.5251  3.0757
  864MOL0     H16616   8.816   8.078  11.447 -1.4361  0.6909 -4.6723
  864MOL0     H16617   8.639   8.080  11.470  0.7726  0.7262 -1.5712
  864MOL0     H16618   8.703   8.268  11.662  1.2635 -0.4462  2.2008
  864MOL0     H16619   8.706   8.100  11.684 -0.0127  2.0812  1.6615
  864MOL0     H16620   8.134   8.227  10.734 -1.2052 -2.9875  1.9207
  864MOL0     H16621   8.041   8.047  10.578 -1.4262  1.9621  1.0660
  864MOL0     H16622   8.099   7.944  10.055 -2.5552  1.5655  0.4216
  864MOL0     H16623   7.980   7.791   9.943 -1.4224 -0.3334 -0.2118
  864MOL0     H16624   8.931   7.823  10.585  0.6587 -0.3244  0.5337
  864MOL0     H16625   9.014   7.858  10.820 -0.6010  2.0936  0.3879
  864MOL0     H16626   8.904   7.932  11.349  0.2971 -2.1131  2.2961
  864MOL0     H16627   9.092   7.933  11.531  1.8100 -0.2524 -0.7434
  864MOL0     H16628   9.211   7.718  11.589 -1.0772  0.7750 -1.3998
  864MOL0     H16629   9.302   7.834  11.698 -0.3580  0.1349 -0.0792
  864MOL0     H16630   9.389   7.613  11.709 -3.8931  0.9116 -0.0852
  864MOL0     H16631   9.502   7.735  11.659 -1.9503  1.3565  0.8602
  864MOL0     H16632   9.489   7.655  11.406 -0.5892 -1.8293 -2.1142
  864MOL0     H16633   9.362   7.549  11.450  0.6473  2.0014 -1.5178
  864MOL0     H16634   9.652   7.538  11.546  0.6082 -0.3361 -1.2879
  864MOL0     H16635   9.520   7.434  11.619 -0.5547  1.3402 -0.5842
  864MOL0     H16636   9.607   7.182  11.327  0.4853  0.7694 -1.2636
  864MOL0     H16637   9.356   7.802  11.236 -0.4672 -0.7425 -1.9874
  864MOL0     H16638   9.308   7.739  11.021 -1.1915 -2.4038  0.5535
  864MOL0     H16639   9.136   7.703  10.999 -0.2003 -0.0285  1.4990
  864MOL0     H16640   9.199   7.860  10.944  0.6527  2.6315  2.7351
  865MOL0     O16641   7.448   7.924   9.230  0.5021  0.0912  0.6166
  865MOL0     C16642   7.540   7.988   9.180  0.0931  1.1028 -0.6516
  865MOL0     O16643   7.530   8.081   9.088 -0.0837 -0.0410  0.4117
  865MOL0     C16644   7.411   8.150   9.084  0.6009  0.1465 -0.5451
  865MOL0     C16645   7.321   8.131   8.981  0.9045 -0.2707 -0.0584
  865MOL0     C16646   7.200   8.210   8.981 -0.5555 -0.3231  0.9253
  865MOL0     C16647   7.179   8.310   9.069 -0.2874 -0.7925  0.2024
  865MOL0     O16648   7.075   8.394   9.038 -0.0500 -0.1616  0.7448
  865MOL0     C16649   7.011   8.452   9.158 -0.0161  0.2169 -0.8281
  865MOL0     C16650   6.874   8.517   9.139  0.3108 -0.8283 -0.2625
  865MOL0     C16651   6.757   8.417   9.103 -0.5320 -0.2653 -0.4582
  865MOL0     C16652   6.625   8.494   9.075  0.6936  0.9947 -0.0765
  865MOL0     C16653   6.504   8.395   9.083 -0.2747  0.2733 -0.8844
  865MOL0     C16654   6.471   8.355   9.238  0.5486 -0.1157  0.9744
  865MOL0     C16655   6.381   8.232   9.256 -0.8279 -0.0006  0.3954
  865MOL0     C16656   6.440   8.096   9.200  0.3106  0.6159 -0.1138
  865MOL0     N16657   6.557   8.054   9.272 -0.8298 -0.0511  1.3270
  865MOL0     C16658   6.690   8.061   9.219 -0.1358 -0.8323  0.1807
  865MOL0     C16659   6.764   8.002   9.316 -0.9772  0.4182 -0.0780
  865MOL0     C16660   6.918   7.981   9.316  0.7610  0.1896 -0.6738
  865MOL0     C16661   6.990   7.954   9.183  0.3552  0.2013 -0.0143
  865MOL0     C16662   7.136   7.923   9.204  1.1587 -0.9797  0.2039
  865MOL0     C16663   7.169   7.785   9.261 -0.3635  0.3795  0.0415
  865MOL0     O16664   7.134   7.693   9.165 -0.0228  0.9268  0.4528
  865MOL0     C16665   7.149   7.558   9.181  0.3914 -0.6318 -0.4883
  865MOL0     C16666   7.221   7.504   9.286  1.0292 -0.3573  0.3456
  865MOL0     C16667   7.253   7.367   9.273  0.3379 -0.6519  0.2943
  865MOL0     C16668   7.212   7.286   9.172  0.8474 -0.0324  1.0508
  865MOL0     C16669   7.238   7.144   9.161  0.2306 -0.0616 -0.4186
  865MOL0     O16670   7.222   7.088   9.036  0.1411  0.0158 -0.1732
  865MOL0     C16671   7.264   6.962   9.024 -0.1914  0.6631  0.9124
  865MOL0     C16672   7.391   6.937   8.971 -0.4216  0.0452  0.0178
  865MOL0     C16673   7.433   6.807   8.940 -0.1813 -0.8207 -0.3644
  865MOL0     C16674   7.356   6.700   8.987  0.3349 -0.2763 -0.4400
  865MOL0     O16675   7.387   6.564   8.972 -0.7416  0.3115  1.1048
  865MOL0     C16676   7.495   6.532   8.874  0.3567 -0.3626 -0.8802
  865MOL0     C16677   7.522   6.388   8.852 -0.4909  0.4113 -0.0057
  865MOL0     C16678   7.560   6.327   8.979 -0.2987 -0.3898 -0.6467
  865MOL0     C16679   7.614   6.187   8.945 -0.3674 -0.1267 -0.0736
  865MOL0     C16680   7.681   6.126   9.062  0.7664  1.0097  0.0798
  865MOL0     C16681   7.584   6.093   9.178  0.9576 -0.6819  0.3306
  865MOL0     C16682   7.635   5.975   9.255 -0.4040  1.0699 -0.4337
  865MOL0     C16683   7.593   5.851   9.170 -0.0416  0.0769  0.1692
  865MOL0    Cl16684   7.584   5.697   9.267 -0.5510  0.3256  0.2638
  865MOL0     C16685   7.238   6.727   9.050 -0.0863  0.3819 -0.5899
  865MOL0     C16686   7.184   6.856   9.051 -0.9301 -0.6223  0.0879
  865MOL0     O16687   7.283   7.086   9.263 -0.3338 -0.2844 -0.0597
  865MOL0     C16688   7.144   7.351   9.070  0.4906 -0.0886 -0.1597
  865MOL0     C16689   7.107   7.485   9.073  0.0194 -1.0208  0.0855
  865MOL0     N16690   6.684   7.974   9.424 -0.0371 -0.3677  0.4704
  865MOL0     N16691   6.561   8.007   9.396 -0.5515  0.3504  0.6143
  865MOL0     C16692   7.277   8.327   9.172  0.3816 -0.7431 -0.0237
  865MOL0     C16693   7.382   8.246   9.175 -0.0474  0.9219  0.0747
  865MOL0     C16694   7.682   7.954   9.225  0.4823  0.1931 -0.3375
  865MOL0     C16695   7.799   7.998   9.158  0.2221  0.4942 -0.9902
  865MOL0     C16696   7.933   7.966   9.184  1.0720  0.3706  0.1578
  865MOL0     C16697   7.965   7.881   9.290  0.9790  0.1771  0.1940
  865MOL0     O16698   8.082   7.845   9.326 -0.0128  0.7587  0.4355
  865MOL0     C16699   8.193   7.922   9.297 -0.7787  0.4572  0.7126
  865MOL0     C16700   8.191   8.051   9.370 -0.3887 -0.3006  0.5278
  865MOL0     C16701   8.308   8.137   9.308  0.1841 -0.9814 -0.8026
  865MOL0     C16702   8.273   8.287   9.338  0.3823  0.1484 -0.8370
  865MOL0     C16703   8.347   8.384   9.260 -0.3843  0.3551  0.0213
  865MOL0     C16704   8.432   8.440   9.196 -0.4798  0.1954 -0.1487
  865MOL0     C16705   7.854   7.825   9.362 -0.6249  0.6128  0.5471
  865MOL0     C16706   7.719   7.853   9.324  0.3812 -1.1060 -0.0289
  865MOL0     C16707   7.619   7.808   9.430 -0.9257 -0.0741 -0.0791
  865MOL0     H16708   7.341   8.064   8.898 -2.4130  1.8374 -2.8830
  865MOL0     H16709   7.142   8.203   8.890  2.2210  2.6878 -1.2790
  865MOL0     H16710   6.995   8.371   9.230 -1.2903 -0.1714 -1.5176
  865MOL0     H16711   7.077   8.522   9.210  0.2383 -0.6869  0.1077
  865MOL0     H16712   6.875   8.589   9.057 -1.6062 -0.7411 -0.2594
  865MOL0     H16713   6.840   8.562   9.233 -1.9212 -2.2519 -0.3192
  865MOL0     H16714   6.732   8.347   9.183  0.6042  0.3521  0.4793
  865MOL0     H16715   6.786   8.347   9.025 -1.1002  0.7609 -1.6340
  865MOL0     H16716   6.610   8.564   9.158 -0.8127 -0.1067  0.6264
  865MOL0     H16717   6.627   8.555   8.984  0.1626  1.9893  0.5556
  865MOL0     H16718   6.411   8.439   9.046 -1.2152 -0.3825  0.5997
  865MOL0     H16719   6.528   8.310   9.018  1.1948  0.6932 -0.9237
  865MOL0     H16720   6.559   8.319   9.292 -0.6425 -3.0267  1.1893
  865MOL0     H16721   6.430   8.445   9.285 -1.6116 -0.1675 -0.6552
  865MOL0     H16722   6.287   8.258   9.207 -0.4614  0.8599  0.1407
  865MOL0     H16723   6.372   8.218   9.364 -0.4960 -0.2810  0.3933
  865MOL0     H16724   6.364   8.018   9.206 -0.0133  1.0060  1.6768
  865MOL0     H16725   6.466   8.109   9.095  0.3187  0.8526 -0.0825
  865MOL0     H16726   6.723   8.085   9.119 -1.6690  2.1157  0.2825
  865MOL0     H16727   6.948   8.085   9.334  1.4370 -0.1716  0.3456
  865MOL0     H16728   6.938   7.906   9.393 -3.0394 -1.7287 -1.3452
  865MOL0     H16729   6.949   7.865   9.133  0.9564 -0.0236 -0.1105
  865MOL0     H16730   6.982   8.047   9.124  1.8441  0.6667  0.4824
  865MOL0     H16731   7.160   8.000   9.278 -2.2110 -1.1768  1.6532
  865MOL0     H16732   7.190   7.935   9.109  1.2633  1.4172  0.5105
  865MOL0     H16733   7.109   7.776   9.351 -2.3320  1.6138 -1.0709
  865MOL0     H16734   7.273   7.778   9.294 -0.1571  2.0983 -0.1137
  865MOL0     H16735   7.250   7.563   9.373  0.0520 -1.9184  1.8080
  865MOL0     H16736   7.316   7.315   9.345  0.1595  0.5422  1.3463
  865MOL0     H16737   7.445   7.026   8.941  0.9897  0.6407  3.7346
  865MOL0     H16738   7.518   6.793   8.875 -1.8055 -2.2510 -2.2953
  865MOL0     H16739   7.464   6.578   8.780  0.6395  1.7523  0.0028
  865MOL0     H16740   7.585   6.585   8.906 -0.7029  0.9609  0.0547
  865MOL0     H16741   7.427   6.354   8.810  0.0020 -0.8046 -0.1791
  865MOL0     H16742   7.601   6.370   8.777 -0.7705 -1.0861  0.0206
  865MOL0     H16743   7.634   6.394   9.026 -2.0103  0.0344  1.6008
  865MOL0     H16744   7.472   6.325   9.044  0.5027  0.9764  0.5600
  865MOL0     H16745   7.689   6.182   8.865 -3.0900  1.0476 -2.9041
  865MOL0     H16746   7.537   6.123   8.901  0.2517 -0.0748 -1.2849
  865MOL0     H16747   7.769   6.181   9.097  2.8008 -1.9501  0.0560
  865MOL0     H16748   7.734   6.037   9.027  0.0748  0.5765  0.1174
  865MOL0     H16749   7.585   6.182   9.242 -2.1268 -1.1714  1.2223
  865MOL0     H16750   7.482   6.079   9.143  0.9967  2.9866 -1.7996
  865MOL0     H16751   7.570   5.985   9.342 -3.4784  0.4974 -2.4686
  865MOL0     H16752   7.742   5.975   9.276 -0.3762  0.3539 -0.5591
  865MOL0     H16753   7.492   5.863   9.129 -0.9412 -1.8351  1.6901
  865MOL0     H16754   7.673   5.823   9.101  0.7447  0.8844  0.7343
  865MOL0     H16755   7.169   6.658   9.098  1.3402  0.9908  2.5482
  865MOL0     H16756   7.090   6.878   9.100 -0.4062 -1.3385  1.4660
  865MOL0     H16757   7.107   7.293   8.986 -1.3098  1.3043 -0.3719
  865MOL0     H16758   7.056   7.544   8.997 -0.0906 -1.1858  0.0318
  865MOL0     H16759   7.288   8.404   9.248 -0.6907 -2.2739  1.7913
  865MOL0     H16760   7.466   8.264   9.242 -0.5770  0.8815  0.7682
  865MOL0     H16761   7.770   8.066   9.077  1.4489  2.7508  0.3606
  865MOL0     H16762   8.012   8.015   9.127  0.9469 -1.6806 -1.9192
  865MOL0     H16763   8.211   7.951   9.193  0.0660  1.5875  1.1611
  865MOL0     H16764   8.282   7.868   9.331 -1.4536 -0.8262  0.5017
  865MOL0     H16765   8.213   8.026   9.474 -1.5308  0.0071  0.8566
  865MOL0     H16766   8.094   8.098   9.350  0.3386  0.8508 -0.4556
  865MOL0     H16767   8.323   8.122   9.201 -1.8506 -3.8091 -0.7967
  865MOL0     H16768   8.404   8.134   9.361 -0.5383 -0.7646  0.5711
  865MOL0     H16769   8.166   8.300   9.319  0.2383 -3.2501 -3.3001
  865MOL0     H16770   8.284   8.316   9.443 -0.6224 -1.7636 -0.1627
  865MOL0     H16771   8.502   8.476   9.123  0.7808 -2.0932 -0.1683
  865MOL0     H16772   7.874   7.776   9.457 -0.7568 -1.8480 -0.6100
  865MOL0     H16773   7.663   7.807   9.530  1.4748  1.2303 -1.0423
  865MOL0     H16774   7.530   7.866   9.455 -0.6946 -1.2374  4.3029
  865MOL0     H16775   7.582   7.710   9.400 -1.1656  0.1977 -0.6856
  866MOL0     O16776   2.568   0.059   2.715 -0.9494 -0.0484  0.1680
  866MOL0     C16777   2.539   0.129   2.625  0.0538 -0.0639  0.2046
  866MOL0     O16778   2.434   0.220   2.625  0.2429  1.0380 -0.4573
  866MOL0     C16779   2.353   0.212   2.737 -0.2636 -0.0215  0.1131
  866MOL0     C16780   2.278   0.097   2.774 -0.5027  0.0047  0.5752
  866MOL0     C16781   2.179   0.104   2.878 -0.7825  0.1485  0.3522
  866MOL0     C16782   2.160   0.218   2.952  0.1551  0.1145  0.0565
  866MOL0     O16783   2.075   0.231   3.066  1.0319  0.7709 -0.4420
  866MOL0     C16784   1.968   0.125   3.083 -0.1449  0.6655  1.2525
  866MOL0     C16785   2.009   0.008   3.178 -0.0692 -0.1339  0.3185
  866MOL0     C16786   1.975   0.040   3.329 -0.0573  1.3015  1.5129
  866MOL0     C16787   1.958  -0.082   3.423  0.3654 -0.0529 -0.0800
  866MOL0     C16788   2.094  -0.132   3.463  0.9329 -0.2333 -0.7113
  866MOL0     C16789   2.119  -0.069   3.603 -0.0821 -0.8072  0.3179
  866MOL0     C16790   2.242  -0.133   3.681  0.0028  0.3767 -1.0423
  866MOL0     C16791   2.206  -0.273   3.727 -0.7086 -0.6347 -0.3715
  866MOL0     N16792   2.324  -0.336   3.790  0.3767  0.7732 -0.1500
  866MOL0     C16793   2.325  -0.422   3.900  0.6888  0.0874 -0.9268
  866MOL0     C16794   2.457  -0.443   3.917  0.1099 -0.4339 -0.2550
  866MOL0     C16795   2.505  -0.546   4.009  0.3584  0.0346 -0.0617
  866MOL0     C16796   2.624  -0.475   4.078 -0.9660 -0.0773 -0.9187
  866MOL0     C16797   2.670  -0.576   4.185  0.1810 -1.0427 -0.1651
  866MOL0     C16798   2.751  -0.697   4.134  0.6334  0.4672 -0.3921
  866MOL0     O16799   2.857  -0.639   4.060  0.5367  0.4747  0.2845
  866MOL0     C16800   2.971  -0.622   4.120 -0.0653 -0.3547 -0.9185
  866MOL0     C16801   3.018  -0.631   4.254 -0.1181 -0.2051  0.6803
  866MOL0     C16802   3.151  -0.605   4.288 -0.4040 -0.3760 -0.0720
  866MOL0     C16803   3.248  -0.566   4.195  0.7151 -0.5086  1.1007
  866MOL0     C16804   3.386  -0.533   4.242  0.9854 -0.4754 -0.4308
  866MOL0     O16805   3.475  -0.504   4.147  0.1317 -0.3978  0.2901
  866MOL0     C16806   3.602  -0.470   4.170 -0.6055 -0.4866  0.0098
  866MOL0     C16807   3.700  -0.568   4.156 -0.1243 -0.2799  0.2584
  866MOL0     C16808   3.836  -0.547   4.192 -0.4502  0.6268  0.4558
  866MOL0     C16809   3.881  -0.429   4.249  0.4240 -0.6613 -0.1545
  866MOL0     O16810   4.012  -0.433   4.284  0.1424  0.4139 -0.2457
  866MOL0     C16811   4.046  -0.323   4.358 -0.2888 -0.1783 -0.5238
  866MOL0     C16812   4.177  -0.363   4.426 -0.6934 -0.7743 -0.4744
  866MOL0     C16813   4.142  -0.459   4.533  0.1425  0.4089 -1.1307
  866MOL0     C16814   4.265  -0.508   4.618 -0.1034  1.1380 -0.8724
  866MOL0     C16815   4.228  -0.606   4.730  0.5015 -0.2081 -0.4781
  866MOL0     C16816   4.347  -0.672   4.785 -0.2393 -0.2213 -0.0221
  866MOL0     C16817   4.287  -0.774   4.891 -1.1962 -0.5161  0.3047
  866MOL0     C16818   4.416  -0.826   4.968 -0.4521  0.1289  0.4607
  866MOL0    Cl16819   4.525  -0.925   4.852  0.2461 -0.3297 -0.3070
  866MOL0     C16820   3.785  -0.330   4.270  1.5873  0.2500  0.3823
  866MOL0     C16821   3.644  -0.348   4.238  0.3401 -0.3943  0.1248
  866MOL0     O16822   3.405  -0.538   4.360 -0.6189  0.0101 -0.2580
  866MOL0     C16823   3.207  -0.552   4.057 -0.0780 -0.6992  0.0957
  866MOL0     C16824   3.069  -0.585   4.027 -0.0158  0.9513 -0.3677
  866MOL0     N16825   2.532  -0.382   3.814 -0.1732  0.5035 -1.0422
  866MOL0     N16826   2.449  -0.319   3.741  0.7202  0.4886  0.9685
  866MOL0     C16827   2.232   0.326   2.921 -1.0109  0.7267 -0.4815
  866MOL0     C16828   2.332   0.328   2.817  0.8863  0.4702 -0.0309
  866MOL0     C16829   2.633   0.139   2.508 -0.5403 -0.8092 -0.8024
  866MOL0     C16830   2.617   0.247   2.419  1.1492  0.2748 -0.9517
  866MOL0     C16831   2.716   0.271   2.327 -0.1557  0.4212 -0.1232
  866MOL0     C16832   2.825   0.176   2.302  0.6752 -0.3589 -0.4781
  866MOL0     O16833   2.920   0.207   2.204  0.9131 -0.1805 -0.1451
  866MOL0     C16834   3.042   0.146   2.193  0.1097  0.5221 -0.3541
  866MOL0     C16835   3.151   0.220   2.113  0.1743  1.0903 -0.1765
  866MOL0     C16836   3.112   0.233   1.971  0.4549  0.1594 -0.1811
  866MOL0     C16837   3.203   0.316   1.877  0.0012  1.1226  0.8684
  866MOL0     C16838   3.314   0.228   1.844 -0.5843 -0.3808 -0.4648
  866MOL0     C16839   3.404   0.150   1.828 -0.9916 -0.4742 -0.5403
  866MOL0     C16840   2.827   0.067   2.381 -1.3353  0.6221  0.0664
  866MOL0     C16841   2.734   0.045   2.480  0.1691 -0.5030  0.7992
  866MOL0     C16842   2.752  -0.085   2.567  0.3988 -0.9393 -0.3164
  866MOL0     H16843   2.294   0.013   2.707 -0.9048  1.5176 -1.5085
  866MOL0     H16844   2.140   0.005   2.897  3.6027 -1.5364  1.9756
  866MOL0     H16845   1.873   0.167   3.117  0.6629  4.4745 -0.5996
  866MOL0     H16846   1.944   0.091   2.982  0.9411 -0.4077  1.3296
  866MOL0     H16847   2.115  -0.020   3.172 -0.0460  0.2119 -3.3785
  866MOL0     H16848   1.948  -0.077   3.145 -0.0349 -0.1567  0.3122
  866MOL0     H16849   1.879   0.092   3.333 -2.8181 -2.9914 -0.9999
  866MOL0     H16850   2.057   0.102   3.366  1.0678  0.8822 -0.1371
  866MOL0     H16851   1.894  -0.036   3.500 -1.9615 -0.8349 -1.4423
  866MOL0     H16852   1.900  -0.163   3.379  2.2673 -0.6755 -1.5653
  866MOL0     H16853   2.097  -0.242   3.465 -0.0334 -0.2679  1.3363
  866MOL0     H16854   2.178  -0.100   3.400 -0.2785  1.2950 -1.5977
  866MOL0     H16855   2.135   0.039   3.590 -0.7547 -0.6861  0.5014
  866MOL0     H16856   2.037  -0.080   3.674 -2.3567  2.4349 -1.5508
  866MOL0     H16857   2.263  -0.077   3.772 -1.8146 -1.4834  0.6205
  866MOL0     H16858   2.330  -0.128   3.616 -0.2295  1.2354 -1.3014
  866MOL0     H16859   2.126  -0.247   3.797 -2.1194  2.5386 -2.8647
  866MOL0     H16860   2.175  -0.330   3.639 -0.4503  0.4195 -1.1655
  866MOL0     H16861   2.239  -0.462   3.954 -0.6116  1.5440 -1.8471
  866MOL0     H16862   2.424  -0.574   4.077 -0.7943  3.0671 -0.0633
  866MOL0     H16863   2.545  -0.632   3.953  0.2961 -0.4924  0.6893
  866MOL0     H16864   2.704  -0.472   4.004 -0.1377 -0.5876 -0.0671
  866MOL0     H16865   2.603  -0.376   4.118  0.9592 -0.8040  2.2437
  866MOL0     H16866   2.583  -0.609   4.242 -2.0071  0.3253 -2.5220
  866MOL0     H16867   2.732  -0.518   4.254 -1.7382 -0.3863  1.0799
  866MOL0     H16868   2.690  -0.768   4.076  2.9027 -1.9492  0.0028
  866MOL0     H16869   2.788  -0.762   4.214 -3.0355 -0.2336  0.9624
  866MOL0     H16870   2.936  -0.639   4.324 -0.1098  1.5813  0.9576
  866MOL0     H16871   3.180  -0.612   4.393  4.2183  1.1041 -1.0115
  866MOL0     H16872   3.653  -0.662   4.126  0.2985 -0.7761  1.1086
  866MOL0     H16873   3.908  -0.629   4.192 -2.2756 -1.0970 -1.0874
  866MOL0     H16874   4.068  -0.242   4.288 -2.5507  0.2382 -0.8329
  866MOL0     H16875   3.975  -0.290   4.434 -0.7180 -1.7533 -0.2064
  866MOL0     H16876   4.249  -0.403   4.355  0.3090  2.3639 -1.3871
  866MOL0     H16877   4.213  -0.267   4.465 -0.8260 -0.1839 -1.7616
  866MOL0     H16878   4.078  -0.406   4.604 -0.1313 -2.4240  0.8970
  866MOL0     H16879   4.095  -0.555   4.509  0.5199 -1.7880  5.1772
  866MOL0     H16880   4.307  -0.421   4.669  0.0037 -0.5309  2.1058
  866MOL0     H16881   4.348  -0.553   4.561  2.6722  4.2585  0.4021
  866MOL0     H16882   4.159  -0.683   4.693  0.9254 -0.7827 -0.0953
  866MOL0     H16883   4.168  -0.544   4.797  1.2549  3.5148 -2.9263
  866MOL0     H16884   4.390  -0.730   4.702 -1.5381 -0.8293 -0.2920
  866MOL0     H16885   4.416  -0.604   4.836 -0.8649 -0.1522  0.7375
  866MOL0     H16886   4.238  -0.855   4.836  0.4201 -1.3231 -0.0062
  866MOL0     H16887   4.223  -0.735   4.971 -1.4363  0.2796 -0.2627
  866MOL0     H16888   4.477  -0.742   5.002  0.9051 -0.7258  0.1833
  866MOL0     H16889   4.386  -0.877   5.060  2.0913  0.3975  1.5038
  866MOL0     H16890   3.800  -0.234   4.318 -0.6033  0.5536  0.5670
  866MOL0     H16891   3.564  -0.276   4.257 -0.5581 -1.1016 -0.8699
  866MOL0     H16892   3.273  -0.520   3.977  2.7220  3.9191  3.7078
  866MOL0     H16893   3.036  -0.572   3.925 -0.5318  1.0544 -0.1954
  866MOL0     H16894   2.230   0.410   2.990  0.0091 -1.4727  2.3759
  866MOL0     H16895   2.387   0.417   2.791  0.7113  0.4564 -0.4509
  866MOL0     H16896   2.540   0.323   2.422  1.7205  0.9189 -1.9919
  866MOL0     H16897   2.708   0.356   2.260 -0.4955  0.2864 -0.2554
  866MOL0     H16898   3.010   0.056   2.138  2.1572 -0.3003 -0.2731
  866MOL0     H16899   3.081   0.116   2.290 -2.0921 -3.0098 -0.3372
  866MOL0     H16900   3.242   0.160   2.112  0.7877  1.9983  0.3164
  866MOL0     H16901   3.160   0.320   2.156 -2.8532  1.7648 -0.8902
  866MOL0     H16902   3.022   0.295   1.965 -2.4057 -3.6437 -1.3655
  866MOL0     H16903   3.090   0.141   1.916  2.3914  0.7217 -2.0386
  866MOL0     H16904   3.144   0.336   1.787 -2.1743 -3.7382  0.9012
  866MOL0     H16905   3.237   0.410   1.921 -0.4842  1.5853  0.2717
  866MOL0     H16906   3.483   0.079   1.826 -0.5369  0.0113 -0.0993
  866MOL0     H16907   2.903  -0.007   2.356  0.1395  2.4036 -0.9183
  866MOL0     H16908   2.659  -0.142   2.568 -1.0285  1.2720  0.0247
  866MOL0     H16909   2.835  -0.147   2.531  0.7046  0.0210 -1.3299
  866MOL0     H16910   2.770  -0.054   2.670  0.0792  0.7063 -0.7304
  867MOL0     O16911   4.264   2.867   5.103  1.4242 -0.1526 -0.5377
  867MOL0     C16912   4.138   2.860   5.102  0.6796 -0.2718 -0.4340
  867MOL0     O16913   4.040   2.952   5.060  0.4276  0.5907  0.0652
  867MOL0     C16914   4.081   3.075   5.013 -0.4169 -0.1327 -0.0505
  867MOL0     C16915   4.211   3.126   5.001 -0.3374  0.8690 -0.8436
  867MOL0     C16916   4.231   3.250   4.945 -0.1704 -0.4737  0.7119
  867MOL0     C16917   4.127   3.337   4.907  0.1849 -0.7209 -0.8811
  867MOL0     O16918   4.149   3.468   4.858  0.2878  0.3692 -0.4597
  867MOL0     C16919   4.265   3.542   4.905 -0.1652 -0.1261  0.3140
  867MOL0     C16920   4.269   3.673   4.836  0.3606 -0.4425 -0.3658
  867MOL0     C16921   4.255   3.663   4.680  0.2790 -0.1977 -0.4327
  867MOL0     C16922   4.271   3.805   4.605 -1.0877  0.2084  0.0158
  867MOL0     C16923   4.421   3.813   4.574 -0.3227  0.0262 -0.5316
  867MOL0     C16924   4.443   3.937   4.490 -0.4892 -0.0748 -0.2116
  867MOL0     C16925   4.599   3.960   4.477 -0.5333  0.0052 -0.2666
  867MOL0     C16926   4.657   3.864   4.380  0.7579  0.1805 -1.0932
  867MOL0     N16927   4.790   3.915   4.340 -0.2391  1.1028 -0.2883
  867MOL0     C16928   4.909   3.856   4.384  0.8785  0.6307  1.3440
  867MOL0     C16929   4.995   3.946   4.338 -0.2859  0.0702  1.0279
  867MOL0     C16930   5.132   3.943   4.390  0.2888 -0.6091 -0.4269
  867MOL0     C16931   5.218   3.830   4.326  0.2498  0.7844  0.1150
  867MOL0     C16932   5.370   3.847   4.324 -0.0343 -0.0705  0.1795
  867MOL0     C16933   5.434   3.863   4.463  0.3005  0.2525 -0.1676
  867MOL0     O16934   5.581   3.879   4.442 -0.3734 -0.2914  0.5083
  867MOL0     C16935   5.672   3.921   4.539 -0.1387  1.2563 -0.0029
  867MOL0     C16936   5.626   3.981   4.660  0.1543 -0.6113 -0.1003
  867MOL0     C16937   5.728   4.017   4.752 -0.6225  1.2567 -0.1954
  867MOL0     C16938   5.868   4.000   4.732  0.3668  0.2264  1.0468
  867MOL0     C16939   5.954   4.039   4.837  0.2531 -0.8615 -0.2274
  867MOL0     O16940   5.916   4.131   4.936  0.9405  0.0162  0.2981
  867MOL0     C16941   6.015   4.188   5.018  0.4347 -0.3283  0.1190
  867MOL0     C16942   6.060   4.321   5.016 -0.8262 -0.4295 -0.3083
  867MOL0     C16943   6.165   4.368   5.091 -0.0815 -0.4671 -0.0863
  867MOL0     C16944   6.236   4.279   5.168  1.0980 -0.3846 -0.0656
  867MOL0     O16945   6.338   4.307   5.254  0.0990 -0.0938 -0.5905
  867MOL0     C16946   6.448   4.374   5.195  0.0948  0.3326  0.5720
  867MOL0     C16947   6.581   4.329   5.262  0.2351  0.5923  0.3800
  867MOL0     C16948   6.581   4.340   5.413  0.0545 -0.1155  0.6173
  867MOL0     C16949   6.723   4.319   5.467 -0.1242 -0.6100 -0.5387
  867MOL0     C16950   6.725   4.298   5.614  0.0648  0.3642 -0.1400
  867MOL0     C16951   6.851   4.223   5.672  0.3995  0.7027 -0.0547
  867MOL0     C16952   6.986   4.283   5.623  0.0578  0.4367 -0.4135
  867MOL0     C16953   7.113   4.235   5.684 -0.7714 -0.7264  0.5607
  867MOL0    Cl16954   7.177   4.094   5.600  0.0882 -0.2763 -0.5543
  867MOL0     C16955   6.187   4.141   5.178 -0.2101  0.8349  1.1010
  867MOL0     C16956   6.075   4.098   5.097 -0.4514 -0.3062 -0.4916
  867MOL0     O16957   6.065   4.000   4.826  0.1475  0.3542 -0.1465
  867MOL0     C16958   5.907   3.930   4.613  0.4350  0.4129  0.1303
  867MOL0     C16959   5.810   3.898   4.518  0.0487  0.0076 -0.2999
  867MOL0     N16960   4.936   4.035   4.258 -0.7866 -0.2369  0.1161
  867MOL0     N16961   4.812   4.017   4.260 -0.3573  0.4553  0.6761
  867MOL0     C16962   3.996   3.287   4.917 -0.6048 -0.0541  1.0801
  867MOL0     C16963   3.977   3.152   4.962 -0.3674 -0.4954 -0.1834
  867MOL0     C16964   4.083   2.735   5.170  0.5301 -0.6878 -0.2654
  867MOL0     C16965   4.157   2.681   5.286 -0.3110 -0.7520  0.7813
  867MOL0     C16966   4.114   2.561   5.351  0.5171 -0.1918  0.1251
  867MOL0     C16967   3.997   2.497   5.304  0.2727 -0.8307  0.2974
  867MOL0     O16968   3.951   2.381   5.373 -0.3813 -0.2473  0.5748
  867MOL0     C16969   4.046   2.275   5.412 -0.4785 -0.2587  0.4663
  867MOL0     C16970   3.989   2.139   5.453 -0.6267 -0.8712  0.1226
  867MOL0     C16971   3.944   2.068   5.319 -0.2283 -0.8768  0.4758
  867MOL0     C16972   3.895   1.922   5.343 -0.8730 -0.2137 -0.4756
  867MOL0     C16973   3.994   1.832   5.409 -0.0227 -0.0243  0.3975
  867MOL0     C16974   4.066   1.757   5.468 -0.7441 -0.4944 -1.0261
  867MOL0     C16975   3.934   2.544   5.186 -0.3400 -0.7188 -0.4050
  867MOL0     C16976   3.972   2.666   5.120  0.2894 -0.1443  0.6728
  867MOL0     C16977   3.909   2.696   4.983  0.3682  0.0326  0.1509
  867MOL0     H16978   4.301   3.072   5.029  0.2892  1.4913 -1.6223
  867MOL0     H16979   4.335   3.280   4.931 -0.2620 -1.0017 -1.3925
  867MOL0     H16980   4.261   3.556   5.013 -0.2958 -2.7924  0.7247
  867MOL0     H16981   4.350   3.480   4.874 -1.7655 -1.1282 -2.5006
  867MOL0     H16982   4.360   3.727   4.866 -0.0524 -1.3346  2.8196
  867MOL0     H16983   4.188   3.738   4.870 -0.7474 -2.2271  0.5524
  867MOL0     H16984   4.157   3.620   4.658  1.7328 -2.0955 -3.9806
  867MOL0     H16985   4.325   3.587   4.644 -0.7106 -2.9352  2.8307
  867MOL0     H16986   4.208   3.798   4.516 -0.2644 -3.6174 -0.4494
  867MOL0     H16987   4.222   3.880   4.668 -5.2114 -0.7299 -1.7702
  867MOL0     H16988   4.471   3.819   4.671  1.2173  1.4442 -1.3551
  867MOL0     H16989   4.452   3.723   4.520 -1.1980  0.0779 -1.1559
  867MOL0     H16990   4.391   3.933   4.393  1.4350  2.7029 -1.4985
  867MOL0     H16991   4.387   4.021   4.534 -0.2333 -0.7848  1.5369
  867MOL0     H16992   4.643   3.948   4.577 -2.5706 -1.6165  0.5168
  867MOL0     H16993   4.629   4.061   4.447  1.5160 -0.6493 -0.5713
  867MOL0     H16994   4.652   3.765   4.426 -3.3480  0.1630 -1.1900
  867MOL0     H16995   4.589   3.861   4.294  2.9165  2.3506 -2.9967
  867MOL0     H16996   4.920   3.770   4.449 -0.4469 -2.9740 -2.7697
  867MOL0     H16997   5.180   4.033   4.352  0.7165 -1.4617 -2.0214
  867MOL0     H16998   5.144   3.938   4.498 -2.2906  3.0639  0.2162
  867MOL0     H16999   5.194   3.736   4.377  0.9215  0.3225 -0.4040
  867MOL0     H17000   5.177   3.824   4.224 -1.2910  2.4401  0.5972
  867MOL0     H17001   5.394   3.938   4.268  0.1903 -0.1135  0.2023
  867MOL0     H17002   5.422   3.764   4.275 -1.4054 -1.7549  1.4708
  867MOL0     H17003   5.416   3.771   4.519  1.5151  0.3342  0.3925
  867MOL0     H17004   5.389   3.948   4.515  1.9214  0.6431  0.6757
  867MOL0     H17005   5.524   4.004   4.687 -0.6296 -2.3515 -1.3682
  867MOL0     H17006   5.697   4.067   4.843 -0.0760  0.8314  0.2338
  867MOL0     H17007   6.005   4.394   4.958  2.9483  1.1331 -2.2167
  867MOL0     H17008   6.181   4.475   5.095 -1.8826 -0.1195 -0.8583
  867MOL0     H17009   6.460   4.350   5.089 -1.8497  0.0062  0.3905
  867MOL0     H17010   6.435   4.481   5.212  2.0455  0.4289  1.7536
  867MOL0     H17011   6.607   4.231   5.219  0.3214  0.9772 -0.4754
  867MOL0     H17012   6.655   4.403   5.229 -0.6640 -0.1629 -3.9220
  867MOL0     H17013   6.541   4.439   5.439 -1.4390  0.2611 -2.7134
  867MOL0     H17014   6.516   4.265   5.457  1.3884 -2.2770 -0.8862
  867MOL0     H17015   6.785   4.408   5.454  0.4661 -1.1222 -1.3479
  867MOL0     H17016   6.765   4.234   5.411 -1.9073 -2.6124  0.9877
  867MOL0     H17017   6.642   4.234   5.646  1.4884 -1.1186  0.7334
  867MOL0     H17018   6.726   4.396   5.660 -1.1258 -0.5805  2.0439
  867MOL0     H17019   6.857   4.243   5.779 -1.1232  1.5095 -0.0932
  867MOL0     H17020   6.831   4.117   5.653  3.1919  0.3484 -1.5285
  867MOL0     H17021   6.975   4.392   5.627 -0.2365  0.4883 -1.8731
  867MOL0     H17022   6.992   4.263   5.515 -2.3173 -1.1918 -0.3287
  867MOL0     H17023   7.185   4.317   5.691 -0.6854 -0.2827 -3.3388
  867MOL0     H17024   7.099   4.212   5.790  1.6098 -1.6692  0.7466
  867MOL0     H17025   6.218   4.059   5.242 -1.3642 -2.3015 -2.0195
  867MOL0     H17026   6.037   3.998   5.118 -0.2330  0.0155  1.6425
  867MOL0     H17027   6.012   3.921   4.586  0.6634  0.3215  1.0305
  867MOL0     H17028   5.834   3.846   4.426 -1.6518 -0.6178 -0.4310
  867MOL0     H17029   3.921   3.357   4.883 -0.2122  0.1685  0.6621
  867MOL0     H17030   3.877   3.109   4.967 -1.6165  2.2047 -0.0085
  867MOL0     H17031   4.245   2.730   5.325 -0.1312  0.7507 -1.3723
  867MOL0     H17032   4.167   2.520   5.436 -2.6110 -2.3871  1.2005
  867MOL0     H17033   4.103   2.316   5.496 -0.4783  1.8302 -0.4885
  867MOL0     H17034   4.116   2.260   5.330 -1.4840 -1.4288 -0.2102
  867MOL0     H17035   3.904   2.151   5.521 -0.3052  2.0819  0.1661
  867MOL0     H17036   4.064   2.086   5.512  0.6214  0.9236  0.2406
  867MOL0     H17037   4.020   2.057   5.242  0.4258  1.3332  0.7420
  867MOL0     H17038   3.872   2.135   5.271  1.7606  0.6469 -0.4981
  867MOL0     H17039   3.810   1.924   5.412  0.1348 -1.6739  0.8694
  867MOL0     H17040   3.865   1.892   5.242 -0.1223  0.4758 -0.9185
  867MOL0     H17041   4.128   1.694   5.529 -1.4597 -0.9271 -0.7430
  867MOL0     H17042   3.856   2.488   5.136  0.3796 -1.8310 -0.3100
  867MOL0     H17043   3.811   2.646   4.981  0.3360  0.1098 -2.4743
  867MOL0     H17044   3.877   2.800   4.974  0.6122  0.0647 -0.3512
  867MOL0     H17045   3.958   2.666   4.890 -0.2016 -2.6621  0.6325
  868MOL0     O17046   9.351   5.939   4.650 -0.0229  0.0720 -0.2670
  868MOL0     C17047   9.430   6.001   4.572  0.8034 -0.9231 -0.7329
  868MOL0     O17048   9.564   5.971   4.562  0.4154  0.0205 -0.6267
  868MOL0     C17049   9.622   5.864   4.632 -0.1221  0.0127  0.1585
  868MOL0     C17050   9.690   5.767   4.556  0.2490 -0.1050  0.2312
  868MOL0     C17051   9.751   5.658   4.624 -0.1883  0.2615  0.0639
  868MOL0     C17052   9.746   5.648   4.765  0.2465 -0.3688  0.2507
  868MOL0     O17053   9.788   5.535   4.825 -0.3530 -0.2697  0.0589
  868MOL0     C17054   9.874   5.568   4.940  0.1797  0.8459 -0.5657
  868MOL0     C17055  10.011   5.504   4.930  0.2297 -0.1967 -0.1267
  868MOL0     C17056  10.100   5.534   4.809 -1.0687 -0.6506 -0.3171
  868MOL0     C17057  10.101   5.411   4.709 -0.6828  0.1638  0.5487
  868MOL0     C17058  10.198   5.447   4.591  0.3062 -0.1429 -0.4782
  868MOL0     C17059  10.129   5.516   4.475 -1.0162 -0.2274  0.1991
  868MOL0     C17060  10.055   5.415   4.386  0.6291  0.0745  0.5378
  868MOL0     C17061  10.035   5.472   4.244  0.1637  0.4387  0.0387
  868MOL0     N17062   9.949   5.598   4.240  0.3582  0.0969  0.0852
  868MOL0     C17063   9.818   5.604   4.197  0.1551 -0.5737 -0.8153
  868MOL0     C17064   9.799   5.735   4.196  1.1428  0.8135  0.0081
  868MOL0     C17065   9.652   5.770   4.193 -0.4417 -0.5785  0.1168
  868MOL0     C17066   9.616   5.823   4.058  0.6333 -0.6130  0.3383
  868MOL0     C17067   9.467   5.855   4.067  0.5358  1.5572  0.2753
  868MOL0     C17068   9.421   5.936   3.950  0.6802 -0.2064 -0.1782
  868MOL0     O17069   9.457   6.071   3.952 -0.2379 -0.2908  0.1653
  868MOL0     C17070   9.378   6.151   3.871 -0.9740  0.7388 -0.0681
  868MOL0     C17071   9.363   6.285   3.897  1.5134 -0.3239  0.0860
  868MOL0     C17072   9.272   6.368   3.819  0.1765 -1.2466 -0.8853
  868MOL0     C17073   9.192   6.316   3.721  0.4085 -0.3508  0.6469
  868MOL0     C17074   9.081   6.395   3.662 -0.4486 -0.0540 -0.3251
  868MOL0     O17075   9.023   6.344   3.554  0.5816  0.4451  0.0508
  868MOL0     C17076   8.910   6.408   3.507 -0.6077 -0.3902 -0.4667
  868MOL0     C17077   8.914   6.427   3.378 -0.6382  0.0249  0.7393
  868MOL0     C17078   8.806   6.490   3.311  0.3320 -0.5105  0.3958
  868MOL0     C17079   8.710   6.561   3.385  0.9125 -0.7274  1.5167
  868MOL0     O17080   8.605   6.634   3.333  0.8575 -0.3016  0.2414
  868MOL0     C17081   8.526   6.561   3.233 -0.1051  0.1240 -0.1453
  868MOL0     C17082   8.426   6.656   3.162 -0.3666  0.5266  0.2561
  868MOL0     C17083   8.367   6.589   3.034  0.1807 -0.3980  0.6077
  868MOL0     C17084   8.315   6.693   2.935 -1.0622 -0.3852 -0.3452
  868MOL0     C17085   8.198   6.633   2.849  0.1437  0.5952 -0.0815
  868MOL0     C17086   8.239   6.517   2.753 -0.8403 -0.1853  0.2947
  868MOL0     C17087   8.158   6.476   2.634  0.3051 -0.2469 -0.4271
  868MOL0     C17088   8.221   6.353   2.568 -0.3308  0.4246  0.1510
  868MOL0    Cl17089   8.105   6.269   2.447  0.4116  0.2183 -0.2117
  868MOL0     C17090   8.708   6.531   3.522  0.3207  0.9917  0.4953
  868MOL0     C17091   8.799   6.452   3.582 -0.1498  0.2375 -0.4508
  868MOL0     O17092   9.053   6.506   3.704  0.1137  0.3014 -0.3843
  868MOL0     C17093   9.223   6.183   3.685 -0.1954  0.9602 -0.7620
  868MOL0     C17094   9.309   6.099   3.761 -0.0487 -0.9938  0.9619
  868MOL0     N17095   9.897   5.808   4.239 -0.7272  0.5116 -0.3256
  868MOL0     N17096  10.000   5.727   4.260  0.7228 -0.8282 -0.4316
  868MOL0     C17097   9.663   5.738   4.838 -0.6658 -0.1218 -0.2903
  868MOL0     C17098   9.604   5.849   4.769  0.2065 -0.4662 -0.2679
  868MOL0     C17099   9.383   6.113   4.490  1.0174  0.1591 -0.4385
  868MOL0     C17100   9.452   6.144   4.378 -0.0775 -0.3515 -0.0083
  868MOL0     C17101   9.411   6.240   4.287  0.3605 -0.0475 -0.3544
  868MOL0     C17102   9.285   6.292   4.303 -0.9105  0.3369 -1.1595
  868MOL0     O17103   9.234   6.388   4.208 -0.4249 -0.2439  0.6605
  868MOL0     C17104   9.313   6.509   4.186 -0.2273  0.3404  0.5955
  868MOL0     C17105   9.358   6.583   4.310  0.8624  0.9191 -0.3451
  868MOL0     C17106   9.414   6.719   4.258  0.1089  1.1979  0.0443
  868MOL0     C17107   9.486   6.800   4.365 -1.0552  0.6302  0.3396
  868MOL0     C17108   9.579   6.723   4.442 -0.4126 -1.1063 -0.7844
  868MOL0     C17109   9.670   6.680   4.503  0.7457  0.2105 -0.2299
  868MOL0     C17110   9.213   6.266   4.414 -1.1998  0.8415  0.4779
  868MOL0     C17111   9.258   6.180   4.511  0.4434  0.7361 -0.4160
  868MOL0     C17112   9.160   6.149   4.630  0.0034  0.6891  0.3083
  868MOL0     H17113   9.677   5.777   4.449 -2.0825 -2.1301  0.2352
  868MOL0     H17114   9.793   5.573   4.571 -0.7830 -0.1730  0.2768
  868MOL0     H17115   9.900   5.673   4.950 -2.6523  1.8693 -2.4412
  868MOL0     H17116   9.826   5.531   5.031  2.2044  0.5513  0.4283
  868MOL0     H17117   9.991   5.397   4.942 -1.4176  0.2240  1.2535
  868MOL0     H17118  10.065   5.533   5.020 -0.5149  1.3545 -0.1486
  868MOL0     H17119  10.201   5.565   4.838 -0.7834 -0.3218 -1.5939
  868MOL0     H17120  10.054   5.619   4.758  0.2117 -0.1587 -0.6830
  868MOL0     H17121  10.137   5.329   4.771  0.5252  1.6372  1.8968
  868MOL0     H17122  10.001   5.385   4.674 -0.0304 -2.3369  0.4001
  868MOL0     H17123  10.268   5.518   4.636 -0.0873 -1.4381  2.4627
  868MOL0     H17124  10.253   5.357   4.563 -2.2152 -1.3505 -1.9175
  868MOL0     H17125  10.075   5.601   4.518  1.0269  0.5054  1.4062
  868MOL0     H17126  10.213   5.556   4.418  1.4615 -1.8982  2.4348
  868MOL0     H17127   9.952   5.400   4.420  0.3251  2.7403  0.9918
  868MOL0     H17128  10.116   5.324   4.386 -1.6782 -1.6551  3.2182
  868MOL0     H17129  10.130   5.487   4.192  0.6253  2.8414  1.4122
  868MOL0     H17130   9.976   5.388   4.207  3.2544 -3.0032  2.2222
  868MOL0     H17131   9.755   5.517   4.182 -0.8856  0.4435 -2.7209
  868MOL0     H17132   9.584   5.686   4.207  0.2824 -2.0470 -3.8930
  868MOL0     H17133   9.631   5.853   4.262  4.0991  0.4445  0.5720
  868MOL0     H17134   9.681   5.910   4.047  0.2552 -0.5839 -2.5524
  868MOL0     H17135   9.651   5.765   3.972  2.4955  2.4438 -1.1285
  868MOL0     H17136   9.445   5.917   4.154 -1.8412 -0.8515  1.5301
  868MOL0     H17137   9.399   5.770   4.073 -1.1147  2.9469  3.3579
  868MOL0     H17138   9.313   5.924   3.961  0.8032 -0.2027  1.0869
  868MOL0     H17139   9.458   5.888   3.859  2.5287  1.3514 -0.3051
  868MOL0     H17140   9.422   6.329   3.977  0.5937  0.3760  0.4025
  868MOL0     H17141   9.276   6.471   3.853  2.0766 -1.4997 -0.1701
  868MOL0     H17142   8.999   6.383   3.327 -0.0856  0.6671  1.0941
  868MOL0     H17143   8.800   6.508   3.204 -2.2519  1.1382  0.7409
  868MOL0     H17144   8.595   6.535   3.151  2.1453  2.1984  0.9768
  868MOL0     H17145   8.471   6.473   3.268  0.9568 -0.3562  0.3560
  868MOL0     H17146   8.344   6.680   3.230 -1.2254 -1.3143 -0.0429
  868MOL0     H17147   8.478   6.751   3.150  1.9537 -0.5123  1.3822
  868MOL0     H17148   8.439   6.526   2.981  0.0691  0.6090 -0.8103
  868MOL0     H17149   8.288   6.527   3.076 -0.2674 -0.8721 -0.8534
  868MOL0     H17150   8.386   6.740   2.866 -2.3732  2.1732 -0.0960
  868MOL0     H17151   8.263   6.771   2.991 -1.4406  0.0135 -1.2250
  868MOL0     H17152   8.151   6.713   2.792  3.1292  1.1486 -2.0417
  868MOL0     H17153   8.122   6.595   2.917 -1.0023 -3.3479 -3.1901
  868MOL0     H17154   8.332   6.550   2.706 -0.1734 -2.8118 -0.3730
  868MOL0     H17155   8.261   6.439   2.826  1.3420  1.1354  1.1511
  868MOL0     H17156   8.154   6.557   2.561 -1.5595  1.4071  1.3973
  868MOL0     H17157   8.058   6.453   2.670  1.5056 -1.2129  2.6134
  868MOL0     H17158   8.298   6.393   2.502 -0.8279  0.3867 -0.4599
  868MOL0     H17159   8.277   6.285   2.634 -0.0696  1.2149  0.7603
  868MOL0     H17160   8.641   6.593   3.582  0.3384  2.4616 -0.9103
  868MOL0     H17161   8.794   6.439   3.689 -1.2478 -2.5398 -0.7603
  868MOL0     H17162   9.160   6.125   3.617 -0.8111 -1.5520  1.7941
  868MOL0     H17163   9.327   6.000   3.720 -1.3356 -0.6774 -0.4535
  868MOL0     H17164   9.664   5.742   4.947 -1.3068 -0.9691 -0.2419
  868MOL0     H17165   9.557   5.924   4.831  0.4775  0.7302 -1.4587
  868MOL0     H17166   9.546   6.098   4.348  0.5535  0.7598  0.2280
  868MOL0     H17167   9.461   6.272   4.196  1.1168 -0.0416  0.0547
  868MOL0     H17168   9.251   6.581   4.131  2.9971  1.3834 -1.9876
  868MOL0     H17169   9.396   6.488   4.118  1.9355  0.6296  2.9915
  868MOL0     H17170   9.427   6.529   4.374 -0.2871 -0.0714  0.0952
  868MOL0     H17171   9.269   6.610   4.367  1.8248  0.3955  1.4799
  868MOL0     H17172   9.336   6.782   4.214 -0.8065  0.2382  0.2625
  868MOL0     H17173   9.492   6.697   4.185  0.6022 -2.5437  1.4493
  868MOL0     H17174   9.538   6.884   4.320  3.3206 -1.5847  0.6863
  868MOL0     H17175   9.411   6.837   4.435 -1.4593 -2.6659  1.8774
  868MOL0     H17176   9.751   6.637   4.559  0.4660 -0.8488 -0.6173
  868MOL0     H17177   9.130   6.332   4.440 -1.7290 -0.7089  3.0872
  868MOL0     H17178   9.098   6.062   4.607  3.7038 -2.7856  2.3496
  868MOL0     H17179   9.205   6.118   4.725 -2.4679  0.4276  1.5037
  868MOL0     H17180   9.085   6.229   4.644  0.1366  0.7907  0.4504
  869MOL0     O17181   9.593  10.980   6.049  0.0123  0.7763  0.8333
  869MOL0     C17182   9.491  10.924   6.087 -0.3071 -0.5433 -0.0797
  869MOL0     O17183   9.361  10.956   6.037 -0.7717  0.1365 -0.6359
  869MOL0     C17184   9.351  11.000   5.905  0.0172  0.9155 -0.0113
  869MOL0     C17185   9.424  10.931   5.802  0.1691  0.0190 -0.2229
  869MOL0     C17186   9.384  10.943   5.671 -0.3110 -0.1117  0.7174
  869MOL0     C17187   9.287  11.039   5.627 -0.4017 -0.1039 -1.4519
  869MOL0     O17188   9.258  11.059   5.499  0.2672 -0.3626 -0.3240
  869MOL0     C17189   9.258  10.951   5.408 -0.3002 -0.6364 -0.5820
  869MOL0     C17190   9.213  10.977   5.267  1.1558  0.7055  0.4818
  869MOL0     C17191   9.292  11.070   5.180  0.7239  0.3111 -0.0686
  869MOL0     C17192   9.262  11.219   5.218 -0.7022  0.5937 -0.4940
  869MOL0     C17193   9.338  11.305   5.115  0.1613 -0.0502 -1.0048
  869MOL0     C17194   9.250  11.322   4.980 -0.2900 -0.6779  0.1662
  869MOL0     C17195   9.334  11.388   4.869  0.5009  0.2755 -0.3953
  869MOL0     C17196   9.255  11.457   4.758 -0.0810 -1.2741  0.1832
  869MOL0     N17197   9.215  11.599   4.796 -0.9249  0.4371  0.2230
  869MOL0     C17198   9.222  11.646   4.922 -0.0129  0.0277 -1.1598
  869MOL0     C17199   9.145  11.758   4.925  0.0084  0.1509  1.3810
  869MOL0     C17200   9.124  11.839   5.048 -0.3255 -0.4360 -0.2722
  869MOL0     C17201   9.070  11.758   5.173 -0.1994 -0.4247  0.3591
  869MOL0     C17202   8.973  11.841   5.252  0.0832  0.2689 -1.1164
  869MOL0     C17203   8.926  11.788   5.385 -0.5988  0.7937 -1.3442
  869MOL0     O17204   8.871  11.661   5.371  0.3003  0.4709  0.0338
  869MOL0     C17205   8.846  11.600   5.493 -0.3249  0.9232 -0.4389
  869MOL0     C17206   8.825  11.675   5.608 -0.1615  0.1800  1.2472
  869MOL0     C17207   8.803  11.614   5.736  0.4990  0.3560  0.1964
  869MOL0     C17208   8.812  11.477   5.741  0.4163 -0.1706 -0.7360
  869MOL0     C17209   8.780  11.403   5.865  0.6041 -0.3639  0.4101
  869MOL0     O17210   8.727  11.467   5.980 -0.5214 -0.3526  1.8604
  869MOL0     C17211   8.699  11.400   6.092  0.2201 -0.4959  0.2939
  869MOL0     C17212   8.781  11.413   6.201  1.0101 -0.7887  0.0148
  869MOL0     C17213   8.756  11.342   6.319 -0.7151 -0.3129 -0.1048
  869MOL0     C17214   8.657  11.247   6.330  1.1142  0.5502  0.7868
  869MOL0     O17215   8.619  11.170   6.438  0.2161  0.6391 -0.1328
  869MOL0     C17216   8.683  11.184   6.556 -0.3880  0.2195 -0.3860
  869MOL0     C17217   8.599  11.118   6.666 -0.2639 -0.5261  1.0210
  869MOL0     C17218   8.586  10.962   6.679  0.5691  1.1570  0.5879
  869MOL0     C17219   8.700  10.891   6.732  0.1815  0.1203 -0.1190
  869MOL0     C17220   8.677  10.744   6.724 -0.1063  0.2695 -0.1141
  869MOL0     C17221   8.777  10.650   6.788  1.3032 -0.4806 -0.2365
  869MOL0     C17222   8.766  10.500   6.750  1.0737  0.7627  0.0509
  869MOL0     C17223   8.903  10.417   6.759 -0.3044  0.3310 -0.7030
  869MOL0    Cl17224   8.911  10.294   6.622  0.3113 -0.0455 -0.0892
  869MOL0     C17225   8.573  11.243   6.217  0.0269 -0.0870  0.5498
  869MOL0     C17226   8.593  11.322   6.095 -1.0528 -0.4672 -0.5475
  869MOL0     O17227   8.815  11.290   5.857  0.6546  0.9015  0.1366
  869MOL0     C17228   8.839  11.403   5.619 -0.5041  0.2937 -1.2519
  869MOL0     C17229   8.854  11.462   5.498  0.0339  0.0375 -0.1735
  869MOL0     N17230   9.103  11.794   4.790 -0.3511  0.2805  0.0161
  869MOL0     N17231   9.149  11.694   4.718 -0.0626  0.0398 -0.0754
  869MOL0     C17232   9.221  11.108   5.736 -0.6977 -0.4476  0.2680
  869MOL0     C17233   9.257  11.094   5.871 -0.2941  0.8063 -0.2998
  869MOL0     C17234   9.488  10.816   6.190 -0.5047 -0.2493  0.6322
  869MOL0     C17235   9.365  10.784   6.250 -0.9718  0.5869 -0.1417
  869MOL0     C17236   9.365  10.675   6.343  0.5997  0.1446 -0.5434
  869MOL0     C17237   9.478  10.619   6.396 -1.0922  0.7573 -0.9365
  869MOL0     O17238   9.483  10.523   6.495 -0.2486 -0.3807 -0.4234
  869MOL0     C17239   9.548  10.556   6.617  0.3128 -0.4473 -0.9681
  869MOL0     C17240   9.435  10.598   6.718 -1.1702  0.2872 -0.4240
  869MOL0     C17241   9.323  10.502   6.753  0.4286  0.5401 -0.6849
  869MOL0     C17242   9.331  10.350   6.716 -1.0002  0.4252 -1.2081
  869MOL0     C17243   9.464  10.277   6.759  0.4910 -0.7775 -0.4817
  869MOL0     C17244   9.564  10.215   6.786 -0.5478 -0.3927  0.3326
  869MOL0     C17245   9.598  10.653   6.330 -0.3794 -0.5533 -0.4088
  869MOL0     C17246   9.604  10.744   6.224 -0.5474 -0.8062 -1.1708
  869MOL0     C17247   9.735  10.754   6.154  0.1743 -0.0692 -0.1466
  869MOL0     H17248   9.489  10.848   5.828 -1.3918 -0.4581  2.4768
  869MOL0     H17249   9.429  10.877   5.598 -2.2700 -0.5253 -0.1831
  869MOL0     H17250   9.355  10.903   5.400  0.3244  0.7678 -1.9635
  869MOL0     H17251   9.188  10.872   5.438 -0.8468  0.0976  0.1540
  869MOL0     H17252   9.106  10.995   5.255  0.6195 -2.1021  0.4154
  869MOL0     H17253   9.212  10.875   5.227 -1.0245  0.1422  1.7717
  869MOL0     H17254   9.270  11.063   5.073  0.0205  3.8740 -0.2876
  869MOL0     H17255   9.398  11.046   5.195  0.5406 -0.2661  0.3286
  869MOL0     H17256   9.154  11.237   5.213 -0.9464 -1.1006 -2.5528
  869MOL0     H17257   9.299  11.248   5.317 -2.0949 -0.0320  0.2411
  869MOL0     H17258   9.352  11.406   5.156  0.6048 -0.7769  0.7036
  869MOL0     H17259   9.441  11.281   5.087  1.0581  3.7292 -1.5283
  869MOL0     H17260   9.228  11.226   4.933  0.8091  0.0077 -1.8936
  869MOL0     H17261   9.160  11.382   5.000 -0.5530 -0.8265 -0.5515
  869MOL0     H17262   9.400  11.311   4.829  1.8594  0.3278  1.6024
  869MOL0     H17263   9.406  11.461   4.907 -1.2778  2.4788 -1.0355
  869MOL0     H17264   9.320  11.453   4.670  0.9635 -0.1673  0.8807
  869MOL0     H17265   9.161  11.404   4.741 -1.3940 -0.1252  3.1115
  869MOL0     H17266   9.271  11.601   5.008  0.0086  0.9959 -0.6559
  869MOL0     H17267   9.223  11.882   5.065 -0.7044  0.7529 -1.0339
  869MOL0     H17268   9.048  11.915   5.028 -2.3618 -2.0108  0.9861
  869MOL0     H17269   9.016  11.670   5.138  1.6364 -0.9219 -1.3890
  869MOL0     H17270   9.154  11.729   5.235  1.8255 -0.5445 -2.2555
  869MOL0     H17271   8.878  11.857   5.200 -0.8435 -2.5835 -0.4816
  869MOL0     H17272   9.031  11.931   5.272  1.6787 -1.1131  1.0216
  869MOL0     H17273   8.850  11.858   5.421 -1.7519  0.7249 -3.4556
  869MOL0     H17274   9.010  11.793   5.455 -1.4434  1.3236 -0.3564
  869MOL0     H17275   8.813  11.782   5.615 -4.7338  0.1093 -1.4048
  869MOL0     H17276   8.770  11.678   5.817 -1.4959 -1.6335  1.0671
  869MOL0     H17277   8.873  11.470   6.202  1.5058 -1.4735 -1.9227
  869MOL0     H17278   8.835  11.360   6.392 -1.4513  1.4824  0.3026
  869MOL0     H17279   8.779  11.133   6.546 -0.7418 -0.1550 -2.0631
  869MOL0     H17280   8.699  11.291   6.573  0.7964  0.2754 -1.6747
  869MOL0     H17281   8.629  11.158   6.763 -0.6848  0.3981  0.7740
  869MOL0     H17282   8.496  11.153   6.652 -0.4246 -1.2193  0.4179
  869MOL0     H17283   8.503  10.950   6.749  0.1923 -0.4301 -0.0800
  869MOL0     H17284   8.555  10.913   6.586  2.3582  0.5437  0.2861
  869MOL0     H17285   8.705  10.917   6.838 -3.8836 -1.9795  0.7656
  869MOL0     H17286   8.794  10.926   6.688  0.3838  0.6395  0.7078
  869MOL0     H17287   8.673  10.718   6.618 -3.9042  0.4371 -0.1465
  869MOL0     H17288   8.579  10.730   6.771 -0.2000  2.4140  0.4393
  869MOL0     H17289   8.875  10.693   6.764  0.3171  0.5818 -2.6342
  869MOL0     H17290   8.768  10.662   6.897 -2.0603  2.8023 -0.6686
  869MOL0     H17291   8.723  10.494   6.649 -0.9094  2.0900  0.7441
  869MOL0     H17292   8.679  10.462   6.805  1.4550 -1.3883 -0.7279
  869MOL0     H17293   8.980  10.492   6.741 -0.5056  1.0725  1.2910
  869MOL0     H17294   8.925  10.382   6.860 -1.9146 -0.9419 -0.7482
  869MOL0     H17295   8.497  11.165   6.217 -0.1211  0.0075 -1.7070
  869MOL0     H17296   8.548  11.297   5.999 -0.3229  1.0504 -1.3244
  869MOL0     H17297   8.843  11.295   5.615  0.6180  0.3567 -2.5822
  869MOL0     H17298   8.882  11.399   5.414  0.2213  1.5701 -1.3145
  869MOL0     H17299   9.141  11.174   5.703 -1.8038 -2.2537 -0.8519
  869MOL0     H17300   9.219  11.148   5.957  1.1431  2.1270 -0.4542
  869MOL0     H17301   9.272  10.839   6.239 -0.4177  1.0734 -3.4596
  869MOL0     H17302   9.265  10.644   6.374  0.0631  0.9377 -1.4332
  869MOL0     H17303   9.615  10.642   6.611  0.9326 -0.9931 -2.1845
  869MOL0     H17304   9.608  10.473   6.656  1.2416  1.1196  1.1018
  869MOL0     H17305   9.396  10.683   6.660 -1.6266 -2.3608 -4.4496
  869MOL0     H17306   9.480  10.629   6.813 -1.3672 -0.6647 -0.0132
  869MOL0     H17307   9.234  10.538   6.702  0.2755  0.1594 -0.6867
  869MOL0     H17308   9.303  10.511   6.860  1.7462  0.4774 -0.4100
  869MOL0     H17309   9.238  10.302   6.747  0.1575 -1.6309 -0.7363
  869MOL0     H17310   9.334  10.338   6.607 -1.2891 -2.1214 -0.9961
  869MOL0     H17311   9.647  10.157   6.820  0.6984  1.5166  0.7404
  869MOL0     H17312   9.692  10.606   6.357 -0.1667 -1.5440 -2.6185
  869MOL0     H17313   9.788  10.661   6.178 -0.6584  0.0469  2.4046
  869MOL0     H17314   9.719  10.758   6.046 -1.8315 -1.3291  0.0441
  869MOL0     H17315   9.790  10.847   6.169 -1.4172  1.0068 -0.6910
  870MOL0     O17316   8.018   2.231  11.240 -0.0420  0.1050 -0.0352
  870MOL0     C17317   7.943   2.137  11.263  0.3001 -0.6247 -0.1709
  870MOL0     O17318   7.826   2.140  11.331  0.2272 -0.5804  0.4344
  870MOL0     C17319   7.764   2.260  11.342 -0.2320 -0.2647 -0.3265
  870MOL0     C17320   7.670   2.292  11.247  1.3390 -0.1017  0.2430
  870MOL0     C17321   7.579   2.402  11.276  0.5767 -0.1704  0.4560
  870MOL0     C17322   7.600   2.495  11.381  0.0550 -0.0621  0.0460
  870MOL0     O17323   7.534   2.614  11.401  0.0529  0.4684  0.1896
  870MOL0     C17324   7.451   2.670  11.293 -0.2479  0.3481 -0.1439
  870MOL0     C17325   7.398   2.816  11.322 -0.3238 -0.0149 -0.1034
  870MOL0     C17326   7.514   2.909  11.334 -0.4163 -0.7104 -0.4329
  870MOL0     C17327   7.479   3.053  11.313  0.3864  0.4433 -0.5884
  870MOL0     C17328   7.607   3.143  11.327 -0.8431  0.8529 -0.4540
  870MOL0     C17329   7.592   3.279  11.271  0.4247 -0.7001 -0.8845
  870MOL0     C17330   7.700   3.381  11.310  0.2670 -1.1746  0.3335
  870MOL0     C17331   7.701   3.431  11.455  0.8348  0.1531 -0.0112
  870MOL0     N17332   7.816   3.518  11.495 -1.1405  0.1783  0.0896
  870MOL0     C17333   7.809   3.633  11.566 -0.4782 -0.3450 -0.2575
  870MOL0     C17334   7.926   3.692  11.548 -0.1698  0.8003  0.3359
  870MOL0     C17335   7.964   3.826  11.585 -0.6211 -0.2027 -0.2107
  870MOL0     C17336   7.858   3.928  11.591  0.0304  0.7027  0.9104
  870MOL0     C17337   7.913   4.061  11.545  0.7189  0.1397  0.3599
  870MOL0     C17338   7.803   4.174  11.561 -0.2391  0.3628 -0.4290
  870MOL0     O17339   7.700   4.150  11.462 -0.2639 -0.0095  0.2206
  870MOL0     C17340   7.648   4.257  11.403 -0.7705 -0.2557  0.2060
  870MOL0     C17341   7.534   4.324  11.450  0.1781  0.6989  0.4485
  870MOL0     C17342   7.486   4.424  11.364 -0.6370 -0.6023 -0.2443
  870MOL0     C17343   7.560   4.472  11.245  0.5230 -0.3219  0.5070
  870MOL0     C17344   7.508   4.586  11.167  0.1096  0.9567  0.3363
  870MOL0     O17345   7.424   4.674  11.232 -0.0493 -0.3593  0.6109
  870MOL0     C17346   7.359   4.771  11.168  0.7332  0.2329  0.1229
  870MOL0     C17347   7.366   4.815  11.036 -0.1123  0.1865  0.0564
  870MOL0     C17348   7.311   4.934  10.994  0.4034  0.7077  0.7138
  870MOL0     C17349   7.249   5.018  11.085 -0.5242  0.4221  0.4428
  870MOL0     O17350   7.217   5.143  11.035  0.5291  0.9564 -1.3670
  870MOL0     C17351   7.319   5.226  10.980 -0.3851 -0.2503  0.1295
  870MOL0     C17352   7.262   5.361  10.930 -0.4259 -0.0695  1.2907
  870MOL0     C17353   7.117   5.360  10.861  0.3180  0.2266 -0.2770
  870MOL0     C17354   7.094   5.502  10.803 -0.5904 -1.0014  0.0924
  870MOL0     C17355   6.951   5.515  10.747 -0.2904 -0.0497 -0.5282
  870MOL0     C17356   6.847   5.538  10.844 -0.3038 -0.1732 -0.8572
  870MOL0     C17357   6.701   5.556  10.795 -0.6534 -0.4269 -0.0097
  870MOL0     C17358   6.595   5.580  10.906 -0.4723 -0.4149  0.4990
  870MOL0    Cl17359   6.435   5.576  10.857  0.0470  0.2978  0.0391
  870MOL0     C17360   7.240   4.973  11.216 -0.1395  0.7376  0.3103
  870MOL0     C17361   7.295   4.858  11.258  0.8244 -0.7842  0.8464
  870MOL0     O17362   7.551   4.593  11.053  0.4525 -0.2764  0.5477
  870MOL0     C17363   7.674   4.414  11.211 -0.0490  1.0898  0.4429
  870MOL0     C17364   7.714   4.305  11.290 -0.4601 -0.1418  0.4342
  870MOL0     N17365   8.009   3.605  11.486  0.2610  0.3165  0.2065
  870MOL0     N17366   7.944   3.501  11.445 -0.1397  0.6335 -0.6144
  870MOL0     C17367   7.716   2.469  11.455  0.1514  0.0693  0.1648
  870MOL0     C17368   7.792   2.350  11.445  0.3141  0.0721 -0.3040
  870MOL0     C17369   7.978   1.998  11.213 -0.0676 -0.3130  0.0992
  870MOL0     C17370   7.877   1.905  11.194 -0.0508 -0.1639 -0.1168
  870MOL0     C17371   7.888   1.764  11.189 -0.5801 -0.5117 -0.0188
  870MOL0     C17372   8.014   1.708  11.195 -0.5206 -0.4545  0.0561
  870MOL0     O17373   8.029   1.574  11.184  0.4439  0.1087 -0.4796
  870MOL0     C17374   8.151   1.506  11.220  0.1719 -0.7316  0.0552
  870MOL0     C17375   8.141   1.371  11.258  0.7711 -0.3605 -0.4127
  870MOL0     C17376   8.163   1.339  11.406 -0.3517  0.2108  0.1882
  870MOL0     C17377   8.308   1.372  11.468 -0.4193 -0.0656  0.1993
  870MOL0     C17378   8.421   1.337  11.386 -0.4939  0.0272 -0.0835
  870MOL0     C17379   8.521   1.309  11.322 -0.0167  0.4978 -0.9518
  870MOL0     C17380   8.120   1.800  11.205 -0.9004  0.5689  0.4463
  870MOL0     C17381   8.105   1.939  11.226 -0.7982 -0.6857  0.8775
  870MOL0     C17382   8.235   2.020  11.252 -0.3744 -1.0985  0.0833
  870MOL0     H17383   7.637   2.237  11.160 -2.6596  0.6011  1.0926
  870MOL0     H17384   7.494   2.418  11.211  0.0185  0.7975  1.3827
  870MOL0     H17385   7.498   2.651  11.197 -1.6985  1.2710 -1.0682
  870MOL0     H17386   7.355   2.618  11.286 -1.5630  2.5185  0.6054
  870MOL0     H17387   7.334   2.821  11.411 -0.5015 -0.7344 -0.1820
  870MOL0     H17388   7.325   2.849  11.248 -0.1202  0.9078  0.0919
  870MOL0     H17389   7.599   2.889  11.269 -0.3412 -1.0122 -0.2441
  870MOL0     H17390   7.547   2.910  11.438  1.2655  3.9077 -0.7676
  870MOL0     H17391   7.441   3.064  11.211  1.0203 -0.2413 -0.9056
  870MOL0     H17392   7.400   3.082  11.383  1.6074 -2.6717  2.3282
  870MOL0     H17393   7.623   3.160  11.434  4.3318 -2.5392 -0.3633
  870MOL0     H17394   7.698   3.086  11.308 -0.5074  0.1555  2.6252
  870MOL0     H17395   7.596   3.279  11.162 -3.2479  0.2086 -1.1785
  870MOL0     H17396   7.492   3.302  11.310  0.7790  0.9687 -0.8896
  870MOL0     H17397   7.667   3.469  11.254  1.2329 -2.1827 -1.9653
  870MOL0     H17398   7.803   3.349  11.290  0.9602  0.5425  0.9599
  870MOL0     H17399   7.599   3.468  11.465  0.1801 -0.7062 -2.7380
  870MOL0     H17400   7.712   3.348  11.526  0.5628 -0.5732 -0.8140
  870MOL0     H17401   7.719   3.670  11.613 -0.1747 -0.8726  0.7728
  870MOL0     H17402   8.030   3.834  11.672  0.5225  2.8213 -1.2042
  870MOL0     H17403   8.033   3.858  11.507 -0.9923  0.4757 -0.2708
  870MOL0     H17404   7.779   3.898  11.522 -0.5063  1.2411  1.2799
  870MOL0     H17405   7.817   3.922  11.692  1.4427 -2.0565  1.4348
  870MOL0     H17406   7.939   4.066  11.439  1.5528  2.8685  0.6358
  870MOL0     H17407   7.998   4.089  11.609 -0.9946  1.5012  2.1623
  870MOL0     H17408   7.845   4.274  11.548 -0.9826  1.0598  1.9638
  870MOL0     H17409   7.768   4.164  11.664  2.2124 -0.1519  0.4302
  870MOL0     H17410   7.486   4.288  11.540  2.4768  0.5975  1.7162
  870MOL0     H17411   7.398   4.484  11.386 -0.4071 -0.8297  1.4629
  870MOL0     H17412   7.410   4.755  10.957  0.4584  0.7015 -0.0216
  870MOL0     H17413   7.322   4.959  10.889  1.9070 -2.8376 -0.1288
  870MOL0     H17414   7.405   5.238  11.047  2.0128 -1.8684 -2.4070
  870MOL0     H17415   7.358   5.167  10.896 -0.5022 -0.2913  0.1048
  870MOL0     H17416   7.266   5.434  11.010  1.4589  1.5289 -0.1599
  870MOL0     H17417   7.333   5.409  10.863  1.4655 -2.3371  1.5270
  870MOL0     H17418   7.104   5.280  10.788 -2.6041  1.4706 -1.2675
  870MOL0     H17419   7.043   5.348  10.941 -0.6737  0.4763 -1.1470
  870MOL0     H17420   7.170   5.527  10.728 -0.5050  2.2533  1.1166
  870MOL0     H17421   7.107   5.578  10.880  1.0855  1.2717 -2.2369
  870MOL0     H17422   6.922   5.431  10.683  2.0121 -1.1759 -0.1963
  870MOL0     H17423   6.953   5.605  10.683  1.2219  1.1204  1.0609
  870MOL0     H17424   6.846   5.457  10.917  0.5182 -0.6551 -1.3748
  870MOL0     H17425   6.877   5.628  10.898  0.1952 -1.1596  0.5518
  870MOL0     H17426   6.675   5.460  10.750 -1.0979 -1.2016  1.8092
  870MOL0     H17427   6.713   5.640  10.725 -1.7577 -0.2251  0.0295
  870MOL0     H17428   6.613   5.515  10.992  1.1587  0.8042  1.1514
  870MOL0     H17429   6.614   5.680  10.948  0.9927 -1.2247  1.8753
  870MOL0     H17430   7.190   5.044  11.281 -1.7923  2.2896 -2.4922
  870MOL0     H17431   7.266   4.851  11.362 -1.3012  0.5277  0.3947
  870MOL0     H17432   7.746   4.432  11.132 -1.1484 -1.5792 -1.3031
  870MOL0     H17433   7.810   4.264  11.261 -0.3462  0.9915 -0.9030
  870MOL0     H17434   7.758   2.540  11.526 -0.2358 -0.5068  0.9966
  870MOL0     H17435   7.873   2.329  11.514  1.3944 -1.5023 -1.9639
  870MOL0     H17436   7.777   1.946  11.186  1.8955  4.9643 -1.9461
  870MOL0     H17437   7.812   1.687  11.181  0.1183 -1.0352 -2.2469
  870MOL0     H17438   8.209   1.561  11.295  2.0268  1.6826 -2.9247
  870MOL0     H17439   8.203   1.502  11.123 -0.3451  0.0523 -0.2621
  870MOL0     H17440   8.214   1.313  11.201  0.9709 -0.0178 -0.5094
  870MOL0     H17441   8.037   1.340  11.245  0.1632  1.5456 -0.3883
  870MOL0     H17442   8.158   1.230  11.405 -3.9918  0.2104 -1.8387
  870MOL0     H17443   8.089   1.387  11.471 -1.0931  0.6347 -0.9272
  870MOL0     H17444   8.316   1.481  11.481  0.6161 -0.2227  0.9422
  870MOL0     H17445   8.309   1.334  11.570 -3.3958  0.2871  0.4730
  870MOL0     H17446   8.613   1.280  11.276  1.7451  0.1499  2.4357
  870MOL0     H17447   8.220   1.760  11.223 -1.2070 -0.4884 -0.1341
  870MOL0     H17448   8.221   2.069  11.348 -2.4619 -2.2652  0.4365
  870MOL0     H17449   8.322   1.953  11.248  0.3882 -0.0706 -1.6663
  870MOL0     H17450   8.250   2.100  11.179 -1.0686 -1.1523 -0.1277
  871MOL0     O17451   8.981   7.727   0.248  0.0072  0.1817 -0.4706
  871MOL0     C17452   8.887   7.672   0.193  0.0569 -1.0090 -0.4005
  871MOL0     O17453   8.893   7.553   0.129 -0.2561 -0.6984  0.2344
  871MOL0     C17454   9.012   7.481   0.142  0.0700 -0.9867 -0.1454
  871MOL0     C17455   9.021   7.422   0.268 -0.4068  0.2702 -0.0215
  871MOL0     C17456   9.126   7.331   0.298  0.3672  0.7256 -0.0106
  871MOL0     C17457   9.220   7.305   0.195 -0.3856  0.3509  0.4427
  871MOL0     O17458   9.315   7.209   0.207 -0.4113 -0.6154  0.3085
  871MOL0     C17459   9.283   7.082   0.260 -0.0179  0.2233 -0.6160
  871MOL0     C17460   9.327   6.981   0.165  0.1425  0.7034 -0.3264
  871MOL0     C17461   9.274   6.848   0.212  0.0311  0.9386  1.4245
  871MOL0     C17462   9.334   6.738   0.122  0.4327 -0.3601  0.0927
  871MOL0     C17463   9.255   6.612   0.135 -0.1579  0.5583  0.2396
  871MOL0     C17464   9.273   6.517   0.015  0.4391  0.4429  0.9413
  871MOL0     C17465   9.170   6.398   0.022 -0.4281 -0.9919 -0.0172
  871MOL0     C17466   9.196   6.308  -0.100 -0.3462 -0.8678 -0.0623
  871MOL0     N17467   9.131   6.177  -0.104  0.5727 -0.3480 -0.2266
  871MOL0     C17468   8.997   6.147  -0.075 -0.3876  0.3298  0.0676
  871MOL0     C17469   9.003   6.017  -0.048 -0.5100 -0.8898  0.4551
  871MOL0     C17470   8.895   5.931  -0.005 -0.3360  0.1641 -1.6128
  871MOL0     C17471   8.845   6.001   0.119  0.2195 -0.7981  0.3350
  871MOL0     C17472   8.736   5.920   0.195 -0.3161  0.3369 -0.0866
  871MOL0     C17473   8.596   5.953   0.124 -0.0517 -1.3054 -0.4612
  871MOL0     O17474   8.495   5.873   0.182 -0.1171 -0.2449  0.5761
  871MOL0     C17475   8.368   5.927   0.163 -0.2987  0.0022  0.2656
  871MOL0     C17476   8.325   6.023   0.068 -0.0205 -0.1462 -0.5204
  871MOL0     C17477   8.203   6.090   0.088 -0.0838 -0.7155  0.7739
  871MOL0     C17478   8.113   6.063   0.195 -1.0077  0.1612  0.7666
  871MOL0     C17479   7.992   6.124   0.219 -0.4133 -0.1537  0.2897
  871MOL0     O17480   7.881   6.036   0.251 -0.9021  0.4779 -0.7139
  871MOL0     C17481   7.776   6.090   0.320 -0.7735  0.1882  1.0400
  871MOL0     C17482   7.780   6.210   0.393  0.2882 -0.6291  0.0585
  871MOL0     C17483   7.669   6.243   0.469 -0.2783  0.8958  0.2588
  871MOL0     C17484   7.559   6.156   0.468 -0.7168 -0.0649  0.7014
  871MOL0     O17485   7.460   6.169   0.563  0.2765  0.1158 -0.1480
  871MOL0     C17486   7.498   6.231   0.690 -0.7547 -0.2368 -0.1135
  871MOL0     C17487   7.382   6.236   0.788  0.0205  0.6952 -0.0496
  871MOL0     C17488   7.417   6.310   0.910 -0.2248  0.2281 -0.3511
  871MOL0     C17489   7.306   6.313   1.013  0.4251  0.1305  0.0894
  871MOL0     C17490   7.354   6.350   1.151 -0.1984 -0.0168 -0.0790
  871MOL0     C17491   7.237   6.356   1.249  0.4333 -0.0840  0.2280
  871MOL0     C17492   7.279   6.420   1.385 -0.7371 -0.0354 -0.3336
  871MOL0     C17493   7.274   6.318   1.510 -0.6321  0.2024  0.9113
  871MOL0    Cl17494   7.099   6.324   1.554 -0.0245 -0.1903  0.1899
  871MOL0     C17495   7.554   6.048   0.379  0.4069  0.0951 -0.3131
  871MOL0     C17496   7.659   6.015   0.302 -0.6662  0.3642 -0.5516
  871MOL0     O17497   7.988   6.241   0.207  0.3883  0.2696 -0.3568
  871MOL0     C17498   8.151   5.949   0.273  0.4721 -0.4796 -0.4402
  871MOL0     C17499   8.271   5.878   0.253 -0.0560  0.2027 -0.3567
  871MOL0     N17500   9.126   5.959  -0.069 -0.4859 -1.0657  1.1228
  871MOL0     N17501   9.204   6.061  -0.086 -0.3232  0.6767  0.1552
  871MOL0     C17502   9.203   7.362   0.067  0.6369  0.1011 -1.0195
  871MOL0     C17503   9.100   7.455   0.042 -0.8231 -0.7148  1.1002
  871MOL0     C17504   8.758   7.730   0.177  0.0203 -1.0026  0.8776
  871MOL0     C17505   8.677   7.702   0.063 -0.6023  0.6151 -0.2114
  871MOL0     C17506   8.549   7.771   0.040  0.8881 -0.2436  0.5933
  871MOL0     C17507   8.495   7.851   0.145 -0.1489  0.4534 -0.8230
  871MOL0     O17508   8.372   7.906   0.118  0.5722 -0.8769 -0.5640
  871MOL0     C17509   8.352   8.047   0.163  0.7743 -0.6061 -0.1417
  871MOL0     C17510   8.314   8.140   0.046  0.6853  0.5627 -0.2789
  871MOL0     C17511   8.357   8.286   0.074  0.6450  0.7628  0.0670
  871MOL0     C17512   8.338   8.369  -0.048 -0.4006  0.1960  0.2642
  871MOL0     C17513   8.402   8.495  -0.023 -0.4178 -0.0657  0.6255
  871MOL0     C17514   8.452   8.602   0.009  0.0027  0.8038  0.6204
  871MOL0     C17515   8.570   7.878   0.258  0.3785 -0.4183 -1.0037
  871MOL0     C17516   8.704   7.827   0.271  0.7159  0.1243  0.0109
  871MOL0     C17517   8.771   7.870   0.395  0.5415  0.5066 -0.2867
  871MOL0     H17518   8.947   7.459   0.338  0.5077 -0.9156  1.6781
  871MOL0     H17519   9.139   7.265   0.383  4.2366  1.5303  0.2261
  871MOL0     H17520   9.332   7.077   0.358  0.0752  0.2373 -0.6618
  871MOL0     H17521   9.176   7.062   0.256 -0.1843  1.2178 -1.7127
  871MOL0     H17522   9.437   6.984   0.162  0.2755  4.0326  2.1445
  871MOL0     H17523   9.286   7.008   0.067 -2.0701  3.4804  1.2323
  871MOL0     H17524   9.166   6.832   0.203  0.2493 -0.7631  1.5120
  871MOL0     H17525   9.295   6.843   0.319 -2.0243 -1.4665  1.8144
  871MOL0     H17526   9.335   6.766   0.016 -0.7256 -0.1589  0.1227
  871MOL0     H17527   9.439   6.732   0.152  0.6760 -0.1328 -0.6888
  871MOL0     H17528   9.284   6.555   0.224 -3.5754 -0.9005  0.5903
  871MOL0     H17529   9.146   6.625   0.139  0.0511  2.3160  1.5556
  871MOL0     H17530   9.260   6.575  -0.077 -3.8245  1.3776  1.9124
  871MOL0     H17531   9.376   6.481   0.021  0.2039 -0.4317  0.0408
  871MOL0     H17532   9.071   6.443   0.009  0.9201  1.8732 -1.3250
  871MOL0     H17533   9.184   6.342   0.115  3.0506 -2.6756 -1.3585
  871MOL0     H17534   9.168   6.359  -0.193 -0.1803  0.8043  0.7575
  871MOL0     H17535   9.304   6.292  -0.099 -0.2309 -0.6076  3.2615
  871MOL0     H17536   8.915   6.216  -0.060  0.3639  1.8461 -2.1821
  871MOL0     H17537   8.819   5.931  -0.084  0.2178 -2.0191 -2.2226
  871MOL0     H17538   8.928   5.830   0.022 -0.6601  0.3376 -0.5389
  871MOL0     H17539   8.923   6.013   0.195 -0.8922  2.4067  1.1247
  871MOL0     H17540   8.811   6.101   0.092  2.2597 -0.5201 -1.5083
  871MOL0     H17541   8.743   5.955   0.299  2.8770 -0.3941  0.0339
  871MOL0     H17542   8.751   5.812   0.186 -1.0278  0.2851 -0.7851
  871MOL0     H17543   8.589   5.952   0.015 -4.2592  0.5883 -0.3936
  871MOL0     H17544   8.596   6.058   0.154  2.4537 -1.2096 -0.5388
  871MOL0     H17545   8.401   6.052  -0.004  1.0278 -0.2521  0.5164
  871MOL0     H17546   8.175   6.172   0.021  0.0332 -2.1925 -1.1882
  871MOL0     H17547   7.876   6.255   0.418  0.8231 -3.1218  3.0296
  871MOL0     H17548   7.676   6.333   0.529 -2.3803  1.6410 -0.5056
  871MOL0     H17549   7.574   6.162   0.729 -1.3760 -1.9035 -1.6970
  871MOL0     H17550   7.527   6.335   0.676 -1.7521 -0.0026 -0.4879
  871MOL0     H17551   7.289   6.281   0.751 -0.4822  2.1515  2.6821
  871MOL0     H17552   7.360   6.135   0.823  1.3493  0.2111 -0.5805
  871MOL0     H17553   7.506   6.264   0.957 -1.8673 -2.1988  0.6074
  871MOL0     H17554   7.458   6.407   0.883 -1.3609  0.4584 -1.2915
  871MOL0     H17555   7.243   6.223   1.015  0.3753  0.0372 -2.3962
  871MOL0     H17556   7.230   6.384   0.976  1.1578  1.6789  1.4326
  871MOL0     H17557   7.402   6.448   1.137  0.0775 -0.0478  0.6137
  871MOL0     H17558   7.422   6.276   1.194 -2.2499 -0.8446  1.9205
  871MOL0     H17559   7.145   6.404   1.215 -0.4825 -1.1123  1.1786
  871MOL0     H17560   7.209   6.251   1.261  0.5525 -0.0287  1.0029
  871MOL0     H17561   7.216   6.506   1.410 -2.8127 -1.1185 -1.5416
  871MOL0     H17562   7.382   6.459   1.385 -0.4036 -0.3227  4.5114
  871MOL0     H17563   7.310   6.218   1.485 -3.3018 -0.3142 -1.2878
  871MOL0     H17564   7.330   6.348   1.599 -1.3515  0.6374  1.2295
  871MOL0     H17565   7.466   5.985   0.368 -1.4012  2.7046 -2.4111
  871MOL0     H17566   7.667   5.930   0.235  0.3374  0.2542 -0.3084
  871MOL0     H17567   8.088   5.906   0.349 -0.8547 -0.5307 -1.5345
  871MOL0     H17568   8.293   5.793   0.316 -1.7454 -1.2290 -1.5590
  871MOL0     H17569   9.258   7.311  -0.011 -1.9309 -2.0227 -1.5526
  871MOL0     H17570   9.074   7.485  -0.059 -1.9489  0.0295  1.5790
  871MOL0     H17571   8.718   7.640  -0.016  0.6852 -1.1258  1.7175
  871MOL0     H17572   8.500   7.767  -0.057  1.8596 -0.2810  0.0952
  871MOL0     H17573   8.444   8.097   0.197 -0.0285  2.3359 -1.9129
  871MOL0     H17574   8.275   8.050   0.241  0.2093  0.9006 -0.7217
  871MOL0     H17575   8.205   8.139   0.040  0.4335 -0.0654  2.6567
  871MOL0     H17576   8.356   8.098  -0.046  0.8368 -0.6062  0.2978
  871MOL0     H17577   8.462   8.287   0.105  0.4638  0.3060  0.7161
  871MOL0     H17578   8.302   8.316   0.163 -0.7731 -4.8917  1.5394
  871MOL0     H17579   8.376   8.328  -0.142 -1.6271 -1.5123  0.4497
  871MOL0     H17580   8.230   8.377  -0.064  0.0639  2.7191 -2.5326
  871MOL0     H17581   8.485   8.700   0.037  0.6669  0.3945  1.3264
  871MOL0     H17582   8.544   7.954   0.331 -1.9657 -0.4162 -1.7715
  871MOL0     H17583   8.699   7.894   0.474 -1.7254 -1.4415 -1.6364
  871MOL0     H17584   8.831   7.792   0.443 -0.9828  1.0218  2.7227
  871MOL0     H17585   8.833   7.959   0.377 -1.9812  2.6365  0.7891
  872MOL0     O17586   8.705   4.193   3.688 -0.0551  0.1909 -0.2032
  872MOL0     C17587   8.620   4.204   3.780 -0.1647 -0.6557  0.0287
  872MOL0     O17588   8.620   4.313   3.871  0.3742  0.1087  0.3545
  872MOL0     C17589   8.711   4.418   3.862 -0.2933  1.1624  0.7126
  872MOL0     C17590   8.763   4.475   3.753 -0.6372 -0.3942 -0.0352
  872MOL0     C17591   8.860   4.574   3.763 -0.2571 -0.1956  0.1575
  872MOL0     C17592   8.914   4.607   3.890  0.8870  0.3637 -1.1829
  872MOL0     O17593   9.031   4.689   3.889  0.2284  0.7252 -0.6904
  872MOL0     C17594   9.104   4.691   4.014 -0.7103  0.8409  0.0610
  872MOL0     C17595   9.216   4.790   3.998 -0.5972 -0.7642 -1.2678
  872MOL0     C17596   9.311   4.805   4.124 -0.4402  0.2334 -0.7205
  872MOL0     C17597   9.365   4.670   4.164  0.5767 -0.5350 -0.6765
  872MOL0     C17598   9.485   4.658   4.262 -0.4606  0.6048 -0.3814
  872MOL0     C17599   9.466   4.748   4.386  1.0324 -0.0286 -0.1334
  872MOL0     C17600   9.558   4.704   4.501 -0.6498  0.3801  0.3247
  872MOL0     C17601   9.577   4.799   4.609  0.0108  0.1809 -0.4112
  872MOL0     N17602   9.627   4.720   4.727 -0.3644  0.2658 -0.2438
  872MOL0     C17603   9.551   4.647   4.810  0.5490  0.7379  0.2812
  872MOL0     C17604   9.634   4.577   4.880  0.4103 -0.3228  0.0169
  872MOL0     C17605   9.597   4.481   4.990 -0.1185  0.2807  0.2170
  872MOL0     C17606   9.722   4.440   5.073  0.0120  0.1364  0.5302
  872MOL0     C17607   9.683   4.351   5.196 -0.0386 -0.0214  0.0121
  872MOL0     C17608   9.782   4.362   5.313  0.1193 -0.0355  0.1348
  872MOL0     O17609   9.911   4.301   5.288  0.1459 -0.2749  0.4652
  872MOL0     C17610  10.004   4.294   5.391  0.1488  0.2960 -0.4789
  872MOL0     C17611  10.104   4.192   5.392  1.1946  0.7090 -0.3632
  872MOL0     C17612  10.198   4.179   5.493 -1.2297 -0.3218 -0.7760
  872MOL0     C17613  10.202   4.270   5.600 -0.2184 -0.3640 -0.5298
  872MOL0     C17614  10.305   4.265   5.712  0.7677 -0.2599 -0.1599
  872MOL0     O17615  10.289   4.345   5.829 -0.5787  0.2482  0.3220
  872MOL0     C17616  10.394   4.380   5.902 -0.4389 -1.3191  0.2307
  872MOL0     C17617  10.384   4.361   6.036 -0.2797 -0.3967 -0.3935
  872MOL0     C17618  10.488   4.410   6.130 -0.3366  0.6763  0.9566
  872MOL0     C17619  10.592   4.489   6.089 -0.0487 -0.6668 -0.3992
  872MOL0     O17620  10.686   4.548   6.173  0.6692 -0.1826 -0.6838
  872MOL0     C17621  10.731   4.483   6.299  0.1219 -0.5030  0.2519
  872MOL0     C17622  10.710   4.601   6.407  0.2297  0.3115 -0.4911
  872MOL0     C17623  10.725   4.552   6.549  0.1875 -0.5943  0.2338
  872MOL0     C17624  10.866   4.542   6.594 -0.1147 -0.0855 -0.2698
  872MOL0     C17625  10.873   4.505   6.741  0.8303 -0.5578  1.0055
  872MOL0     C17626  10.844   4.352   6.761  0.0722 -0.2382  0.1561
  872MOL0     C17627  10.860   4.309   6.908  0.1252 -0.2240 -0.1495
  872MOL0     C17628  10.965   4.194   6.929  0.2826  0.2831 -0.1997
  872MOL0    Cl17629  10.867   4.040   6.967 -0.1190 -0.0732 -0.1247
  872MOL0     C17630  10.609   4.506   5.952  0.3473 -0.1110  0.1226
  872MOL0     C17631  10.513   4.450   5.861  0.1599  0.1431  0.4348
  872MOL0     O17632  10.400   4.198   5.686  0.6081  0.2953 -0.0396
  872MOL0     C17633  10.107   4.378   5.601  0.9547 -0.2650 -0.7584
  872MOL0     C17634  10.012   4.390   5.497 -0.8129  0.7296  0.2449
  872MOL0     N17635   9.766   4.615   4.859  0.4190  1.0937  0.4711
  872MOL0     N17636   9.758   4.702   4.767 -0.1042 -0.3167 -0.5048
  872MOL0     C17637   8.855   4.540   4.005  0.1714  0.1622  0.5040
  872MOL0     C17638   8.745   4.455   3.996  0.7492 -0.0380 -0.3924
  872MOL0     C17639   8.496   4.128   3.776  0.6433  0.7326 -0.4526
  872MOL0     C17640   8.425   4.112   3.890  0.0214 -0.9283  0.5673
  872MOL0     C17641   8.291   4.065   3.894 -0.3935 -0.1444  0.2992
  872MOL0     C17642   8.241   4.005   3.768 -0.4717  0.0098 -0.7374
  872MOL0     O17643   8.114   3.946   3.774  0.7667  0.4939  0.1297
  872MOL0     C17644   8.048   3.871   3.667 -0.4666  0.0732  0.0688
  872MOL0     C17645   7.957   3.948   3.570 -0.3583  0.1146 -0.4980
  872MOL0     C17646   7.856   3.850   3.498 -0.0337  0.2104 -0.0091
  872MOL0     C17647   7.918   3.760   3.388 -0.1354 -0.0836 -1.2008
  872MOL0     C17648   7.820   3.705   3.298 -0.2505  0.0809  0.4143
  872MOL0     C17649   7.741   3.653   3.218  0.4675  0.5567 -0.0091
  872MOL0     C17650   8.317   4.011   3.656  0.4800  0.8085  0.2192
  872MOL0     C17651   8.442   4.069   3.659 -0.0902  0.1880 -0.2173
  872MOL0     C17652   8.504   4.067   3.524 -0.1622 -1.2245  0.9863
  872MOL0     H17653   8.719   4.445   3.658  0.9415 -1.3525 -0.4985
  872MOL0     H17654   8.905   4.616   3.674  3.7144 -2.6738  0.7261
  872MOL0     H17655   9.043   4.714   4.101 -1.5774 -2.9640  0.6564
  872MOL0     H17656   9.150   4.592   4.020 -0.7992  0.7145 -1.0136
  872MOL0     H17657   9.181   4.889   3.965  0.0612 -0.4156 -0.9510
  872MOL0     H17658   9.289   4.760   3.922  1.4566  0.5143  0.1039
  872MOL0     H17659   9.262   4.863   4.203 -0.9178 -0.7770 -0.2618
  872MOL0     H17660   9.391   4.872   4.092  3.4703 -2.1767  3.0493
  872MOL0     H17661   9.278   4.621   4.208  1.1149 -0.5832  0.3582
  872MOL0     H17662   9.393   4.615   4.074 -0.5288 -0.2960 -1.1803
  872MOL0     H17663   9.507   4.553   4.282  1.7974  1.0934  0.0303
  872MOL0     H17664   9.574   4.688   4.205 -1.6111 -0.7290 -3.0601
  872MOL0     H17665   9.477   4.853   4.357  0.9749  0.1860  0.5945
  872MOL0     H17666   9.364   4.732   4.423  1.6489 -3.3814  0.4428
  872MOL0     H17667   9.650   4.690   4.443 -0.9160  1.9298 -0.5206
  872MOL0     H17668   9.520   4.610   4.543 -0.5107  0.2182  0.0898
  872MOL0     H17669   9.651   4.869   4.570  0.0317 -0.1457 -0.9552
  872MOL0     H17670   9.497   4.868   4.637 -0.5498  0.1435 -1.8837
  872MOL0     H17671   9.442   4.646   4.810  0.5405  1.6166  0.6746
  872MOL0     H17672   9.525   4.534   5.053 -2.8508  0.0157 -2.4793
  872MOL0     H17673   9.556   4.389   4.949  0.3925  0.4261 -0.6476
  872MOL0     H17674   9.793   4.377   5.019 -1.5620 -0.8865 -0.4309
  872MOL0     H17675   9.777   4.530   5.103  1.1872 -0.0270 -1.0300
  872MOL0     H17676   9.681   4.244   5.173  2.8509  0.1846 -1.7713
  872MOL0     H17677   9.583   4.373   5.235 -1.4689 -0.7312 -2.9690
  872MOL0     H17678   9.733   4.310   5.396 -2.5137  0.0372 -1.2827
  872MOL0     H17679   9.794   4.464   5.350  0.3577 -0.5391  1.5449
  872MOL0     H17680  10.118   4.122   5.310 -0.9181  0.5196 -0.6353
  872MOL0     H17681  10.272   4.100   5.503  0.5806  1.4179  0.2540
  872MOL0     H17682  10.297   4.329   6.092  0.8979  1.8489  3.0579
  872MOL0     H17683  10.477   4.403   6.238  1.3533  1.6362  1.2203
  872MOL0     H17684  10.694   4.383   6.323  2.8702 -1.6571  0.1511
  872MOL0     H17685  10.839   4.466   6.287  0.2472  0.2582  0.2563
  872MOL0     H17686  10.778   4.686   6.403  2.0989 -1.0127  1.3012
  872MOL0     H17687  10.606   4.631   6.390 -0.0560 -1.7200 -2.9995
  872MOL0     H17688  10.669   4.622   6.612  0.5530 -0.3512  0.2899
  872MOL0     H17689  10.660   4.466   6.568 -2.8812  1.8881  2.1120
  872MOL0     H17690  10.919   4.635   6.572  1.5630 -0.3273  2.3711
  872MOL0     H17691  10.919   4.463   6.540  0.2905 -0.2100  0.3024
  872MOL0     H17692  10.812   4.566   6.808  2.3686 -1.3569  3.2708
  872MOL0     H17693  10.975   4.532   6.772  0.4954  2.0426  0.0861
  872MOL0     H17694  10.743   4.326   6.729 -1.2117  0.5832  3.2219
  872MOL0     H17695  10.924   4.306   6.702 -0.2849  0.0294 -0.5455
  872MOL0     H17696  10.764   4.285   6.954  0.4380 -0.0060  0.6204
  872MOL0     H17697  10.904   4.395   6.960 -2.5678  1.9898 -1.2615
  872MOL0     H17698  11.037   4.183   6.848 -0.9653 -0.0408 -1.2979
  872MOL0     H17699  11.025   4.229   7.014 -1.6371  1.9554  0.5454
  872MOL0     H17700  10.684   4.579   5.925 -1.3167  1.9452  0.7865
  872MOL0     H17701  10.541   4.471   5.759 -0.8836 -2.0862 -0.3671
  872MOL0     H17702  10.105   4.450   5.682  1.7976 -0.5170 -0.4991
  872MOL0     H17703   9.945   4.474   5.514 -0.9703  0.4675  0.9399
  872MOL0     H17704   8.886   4.553   4.108 -4.9604 -4.0137  3.0822
  872MOL0     H17705   8.705   4.420   4.091  2.9840  1.7845  1.3357
  872MOL0     H17706   8.478   4.148   3.977  1.3058 -1.8600  0.1873
  872MOL0     H17707   8.238   4.053   3.988 -2.2909 -2.1626 -0.9232
  872MOL0     H17708   7.996   3.795   3.726  1.0608  1.0405  2.8416
  872MOL0     H17709   8.127   3.815   3.616  2.6737  2.5201  1.8357
  872MOL0     H17710   8.021   4.009   3.505 -0.0701  3.2246  2.4307
  872MOL0     H17711   7.908   4.020   3.635 -2.4402 -2.0575  0.4905
  872MOL0     H17712   7.781   3.918   3.459  2.1033  2.4027 -0.5592
  872MOL0     H17713   7.817   3.780   3.573  1.2022 -0.6630 -0.1323
  872MOL0     H17714   7.997   3.810   3.331  1.2904 -1.1746 -0.2746
  872MOL0     H17715   7.964   3.676   3.441 -1.3323  0.7206  1.2251
  872MOL0     H17716   7.688   3.605   3.138  0.8941  0.8369 -0.4612
  872MOL0     H17717   8.283   3.984   3.556 -1.0409  1.4583  0.5336
  872MOL0     H17718   8.444   4.048   3.435  1.1864 -3.2786  0.4605
  872MOL0     H17719   8.557   4.161   3.501  1.0012 -2.0285  0.2380
  872MOL0     H17720   8.587   3.997   3.537 -0.0350 -0.7121  3.2972
  873MOL0     O17721   0.281   3.736   3.071 -0.6556 -0.8590  0.4026
  873MOL0     C17722   0.162   3.725   3.036  0.4454  0.1614  0.5750
  873MOL0     O17723   0.121   3.716   2.903  0.4462  0.5348 -0.7513
  873MOL0     C17724   0.191   3.721   2.791 -0.4558  1.0464  0.8606
  873MOL0     C17725   0.314   3.794   2.775  0.3438 -0.4931  0.0890
  873MOL0     C17726   0.378   3.805   2.640  0.1850  0.3557 -0.7499
  873MOL0     C17727   0.312   3.742   2.527 -0.5340 -0.6913 -0.3185
  873MOL0     O17728   0.385   3.750   2.409  0.4136 -0.1259  0.0084
  873MOL0     C17729   0.355   3.660   2.302  0.3602  1.0789 -0.0455
  873MOL0     C17730   0.451   3.688   2.187  0.4448  0.2560  0.2146
  873MOL0     C17731   0.423   3.825   2.127  0.5677  0.5636  0.0759
  873MOL0     C17732   0.513   3.848   2.009 -0.0800  0.2882  0.7311
  873MOL0     C17733   0.518   3.987   1.942  0.0038 -0.5571 -0.1002
  873MOL0     C17734   0.626   4.000   1.835  0.3200  0.3730  0.2284
  873MOL0     C17735   0.620   4.138   1.778 -0.8555  0.5373  0.3491
  873MOL0     C17736   0.704   4.135   1.647 -0.1820 -0.2988  0.0206
  873MOL0     N17737   0.760   4.267   1.622 -1.1211 -0.7137  0.1442
  873MOL0     C17738   0.694   4.371   1.558  0.5566  0.0881 -0.0777
  873MOL0     C17739   0.772   4.485   1.575  0.1283 -0.3415 -0.0739
  873MOL0     C17740   0.757   4.620   1.516  0.4258 -0.6109  0.5617
  873MOL0     C17741   0.877   4.719   1.541 -0.3056  0.0670 -0.0803
  873MOL0     C17742   0.865   4.833   1.435  0.1133  0.4478  0.5718
  873MOL0     C17743   0.983   4.919   1.411  0.4444 -0.7175  0.7999
  873MOL0     O17744   1.052   4.949   1.533 -0.6375  0.4643  0.0213
  873MOL0     C17745   1.186   4.940   1.535 -0.6517  0.1184  0.2936
  873MOL0     C17746   1.251   4.897   1.650  0.5744 -0.0804  0.7840
  873MOL0     C17747   1.386   4.880   1.666 -0.5748 -0.6008  0.2895
  873MOL0     C17748   1.473   4.942   1.574 -0.1941 -0.0571  0.7621
  873MOL0     C17749   1.620   4.935   1.590  0.7498  0.9129 -0.5262
  873MOL0     O17750   1.676   4.859   1.689  0.2938  0.1174  0.0275
  873MOL0     C17751   1.807   4.828   1.692  0.2118  0.2179  0.1277
  873MOL0     C17752   1.898   4.868   1.794 -0.3052  0.6729 -0.0233
  873MOL0     C17753   2.030   4.819   1.820  0.7468  0.2777 -0.5004
  873MOL0     C17754   2.070   4.716   1.735  0.1844  0.2676  0.1969
  873MOL0     O17755   2.197   4.674   1.747 -0.2135 -0.5077 -0.8694
  873MOL0     C17756   2.242   4.570   1.652 -0.3402 -0.3602  0.2763
  873MOL0     C17757   2.396   4.550   1.664 -0.4166 -0.8431  0.7853
  873MOL0     C17758   2.486   4.665   1.613  0.3363 -0.3966 -0.5255
  873MOL0     C17759   2.632   4.639   1.571 -0.2012 -1.0211 -0.8796
  873MOL0     C17760   2.715   4.746   1.648  0.3788  0.0648  0.0532
  873MOL0     C17761   2.854   4.707   1.666 -0.0272  0.7013  0.2817
  873MOL0     C17762   2.941   4.820   1.716  0.3850  0.0111  0.1193
  873MOL0     C17763   3.083   4.781   1.731  0.3083 -0.0499 -0.7362
  873MOL0    Cl17764   3.108   4.668   1.875 -0.3768  0.2423 -0.2738
  873MOL0     C17765   1.980   4.668   1.637 -0.4619 -1.1182 -0.6051
  873MOL0     C17766   1.847   4.720   1.621 -0.4964  0.0334  0.3015
  873MOL0     O17767   1.680   4.990   1.502 -0.5692 -0.6121 -0.5652
  873MOL0     C17768   1.409   5.012   1.467  0.1067 -0.0373 -0.1206
  873MOL0     C17769   1.268   5.006   1.437 -0.2411  0.8806 -0.1257
  873MOL0     N17770   0.876   4.445   1.652 -1.1471 -0.2810  0.5771
  873MOL0     N17771   0.876   4.319   1.673 -1.0229  0.6878  0.5312
  873MOL0     C17772   0.184   3.677   2.547 -0.0666 -0.5138 -0.6210
  873MOL0     C17773   0.132   3.661   2.677 -0.1112  1.8150 -0.5068
  873MOL0     C17774   0.056   3.718   3.144 -0.6225 -0.1762 -0.2089
  873MOL0     C17775   0.086   3.695   3.281 -0.2995 -0.9245  0.3938
  873MOL0     C17776  -0.001   3.690   3.381 -0.0064 -0.3279 -0.1974
  873MOL0     C17777  -0.134   3.727   3.360  1.0360  0.7229  0.3275
  873MOL0     O17778  -0.216   3.741   3.476 -0.1221 -0.1069 -0.3476
  873MOL0     C17779  -0.167   3.843   3.554 -0.2991  0.2186  0.9082
  873MOL0     C17780  -0.281   3.906   3.638 -0.0670  0.8374 -0.8880
  873MOL0     C17781  -0.380   3.991   3.564 -0.7150 -0.5784  0.8293
  873MOL0     C17782  -0.475   4.068   3.657  0.7054  1.2625 -0.0500
  873MOL0     C17783  -0.576   4.128   3.582  1.1775 -0.0333  0.0568
  873MOL0     C17784  -0.660   4.201   3.531 -0.7850 -0.1566  0.0664
  873MOL0     C17785  -0.179   3.743   3.225 -0.9704 -2.2421  0.2382
  873MOL0     C17786  -0.087   3.730   3.118 -0.4936  0.5167  0.3263
  873MOL0     C17787  -0.149   3.753   2.982 -0.3583 -0.4705  0.9806
  873MOL0     H17788   0.359   3.837   2.863  0.4141  0.9727 -0.6357
  873MOL0     H17789   0.460   3.877   2.637  2.3583 -1.8092  1.6599
  873MOL0     H17790   0.372   3.562   2.347 -0.0401 -0.3515 -2.8217
  873MOL0     H17791   0.251   3.664   2.266  0.2568 -2.1523 -0.3504
  873MOL0     H17792   0.440   3.611   2.109  1.4513 -0.9085  1.1782
  873MOL0     H17793   0.554   3.675   2.222  1.3409 -1.5877 -2.6971
  873MOL0     H17794   0.433   3.900   2.206 -0.4694  0.5052  0.2734
  873MOL0     H17795   0.323   3.840   2.086  1.1442  2.0877 -0.8634
  873MOL0     H17796   0.611   3.828   2.054 -0.2318 -1.8056  0.2305
  873MOL0     H17797   0.491   3.766   1.940  1.6480 -1.6156  2.2951
  873MOL0     H17798   0.422   4.008   1.895 -1.5623 -0.1139  3.0262
  873MOL0     H17799   0.532   4.071   2.011  0.2446 -0.8071  0.1591
  873MOL0     H17800   0.724   3.971   1.873  0.5959 -1.3848 -1.6363
  873MOL0     H17801   0.609   3.929   1.753 -0.1385  2.1882 -1.3200
  873MOL0     H17802   0.665   4.206   1.851  2.1149  0.7828 -1.5408
  873MOL0     H17803   0.524   4.189   1.766  0.2304  2.2850 -1.5673
  873MOL0     H17804   0.788   4.066   1.656  1.7742  1.5901 -2.2696
  873MOL0     H17805   0.648   4.098   1.560 -0.1347 -1.8101  0.6068
  873MOL0     H17806   0.593   4.362   1.521 -0.4323  1.7190  1.9902
  873MOL0     H17807   0.745   4.602   1.408  0.1598 -0.6189  0.5903
  873MOL0     H17808   0.668   4.675   1.548 -0.9911 -1.2049 -2.0825
  873MOL0     H17809   0.873   4.762   1.642 -0.5327 -2.8020  1.2177
  873MOL0     H17810   0.966   4.656   1.540 -1.1677 -1.3440  2.7221
  873MOL0     H17811   0.797   4.906   1.478 -0.7607  0.9870 -1.5728
  873MOL0     H17812   0.819   4.803   1.340 -0.1547  2.0962  0.1600
  873MOL0     H17813   0.943   5.011   1.367  0.4203 -1.9238 -1.9402
  873MOL0     H17814   1.041   4.865   1.335  2.1999  0.0451  1.5465
  873MOL0     H17815   1.181   4.873   1.730  0.4717 -3.6727 -0.1895
  873MOL0     H17816   1.424   4.845   1.762 -0.9777  0.8530  1.0058
  873MOL0     H17817   1.855   4.943   1.860 -1.9333 -0.0875 -0.1714
  873MOL0     H17818   2.088   4.854   1.905  1.1666  0.5665 -0.9034
  873MOL0     H17819   2.197   4.472   1.669  2.0827 -1.5625  0.2634
  873MOL0     H17820   2.221   4.592   1.547  1.6171 -2.6367 -0.6999
  873MOL0     H17821   2.419   4.517   1.766  0.9484 -1.4991  0.2764
  873MOL0     H17822   2.431   4.467   1.603 -3.8385 -0.2439 -2.3094
  873MOL0     H17823   2.440   4.708   1.523  0.8874  0.9256 -0.1958
  873MOL0     H17824   2.472   4.740   1.691  0.2469  1.7561 -2.4833
  873MOL0     H17825   2.650   4.659   1.465  0.0265  1.2269 -0.4655
  873MOL0     H17826   2.663   4.543   1.614 -0.3072  0.3046  2.4492
  873MOL0     H17827   2.681   4.754   1.751  0.8149 -3.2781  0.5823
  873MOL0     H17828   2.710   4.841   1.594  1.0333  1.3868  2.2237
  873MOL0     H17829   2.859   4.608   1.711 -2.6510 -0.6470 -2.0218
  873MOL0     H17830   2.891   4.684   1.566 -1.3937 -1.3720  0.1982
  873MOL0     H17831   2.911   4.854   1.816  1.4621 -1.1703  0.8741
  873MOL0     H17832   2.938   4.913   1.660  0.1419  1.8820  3.0220
  873MOL0     H17833   3.107   4.747   1.630 -1.9293 -0.1712 -1.2863
  873MOL0     H17834   3.144   4.871   1.741  0.0256  0.2174 -1.3914
  873MOL0     H17835   2.015   4.600   1.561  0.9585  0.7827 -1.7537
  873MOL0     H17836   1.788   4.688   1.536  1.2697  1.0509 -1.3881
  873MOL0     H17837   1.457   5.088   1.407 -2.0472  1.6083  0.1175
  873MOL0     H17838   1.211   5.033   1.349 -4.1614 -2.6127  1.0054
  873MOL0     H17839   0.136   3.635   2.459  0.6439 -3.0382  0.1301
  873MOL0     H17840   0.040   3.607   2.696  1.1386 -0.5908 -0.9612
  873MOL0     H17841   0.192   3.686   3.302  0.1120  1.8083 -0.1771
  873MOL0     H17842   0.025   3.667   3.484  0.5487 -3.5287 -0.9672
  873MOL0     H17843  -0.122   3.922   3.492  1.4919 -0.6984  0.9678
  873MOL0     H17844  -0.081   3.822   3.618 -1.6210 -1.6365  2.1611
  873MOL0     H17845  -0.244   3.967   3.721 -1.5081 -0.5002  0.8619
  873MOL0     H17846  -0.328   3.818   3.684 -0.4216  0.1974 -2.4272
  873MOL0     H17847  -0.442   3.934   3.494  1.3703 -1.7355 -0.1678
  873MOL0     H17848  -0.337   4.070   3.502 -1.2687 -1.3864 -0.6183
  873MOL0     H17849  -0.530   4.018   3.737  1.2606  2.1147  0.8907
  873MOL0     H17850  -0.420   4.131   3.727  0.1586 -0.3127  1.8601
  873MOL0     H17851  -0.732   4.260   3.477  0.6111  2.8930  1.3337
  873MOL0     H17852  -0.287   3.756   3.223 -0.5466  2.9413  0.0625
  873MOL0     H17853  -0.113   3.844   2.933 -3.8567  0.1503 -0.7289
  873MOL0     H17854  -0.137   3.668   2.914 -1.5431  2.6853 -3.6692
  873MOL0     H17855  -0.254   3.778   2.997 -0.8060 -1.6762 -0.0085
  874MOL0     O17856   6.822   7.058   4.351  0.3772  0.5197 -0.3246
  874MOL0     C17857   6.815   6.986   4.249 -0.3537  0.1148  0.3197
  874MOL0     O17858   6.920   6.943   4.178 -0.7231  1.1737  0.7301
  874MOL0     C17859   7.054   6.981   4.217  0.2845  0.2151 -0.5351
  874MOL0     C17860   7.132   7.044   4.122 -0.8580 -0.3258  0.3806
  874MOL0     C17861   7.263   7.080   4.148  0.8227  0.7016  0.7699
  874MOL0     C17862   7.327   7.044   4.267 -0.5544  0.2769  0.1277
  874MOL0     O17863   7.465   7.049   4.290  0.3182 -1.0707 -0.2389
  874MOL0     C17864   7.529   6.918   4.306  0.7124 -0.3398  0.5081
  874MOL0     C17865   7.634   6.913   4.202 -0.8680 -0.1893  0.7660
  874MOL0     C17866   7.764   6.990   4.224 -0.1795 -0.1297 -0.4394
  874MOL0     C17867   7.882   6.919   4.148 -0.5284  0.4591  0.1650
  874MOL0     C17868   7.864   6.919   4.007  0.1602  0.4964 -0.5922
  874MOL0     C17869   7.856   7.052   3.947 -0.7372  0.4035 -0.0486
  874MOL0     C17870   7.836   7.054   3.798 -1.1683 -0.0884 -0.7397
  874MOL0     C17871   7.685   7.022   3.764  0.5424 -0.3408 -0.1908
  874MOL0     N17872   7.614   7.158   3.745 -0.1939 -0.3483  1.2344
  874MOL0     C17873   7.614   7.237   3.628  0.5606 -0.3001 -0.5051
  874MOL0     C17874   7.551   7.348   3.673  0.5356  0.2118  0.3594
  874MOL0     C17875   7.500   7.462   3.599 -1.5783  0.0674 -0.0622
  874MOL0     C17876   7.620   7.561   3.587 -0.3724  0.3736 -0.6075
  874MOL0     C17877   7.704   7.583   3.721  0.1025 -0.2990  1.1004
  874MOL0     C17878   7.833   7.663   3.686  0.8042 -0.0951 -0.7094
  874MOL0     O17879   7.938   7.571   3.669  0.6123  0.1063  0.6718
  874MOL0     C17880   8.049   7.602   3.605  0.5876 -1.0189  0.8193
  874MOL0     C17881   8.131   7.500   3.571  0.3482 -0.4462  0.7448
  874MOL0     C17882   8.247   7.517   3.500  0.2037 -0.2495  0.2861
  874MOL0     C17883   8.282   7.649   3.466 -0.7163 -0.8406  0.4271
  874MOL0     C17884   8.398   7.670   3.387 -0.2241 -0.2646  0.1164
  874MOL0     O17885   8.461   7.561   3.335  0.0244 -0.1703 -0.4811
  874MOL0     C17886   8.592   7.562   3.296 -0.0441  1.0077  0.7091
  874MOL0     C17887   8.696   7.627   3.360  0.7080  0.0309  0.2640
  874MOL0     C17888   8.823   7.640   3.318 -1.2381  0.5895  0.9800
  874MOL0     C17889   8.853   7.569   3.197 -1.0756  0.7116  0.1479
  874MOL0     O17890   8.989   7.560   3.171  0.2239 -0.2864  0.1900
  874MOL0     C17891   9.044   7.603   3.048 -0.1376 -1.4484  0.1251
  874MOL0     C17892   9.176   7.529   3.037 -0.0719 -0.1285  0.6190
  874MOL0     C17893   9.229   7.527   2.896 -0.0343 -0.5579  0.0061
  874MOL0     C17894   9.291   7.659   2.861  0.0473 -0.0258  0.2760
  874MOL0     C17895   9.325   7.633   2.709  0.0324 -0.1382 -0.1278
  874MOL0     C17896   9.417   7.746   2.651 -0.9556  0.4961  0.0061
  874MOL0     C17897   9.460   7.727   2.505 -0.4987  0.1257  0.4391
  874MOL0     C17898   9.569   7.629   2.478  0.0017 -0.3699 -0.0081
  874MOL0    Cl17899   9.590   7.642   2.307 -0.1199  0.2834 -0.4177
  874MOL0     C17900   8.756   7.490   3.132  0.7805 -0.0821  0.1191
  874MOL0     C17901   8.624   7.486   3.184  0.3785  0.2899 -0.3688
  874MOL0     O17902   8.427   7.783   3.353 -0.0105 -0.6976 -0.0421
  874MOL0     C17903   8.206   7.758   3.506  0.1686 -0.7406  0.2535
  874MOL0     C17904   8.085   7.739   3.574 -0.2863 -0.0561  0.4030
  874MOL0     N17905   7.529   7.340   3.811 -0.8179 -0.0318  0.2297
  874MOL0     N17906   7.567   7.227   3.850  0.0277  0.6269 -0.6294
  874MOL0     C17907   7.255   6.962   4.350 -0.9798  0.2397 -0.2774
  874MOL0     C17908   7.116   6.938   4.331 -0.4534  0.4532  0.0087
  874MOL0     C17909   6.686   6.939   4.200  0.4551 -0.5697 -0.2011
  874MOL0     C17910   6.677   6.809   4.156 -0.1099  0.6880  0.5485
  874MOL0     C17911   6.562   6.748   4.127  0.6362 -1.0522  0.1904
  874MOL0     C17912   6.445   6.817   4.130  0.5590  0.2647  0.0982
  874MOL0     O17913   6.336   6.736   4.109 -0.1050 -0.5529 -0.3100
  874MOL0     C17914   6.199   6.780   4.131  0.6722  0.1583  0.5436
  874MOL0     C17915   6.165   6.807   4.274 -0.7051  0.4496 -0.6712
  874MOL0     C17916   6.024   6.838   4.296 -0.2080 -0.1174 -0.5259
  874MOL0     C17917   5.984   6.969   4.227 -0.4707  0.1964 -0.5451
  874MOL0     C17918   6.066   7.088   4.264  0.0224  0.7057  0.0450
  874MOL0     C17919   6.138   7.180   4.296 -0.1059  0.1509 -0.6608
  874MOL0     C17920   6.444   6.956   4.157  0.5242  0.7746 -0.4290
  874MOL0     C17921   6.562   7.018   4.195 -0.0642 -0.6675  0.8214
  874MOL0     C17922   6.564   7.163   4.242 -0.3066  0.3961  0.1977
  874MOL0     H17923   7.068   7.073   4.039 -0.6278 -0.2405  0.2330
  874MOL0     H17924   7.323   7.134   4.076  0.8869  3.5431  2.7867
  874MOL0     H17925   7.567   6.903   4.407 -0.5928  2.0408  1.4159
  874MOL0     H17926   7.459   6.839   4.277 -0.8127  1.4841 -1.0212
  874MOL0     H17927   7.593   6.952   4.109  1.5971  2.5850  0.6847
  874MOL0     H17928   7.658   6.807   4.187  1.5518  0.3743  0.1337
  874MOL0     H17929   7.788   6.994   4.330  0.9772  1.3951 -0.7281
  874MOL0     H17930   7.736   7.092   4.193  2.1237  0.0952 -2.0572
  874MOL0     H17931   7.982   6.959   4.171  0.3738 -0.5066 -1.8053
  874MOL0     H17932   7.873   6.815   4.179 -2.5839  0.1281 -1.4003
  874MOL0     H17933   7.947   6.861   3.963  0.1772  0.5535 -0.6359
  874MOL0     H17934   7.770   6.872   3.977  0.6665 -0.2939 -0.9784
  874MOL0     H17935   7.777   7.112   3.993 -1.2168  0.0510 -0.3931
  874MOL0     H17936   7.950   7.105   3.960 -1.6032  2.1202 -0.5395
  874MOL0     H17937   7.902   6.986   3.743  0.1968  0.9982 -0.5227
  874MOL0     H17938   7.865   7.154   3.763 -0.1781  0.8578  2.3835
  874MOL0     H17939   7.687   6.964   3.670  1.3686  0.3248 -0.5924
  874MOL0     H17940   7.623   6.976   3.842 -1.4875  0.7892 -1.0610
  874MOL0     H17941   7.644   7.210   3.527 -2.6987 -0.0984 -1.6238
  874MOL0     H17942   7.466   7.435   3.499  1.2166 -2.3943 -0.4850
  874MOL0     H17943   7.421   7.510   3.658  0.6200  2.1392  1.4295
  874MOL0     H17944   7.700   7.522   3.524 -0.9300  0.3385 -1.3045
  874MOL0     H17945   7.572   7.655   3.560  0.2985  0.7188 -0.6066
  874MOL0     H17946   7.730   7.489   3.772 -1.7276 -1.7335 -0.4268
  874MOL0     H17947   7.650   7.644   3.794 -0.8477  0.8740 -0.5447
  874MOL0     H17948   7.859   7.732   3.766 -1.6303  0.6632 -0.4748
  874MOL0     H17949   7.818   7.721   3.594  1.5960 -0.5981 -1.1705
  874MOL0     H17950   8.111   7.397   3.602 -3.6724 -0.6696 -1.9297
  874MOL0     H17951   8.301   7.431   3.461  0.7934  0.4528 -0.4845
  874MOL0     H17952   8.678   7.683   3.451 -0.3932  1.0899 -0.5865
  874MOL0     H17953   8.891   7.714   3.360 -2.1485  2.7465 -1.0849
  874MOL0     H17954   8.982   7.585   2.960  0.7040  0.6615 -0.9570
  874MOL0     H17955   9.076   7.707   3.041 -1.0498 -1.2527 -1.8409
  874MOL0     H17956   9.252   7.580   3.096 -0.4048 -0.3357  1.2424
  874MOL0     H17957   9.153   7.427   3.070  0.8213 -1.2839 -2.0492
  874MOL0     H17958   9.305   7.449   2.883  2.5810  2.1512 -2.1647
  874MOL0     H17959   9.149   7.501   2.827 -0.4324 -1.3627  0.7416
  874MOL0     H17960   9.371   7.677   2.932 -0.3064 -1.2342  1.0271
  874MOL0     H17961   9.216   7.738   2.859  0.7096  0.6688 -2.9738
  874MOL0     H17962   9.234   7.615   2.651 -0.0817 -3.2434  0.8061
  874MOL0     H17963   9.388   7.543   2.706 -3.0861 -2.4453 -1.4692
  874MOL0     H17964   9.353   7.835   2.649  1.6131  2.5389  1.6644
  874MOL0     H17965   9.502   7.771   2.714 -0.0861  1.3909 -1.4496
  874MOL0     H17966   9.497   7.822   2.465 -1.8587 -0.2313 -1.8088
  874MOL0     H17967   9.375   7.704   2.440  1.6098 -2.6308 -1.5919
  874MOL0     H17968   9.664   7.656   2.526  0.3285  0.2717 -0.9711
  874MOL0     H17969   9.559   7.527   2.515  2.3735 -0.7753 -0.3063
  874MOL0     H17970   8.786   7.420   3.054  2.0230  0.8594 -0.2825
  874MOL0     H17971   8.552   7.424   3.131  1.5306  0.2094 -1.9066
  874MOL0     H17972   8.208   7.864   3.478  0.7112  0.1104  3.2309
  874MOL0     H17973   8.015   7.821   3.588 -2.6438 -1.8071 -0.4535
  874MOL0     H17974   7.294   6.924   4.444 -0.0028 -0.0364 -0.7829
  874MOL0     H17975   7.053   6.872   4.389  0.0107 -0.7294 -0.7764
  874MOL0     H17976   6.768   6.751   4.166 -1.8893 -2.0392  2.0614
  874MOL0     H17977   6.563   6.645   4.096 -1.0659 -0.7901 -0.8661
  874MOL0     H17978   6.134   6.701   4.092 -0.5424  1.4424 -0.1512
  874MOL0     H17979   6.194   6.872   4.073  2.4787 -1.3621 -2.2321
  874MOL0     H17980   6.230   6.882   4.321 -0.4795 -0.4286  0.4635
  874MOL0     H17981   6.202   6.711   4.313  0.5556  0.5648 -1.5113
  874MOL0     H17982   6.008   6.854   4.403  0.9422 -0.1560 -0.3404
  874MOL0     H17983   5.952   6.758   4.275 -2.2186  1.1979  0.9925
  874MOL0     H17984   5.997   6.952   4.119 -0.2394  0.2522 -0.5255
  874MOL0     H17985   5.880   6.994   4.250 -0.5898 -1.6729  1.2093
  874MOL0     H17986   6.215   7.245   4.333 -0.6783  0.7680 -0.5484
  874MOL0     H17987   6.349   7.004   4.140  1.1708  1.7230 -1.4761
  874MOL0     H17988   6.653   7.218   4.210 -1.1070  1.4425 -0.2756
  874MOL0     H17989   6.481   7.218   4.198  0.2890  3.5780  2.6689
  874MOL0     H17990   6.554   7.162   4.351  0.6460 -0.7395  0.3051
  875MOL0     O17991   5.119   9.617   1.080 -0.0711 -0.9704  0.2596
  875MOL0     C17992   5.110   9.649   0.964 -1.2358  0.7851  0.3878
  875MOL0     O17993   5.007   9.604   0.882  0.5180 -0.6657 -0.3323
  875MOL0     C17994   4.922   9.509   0.930  0.1875 -0.3045  1.1197
  875MOL0     C17995   4.788   9.541   0.937 -1.3260  0.0400  0.5116
  875MOL0     C17996   4.695   9.453   1.000  0.1758  0.0822 -0.4138
  875MOL0     C17997   4.736   9.329   1.048  0.6340 -0.5923 -0.0114
  875MOL0     O17998   4.636   9.242   1.097 -0.1049 -0.6556  0.2484
  875MOL0     C17999   4.674   9.115   1.153  0.3015 -0.9743 -0.0640
  875MOL0     C18000   4.552   9.066   1.228 -0.1176 -0.4546 -0.2425
  875MOL0     C18001   4.549   8.914   1.269 -0.2827  0.0696  0.1358
  875MOL0     C18002   4.416   8.866   1.318 -0.3899  0.3831  0.3030
  875MOL0     C18003   4.419   8.711   1.309 -0.6913 -0.2817  0.2590
  875MOL0     C18004   4.543   8.642   1.374  0.3808  0.2480 -0.3231
  875MOL0     C18005   4.574   8.674   1.521  0.1940 -0.2472  0.2549
  875MOL0     C18006   4.675   8.576   1.572  0.0982  0.6554  0.3258
  875MOL0     N18007   4.614   8.435   1.567  0.3006 -0.8676 -0.0986
  875MOL0     C18008   4.518   8.388   1.652 -0.3156 -0.2461  0.3364
  875MOL0     C18009   4.521   8.251   1.647 -0.4283 -1.4440 -0.2921
  875MOL0     C18010   4.448   8.140   1.733  0.2759 -0.1040  0.0578
  875MOL0     C18011   4.434   8.199   1.874 -0.8666 -0.0175  0.4152
  875MOL0     C18012   4.372   8.108   1.974 -0.6973 -0.2392 -1.1635
  875MOL0     C18013   4.469   7.996   2.032 -0.0396 -0.1458 -0.0030
  875MOL0     O18014   4.550   8.055   2.134  0.5073  0.4204 -0.1384
  875MOL0     C18015   4.619   7.962   2.208 -1.1456 -0.0067 -0.8725
  875MOL0     C18016   4.627   7.826   2.206 -0.2032 -0.6504 -0.3349
  875MOL0     C18017   4.687   7.757   2.299 -0.0509 -0.4917  0.1267
  875MOL0     C18018   4.755   7.816   2.412  0.7717 -0.3623 -0.0239
  875MOL0     C18019   4.801   7.742   2.531 -0.6750  0.7439 -0.5693
  875MOL0     O18020   4.824   7.814   2.643  0.2984  0.6984 -0.0134
  875MOL0     C18021   4.836   7.771   2.770  0.7621 -0.2726 -0.2334
  875MOL0     C18022   4.796   7.866   2.874 -0.3910 -0.9731  0.7011
  875MOL0     C18023   4.789   7.830   3.014  0.3691 -1.0258  0.8605
  875MOL0     C18024   4.810   7.700   3.048  0.3792 -0.5938 -0.5600
  875MOL0     O18025   4.805   7.644   3.169 -0.5902  0.4475 -0.1103
  875MOL0     C18026   4.733   7.703   3.275  0.6144  0.5648  0.2533
  875MOL0     C18027   4.724   7.609   3.393 -0.4967 -0.5903  0.3355
  875MOL0     C18028   4.830   7.652   3.497 -0.1802 -0.1028 -0.9437
  875MOL0     C18029   4.857   7.525   3.587 -0.0121  0.2826 -0.6040
  875MOL0     C18030   4.975   7.554   3.680 -0.0686 -0.2784 -0.1536
  875MOL0     C18031   4.987   7.446   3.791 -0.3414  0.1194 -0.1547
  875MOL0     C18032   5.029   7.302   3.752 -0.0929  0.0476  1.0018
  875MOL0     C18033   4.976   7.215   3.869  0.6145 -1.0145  0.9438
  875MOL0    Cl18034   5.052   7.239   4.032 -0.4436  0.1992 -0.2648
  875MOL0     C18035   4.848   7.609   2.951 -0.2095  0.2688 -0.0142
  875MOL0     C18036   4.862   7.640   2.815 -0.8123 -0.7064  1.1216
  875MOL0     O18037   4.813   7.611   2.520 -0.3978 -0.4893 -0.3887
  875MOL0     C18038   4.757   7.960   2.409 -0.6690  0.1939  0.1198
  875MOL0     C18039   4.695   8.030   2.304  0.1047  0.0926  0.2051
  875MOL0     N18040   4.615   8.224   1.545 -0.7544  0.5579  0.0581
  875MOL0     N18041   4.662   8.336   1.493  0.1316 -0.9480  1.1126
  875MOL0     C18042   4.871   9.292   1.031  0.5460 -0.8541 -0.5741
  875MOL0     C18043   4.967   9.382   0.974 -0.4801  0.3502 -0.7936
  875MOL0     C18044   5.229   9.722   0.907  0.1105 -0.1086  0.7225
  875MOL0     C18045   5.363   9.680   0.933  0.1152 -0.1198  0.4357
  875MOL0     C18046   5.475   9.750   0.901  0.9424  0.3668  0.6940
  875MOL0     C18047   5.468   9.867   0.828  0.1236  0.1729  0.1825
  875MOL0     O18048   5.584   9.941   0.804  0.3991  0.0868  0.2270
  875MOL0     C18049   5.583  10.009   0.680  0.2381  1.0088 -0.5950
  875MOL0     C18050   5.716  10.084   0.676  0.2170 -0.4231 -0.1315
  875MOL0     C18051   5.714  10.229   0.722  0.4926 -0.9401 -0.1333
  875MOL0     C18052   5.655  10.243   0.860  0.6374  0.9523  0.0424
  875MOL0     C18053   5.505  10.265   0.847  0.0673  0.2145  0.0250
  875MOL0     C18054   5.391  10.283   0.825  0.3904 -0.3136 -0.6049
  875MOL0     C18055   5.330   9.914   0.803  0.1282  0.9893  0.7714
  875MOL0     C18056   5.213   9.838   0.833  0.0994  0.1115 -0.9527
  875MOL0     C18057   5.087   9.899   0.792  0.4168  0.1366  0.3237
  875MOL0     H18058   4.754   9.631   0.889  1.3652  0.4334 -0.8596
  875MOL0     H18059   4.589   9.476   1.004  0.3508  0.8256  0.3234
  875MOL0     H18060   4.710   9.044   1.078 -0.1713 -1.2158 -0.0637
  875MOL0     H18061   4.754   9.132   1.225 -0.5596 -0.3939  0.7888
  875MOL0     H18062   4.464   9.080   1.165 -0.1322  3.5194  0.4494
  875MOL0     H18063   4.533   9.134   1.312 -1.8491  0.6651 -1.4911
  875MOL0     H18064   4.623   8.883   1.344 -0.4724  1.9949  1.1627
  875MOL0     H18065   4.587   8.870   1.176  0.4875  2.7829 -0.9291
  875MOL0     H18066   4.384   8.887   1.421  0.3288  2.3075  0.1771
  875MOL0     H18067   4.332   8.918   1.272 -0.4793  1.3976  1.5625
  875MOL0     H18068   4.325   8.672   1.350 -1.5047  0.6682 -0.6513
  875MOL0     H18069   4.422   8.679   1.205  2.3595 -2.4499  0.8744
  875MOL0     H18070   4.519   8.535   1.370  1.2048  0.0451  0.0138
  875MOL0     H18071   4.630   8.652   1.310  0.8133  2.7836  0.5478
  875MOL0     H18072   4.496   8.677   1.598  2.4919 -2.8459  2.9632
  875MOL0     H18073   4.632   8.767   1.529  1.4137 -0.9837  0.1212
  875MOL0     H18074   4.756   8.572   1.498  2.1104 -0.1961  2.4517
  875MOL0     H18075   4.711   8.605   1.671 -1.3268 -1.6881  1.6243
  875MOL0     H18076   4.468   8.450   1.726 -0.4625  1.0196 -0.7740
  875MOL0     H18077   4.347   8.142   1.690 -0.1646 -3.1127  0.7417
  875MOL0     H18078   4.492   8.040   1.726 -2.7803 -1.5382 -0.1694
  875MOL0     H18079   4.533   8.236   1.903 -1.4260  0.8744  1.2910
  875MOL0     H18080   4.371   8.288   1.868 -1.8945 -0.3187  4.0397
  875MOL0     H18081   4.282   8.056   1.941 -0.5362  0.2280 -2.3822
  875MOL0     H18082   4.336   8.172   2.055  1.2094 -0.5045 -0.0404
  875MOL0     H18083   4.526   7.945   1.954 -0.8449 -1.0204 -0.0345
  875MOL0     H18084   4.406   7.921   2.080  1.7113 -0.0708  2.5727
  875MOL0     H18085   4.595   7.776   2.115 -0.6770  0.4528 -0.7910
  875MOL0     H18086   4.681   7.649   2.290 -1.2657 -0.2834 -2.4743
  875MOL0     H18087   4.781   7.966   2.834  1.7358 -1.2578 -1.0019
  875MOL0     H18088   4.746   7.899   3.086 -3.2359 -0.1403 -1.8186
  875MOL0     H18089   4.777   7.799   3.303  0.1222  0.2613  2.2769
  875MOL0     H18090   4.633   7.723   3.236  0.4165 -2.3941 -1.0616
  875MOL0     H18091   4.625   7.610   3.441  0.8512 -0.1248  3.3512
  875MOL0     H18092   4.743   7.510   3.351 -1.2989 -0.2050 -0.9722
  875MOL0     H18093   4.925   7.695   3.462  0.0222 -0.1579 -0.4728
  875MOL0     H18094   4.796   7.724   3.572  0.5433  0.5593 -1.2419
  875MOL0     H18095   4.875   7.439   3.522  2.0924 -0.3405  0.7195
  875MOL0     H18096   4.765   7.520   3.646 -0.1925  2.9688 -0.5354
  875MOL0     H18097   4.965   7.656   3.720 -1.7973 -0.4731  0.0005
  875MOL0     H18098   5.070   7.553   3.627  0.7207 -0.9829  1.2455
  875MOL0     H18099   5.042   7.481   3.878 -3.1514  0.4522  1.6147
  875MOL0     H18100   4.885   7.445   3.830 -0.7364  1.3794 -1.0583
  875MOL0     H18101   5.136   7.308   3.734 -0.6780  0.2622 -4.0653
  875MOL0     H18102   4.988   7.283   3.652  3.1292  1.5017 -0.7487
  875MOL0     H18103   4.869   7.236   3.875  1.2024  2.4737  1.0130
  875MOL0     H18104   4.983   7.107   3.851 -0.1143 -0.8196 -0.7848
  875MOL0     H18105   4.870   7.510   2.989 -0.5086  1.3616  3.3520
  875MOL0     H18106   4.882   7.563   2.742 -0.3346  1.3578 -1.0385
  875MOL0     H18107   4.827   8.012   2.474  0.6371 -1.3050 -0.0206
  875MOL0     H18108   4.699   8.138   2.309  2.7289  0.0858 -0.0404
  875MOL0     H18109   4.905   9.190   1.047  1.1698 -0.6368 -0.4715
  875MOL0     H18110   5.069   9.347   0.959 -0.6391 -0.6876  0.3363
  875MOL0     H18111   5.374   9.579   0.970 -2.2727  0.0528  1.8364
  875MOL0     H18112   5.572   9.712   0.929  2.5250  2.8656 -0.9592
  875MOL0     H18113   5.490  10.066   0.669 -2.2441 -1.8845  2.8085
  875MOL0     H18114   5.587   9.925   0.611 -1.1967  0.6773 -0.3086
  875MOL0     H18115   5.735  10.085   0.568 -1.1688 -0.4706 -0.3931
  875MOL0     H18116   5.802  10.030   0.718 -1.4405 -1.3799  2.2708
  875MOL0     H18117   5.658  10.288   0.648 -1.5289 -0.4090  1.7177
  875MOL0     H18118   5.814  10.271   0.726  0.5950 -0.9155 -2.0314
  875MOL0     H18119   5.678  10.151   0.914  0.1804  1.4082  1.0547
  875MOL0     H18120   5.704  10.330   0.905  1.9855  0.2738 -0.0664
  875MOL0     H18121   5.296  10.293   0.777 -0.4868  0.9325  1.2585
  875MOL0     H18122   5.313  10.008   0.752 -2.3741 -0.1763 -0.7431
  875MOL0     H18123   5.044   9.833   0.716 -0.3612 -1.3452  1.9691
  875MOL0     H18124   5.015   9.904   0.874 -0.9217  1.7547 -0.8977
  875MOL0     H18125   5.093   9.993   0.737  0.7187  0.3237  0.6735
  876MOL0     O18126   9.730   0.352   3.384  0.4556  0.2179 -0.4268
  876MOL0     C18127   9.735   0.230   3.378 -0.0105 -0.0532 -0.0098
  876MOL0     O18128   9.650   0.147   3.436 -0.1127 -0.7340  0.1519
  876MOL0     C18129   9.542   0.198   3.509 -0.5564  0.1269  0.5057
  876MOL0     C18130   9.409   0.174   3.463  0.2783 -0.9380  0.6577
  876MOL0     C18131   9.301   0.209   3.539 -0.3959  0.2512 -0.6286
  876MOL0     C18132   9.325   0.267   3.666 -0.2224  0.3456 -1.5682
  876MOL0     O18133   9.217   0.323   3.741  0.0596  0.5193 -0.8494
  876MOL0     C18134   9.083   0.305   3.693  0.9755 -0.0728 -0.8737
  876MOL0     C18135   8.991   0.422   3.735  0.9180  0.1318 -0.3782
  876MOL0     C18136   8.947   0.436   3.882 -0.3844 -0.5046  0.5925
  876MOL0     C18137   9.072   0.479   3.959  0.1504  0.3198  0.1116
  876MOL0     C18138   9.026   0.511   4.093  0.3630 -0.5815 -0.4877
  876MOL0     C18139   9.142   0.577   4.181 -0.5453  0.2345 -0.5636
  876MOL0     C18140   9.089   0.642   4.308  0.8651  0.4268 -0.3115
  876MOL0     C18141   9.015   0.551   4.406  0.9160 -0.5520 -0.1925
  876MOL0     N18142   8.933   0.627   4.509  0.8117 -0.1233  0.2338
  876MOL0     C18143   8.910   0.575   4.635  0.8120 -0.4785 -1.1176
  876MOL0     C18144   8.840   0.675   4.699 -1.1049  0.3608 -0.2690
  876MOL0     C18145   8.850   0.698   4.854  0.1181 -0.1740 -0.8670
  876MOL0     C18146   8.713   0.703   4.943  0.0290 -0.0416  0.6974
  876MOL0     C18147   8.679   0.571   4.997  0.2803 -0.1249  0.2567
  876MOL0     C18148   8.685   0.456   4.895  0.1028 -0.4968 -0.1400
  876MOL0     O18149   8.638   0.335   4.961 -0.0322  1.7100 -0.7957
  876MOL0     C18150   8.701   0.215   4.952  0.5483  0.1030  0.0690
  876MOL0     C18151   8.676   0.129   5.055  0.7124  0.2912 -0.1374
  876MOL0     C18152   8.729   0.004   5.048 -0.5561 -0.5569  0.3087
  876MOL0     C18153   8.818  -0.041   4.951  0.6531  0.0710  0.4331
  876MOL0     C18154   8.874  -0.178   4.954 -0.2842  0.2152 -0.2488
  876MOL0     O18155   8.836  -0.263   5.052 -0.2077  0.5189 -0.4909
  876MOL0     C18156   8.878  -0.391   5.063  0.3758  0.7348  0.5181
  876MOL0     C18157   8.978  -0.475   4.999  0.1117 -0.4651  0.0728
  876MOL0     C18158   9.007  -0.610   5.027  0.5864  0.5293 -1.0255
  876MOL0     C18159   8.939  -0.668   5.137  0.5226  0.3158  0.2605
  876MOL0     O18160   8.940  -0.795   5.176  0.2716 -0.5772 -0.3384
  876MOL0     C18161   9.033  -0.872   5.106 -0.4591 -0.3640 -0.2980
  876MOL0     C18162   9.005  -1.019   5.152 -1.2137  0.7958  0.4496
  876MOL0     C18163   9.029  -1.043   5.303 -0.0097 -0.4603  0.2810
  876MOL0     C18164   9.061  -1.195   5.327  0.9034  0.1000  0.2205
  876MOL0     C18165   9.079  -1.221   5.474  0.3893 -0.7936 -0.4883
  876MOL0     C18166   9.127  -1.360   5.508 -0.1565 -0.1882  0.3868
  876MOL0     C18167   9.145  -1.365   5.661 -0.7644  0.3113  0.1755
  876MOL0     C18168   9.233  -1.487   5.696 -0.1066  0.9101  0.0093
  876MOL0    Cl18169   9.409  -1.425   5.675 -0.1958  0.3984 -0.5596
  876MOL0     C18170   8.851  -0.588   5.206 -0.3767  0.1023 -0.7324
  876MOL0     C18171   8.817  -0.452   5.173 -0.2287 -0.2019 -0.4433
  876MOL0     O18172   8.957  -0.206   4.869  0.0494  0.3535  0.5628
  876MOL0     C18173   8.837   0.043   4.843 -0.4329 -0.5549 -0.3641
  876MOL0     C18174   8.784   0.171   4.848  0.4045  0.8533  0.1177
  876MOL0     N18175   8.807   0.768   4.600 -0.6723 -0.8530 -0.5242
  876MOL0     N18176   8.861   0.735   4.481  1.1383 -0.3048  0.1260
  876MOL0     C18177   9.450   0.293   3.705  0.3649  0.2312  0.1079
  876MOL0     C18178   9.562   0.265   3.630  0.3649 -0.7877 -0.7920
  876MOL0     C18179   9.864   0.171   3.327 -0.1963  0.5230  0.4628
  876MOL0     C18180   9.869   0.031   3.341 -0.6971 -1.0888  0.3744
  876MOL0     C18181   9.977  -0.050   3.305 -0.2239 -0.5361 -0.1721
  876MOL0     C18182  10.074   0.005   3.223  1.1302  0.5835 -0.0593
  876MOL0     O18183  10.156  -0.078   3.171 -0.0972 -0.1205  0.5455
  876MOL0     C18184  10.202  -0.065   3.037 -0.4506  0.6060  0.1853
  876MOL0     C18185  10.350  -0.105   3.030  0.0887 -0.9476  0.0623
  876MOL0     C18186  10.398  -0.242   3.076  0.0160 -0.0855 -0.5644
  876MOL0     C18187  10.369  -0.347   2.978  0.2162 -0.2984 -0.4826
  876MOL0     C18188  10.472  -0.347   2.880 -0.5829  1.3755 -1.0143
  876MOL0     C18189  10.565  -0.340   2.800 -0.1393  0.5497  0.5848
  876MOL0     C18190  10.077   0.146   3.202 -0.0051  0.2081  0.0048
  876MOL0     C18191   9.972   0.224   3.250  0.7049  0.9109 -0.6427
  876MOL0     C18192   9.968   0.376   3.212 -0.5991  0.7535  0.4453
  876MOL0     H18193   9.408   0.128   3.365  1.4877  3.1645 -1.5271
  876MOL0     H18194   9.201   0.172   3.516 -1.0603  1.7831 -0.3789
  876MOL0     H18195   9.069   0.300   3.585  2.9475 -4.5177 -1.1292
  876MOL0     H18196   9.035   0.210   3.717 -2.5159  1.3270 -1.7840
  876MOL0     H18197   8.900   0.413   3.674 -0.7827 -0.9158  2.1277
  876MOL0     H18198   9.039   0.516   3.707 -0.4999  0.5005 -1.7590
  876MOL0     H18199   8.908   0.338   3.911  0.2216 -0.8854  0.1436
  876MOL0     H18200   8.862   0.505   3.887 -0.5709 -0.6584 -0.3092
  876MOL0     H18201   9.142   0.395   3.949 -1.4412 -1.0531 -0.0571
  876MOL0     H18202   9.122   0.561   3.907  1.8333 -0.3977  0.5365
  876MOL0     H18203   8.943   0.580   4.077  1.5849  0.4101 -3.2436
  876MOL0     H18204   8.980   0.424   4.139 -0.1791  0.1556  0.3936
  876MOL0     H18205   9.208   0.494   4.210 -0.6499  0.6685  0.9621
  876MOL0     H18206   9.208   0.648   4.131  0.4826 -0.8510 -0.8154
  876MOL0     H18207   9.022   0.727   4.287  1.8626  1.8674  1.9300
  876MOL0     H18208   9.180   0.691   4.342  2.3659 -0.8267 -2.3049
  876MOL0     H18209   8.940   0.495   4.349 -1.2747  2.2876 -0.2967
  876MOL0     H18210   9.074   0.483   4.468 -1.0122 -1.8791  0.2671
  876MOL0     H18211   8.950   0.496   4.697  0.3021  0.8806  1.0230
  876MOL0     H18212   8.916   0.624   4.900 -0.6443  0.3991  1.2694
  876MOL0     H18213   8.908   0.791   4.854  1.7048 -1.1294  0.3273
  876MOL0     H18214   8.732   0.766   5.031  3.0991 -0.1738  0.2218
  876MOL0     H18215   8.625   0.741   4.890  0.0133 -1.6822 -0.4987
  876MOL0     H18216   8.586   0.577   5.054  2.4050 -2.1377  4.4107
  876MOL0     H18217   8.747   0.556   5.081 -1.7623 -3.2130  1.5448
  876MOL0     H18218   8.789   0.438   4.866  0.4763  0.9618  0.2020
  876MOL0     H18219   8.624   0.465   4.805  0.1748 -0.8503 -0.2242
  876MOL0     H18220   8.628   0.167   5.144  2.3410 -2.4702  2.0759
  876MOL0     H18221   8.719  -0.054   5.139  1.1168 -0.4589  0.5765
  876MOL0     H18222   9.038  -0.427   4.921 -0.3774 -4.4808 -3.1249
  876MOL0     H18223   9.078  -0.663   4.965  0.8204 -2.8414  1.8000
  876MOL0     H18224   9.020  -0.864   4.998  3.0483 -0.8026 -0.8579
  876MOL0     H18225   9.139  -0.852   5.125  0.7716 -4.8714 -1.1266
  876MOL0     H18226   8.916  -1.072   5.115 -2.3363  0.6140  3.1514
  876MOL0     H18227   9.088  -1.075   5.109 -1.0037 -0.3567  2.2207
  876MOL0     H18228   9.109  -0.977   5.338 -3.2979  3.1528  1.8154
  876MOL0     H18229   8.938  -1.023   5.360  0.2548 -0.6597  0.7772
  876MOL0     H18230   9.159  -1.214   5.281  1.7598  1.8853  1.2029
  876MOL0     H18231   8.980  -1.243   5.272  1.2523  1.0565 -1.1838
  876MOL0     H18232   8.986  -1.193   5.524  1.2039 -2.4461  2.1635
  876MOL0     H18233   9.146  -1.145   5.516 -1.6975 -0.1831  2.0449
  876MOL0     H18234   9.053  -1.435   5.477 -0.4400  0.4520 -0.5262
  876MOL0     H18235   9.220  -1.374   5.452  0.9243 -3.7813  2.7213
  876MOL0     H18236   9.045  -1.366   5.706 -1.3999  0.5967 -1.2067
  876MOL0     H18237   9.190  -1.271   5.692 -0.5070 -0.3889  2.1024
  876MOL0     H18238   9.214  -1.507   5.802 -0.6267 -0.3309 -0.3039
  876MOL0     H18239   9.199  -1.561   5.624  0.2627  2.1316 -1.4733
  876MOL0     H18240   8.811  -0.632   5.297  0.8502 -1.1506 -0.7735
  876MOL0     H18241   8.751  -0.416   5.251  0.9238  1.5029 -0.2088
  876MOL0     H18242   8.905   0.012   4.765  0.2594  0.0629 -0.0116
  876MOL0     H18243   8.791   0.234   4.759 -0.0178  0.0939 -0.4624
  876MOL0     H18244   9.467   0.349   3.796  3.4205  0.6001 -0.5567
  876MOL0     H18245   9.664   0.295   3.654  0.0742  0.5646 -1.1852
  876MOL0     H18246   9.782  -0.018   3.385 -1.7726  0.7027  0.3510
  876MOL0     H18247   9.980  -0.159   3.305 -2.6543 -0.6756  0.9445
  876MOL0     H18248  10.182   0.036   2.999 -1.3021 -0.0016 -1.0763
  876MOL0     H18249  10.148  -0.137   2.975 -1.8220  0.1743  1.8002
  876MOL0     H18250  10.400  -0.026   3.087 -3.1511 -0.4820  2.5180
  876MOL0     H18251  10.375  -0.094   2.924  2.3988  0.0798  0.6509
  876MOL0     H18252  10.352  -0.269   3.172 -3.1573  1.0858 -1.6179
  876MOL0     H18253  10.507  -0.237   3.088 -0.1889 -0.7545  2.4583
  876MOL0     H18254  10.376  -0.439   3.037 -0.4859  1.4434  2.5760
  876MOL0     H18255  10.269  -0.330   2.938 -0.0063  0.9720  0.5358
  876MOL0     H18256  10.639  -0.328   2.724 -1.0034  0.1342 -0.3416
  876MOL0     H18257  10.151   0.189   3.135  1.6154 -0.8636  1.0374
  876MOL0     H18258  10.072   0.409   3.203 -0.6636  0.8158 -0.0664
  876MOL0     H18259   9.932   0.387   3.109  1.1314 -0.8487 -0.3946
  876MOL0     H18260   9.935   0.444   3.292  2.8365 -0.8461  3.5406
  877MOL0     O18261   4.321   9.010   8.804 -0.4549 -0.2813 -0.1261
  877MOL0     C18262   4.323   8.885   8.792  0.6598  0.9162 -0.5332
  877MOL0     O18263   4.226   8.818   8.720 -0.5176  0.3824  0.0614
  877MOL0     C18264   4.129   8.882   8.658 -0.5709 -0.2742 -0.1974
  877MOL0     C18265   4.131   8.886   8.521 -0.5173  0.4307 -0.2464
  877MOL0     C18266   4.063   8.993   8.456  0.2339  0.3154 -0.0333
  877MOL0     C18267   3.971   9.065   8.525  0.0441  0.3086 -0.5392
  877MOL0     O18268   3.917   9.161   8.441 -1.3639 -0.1090  0.0321
  877MOL0     C18269   3.810   9.237   8.484 -0.6616 -0.1489  0.0109
  877MOL0     C18270   3.765   9.307   8.349  0.6824  0.9203 -0.5464
  877MOL0     C18271   3.795   9.453   8.345  0.1087 -0.3410  0.1269
  877MOL0     C18272   3.953   9.488   8.334  0.3332  0.6401  0.4018
  877MOL0     C18273   3.963   9.632   8.297  0.1572 -0.0030  0.0526
  877MOL0     C18274   4.109   9.659   8.249  0.6750 -0.2441  0.1540
  877MOL0     C18275   4.115   9.814   8.242  0.0800 -0.4279 -0.5242
  877MOL0     C18276   4.256   9.872   8.226 -0.9208  1.0202 -1.2049
  877MOL0     N18277   4.350   9.830   8.337  0.1240 -0.5925  0.6433
  877MOL0     C18278   4.432   9.724   8.327  0.2998  0.1384 -0.8731
  877MOL0     C18279   4.484   9.717   8.452 -1.0793  0.1916  0.4052
  877MOL0     C18280   4.607   9.639   8.485 -0.8395 -0.0537  0.8261
  877MOL0     C18281   4.580   9.565   8.617 -0.0113  0.1383  0.3615
  877MOL0     C18282   4.618   9.420   8.610 -0.4181 -0.1716 -0.7398
  877MOL0     C18283   4.768   9.405   8.573  0.2314 -1.0317  0.0771
  877MOL0     O18284   4.834   9.418   8.700 -0.4035  0.0291 -0.0655
  877MOL0     C18285   4.905   9.312   8.746 -0.1583  0.3126  0.0596
  877MOL0     C18286   4.976   9.225   8.662 -0.6786 -0.4816  0.1475
  877MOL0     C18287   5.055   9.111   8.708  0.7631 -0.6518 -0.3243
  877MOL0     C18288   5.059   9.087   8.849 -0.5325  0.8224  1.0525
  877MOL0     C18289   5.141   8.971   8.898 -0.1164  0.0033 -0.0344
  877MOL0     O18290   5.261   8.964   8.846 -0.2277  0.0309 -0.7517
  877MOL0     C18291   5.354   8.896   8.912 -0.7295  0.5318  0.3008
  877MOL0     C18292   5.459   8.951   8.986 -0.4916  1.0552 -1.6732
  877MOL0     C18293   5.553   8.870   9.056  0.7871  1.6861 -0.0342
  877MOL0     C18294   5.550   8.731   9.049 -0.1034 -1.0340  0.1831
  877MOL0     O18295   5.652   8.654   9.097  0.5307 -0.3422 -0.7710
  877MOL0     C18296   5.633   8.635   9.243 -0.2755 -0.4619 -0.4568
  877MOL0     C18297   5.673   8.758   9.336  0.7226  0.7134  0.4834
  877MOL0     C18298   5.652   8.726   9.488  0.5125  0.0784 -0.1127
  877MOL0     C18299   5.691   8.584   9.544 -0.4960  0.2234  0.8228
  877MOL0     C18300   5.719   8.581   9.694  0.4551 -0.1977 -0.0220
  877MOL0     C18301   5.731   8.442   9.756  0.5484  0.2620  0.4336
  877MOL0     C18302   5.761   8.467   9.907  0.1211 -0.5256  0.2651
  877MOL0     C18303   5.766   8.336   9.980 -0.4227 -0.3280 -1.0945
  877MOL0    Cl18304   5.919   8.233   9.936  0.4708  0.2417 -0.1709
  877MOL0     C18305   5.456   8.674   8.965  0.3942  0.1603 -0.7787
  877MOL0     C18306   5.355   8.757   8.907 -0.0544  0.2448  0.5556
  877MOL0     O18307   5.099   8.896   8.995  0.0779 -0.0904  0.1098
  877MOL0     C18308   4.987   9.171   8.933  0.3458  0.2800 -0.8441
  877MOL0     C18309   4.922   9.281   8.877 -0.6968  0.0448 -0.7954
  877MOL0     N18310   4.428   9.812   8.534 -0.2760  0.0990 -0.3320
  877MOL0     N18311   4.356   9.887   8.458  1.4944  0.8037 -0.3081
  877MOL0     C18312   3.947   9.039   8.662 -0.3851  0.3020  0.4010
  877MOL0     C18313   4.025   8.944   8.729 -0.3205  0.2362  0.0019
  877MOL0     C18314   4.442   8.804   8.847 -0.3021  0.8063  0.0441
  877MOL0     C18315   4.425   8.673   8.892 -0.2099  0.4350  0.2008
  877MOL0     C18316   4.525   8.593   8.925 -0.5732  0.8130 -0.5500
  877MOL0     C18317   4.657   8.641   8.945 -0.6751 -0.5704  0.2417
  877MOL0     O18318   4.751   8.545   8.995 -0.5262  0.0628  0.8964
  877MOL0     C18319   4.882   8.590   9.022 -0.4659  0.0281 -0.4797
  877MOL0     C18320   4.980   8.483   9.081  1.5292  0.1820  1.0446
  877MOL0     C18321   5.084   8.547   9.172 -0.8618 -0.2902  0.0829
  877MOL0     C18322   5.220   8.497   9.149  0.2376 -0.3652 -0.2062
  877MOL0     C18323   5.232   8.354   9.181 -0.2707 -0.3848  0.0981
  877MOL0     C18324   5.230   8.242   9.231 -0.9078 -0.0399 -0.5716
  877MOL0     C18325   4.689   8.781   8.918  0.5357 -1.0536  0.0056
  877MOL0     C18326   4.574   8.861   8.879 -0.1342  0.3692 -0.5794
  877MOL0     C18327   4.614   9.003   8.846  0.7131 -0.3254  0.3219
  877MOL0     H18328   4.197   8.830   8.456 -1.3668  0.2341 -0.9695
  877MOL0     H18329   4.074   9.007   8.349 -3.7880  0.6858 -0.5498
  877MOL0     H18330   3.727   9.176   8.520 -1.0614  1.7707  2.6186
  877MOL0     H18331   3.829   9.307   8.567 -2.3154 -0.5366  0.7622
  877MOL0     H18332   3.657   9.296   8.335  0.6275  0.5260  0.1188
  877MOL0     H18333   3.808   9.263   8.258 -0.6546  1.8317 -1.6537
  877MOL0     H18334   3.752   9.504   8.431  1.8944 -0.8551  1.3982
  877MOL0     H18335   3.754   9.490   8.250 -0.2798 -1.7013 -0.2682
  877MOL0     H18336   4.011   9.454   8.420  0.8198 -2.1591 -0.9316
  877MOL0     H18337   3.994   9.430   8.252 -0.0107 -1.6715  1.7671
  877MOL0     H18338   3.898   9.656   8.213 -0.3476  0.5373  0.5823
  877MOL0     H18339   3.934   9.707   8.372  1.5471  2.3258 -1.6136
  877MOL0     H18340   4.191   9.623   8.311  2.5118  1.5507 -1.0836
  877MOL0     H18341   4.126   9.610   8.152  1.3344 -0.8820  0.5847
  877MOL0     H18342   4.078   9.858   8.336 -1.8102  0.1733 -1.4948
  877MOL0     H18343   4.051   9.846   8.160  2.2674 -0.5108 -2.3559
  877MOL0     H18344   4.300   9.818   8.141 -1.0883 -1.2228  0.0395
  877MOL0     H18345   4.259   9.980   8.212  1.5714  0.9626 -1.6503
  877MOL0     H18346   4.469   9.674   8.238 -0.4877  1.0257 -1.7196
  877MOL0     H18347   4.636   9.568   8.406  3.6181  2.9882 -0.7119
  877MOL0     H18348   4.695   9.703   8.500  1.0642 -2.1567 -0.7635
  877MOL0     H18349   4.637   9.611   8.698 -0.8873  2.1954 -0.1232
  877MOL0     H18350   4.473   9.564   8.641  0.0955 -0.4363  0.8482
  877MOL0     H18351   4.543   9.372   8.546 -0.7221  4.5108 -4.4440
  877MOL0     H18352   4.585   9.383   8.707  0.8451 -3.8182 -1.5560
  877MOL0     H18353   4.817   9.477   8.507  0.6717 -2.3408 -1.0722
  877MOL0     H18354   4.776   9.304   8.532  0.2764 -0.6356 -0.9204
  877MOL0     H18355   4.981   9.249   8.557  2.0870  0.5138  0.4171
  877MOL0     H18356   5.109   9.047   8.640  1.7301  1.7490 -1.9763
  877MOL0     H18357   5.464   9.057   9.008 -0.7935  0.4261  1.9295
  877MOL0     H18358   5.632   8.920   9.111  1.4209 -4.1622  5.5314
  877MOL0     H18359   5.533   8.601   9.268  0.5717 -3.5177 -0.8382
  877MOL0     H18360   5.703   8.557   9.275  1.4108  0.2639 -2.1396
  877MOL0     H18361   5.770   8.797   9.306  0.6733  0.3753 -0.1328
  877MOL0     H18362   5.609   8.843   9.311  3.6553  3.4915  1.7686
  877MOL0     H18363   5.713   8.799   9.542 -1.7175  3.2087 -1.5149
  877MOL0     H18364   5.555   8.755   9.530  2.5424  2.4096  3.5062
  877MOL0     H18365   5.785   8.550   9.500 -1.1934 -1.1746  0.3559
  877MOL0     H18366   5.616   8.507   9.519  0.8183 -0.8495  0.0470
  877MOL0     H18367   5.640   8.629   9.753 -1.6565 -1.8522 -1.3528
  877MOL0     H18368   5.813   8.636   9.701  0.3179  0.3783 -1.9922
  877MOL0     H18369   5.641   8.386   9.728  1.0198  0.2041 -1.0396
  877MOL0     H18370   5.817   8.392   9.712  0.9794 -1.0182  2.5719
  877MOL0     H18371   5.676   8.522   9.950 -1.7441 -2.1864 -1.1143
  877MOL0     H18372   5.856   8.521   9.917  0.0908  0.0955 -2.1503
  877MOL0     H18373   5.758   8.348  10.089 -0.8674 -0.8906 -1.0624
  877MOL0     H18374   5.676   8.277   9.961 -0.0697 -1.6128  0.8855
  877MOL0     H18375   5.443   8.566   8.970 -0.0409  0.1950 -1.1877
  877MOL0     H18376   5.282   8.702   8.849  1.6271 -1.7881  0.2399
  877MOL0     H18377   4.972   9.160   9.039  0.0644  3.9712 -0.3688
  877MOL0     H18378   4.881   9.347   8.953  2.6331  1.7913 -0.3125
  877MOL0     H18379   3.876   9.105   8.710  1.0572 -0.5734  4.0400
  877MOL0     H18380   4.018   8.924   8.836  0.2922 -1.5456 -0.2591
  877MOL0     H18381   4.326   8.630   8.886  0.5398 -1.5292  1.0744
  877MOL0     H18382   4.512   8.486   8.935 -1.0065  0.9686  0.6540
  877MOL0     H18383   4.864   8.673   9.092 -2.7705 -0.1457 -0.7850
  877MOL0     H18384   4.928   8.636   8.935 -0.3186  1.3602  0.2776
  877MOL0     H18385   5.036   8.438   9.000 -1.6446  0.3848 -1.4664
  877MOL0     H18386   4.929   8.406   9.141 -0.6690  0.3544 -0.4691
  877MOL0     H18387   5.045   8.529   9.273  0.1325  2.6141  1.0971
  877MOL0     H18388   5.093   8.656   9.167 -0.7065 -0.2297  1.2607
  877MOL0     H18389   5.259   8.510   9.048 -1.1218  0.6687 -0.6158
  877MOL0     H18390   5.279   8.547   9.226  2.5073 -0.9381 -1.4749
  877MOL0     H18391   5.225   8.146   9.279 -0.4266 -1.1361 -2.6160
  877MOL0     H18392   4.789   8.822   8.921 -0.2335  0.9598  3.0743
  877MOL0     H18393   4.584   9.042   8.748  1.6137 -1.6349 -0.5030
  877MOL0     H18394   4.567   9.064   8.923  0.4149 -1.7108  1.2767
  877MOL0     H18395   4.721   9.016   8.861  0.8090 -0.4383 -0.2249
  878MOL0     O18396   6.298   2.969   3.067  0.4902 -0.0289  0.5408
  878MOL0     C18397   6.362   2.902   3.138  0.0238  0.1409  0.5317
  878MOL0     O18398   6.317   2.787   3.195  0.2204 -0.6305  0.4848
  878MOL0     C18399   6.231   2.712   3.116 -0.7809  0.0089  0.0922
  878MOL0     C18400   6.261   2.687   2.987  0.0342 -0.0310  0.5174
  878MOL0     C18401   6.170   2.604   2.910 -0.4154 -0.6238  0.3037
  878MOL0     C18402   6.047   2.560   2.962  1.0717 -0.0656 -0.1646
  878MOL0     O18403   5.958   2.492   2.887 -0.4016 -0.4415 -0.1397
  878MOL0     C18404   5.887   2.382   2.941  0.2067  0.1616 -0.0479
  878MOL0     C18405   5.876   2.292   2.821 -0.6367  0.3176  0.2334
  878MOL0     C18406   5.809   2.159   2.865  0.2767  0.2006 -0.8903
  878MOL0     C18407   5.855   2.052   2.767 -0.2718 -0.0079  1.0894
  878MOL0     C18408   5.783   1.920   2.791  0.3215 -0.3704 -0.0968
  878MOL0     C18409   5.821   1.841   2.915 -0.4327  0.0992  0.3055
  878MOL0     C18410   5.959   1.761   2.889  0.4634 -0.4156 -1.0201
  878MOL0     C18411   5.973   1.671   3.021 -0.3779 -0.3278  0.3178
  878MOL0     N18412   6.107   1.607   3.021 -0.4492 -0.6776 -0.3848
  878MOL0     C18413   6.199   1.648   3.113 -0.6572  0.1251 -0.5514
  878MOL0     C18414   6.291   1.552   3.092 -0.0539 -0.4224  0.4354
  878MOL0     C18415   6.412   1.529   3.176  0.2317  0.2832  0.3163
  878MOL0     C18416   6.377   1.470   3.318 -0.3223 -0.0508 -0.2837
  878MOL0     C18417   6.501   1.473   3.414  0.2153  0.8394 -0.0602
  878MOL0     C18418   6.479   1.412   3.550  0.4683  0.2654  0.0791
  878MOL0     O18419   6.577   1.442   3.650 -0.6556 -0.1019 -0.1129
  878MOL0     C18420   6.559   1.396   3.777 -0.3961  0.0392  0.2215
  878MOL0     C18421   6.631   1.462   3.884  0.2022  0.1421  0.1587
  878MOL0     C18422   6.596   1.445   4.019  0.3816 -0.1374  0.0407
  878MOL0     C18423   6.497   1.348   4.056 -0.0348 -0.7240  0.1059
  878MOL0     C18424   6.469   1.311   4.194  0.1468 -0.7491  0.2264
  878MOL0     O18425   6.565   1.304   4.287 -0.3926 -0.3244 -0.2874
  878MOL0     C18426   6.517   1.267   4.412 -0.2038  0.8199 -0.4577
  878MOL0     C18427   6.546   1.364   4.511  0.1083 -0.7497 -0.3313
  878MOL0     C18428   6.518   1.334   4.640 -0.4747  0.3566  0.6139
  878MOL0     C18429   6.443   1.221   4.672  0.2692 -0.4258 -0.0774
  878MOL0     O18430   6.403   1.214   4.798  1.2739 -0.3939  0.1988
  878MOL0     C18431   6.418   1.090   4.871 -0.2715  0.9821  0.3766
  878MOL0     C18432   6.357   1.119   5.005  0.4683 -0.2383  0.5555
  878MOL0     C18433   6.442   1.215   5.081  0.3281 -1.2941 -0.0678
  878MOL0     C18434   6.447   1.195   5.231  0.4334 -0.3318 -0.1800
  878MOL0     C18435   6.503   1.324   5.291 -0.1253  0.4096 -0.1591
  878MOL0     C18436   6.512   1.307   5.446 -0.1868  0.4163 -0.2047
  878MOL0     C18437   6.589   1.186   5.507 -0.2328 -0.3716  0.0640
  878MOL0     C18438   6.616   1.193   5.652  0.5720 -0.2431 -0.8018
  878MOL0    Cl18439   6.467   1.228   5.746 -0.0196  0.1090 -0.4038
  878MOL0     C18440   6.413   1.126   4.571 -0.1278  1.4536 -0.5285
  878MOL0     C18441   6.458   1.142   4.445 -0.0019 -0.2066  0.0863
  878MOL0     O18442   6.349   1.286   4.214  0.9889 -0.0253 -0.3351
  878MOL0     C18443   6.424   1.290   3.955 -0.8504  1.4667 -0.3408
  878MOL0     C18444   6.456   1.309   3.820 -0.3971  0.0480 -0.1315
  878MOL0     N18445   6.245   1.461   2.994 -0.3841  0.3213  1.2296
  878MOL0     N18446   6.128   1.492   2.959 -0.0300 -0.1858  0.0890
  878MOL0     C18447   6.019   2.585   3.101 -0.0280  1.0809 -0.0388
  878MOL0     C18448   6.119   2.650   3.174  0.9804  0.3775 -0.1628
  878MOL0     C18449   6.492   2.956   3.185  0.6558  0.3910 -0.1721
  878MOL0     C18450   6.548   2.889   3.290  0.3608  0.2782  1.2083
  878MOL0     C18451   6.651   2.936   3.352 -0.5209 -0.5890 -0.6423
  878MOL0     C18452   6.727   3.038   3.298  0.5413  0.2570 -0.4054
  878MOL0     O18453   6.848   3.080   3.354  0.2990 -0.2477 -0.0639
  878MOL0     C18454   6.946   3.152   3.276  0.4139 -0.7541  1.2361
  878MOL0     C18455   7.076   3.119   3.350 -0.7000  1.2358  0.7325
  878MOL0     C18456   7.209   3.136   3.273 -0.3846 -0.5713 -0.0616
  878MOL0     C18457   7.204   3.278   3.215  0.4507 -0.3045 -0.0494
  878MOL0     C18458   7.145   3.387   3.300 -0.0055  0.2028 -0.5339
  878MOL0     C18459   7.102   3.492   3.356 -0.9798 -0.5936 -0.2690
  878MOL0     C18460   6.673   3.103   3.180  0.1796  0.3592  0.7984
  878MOL0     C18461   6.561   3.061   3.121  0.6749  0.9242  1.2994
  878MOL0     C18462   6.507   3.130   2.997 -0.3719 -0.3324 -0.9139
  878MOL0     H18463   6.357   2.721   2.950  2.0844 -1.6581  3.8227
  878MOL0     H18464   6.185   2.578   2.806 -2.6643 -3.0596  0.4893
  878MOL0     H18465   5.945   2.342   3.025 -1.0526  1.1098  1.3180
  878MOL0     H18466   5.783   2.393   2.971  0.5736  0.0196  1.3496
  878MOL0     H18467   5.977   2.274   2.783 -0.0732  0.4748  1.5872
  878MOL0     H18468   5.826   2.331   2.732  0.1867  1.5750  0.2917
  878MOL0     H18469   5.700   2.170   2.868  0.4979  6.8571  1.5021
  878MOL0     H18470   5.838   2.118   2.962  2.0542 -2.5706 -2.4640
  878MOL0     H18471   5.817   2.090   2.672  2.0406  0.1270  0.1685
  878MOL0     H18472   5.962   2.029   2.767 -0.6165 -1.8161  2.3714
  878MOL0     H18473   5.675   1.934   2.806  0.4069 -0.4754  0.6845
  878MOL0     H18474   5.794   1.857   2.702 -0.8351 -0.9099  0.1194
  878MOL0     H18475   5.819   1.913   2.998 -1.9787  1.8060 -1.1446
  878MOL0     H18476   5.744   1.765   2.935 -0.4382  0.4567  1.7364
  878MOL0     H18477   6.037   1.836   2.879 -0.0683 -0.0524 -2.6113
  878MOL0     H18478   5.956   1.691   2.805  0.6394 -0.4753 -0.9776
  878MOL0     H18479   5.935   1.724   3.108 -0.9585  0.8231 -0.6060
  878MOL0     H18480   5.908   1.584   3.007 -0.3207 -0.4888  1.0110
  878MOL0     H18481   6.206   1.724   3.190  1.0790 -0.9432  0.4089
  878MOL0     H18482   6.485   1.460   3.132 -1.7809 -0.8050 -1.5151
  878MOL0     H18483   6.457   1.627   3.194 -0.2627  0.7442 -0.8799
  878MOL0     H18484   6.304   1.533   3.371  0.3199 -0.6538  1.4063
  878MOL0     H18485   6.331   1.374   3.295 -0.6622  0.7871 -3.6018
  878MOL0     H18486   6.520   1.576   3.444 -1.7001  0.9047  1.0586
  878MOL0     H18487   6.590   1.428   3.368 -1.6175  0.4086 -3.5480
  878MOL0     H18488   6.482   1.302   3.552  1.4430  0.2697 -0.5077
  878MOL0     H18489   6.382   1.455   3.579  1.6156  3.5656 -0.5759
  878MOL0     H18490   6.707   1.528   3.844 -0.9390  2.4898  1.6397
  878MOL0     H18491   6.645   1.495   4.101  2.4599 -0.2229 -1.0684
  878MOL0     H18492   6.599   1.450   4.472 -1.5457 -0.3153 -1.7601
  878MOL0     H18493   6.563   1.402   4.712  0.1716  0.6188 -0.0159
  878MOL0     H18494   6.369   1.004   4.824 -2.5987  0.7738  2.9485
  878MOL0     H18495   6.518   1.049   4.885 -1.2467 -1.8377 -0.2359
  878MOL0     H18496   6.255   1.154   4.982  1.4741  0.6194 -3.3454
  878MOL0     H18497   6.347   1.030   5.066  0.2031 -1.8070 -1.6586
  878MOL0     H18498   6.547   1.222   5.051  0.4985 -2.5297  0.1607
  878MOL0     H18499   6.389   1.310   5.067  0.7842 -0.2859  3.9068
  878MOL0     H18500   6.504   1.102   5.241  1.5024  0.5247  2.8268
  878MOL0     H18501   6.352   1.179   5.282  1.4776  1.5798  2.5810
  878MOL0     H18502   6.444   1.413   5.266 -0.4346  0.9412  2.2212
  878MOL0     H18503   6.605   1.341   5.256  0.0224  3.9224  1.4632
  878MOL0     H18504   6.562   1.394   5.490 -0.2393 -0.3165  1.3449
  878MOL0     H18505   6.416   1.305   5.497 -0.0928 -2.6602 -0.0078
  878MOL0     H18506   6.678   1.168   5.446 -0.5616 -1.0399 -0.2306
  878MOL0     H18507   6.535   1.091   5.496  1.1919 -1.1425 -0.4806
  878MOL0     H18508   6.642   1.093   5.687 -3.3730 -1.3729 -0.6203
  878MOL0     H18509   6.696   1.266   5.670 -0.0994  0.3647 -0.2443
  878MOL0     H18510   6.343   1.046   4.592 -0.0100  0.9727 -1.8682
  878MOL0     H18511   6.436   1.067   4.370 -1.0524  1.4535 -1.3552
  878MOL0     H18512   6.348   1.220   3.988  1.7222 -1.8074 -0.8861
  878MOL0     H18513   6.410   1.250   3.742  0.7047  1.1692 -1.6814
  878MOL0     H18514   5.928   2.545   3.144  1.3891  0.2935  2.4473
  878MOL0     H18515   6.113   2.650   3.282 -1.1788 -0.2141 -0.2264
  878MOL0     H18516   6.492   2.808   3.335 -2.6912  2.1596  1.0991
  878MOL0     H18517   6.675   2.900   3.452 -1.1074 -1.8241 -0.9249
  878MOL0     H18518   6.925   3.259   3.274 -2.0237 -1.1173 -2.3440
  878MOL0     H18519   6.957   3.110   3.176  1.0178 -0.4201  1.1575
  878MOL0     H18520   7.078   3.013   3.378  0.1482  0.6359 -1.3646
  878MOL0     H18521   7.086   3.163   3.449 -1.1293  2.1061  0.4012
  878MOL0     H18522   7.216   3.070   3.185 -1.3935  0.6393 -1.0834
  878MOL0     H18523   7.296   3.127   3.339 -1.2718 -1.2139  1.0533
  878MOL0     H18524   7.307   3.312   3.211  0.0232  1.4361  1.9013
  878MOL0     H18525   7.154   3.282   3.118  4.1431 -0.1448 -2.1309
  878MOL0     H18526   7.068   3.579   3.408  0.7659 -1.3496  2.3365
  878MOL0     H18527   6.733   3.181   3.134  1.8184 -0.2379  1.8168
  878MOL0     H18528   6.581   3.203   2.963 -0.4538  2.0790  3.2761
  878MOL0     H18529   6.465   3.061   2.924 -1.9663 -2.8598  2.1157
  878MOL0     H18530   6.428   3.192   3.041  0.3395  0.7295 -1.0819
  879MOL0     O18531   5.653   3.716   6.996  0.0438 -0.0655  0.4046
  879MOL0     C18532   5.669   3.836   7.015 -0.5733 -0.8821 -0.0120
  879MOL0     O18533   5.731   3.916   6.927 -0.6088  0.5279 -0.1868
  879MOL0     C18534   5.781   3.856   6.811  0.5602 -0.5952 -0.0167
  879MOL0     C18535   5.910   3.877   6.775  0.3518 -0.5864 -0.9815
  879MOL0     C18536   5.963   3.817   6.667 -0.1234  0.7852  0.2337
  879MOL0     C18537   5.886   3.740   6.570  0.9042 -0.4666  0.0201
  879MOL0     O18538   5.937   3.697   6.452 -1.2954 -0.0522  0.4943
  879MOL0     C18539   6.069   3.730   6.407 -0.6051 -1.4254 -0.6374
  879MOL0     C18540   6.107   3.698   6.264  0.3965  0.0859 -0.0475
  879MOL0     C18541   6.254   3.738   6.227  0.0574  0.4672  0.2203
  879MOL0     C18542   6.258   3.874   6.171  1.1396  0.4791 -0.5342
  879MOL0     C18543   6.239   3.864   6.019 -0.2984 -0.5427 -0.2611
  879MOL0     C18544   6.217   4.000   5.950 -0.6209 -0.3937  0.4740
  879MOL0     C18545   6.287   4.129   5.982 -0.6036  0.6801 -0.0668
  879MOL0     C18546   6.446   4.108   5.963  0.1013 -0.2962 -0.2365
  879MOL0     N18547   6.514   4.240   5.978  0.2124 -0.5980 -1.0375
  879MOL0     C18548   6.581   4.283   6.097 -0.8265  0.5921  0.4189
  879MOL0     C18549   6.660   4.390   6.051 -0.0059  0.0219  0.3902
  879MOL0     C18550   6.759   4.467   6.142 -0.1969  0.4504  0.4978
  879MOL0     C18551   6.683   4.522   6.267  0.9725 -0.6579  0.3315
  879MOL0     C18552   6.755   4.630   6.341 -0.1624 -0.3684 -0.2480
  879MOL0     C18553   6.667   4.666   6.463  0.4088 -0.4622  0.8482
  879MOL0     O18554   6.544   4.730   6.421 -0.4294 -0.5752  0.2543
  879MOL0     C18555   6.466   4.779   6.517 -0.1139 -0.5189 -0.4173
  879MOL0     C18556   6.464   4.729   6.655 -0.4746  0.0955 -0.2710
  879MOL0     C18557   6.368   4.773   6.743 -0.5512 -0.0671 -0.6364
  879MOL0     C18558   6.273   4.873   6.708 -0.9358  0.3819  0.2069
  879MOL0     C18559   6.154   4.914   6.802 -0.4184 -0.6627 -0.2845
  879MOL0     O18560   6.132   4.815   6.900 -0.8429  0.0213  0.6851
  879MOL0     C18561   6.041   4.824   7.007 -0.1010  0.2845  0.3135
  879MOL0     C18562   5.911   4.877   6.982  0.3922  0.2652 -0.4426
  879MOL0     C18563   5.813   4.896   7.084  0.1390  0.3187 -0.5164
  879MOL0     C18564   5.844   4.851   7.213  0.3293 -0.1585  0.0134
  879MOL0     O18565   5.760   4.854   7.322 -0.9267 -0.1835  0.5895
  879MOL0     C18566   5.613   4.880   7.312 -0.0550  0.1294 -0.7397
  879MOL0     C18567   5.513   4.797   7.400 -0.0348 -0.0709  0.1990
  879MOL0     C18568   5.532   4.799   7.547  0.3211  0.5976 -0.1433
  879MOL0     C18569   5.467   4.673   7.615 -0.1966 -0.0479 -0.2167
  879MOL0     C18570   5.529   4.645   7.765  0.1972 -0.0527 -0.2595
  879MOL0     C18571   5.460   4.732   7.866  0.1701 -0.6857  0.0094
  879MOL0     C18572   5.419   4.657   7.998 -0.5637 -0.3890  0.2172
  879MOL0     C18573   5.329   4.743   8.095  0.4471  0.1839  0.4028
  879MOL0    Cl18574   5.305   4.639   8.241 -0.3524 -0.0218  0.0274
  879MOL0     C18575   5.974   4.798   7.233 -1.1862 -0.2901 -0.2140
  879MOL0     C18576   6.072   4.774   7.132  0.3124  0.0042  0.1001
  879MOL0     O18577   6.089   5.012   6.784  0.6565  0.3878 -0.7644
  879MOL0     C18578   6.279   4.922   6.576 -0.2455 -0.0849  0.8365
  879MOL0     C18579   6.374   4.872   6.482  0.0862 -1.1700 -0.3176
  879MOL0     N18580   6.640   4.395   5.919 -1.2049 -0.6025  0.0997
  879MOL0     N18581   6.544   4.320   5.875  0.0557 -0.6215  0.2466
  879MOL0     C18582   5.757   3.719   6.605  0.3969  0.1534  0.2461
  879MOL0     C18583   5.708   3.786   6.719  0.2819  0.1223 -0.7340
  879MOL0     C18584   5.611   3.890   7.138  0.8821 -0.1407 -0.8187
  879MOL0     C18585   5.514   3.817   7.211  0.4083  0.2068 -0.4874
  879MOL0     C18586   5.463   3.864   7.334  0.5674 -0.0547  0.4506
  879MOL0     C18587   5.508   3.983   7.386  0.4021  0.1313  0.1632
  879MOL0     O18588   5.442   4.021   7.500  0.1754 -0.6746  0.1593
  879MOL0     C18589   5.503   4.135   7.567 -0.6797  0.3806  0.2032
  879MOL0     C18590   5.414   4.152   7.685 -0.6043  0.0271  0.1322
  879MOL0     C18591   5.488   4.250   7.785  0.1265  0.7192  0.3518
  879MOL0     C18592   5.414   4.298   7.912  0.6675  0.1156 -0.5396
  879MOL0     C18593   5.397   4.187   8.007  0.5675 -0.3801  0.4915
  879MOL0     C18594   5.384   4.104   8.086 -0.3459  0.4871 -0.3884
  879MOL0     C18595   5.592   4.062   7.307 -1.3373 -0.7120 -1.0908
  879MOL0     C18596   5.650   4.011   7.190 -0.3523  0.2456 -0.4172
  879MOL0     C18597   5.759   4.095   7.135  0.6180 -0.6107  0.1485
  879MOL0     H18598   5.980   3.925   6.844 -0.8598 -0.1805 -0.0075
  879MOL0     H18599   6.068   3.835   6.644  0.1630  0.9114  1.5665
  879MOL0     H18600   6.086   3.837   6.419 -3.2372 -1.1494  1.4347
  879MOL0     H18601   6.140   3.673   6.468  2.9312  0.8508 -2.2502
  879MOL0     H18602   6.030   3.736   6.197 -0.4805 -3.5158 -1.3234
  879MOL0     H18603   6.115   3.589   6.253 -0.3191  0.0433 -0.1990
  879MOL0     H18604   6.301   3.678   6.148 -0.8913 -1.5454  1.1166
  879MOL0     H18605   6.316   3.722   6.316 -1.5422 -1.6188  1.0280
  879MOL0     H18606   6.166   3.924   6.203 -0.2741 -2.1080 -0.2856
  879MOL0     H18607   6.341   3.932   6.211  0.4903  0.7674  0.4282
  879MOL0     H18608   6.326   3.817   5.972 -0.5630  0.4069 -1.7499
  879MOL0     H18609   6.154   3.799   5.995 -1.1951  0.7974 -0.8253
  879MOL0     H18610   6.219   3.987   5.841 -2.6612  1.3894  0.1563
  879MOL0     H18611   6.108   4.013   5.949 -0.9905 -2.7068 -1.7007
  879MOL0     H18612   6.256   4.166   6.080 -2.1924  2.1217 -1.0516
  879MOL0     H18613   6.257   4.196   5.901 -2.1207 -1.2958 -1.2361
  879MOL0     H18614   6.482   4.040   6.042 -0.5141 -1.5039 -0.9681
  879MOL0     H18615   6.462   4.061   5.866 -1.1914  0.1260 -0.6671
  879MOL0     H18616   6.560   4.258   6.200 -1.2412 -1.8442 -0.1896
  879MOL0     H18617   6.847   4.416   6.181  0.0142  0.1768 -0.3171
  879MOL0     H18618   6.800   4.556   6.094 -3.5966  1.2514 -1.2239
  879MOL0     H18619   6.586   4.566   6.242  1.5808 -0.4959 -1.9688
  879MOL0     H18620   6.649   4.443   6.335 -2.1338  0.0951 -0.2060
  879MOL0     H18621   6.756   4.720   6.279  0.4381  0.6090  1.1238
  879MOL0     H18622   6.856   4.615   6.379 -0.1309  1.0059  0.2657
  879MOL0     H18623   6.724   4.732   6.528 -1.1564  0.6851  1.0970
  879MOL0     H18624   6.648   4.577   6.524 -0.4264  0.1614  1.5121
  879MOL0     H18625   6.527   4.648   6.690 -1.3846 -0.8118 -0.6620
  879MOL0     H18626   6.357   4.724   6.839  1.4759  0.8379  0.1331
  879MOL0     H18627   5.884   4.921   6.887  1.2584  1.4686 -0.1552
  879MOL0     H18628   5.715   4.924   7.047 -0.3574 -3.0295 -2.1403
  879MOL0     H18629   5.602   4.988   7.325 -1.0595 -0.1197  0.6422
  879MOL0     H18630   5.583   4.865   7.208  0.1911  0.3454 -0.8432
  879MOL0     H18631   5.416   4.845   7.385 -0.0465  0.2592  1.2755
  879MOL0     H18632   5.505   4.697   7.358  0.2576 -0.1197  0.2539
  879MOL0     H18633   5.640   4.802   7.562  0.3152  0.2675 -0.0202
  879MOL0     H18634   5.479   4.893   7.566 -1.3804 -0.2114 -0.7120
  879MOL0     H18635   5.481   4.588   7.547 -0.8237 -1.0848  0.8993
  879MOL0     H18636   5.359   4.689   7.617 -0.5712 -2.1498 -0.7055
  879MOL0     H18637   5.637   4.662   7.754 -0.2826  2.7934 -1.5596
  879MOL0     H18638   5.515   4.543   7.803 -0.0525 -1.0217 -2.7910
  879MOL0     H18639   5.519   4.824   7.878  1.1583 -1.4050  0.7711
  879MOL0     H18640   5.364   4.765   7.824  0.9722 -1.1176 -2.2865
  879MOL0     H18641   5.511   4.636   8.055 -1.4946 -0.1747  1.8577
  879MOL0     H18642   5.366   4.564   7.976 -1.0861  0.3061 -1.6114
  879MOL0     H18643   5.362   4.845   8.114  4.2498 -0.2529 -2.5828
  879MOL0     H18644   5.232   4.757   8.045  1.0501  1.8069 -0.3631
  879MOL0     H18645   5.987   4.769   7.337  1.4659 -2.9745 -1.1579
  879MOL0     H18646   6.167   4.723   7.151 -0.0239 -0.1242  1.5451
  879MOL0     H18647   6.203   4.989   6.537  0.7859  0.8558  0.3716
  879MOL0     H18648   6.359   4.896   6.377 -0.6547  0.5178  0.1473
  879MOL0     H18649   5.684   3.663   6.547  0.2003  0.3269  0.3265
  879MOL0     H18650   5.604   3.775   6.748  1.2861 -0.7751  3.0693
  879MOL0     H18651   5.479   3.716   7.190  1.9903 -1.0535  2.3284
  879MOL0     H18652   5.392   3.806   7.391  0.9033  0.5062  1.4751
  879MOL0     H18653   5.520   4.222   7.504 -1.1938 -0.4005 -1.0429
  879MOL0     H18654   5.596   4.093   7.608  0.3964  0.8433 -1.6642
  879MOL0     H18655   5.395   4.062   7.744 -1.3273  2.3047  3.7216
  879MOL0     H18656   5.316   4.199   7.669 -0.5355 -0.2138 -1.0274
  879MOL0     H18657   5.511   4.341   7.728 -1.6498  0.0523 -1.5731
  879MOL0     H18658   5.575   4.188   7.807  0.1695 -1.4673 -4.7027
  879MOL0     H18659   5.475   4.373   7.963  1.4442 -1.9924  1.8566
  879MOL0     H18660   5.315   4.339   7.890  0.2241  0.9804  2.6197
  879MOL0     H18661   5.357   4.035   8.164  2.3260 -1.8758 -1.3629
  879MOL0     H18662   5.629   4.159   7.340 -0.0095 -1.6609  0.3424
  879MOL0     H18663   5.741   4.134   7.035  4.4842 -1.5343 -1.0465
  879MOL0     H18664   5.771   4.184   7.198  1.2599 -3.6643  4.8840
  879MOL0     H18665   5.857   4.046   7.136  2.9885  3.6755 -0.6926
  880MOL0     O18666   4.473   1.654   5.162 -0.5168 -0.6065  0.1398
  880MOL0     C18667   4.455   1.579   5.256 -0.1900 -0.6179 -0.3325
  880MOL0     O18668   4.465   1.616   5.391 -0.8921  0.1715 -0.4825
  880MOL0     C18669   4.534   1.728   5.444 -0.1101  1.0452  0.0576
  880MOL0     C18670   4.478   1.780   5.559  1.0077  0.0996  0.4771
  880MOL0     C18671   4.506   1.902   5.622 -0.2013  0.1565  0.6652
  880MOL0     C18672   4.605   1.976   5.565 -0.1531  0.2676  0.0431
  880MOL0     O18673   4.660   2.090   5.623  0.1333 -0.5569  1.0223
  880MOL0     C18674   4.573   2.178   5.686  0.4160  0.0253 -0.9062
  880MOL0     C18675   4.478   2.250   5.584  0.0879 -0.6409 -0.2381
  880MOL0     C18676   4.564   2.321   5.479 -0.3064 -1.4169 -0.0536
  880MOL0     C18677   4.515   2.455   5.453  0.3341  0.1242 -0.4483
  880MOL0     C18678   4.554   2.548   5.567  0.2114  0.7347 -0.9813
  880MOL0     C18679   4.681   2.624   5.547  1.3786  0.2093  0.3027
  880MOL0     C18680   4.724   2.729   5.654  0.1287  0.4497 -0.0507
  880MOL0     C18681   4.766   2.664   5.786 -0.0284 -1.6674 -0.0355
  880MOL0     N18682   4.895   2.592   5.772  0.6142  0.2798 -0.0702
  880MOL0     C18683   4.912   2.454   5.758 -0.2399 -0.0746  0.1159
  880MOL0     C18684   5.055   2.446   5.768  0.8007  0.2944 -0.1074
  880MOL0     C18685   5.131   2.317   5.771 -0.6911 -1.1086  0.5547
  880MOL0     C18686   5.160   2.259   5.637 -0.1389 -0.2186 -0.1072
  880MOL0     C18687   5.049   2.176   5.578  0.2212  0.8945  0.2035
  880MOL0     C18688   5.044   2.029   5.641  0.0559  0.5639 -0.4890
  880MOL0     O18689   5.167   1.971   5.595  0.7821 -0.6635  0.0046
  880MOL0     C18690   5.196   1.844   5.637 -0.2461 -1.2399 -0.0272
  880MOL0     C18691   5.113   1.764   5.711  0.1146  0.9785 -0.4812
  880MOL0     C18692   5.157   1.632   5.746 -0.2182 -0.3797 -0.1159
  880MOL0     C18693   5.282   1.585   5.702  0.0800  0.2742  0.1861
  880MOL0     C18694   5.325   1.444   5.723  0.8206 -0.3247  0.7576
  880MOL0     O18695   5.231   1.370   5.795 -0.5855 -1.0706 -0.5867
  880MOL0     C18696   5.250   1.232   5.777 -0.0865  0.4849 -0.2537
  880MOL0     C18697   5.356   1.158   5.834 -0.7250  0.1244  0.6742
  880MOL0     C18698   5.363   1.019   5.812  0.0106 -0.0072 -0.1256
  880MOL0     C18699   5.269   0.948   5.739 -1.1030 -0.2374  0.5523
  880MOL0     O18700   5.292   0.814   5.712 -0.3092  0.4248 -0.1051
  880MOL0     C18701   5.182   0.728   5.717  1.1781 -0.7520  0.2958
  880MOL0     C18702   5.144   0.705   5.874 -0.9385 -0.9180 -0.9798
  880MOL0     C18703   5.220   0.594   5.932  0.0735 -0.5115  0.2365
  880MOL0     C18704   5.164   0.461   5.896 -0.1565  0.2042  0.3772
  880MOL0     C18705   5.237   0.342   5.958  0.3325 -0.2424 -0.1980
  880MOL0     C18706   5.173   0.210   5.928  0.1464 -0.2681 -0.1299
  880MOL0     C18707   5.234   0.100   6.011  0.4451 -0.7578  0.0106
  880MOL0     C18708   5.177   0.074   6.152  0.1880 -0.5502 -1.0509
  880MOL0    Cl18709   5.288  -0.041   6.223  0.0667  0.0763 -0.2088
  880MOL0     C18710   5.167   1.024   5.688 -0.7139  0.8658  0.8432
  880MOL0     C18711   5.158   1.158   5.699  0.1677  0.1153  0.7871
  880MOL0     O18712   5.408   1.398   5.640  0.4344  0.6747  0.5235
  880MOL0     C18713   5.359   1.674   5.619 -0.7205 -0.4546 -0.4085
  880MOL0     C18714   5.319   1.799   5.586  0.7334  1.1610 -0.3537
  880MOL0     N18715   5.109   2.570   5.760  0.6084 -1.3044  0.2470
  880MOL0     N18716   5.014   2.660   5.779 -0.1983  0.2870 -0.2632
  880MOL0     C18717   4.660   1.930   5.434  0.2326  1.1314  0.8488
  880MOL0     C18718   4.625   1.805   5.371 -0.2661 -0.1333  0.3847
  880MOL0     C18719   4.412   1.443   5.208 -0.0755 -0.1607  0.3888
  880MOL0     C18720   4.366   1.424   5.076 -0.1517 -0.6516  0.1823
  880MOL0     C18721   4.323   1.300   5.032  0.6670  0.2942  0.1751
  880MOL0     C18722   4.322   1.183   5.107  0.2024 -0.2537 -0.5779
  880MOL0     O18723   4.312   1.059   5.071  0.7477  0.7771 -0.0544
  880MOL0     C18724   4.306   1.027   4.934  0.7643  0.1001 -0.1395
  880MOL0     C18725   4.332   0.875   4.917  0.6677  0.3612  0.8094
  880MOL0     C18726   4.338   0.827   4.763 -0.3119  0.1225  0.6772
  880MOL0     C18727   4.382   0.683   4.764 -0.1636  0.2970 -0.0763
  880MOL0     C18728   4.394   0.634   4.624  0.4652  0.9660  0.4945
  880MOL0     C18729   4.411   0.581   4.513 -1.1137 -0.4292 -0.8102
  880MOL0     C18730   4.375   1.205   5.235  0.6554  0.2342 -0.0156
  880MOL0     C18731   4.422   1.328   5.281 -0.4298  0.0009  0.1310
  880MOL0     C18732   4.454   1.331   5.431  0.6176 -0.3202  0.6377
  880MOL0     H18733   4.402   1.711   5.595 -2.1602  2.7671 -0.5212
  880MOL0     H18734   4.444   1.926   5.707 -1.2608 -5.6024  1.8949
  880MOL0     H18735   4.504   2.127   5.755  1.5327  0.0113  0.2396
  880MOL0     H18736   4.617   2.264   5.738 -1.0794  1.3283 -1.7279
  880MOL0     H18737   4.410   2.316   5.638 -2.2324 -1.5084 -1.9408
  880MOL0     H18738   4.410   2.188   5.525 -0.7559  3.3855 -3.9818
  880MOL0     H18739   4.579   2.266   5.385 -0.5245  0.3597 -1.1849
  880MOL0     H18740   4.662   2.330   5.527  0.8482  0.8242 -2.5747
  880MOL0     H18741   4.562   2.501   5.365 -1.1805  0.7302 -0.9705
  880MOL0     H18742   4.409   2.453   5.426 -0.1276 -3.5285  1.0684
  880MOL0     H18743   4.480   2.625   5.590  1.0596  1.4576 -0.6179
  880MOL0     H18744   4.559   2.491   5.661 -2.0465  0.9107 -0.6895
  880MOL0     H18745   4.764   2.554   5.537  2.3916  1.0007  2.5457
  880MOL0     H18746   4.661   2.686   5.458 -2.1867  1.7435  1.9719
  880MOL0     H18747   4.636   2.788   5.679 -1.0784  0.4484 -3.7550
  880MOL0     H18748   4.808   2.790   5.620 -1.1443  3.1577  1.3168
  880MOL0     H18749   4.782   2.745   5.857 -0.8808  0.3208 -2.0044
  880MOL0     H18750   4.681   2.616   5.836 -1.7382 -1.0284 -2.1511
  880MOL0     H18751   4.837   2.376   5.761 -0.2296 -0.0816  2.8838
  880MOL0     H18752   5.230   2.354   5.799 -0.3437 -1.3212 -0.3779
  880MOL0     H18753   5.101   2.239   5.842  3.8741 -1.7181  2.1649
  880MOL0     H18754   5.179   2.334   5.560 -0.4255 -0.7607 -0.7112
  880MOL0     H18755   5.250   2.198   5.653  0.1395  0.0715 -0.5586
  880MOL0     H18756   5.072   2.162   5.473 -2.4457  0.5585 -0.4250
  880MOL0     H18757   4.952   2.228   5.575  0.2472  1.6183  4.6216
  880MOL0     H18758   4.963   1.987   5.581  0.3514  2.1689 -2.1032
  880MOL0     H18759   5.038   2.029   5.750 -0.5237 -0.5502 -0.5059
  880MOL0     H18760   5.018   1.802   5.748  1.2075  1.1979  2.3910
  880MOL0     H18761   5.087   1.563   5.792 -3.0568  1.7190 -0.9803
  880MOL0     H18762   5.436   1.206   5.889  0.7470 -0.5852 -0.7571
  880MOL0     H18763   5.440   0.952   5.847 -1.0645 -2.7482 -2.5477
  880MOL0     H18764   5.098   0.781   5.672  1.4510  0.2388  0.9216
  880MOL0     H18765   5.204   0.634   5.665  2.4125 -1.6208  2.2640
  880MOL0     H18766   5.159   0.794   5.936 -2.4017 -0.9611 -0.5103
  880MOL0     H18767   5.038   0.678   5.881 -0.6416 -1.6698  1.7796
  880MOL0     H18768   5.322   0.597   5.894  0.7870  0.4368  2.1197
  880MOL0     H18769   5.215   0.610   6.040 -3.8812  1.0325  0.0125
  880MOL0     H18770   5.165   0.450   5.787 -0.5908 -0.3910  0.4226
  880MOL0     H18771   5.057   0.463   5.921 -0.2454  1.4785 -0.0572
  880MOL0     H18772   5.239   0.358   6.066 -1.5041  0.5455 -0.2340
  880MOL0     H18773   5.339   0.343   5.919  0.5126 -0.3791  0.2617
  880MOL0     H18774   5.068   0.215   5.960  0.7145 -0.1602  1.8646
  880MOL0     H18775   5.175   0.191   5.820 -0.8670  0.9855 -0.3902
  880MOL0     H18776   5.341   0.113   6.028  0.1675 -0.1105  1.4044
  880MOL0     H18777   5.219   0.008   5.955 -1.0505 -2.4405  2.9119
  880MOL0     H18778   5.168   0.169   6.204  1.1327 -1.2600  0.4569
  880MOL0     H18779   5.077   0.032   6.137 -0.8106  1.2794  0.1872
  880MOL0     H18780   5.093   0.967   5.633 -1.4015  1.0055  1.6069
  880MOL0     H18781   5.072   1.201   5.649  0.5322  0.7978  0.7372
  880MOL0     H18782   5.452   1.633   5.581 -0.9866  0.0348 -1.6236
  880MOL0     H18783   5.361   1.864   5.509  1.2548  0.8086 -0.3743
  880MOL0     H18784   4.742   1.980   5.383  1.4128 -0.9686  0.5533
  880MOL0     H18785   4.674   1.784   5.277 -0.5358 -0.9577  0.4248
  880MOL0     H18786   4.338   1.508   5.013 -2.3375 -1.1071  0.4591
  880MOL0     H18787   4.281   1.302   4.932  1.6800 -2.1409 -0.3719
  880MOL0     H18788   4.381   1.086   4.881  1.1729 -1.2344 -1.1104
  880MOL0     H18789   4.211   1.051   4.886  1.9541  3.4255 -1.1022
  880MOL0     H18790   4.262   0.812   4.973  2.0291 -2.0084  0.0142
  880MOL0     H18791   4.429   0.860   4.964 -0.6665 -1.0290  3.3484
  880MOL0     H18792   4.403   0.885   4.696 -1.3401 -2.6986 -3.1551
  880MOL0     H18793   4.244   0.833   4.707  1.1808 -0.8491 -2.1536
  880MOL0     H18794   4.473   0.671   4.824 -1.9311  2.4326  3.3731
  880MOL0     H18795   4.305   0.627   4.817  0.3777 -0.4662 -0.0731
  880MOL0     H18796   4.433   0.553   4.412  0.6527  0.4196 -0.6846
  880MOL0     H18797   4.384   1.122   5.305  0.7156 -0.2584 -0.6034
  880MOL0     H18798   4.381   1.404   5.466 -0.4002 -0.7026 -0.6115
  880MOL0     H18799   4.448   1.231   5.475  1.6141 -1.6787 -2.1159
  880MOL0     H18800   4.557   1.368   5.437  0.8509 -0.4848 -1.5477
  881MOL0     O18801   6.791  10.995   2.845  0.6438  0.7524 -0.3735
  881MOL0     C18802   6.820  10.968   2.963  0.1666  0.4314  0.3409
  881MOL0     O18803   6.729  10.963   3.069 -0.4643  0.2478  0.2829
  881MOL0     C18804   6.595  10.996   3.061 -0.2814 -0.6561 -0.5794
  881MOL0     C18805   6.535  11.065   2.951  0.0202  0.3914 -0.0508
  881MOL0     C18806   6.398  11.088   2.941 -0.7285 -0.0746 -0.9799
  881MOL0     C18807   6.313  11.035   3.041 -0.0381  0.2494  0.2486
  881MOL0     O18808   6.180  11.055   3.020  0.2351 -0.0358  0.5972
  881MOL0     C18809   6.081  11.059   3.120  0.0188  0.0765 -0.1105
  881MOL0     C18810   6.105  11.181   3.208 -0.0046  0.7906 -0.3008
  881MOL0     C18811   5.992  11.229   3.298 -0.3805  0.0605 -0.2489
  881MOL0     C18812   5.847  11.208   3.236 -0.1566 -0.1065  0.6524
  881MOL0     C18813   5.740  11.276   3.317  0.9617 -0.1486 -0.1685
  881MOL0     C18814   5.688  11.208   3.443 -0.6766 -0.6753 -0.6248
  881MOL0     C18815   5.600  11.294   3.525  1.1924 -0.9902 -0.2971
  881MOL0     C18816   5.541  11.214   3.642  0.5132 -0.0072  0.2464
  881MOL0     N18817   5.402  11.251   3.663 -0.5956  0.4645  0.3223
  881MOL0     C18818   5.358  11.373   3.712  0.3803  0.7488  0.1801
  881MOL0     C18819   5.225  11.357   3.695  0.9982 -0.5185 -0.4176
  881MOL0     C18820   5.108  11.450   3.713 -0.5260  0.3768  0.1668
  881MOL0     C18821   5.024  11.485   3.588 -0.3087  0.0699  0.6468
  881MOL0     C18822   5.096  11.580   3.495  0.7854  0.3326  0.3084
  881MOL0     C18823   5.185  11.509   3.396  0.0997  0.6457 -0.5219
  881MOL0     O18824   5.222  11.613   3.299 -0.1762  0.2623 -0.0125
  881MOL0     C18825   5.356  11.600   3.255 -0.8444  0.6792 -0.1769
  881MOL0     C18826   5.461  11.618   3.334 -0.8016 -0.5180  1.3596
  881MOL0     C18827   5.593  11.594   3.279 -0.3482 -0.1575 -0.0160
  881MOL0     C18828   5.611  11.548   3.147  0.4151  0.6342 -0.2423
  881MOL0     C18829   5.744  11.526   3.098 -0.2336 -0.0379  0.5324
  881MOL0     O18830   5.754  11.461   2.982  0.6568  0.1222 -0.5607
  881MOL0     C18831   5.871  11.456   2.918 -0.5029  0.8487 -0.1317
  881MOL0     C18832   5.919  11.563   2.840 -0.2006  0.0670  0.9259
  881MOL0     C18833   6.037  11.546   2.765 -0.8845 -0.5513  0.1408
  881MOL0     C18834   6.102  11.421   2.751  0.2093 -0.6271  0.7791
  881MOL0     O18835   6.202  11.402   2.654  0.3901 -0.6642  0.2950
  881MOL0     C18836   6.161  11.397   2.510 -0.7915 -0.4636 -1.0894
  881MOL0     C18837   6.286  11.403   2.420 -0.0670  0.4383 -0.1320
  881MOL0     C18838   6.245  11.348   2.287 -0.0144 -0.5143  0.9263
  881MOL0     C18839   6.373  11.358   2.201  1.1037  0.8030  0.3390
  881MOL0     C18840   6.359  11.335   2.045  0.1512  0.1657  0.4910
  881MOL0     C18841   6.485  11.285   1.974  1.2785  0.1424  0.1893
  881MOL0     C18842   6.449  11.209   1.834  0.3373 -0.3492 -0.0933
  881MOL0     C18843   6.556  11.118   1.790  0.1007 -0.1888 -0.4432
  881MOL0    Cl18844   6.523  10.943   1.849  0.3250  0.4093  0.1546
  881MOL0     C18845   6.046  11.315   2.818 -0.2048 -0.0059  0.9224
  881MOL0     C18846   5.935  11.336   2.895  0.9015  0.0369  0.5055
  881MOL0     O18847   5.844  11.562   3.165  0.4029 -0.9273  0.6070
  881MOL0     C18848   5.496  11.534   3.065 -0.0168  0.1988 -0.0165
  881MOL0     C18849   5.377  11.553   3.123  0.5245 -0.4934  0.8475
  881MOL0     N18850   5.195  11.229   3.655  0.2452  0.6208 -1.0743
  881MOL0     N18851   5.303  11.156   3.642  0.2205 -1.0065 -0.0842
  881MOL0     C18852   6.367  10.963   3.153  0.7913  0.1922 -0.3404
  881MOL0     C18853   6.501  10.948   3.157 -0.8319  0.3744  1.0844
  881MOL0     C18854   6.964  10.934   2.999  0.0460 -0.8198  0.3236
  881MOL0     C18855   7.059  10.908   2.894 -0.0064  0.3563 -0.1704
  881MOL0     C18856   7.191  10.874   2.918  0.6057  0.6696  0.3980
  881MOL0     C18857   7.236  10.882   3.048 -0.0324  0.7936  0.1246
  881MOL0     O18858   7.370  10.842   3.059  0.6076  0.2068  0.4062
  881MOL0     C18859   7.422  10.825   3.192  0.4037 -0.3510  0.5943
  881MOL0     C18860   7.555  10.776   3.194 -0.4823 -0.3709  0.2211
  881MOL0     C18861   7.668  10.881   3.148  0.5414  1.6873 -0.8961
  881MOL0     C18862   7.803  10.803   3.167  0.5657  0.0358 -0.1842
  881MOL0     C18863   7.815  10.704   3.054  0.0359  0.0712 -0.4769
  881MOL0     C18864   7.825  10.605   2.983  0.7662  0.3921 -0.7107
  881MOL0     C18865   7.147  10.907   3.153  0.1146  0.0005  1.1637
  881MOL0     C18866   7.010  10.933   3.133 -0.4035  0.9998 -0.1993
  881MOL0     C18867   6.926  10.952   3.255  0.6512  0.2425 -0.6572
  881MOL0     H18868   6.594  11.114   2.874 -3.2644  2.2774 -1.6085
  881MOL0     H18869   6.352  11.137   2.856 -1.5714 -2.9847 -2.2955
  881MOL0     H18870   5.984  11.069   3.071 -0.4212  2.1490  1.0806
  881MOL0     H18871   6.072  10.966   3.178  2.0569 -3.4867 -4.8340
  881MOL0     H18872   6.131  11.262   3.139 -5.1046  0.8496 -2.6430
  881MOL0     H18873   6.192  11.157   3.270 -0.0763  1.0394 -0.1027
  881MOL0     H18874   6.005  11.335   3.318  3.2117  0.5506 -3.7487
  881MOL0     H18875   5.991  11.166   3.387  1.3020  0.8153  0.3399
  881MOL0     H18876   5.842  11.258   3.139 -0.2499 -1.9614 -0.3594
  881MOL0     H18877   5.819  11.102   3.224  0.8303 -0.6674  2.8930
  881MOL0     H18878   5.771  11.379   3.334 -1.3518  0.8483 -1.4953
  881MOL0     H18879   5.652  11.276   3.252  0.3664 -0.9650  0.6058
  881MOL0     H18880   5.640  11.113   3.416 -0.2855 -0.1504 -3.4870
  881MOL0     H18881   5.778  11.180   3.498  1.3066 -0.4333 -3.4977
  881MOL0     H18882   5.519  11.335   3.463 -0.8460 -1.0388  2.1479
  881MOL0     H18883   5.645  11.389   3.554 -0.5088 -0.2293 -0.0055
  881MOL0     H18884   5.549  11.106   3.632  0.3128 -0.1278  1.2318
  881MOL0     H18885   5.592  11.233   3.738  2.0362  4.2159 -1.1495
  881MOL0     H18886   5.426  11.453   3.739  2.7005 -1.2929  0.6630
  881MOL0     H18887   5.030  11.411   3.779 -0.5224 -0.2021 -0.1683
  881MOL0     H18888   5.144  11.534   3.774 -0.5682  0.3367  0.2476
  881MOL0     H18889   5.007  11.398   3.523  0.0936 -0.4042  1.1710
  881MOL0     H18890   4.919  11.514   3.600 -1.0512 -0.1672 -3.6553
  881MOL0     H18891   5.149  11.661   3.545  0.0538  1.6682 -0.9888
  881MOL0     H18892   5.024  11.643   3.443 -0.4604 -0.9343  0.4322
  881MOL0     H18893   5.130  11.431   3.343 -1.3827 -0.9909  3.1226
  881MOL0     H18894   5.274  11.476   3.450  0.5927  2.5022 -0.1062
  881MOL0     H18895   5.450  11.654   3.435 -1.8938 -2.1811  1.8766
  881MOL0     H18896   5.680  11.600   3.343  1.8253 -0.7813 -2.7144
  881MOL0     H18897   5.861  11.654   2.846 -0.3094 -0.0791  2.8049
  881MOL0     H18898   6.090  11.623   2.709  1.1450 -0.8414  1.5442
  881MOL0     H18899   6.109  11.301   2.506  2.3369 -2.5297  1.8097
  881MOL0     H18900   6.100  11.484   2.484 -0.6077  0.6368  1.8134
  881MOL0     H18901   6.307  11.509   2.404 -0.0875  0.0759 -3.1050
  881MOL0     H18902   6.367  11.339   2.456 -2.6407 -3.8103 -1.1173
  881MOL0     H18903   6.197  11.252   2.306 -0.3052 -0.3424  1.0629
  881MOL0     H18904   6.171  11.413   2.240  2.2467  0.0546 -2.2243
  881MOL0     H18905   6.443  11.278   2.226  0.7023 -0.5695 -2.5427
  881MOL0     H18906   6.421  11.456   2.212  3.9576 -0.4081 -0.5053
  881MOL0     H18907   6.333  11.428   1.994 -0.6558 -0.6621 -0.6340
  881MOL0     H18908   6.267  11.276   2.038  0.7482 -0.8875  1.3022
  881MOL0     H18909   6.552  11.370   1.956  2.1250 -0.6273 -0.4093
  881MOL0     H18910   6.540  11.214   2.038  2.5776  0.4276 -0.5625
  881MOL0     H18911   6.428  11.288   1.761 -1.4991  1.1247  1.9069
  881MOL0     H18912   6.350  11.163   1.845  0.9454 -2.3908 -2.1517
  881MOL0     H18913   6.559  11.117   1.680  3.0797  1.4035 -0.4709
  881MOL0     H18914   6.653  11.144   1.833  0.8042 -0.6138 -1.7132
  881MOL0     H18915   6.079  11.212   2.810 -5.7227 -2.0608  0.6210
  881MOL0     H18916   5.888  11.246   2.934  1.3122 -0.5194 -0.2667
  881MOL0     H18917   5.520  11.499   2.965  2.9008 -0.2374  0.7432
  881MOL0     H18918   5.295  11.545   3.053  2.5338  1.7870 -2.0015
  881MOL0     H18919   6.302  10.907   3.219  0.6487  0.2662 -0.4159
  881MOL0     H18920   6.548  10.902   3.243 -0.4694  0.2260  0.8070
  881MOL0     H18921   7.030  10.923   2.790 -1.9320  0.3994  0.3360
  881MOL0     H18922   7.257  10.842   2.837 -1.3740  1.8720 -1.8124
  881MOL0     H18923   7.351  10.757   3.240 -1.9363  1.4285 -0.1345
  881MOL0     H18924   7.408  10.923   3.239 -0.1432 -0.3238  0.3811
  881MOL0     H18925   7.556  10.692   3.124 -3.1019 -0.7272  0.4863
  881MOL0     H18926   7.576  10.741   3.295 -1.7637  2.9938  1.7804
  881MOL0     H18927   7.660  10.969   3.212 -2.2326  0.3484  0.7717
  881MOL0     H18928   7.656  10.906   3.042 -0.0559 -2.8236 -2.1324
  881MOL0     H18929   7.886  10.874   3.165  1.3444 -0.7622  1.6097
  881MOL0     H18930   7.809  10.747   3.260 -1.4335  0.5004  0.2555
  881MOL0     H18931   7.843  10.529   2.909  0.6851 -0.2529 -0.0806
  881MOL0     H18932   7.181  10.910   3.257  1.5364 -1.9162  0.8112
  881MOL0     H18933   6.919  11.061   3.260  3.2122  0.4735 -0.8588
  881MOL0     H18934   6.831  10.899   3.265  0.2121  1.3347  1.7979
  881MOL0     H18935   6.986  10.941   3.346 -3.0556  2.3550  2.3693
  882MOL0     O18936   4.224   6.601   8.885 -0.5372  0.9993  0.2295
  882MOL0     C18937   4.290   6.523   8.955 -0.6263 -0.2870  0.5435
  882MOL0     O18938   4.317   6.392   8.929 -0.3521  0.2796 -0.1505
  882MOL0     C18939   4.279   6.325   8.817  0.0537  0.5508 -0.1897
  882MOL0     C18940   4.204   6.211   8.823  1.2393  0.5179  1.2276
  882MOL0     C18941   4.183   6.134   8.709 -0.4185  0.2700  0.6362
  882MOL0     C18942   4.215   6.187   8.585 -0.1531  0.2596  0.2805
  882MOL0     O18943   4.203   6.124   8.462  0.6594  0.4678 -0.3108
  882MOL0     C18944   4.100   6.024   8.466  1.0632  0.0425  0.7039
  882MOL0     C18945   4.067   5.991   8.322 -0.6962 -0.3479 -1.0081
  882MOL0     C18946   4.000   5.865   8.296 -0.0760 -1.1164  0.6884
  882MOL0     C18947   3.967   5.867   8.142  0.5284 -0.2472  0.1791
  882MOL0     C18948   3.874   5.756   8.082  0.1415 -0.9753 -0.1250
  882MOL0     C18949   3.960   5.650   8.007  0.1729  0.4748 -1.1469
  882MOL0     C18950   3.874   5.528   7.975 -0.0922  0.0241  1.1170
  882MOL0     C18951   3.973   5.437   7.891 -0.2782 -0.3744 -0.0893
  882MOL0     N18952   3.911   5.334   7.809  0.3566 -0.0001  0.2279
  882MOL0     C18953   3.811   5.355   7.717 -0.4813  0.3206 -0.8235
  882MOL0     C18954   3.797   5.229   7.660  0.5810 -0.9221  0.0050
  882MOL0     C18955   3.713   5.193   7.539 -0.2877 -0.0890  0.2708
  882MOL0     C18956   3.614   5.081   7.545 -0.7727 -0.6194  0.3855
  882MOL0     C18957   3.534   5.076   7.670  0.5307  0.0744  0.9530
  882MOL0     C18958   3.450   4.954   7.665  0.0977 -0.1944 -0.2526
  882MOL0     O18959   3.355   4.946   7.776 -0.6825 -0.1066  0.5938
  882MOL0     C18960   3.281   4.835   7.781 -0.1971 -0.0757 -0.0223
  882MOL0     C18961   3.189   4.822   7.888  1.0715  0.4033  0.8683
  882MOL0     C18962   3.105   4.710   7.897  0.6185  0.6490 -0.9147
  882MOL0     C18963   3.108   4.607   7.803  0.3915 -0.1374  0.4165
  882MOL0     C18964   3.019   4.483   7.808  0.4166 -0.6022 -0.6313
  882MOL0     O18965   3.028   4.402   7.698 -0.2764  0.4460  0.4838
  882MOL0     C18966   2.947   4.292   7.687  0.9102  0.1161  0.2630
  882MOL0     C18967   2.894   4.270   7.563  0.0919  0.2451  0.0521
  882MOL0     C18968   2.823   4.155   7.534 -0.0058  0.0820  0.7205
  882MOL0     C18969   2.787   4.068   7.637  0.3094  0.1480  0.8101
  882MOL0     O18970   2.702   3.963   7.608 -0.1554 -0.2407 -0.4738
  882MOL0     C18971   2.630   3.965   7.487 -1.1586 -0.5284  0.7236
  882MOL0     C18972   2.523   3.865   7.478  0.3804  0.0443  0.3226
  882MOL0     C18973   2.469   3.842   7.342 -1.2982  0.8625  0.2574
  882MOL0     C18974   2.334   3.769   7.343 -0.1033 -0.4754 -0.6712
  882MOL0     C18975   2.331   3.635   7.412  0.5109 -0.7036  0.5640
  882MOL0     C18976   2.196   3.573   7.392 -0.4371  0.6084 -0.1333
  882MOL0     C18977   2.134   3.555   7.254 -0.0337 -0.4265 -0.0781
  882MOL0     C18978   2.228   3.519   7.144  0.5012 -0.2538 -0.1660
  882MOL0    Cl18979   2.318   3.368   7.177  0.2961  0.1995 -0.1865
  882MOL0     C18980   2.844   4.089   7.762 -0.9189 -1.2669  0.5445
  882MOL0     C18981   2.923   4.197   7.789 -0.8321 -0.4352  0.5209
  882MOL0     O18982   2.927   4.480   7.888 -0.3082 -0.2086  0.1363
  882MOL0     C18983   3.197   4.619   7.698 -0.3436 -0.3880 -0.4364
  882MOL0     C18984   3.295   4.724   7.702 -0.5256 -0.2539  0.5678
  882MOL0     N18985   3.876   5.142   7.726  0.0158  0.5622 -0.0861
  882MOL0     N18986   3.941   5.201   7.808 -0.3878 -0.5132 -0.3285
  882MOL0     C18987   4.272   6.311   8.575  0.1267 -0.4405 -0.5753
  882MOL0     C18988   4.318   6.372   8.693 -0.1407 -0.0187  0.2378
  882MOL0     C18989   4.330   6.570   9.090 -0.2999  0.2923 -0.5823
  882MOL0     C18990   4.288   6.481   9.190  0.5386  0.0681  0.5026
  882MOL0     C18991   4.291   6.528   9.323  0.8448  0.4871 -0.8444
  882MOL0     C18992   4.350   6.655   9.355  0.9212 -0.2425  0.6492
  882MOL0     O18993   4.334   6.695   9.486 -0.3476  0.3802 -0.2828
  882MOL0     C18994   4.376   6.829   9.526 -0.1241  0.3395 -0.4771
  882MOL0     C18995   4.256   6.927   9.474  0.9377  0.7959 -1.1143
  882MOL0     C18996   4.147   6.959   9.574 -0.0866  0.9047 -0.5476
  882MOL0     C18997   4.037   7.039   9.514 -0.1469  0.0317 -0.2238
  882MOL0     C18998   4.080   7.174   9.474 -0.5660  0.1220 -0.2728
  882MOL0     C18999   4.110   7.292   9.448 -0.2389  0.3093 -0.8588
  882MOL0     C19000   4.405   6.734   9.255 -0.2427 -0.5142  0.4186
  882MOL0     C19001   4.386   6.697   9.121 -0.7905 -0.5837  0.0587
  882MOL0     C19002   4.417   6.796   9.018  0.4013  0.1676  0.3870
  882MOL0     H19003   4.164   6.174   8.918 -2.0898  4.6442  1.7551
  882MOL0     H19004   4.157   6.033   8.736 -0.3366 -0.3112 -1.3137
  882MOL0     H19005   4.155   5.943   8.514  2.1391 -0.5937 -1.4552
  882MOL0     H19006   4.016   6.040   8.534  0.0342 -0.8874 -0.2853
  882MOL0     H19007   4.155   5.989   8.258 -0.7385  1.4206 -1.1532
  882MOL0     H19008   4.005   6.073   8.284 -1.3481 -0.3968 -0.0685
  882MOL0     H19009   3.904   5.866   8.348 -0.4644 -0.3353 -0.0264
  882MOL0     H19010   4.051   5.770   8.312  1.2238 -0.6784 -0.6323
  882MOL0     H19011   3.925   5.966   8.125 -0.9603 -0.4625  2.2707
  882MOL0     H19012   4.063   5.862   8.091  0.1529  0.6271 -0.6359
  882MOL0     H19013   3.798   5.718   8.152 -0.0255 -1.6051 -0.6342
  882MOL0     H19014   3.821   5.809   8.002  1.6228  1.0958  0.1990
  882MOL0     H19015   3.999   5.698   7.917  3.6961 -1.5120 -0.8632
  882MOL0     H19016   4.035   5.617   8.079 -1.5112 -2.4776 -0.5819
  882MOL0     H19017   3.786   5.555   7.916  1.3900  0.3297 -1.0920
  882MOL0     H19018   3.835   5.473   8.061 -2.3500 -1.6946 -0.8875
  882MOL0     H19019   4.034   5.498   7.824 -0.1727 -2.2881 -1.8269
  882MOL0     H19020   4.037   5.385   7.963 -0.5396 -1.3631 -0.5600
  882MOL0     H19021   3.765   5.449   7.686 -0.2650  0.0384 -2.0450
  882MOL0     H19022   3.652   5.277   7.504  0.4104 -0.3776 -1.7575
  882MOL0     H19023   3.778   5.179   7.452 -0.9020 -3.4388  0.2279
  882MOL0     H19024   3.547   5.090   7.460  1.7563  1.2460 -1.5888
  882MOL0     H19025   3.657   4.982   7.528 -2.9767 -2.0633  2.5525
  882MOL0     H19026   3.471   5.165   7.687  0.6203  0.4395 -0.4910
  882MOL0     H19027   3.597   5.074   7.759 -1.2989  1.8539  2.3808
  882MOL0     H19028   3.521   4.870   7.667 -1.3017 -1.4119  1.7030
  882MOL0     H19029   3.392   4.933   7.574 -2.4744  0.2584  1.1987
  882MOL0     H19030   3.184   4.902   7.961 -1.5694  1.7091 -0.5788
  882MOL0     H19031   3.030   4.702   7.975  2.4956 -0.9216  0.8287
  882MOL0     H19032   2.911   4.328   7.472  1.3639 -1.2979 -0.7309
  882MOL0     H19033   2.785   4.144   7.433  0.3957  0.8328  0.4841
  882MOL0     H19034   2.587   4.063   7.468  1.7705  1.0453  1.6477
  882MOL0     H19035   2.700   3.943   7.406 -2.8922  2.1166 -1.6638
  882MOL0     H19036   2.552   3.769   7.522 -0.7749  0.0120  1.0429
  882MOL0     H19037   2.442   3.899   7.544 -0.1745 -2.6239  1.1516
  882MOL0     H19038   2.469   3.939   7.291  1.2809 -0.0332 -1.6425
  882MOL0     H19039   2.530   3.772   7.286 -1.6269 -0.2890  1.2967
  882MOL0     H19040   2.307   3.753   7.238  1.4750  1.6295 -1.4725
  882MOL0     H19041   2.264   3.833   7.398  0.3192  0.2898 -1.0146
  882MOL0     H19042   2.355   3.655   7.517 -2.4705  2.1389  0.8807
  882MOL0     H19043   2.397   3.558   7.371 -1.8534 -3.1675  1.0714
  882MOL0     H19044   2.191   3.473   7.438  0.0512  0.0193 -1.3097
  882MOL0     H19045   2.124   3.634   7.448 -0.2057  3.4867 -2.7372
  882MOL0     H19046   2.098   3.653   7.221  0.7198 -0.2872 -0.5262
  882MOL0     H19047   2.047   3.489   7.252 -0.9659  0.3878  3.8861
  882MOL0     H19048   2.181   3.502   7.046 -0.3760  0.8962  0.0257
  882MOL0     H19049   2.300   3.598   7.120 -0.0295  0.1744 -0.3823
  882MOL0     H19050   2.805   4.026   7.842 -1.8257 -0.5739  0.6512
  882MOL0     H19051   2.952   4.215   7.892 -3.7278  0.0520  1.3360
  882MOL0     H19052   3.205   4.550   7.615  1.5088  1.1794 -1.6325
  882MOL0     H19053   3.370   4.717   7.624  0.9743 -1.0513  2.0406
  882MOL0     H19054   4.288   6.368   8.484  2.3149  1.4969  0.8928
  882MOL0     H19055   4.378   6.462   8.680  0.1296 -0.1972  0.2519
  882MOL0     H19056   4.247   6.384   9.164 -1.6954  1.4216 -1.4498
  882MOL0     H19057   4.254   6.468   9.406  2.4504  1.2745  0.4929
  882MOL0     H19058   4.473   6.854   9.481  1.1559 -2.3479  0.5828
  882MOL0     H19059   4.380   6.836   9.635  0.4329  0.4377 -0.5019
  882MOL0     H19060   4.215   6.889   9.380 -1.5416  0.5010  0.0171
  882MOL0     H19061   4.306   7.022   9.452  2.1303 -0.2721 -3.4251
  882MOL0     H19062   4.189   7.017   9.657 -0.8207 -0.8846  1.1597
  882MOL0     H19063   4.104   6.874   9.627  1.4917 -0.4217 -1.3232
  882MOL0     H19064   4.022   6.986   9.419  4.2163 -0.2134 -0.9597
  882MOL0     H19065   3.951   7.031   9.581  0.3614 -1.4970  0.3034
  882MOL0     H19066   4.154   7.388   9.434  0.3824  0.8732  3.5323
  882MOL0     H19067   4.445   6.834   9.270  2.5400 -1.4033 -0.3905
  882MOL0     H19068   4.509   6.849   9.046  0.6199 -0.2982  0.5686
  882MOL0     H19069   4.436   6.753   8.919 -1.4020  1.2417 -0.4850
  882MOL0     H19070   4.337   6.870   9.009  0.1764  0.0120  1.0436
  883MOL0     O19071   0.102   6.527   3.328  0.0654 -0.4905 -0.0278
  883MOL0     C19072   0.038   6.420   3.318  0.2455  0.0623 -0.4263
  883MOL0     O19073  -0.064   6.403   3.229  0.2252 -1.0714 -0.5755
  883MOL0     C19074  -0.127   6.498   3.149 -0.2257  0.3783  0.9127
  883MOL0     C19075  -0.113   6.638   3.150  0.3991  0.2355 -0.3492
  883MOL0     C19076  -0.181   6.728   3.058  0.2269  0.9036 -0.3106
  883MOL0     C19077  -0.254   6.670   2.956 -0.5663 -0.1927  0.6457
  883MOL0     O19078  -0.322   6.766   2.874  1.0498 -0.2394  0.5586
  883MOL0     C19079  -0.389   6.721   2.761 -0.0186  0.1597  0.2444
  883MOL0     C19080  -0.503   6.811   2.729  0.4687 -1.0073 -0.6865
  883MOL0     C19081  -0.578   6.785   2.608 -0.6581 -0.4684 -0.6615
  883MOL0     C19082  -0.716   6.865   2.609 -0.0879 -0.4563  0.3101
  883MOL0     C19083  -0.809   6.843   2.487 -0.6211  0.5012 -0.0994
  883MOL0     C19084  -0.741   6.850   2.354 -1.0044 -0.4855  0.6907
  883MOL0     C19085  -0.819   6.922   2.235  0.1855 -0.8002  0.2551
  883MOL0     C19086  -0.933   6.845   2.170 -0.5705  0.4898 -1.3211
  883MOL0     N19087  -1.020   6.939   2.097  0.2402 -0.4909 -0.2526
  883MOL0     C19088  -0.994   7.025   1.992  0.9831 -0.1645 -0.6105
  883MOL0     C19089  -1.084   7.126   1.988 -0.3277  1.3878 -0.4205
  883MOL0     C19090  -1.086   7.240   1.889 -0.8851 -0.0118 -0.4720
  883MOL0     C19091  -1.118   7.381   1.951 -0.1265  0.2941  0.1431
  883MOL0     C19092  -1.145   7.476   1.843  0.1331  0.0755  0.1529
  883MOL0     C19093  -1.150   7.621   1.893  0.6318  0.3231  0.2383
  883MOL0     O19094  -1.208   7.702   1.778 -0.0987 -0.0106  0.2182
  883MOL0     C19095  -1.170   7.832   1.753  0.5903 -1.1902 -0.7500
  883MOL0     C19096  -1.139   7.862   1.626 -1.0476  0.8512 -0.2292
  883MOL0     C19097  -1.083   7.990   1.595  0.3171  0.3307  0.2688
  883MOL0     C19098  -1.074   8.092   1.693 -0.4710 -0.3821 -0.4219
  883MOL0     C19099  -1.024   8.224   1.657 -0.0707  0.8958  0.3083
  883MOL0     O19100  -1.065   8.332   1.740 -0.2867 -0.8833 -0.2247
  883MOL0     C19101  -1.031   8.469   1.712  0.5860  1.1235 -0.4589
  883MOL0     C19102  -1.135   8.563   1.718  0.0615  0.7060  0.3318
  883MOL0     C19103  -1.106   8.701   1.716  0.4373 -0.1025 -0.2170
  883MOL0     C19104  -0.977   8.741   1.691 -0.1618  0.3858  0.4932
  883MOL0     O19105  -0.946   8.876   1.692  0.5249 -0.1215  1.3963
  883MOL0     C19106  -1.016   8.973   1.616 -0.0786 -0.9187  0.2615
  883MOL0     C19107  -1.082   9.075   1.712 -0.0404  0.7483 -0.6556
  883MOL0     C19108  -1.147   9.204   1.652  0.0170  0.2980  0.6546
  883MOL0     C19109  -1.288   9.180   1.583  0.0809  0.2761 -0.5616
  883MOL0     C19110  -1.355   9.311   1.520 -0.8003  0.5485  0.1790
  883MOL0     C19111  -1.310   9.324   1.370 -0.5632  0.5826  0.7488
  883MOL0     C19112  -1.368   9.456   1.323  0.4112 -0.8665  0.7731
  883MOL0     C19113  -1.298   9.590   1.372  0.0362  0.7063  0.4918
  883MOL0    Cl19114  -1.149   9.603   1.276 -0.3394  0.7897 -0.4681
  883MOL0     C19115  -0.881   8.638   1.666  0.1366 -0.6489  1.4862
  883MOL0     C19116  -0.908   8.510   1.681  0.7964  1.5363 -0.5541
  883MOL0     O19117  -0.966   8.239   1.549  0.3191  0.7259 -0.8547
  883MOL0     C19118  -1.119   8.061   1.815 -0.0175 -0.3400 -0.3630
  883MOL0     C19119  -1.148   7.929   1.851  0.1762  1.1863 -0.7049
  883MOL0     N19120  -1.161   7.103   2.094  0.7680 -0.0487 -0.7537
  883MOL0     N19121  -1.126   6.997   2.159 -0.0706  0.3595 -0.1485
  883MOL0     C19122  -0.249   6.522   2.936 -0.3933  0.6762  0.5479
  883MOL0     C19123  -0.187   6.442   3.033 -0.2034  0.5345 -1.1302
  883MOL0     C19124   0.066   6.305   3.407  0.1337  0.4643  0.0998
  883MOL0     C19125  -0.027   6.198   3.409 -0.7661 -0.8730  0.8846
  883MOL0     C19126  -0.007   6.112   3.522 -0.0431  0.4756 -0.5965
  883MOL0     C19127   0.094   6.126   3.614 -0.5323 -0.3245  0.7221
  883MOL0     O19128   0.085   6.021   3.699 -0.7296  0.4166  0.1639
  883MOL0     C19129   0.176   6.028   3.809 -0.1569  0.5990 -0.6753
  883MOL0     C19130   0.128   6.130   3.915 -1.3650 -0.1686 -0.6893
  883MOL0     C19131  -0.018   6.108   3.946 -0.2814  0.5525 -0.3201
  883MOL0     C19132  -0.081   6.220   4.026 -0.3612  0.2240 -0.0542
  883MOL0     C19133  -0.005   6.253   4.148  0.3060 -1.4832  0.4689
  883MOL0     C19134   0.048   6.251   4.251  0.1491  0.9063 -0.4677
  883MOL0     C19135   0.180   6.234   3.608 -0.6984  0.1999  0.7013
  883MOL0     C19136   0.171   6.320   3.502  0.2280 -0.6218 -0.5153
  883MOL0     C19137   0.279   6.423   3.497  0.5288 -0.5123  0.1684
  883MOL0     H19138  -0.061   6.685   3.233  3.2151 -0.5643 -1.5221
  883MOL0     H19139  -0.193   6.836   3.066 -2.9614  0.7445 -1.4111
  883MOL0     H19140  -0.320   6.717   2.676 -0.4462 -1.7386 -0.0470
  883MOL0     H19141  -0.437   6.626   2.787  1.8430 -0.2190  2.7081
  883MOL0     H19142  -0.465   6.914   2.736  1.4505 -1.4426  0.9770
  883MOL0     H19143  -0.573   6.804   2.813  1.2552 -1.7770 -0.0802
  883MOL0     H19144  -0.588   6.676   2.613 -0.5428 -0.4717 -0.4673
  883MOL0     H19145  -0.526   6.804   2.513  1.3279  2.2435  0.8164
  883MOL0     H19146  -0.765   6.854   2.707  1.2034 -0.5094  0.9728
  883MOL0     H19147  -0.686   6.971   2.608 -0.0009 -0.3427  3.4754
  883MOL0     H19148  -0.860   6.747   2.504 -0.2003  0.4243  0.7784
  883MOL0     H19149  -0.889   6.917   2.487  0.3063  1.5224  0.1247
  883MOL0     H19150  -0.653   6.912   2.376 -0.2922 -0.8773 -0.9054
  883MOL0     H19151  -0.703   6.755   2.318 -2.2537 -1.0545  0.8135
  883MOL0     H19152  -0.746   6.940   2.155 -1.9074 -0.2902 -1.6420
  883MOL0     H19153  -0.858   7.022   2.258 -1.4080 -1.3230 -0.0924
  883MOL0     H19154  -0.894   6.762   2.111 -4.8650 -1.1979 -2.1244
  883MOL0     H19155  -0.983   6.795   2.254 -0.3812  0.1184 -1.4271
  883MOL0     H19156  -0.906   7.014   1.930  2.0631  0.1504  0.7916
  883MOL0     H19157  -0.991   7.243   1.835 -1.7436  0.4899 -2.0334
  883MOL0     H19158  -1.171   7.221   1.823 -1.4666  0.0397  0.2472
  883MOL0     H19159  -1.211   7.372   2.008 -1.3543 -1.0331 -1.9668
  883MOL0     H19160  -1.024   7.414   1.998  0.3453  0.8631 -1.1726
  883MOL0     H19161  -1.243   7.458   1.797 -0.5632  0.1602  1.5638
  883MOL0     H19162  -1.061   7.479   1.773 -0.4681 -1.7574 -0.7463
  883MOL0     H19163  -1.047   7.634   1.928  0.3267  0.0758  1.2480
  883MOL0     H19164  -1.225   7.633   1.971 -2.1747  2.2456 -2.4907
  883MOL0     H19165  -1.158   7.804   1.536  0.9390 -0.1313 -0.0560
  883MOL0     H19166  -1.042   8.015   1.497  0.7547  0.2375  0.4237
  883MOL0     H19167  -1.235   8.528   1.745 -1.4800  4.1485 -0.4230
  883MOL0     H19168  -1.183   8.775   1.731  2.5483  2.5653 -1.6436
  883MOL0     H19169  -0.942   9.029   1.558 -0.3694 -0.5388  0.2547
  883MOL0     H19170  -1.089   8.920   1.554 -1.7674  1.5302  0.0103
  883MOL0     H19171  -1.155   9.021   1.773  1.1761  0.2785  0.4180
  883MOL0     H19172  -1.010   9.101   1.790 -2.9898 -0.3960  2.7266
  883MOL0     H19173  -1.169   9.263   1.742  1.8899 -0.0783  1.4208
  883MOL0     H19174  -1.077   9.259   1.588 -1.5560 -0.5518 -1.9127
  883MOL0     H19175  -1.357   9.148   1.661 -0.7562  1.0657 -0.9660
  883MOL0     H19176  -1.275   9.104   1.505  1.0053 -0.0632 -0.0998
  883MOL0     H19177  -1.318   9.397   1.575  2.7616  0.5130 -1.8655
  883MOL0     H19178  -1.463   9.296   1.511 -0.5882 -0.5990 -0.7820
  883MOL0     H19179  -1.201   9.311   1.362 -0.8811 -1.3430 -1.6247
  883MOL0     H19180  -1.344   9.244   1.305  2.0144 -0.7263  0.8921
  883MOL0     H19181  -1.472   9.458   1.357  0.3967  2.2005  0.7841
  883MOL0     H19182  -1.363   9.463   1.213  4.1325 -1.2776  0.7952
  883MOL0     H19183  -1.356   9.682   1.372  1.1206  1.4185  0.8558
  883MOL0     H19184  -1.276   9.579   1.479 -1.9427  1.4135  0.9981
  883MOL0     H19185  -0.789   8.691   1.644 -1.5378  2.6285  1.6125
  883MOL0     H19186  -0.840   8.431   1.650 -2.0524 -0.9791 -0.7739
  883MOL0     H19187  -1.082   8.131   1.889  4.2046 -1.9386 -0.6931
  883MOL0     H19188  -1.161   7.916   1.958  2.1455  1.3078 -0.4154
  883MOL0     H19189  -0.307   6.475   2.857 -3.0182  0.3851  2.5438
  883MOL0     H19190  -0.189   6.335   3.018  0.3606  0.6576 -2.2769
  883MOL0     H19191  -0.107   6.182   3.337  0.3759  0.6629 -0.8107
  883MOL0     H19192  -0.085   6.039   3.539 -0.8972  0.7230 -3.0014
  883MOL0     H19193   0.283   6.041   3.787 -0.0587  1.1349  0.1019
  883MOL0     H19194   0.163   5.935   3.864 -0.5939  0.4343 -1.0466
  883MOL0     H19195   0.144   6.232   3.880 -1.0489 -0.6357 -2.0010
  883MOL0     H19196   0.188   6.111   4.004  0.5223 -3.0194 -2.3904
  883MOL0     H19197  -0.027   6.018   4.007  2.2632 -0.3399 -1.1299
  883MOL0     H19198  -0.069   6.111   3.850 -0.6695  1.6347 -0.0950
  883MOL0     H19199  -0.105   6.304   3.960 -2.0081 -1.1609 -1.3222
  883MOL0     H19200  -0.177   6.181   4.060  0.4283 -1.7874  0.0001
  883MOL0     H19201   0.077   6.233   4.353 -0.7634 -4.0379 -0.8374
  883MOL0     H19202   0.265   6.251   3.673 -0.3812  0.4970  0.2208
  883MOL0     H19203   0.368   6.409   3.559  2.5179 -0.8995 -2.5753
  883MOL0     H19204   0.330   6.422   3.400  0.0395 -0.1978 -0.1013
  883MOL0     H19205   0.231   6.519   3.521 -1.4176 -1.7248  1.3814
  884MOL0     O19206   9.035   5.134   8.952  0.4359  0.1600 -0.4774
  884MOL0     C19207   9.055   5.009   8.964  0.3624 -0.5096  0.1082
  884MOL0     O19208   9.181   4.954   8.967 -0.1289  0.0104 -0.6361
  884MOL0     C19209   9.281   5.019   8.915 -0.3725  0.0582  0.5533
  884MOL0     C19210   9.319   4.999   8.778 -0.5540  0.7996  1.5745
  884MOL0     C19211   9.438   5.064   8.722  0.3856  0.2702  0.2585
  884MOL0     C19212   9.519   5.140   8.799  0.7095  0.3916 -0.3275
  884MOL0     O19213   9.635   5.199   8.767 -0.1280 -0.2789  0.1439
  884MOL0     C19214   9.710   5.135   8.663  0.2275  0.1704 -0.1021
  884MOL0     C19215   9.832   5.230   8.624  0.1302 -0.3953 -0.3332
  884MOL0     C19216   9.795   5.336   8.517 -0.6617 -0.6061 -0.0517
  884MOL0     C19217   9.909   5.399   8.446  0.9231  0.4370 -0.4609
  884MOL0     C19218   9.904   5.370   8.291  0.2643 -0.3246 -0.1622
  884MOL0     C19219   9.993   5.252   8.257 -1.0685 -0.8106 -0.5785
  884MOL0     C19220  10.027   5.253   8.111 -0.2318  0.2010  0.4706
  884MOL0     C19221  10.118   5.133   8.076  0.2561  0.2403 -0.0675
  884MOL0     N19222  10.038   5.010   8.077 -0.2340  0.7484  0.3157
  884MOL0     C19223   9.941   4.979   7.985 -1.3107  0.6070  0.3881
  884MOL0     C19224   9.879   4.863   8.027 -0.3925 -0.4884  1.1005
  884MOL0     C19225   9.774   4.799   7.947  0.0547  0.0737 -0.5464
  884MOL0     C19226   9.638   4.841   8.003 -0.2473  0.5632  1.2719
  884MOL0     C19227   9.539   4.749   7.939  1.0846  0.4830 -0.0267
  884MOL0     C19228   9.409   4.743   8.010  0.9074  0.4443  0.4207
  884MOL0     O19229   9.364   4.885   7.987  0.3824 -0.2532 -0.1306
  884MOL0     C19230   9.270   4.913   7.893 -0.1879 -0.1982 -1.2198
  884MOL0     C19231   9.220   4.827   7.802  0.3722 -0.2841  0.3459
  884MOL0     C19232   9.141   4.883   7.697 -0.7336  0.0811 -0.2404
  884MOL0     C19233   9.109   5.027   7.694 -0.8664  0.9854 -1.0032
  884MOL0     C19234   9.011   5.067   7.595 -0.1368 -0.0477  0.3761
  884MOL0     O19235   8.994   5.193   7.574 -0.4721 -0.2838  0.4079
  884MOL0     C19236   8.873   5.230   7.521  1.0669 -0.5746 -0.7199
  884MOL0     C19237   8.870   5.333   7.425 -0.5222  0.0328  0.7329
  884MOL0     C19238   8.750   5.392   7.388 -0.0844 -0.3146  0.2055
  884MOL0     C19239   8.625   5.336   7.433  0.1460  0.5759  0.1415
  884MOL0     O19240   8.516   5.384   7.374 -0.3704 -0.2537  0.3713
  884MOL0     C19241   8.382   5.386   7.443 -0.6926  0.0412 -0.1102
  884MOL0     C19242   8.277   5.472   7.390 -0.4875 -0.2194 -0.5672
  884MOL0     C19243   8.342   5.607   7.345  0.5479  0.5484  0.4235
  884MOL0     C19244   8.246   5.707   7.260 -0.7069  0.3913 -0.6227
  884MOL0     C19245   8.110   5.742   7.322 -0.6763  0.0424  0.7171
  884MOL0     C19246   8.148   5.824   7.449  0.8476  0.6191  1.1109
  884MOL0     C19247   8.031   5.848   7.546  0.6658  0.1364 -0.0295
  884MOL0     C19248   7.974   5.711   7.579  0.7505  0.1401 -0.9830
  884MOL0    Cl19249   7.859   5.752   7.712 -0.2228 -0.2923 -0.0236
  884MOL0     C19250   8.627   5.229   7.527 -0.1989  0.6469 -0.2019
  884MOL0     C19251   8.749   5.176   7.571  0.3212  0.1243  0.3179
  884MOL0     O19252   8.949   4.975   7.538  0.3789 -0.0216 -0.0746
  884MOL0     C19253   9.159   5.109   7.795  0.6413  1.1089  0.6770
  884MOL0     C19254   9.247   5.052   7.888 -0.8750 -0.3107 -0.3198
  884MOL0     N19255   9.943   4.818   8.140  0.1687  0.1107 -0.5570
  884MOL0     N19256  10.032   4.905   8.175 -0.5582 -0.3015  0.4541
  884MOL0     C19257   9.478   5.163   8.928  0.1672 -0.2245 -0.4013
  884MOL0     C19258   9.360   5.101   8.990  0.0603  0.4537  0.1546
  884MOL0     C19259   8.939   4.929   9.000  0.2486  0.2187  1.1330
  884MOL0     C19260   8.951   4.794   8.978  0.2329  1.0440  0.1602
  884MOL0     C19261   8.852   4.702   8.996 -0.7505  0.6359  0.3508
  884MOL0     C19262   8.734   4.740   9.052  0.1876 -0.0785 -0.6346
  884MOL0     O19263   8.653   4.640   9.088 -0.1123 -0.2119  0.2008
  884MOL0     C19264   8.514   4.663   9.101 -0.2487 -0.5401  0.0038
  884MOL0     C19265   8.455   4.523   9.068 -0.8130 -0.8621 -0.1838
  884MOL0     C19266   8.304   4.520   9.058  1.0187  0.0352  0.5959
  884MOL0     C19267   8.239   4.626   8.963 -0.4111 -0.3067  0.0594
  884MOL0     C19268   8.098   4.607   8.931  0.2553 -0.0535 -0.0654
  884MOL0     C19269   7.984   4.610   8.894  0.4183 -0.2640 -0.0382
  884MOL0     C19270   8.717   4.881   9.085 -0.6252  0.1420  0.9847
  884MOL0     C19271   8.816   4.975   9.065 -0.1036  0.5298  0.3595
  884MOL0     C19272   8.789   5.115   9.099 -0.3556 -0.1198  0.0408
  884MOL0     H19273   9.264   4.943   8.704  2.4695 -0.9474  0.4428
  884MOL0     H19274   9.449   5.034   8.618 -3.7229 -0.8135 -0.0247
  884MOL0     H19275   9.747   5.038   8.697 -2.3002  0.1679  3.1038
  884MOL0     H19276   9.648   5.109   8.576 -0.7421 -3.6594  1.5089
  884MOL0     H19277   9.913   5.165   8.589 -0.6739 -0.6972 -1.7147
  884MOL0     H19278   9.858   5.290   8.712 -2.0737 -1.0092  0.8077
  884MOL0     H19279   9.729   5.405   8.570  2.7607  2.4248  0.6501
  884MOL0     H19280   9.732   5.291   8.439  0.6279  0.8296 -2.0053
  884MOL0     H19281   9.884   5.506   8.454  0.5410  0.3890 -0.9313
  884MOL0     H19282   9.997   5.377   8.507 -1.0509 -1.6172  1.8764
  884MOL0     H19283   9.804   5.359   8.247 -0.1983 -1.6057  1.1374
  884MOL0     H19284   9.937   5.468   8.255 -2.8133  2.4708  3.7377
  884MOL0     H19285  10.087   5.263   8.312 -0.6667  1.5818 -1.6503
  884MOL0     H19286   9.948   5.157   8.287 -0.8306 -0.0750  2.5244
  884MOL0     H19287  10.078   5.349   8.094  0.0108 -0.1513 -0.9028
  884MOL0     H19288   9.933   5.255   8.055  0.3964 -3.6854 -1.0446
  884MOL0     H19289  10.159   5.134   7.974 -3.2669  2.9305 -1.6726
  884MOL0     H19290  10.188   5.123   8.159 -0.8567 -2.3745  0.6371
  884MOL0     H19291   9.932   5.038   7.894  0.2927  2.5268  1.3867
  884MOL0     H19292   9.782   4.842   7.846 -1.9389  2.9829  0.3915
  884MOL0     H19293   9.798   4.695   7.926  3.3081  0.6767 -0.3257
  884MOL0     H19294   9.625   4.852   8.111  0.5767 -0.5101  1.5066
  884MOL0     H19295   9.622   4.943   7.967 -3.5440  1.4044  4.5677
  884MOL0     H19296   9.565   4.643   7.931  0.1247  0.2359 -0.0131
  884MOL0     H19297   9.513   4.785   7.839 -2.1366 -0.7958  0.2125
  884MOL0     H19298   9.429   4.717   8.114 -0.0926 -1.4334  0.1815
  884MOL0     H19299   9.341   4.665   7.974 -1.0139  1.0296  2.5712
  884MOL0     H19300   9.237   4.720   7.802  0.6568 -0.2449 -0.6620
  884MOL0     H19301   9.110   4.816   7.617 -2.1274 -3.4488  2.9637
  884MOL0     H19302   8.964   5.375   7.392 -0.3608 -1.4185 -0.7690
  884MOL0     H19303   8.739   5.470   7.313 -3.2232 -0.5569  0.2728
  884MOL0     H19304   8.348   5.282   7.443  1.9053 -0.8770 -0.0826
  884MOL0     H19305   8.390   5.416   7.548 -0.8603  2.1204 -0.6460
  884MOL0     H19306   8.229   5.417   7.308 -2.2154  0.6245 -0.1661
  884MOL0     H19307   8.195   5.494   7.459 -2.0417  1.4054 -2.7703
  884MOL0     H19308   8.378   5.668   7.429 -0.0322  0.5289  0.6896
  884MOL0     H19309   8.428   5.591   7.279  0.2318 -0.4721  0.2477
  884MOL0     H19310   8.230   5.644   7.173  0.1513 -1.4592  0.4838
  884MOL0     H19311   8.290   5.804   7.236 -0.8257  0.9108  1.0936
  884MOL0     H19312   8.058   5.647   7.336 -2.0217  0.6017 -0.2523
  884MOL0     H19313   8.044   5.791   7.249  0.0345 -1.0365 -0.6999
  884MOL0     H19314   8.217   5.772   7.516  0.8243  2.2322  2.4514
  884MOL0     H19315   8.197   5.919   7.423 -3.6768  3.0802  0.5702
  884MOL0     H19316   7.952   5.912   7.505  1.7799  0.1821 -2.3246
  884MOL0     H19317   8.060   5.902   7.636  0.2972  3.2479 -1.6290
  884MOL0     H19318   7.914   5.669   7.498  1.6286  1.1552 -2.1984
  884MOL0     H19319   8.053   5.641   7.607 -0.6242 -0.1969  2.5447
  884MOL0     H19320   8.534   5.192   7.569  0.1738 -0.7477 -0.5284
  884MOL0     H19321   8.752   5.102   7.651 -1.7917  2.1244  2.4052
  884MOL0     H19322   9.152   5.218   7.794  1.9087  1.2378 -1.8150
  884MOL0     H19323   9.298   5.115   7.961 -0.5347 -1.5092  0.5014
  884MOL0     H19324   9.550   5.215   8.990  0.2443 -4.0234  3.1198
  884MOL0     H19325   9.343   5.111   9.097  1.8806  0.2372  0.4898
  884MOL0     H19326   9.041   4.747   8.941 -0.5284 -0.3113 -0.0667
  884MOL0     H19327   8.876   4.597   8.978  4.4769  1.1919  2.3966
  884MOL0     H19328   8.468   4.738   9.037 -0.9072  1.2493  2.4473
  884MOL0     H19329   8.492   4.687   9.205  1.2146 -1.2652  0.5043
  884MOL0     H19330   8.497   4.453   9.141  1.5132  1.7026  1.1062
  884MOL0     H19331   8.497   4.514   8.967  1.2630 -1.1867  0.6686
  884MOL0     H19332   8.267   4.538   9.160  0.6875 -0.2196  0.5231
  884MOL0     H19333   8.265   4.421   9.030  1.6775 -0.4066  1.2113
  884MOL0     H19334   8.264   4.726   9.000  3.6461  0.5331 -4.0071
  884MOL0     H19335   8.293   4.605   8.870  1.4380 -0.9446  1.2200
  884MOL0     H19336   7.879   4.601   8.874  0.1906  1.9471 -0.0474
  884MOL0     H19337   8.629   4.915   9.139  0.2268  0.3519  2.2767
  884MOL0     H19338   8.870   5.148   9.164 -0.3251 -1.2042  0.5776
  884MOL0     H19339   8.777   5.185   9.015 -1.7454  0.4300  0.6572
  884MOL0     H19340   8.696   5.129   9.155 -0.1699  0.2879  0.2485
  885MOL0     O19341  10.275   2.537   8.916  0.7042  0.3406 -0.1391
  885MOL0     C19342  10.268   2.630   8.838  0.3782 -0.0018  0.7210
  885MOL0     O19343  10.269   2.627   8.695 -0.1558  0.5267  0.0165
  885MOL0     C19344  10.280   2.500   8.634  0.3532  0.1775  0.2355
  885MOL0     C19345  10.206   2.395   8.670 -0.0056  0.2121  0.2030
  885MOL0     C19346  10.234   2.275   8.614 -0.5868 -0.1636 -1.0107
  885MOL0     C19347  10.331   2.249   8.516 -0.7544  0.2559 -0.7421
  885MOL0     O19348  10.337   2.113   8.467  0.0439 -0.5565 -0.3450
  885MOL0     C19349  10.385   2.099   8.332  0.3911 -0.3075 -1.5916
  885MOL0     C19350  10.365   1.950   8.302 -0.0241  1.1579 -0.7556
  885MOL0     C19351  10.458   1.862   8.387 -1.1291  0.7335  0.9355
  885MOL0     C19352  10.588   1.817   8.312  1.2473  0.1832 -0.1824
  885MOL0     C19353  10.660   1.719   8.391  0.2775 -0.2967  0.3056
  885MOL0     C19354  10.782   1.675   8.321  0.2778 -0.0865 -0.3448
  885MOL0     C19355  10.876   1.609   8.426 -0.2615 -0.7450  0.7289
  885MOL0     C19356  10.825   1.468   8.455 -0.1866  0.5432 -1.1755
  885MOL0     N19357  10.917   1.388   8.534 -0.1359 -0.7436 -0.1936
  885MOL0     C19358  11.031   1.317   8.493 -0.0848 -0.4230 -0.5851
  885MOL0     C19359  11.086   1.277   8.616 -0.8179  0.1246 -0.2400
  885MOL0     C19360  11.236   1.228   8.642  0.6723  0.2498 -0.5254
  885MOL0     C19361  11.257   1.081   8.597 -1.0961  0.2935 -0.1045
  885MOL0     C19362  11.165   0.993   8.673 -0.2235  0.1364 -0.0711
  885MOL0     C19363  11.244   0.877   8.733 -0.2823  0.9553 -0.2447
  885MOL0     O19364  11.160   0.814   8.829  0.8542 -0.3719 -0.4223
  885MOL0     C19365  11.201   0.696   8.898 -0.9879  0.5316 -0.3640
  885MOL0     C19366  11.343   0.664   8.900 -0.5957 -0.2607 -0.7566
  885MOL0     C19367  11.385   0.559   8.980 -0.0464  0.8128  0.3608
  885MOL0     C19368  11.297   0.476   9.049  0.1682 -0.3944 -1.3746
  885MOL0     C19369  11.337   0.356   9.120  0.2769  0.3978  0.0221
  885MOL0     O19370  11.424   0.282   9.042 -0.7540  0.1883  0.2569
  885MOL0     C19371  11.463   0.159   9.092 -0.8294 -1.0745 -0.3235
  885MOL0     C19372  11.449   0.041   9.034  0.0721 -0.3364 -0.4364
  885MOL0     C19373  11.465  -0.085   9.095  0.8147 -0.1914 -0.7103
  885MOL0     C19374  11.502  -0.086   9.233 -0.4085  0.1396  0.5910
  885MOL0     O19375  11.514  -0.195   9.313  0.6867  0.4050  0.2889
  885MOL0     C19376  11.462  -0.320   9.270  0.1973 -0.1333  0.4870
  885MOL0     C19377  11.453  -0.421   9.387 -0.4962 -0.4249  0.2310
  885MOL0     C19378  11.571  -0.422   9.478 -0.1180  0.7444  0.4258
  885MOL0     C19379  11.533  -0.389   9.629  0.1391  0.3643  0.1746
  885MOL0     C19380  11.655  -0.379   9.724  0.7107  0.2674  0.4576
  885MOL0     C19381  11.717  -0.510   9.768  0.4155  0.4350 -0.7242
  885MOL0     C19382  11.867  -0.506   9.775  0.3278  0.5078 -1.2803
  885MOL0     C19383  11.939  -0.644   9.794  0.6176  0.4181  0.4642
  885MOL0    Cl19384  11.923  -0.743   9.645 -0.2884  0.7950 -0.0227
  885MOL0     C19385  11.548   0.036   9.288 -0.2587 -0.2463  0.0456
  885MOL0     C19386  11.524   0.156   9.222 -0.7963  0.2451 -0.4275
  885MOL0     O19387  11.274   0.328   9.224 -0.1559 -0.8068 -0.5868
  885MOL0     C19388  11.156   0.509   9.048 -0.3065  0.3402  0.4410
  885MOL0     C19389  11.112   0.614   8.967 -0.1089 -0.0133  0.1188
  885MOL0     N19390  11.014   1.331   8.721 -0.1915 -0.0885  0.1724
  885MOL0     N19391  10.906   1.383   8.664  0.6751  0.2134 -0.3007
  885MOL0     C19392  10.410   2.356   8.480 -0.2228 -1.5956  0.1037
  885MOL0     C19393  10.382   2.485   8.534 -0.2407 -0.1267 -1.0999
  885MOL0     C19394  10.240   2.767   8.892  0.4280 -0.0963 -0.4381
  885MOL0     C19395  10.223   2.881   8.808 -0.8266 -0.4425  0.6279
  885MOL0     C19396  10.191   3.010   8.847  0.0416 -0.9554  0.0885
  885MOL0     C19397  10.171   3.031   8.987  0.3429  0.7543  0.3538
  885MOL0     O19398  10.143   3.163   9.018 -0.0632 -0.0756  0.2693
  885MOL0     C19399  10.081   3.204   9.145  0.7160 -0.2963  0.4157
  885MOL0     C19400  10.061   3.356   9.169  0.1164 -0.3230 -0.6837
  885MOL0     C19401   9.959   3.382   9.264 -0.7243  0.2534 -1.5438
  885MOL0     C19402   9.999   3.367   9.417  0.0868 -0.1289  0.5964
  885MOL0     C19403   9.995   3.488   9.499  0.3017  0.6295 -0.0471
  885MOL0     C19404   9.975   3.586   9.565  0.3400  0.3225 -0.3589
  885MOL0     C19405  10.197   2.925   9.077 -0.0330  0.1072  0.4853
  885MOL0     C19406  10.234   2.792   9.033  0.0050 -0.5436 -0.1340
  885MOL0     C19407  10.243   2.688   9.149 -0.3325  0.1063  0.4017
  885MOL0     H19408  10.124   2.408   8.741 -3.6232 -1.1830 -3.3580
  885MOL0     H19409  10.176   2.191   8.651 -2.4563  1.7261  0.5634
  885MOL0     H19410  10.333   2.152   8.252 -1.8116 -2.4036 -1.7011
  885MOL0     H19411  10.493   2.115   8.334  0.7852 -2.5279  1.4461
  885MOL0     H19412  10.384   1.926   8.197 -0.8779 -1.0066 -0.4831
  885MOL0     H19413  10.262   1.929   8.333 -0.0405  1.3865 -0.6504
  885MOL0     H19414  10.401   1.773   8.415  0.3578 -2.1549 -4.0324
  885MOL0     H19415  10.486   1.906   8.484 -0.3759 -1.4263  1.7489
  885MOL0     H19416  10.559   1.770   8.217 -0.7576  1.0138 -0.0421
  885MOL0     H19417  10.642   1.911   8.297  1.4932  0.1585  0.5265
  885MOL0     H19418  10.696   1.748   8.490 -3.1146  2.1936  0.9726
  885MOL0     H19419  10.595   1.632   8.407 -0.6812 -0.1617 -2.4006
  885MOL0     H19420  10.758   1.607   8.239 -2.3856  1.3486 -0.8740
  885MOL0     H19421  10.834   1.761   8.277  1.2583 -0.3963  0.1929
  885MOL0     H19422  10.899   1.667   8.516  0.8171  0.0391 -0.0160
  885MOL0     H19423  10.967   1.591   8.368 -0.9332  1.6539 -1.2436
  885MOL0     H19424  10.728   1.478   8.504 -0.6960 -0.4652 -1.9496
  885MOL0     H19425  10.813   1.414   8.361  0.2265 -1.8265  0.0295
  885MOL0     H19426  11.068   1.315   8.391  2.3757 -3.0011  0.2148
  885MOL0     H19427  11.309   1.291   8.591  0.2679 -0.8212 -2.5665
  885MOL0     H19428  11.248   1.228   8.751 -1.8345 -2.9870 -0.0978
  885MOL0     H19429  11.234   1.067   8.491  1.5679 -1.9144 -0.5151
  885MOL0     H19430  11.363   1.058   8.615 -1.2784 -1.7033 -1.2924
  885MOL0     H19431  11.089   0.960   8.601 -1.7584  0.7619  1.2246
  885MOL0     H19432  11.120   1.045   8.758  0.5832  0.4490  0.1744
  885MOL0     H19433  11.323   0.923   8.793 -0.3876  2.2503 -1.0534
  885MOL0     H19434  11.297   0.814   8.661  1.4736 -1.0567  2.6092
  885MOL0     H19435  11.419   0.712   8.840 -0.3857 -2.1401 -2.0872
  885MOL0     H19436  11.488   0.529   8.993  0.2288  1.2521 -0.6937
  885MOL0     H19437  11.422   0.044   8.929 -1.0256 -0.9567 -0.1884
  885MOL0     H19438  11.433  -0.171   9.037 -3.1150 -0.3374  1.3266
  885MOL0     H19439  11.367  -0.306   9.216 -0.0408  1.8895  1.3501
  885MOL0     H19440  11.531  -0.360   9.195  0.2007 -1.8636  1.3645
  885MOL0     H19441  11.365  -0.390   9.444 -2.1843 -2.0343 -1.3398
  885MOL0     H19442  11.445  -0.527   9.358  2.6287 -0.4540 -0.8862
  885MOL0     H19443  11.607  -0.525   9.470 -0.7193  0.6933 -2.7591
  885MOL0     H19444  11.647  -0.354   9.439 -0.3747 -0.6810 -2.9018
  885MOL0     H19445  11.471  -0.472   9.666  0.8245 -0.9806 -1.5531
  885MOL0     H19446  11.477  -0.295   9.629 -4.0375 -1.8773  1.2280
  885MOL0     H19447  11.632  -0.317   9.810 -0.6397  1.3488 -0.6378
  885MOL0     H19448  11.719  -0.318   9.659 -1.6778  1.1280 -1.2454
  885MOL0     H19449  11.668  -0.530   9.864  2.2183 -0.0685  0.1436
  885MOL0     H19450  11.692  -0.594   9.702  1.0842 -0.7614  0.5036
  885MOL0     H19451  11.901  -0.435   9.850 -0.9047  0.3793 -0.5841
  885MOL0     H19452  11.901  -0.471   9.677  1.4489 -3.2131 -2.3870
  885MOL0     H19453  12.044  -0.626   9.820  1.5633  0.9356 -3.2025
  885MOL0     H19454  11.898  -0.710   9.871  0.7688  0.4661  0.5868
  885MOL0     H19455  11.602   0.025   9.382 -0.2554  2.2036  0.3817
  885MOL0     H19456  11.538   0.257   9.259 -0.1917 -0.4784  1.4224
  885MOL0     H19457  11.089   0.443   9.102 -0.5401  0.6799  0.5648
  885MOL0     H19458  11.006   0.634   8.956 -0.4503 -0.2017  2.4678
  885MOL0     H19459  10.497   2.354   8.415  0.7241  0.5122  1.2153
  885MOL0     H19460  10.441   2.568   8.497 -2.9738  2.5221 -0.0061
  885MOL0     H19461  10.241   2.885   8.701  2.3289  4.6316  1.0000
  885MOL0     H19462  10.200   3.099   8.785  2.6030  0.9033  2.8105
  885MOL0     H19463  10.126   3.168   9.238 -2.3878 -2.9214  1.0975
  885MOL0     H19464   9.977   3.170   9.144 -1.1129  4.4946  0.2032
  885MOL0     H19465  10.048   3.412   9.076 -0.1319  1.2329  0.2621
  885MOL0     H19466  10.153   3.398   9.209  0.0459 -1.1449  0.4025
  885MOL0     H19467   9.864   3.329   9.248 -1.3648  1.7128 -2.8138
  885MOL0     H19468   9.930   3.485   9.244  2.9695  1.1773 -2.9418
  885MOL0     H19469   9.934   3.295   9.468 -2.4576  0.4257 -1.6164
  885MOL0     H19470  10.103   3.336   9.424  0.4566  1.3723  2.9898
  885MOL0     H19471   9.951   3.680   9.610 -3.8263 -0.3245 -0.8545
  885MOL0     H19472  10.186   2.957   9.180 -1.0507  2.3089 -0.2379
  885MOL0     H19473  10.152   2.628   9.161  0.5946 -1.1531  1.4105
  885MOL0     H19474  10.330   2.622   9.139  1.9420  3.1576 -2.2020
  885MOL0     H19475  10.273   2.745   9.238  0.8870  1.8939 -1.0802
  886MOL0     O19476   8.148   0.421   4.815 -0.3488 -0.0311 -0.1626
  886MOL0     C19477   8.122   0.385   4.698 -0.3752  0.4759 -0.8650
  886MOL0     O19478   8.001   0.397   4.624  0.0602 -0.0527  0.0143
  886MOL0     C19479   7.898   0.468   4.675 -0.2202  0.3931  0.6321
  886MOL0     C19480   7.778   0.412   4.622  0.3542 -0.0148 -0.0857
  886MOL0     C19481   7.652   0.469   4.654  0.1622 -0.3600 -0.2907
  886MOL0     C19482   7.653   0.588   4.741  0.1456 -0.5237  0.5738
  886MOL0     O19483   7.528   0.642   4.768  0.2060 -0.0232 -0.1388
  886MOL0     C19484   7.524   0.772   4.830  0.3514 -0.1141  0.4410
  886MOL0     C19485   7.380   0.813   4.819  0.0020  0.2430  0.2549
  886MOL0     C19486   7.381   0.967   4.818  0.3415  0.9682 -0.7772
  886MOL0     C19487   7.232   1.021   4.837 -0.4918 -0.3777 -0.0247
  886MOL0     C19488   7.243   1.170   4.870  0.3950 -0.1403  0.4061
  886MOL0     C19489   7.277   1.192   5.016 -0.2860  0.1670 -0.3301
  886MOL0     C19490   7.218   1.331   5.054  0.6530  0.4551 -0.3552
  886MOL0     C19491   7.091   1.312   5.142  0.2486  0.2818 -0.6057
  886MOL0     N19492   7.062   1.433   5.221  0.7149 -0.2856  0.5729
  886MOL0     C19493   6.958   1.431   5.312  0.2146  0.0331 -0.1658
  886MOL0     C19494   6.942   1.560   5.345  0.4534 -0.7583 -0.5855
  886MOL0     C19495   6.838   1.618   5.446  0.2507  0.1398  0.6316
  886MOL0     C19496   6.923   1.702   5.556  0.4761  0.4891 -0.2455
  886MOL0     C19497   7.001   1.611   5.648  0.7250  0.3121 -0.8819
  886MOL0     C19498   6.969   1.658   5.799 -0.1924  0.7803  1.6430
  886MOL0     O19499   6.838   1.637   5.843 -0.0658 -0.6989  0.0163
  886MOL0     C19500   6.802   1.511   5.885  0.7390 -0.1437  0.4674
  886MOL0     C19501   6.874   1.392   5.871 -0.5460 -0.2515  1.1188
  886MOL0     C19502   6.814   1.272   5.911 -0.8385 -1.0049 -0.6227
  886MOL0     C19503   6.689   1.264   5.971  0.6870 -0.6575 -1.2256
  886MOL0     C19504   6.636   1.139   6.036  0.3508  0.2350  0.2851
  886MOL0     O19505   6.515   1.138   6.091 -0.2343 -0.3574 -0.1003
  886MOL0     C19506   6.454   1.022   6.142  0.1150  0.7364 -0.0913
  886MOL0     C19507   6.528   0.947   6.221 -0.2887  0.4648 -0.8950
  886MOL0     C19508   6.471   0.818   6.259 -0.5606 -0.6774  0.2896
  886MOL0     C19509   6.341   0.784   6.226 -0.2769  0.0739  0.9916
  886MOL0     O19510   6.283   0.666   6.255  0.0486  0.3308  0.3393
  886MOL0     C19511   6.311   0.591   6.377 -0.0106 -0.0211 -1.1002
  886MOL0     C19512   6.213   0.482   6.401  1.2601 -0.6397 -0.4063
  886MOL0     C19513   6.071   0.522   6.386  0.7878 -0.2851  0.0994
  886MOL0     C19514   5.976   0.446   6.471  0.5225  0.7123 -0.2097
  886MOL0     C19515   5.831   0.495   6.448  0.8530  1.2754 -0.1422
  886MOL0     C19516   5.762   0.417   6.334  0.4701 -0.3513  0.2236
  886MOL0     C19517   5.614   0.463   6.307  0.0758 -0.2355 -0.4714
  886MOL0     C19518   5.615   0.595   6.228  0.2134  0.3354  0.0182
  886MOL0    Cl19519   5.449   0.611   6.145 -0.3764  0.4681 -0.3767
  886MOL0     C19520   6.265   0.872   6.147 -0.0694  0.1744 -0.7908
  886MOL0     C19521   6.324   0.994   6.110 -0.1269 -0.1677  0.7779
  886MOL0     O19522   6.710   1.042   6.028  0.4183 -0.3920 -0.6060
  886MOL0     C19523   6.613   1.378   5.983 -0.5262 -0.1511  1.1247
  886MOL0     C19524   6.664   1.502   5.937 -0.0240  0.6621  0.4808
  886MOL0     N19525   7.035   1.637   5.277  0.0456  0.4895  0.8119
  886MOL0     N19526   7.108   1.561   5.204 -0.0062  0.5845 -0.2149
  886MOL0     C19527   7.774   0.646   4.788 -0.1645  0.2518 -0.4135
  886MOL0     C19528   7.894   0.573   4.762  0.0183  0.2896 -0.4181
  886MOL0     C19529   8.243   0.321   4.626 -0.2092  0.2178  0.2503
  886MOL0     C19530   8.365   0.300   4.691  0.2350 -0.2493 -0.9878
  886MOL0     C19531   8.481   0.267   4.627  0.1371  0.5691  0.1346
  886MOL0     C19532   8.481   0.253   4.488  1.2466  0.0760  0.5295
  886MOL0     O19533   8.583   0.228   4.408  0.1994  0.5196  0.3925
  886MOL0     C19534   8.706   0.259   4.463 -0.9337 -0.5941 -0.3951
  886MOL0     C19535   8.825   0.243   4.361  0.2666  0.6131 -0.3952
  886MOL0     C19536   8.854   0.095   4.329  0.5381  0.1913  0.3900
  886MOL0     C19537   8.942   0.019   4.418 -0.8465 -0.0360  0.3061
  886MOL0     C19538   8.865  -0.087   4.499 -0.2287  0.1473  0.2596
  886MOL0     C19539   8.780  -0.157   4.543 -0.1749  0.8303 -0.2119
  886MOL0     C19540   8.363   0.254   4.421 -0.2484 -0.4042 -0.3485
  886MOL0     C19541   8.246   0.296   4.483  0.3072  0.4672 -0.1461
  886MOL0     C19542   8.138   0.308   4.386  0.2556  0.2692 -0.2353
  886MOL0     H19543   7.769   0.334   4.547 -2.5979 -0.0240  0.1647
  886MOL0     H19544   7.558   0.434   4.614 -0.5584  2.4746 -1.3062
  886MOL0     H19545   7.551   0.761   4.935  2.4238 -1.3520 -0.1717
  886MOL0     H19546   7.594   0.836   4.776  0.8395  1.2789  2.5928
  886MOL0     H19547   7.329   0.775   4.908 -2.7969  1.1007 -0.8445
  886MOL0     H19548   7.331   0.767   4.732  0.0545 -3.2873  1.9242
  886MOL0     H19549   7.428   0.994   4.723  2.6481  0.2718  0.0966
  886MOL0     H19550   7.449   1.002   4.896 -0.6415  1.5902 -0.1713
  886MOL0     H19551   7.168   1.017   4.749 -1.3460  5.0843  0.0542
  886MOL0     H19552   7.190   0.963   4.920  1.1474 -0.5694  0.7114
  886MOL0     H19553   7.326   1.218   4.818 -1.5548  1.5149 -1.3807
  886MOL0     H19554   7.151   1.212   4.827  0.1543 -2.2668 -1.3309
  886MOL0     H19555   7.238   1.113   5.081  0.0365  2.0208  2.3066
  886MOL0     H19556   7.386   1.189   5.029 -0.4955  0.5415  1.8392
  886MOL0     H19557   7.194   1.386   4.962  0.4568 -3.0935 -2.6390
  886MOL0     H19558   7.285   1.387   5.119  0.1496  2.9390 -1.8457
  886MOL0     H19559   7.000   1.272   5.097  1.9739 -2.8533 -1.6146
  886MOL0     H19560   7.113   1.232   5.213 -2.4899 -0.5897 -0.6363
  886MOL0     H19561   6.892   1.351   5.341  1.8123 -0.6648  1.8198
  886MOL0     H19562   6.765   1.684   5.399 -1.9151 -0.8655  2.4007
  886MOL0     H19563   6.783   1.539   5.497 -0.9607  0.2539 -0.4290
  886MOL0     H19564   6.966   1.785   5.498 -0.7451  2.9217  2.1258
  886MOL0     H19565   6.850   1.756   5.617 -0.1165 -1.5908  0.9705
  886MOL0     H19566   7.109   1.621   5.632  1.7658 -2.9628  2.7453
  886MOL0     H19567   6.979   1.506   5.631 -4.2691  0.4873  2.6250
  886MOL0     H19568   6.997   1.763   5.815 -0.8030  1.9144 -3.2241
  886MOL0     H19569   7.047   1.602   5.852  0.7316  1.1492  0.7186
  886MOL0     H19570   6.970   1.369   5.827 -1.2464 -3.7534  1.1486
  886MOL0     H19571   6.885   1.191   5.894  2.0917  1.2015  0.0950
  886MOL0     H19572   6.623   0.981   6.258  0.3924  0.4410 -2.5463
  886MOL0     H19573   6.540   0.754   6.313  4.1192  1.5178 -2.4607
  886MOL0     H19574   6.407   0.541   6.388 -0.0992  0.3062  2.6240
  886MOL0     H19575   6.298   0.661   6.461  0.3278  1.7423 -2.4476
  886MOL0     H19576   6.237   0.403   6.329  1.5219 -0.7101 -0.2406
  886MOL0     H19577   6.219   0.432   6.498 -0.6523  2.4040  1.4192
  886MOL0     H19578   6.057   0.624   6.420  1.1206 -0.3814  0.5281
  886MOL0     H19579   6.036   0.518   6.282 -0.5363  0.8845  0.4698
  886MOL0     H19580   6.014   0.466   6.572  0.3848  0.4519 -0.1061
  886MOL0     H19581   5.982   0.339   6.449  4.0390  1.2948 -3.1380
  886MOL0     H19582   5.837   0.603   6.429 -0.2756  1.3888  0.0717
  886MOL0     H19583   5.764   0.484   6.534 -2.1950  1.9566 -2.2753
  886MOL0     H19584   5.813   0.429   6.238 -2.2178 -3.5787 -1.8270
  886MOL0     H19585   5.757   0.311   6.359 -1.3514 -0.6108 -1.0732
  886MOL0     H19586   5.555   0.468   6.400  2.0002 -1.5040  0.8914
  886MOL0     H19587   5.576   0.380   6.247 -0.1432  1.1783 -2.3458
  886MOL0     H19588   5.648   0.683   6.285  0.4168 -0.5787  1.3615
  886MOL0     H19589   5.681   0.575   6.144 -1.2190 -0.4026 -0.9705
  886MOL0     H19590   6.164   0.842   6.119 -0.6825 -2.6893  3.5051
  886MOL0     H19591   6.281   1.058   6.033  0.6235  1.0551  1.3458
  886MOL0     H19592   6.516   1.384   6.032 -0.4713 -0.3235  1.2580
  886MOL0     H19593   6.600   1.590   5.946  0.4200  0.9522  0.8495
  886MOL0     H19594   7.780   0.733   4.853  4.9379  1.4348 -2.0142
  886MOL0     H19595   7.989   0.598   4.808  0.2443 -2.4964  0.7895
  886MOL0     H19596   8.363   0.332   4.795 -2.9530  2.6355 -1.7231
  886MOL0     H19597   8.571   0.253   4.686 -0.8539  2.4181  2.2136
  886MOL0     H19598   8.725   0.181   4.538 -1.3569  0.3768  0.7552
  886MOL0     H19599   8.715   0.360   4.503  0.0983 -0.9657  0.3516
  886MOL0     H19600   8.918   0.292   4.392  0.1002  0.3320  0.5873
  886MOL0     H19601   8.790   0.281   4.264 -1.1534 -2.7626 -1.3409
  886MOL0     H19602   8.891   0.089   4.226 -1.1853 -0.1343 -0.2484
  886MOL0     H19603   8.756   0.051   4.309  0.0588  1.8236 -1.2209
  886MOL0     H19604   9.033  -0.015   4.368  0.6971  1.9824  1.5974
  886MOL0     H19605   8.981   0.087   4.494 -4.6075  1.9281  0.7271
  886MOL0     H19606   8.707  -0.216   4.595  1.9851 -1.6731  0.2784
  886MOL0     H19607   8.368   0.226   4.317  2.3554 -0.1269 -0.3571
  886MOL0     H19608   8.040   0.273   4.418  0.5716 -0.0534  0.3948
  886MOL0     H19609   8.122   0.415   4.377  0.4885  0.4318  1.0568
  886MOL0     H19610   8.166   0.273   4.286  0.3897  0.1881 -0.1700
  887MOL0     O19611   5.666   0.176   1.879  0.0055  0.5652 -0.2673
  887MOL0     C19612   5.578   0.196   1.795  0.8165 -0.5576  0.2169
  887MOL0     O19613   5.442   0.173   1.807  0.5117  0.4971  0.2839
  887MOL0     C19614   5.402   0.110   1.923 -0.9902  0.7636 -0.3142
  887MOL0     C19615   5.444  -0.020   1.962 -1.0745  0.2928  0.0536
  887MOL0     C19616   5.418  -0.079   2.087  0.2220 -0.2383 -0.6629
  887MOL0     C19617   5.346  -0.007   2.183  0.5390  0.4924  0.1556
  887MOL0     O19618   5.319  -0.063   2.305  0.0839 -0.2304  0.0654
  887MOL0     C19619   5.429  -0.125   2.367 -0.5016  0.2739  0.5598
  887MOL0     C19620   5.412  -0.279   2.414 -0.0499  0.1783 -0.0207
  887MOL0     C19621   5.271  -0.295   2.487  1.2241  0.0150  0.0800
  887MOL0     C19622   5.240  -0.434   2.544  0.4071  0.0855  0.5769
  887MOL0     C19623   5.269  -0.435   2.702  0.4904 -0.8754  0.0918
  887MOL0     C19624   5.206  -0.554   2.791  0.1587 -0.4319  0.6534
  887MOL0     C19625   5.045  -0.546   2.807 -0.6061 -0.1721 -0.2144
  887MOL0     C19626   4.981  -0.410   2.854  0.2536 -0.8175 -1.0091
  887MOL0     N19627   5.018  -0.382   2.994  0.1462  0.1361  1.1243
  887MOL0     C19628   5.008  -0.470   3.104  0.1740 -0.7860  0.4556
  887MOL0     C19629   5.063  -0.389   3.205  0.7104  0.6694 -0.2201
  887MOL0     C19630   5.115  -0.416   3.344 -0.4259  0.4890  0.2267
  887MOL0     C19631   5.155  -0.560   3.362 -0.0575 -0.2182  0.1663
  887MOL0     C19632   5.279  -0.613   3.281  0.4198  0.1016  0.4715
  887MOL0     C19633   5.404  -0.573   3.350  0.1049  0.1164 -0.0197
  887MOL0     O19634   5.520  -0.584   3.270 -0.5778  0.3086 -0.0420
  887MOL0     C19635   5.528  -0.498   3.160 -0.3994 -0.2384 -0.6612
  887MOL0     C19636   5.435  -0.394   3.131 -0.7067  0.1421 -0.5513
  887MOL0     C19637   5.456  -0.310   3.027  0.8866 -0.2296  0.4728
  887MOL0     C19638   5.555  -0.325   2.932 -0.4339 -0.3104 -0.4756
  887MOL0     C19639   5.573  -0.246   2.802 -1.0324  0.1535 -0.9669
  887MOL0     O19640   5.679  -0.293   2.719  0.4559 -0.1765 -0.1779
  887MOL0     C19641   5.723  -0.236   2.606 -1.2004  0.0066  0.4144
  887MOL0     C19642   5.794  -0.328   2.522 -0.2470 -0.7093 -0.5293
  887MOL0     C19643   5.849  -0.281   2.404 -0.1509  0.3146  0.2029
  887MOL0     C19644   5.845  -0.145   2.363  0.2989  0.2362  0.5136
  887MOL0     O19645   5.871  -0.097   2.234 -0.5317  0.3930 -0.7026
  887MOL0     C19646   5.832  -0.182   2.133  0.0722 -0.0748 -0.0857
  887MOL0     C19647   5.778  -0.104   2.015 -0.2488 -0.2825  0.1529
  887MOL0     C19648   5.884  -0.079   1.904 -0.0963 -1.3247 -0.0117
  887MOL0     C19649   5.986   0.012   1.962 -0.4095  0.0723  0.1314
  887MOL0     C19650   6.068   0.084   1.849  0.0056 -0.3789  0.1019
  887MOL0     C19651   6.115  -0.006   1.736  1.0023  0.2113  0.1742
  887MOL0     C19652   6.165   0.087   1.620 -0.4632  0.9226  0.3753
  887MOL0     C19653   6.189   0.005   1.498 -1.1351  0.0554  1.4265
  887MOL0    Cl19654   6.319  -0.116   1.526  0.1820  0.3221 -0.0089
  887MOL0     C19655   5.792  -0.054   2.455  0.8443 -0.2274 -0.3396
  887MOL0     C19656   5.721  -0.100   2.577 -0.5745 -0.7264  0.0187
  887MOL0     O19657   5.505  -0.150   2.782  0.0823 -0.8753 -0.2084
  887MOL0     C19658   5.642  -0.431   2.950 -0.1800  0.5961 -0.2631
  887MOL0     C19659   5.635  -0.512   3.069  0.6923 -0.3359 -0.1592
  887MOL0     N19660   5.084  -0.264   3.158 -0.6726 -0.3829  0.7026
  887MOL0     N19661   5.057  -0.258   3.036 -0.0127  0.2865 -0.7626
  887MOL0     C19662   5.298   0.114   2.143  0.2170 -0.4785 -0.5749
  887MOL0     C19663   5.323   0.180   2.018 -0.2266  0.4343 -0.3187
  887MOL0     C19664   5.623   0.266   1.675 -0.3265 -0.7684  0.1947
  887MOL0     C19665   5.765   0.310   1.679  0.1953  0.7242  0.4214
  887MOL0     C19666   5.816   0.383   1.575 -0.0688 -0.1074 -0.4959
  887MOL0     C19667   5.754   0.393   1.447 -0.8330 -0.2328 -0.4382
  887MOL0     O19668   5.805   0.470   1.354  1.2021  0.0274  0.5997
  887MOL0     C19669   5.749   0.467   1.223  0.2561  0.3983 -0.1480
  887MOL0     C19670   5.846   0.525   1.130 -0.5067 -0.2827  0.6856
  887MOL0     C19671   5.781   0.547   0.991 -0.3636  0.4848 -0.4901
  887MOL0     C19672   5.876   0.583   0.868  0.4692 -0.2496 -0.1594
  887MOL0     C19673   5.969   0.697   0.882 -0.0605  0.2794 -0.2697
  887MOL0     C19674   6.051   0.784   0.878 -0.6433  0.0987 -0.0600
  887MOL0     C19675   5.622   0.356   1.443  0.9186  0.1759 -0.7926
  887MOL0     C19676   5.563   0.278   1.545  0.8327 -0.2658  0.6159
  887MOL0     C19677   5.433   0.204   1.512 -0.3929 -0.1004 -0.1146
  887MOL0     H19678   5.506  -0.084   1.900  0.5709  0.4267  1.4779
  887MOL0     H19679   5.451  -0.179   2.114  3.1852  0.8082  0.0130
  887MOL0     H19680   5.520  -0.123   2.307 -0.2802  0.0889  0.8809
  887MOL0     H19681   5.459  -0.064   2.453  0.2687 -1.1327  1.3510
  887MOL0     H19682   5.495  -0.309   2.479 -0.3681  0.2048  0.4025
  887MOL0     H19683   5.405  -0.345   2.327  1.3699  2.0179 -1.6375
  887MOL0     H19684   5.187  -0.254   2.431  0.5226 -0.4931  0.7437
  887MOL0     H19685   5.264  -0.227   2.572 -0.2920 -1.4072  1.1605
  887MOL0     H19686   5.135  -0.455   2.523  0.6579 -0.5413 -0.0901
  887MOL0     H19687   5.288  -0.511   2.483 -1.4972 -0.2031 -0.6396
  887MOL0     H19688   5.377  -0.440   2.719  0.7990 -1.6605 -1.8429
  887MOL0     H19689   5.232  -0.341   2.746 -1.9263 -0.0952 -3.1990
  887MOL0     H19690   5.229  -0.649   2.742 -2.6865 -1.5297  1.2338
  887MOL0     H19691   5.265  -0.549   2.883  1.3094  2.0726 -0.1267
  887MOL0     H19692   5.026  -0.624   2.881  0.1160  0.2354  0.4172
  887MOL0     H19693   4.994  -0.559   2.711 -1.1548 -0.1282  0.0677
  887MOL0     H19694   5.014  -0.335   2.781  0.8467 -1.0940 -1.0335
  887MOL0     H19695   4.872  -0.413   2.849  0.2465 -0.4941 -1.0417
  887MOL0     H19696   4.961  -0.568   3.100 -2.5951  0.4218 -3.4287
  887MOL0     H19697   5.201  -0.351   3.361 -1.7261  1.6845  2.7562
  887MOL0     H19698   5.042  -0.395   3.423  1.0057  1.7733  1.2803
  887MOL0     H19699   5.176  -0.575   3.468 -1.6203 -0.9145  0.4093
  887MOL0     H19700   5.075  -0.628   3.330  1.7048 -0.9397 -3.1823
  887MOL0     H19701   5.265  -0.584   3.177  1.5469 -2.1000 -0.3587
  887MOL0     H19702   5.279  -0.722   3.274  0.5618  0.1318 -0.0038
  887MOL0     H19703   5.416  -0.649   3.428 -2.9832  1.1574  1.6706
  887MOL0     H19704   5.391  -0.467   3.375 -1.7688 -0.0366 -0.1595
  887MOL0     H19705   5.344  -0.379   3.188 -1.5257 -5.6697  0.2818
  887MOL0     H19706   5.393  -0.225   3.002  1.5889  0.3965  0.8033
  887MOL0     H19707   5.802  -0.428   2.564  1.4850 -0.6699 -0.7096
  887MOL0     H19708   5.905  -0.350   2.342  0.4763  0.7484  0.2769
  887MOL0     H19709   5.919  -0.236   2.095 -1.2056 -1.8714 -0.5672
  887MOL0     H19710   5.758  -0.258   2.160 -0.0274  1.0889  3.4245
  887MOL0     H19711   5.689  -0.160   1.986  0.0774  0.0944 -1.6940
  887MOL0     H19712   5.730  -0.012   2.050 -0.4116  0.9420 -2.9680
  887MOL0     H19713   5.933  -0.170   1.868  4.4374 -0.2998  2.6861
  887MOL0     H19714   5.832  -0.032   1.820  0.3525  0.6307  0.7490
  887MOL0     H19715   6.050  -0.046   2.029 -0.7474 -1.0549 -0.4958
  887MOL0     H19716   5.938   0.077   2.036 -1.1962 -0.3470 -0.0043
  887MOL0     H19717   6.155   0.135   1.892 -0.4850  2.2047 -1.7149
  887MOL0     H19718   5.996   0.155   1.806 -0.1469 -0.9678 -0.6271
  887MOL0     H19719   6.196  -0.067   1.778  0.4521 -0.9572 -0.4290
  887MOL0     H19720   6.034  -0.071   1.703 -1.3383  2.9059  0.2618
  887MOL0     H19721   6.261   0.135   1.643  0.5055  0.1847 -1.8662
  887MOL0     H19722   6.096   0.171   1.602  1.4566  2.2466 -1.3961
  887MOL0     H19723   6.092  -0.038   1.473 -1.7312  1.1252  1.8668
  887MOL0     H19724   6.217   0.069   1.414  0.6873 -2.1738  0.1815
  887MOL0     H19725   5.795   0.054   2.444  0.7430 -0.4540 -3.1727
  887MOL0     H19726   5.680  -0.028   2.647 -0.8132  3.7042 -4.1448
  887MOL0     H19727   5.727  -0.453   2.887  0.1133  1.8341 -0.3287
  887MOL0     H19728   5.699  -0.598   3.089 -0.8805 -0.6806  4.6672
  887MOL0     H19729   5.243   0.164   2.222  1.2094 -2.6160  1.5739
  887MOL0     H19730   5.305   0.284   1.994 -0.8289  1.1018  2.5763
  887MOL0     H19731   5.823   0.286   1.767  2.3156 -0.4601 -1.2125
  887MOL0     H19732   5.914   0.426   1.592 -0.6006  1.7885 -1.9172
  887MOL0     H19733   5.658   0.525   1.207 -0.9796 -1.8070 -1.6384
  887MOL0     H19734   5.725   0.368   1.183 -0.2681  1.5500 -2.8898
  887MOL0     H19735   5.938   0.469   1.113 -0.4898  0.2980 -1.4153
  887MOL0     H19736   5.872   0.623   1.170  0.1815  0.9275 -2.4282
  887MOL0     H19737   5.710   0.630   0.999  0.0558  0.6647  2.1736
  887MOL0     H19738   5.730   0.452   0.967 -1.6882  0.9252  0.4525
  887MOL0     H19739   5.931   0.496   0.831  0.2914  0.1344 -1.3614
  887MOL0     H19740   5.813   0.602   0.781 -0.5268  2.4920  1.0304
  887MOL0     H19741   6.120   0.866   0.876  0.5850 -0.7983 -4.0302
  887MOL0     H19742   5.558   0.370   1.356  0.8651  1.8007 -0.5144
  887MOL0     H19743   5.418   0.177   1.407 -1.2419 -0.7939  0.1765
  887MOL0     H19744   5.448   0.105   1.558 -0.6147 -0.4471 -0.7747
  887MOL0     H19745   5.344   0.244   1.561 -1.9351 -1.1131 -1.9578
  888MOL0     O19746   8.668   6.351   4.716  1.0673 -0.2872  0.1294
  888MOL0     C19747   8.779   6.398   4.729  0.7661  0.4507 -0.4044
  888MOL0     O19748   8.858   6.383   4.842 -0.1014  0.1937  0.1574
  888MOL0     C19749   8.825   6.302   4.946 -0.1863  0.1675 -0.3685
  888MOL0     C19750   8.820   6.352   5.083 -0.8005 -0.1729 -0.0828
  888MOL0     C19751   8.817   6.271   5.196 -0.1777 -0.1899  0.7848
  888MOL0     C19752   8.791   6.138   5.167 -0.4140 -0.2468 -0.0512
  888MOL0     O19753   8.789   6.037   5.267 -0.2021 -0.0924 -0.7321
  888MOL0     C19754   8.806   6.075   5.405 -0.8823 -1.8582 -0.5555
  888MOL0     C19755   8.778   5.957   5.492  0.0368 -0.0272 -0.7093
  888MOL0     C19756   8.825   5.961   5.643  0.3092  0.1486  0.7252
  888MOL0     C19757   8.786   5.829   5.701  0.3621 -0.0111  0.1155
  888MOL0     C19758   8.845   5.827   5.836 -1.1774 -0.0349  0.1248
  888MOL0     C19759   8.803   5.703   5.921 -1.3721 -0.4118  0.1260
  888MOL0     C19760   8.873   5.706   6.061 -0.3318 -0.0315  0.2277
  888MOL0     C19761   8.845   5.819   6.156 -0.2680 -0.3414 -0.4530
  888MOL0     N19762   8.943   5.840   6.257 -0.6045  0.8594 -0.0252
  888MOL0     C19763   8.954   5.962   6.307  0.7659  0.6002 -0.1804
  888MOL0     C19764   9.071   5.957   6.377 -0.0917 -0.2929 -0.3041
  888MOL0     C19765   9.138   6.055   6.464 -0.5400 -0.5029  0.4432
  888MOL0     C19766   9.049   6.176   6.516 -0.2345 -0.4312  1.0211
  888MOL0     C19767   9.143   6.266   6.597  0.5681  0.6649  0.3563
  888MOL0     C19768   9.085   6.380   6.684 -0.1829  0.0975  0.5871
  888MOL0     O19769   9.176   6.479   6.728  0.0725  0.3512 -0.4984
  888MOL0     C19770   9.235   6.465   6.858 -0.6901 -0.0932 -0.1717
  888MOL0     C19771   9.300   6.580   6.906 -0.0916 -0.3703 -0.7215
  888MOL0     C19772   9.355   6.589   7.042 -1.2398  0.7726 -0.5845
  888MOL0     C19773   9.350   6.477   7.123  0.5862 -0.8150  0.1590
  888MOL0     C19774   9.416   6.463   7.252  0.0994 -0.4980 -0.1572
  888MOL0     O19775   9.388   6.355   7.323  0.3954 -0.2820  0.6805
  888MOL0     C19776   9.464   6.331   7.440 -0.1610  0.8410  0.4853
  888MOL0     C19777   9.599   6.351   7.466  1.4147  0.2699  0.3060
  888MOL0     C19778   9.652   6.303   7.592 -0.2101  0.1154  0.2245
  888MOL0     C19779   9.572   6.252   7.699  0.3452  1.0457  0.0148
  888MOL0     O19780   9.622   6.232   7.824  0.3254  0.8843 -0.5148
  888MOL0     C19781   9.764   6.230   7.849  0.2875 -0.5093  0.1597
  888MOL0     C19782   9.793   6.177   7.992  0.2818 -1.4852  0.2331
  888MOL0     C19783   9.738   6.288   8.098  0.7219  0.1041 -0.6587
  888MOL0     C19784   9.760   6.231   8.246 -0.3195 -0.1285 -0.3056
  888MOL0     C19785   9.712   6.324   8.360  0.1084  0.1636 -0.2660
  888MOL0     C19786   9.797   6.315   8.488 -0.3345 -0.4141 -0.6697
  888MOL0     C19787   9.708   6.296   8.615  0.0460  0.3701 -0.5380
  888MOL0     C19788   9.792   6.316   8.739  0.5293 -0.3838  0.0463
  888MOL0    Cl19789   9.866   6.479   8.741  0.2688 -0.2744  0.2200
  888MOL0     C19790   9.435   6.241   7.669 -0.0850  0.3018 -0.0892
  888MOL0     C19791   9.386   6.269   7.545 -0.5665 -0.2475  0.8015
  888MOL0     O19792   9.508   6.542   7.278  0.7961 -0.4795  0.3544
  888MOL0     C19793   9.280   6.364   7.074 -0.3175 -0.3270 -0.5775
  888MOL0     C19794   9.222   6.362   6.949  0.7989  0.1350 -0.4612
  888MOL0     N19795   9.126   5.829   6.372  0.3020 -0.7959 -0.4081
  888MOL0     N19796   9.046   5.754   6.297  0.6528  0.6019 -1.0304
  888MOL0     C19797   8.763   6.087   5.042 -0.5403  0.0733  0.2428
  888MOL0     C19798   8.776   6.173   4.930 -0.9260 -0.6487  0.0363
  888MOL0     C19799   8.839   6.494   4.631  0.1542  0.2659  0.5218
  888MOL0     C19800   8.963   6.562   4.659  0.6130 -0.7997 -0.4557
  888MOL0     C19801   9.033   6.638   4.564 -0.2810 -0.1415  0.2546
  888MOL0     C19802   8.970   6.681   4.448 -0.7258  0.3285  0.0553
  888MOL0     O19803   9.036   6.765   4.360  0.2391 -0.2723  0.0355
  888MOL0     C19804   8.957   6.863   4.289 -0.0577  0.0151 -0.3901
  888MOL0     C19805   9.046   6.955   4.197 -0.8422 -0.1604 -1.5259
  888MOL0     C19806   9.150   7.046   4.276  0.7260  0.6592  1.2167
  888MOL0     C19807   9.233   7.151   4.203 -0.4572  0.3729  0.2808
  888MOL0     C19808   9.144   7.263   4.143 -0.3137 -0.5517  0.2595
  888MOL0     C19809   9.083   7.356   4.093 -0.2976  0.0027  0.2373
  888MOL0     C19810   8.846   6.614   4.416 -0.5791  0.0577 -0.3672
  888MOL0     C19811   8.791   6.518   4.504 -0.3230 -0.6579 -0.2849
  888MOL0     C19812   8.664   6.441   4.437 -0.1664 -0.0486  0.3634
  888MOL0     H19813   8.823   6.460   5.088 -3.7344 -0.0102 -0.3111
  888MOL0     H19814   8.832   6.318   5.292  0.4831 -0.5134  0.8447
  888MOL0     H19815   8.903   6.119   5.428 -1.5052 -0.0033 -1.2990
  888MOL0     H19816   8.733   6.155   5.422  0.0591 -0.6886 -1.7699
  888MOL0     H19817   8.812   5.861   5.453  1.2649 -0.1493  0.5967
  888MOL0     H19818   8.669   5.961   5.479 -0.0326 -1.6976 -0.8357
  888MOL0     H19819   8.778   6.047   5.693  4.0047  2.5633  0.4505
  888MOL0     H19820   8.931   5.987   5.640 -0.2360  2.6584  0.1580
  888MOL0     H19821   8.680   5.804   5.694  1.2335 -5.5568  1.6832
  888MOL0     H19822   8.837   5.753   5.641  1.5635  1.9051 -1.4568
  888MOL0     H19823   8.954   5.836   5.832 -1.4119  3.7387 -2.6745
  888MOL0     H19824   8.813   5.921   5.881 -0.6684  0.3857 -0.3736
  888MOL0     H19825   8.696   5.709   5.942 -0.9988 -2.0780  3.0895
  888MOL0     H19826   8.829   5.609   5.872 -0.0308 -0.0192  0.0452
  888MOL0     H19827   8.982   5.705   6.051 -0.3361 -2.9138 -0.4367
  888MOL0     H19828   8.852   5.611   6.111  1.5090  0.7103  2.5964
  888MOL0     H19829   8.814   5.910   6.104 -0.3704 -1.1354 -1.8250
  888MOL0     H19830   8.758   5.783   6.211 -0.2865 -2.0717 -1.5475
  888MOL0     H19831   8.875   6.033   6.288  0.2182  0.1109  0.2103
  888MOL0     H19832   9.184   6.009   6.551  2.6292  3.4332  1.1286
  888MOL0     H19833   9.215   6.094   6.398 -0.9074  1.6265  1.1882
  888MOL0     H19834   9.001   6.219   6.427 -0.2911  1.4809  1.9356
  888MOL0     H19835   8.978   6.134   6.586 -1.4130 -1.9605 -0.9853
  888MOL0     H19836   9.227   6.309   6.541  0.2155  3.9228  2.0944
  888MOL0     H19837   9.191   6.204   6.673  2.6931  0.8765 -0.7214
  888MOL0     H19838   9.023   6.341   6.766 -2.1104  3.6446  1.0154
  888MOL0     H19839   9.016   6.434   6.618  0.2796  0.1322  0.1331
  888MOL0     H19840   9.307   6.676   6.856 -1.4771 -0.3845 -1.0007
  888MOL0     H19841   9.400   6.675   7.088 -0.4858 -0.8722  1.9633
  888MOL0     H19842   9.668   6.376   7.386  1.9071 -2.1526 -0.0951
  888MOL0     H19843   9.760   6.316   7.591 -0.3163  1.0970 -0.5905
  888MOL0     H19844   9.822   6.166   7.781  3.3750  2.3241 -0.0944
  888MOL0     H19845   9.808   6.330   7.844  1.8430 -1.1934 -0.3988
  888MOL0     H19846   9.746   6.079   8.005  2.1099 -2.6984 -1.6890
  888MOL0     H19847   9.899   6.159   8.015  0.7950  0.6421 -0.2745
  888MOL0     H19848   9.796   6.380   8.084 -0.0034  0.6409 -0.2184
  888MOL0     H19849   9.632   6.296   8.071  0.6820 -0.6616 -0.7599
  888MOL0     H19850   9.866   6.206   8.250 -0.5061 -1.5802 -2.3682
  888MOL0     H19851   9.700   6.140   8.258 -1.7143  0.7044 -0.7951
  888MOL0     H19852   9.615   6.281   8.390  2.6808 -4.4705  2.7328
  888MOL0     H19853   9.709   6.430   8.337  0.1638 -0.2968 -2.6242
  888MOL0     H19854   9.889   6.256   8.483  0.4438  0.4817  1.6038
  888MOL0     H19855   9.833   6.417   8.503  0.7229 -1.0970  2.2965
  888MOL0     H19856   9.677   6.192   8.599  2.5014  0.0791 -4.7944
  888MOL0     H19857   9.622   6.363   8.626 -0.4570  0.0836 -2.4251
  888MOL0     H19858   9.728   6.307   8.828  1.1528 -1.2908  0.4121
  888MOL0     H19859   9.872   6.244   8.754  1.4147 -0.3013 -3.4959
  888MOL0     H19860   9.370   6.192   7.740 -1.2774  2.5939  0.4649
  888MOL0     H19861   9.286   6.238   7.517 -0.9884 -1.4100  3.3394
  888MOL0     H19862   9.277   6.273   7.132 -1.3854 -0.3879 -0.7097
  888MOL0     H19863   9.150   6.286   6.921 -3.8572  3.6589  0.6952
  888MOL0     H19864   8.728   5.985   5.028  2.6272 -0.7526 -3.2173
  888MOL0     H19865   8.740   6.135   4.835  1.0084  0.0893 -1.0413
  888MOL0     H19866   9.009   6.546   4.756 -2.0352  2.0254  1.4376
  888MOL0     H19867   9.123   6.683   4.604  0.2707 -0.9851 -0.0181
  888MOL0     H19868   8.891   6.923   4.351 -0.8931  0.7161 -1.8956
  888MOL0     H19869   8.905   6.801   4.214 -2.2490  0.5173  0.6510
  888MOL0     H19870   8.971   7.016   4.146 -3.8236 -2.0206  0.3247
  888MOL0     H19871   9.101   6.900   4.121  0.6941  2.5680 -2.5588
  888MOL0     H19872   9.213   6.984   4.340 -0.8643  0.9482  3.1313
  888MOL0     H19873   9.084   7.104   4.342  1.8014  2.5774  0.7074
  888MOL0     H19874   9.309   7.184   4.274  1.6966  1.3020 -2.2522
  888MOL0     H19875   9.280   7.105   4.116  0.8484  1.9745  0.0950
  888MOL0     H19876   9.018   7.423   4.041 -0.6606 -0.7790 -0.3296
  888MOL0     H19877   8.793   6.642   4.325 -1.8493 -0.6948  0.1133
  888MOL0     H19878   8.575   6.468   4.494 -0.9090 -2.5019  0.4983
  888MOL0     H19879   8.639   6.457   4.332  0.7689  0.0415  0.1464
  888MOL0     H19880   8.669   6.337   4.471 -1.8888  0.4951  2.4854
  889MOL0     O19881   5.769  11.130   7.739  0.3256  0.2665  0.0831
  889MOL0     C19882   5.749  11.172   7.851  0.3730  0.2871 -0.1302
  889MOL0     O19883   5.656  11.113   7.934 -0.6250 -0.3239 -0.6617
  889MOL0     C19884   5.579  11.014   7.890  0.2955 -0.4919 -0.8845
  889MOL0     C19885   5.651  10.895   7.860  1.2072  0.1818 -0.5188
  889MOL0     C19886   5.584  10.783   7.829  0.0110  0.0821  0.3656
  889MOL0     C19887   5.446  10.780   7.800  0.4013  0.2899 -0.9215
  889MOL0     O19888   5.386  10.666   7.753  0.5003  0.1213  0.1810
  889MOL0     C19889   5.305  10.684   7.636 -0.1737  0.5504  0.6216
  889MOL0     C19890   5.332  10.585   7.521 -0.5763  0.3822 -1.0940
  889MOL0     C19891   5.224  10.610   7.408  0.0584 -0.1950  0.5102
  889MOL0     C19892   5.243  10.733   7.324  0.6661  0.4944 -0.2817
  889MOL0     C19893   5.149  10.735   7.201 -0.2163 -1.3957  0.4477
  889MOL0     C19894   5.183  10.858   7.109 -0.7210 -0.1090  0.2370
  889MOL0     C19895   5.118  10.852   6.978  0.1460 -0.3947  0.4537
  889MOL0     C19896   4.968  10.859   6.970 -0.1693  0.3715 -0.9054
  889MOL0     N19897   4.929  10.988   7.024 -0.5535  0.2293  0.5366
  889MOL0     C19898   4.907  11.015   7.155  0.0037  0.3937  1.0340
  889MOL0     C19899   4.868  11.151   7.145 -0.4878  0.1530  0.2986
  889MOL0     C19900   4.828  11.237   7.260  0.4277 -1.0481 -0.5438
  889MOL0     C19901   4.687  11.208   7.320  1.5204 -0.6692 -0.3290
  889MOL0     C19902   4.573  11.279   7.232 -0.3670  0.7945 -0.3980
  889MOL0     C19903   4.441  11.237   7.297  0.7758 -0.2535  0.5386
  889MOL0     O19904   4.314  11.277   7.232 -0.2758 -0.1885  0.3741
  889MOL0     C19905   4.267  11.218   7.117 -0.8026 -0.5218 -0.0873
  889MOL0     C19906   4.132  11.239   7.081 -0.4772 -0.4839  0.0676
  889MOL0     C19907   4.067  11.175   6.971 -0.2052 -0.3076 -0.2795
  889MOL0     C19908   4.142  11.088   6.892 -0.1317 -0.2141  0.4320
  889MOL0     C19909   4.082  11.035   6.767 -0.3017 -0.2159 -0.2171
  889MOL0     O19910   4.172  10.974   6.678  0.6110  0.2225 -0.3077
  889MOL0     C19911   4.130  10.906   6.566 -0.1777 -1.0190  1.1400
  889MOL0     C19912   3.995  10.871   6.529  0.5618 -0.7235 -0.8189
  889MOL0     C19913   3.968  10.796   6.413 -0.0285  0.1827 -0.5793
  889MOL0     C19914   4.077  10.764   6.322 -0.8384  0.9973 -0.1217
  889MOL0     O19915   4.062  10.673   6.218  0.4586 -1.1028 -0.8012
  889MOL0     C19916   4.118  10.703   6.086  0.4820 -0.5093  1.0356
  889MOL0     C19917   4.075  10.600   5.980  0.2372  0.0206 -0.2231
  889MOL0     C19918   4.134  10.637   5.840 -0.8937 -0.2237  0.0844
  889MOL0     C19919   4.102  10.530   5.732  0.1455  0.7231  0.6260
  889MOL0     C19920   4.156  10.554   5.589 -0.6609 -0.2755  0.3304
  889MOL0     C19921   4.089  10.672   5.518  0.0955  0.3487  0.3176
  889MOL0     C19922   4.108  10.678   5.368 -0.8542  0.0446 -0.0732
  889MOL0     C19923   4.252  10.710   5.330 -0.0038 -0.1861  0.0122
  889MOL0    Cl19924   4.300  10.887   5.341  0.6331  0.2445  0.2499
  889MOL0     C19925   4.202  10.815   6.344  0.3590 -0.0771 -0.1499
  889MOL0     C19926   4.224  10.881   6.466  0.3484  0.0085  0.4161
  889MOL0     O19927   3.961  11.042   6.753  0.5543  0.9412 -0.4903
  889MOL0     C19928   4.274  11.058   6.928 -0.6768  0.2256  0.0825
  889MOL0     C19929   4.334  11.131   7.033  0.7832  0.0193  0.3940
  889MOL0     N19930   4.881  11.189   7.012 -0.0311  0.2074  0.2984
  889MOL0     N19931   4.911  11.089   6.941  0.1381 -0.5655 -0.1564
  889MOL0     C19932   5.374  10.890   7.841  0.3601 -0.9626  0.0906
  889MOL0     C19933   5.433  11.007   7.886 -0.5141  0.1870  0.0295
  889MOL0     C19934   5.820  11.289   7.914  0.5278  0.5434  0.2740
  889MOL0     C19935   5.795  11.317   8.048  0.5534  0.3250 -0.0115
  889MOL0     C19936   5.849  11.415   8.113 -0.2302 -0.3248 -1.1803
  889MOL0     C19937   5.928  11.509   8.051  0.3330 -0.2326  0.1988
  889MOL0     O19938   5.998  11.605   8.116  0.8326  0.5317  0.1332
  889MOL0     C19939   5.910  11.702   8.160 -0.1148 -0.5617  0.9410
  889MOL0     C19940   5.991  11.818   8.213 -1.0784 -0.2436  0.0153
  889MOL0     C19941   6.050  11.779   8.345  0.1534  0.5725 -0.5577
  889MOL0     C19942   6.103  11.893   8.430  0.3778 -0.2115 -0.1589
  889MOL0     C19943   6.006  11.945   8.533 -0.8785 -0.5329  0.0614
  889MOL0     C19944   5.937  11.990   8.618  0.2032 -0.0069 -0.3701
  889MOL0     C19945   5.964  11.484   7.916  0.7150 -0.5685 -0.1485
  889MOL0     C19946   5.911  11.372   7.849 -0.1292 -0.0958 -0.5465
  889MOL0     C19947   5.946  11.367   7.702 -0.8455  0.1436 -0.7206
  889MOL0     H19948   5.759  10.894   7.867  1.1302  0.3518  1.0306
  889MOL0     H19949   5.640  10.693   7.802 -1.2973  0.0149 -2.3751
  889MOL0     H19950   5.202  10.668   7.669  0.0551  1.8394  2.0492
  889MOL0     H19951   5.322  10.782   7.592  3.6160  0.1617  0.8796
  889MOL0     H19952   5.317  10.482   7.555 -1.5270  0.6876 -0.5681
  889MOL0     H19953   5.437  10.590   7.490 -1.0700  0.4398 -2.8795
  889MOL0     H19954   5.122  10.608   7.448  0.4912 -0.2624  1.6541
  889MOL0     H19955   5.235  10.525   7.339 -1.3562 -1.6347  1.9590
  889MOL0     H19956   5.223  10.821   7.385  1.7236 -0.0987  0.9624
  889MOL0     H19957   5.349  10.739   7.295  0.1950  1.2785 -1.9714
  889MOL0     H19958   5.170  10.648   7.139  3.0073  0.1214 -0.7951
  889MOL0     H19959   5.046  10.744   7.238  0.5122 -2.4060  2.8651
  889MOL0     H19960   5.155  10.947   7.167  3.2254  0.9029  0.8512
  889MOL0     H19961   5.291  10.870   7.102 -0.5177 -0.8068  1.8453
  889MOL0     H19962   5.147  10.752   6.945  0.3514 -2.1131  5.0685
  889MOL0     H19963   5.152  10.939   6.922 -1.8081  1.5289  2.0568
  889MOL0     H19964   4.930  10.845   6.868 -0.0279 -0.8164 -0.8144
  889MOL0     H19965   4.916  10.783   7.028 -2.2339  1.5398 -1.1162
  889MOL0     H19966   4.912  10.965   7.251 -0.1935 -0.0593  0.8102
  889MOL0     H19967   4.901  11.218   7.339  0.9045  0.4181 -0.6093
  889MOL0     H19968   4.837  11.343   7.236 -2.8783 -0.5906 -0.1683
  889MOL0     H19969   4.673  11.100   7.314  0.4904 -0.4833 -1.7783
  889MOL0     H19970   4.677  11.239   7.425 -0.8614 -1.4434 -0.2855
  889MOL0     H19971   4.586  11.238   7.132  0.7300  0.1097  0.0058
  889MOL0     H19972   4.578  11.387   7.220 -1.2198  0.7836 -0.9078
  889MOL0     H19973   4.443  11.294   7.391  1.3366 -0.4854  0.6682
  889MOL0     H19974   4.431  11.128   7.290 -3.7764  0.0934 -1.8060
  889MOL0     H19975   4.074  11.311   7.138 -1.2755  1.6942 -3.1475
  889MOL0     H19976   3.959  11.180   6.962 -0.2072 -1.9243 -1.6221
  889MOL0     H19977   3.906  10.891   6.588  3.0428  1.1229  2.6365
  889MOL0     H19978   3.875  10.742   6.401  0.7845 -1.3176 -0.4724
  889MOL0     H19979   4.071  10.800   6.068  0.2592 -1.1557 -2.4749
  889MOL0     H19980   4.227  10.712   6.081  0.6294 -1.3629  2.2571
  889MOL0     H19981   4.113  10.504   6.016 -6.3435 -1.3975  4.8959
  889MOL0     H19982   3.966  10.602   5.984  0.1499  4.8016  2.4115
  889MOL0     H19983   4.092  10.734   5.810  1.4030  0.1790 -2.1440
  889MOL0     H19984   4.241  10.658   5.832 -0.5162 -2.2367 -0.8143
  889MOL0     H19985   3.993  10.521   5.733 -0.0162  2.2874  0.4584
  889MOL0     H19986   4.149  10.439   5.769 -1.4092 -0.1146  0.6425
  889MOL0     H19987   4.126  10.464   5.533 -0.8169 -1.7247  2.6085
  889MOL0     H19988   4.265  10.564   5.593 -0.6632  0.3046 -0.7631
  889MOL0     H19989   3.981  10.660   5.532  0.4350 -0.3112  2.6715
  889MOL0     H19990   4.120  10.768   5.561  2.7959  0.9267 -2.5241
  889MOL0     H19991   4.052  10.756   5.315  1.3145  3.6313  2.4517
  889MOL0     H19992   4.082  10.584   5.320 -1.8959  0.5136 -0.4505
  889MOL0     H19993   4.327  10.655   5.387  1.2178 -0.0143 -1.3623
  889MOL0     H19994   4.268  10.684   5.225  1.9677 -3.6760  1.0169
  889MOL0     H19995   4.287  10.797   6.278  0.3670  0.0641 -0.1779
  889MOL0     H19996   4.323  10.917   6.494 -1.4382  3.7583  2.5784
  889MOL0     H19997   4.338  10.985   6.881  0.1440  0.0699  1.4087
  889MOL0     H19998   4.440  11.114   7.048  1.1128  2.0719  0.6642
  889MOL0     H19999   5.267  10.896   7.829 -0.0412 -3.5629  1.5375
  889MOL0     H20000   5.374  11.087   7.929 -0.7909  0.0136 -0.0293
  889MOL0     H20001   5.718  11.270   8.107 -1.1918 -0.3091 -2.6405
  889MOL0     H20002   5.821  11.420   8.218  0.7780 -1.6574 -0.8244
  889MOL0     H20003   5.830  11.670   8.228 -2.5978  0.7922 -1.1296
  889MOL0     H20004   5.843  11.740   8.082  1.0691 -2.4681 -1.1179
  889MOL0     H20005   5.921  11.901   8.229 -1.9873 -1.0841  0.5406
  889MOL0     H20006   6.063  11.838   8.134 -1.4761 -2.7209 -1.0669
  889MOL0     H20007   6.143  11.728   8.318 -0.1186 -0.8626  1.0791
  889MOL0     H20008   5.984  11.712   8.401  0.2538 -1.1157 -2.3733
  889MOL0     H20009   6.189  11.851   8.483 -1.7254 -1.8371  2.2257
  889MOL0     H20010   6.125  11.976   8.363 -1.2288 -0.1946 -0.7048
  889MOL0     H20011   5.871  12.034   8.691  2.5319  1.0772  1.1915
  889MOL0     H20012   6.032  11.551   7.865  2.2046 -1.1922  0.9147
  889MOL0     H20013   5.876  11.426   7.642 -2.2884 -0.9535 -0.1894
  889MOL0     H20014   6.043  11.414   7.689 -0.2109 -0.7765  0.4488
  889MOL0     H20015   5.967  11.271   7.655 -0.8953  0.3310 -1.1344
  890MOL0     O20016   6.529   9.671   9.563  0.2930  0.2631  0.4678
  890MOL0     C20017   6.429   9.604   9.580 -0.3831 -0.1967 -0.2611
  890MOL0     O20018   6.407   9.512   9.680  1.2276 -0.0219  0.4675
  890MOL0     C20019   6.494   9.513   9.789  0.4927  1.4012  0.7895
  890MOL0     C20020   6.598   9.424   9.800  0.1929  0.2758 -0.4445
  890MOL0     C20021   6.667   9.430   9.916 -0.6886 -0.6363 -0.3410
  890MOL0     C20022   6.636   9.520  10.025  0.6240  0.5507 -0.4842
  890MOL0     O20023   6.722   9.535  10.135 -0.8529 -0.6338  0.9124
  890MOL0     C20024   6.837   9.448  10.159  1.0119 -0.9291  0.7839
  890MOL0     C20025   6.882   9.440  10.306 -0.7675  1.1008 -0.4928
  890MOL0     C20026   7.005   9.346  10.335 -1.0457 -0.4915  0.2609
  890MOL0     C20027   7.135   9.418  10.313  0.2246  0.1733 -0.1795
  890MOL0     C20028   7.260   9.335  10.336 -0.3543 -0.1155 -0.2743
  890MOL0     C20029   7.277   9.204  10.246 -0.4808 -0.3129  0.0729
  890MOL0     C20030   7.278   9.225  10.089 -0.7765 -0.6281  0.3500
  890MOL0     C20031   7.409   9.266  10.033  1.0654 -0.2121  0.6715
  890MOL0     N20032   7.390   9.235   9.891 -0.0456  0.1048 -0.6302
  890MOL0     C20033   7.425   9.116   9.837  0.5673 -0.3762 -0.8793
  890MOL0     C20034   7.404   9.134   9.705 -0.4505 -0.0029  0.2979
  890MOL0     C20035   7.444   9.047   9.601 -0.4262 -0.5768 -0.2891
  890MOL0     C20036   7.479   9.109   9.472 -0.2371 -0.7201 -0.6852
  890MOL0     C20037   7.583   9.021   9.395 -1.0210 -0.0011  0.4524
  890MOL0     C20038   7.565   9.045   9.240  0.0536  0.1601 -0.7927
  890MOL0     O20039   7.683   9.006   9.173 -0.9196  0.3160  0.0286
  890MOL0     C20040   7.688   9.019   9.030 -0.2726  0.3724  0.4242
  890MOL0     C20041   7.582   9.046   8.943 -0.0462 -0.3389  0.2646
  890MOL0     C20042   7.597   9.055   8.810  0.9219 -1.0385  0.1858
  890MOL0     C20043   7.724   9.042   8.748 -0.4888 -0.2964 -0.5579
  890MOL0     C20044   7.740   9.045   8.599  0.6438  0.2599  0.6555
  890MOL0     O20045   7.862   9.027   8.558  0.5308  0.1651 -0.0455
  890MOL0     C20046   7.900   8.990   8.431 -0.2604 -0.4757 -0.0430
  890MOL0     C20047   8.034   9.012   8.403  0.6196 -0.4047 -0.3308
  890MOL0     C20048   8.074   8.986   8.271  0.1003 -0.7880 -0.6427
  890MOL0     C20049   7.980   8.932   8.180 -0.6178  0.7133  0.1970
  890MOL0     O20050   8.035   8.891   8.061 -0.2031  0.1808  0.3428
  890MOL0     C20051   8.084   8.765   8.042 -1.1568  0.5212 -0.7018
  890MOL0     C20052   7.977   8.664   7.977 -0.5562 -0.1958  0.2274
  890MOL0     C20053   8.019   8.526   7.980 -0.0782  0.5460 -0.5698
  890MOL0     C20054   7.990   8.445   8.107  0.1916 -1.2429  0.1835
  890MOL0     C20055   8.042   8.307   8.106 -0.1211  0.3680 -0.1991
  890MOL0     C20056   7.972   8.200   8.196  0.4340 -0.2076  0.1252
  890MOL0     C20057   8.009   8.057   8.150 -0.0355  1.0104 -0.8141
  890MOL0     C20058   7.965   7.975   8.271  0.7998 -0.3446 -0.4290
  890MOL0    Cl20059   8.026   7.816   8.237 -0.1323 -0.0604 -0.1020
  890MOL0     C20060   7.849   8.908   8.209 -0.0917 -0.8635 -0.2408
  890MOL0     C20061   7.804   8.945   8.336 -0.3983  0.2228  0.4028
  890MOL0     O20062   7.637   9.065   8.536 -0.5136  0.0859 -0.1905
  890MOL0     C20063   7.830   9.001   8.830  0.1694  0.8813  0.2900
  890MOL0     C20064   7.814   9.003   8.966 -1.1938  0.1021  0.4625
  890MOL0     N20065   7.336   9.250   9.684 -0.4744 -0.2930  0.1133
  890MOL0     N20066   7.328   9.310   9.800  0.1250  0.7683 -1.0727
  890MOL0     C20067   6.519   9.600  10.015 -0.8031  0.8641  0.0655
  890MOL0     C20068   6.453   9.593   9.894  0.2655 -0.8054 -0.4517
  890MOL0     C20069   6.318   9.638   9.489  0.0988 -0.6969 -1.2114
  890MOL0     C20070   6.192   9.615   9.543  0.1944 -0.2557 -0.1718
  890MOL0     C20071   6.077   9.631   9.459 -0.6222  0.1058 -0.1654
  890MOL0     C20072   6.082   9.677   9.329 -0.7290  0.0139 -0.1785
  890MOL0     O20073   5.974   9.694   9.252  0.4836  0.9266  0.2848
  890MOL0     C20074   5.924   9.562   9.190  0.3312 -0.3551  0.1687
  890MOL0     C20075   5.792   9.605   9.131 -0.4979 -0.3400  0.1020
  890MOL0     C20076   5.795   9.694   9.010  0.3102 -0.6945 -0.0840
  890MOL0     C20077   5.804   9.629   8.870 -0.0645 -0.2039  0.1726
  890MOL0     C20078   5.699   9.689   8.788 -0.7299  0.2881 -0.5637
  890MOL0     C20079   5.622   9.745   8.717  0.0754 -0.5043  1.4701
  890MOL0     C20080   6.210   9.699   9.276 -0.7721  0.2268 -0.2338
  890MOL0     C20081   6.328   9.674   9.354  0.3459 -0.7268  0.3185
  890MOL0     C20082   6.454   9.680   9.272  0.8621 -0.4421 -0.5264
  890MOL0     H20083   6.617   9.363   9.713 -0.0770  0.2311 -0.4743
  890MOL0     H20084   6.766   9.385   9.919 -0.6101 -0.4777 -0.5708
  890MOL0     H20085   6.824   9.345  10.124  0.3142 -1.7315  3.2120
  890MOL0     H20086   6.915   9.493  10.097  3.2609  0.1938  4.1638
  890MOL0     H20087   6.798   9.395  10.360  0.9468 -1.4557  0.2361
  890MOL0     H20088   6.894   9.541  10.346 -1.2708  0.7632  0.5358
  890MOL0     H20089   7.011   9.272  10.255  0.2509  1.6181 -1.7171
  890MOL0     H20090   7.007   9.299  10.434  3.0508 -2.2858 -0.4942
  890MOL0     H20091   7.128   9.460  10.213 -1.4213 -1.3480 -0.7426
  890MOL0     H20092   7.134   9.507  10.378  0.3771  0.0118  0.0484
  890MOL0     H20093   7.350   9.395  10.321  0.2543 -0.9201  0.0639
  890MOL0     H20094   7.263   9.294  10.437  1.3325  0.2545 -0.1386
  890MOL0     H20095   7.362   9.144  10.280 -0.0413  0.2618  0.0030
  890MOL0     H20096   7.203   9.125  10.261  1.8441 -2.7058 -0.1757
  890MOL0     H20097   7.212   9.310  10.071  0.6295  0.0588 -2.0451
  890MOL0     H20098   7.237   9.137  10.037 -0.3947 -0.3159 -0.5018
  890MOL0     H20099   7.439   9.369  10.055  0.0925 -0.0564  1.3057
  890MOL0     H20100   7.495   9.207  10.067  2.3809  1.9307  1.2706
  890MOL0     H20101   7.464   9.029   9.888 -0.6719  2.5306  6.1949
  890MOL0     H20102   7.537   9.002   9.635 -0.6880 -1.0669 -0.2130
  890MOL0     H20103   7.362   8.976   9.586 -1.9822  0.0708  3.8202
  890MOL0     H20104   7.383   9.125   9.423 -0.4783  3.1610  0.6787
  890MOL0     H20105   7.521   9.210   9.481  0.6692 -1.1478  0.1132
  890MOL0     H20106   7.571   8.914   9.414 -0.0968 -0.6042 -1.9118
  890MOL0     H20107   7.680   9.059   9.428 -0.3132 -0.3481 -1.1170
  890MOL0     H20108   7.539   9.150   9.220  4.6831  1.5212 -0.6905
  890MOL0     H20109   7.476   8.990   9.206  0.9169 -0.2077 -2.5499
  890MOL0     H20110   7.493   9.077   8.998  1.1314  1.4556  1.2822
  890MOL0     H20111   7.511   9.087   8.752  1.1011 -0.9491 -0.0334
  890MOL0     H20112   8.103   9.059   8.474 -1.8761  3.8891 -0.3733
  890MOL0     H20113   8.180   9.003   8.256  0.2336  2.3275  2.6137
  890MOL0     H20114   8.171   8.770   7.977 -1.2195  0.6790 -0.7715
  890MOL0     H20115   8.119   8.718   8.134 -1.7520  1.9618  0.2976
  890MOL0     H20116   7.879   8.672   8.026 -0.0292  0.6954  1.2000
  890MOL0     H20117   7.962   8.701   7.875 -1.2811  3.6231  1.5439
  890MOL0     H20118   7.983   8.471   7.893  0.5823  0.9065 -1.0855
  890MOL0     H20119   8.128   8.533   7.986 -0.0868  3.1020 -2.0191
  890MOL0     H20120   7.884   8.448   8.132  0.3667 -0.7705  0.9327
  890MOL0     H20121   8.033   8.501   8.191  0.1175  2.5183 -2.0702
  890MOL0     H20122   8.146   8.311   8.137 -0.2900 -1.9870  0.9368
  890MOL0     H20123   8.038   8.269   8.004 -0.0777 -2.2267  0.6677
  890MOL0     H20124   8.008   8.222   8.297 -0.7725  0.9687  0.3275
  890MOL0     H20125   7.864   8.217   8.195  0.6579  2.1160  2.4869
  890MOL0     H20126   8.113   8.049   8.116  1.7991  2.0507  3.8314
  890MOL0     H20127   7.947   8.037   8.062 -1.3380  2.0449 -0.1807
  890MOL0     H20128   8.001   8.019   8.365 -0.2393  1.0635 -0.6659
  890MOL0     H20129   7.859   7.998   8.281  1.4395  2.2763  1.3986
  890MOL0     H20130   7.776   8.867   8.139 -0.4294 -0.9718  0.1686
  890MOL0     H20131   7.703   8.913   8.362  0.2152 -2.0863  0.1173
  890MOL0     H20132   7.935   8.986   8.803  0.0986  2.0751 -0.7846
  890MOL0     H20133   7.903   8.980   9.025 -0.6074 -0.1085 -0.4823
  890MOL0     H20134   6.503   9.671  10.096 -1.0699 -0.5542  1.2985
  890MOL0     H20135   6.368   9.656   9.870 -1.8318 -2.0785  3.0055
  890MOL0     H20136   6.178   9.570   9.641 -2.3709 -0.6289 -0.6447
  890MOL0     H20137   5.984   9.609   9.511  0.3483  0.8385  2.0083
  890MOL0     H20138   5.905   9.492   9.272 -0.2388 -1.1859 -0.6607
  890MOL0     H20139   5.990   9.523   9.113  0.8978  4.3859 -2.0909
  890MOL0     H20140   5.728   9.645   9.210 -1.7823  1.2148 -1.6463
  890MOL0     H20141   5.740   9.514   9.101 -1.3558 -0.8459  2.8030
  890MOL0     H20142   5.892   9.745   9.009  1.7363 -3.2169 -0.1417
  890MOL0     H20143   5.709   9.761   9.016 -1.4436 -2.9011  0.6743
  890MOL0     H20144   5.895   9.641   8.810 -1.4578 -2.4727 -2.6504
  890MOL0     H20145   5.798   9.520   8.872 -1.1775 -0.1370  0.7578
  890MOL0     H20146   5.558   9.802   8.652 -0.6989 -1.5204  1.3152
  890MOL0     H20147   6.233   9.738   9.177 -0.9507 -0.8326 -0.6984
  890MOL0     H20148   6.543   9.650   9.329 -1.1287 -2.0164  1.9456
  890MOL0     H20149   6.429   9.602   9.200  1.6612 -3.0640  1.8782
  890MOL0     H20150   6.463   9.775   9.219 -1.6773  0.4655  0.5356
  891MOL0     O20151   8.664   6.784   0.888  1.2912 -0.0755 -0.2393
  891MOL0     C20152   8.765   6.848   0.916 -0.0071 -0.3071  0.4336
  891MOL0     O20153   8.761   6.988   0.939  0.0407  0.5529  0.8154
  891MOL0     C20154   8.640   7.039   0.938 -0.2507 -0.0797  0.4721
  891MOL0     C20155   8.574   7.074   1.056  1.0346 -0.2846  0.6719
  891MOL0     C20156   8.442   7.123   1.056  0.4920  0.4557 -0.3610
  891MOL0     C20157   8.373   7.142   0.934  0.0931  0.2242 -0.8057
  891MOL0     O20158   8.250   7.197   0.942  0.1520  0.2307 -1.2219
  891MOL0     C20159   8.168   7.233   0.831 -0.4538  0.5507  0.2493
  891MOL0     C20160   8.059   7.321   0.873  0.0955 -0.6249 -0.5498
  891MOL0     C20161   7.959   7.267   0.979 -0.5151  0.1688  0.5566
  891MOL0     C20162   7.882   7.392   1.032 -0.7217 -0.5962  0.2934
  891MOL0     C20163   7.779   7.364   1.126  0.3548  0.9222 -0.5961
  891MOL0     C20164   7.700   7.495   1.168  0.3494  1.2525  0.3414
  891MOL0     C20165   7.609   7.449   1.280  0.6602  0.0757 -0.6506
  891MOL0     C20166   7.487   7.539   1.279 -0.1002 -0.5242  0.5926
  891MOL0     N20167   7.393   7.527   1.393  0.0122 -0.5916 -0.3651
  891MOL0     C20168   7.292   7.611   1.424  0.9363 -0.3402  0.1347
  891MOL0     C20169   7.240   7.562   1.539  0.1416  0.6037  0.1505
  891MOL0     C20170   7.104   7.595   1.589 -0.4441  1.1848  0.3403
  891MOL0     C20171   7.006   7.504   1.532  0.0459 -0.9002 -0.6177
  891MOL0     C20172   6.867   7.566   1.553 -0.3548  0.8463  0.2074
  891MOL0     C20173   6.844   7.705   1.484 -0.1194 -0.2185 -0.4007
  891MOL0     O20174   6.720   7.751   1.533  0.1598  0.6374 -0.3508
  891MOL0     C20175   6.596   7.718   1.477 -1.2190  0.0531 -0.8601
  891MOL0     C20176   6.482   7.798   1.509  0.3101 -0.0971 -0.0870
  891MOL0     C20177   6.352   7.772   1.451 -1.2069 -0.2525  0.8497
  891MOL0     C20178   6.346   7.669   1.355 -0.5568 -0.1564  0.8029
  891MOL0     C20179   6.228   7.653   1.262 -0.4009 -0.4832  0.2452
  891MOL0     O20180   6.196   7.535   1.207  0.4519 -0.7996  0.6068
  891MOL0     C20181   6.083   7.537   1.126  0.3380  0.6502  0.2345
  891MOL0     C20182   6.093   7.566   0.991  0.8817 -0.5666  1.1008
  891MOL0     C20183   5.982   7.556   0.901 -0.0684 -0.3306 -0.6197
  891MOL0     C20184   5.862   7.506   0.959  0.2391 -0.3978 -0.3045
  891MOL0     O20185   5.750   7.470   0.881 -0.0882 -0.2923  0.3688
  891MOL0     C20186   5.694   7.568   0.792  0.5617  0.1572  0.5658
  891MOL0     C20187   5.613   7.676   0.856 -0.4377  0.2361  0.1289
  891MOL0     C20188   5.596   7.801   0.756  0.0217 -0.5567  0.1937
  891MOL0     C20189   5.559   7.924   0.836  0.1422 -0.0572  0.5751
  891MOL0     C20190   5.608   8.046   0.752  0.7311 -0.2121 -0.0678
  891MOL0     C20191   5.583   8.187   0.820  0.2941 -0.3006 -0.2481
  891MOL0     C20192   5.634   8.298   0.731 -0.0127 -0.6661  0.8133
  891MOL0     C20193   5.612   8.434   0.801  0.3070  0.0525  0.2137
  891MOL0    Cl20194   5.765   8.451   0.897  0.1425 -0.8319 -0.3017
  891MOL0     C20195   5.856   7.471   1.093  0.2507 -1.3656 -0.6369
  891MOL0     C20196   5.965   7.482   1.177 -0.1937 -0.2561 -1.6176
  891MOL0     O20197   6.152   7.750   1.253 -0.0244  0.1141  0.2800
  891MOL0     C20198   6.447   7.573   1.344 -0.1485 -0.5303  1.0098
  891MOL0     C20199   6.574   7.605   1.398  0.7453  0.6520  0.8369
  891MOL0     N20200   7.313   7.455   1.577 -0.4507  0.0338 -0.1366
  891MOL0     N20201   7.410   7.433   1.490 -0.3440  0.3599 -0.8767
  891MOL0     C20202   8.435   7.111   0.818 -0.8805 -0.1238 -0.0322
  891MOL0     C20203   8.570   7.063   0.823 -0.1871 -0.3145  0.8392
  891MOL0     C20204   8.889   6.765   0.921 -1.7695 -0.6222 -0.0714
  891MOL0     C20205   8.885   6.629   0.905 -0.0600  0.0204  0.1372
  891MOL0     C20206   8.992   6.537   0.911 -0.1158  0.5137  0.2163
  891MOL0     C20207   9.121   6.595   0.931  0.0283  0.7007 -0.1667
  891MOL0     O20208   9.238   6.521   0.950  0.1723 -0.2029  0.2022
  891MOL0     C20209   9.235   6.380   0.921  0.6628  0.6620  0.3971
  891MOL0     C20210   9.360   6.312   0.945  0.0028  0.5677 -0.0465
  891MOL0     C20211   9.357   6.178   0.875  0.1535  0.6713 -0.1694
  891MOL0     C20212   9.463   6.084   0.899 -0.4732  0.0899  0.2723
  891MOL0     C20213   9.439   6.021   1.029  0.4568 -0.6544  1.0010
  891MOL0     C20214   9.428   5.971   1.141 -0.2625 -0.5899 -0.9138
  891MOL0     C20215   9.129   6.732   0.942  0.3709  0.0169  0.0429
  891MOL0     C20216   9.020   6.816   0.942  0.8021  0.2006  0.6194
  891MOL0     C20217   9.051   6.964   0.944  0.5669 -0.2983 -0.7195
  891MOL0     H20218   8.623   7.060   1.151 -0.3561 -2.8050  1.1147
  891MOL0     H20219   8.399   7.146   1.153  2.7975 -0.8118  1.0508
  891MOL0     H20220   8.231   7.287   0.759  0.1625  0.2763  0.5750
  891MOL0     H20221   8.121   7.141   0.793 -1.1585  0.8096  0.4909
  891MOL0     H20222   7.995   7.332   0.785  0.7478  0.3835 -0.9097
  891MOL0     H20223   8.092   7.422   0.897  0.0595 -0.4978 -1.0255
  891MOL0     H20224   8.015   7.214   1.056  1.1246  0.0453 -0.6476
  891MOL0     H20225   7.879   7.207   0.936 -2.3108  1.4796  1.8933
  891MOL0     H20226   7.954   7.447   1.093  1.4883 -3.0082  0.0726
  891MOL0     H20227   7.839   7.455   0.954 -2.0010 -0.5994  0.9714
  891MOL0     H20228   7.712   7.295   1.074  1.6991 -1.2796  0.4626
  891MOL0     H20229   7.823   7.313   1.212  0.1690  1.0162 -0.4442
  891MOL0     H20230   7.766   7.572   1.210 -0.7204  1.8400  0.9961
  891MOL0     H20231   7.635   7.540   1.092  0.9464  4.3404  1.5445
  891MOL0     H20232   7.650   7.446   1.381 -1.6127 -0.8185  0.3086
  891MOL0     H20233   7.581   7.344   1.265  0.5511 -0.4048  2.4055
  891MOL0     H20234   7.531   7.639   1.281 -0.5295 -0.3384  1.1858
  891MOL0     H20235   7.431   7.543   1.185 -2.9523  1.8905  2.2315
  891MOL0     H20236   7.251   7.683   1.354  1.4400 -2.2374 -2.2868
  891MOL0     H20237   7.104   7.569   1.695  3.0122  1.0465  0.4048
  891MOL0     H20238   7.087   7.703   1.580  0.8350  1.5991  2.3346
  891MOL0     H20239   7.027   7.485   1.427  1.1165 -2.5447 -0.1490
  891MOL0     H20240   7.002   7.412   1.591 -1.2608 -0.3362  0.2318
  891MOL0     H20241   6.858   7.564   1.662  3.2708 -0.5262  0.6530
  891MOL0     H20242   6.799   7.484   1.527 -1.1325  1.6673 -0.3865
  891MOL0     H20243   6.854   7.697   1.376  1.7834 -2.8377 -0.1233
  891MOL0     H20244   6.903   7.789   1.523 -1.8731  1.3516 -1.0027
  891MOL0     H20245   6.500   7.875   1.583  1.0893  1.4599 -1.8334
  891MOL0     H20246   6.266   7.836   1.468 -0.0311  1.5889  0.2079
  891MOL0     H20247   6.190   7.592   0.950 -0.4433 -2.4121 -4.1266
  891MOL0     H20248   5.966   7.581   0.797 -6.6550  0.4905  0.1601
  891MOL0     H20249   5.769   7.608   0.723 -1.2126  1.2005 -0.8500
  891MOL0     H20250   5.625   7.520   0.723 -0.3123  2.1318 -0.0059
  891MOL0     H20251   5.512   7.639   0.877 -1.1291  0.8731 -1.8747
  891MOL0     H20252   5.659   7.712   0.949  2.0501 -2.2608  0.0114
  891MOL0     H20253   5.691   7.822   0.705  0.6481  2.2886  2.2399
  891MOL0     H20254   5.516   7.796   0.682  1.4447  1.3177 -1.5777
  891MOL0     H20255   5.594   7.912   0.939 -0.6711  0.1677  0.8799
  891MOL0     H20256   5.451   7.936   0.847  0.3215  3.9432 -0.4677
  891MOL0     H20257   5.551   8.047   0.659  1.2182 -1.6071 -0.4206
  891MOL0     H20258   5.716   8.037   0.737  0.6982  1.8103 -1.9959
  891MOL0     H20259   5.478   8.201   0.845  0.2609 -2.1754  0.9005
  891MOL0     H20260   5.649   8.172   0.906  0.7314  1.2796 -0.2902
  891MOL0     H20261   5.562   8.299   0.648  0.5944  2.0797  0.2168
  891MOL0     H20262   5.732   8.290   0.684  0.8159 -2.1646  2.6575
  891MOL0     H20263   5.599   8.514   0.727 -0.6638 -1.4457 -1.3146
  891MOL0     H20264   5.524   8.438   0.865 -0.5519  2.3618 -0.9853
  891MOL0     H20265   5.761   7.429   1.122 -0.9281  1.2731 -0.3666
  891MOL0     H20266   5.968   7.439   1.277 -1.3123  3.4492  0.2288
  891MOL0     H20267   6.425   7.484   1.286  2.4801 -0.1410 -0.8100
  891MOL0     H20268   6.646   7.525   1.390 -1.4987 -1.5319  1.3525
  891MOL0     H20269   8.380   7.135   0.727 -2.3012  2.0939  1.3009
  891MOL0     H20270   8.610   7.044   0.724  0.3618  4.3434 -0.0570
  891MOL0     H20271   8.793   6.573   0.887  0.1367 -2.0670  4.4743
  891MOL0     H20272   8.978   6.430   0.898 -0.9043  0.7664 -1.2357
  891MOL0     H20273   9.209   6.371   0.815  3.8391 -2.2018 -0.3283
  891MOL0     H20274   9.159   6.333   0.983  3.7313 -2.3718  2.2667
  891MOL0     H20275   9.366   6.301   1.054 -1.6323 -1.0057 -0.0839
  891MOL0     H20276   9.448   6.367   0.909  1.2954 -1.3729 -0.0196
  891MOL0     H20277   9.359   6.192   0.767 -0.8793  0.6152 -0.2064
  891MOL0     H20278   9.260   6.129   0.887  0.9952 -2.2492 -3.5736
  891MOL0     H20279   9.462   6.008   0.820  0.5320  0.2312  0.1080
  891MOL0     H20280   9.560   6.133   0.894  1.1395 -2.5182  2.6078
  891MOL0     H20281   9.431   5.929   1.240  0.5609  0.3968 -0.5036
  891MOL0     H20282   9.226   6.780   0.951  0.1894  0.9060 -2.0611
  891MOL0     H20283   9.159   6.984   0.942  0.1780  3.7740  3.2046
  891MOL0     H20284   9.007   7.013   0.857 -1.7534 -0.7253  0.1448
  891MOL0     H20285   9.012   7.003   1.038 -0.8057 -1.4626 -0.7656
  892MOL0     O20286   0.149   6.618   4.485 -0.2707  0.0936  0.3842
  892MOL0     C20287   0.124   6.638   4.603 -0.1649  0.1029  0.0291
  892MOL0     O20288   0.215   6.685   4.698 -0.4090  0.1701 -0.8285
  892MOL0     C20289   0.343   6.639   4.687  0.9716 -0.0920 -0.7259
  892MOL0     C20290   0.371   6.510   4.721 -0.2208  0.6581  1.0848
  892MOL0     C20291   0.500   6.453   4.701 -0.2634 -0.8329 -0.3185
  892MOL0     C20292   0.605   6.533   4.662 -0.0210  1.2682  0.3930
  892MOL0     O20293   0.731   6.482   4.649  0.4025  0.4608  0.3472
  892MOL0     C20294   0.741   6.353   4.587  0.3388 -0.4297 -0.3070
  892MOL0     C20295   0.882   6.326   4.550 -1.2190  1.1516  0.1101
  892MOL0     C20296   0.891   6.205   4.465 -0.1333  0.8009 -0.3361
  892MOL0     C20297   1.033   6.130   4.476  0.2528 -0.1162  0.1524
  892MOL0     C20298   1.049   6.027   4.364  0.3937 -0.0641  0.4789
  892MOL0     C20299   0.954   5.900   4.364 -1.0712 -1.0005 -0.4809
  892MOL0     C20300   0.975   5.808   4.245 -0.2908 -0.1236  0.6995
  892MOL0     C20301   1.100   5.725   4.240  0.0598 -0.1271  0.5186
  892MOL0     N20302   1.110   5.673   4.106  0.5951  0.1087  0.4870
  892MOL0     C20303   1.084   5.541   4.074  0.2314 -0.6429  0.2531
  892MOL0     C20304   1.145   5.522   3.956 -0.5857  0.5789 -0.2546
  892MOL0     C20305   1.154   5.387   3.884  0.3650  1.3698  0.2464
  892MOL0     C20306   1.251   5.285   3.948 -0.0677 -0.2319  0.1154
  892MOL0     C20307   1.404   5.335   3.939 -0.3753  0.3274 -0.3186
  892MOL0     C20308   1.496   5.220   3.933  0.2285 -1.1235 -1.0534
  892MOL0     O20309   1.475   5.122   4.039 -0.5165  0.9080  0.2187
  892MOL0     C20310   1.501   4.992   3.994  0.2497 -1.4883 -0.5746
  892MOL0     C20311   1.614   4.963   3.920  0.2248  0.4239 -0.3185
  892MOL0     C20312   1.635   4.832   3.860  0.5417 -0.3868 -0.9642
  892MOL0     C20313   1.548   4.732   3.913 -0.5089 -0.5047  0.7185
  892MOL0     C20314   1.544   4.603   3.839 -0.6487  0.0852 -0.2020
  892MOL0     O20315   1.454   4.516   3.889  0.4192 -0.6801 -0.0185
  892MOL0     C20316   1.417   4.394   3.833 -0.0130 -0.6893  0.2067
  892MOL0     C20317   1.285   4.342   3.844 -0.2447  1.0538 -0.2784
  892MOL0     C20318   1.259   4.211   3.793  0.0255  0.1409 -0.0745
  892MOL0     C20319   1.351   4.135   3.716 -0.1227 -0.2423  0.1661
  892MOL0     O20320   1.317   4.008   3.673 -0.3800  0.2424  0.0661
  892MOL0     C20321   1.393   3.964   3.559 -0.0450  0.2687 -0.5076
  892MOL0     C20322   1.313   3.836   3.504 -0.1301  0.0508  0.6348
  892MOL0     C20323   1.365   3.768   3.380 -0.7443 -0.2201 -0.1463
  892MOL0     C20324   1.305   3.636   3.359 -0.4617  0.8892  0.5162
  892MOL0     C20325   1.355   3.567   3.232 -0.2882 -0.6027  0.3127
  892MOL0     C20326   1.295   3.428   3.208  1.1298 -0.1031  0.2583
  892MOL0     C20327   1.368   3.356   3.092  0.3047 -0.2997 -0.5256
  892MOL0     C20328   1.294   3.223   3.061 -0.5272 -0.7837 -0.1825
  892MOL0    Cl20329   1.278   3.097   3.195 -0.3518  0.3000  0.0406
  892MOL0     C20330   1.478   4.195   3.701  0.4182  0.5027 -0.3007
  892MOL0     C20331   1.512   4.317   3.759 -0.6989  0.1361 -1.6852
  892MOL0     O20332   1.631   4.572   3.761 -0.7845 -0.5980 -0.9223
  892MOL0     C20333   1.449   4.754   4.009 -0.4535 -0.0404 -0.3830
  892MOL0     C20334   1.428   4.891   4.051 -0.6123  0.5228 -0.6530
  892MOL0     N20335   1.209   5.636   3.914 -0.6493 -0.0896 -0.5392
  892MOL0     N20336   1.174   5.727   3.992 -0.8247  0.5454  0.1218
  892MOL0     C20337   0.583   6.667   4.637 -0.5974 -0.8281  0.7163
  892MOL0     C20338   0.456   6.720   4.646  0.7898 -1.1507  0.5088
  892MOL0     C20339  -0.020   6.629   4.642  0.1984 -0.1345 -0.5935
  892MOL0     C20340  -0.061   6.690   4.766 -0.1855 -0.0290 -0.1197
  892MOL0     C20341  -0.192   6.687   4.820  0.8023 -0.6427 -0.1324
  892MOL0     C20342  -0.295   6.639   4.735 -0.2242 -0.2851  0.2009
  892MOL0     O20343  -0.425   6.673   4.755  0.4712  0.5202 -0.2583
  892MOL0     C20344  -0.471   6.720   4.881  0.3122 -0.8183 -0.3519
  892MOL0     C20345  -0.464   6.602   4.980  0.0858  0.5464  0.5963
  892MOL0     C20346  -0.540   6.479   4.928 -0.6031 -0.2653 -0.3226
  892MOL0     C20347  -0.521   6.350   5.000  0.2055 -0.3695  0.2285
  892MOL0     C20348  -0.541   6.235   4.907 -0.5195 -0.4538  0.4167
  892MOL0     C20349  -0.565   6.147   4.833 -0.0557 -0.2173  1.1838
  892MOL0     C20350  -0.264   6.593   4.601  0.1062  0.1255 -0.7128
  892MOL0     C20351  -0.125   6.586   4.559 -0.1352 -1.2070 -0.8203
  892MOL0     C20352  -0.100   6.517   4.424  0.2751 -0.1776  0.9146
  892MOL0     H20353   0.291   6.439   4.738 -0.7740  1.0942  0.3795
  892MOL0     H20354   0.525   6.353   4.737  0.4392 -0.5998 -0.1415
  892MOL0     H20355   0.706   6.274   4.654 -3.1079  0.1887 -1.1599
  892MOL0     H20356   0.688   6.347   4.491 -1.3161 -1.4325  0.6264
  892MOL0     H20357   0.939   6.317   4.643 -0.3323 -1.4607 -0.5938
  892MOL0     H20358   0.914   6.417   4.497  1.1939 -0.4019 -1.3355
  892MOL0     H20359   0.866   6.227   4.360  1.0391  1.4499 -0.4977
  892MOL0     H20360   0.826   6.125   4.503  3.1800 -2.7320 -1.4510
  892MOL0     H20361   1.115   6.201   4.460  2.2038 -2.8204 -3.4071
  892MOL0     H20362   1.039   6.077   4.571 -2.5955  0.2112  0.5981
  892MOL0     H20363   1.026   6.094   4.281 -0.5191 -1.6874 -0.6163
  892MOL0     H20364   1.153   5.994   4.374  0.7927  1.2174  0.7669
  892MOL0     H20365   0.962   5.850   4.461 -1.9273  1.3283  0.8871
  892MOL0     H20366   0.854   5.941   4.349 -1.8775 -3.2834 -1.8223
  892MOL0     H20367   0.960   5.872   4.157 -1.0931  0.4289  1.2262
  892MOL0     H20368   0.891   5.737   4.238 -0.9831  0.7838 -4.0518
  892MOL0     H20369   1.182   5.789   4.274  0.7004 -1.0583  0.7480
  892MOL0     H20370   1.078   5.653   4.318 -0.2618  2.1281  2.6276
  892MOL0     H20371   1.044   5.453   4.122  1.3292 -1.9014 -1.0403
  892MOL0     H20372   1.062   5.331   3.866  0.9190  0.5946 -0.2643
  892MOL0     H20373   1.190   5.411   3.783 -1.4542  0.3135 -0.6986
  892MOL0     H20374   1.227   5.276   4.055 -0.8198  0.3706  0.0106
  892MOL0     H20375   1.237   5.189   3.896 -0.1831 -0.1894  0.0669
  892MOL0     H20376   1.439   5.416   4.004  2.9876  1.0164 -2.7470
  892MOL0     H20377   1.419   5.392   3.847 -1.4073  2.0192  0.5103
  892MOL0     H20378   1.599   5.253   3.944 -1.0078  2.8134  0.2707
  892MOL0     H20379   1.474   5.172   3.837  1.1328  1.2557 -2.5230
  892MOL0     H20380   1.684   5.045   3.911  0.6413  0.2754  1.3074
  892MOL0     H20381   1.709   4.821   3.781  1.4330 -0.8491 -0.0917
  892MOL0     H20382   1.205   4.396   3.892 -3.9233 -1.9530 -2.4022
  892MOL0     H20383   1.156   4.180   3.807  0.2343 -0.5961 -0.0789
  892MOL0     H20384   1.389   4.041   3.481 -0.4001 -0.7511 -1.5177
  892MOL0     H20385   1.491   3.920   3.583 -1.5439 -2.5243  0.9404
  892MOL0     H20386   1.319   3.765   3.587  0.2710 -0.8307 -0.1330
  892MOL0     H20387   1.212   3.868   3.477 -0.0941  0.0522  0.5022
  892MOL0     H20388   1.353   3.838   3.297 -2.8101  1.2386  1.2651
  892MOL0     H20389   1.471   3.744   3.393 -0.6463 -0.4603 -1.2815
  892MOL0     H20390   1.197   3.648   3.357 -0.5081  0.4192 -0.9730
  892MOL0     H20391   1.333   3.565   3.437  0.6668 -1.8611 -2.1786
  892MOL0     H20392   1.464   3.559   3.227  0.2846  3.8835  1.2862
  892MOL0     H20393   1.319   3.626   3.148  0.1701 -2.8360 -1.5779
  892MOL0     H20394   1.325   3.362   3.290 -0.4992 -2.3117 -0.8020
  892MOL0     H20395   1.186   3.428   3.192  0.8541  3.1494  1.4011
  892MOL0     H20396   1.470   3.323   3.114  0.3822 -0.4812 -1.1362
  892MOL0     H20397   1.378   3.427   3.010 -0.9088  0.1347 -0.3164
  892MOL0     H20398   1.191   3.238   3.028 -0.7880 -0.0269  0.9228
  892MOL0     H20399   1.354   3.189   2.976  0.4799  2.2865 -0.8284
  892MOL0     H20400   1.564   4.149   3.654  0.6670 -0.0397  0.6534
  892MOL0     H20401   1.616   4.347   3.764 -0.8024  0.7338 -2.8155
  892MOL0     H20402   1.382   4.675   4.042  0.2669 -1.5898 -2.4365
  892MOL0     H20403   1.346   4.912   4.119  1.4033  0.4043  1.9919
  892MOL0     H20404   0.670   6.721   4.601 -0.0663 -2.6623 -0.9153
  892MOL0     H20405   0.447   6.821   4.606  1.5812 -2.4269 -3.2448
  892MOL0     H20406   0.016   6.729   4.831  3.0385 -0.9657 -3.0961
  892MOL0     H20407  -0.197   6.733   4.918 -0.8140 -4.0996  1.5792
  892MOL0     H20408  -0.574   6.749   4.864  0.7524  0.2723 -1.2659
  892MOL0     H20409  -0.420   6.811   4.915  1.0639 -2.1443  2.3802
  892MOL0     H20410  -0.505   6.642   5.073  1.7760  1.1617  1.1132
  892MOL0     H20411  -0.362   6.581   5.011 -1.1443 -2.5184  3.1158
  892MOL0     H20412  -0.518   6.457   4.823  1.8300 -2.3625  0.5213
  892MOL0     H20413  -0.643   6.517   4.926  0.3023  2.4686  0.8211
  892MOL0     H20414  -0.419   6.344   5.039  1.4489 -0.4549 -2.7974
  892MOL0     H20415  -0.588   6.340   5.086  1.5716 -4.2643  1.0297
  892MOL0     H20416  -0.596   6.065   4.772  1.3547 -0.1932  0.3966
  892MOL0     H20417  -0.355   6.574   4.544 -1.3655  0.7834  1.3098
  892MOL0     H20418  -0.070   6.602   4.361 -2.9777  1.5162  1.4003
  892MOL0     H20419  -0.021   6.444   4.440 -0.3462 -1.3167 -0.9040
  892MOL0     H20420  -0.194   6.474   4.388 -1.4401  3.3772  0.6729
  893MOL0     O20421  10.777   3.192   6.732 -0.4085 -0.6805 -0.0085
  893MOL0     C20422  10.852   3.231   6.813 -0.0976  0.8666  1.0253
  893MOL0     O20423  10.983   3.247   6.793 -0.5073  0.3012  0.1258
  893MOL0     C20424  11.041   3.239   6.676  0.1823  0.5683  0.6563
  893MOL0     C20425  11.001   3.183   6.554 -0.2382 -0.6899 -0.1812
  893MOL0     C20426  11.088   3.182   6.451  0.4543 -0.2074 -0.2014
  893MOL0     C20427  11.214   3.243   6.450  0.0376 -0.4383 -0.6691
  893MOL0     O20428  11.289   3.229   6.339  0.0243  0.5398 -0.3353
  893MOL0     C20429  11.436   3.246   6.338 -0.9760 -0.0901  0.2255
  893MOL0     C20430  11.487   3.247   6.188 -0.2556  0.3626  0.7095
  893MOL0     C20431  11.442   3.368   6.107 -0.0464  0.2848  0.5408
  893MOL0     C20432  11.413   3.331   5.962 -0.5668 -0.3689  0.3349
  893MOL0     C20433  11.287   3.254   5.943  0.1476  0.7759 -0.5414
  893MOL0     C20434  11.148   3.321   5.973 -0.1217  0.5695  0.3656
  893MOL0     C20435  11.023   3.245   5.911 -0.3631  1.0986 -0.6088
  893MOL0     C20436  10.896   3.322   5.947 -0.5400  0.1455  0.1476
  893MOL0     N20437  10.842   3.306   6.085 -0.0855 -0.6515 -0.7370
  893MOL0     C20438  10.822   3.189   6.161  1.0150  0.6390  0.7460
  893MOL0     C20439  10.755   3.230   6.271  0.7977 -0.1527 -0.6851
  893MOL0     C20440  10.685   3.149   6.376  0.7226 -0.7431  0.5672
  893MOL0     C20441  10.711   2.998   6.351  0.6169  0.5212  0.4904
  893MOL0     C20442  10.654   2.908   6.461  0.4127 -0.6301  0.3110
  893MOL0     C20443  10.504   2.906   6.446  0.2374 -0.9269  0.4335
  893MOL0     O20444  10.456   2.794   6.514  0.0597 -0.2608 -0.4294
  893MOL0     C20445  10.330   2.806   6.566  1.1798 -0.0826  0.7811
  893MOL0     C20446  10.287   2.687   6.630  0.6559  0.6468 -0.9429
  893MOL0     C20447  10.159   2.680   6.689  0.0249 -0.1486  0.3520
  893MOL0     C20448  10.067   2.787   6.679  0.3527 -0.5259 -0.0738
  893MOL0     C20449   9.928   2.785   6.737 -0.5728 -0.9285 -0.6551
  893MOL0     O20450   9.893   2.672   6.797  0.0143 -0.9041  0.0477
  893MOL0     C20451   9.756   2.625   6.807  0.2196 -0.5558 -0.3582
  893MOL0     C20452   9.721   2.517   6.883 -0.0220 -0.4048  0.3123
  893MOL0     C20453   9.598   2.453   6.879 -0.7909 -0.2775 -1.2183
  893MOL0     C20454   9.495   2.502   6.804  0.1002  0.2706  0.9296
  893MOL0     O20455   9.366   2.441   6.805 -0.3422  0.4411 -0.0696
  893MOL0     C20456   9.283   2.445   6.685 -0.3507 -0.5312 -0.9507
  893MOL0     C20457   9.180   2.326   6.703 -0.5556 -0.2671  0.0453
  893MOL0     C20458   9.239   2.184   6.679  0.2737  0.3368 -0.3832
  893MOL0     C20459   9.133   2.085   6.727 -0.7683  0.1885 -0.8262
  893MOL0     C20460   9.184   1.940   6.716  0.1946 -0.8517 -0.0688
  893MOL0     C20461   9.204   1.898   6.571  1.6351  0.7276  0.1701
  893MOL0     C20462   9.066   1.906   6.500  0.3395  0.0166  0.7856
  893MOL0     C20463   9.083   1.819   6.377  0.1428 -0.4452  0.0683
  893MOL0    Cl20464   9.233   1.875   6.280  0.2798  0.2162  0.2296
  893MOL0     C20465   9.536   2.610   6.720  0.2313 -0.3668 -0.4684
  893MOL0     C20466   9.662   2.673   6.720  0.2774  0.5197  1.0886
  893MOL0     O20467   9.870   2.892   6.740  0.0515 -0.1294 -0.2187
  893MOL0     C20468  10.109   2.904   6.600  0.3198  1.1342  0.6698
  893MOL0     C20469  10.232   2.904   6.533  0.5877  0.5918  0.1202
  893MOL0     N20470  10.752   3.367   6.268  0.0951 -0.1533 -0.7263
  893MOL0     N20471  10.792   3.412   6.157 -0.9429  0.4871 -0.0948
  893MOL0     C20472  11.250   3.309   6.574  0.2254  0.0714  0.1076
  893MOL0     C20473  11.163   3.302   6.681  0.6872  0.4008  0.4470
  893MOL0     C20474  10.799   3.253   6.953  0.2470 -1.0312  0.5176
  893MOL0     C20475  10.661   3.281   6.966  0.2532  0.1688 -0.1569
  893MOL0     C20476  10.596   3.302   7.084 -0.6666 -0.0740  0.1013
  893MOL0     C20477  10.683   3.308   7.197  0.6561  0.7604  1.1781
  893MOL0     O20478  10.625   3.308   7.320 -0.5769  0.1744  0.4435
  893MOL0     C20479  10.678   3.214   7.417 -0.4579 -0.5820  0.3183
  893MOL0     C20480  10.649   3.064   7.371  0.4450 -1.1547  0.3467
  893MOL0     C20481  10.610   2.953   7.477 -0.2232  0.2291  0.3415
  893MOL0     C20482  10.729   2.942   7.573  0.5285 -0.1100  0.1348
  893MOL0     C20483  10.852   2.885   7.507  0.1359 -0.3252 -0.0171
  893MOL0     C20484  10.952   2.845   7.449  1.2056 -0.5545  0.8162
  893MOL0     C20485  10.824   3.278   7.190  0.8958 -1.0364 -0.8102
  893MOL0     C20486  10.884   3.254   7.068  0.4241 -0.0316 -0.0673
  893MOL0     C20487  11.026   3.193   7.071 -0.5847  0.4979  0.2954
  893MOL0     H20488  10.902   3.141   6.550 -1.0895  1.1629  0.3097
  893MOL0     H20489  11.057   3.129   6.361 -0.9077 -1.0489  0.7427
  893MOL0     H20490  11.474   3.336   6.386  0.1089 -0.4733  0.1089
  893MOL0     H20491  11.476   3.160   6.392 -1.2171  0.4235  1.2456
  893MOL0     H20492  11.443   3.154   6.152 -1.0486  1.0846 -0.2694
  893MOL0     H20493  11.594   3.233   6.176 -0.5334 -2.2875  0.8771
  893MOL0     H20494  11.519   3.446   6.109  3.5579 -3.0018  0.3133
  893MOL0     H20495  11.347   3.411   6.139 -1.8126  0.8145 -4.5835
  893MOL0     H20496  11.390   3.423   5.908  0.5928 -0.8685 -1.0622
  893MOL0     H20497  11.493   3.275   5.914  0.1446 -1.7246  2.9347
  893MOL0     H20498  11.286   3.243   5.834 -1.5585 -0.2461 -0.4636
  893MOL0     H20499  11.291   3.156   5.991 -1.4236  1.5329  1.2628
  893MOL0     H20500  11.124   3.338   6.078 -1.6381 -1.0605  0.3178
  893MOL0     H20501  11.163   3.421   5.930  3.1876 -0.8531 -2.2491
  893MOL0     H20502  11.019   3.146   5.957  0.3228  1.6936  0.7720
  893MOL0     H20503  11.027   3.221   5.804 -2.4151  0.8825 -0.6822
  893MOL0     H20504  10.920   3.425   5.917  2.1313 -0.6294 -0.5823
  893MOL0     H20505  10.815   3.292   5.880  0.4495 -0.7785 -0.6584
  893MOL0     H20506  10.844   3.086   6.135  0.2465  0.7835 -0.5322
  893MOL0     H20507  10.717   3.178   6.476 -4.7117 -0.0791  2.4715
  893MOL0     H20508  10.578   3.171   6.379  1.1715  1.5853  1.5848
  893MOL0     H20509  10.680   2.957   6.254  0.3194  1.0021  0.3833
  893MOL0     H20510  10.818   2.977   6.361  0.6508 -0.6450 -1.6774
  893MOL0     H20511  10.678   2.956   6.556 -2.3455 -0.3056  0.9321
  893MOL0     H20512  10.695   2.807   6.452  2.2873  0.0949  0.2840
  893MOL0     H20513  10.467   2.886   6.345 -1.2367  2.9865  0.0449
  893MOL0     H20514  10.480   3.009   6.474 -0.7219 -0.4523 -1.9108
  893MOL0     H20515  10.346   2.595   6.628  1.0918  0.8721 -4.6243
  893MOL0     H20516  10.127   2.581   6.719  1.6261 -1.6638 -2.4797
  893MOL0     H20517   9.799   2.467   6.941  3.1210  0.6201 -2.6575
  893MOL0     H20518   9.576   2.376   6.952  0.5575  1.8888  1.6442
  893MOL0     H20519   9.238   2.545   6.673 -0.8396 -0.1856  2.7302
  893MOL0     H20520   9.347   2.430   6.598 -0.7467 -3.3604 -0.8240
  893MOL0     H20521   9.129   2.333   6.800  0.4171 -0.8750  0.6128
  893MOL0     H20522   9.097   2.343   6.633  1.3747 -0.0440 -2.3247
  893MOL0     H20523   9.251   2.176   6.570 -2.4161  2.3591 -0.9259
  893MOL0     H20524   9.336   2.159   6.723  0.9090  2.2269 -0.6471
  893MOL0     H20525   9.033   2.098   6.685 -2.7567  1.4444  3.6357
  893MOL0     H20526   9.112   2.102   6.833  0.8848 -0.3919 -0.3718
  893MOL0     H20527   9.115   1.862   6.750 -1.0154 -0.7879 -2.2105
  893MOL0     H20528   9.278   1.911   6.764  0.4632 -3.6429 -2.0227
  893MOL0     H20529   9.290   1.940   6.518  1.0391  2.1203  0.2452
  893MOL0     H20530   9.219   1.790   6.574 -1.4303  0.1577 -1.0086
  893MOL0     H20531   9.042   2.006   6.463  1.9222 -0.1838 -0.9286
  893MOL0     H20532   8.982   1.864   6.555 -0.6875  0.5923 -0.3026
  893MOL0     H20533   9.087   1.714   6.405  0.5601 -0.8917 -1.5765
  893MOL0     H20534   8.993   1.834   6.317 -1.1159 -1.3411  1.6460
  893MOL0     H20535   9.468   2.638   6.641  1.2133 -1.1842 -1.6504
  893MOL0     H20536   9.679   2.751   6.646  0.0439  1.0168  1.5498
  893MOL0     H20537  10.030   2.970   6.566  0.7328  0.9672 -0.6939
  893MOL0     H20538  10.248   2.994   6.474  1.1897  0.6086  0.3077
  893MOL0     H20539  11.348   3.344   6.605  0.9012 -0.1734 -1.6326
  893MOL0     H20540  11.195   3.323   6.783 -0.1529  2.7330  0.2783
  893MOL0     H20541  10.597   3.291   6.879  0.0830 -1.5189 -0.2572
  893MOL0     H20542  10.490   3.323   7.093 -1.2343 -1.9240 -1.4938
  893MOL0     H20543  10.632   3.223   7.516 -0.3923 -2.6297  0.5959
  893MOL0     H20544  10.782   3.233   7.444 -0.3761  2.9165 -1.9074
  893MOL0     H20545  10.733   3.034   7.307  0.4822 -1.1333  0.3852
  893MOL0     H20546  10.561   3.064   7.306  0.7066 -1.0494 -0.0062
  893MOL0     H20547  10.589   2.861   7.421  2.6750  0.9629 -2.2953
  893MOL0     H20548  10.522   2.987   7.531 -0.9214 -0.1238 -0.5389
  893MOL0     H20549  10.747   3.034   7.630  0.7844 -0.4393  0.5920
  893MOL0     H20550  10.701   2.867   7.647  1.8493 -1.2975 -0.5237
  893MOL0     H20551  11.041   2.803   7.408  1.6579  1.4677 -0.4359
  893MOL0     H20552  10.879   3.275   7.284 -1.8534 -1.2333  0.9204
  893MOL0     H20553  11.102   3.250   7.018 -1.6528  1.0360 -0.7069
  893MOL0     H20554  11.058   3.180   7.175  0.2704 -3.4118 -0.2819
  893MOL0     H20555  11.026   3.093   7.027  1.3926  0.4636  0.3063
  894MOL0     O20556   0.404   9.034   5.638 -0.4635  0.4887 -0.1816
  894MOL0     C20557   0.400   9.155   5.650  0.4699  0.2598 -0.2325
  894MOL0     O20558   0.286   9.239   5.680 -0.3834  0.5787  0.2116
  894MOL0     C20559   0.158   9.194   5.668  0.4518  0.3985  0.6843
  894MOL0     C20560   0.129   9.100   5.569  1.1061  0.6213 -0.3953
  894MOL0     C20561  -0.009   9.074   5.552 -0.8041 -0.5311 -0.4396
  894MOL0     C20562  -0.107   9.139   5.624 -0.2944 -0.2709 -0.0316
  894MOL0     O20563  -0.241   9.109   5.601 -0.0368 -0.1521  1.3016
  894MOL0     C20564  -0.293   9.011   5.696 -0.4970 -0.5099 -0.5728
  894MOL0     C20565  -0.297   8.868   5.646 -0.3280 -0.5712 -0.7939
  894MOL0     C20566  -0.409   8.847   5.549  0.0655 -0.7091 -0.0937
  894MOL0     C20567  -0.400   8.709   5.485  0.5835  0.0216 -0.2198
  894MOL0     C20568  -0.533   8.627   5.494 -0.6903 -0.4983  1.4128
  894MOL0     C20569  -0.503   8.480   5.444 -0.2833  0.3021  0.6622
  894MOL0     C20570  -0.626   8.396   5.454  0.3320  0.5513 -0.3466
  894MOL0     C20571  -0.581   8.255   5.437 -0.4865  1.0706  0.0253
  894MOL0     N20572  -0.699   8.169   5.407  0.4212  0.1530  0.1104
  894MOL0     C20573  -0.770   8.103   5.508  0.1393 -0.5261  0.1652
  894MOL0     C20574  -0.822   7.989   5.441 -0.1277 -0.3537  0.0064
  894MOL0     C20575  -0.877   7.869   5.509  0.1997  0.7787 -0.4091
  894MOL0     C20576  -0.994   7.908   5.596  0.0364 -0.0188 -0.7924
  894MOL0     C20577  -1.038   7.807   5.704 -0.8482  0.3733 -0.4724
  894MOL0     C20578  -1.046   7.657   5.669  1.0705  0.5875  0.7755
  894MOL0     O20579  -1.094   7.590   5.787  0.5170  0.7807 -0.1882
  894MOL0     C20580  -1.135   7.457   5.760 -0.5096  0.4195  0.6272
  894MOL0     C20581  -1.182   7.375   5.863 -0.6023  0.6691 -0.3874
  894MOL0     C20582  -1.226   7.242   5.847  0.4451 -0.5361  0.3721
  894MOL0     C20583  -1.200   7.193   5.722 -1.0863 -0.0178  0.2306
  894MOL0     C20584  -1.229   7.051   5.698  0.7587 -0.5867 -0.9535
  894MOL0     O20585  -1.222   6.969   5.808 -0.4511 -0.6490 -0.0780
  894MOL0     C20586  -1.253   6.835   5.788  0.4336 -0.4464 -0.5740
  894MOL0     C20587  -1.379   6.793   5.820 -0.3095 -0.5342 -0.3499
  894MOL0     C20588  -1.415   6.664   5.796  0.0094  0.1378 -0.5164
  894MOL0     C20589  -1.321   6.572   5.754  0.0868 -0.1205  0.4867
  894MOL0     O20590  -1.376   6.448   5.745 -0.1580  0.2828 -0.3453
  894MOL0     C20591  -1.283   6.341   5.782  0.7126  0.1705 -0.2886
  894MOL0     C20592  -1.348   6.206   5.744  0.3973 -0.4173  0.0198
  894MOL0     C20593  -1.458   6.161   5.840 -0.6193  0.6651 -0.7454
  894MOL0     C20594  -1.401   6.147   5.986  0.3972  0.7501 -0.5875
  894MOL0     C20595  -1.489   6.052   6.065  0.3382  1.4736 -0.0236
  894MOL0     C20596  -1.465   6.037   6.212  0.2101 -0.2421 -0.1495
  894MOL0     C20597  -1.325   5.996   6.243 -0.0483 -0.0962  0.3103
  894MOL0     C20598  -1.311   5.988   6.402 -0.5099  0.0903 -0.4660
  894MOL0    Cl20599  -1.310   6.160   6.453  0.2455 -0.3331 -0.0278
  894MOL0     C20600  -1.184   6.614   5.722  0.1845  0.7551 -0.8254
  894MOL0     C20601  -1.157   6.748   5.740 -0.7444 -0.3270  0.2743
  894MOL0     O20602  -1.258   7.017   5.586 -0.8886 -0.5903  0.4625
  894MOL0     C20603  -1.146   7.268   5.618  0.6879 -0.3384 -0.9629
  894MOL0     C20604  -1.110   7.396   5.640  0.5359  1.3858 -0.0140
  894MOL0     N20605  -0.805   8.001   5.310  0.4473  0.1834 -0.3034
  894MOL0     N20606  -0.727   8.099   5.289 -0.5571 -0.6745 -0.1967
  894MOL0     C20607  -0.066   9.232   5.718 -0.9484  0.1016 -1.3126
  894MOL0     C20608   0.063   9.262   5.746 -0.3905  0.5864 -0.6841
  894MOL0     C20609   0.535   9.214   5.677  0.2310 -0.4447 -0.1609
  894MOL0     C20610   0.553   9.304   5.787 -0.3657  0.3581 -0.4576
  894MOL0     C20611   0.683   9.333   5.834  0.0464 -0.5032 -0.4953
  894MOL0     C20612   0.793   9.278   5.774  0.9466  0.6240 -0.0798
  894MOL0     O20613   0.921   9.297   5.811 -0.5900  0.4605 -0.1319
  894MOL0     C20614   0.958   9.345   5.942 -0.9817  0.2859  0.2704
  894MOL0     C20615   1.110   9.344   5.951  0.0289  0.0617 -0.6711
  894MOL0     C20616   1.159   9.358   6.093  0.3973 -0.9372 -0.4060
  894MOL0     C20617   1.319   9.348   6.087  0.2486  0.0996  0.9141
  894MOL0     C20618   1.369   9.374   6.225 -0.8942  1.5721 -0.1400
  894MOL0     C20619   1.409   9.379   6.338 -0.1834  0.0851 -0.0960
  894MOL0     C20620   0.770   9.194   5.672 -0.6985  0.2927  0.0758
  894MOL0     C20621   0.649   9.162   5.617 -0.0195 -0.6942  0.1704
  894MOL0     C20622   0.655   9.063   5.495 -0.8500  0.4573 -0.9540
  894MOL0     H20623   0.199   9.056   5.498 -3.0520  1.0529 -5.4210
  894MOL0     H20624  -0.044   9.011   5.471 -1.9930 -1.6503  0.8688
  894MOL0     H20625  -0.229   9.017   5.784  1.6712 -0.5600 -2.0745
  894MOL0     H20626  -0.397   9.030   5.725 -0.1873 -1.1792  1.0805
  894MOL0     H20627  -0.293   8.804   5.735 -0.6106  1.8791  1.0752
  894MOL0     H20628  -0.201   8.857   5.596 -1.0690 -1.3516 -2.0984
  894MOL0     H20629  -0.416   8.925   5.472  0.6004 -1.0558 -0.5044
  894MOL0     H20630  -0.505   8.839   5.600  0.2904 -2.6678  0.1012
  894MOL0     H20631  -0.374   8.704   5.379 -2.6623 -3.5639 -1.0600
  894MOL0     H20632  -0.326   8.653   5.542  0.0629  1.4516  1.9847
  894MOL0     H20633  -0.571   8.627   5.597 -2.9838  1.3746  0.6478
  894MOL0     H20634  -0.613   8.679   5.441  0.1196 -1.3091 -0.6901
  894MOL0     H20635  -0.464   8.483   5.342 -0.8767  2.0574  0.4426
  894MOL0     H20636  -0.435   8.437   5.517 -1.3801 -0.7010  1.1304
  894MOL0     H20637  -0.694   8.430   5.375 -0.5229 -1.0664 -0.3460
  894MOL0     H20638  -0.675   8.399   5.552 -0.8380 -0.2175 -0.8856
  894MOL0     H20639  -0.504   8.236   5.361  0.3582 -1.4213  1.3597
  894MOL0     H20640  -0.538   8.227   5.533  1.3740  0.6578 -0.8749
  894MOL0     H20641  -0.771   8.130   5.613 -0.4517 -1.4284  0.4003
  894MOL0     H20642  -0.910   7.816   5.420 -1.6139  2.8910 -1.0953
  894MOL0     H20643  -0.802   7.814   5.567 -0.9341 -0.8808 -0.4580
  894MOL0     H20644  -0.968   7.995   5.657 -1.0475 -0.6252  0.5753
  894MOL0     H20645  -1.077   7.917   5.526  1.2017 -1.4073 -2.4429
  894MOL0     H20646  -1.135   7.842   5.740  0.4349  1.5062  2.1047
  894MOL0     H20647  -0.961   7.815   5.780 -0.4784  2.5089 -1.0137
  894MOL0     H20648  -0.946   7.621   5.646  1.1063 -0.7626  2.7374
  894MOL0     H20649  -1.110   7.647   5.581  1.2546  2.9551  0.2934
  894MOL0     H20650  -1.186   7.425   5.959 -2.3704 -0.8007  0.3645
  894MOL0     H20651  -1.289   7.192   5.919 -1.6540  0.9706 -0.3019
  894MOL0     H20652  -1.452   6.862   5.862  0.1886 -1.4342  2.1260
  894MOL0     H20653  -1.521   6.646   5.813 -0.7420  3.6772 -0.6309
  894MOL0     H20654  -1.185   6.359   5.737  2.2807 -1.9266  2.0671
  894MOL0     H20655  -1.267   6.341   5.890 -2.6135 -3.5119  0.4349
  894MOL0     H20656  -1.391   6.204   5.644 -2.4971 -1.1731  1.1704
  894MOL0     H20657  -1.265   6.134   5.739  0.6818 -0.0210 -1.5599
  894MOL0     H20658  -1.537   6.237   5.844 -0.1150  1.1917 -0.6115
  894MOL0     H20659  -1.503   6.066   5.811 -2.3354  0.9821  0.6999
  894MOL0     H20660  -1.395   6.242   6.040 -1.2104  1.2387 -1.2014
  894MOL0     H20661  -1.301   6.105   5.995  0.6836  1.4016 -0.6600
  894MOL0     H20662  -1.476   5.957   6.013 -2.1695  0.4551  1.0744
  894MOL0     H20663  -1.593   6.082   6.054  0.3203  1.2647 -0.4566
  894MOL0     H20664  -1.496   6.125   6.270 -3.0501 -0.5552 -1.2059
  894MOL0     H20665  -1.524   5.952   6.249 -0.1527 -0.4538 -1.1761
  894MOL0     H20666  -1.241   6.050   6.198 -0.3081  0.9535  1.0402
  894MOL0     H20667  -1.326   5.897   6.196 -0.7889  0.3286 -0.6153
  894MOL0     H20668  -1.399   5.941   6.446 -0.0726  1.2350  1.7149
  894MOL0     H20669  -1.226   5.926   6.432 -1.7552 -1.5992 -0.2699
  894MOL0     H20670  -1.110   6.549   5.676  2.4525  2.4877  0.2017
  894MOL0     H20671  -1.064   6.795   5.708 -1.6422  1.1961 -0.2112
  894MOL0     H20672  -1.125   7.222   5.522 -0.9067 -1.6289 -0.7530
  894MOL0     H20673  -1.062   7.444   5.556 -0.2559 -1.7870 -2.4887
  894MOL0     H20674  -0.144   9.285   5.772 -1.1459  0.8638 -2.2914
  894MOL0     H20675   0.092   9.347   5.806 -0.6446  0.1660  0.0538
  894MOL0     H20676   0.465   9.353   5.826  0.3097 -0.8768  2.9060
  894MOL0     H20677   0.685   9.404   5.916  0.0105 -2.6736  1.4917
  894MOL0     H20678   0.915   9.290   6.026 -2.5527  1.4516  0.2748
  894MOL0     H20679   0.924   9.448   5.953  0.1763  0.4651  2.9159
  894MOL0     H20680   1.143   9.429   5.891 -0.0171 -0.6036 -1.6565
  894MOL0     H20681   1.147   9.248   5.914 -2.0526 -2.2149  2.5914
  894MOL0     H20682   1.115   9.281   6.157 -1.0607  1.3949  1.5733
  894MOL0     H20683   1.130   9.456   6.131  0.2076 -1.2105  0.1701
  894MOL0     H20684   1.343   9.249   6.046 -0.7543  1.2364 -2.8456
  894MOL0     H20685   1.361   9.418   6.014  2.6628 -1.2146  0.9534
  894MOL0     H20686   1.451   9.388   6.436  1.6514 -1.2601 -0.7014
  894MOL0     H20687   0.854   9.132   5.641 -1.4658 -1.2763  0.9835
  894MOL0     H20688   0.621   8.964   5.528  1.6856 -0.3033 -0.4241
  894MOL0     H20689   0.581   9.099   5.422 -2.2421 -1.0878 -0.3796
  894MOL0     H20690   0.757   9.047   5.461  0.1614  0.9351  1.5978
  895MOL0     O20691   5.957   5.281  10.603  0.8056  0.1166 -0.1136
  895MOL0     C20692   6.071   5.314  10.614  0.5269 -1.2727  0.4344
  895MOL0     O20693   6.121   5.448  10.612 -0.2970 -0.2389  0.8266
  895MOL0     C20694   6.025   5.541  10.574  0.0920 -0.3661 -0.0896
  895MOL0     C20695   5.964   5.617  10.679 -0.3240  0.7473  0.4593
  895MOL0     C20696   5.860   5.710  10.657  0.1595 -0.3377  0.0149
  895MOL0     C20697   5.808   5.730  10.528  0.6081  0.5295  0.6307
  895MOL0     O20698   5.702   5.818  10.514 -0.8898 -0.6103 -0.0678
  895MOL0     C20699   5.596   5.764  10.437 -0.5789  0.1207 -0.5296
  895MOL0     C20700   5.478   5.861  10.435  0.3067 -0.8910  0.5493
  895MOL0     C20701   5.500   5.967  10.319 -0.3867  0.3590  0.4726
  895MOL0     C20702   5.479   6.111  10.376  0.1312  0.3497 -0.9261
  895MOL0     C20703   5.505   6.222  10.268  0.0174 -0.2276 -0.2423
  895MOL0     C20704   5.401   6.240  10.160 -0.1197  0.1176 -1.1623
  895MOL0     C20705   5.428   6.378  10.100 -0.6025  0.4761  0.4734
  895MOL0     C20706   5.345   6.397   9.971 -0.9317 -0.5834  0.0413
  895MOL0     N20707   5.370   6.285   9.868  0.3937 -0.2499 -0.2714
  895MOL0     C20708   5.277   6.189   9.824 -0.5305 -0.3173 -0.9055
  895MOL0     C20709   5.353   6.094   9.762  0.5778 -0.1234  0.1025
  895MOL0     C20710   5.298   5.972   9.693 -0.2062 -0.7040 -0.0947
  895MOL0     C20711   5.246   6.002   9.554 -0.7004  1.1095 -0.4833
  895MOL0     C20712   5.206   5.879   9.473  0.0283  0.3897  0.3352
  895MOL0     C20713   5.129   5.918   9.348  0.5661  0.2786 -0.7267
  895MOL0     O20714   5.209   5.953   9.232  0.1615  0.1257  0.3110
  895MOL0     C20715   5.309   5.867   9.191 -0.4724  0.3704  0.0922
  895MOL0     C20716   5.433   5.905   9.207 -0.2994 -0.3934  0.2545
  895MOL0     C20717   5.528   5.829   9.133  0.8679 -0.3820 -0.7060
  895MOL0     C20718   5.500   5.721   9.057 -0.1552  0.5870  0.4301
  895MOL0     C20719   5.601   5.648   8.993 -0.8875  0.2628 -0.1782
  895MOL0     O20720   5.721   5.694   9.014 -0.9902 -0.1001  0.0014
  895MOL0     C20721   5.829   5.626   8.973 -0.0190  0.4859 -0.4025
  895MOL0     C20722   5.845   5.488   8.982 -0.0949 -0.5152  0.3242
  895MOL0     C20723   5.961   5.428   8.930 -0.7334  0.1296 -0.1028
  895MOL0     C20724   6.058   5.489   8.865 -0.4815  0.2399 -0.0071
  895MOL0     O20725   6.156   5.410   8.818  0.3067  1.1916  0.0013
  895MOL0     C20726   6.243   5.464   8.717 -0.9690  0.1738  0.5556
  895MOL0     C20727   6.288   5.348   8.635  0.9176  0.1493 -1.1031
  895MOL0     C20728   6.212   5.325   8.503  0.1208 -0.5368 -0.0470
  895MOL0     C20729   6.281   5.216   8.433 -1.6506  0.5510 -0.5852
  895MOL0     C20730   6.221   5.209   8.296 -0.1216 -0.4085  0.1629
  895MOL0     C20731   6.311   5.114   8.199  0.5232 -0.6631  0.1360
  895MOL0     C20732   6.328   4.967   8.250 -0.1648 -0.2701  0.0564
  895MOL0     C20733   6.446   4.902   8.181 -0.0983  0.6115  0.2510
  895MOL0    Cl20734   6.406   4.878   8.002  0.1425  0.1388  0.3399
  895MOL0     C20735   6.056   5.626   8.863  0.6235 -0.2227 -0.6323
  895MOL0     C20736   5.937   5.694   8.914  0.1329  0.2214 -0.0427
  895MOL0     O20737   5.569   5.544   8.929 -0.5382  0.0309 -0.2829
  895MOL0     C20738   5.365   5.687   9.038 -0.0076  0.7146 -0.4589
  895MOL0     C20739   5.265   5.764   9.096 -0.7295 -0.4656  0.1518
  895MOL0     N20740   5.482   6.131   9.778 -0.4233 -0.5147  0.5956
  895MOL0     N20741   5.497   6.250   9.830  0.1648  0.0944 -0.3687
  895MOL0     C20742   5.874   5.656  10.425 -0.3094  0.2390  0.1115
  895MOL0     C20743   5.977   5.562  10.446  0.0815 -0.2437  0.2105
  895MOL0     C20744   6.174   5.210  10.638 -0.7151 -0.2356  0.0860
  895MOL0     C20745   6.291   5.252  10.706 -0.4085  1.0412 -1.0993
  895MOL0     C20746   6.402   5.170  10.732  0.1722  1.5332  0.2126
  895MOL0     C20747   6.391   5.031  10.705 -1.0161 -0.3619 -0.9490
  895MOL0     O20748   6.489   4.933  10.716  0.3855 -0.5063  0.4457
  895MOL0     C20749   6.546   4.897  10.585 -0.0170 -0.8940 -1.0634
  895MOL0     C20750   6.643   5.005  10.542  0.6450  0.4069  0.0709
  895MOL0     C20751   6.770   4.986  10.629  0.1783  0.3500  0.5450
  895MOL0     C20752   6.870   5.104  10.621 -0.0322 -0.2900  0.5963
  895MOL0     C20753   7.014   5.071  10.613  0.2480 -0.3400 -0.6673
  895MOL0     C20754   7.136   5.040  10.603  0.5923  0.2763  0.2550
  895MOL0     C20755   6.266   4.988  10.652  0.0855 -0.4533  0.0904
  895MOL0     C20756   6.157   5.077  10.619 -0.2882 -0.9068  0.0541
  895MOL0     C20757   6.036   5.016  10.554 -0.8417  0.0009 -0.4290
  895MOL0     H20758   5.998   5.605  10.782  0.7282 -1.1212 -0.0637
  895MOL0     H20759   5.809   5.765  10.735 -0.9467 -1.3855  0.0457
  895MOL0     H20760   5.621   5.724  10.338 -0.5762 -2.5813  0.4842
  895MOL0     H20761   5.557   5.680  10.495  0.9705  1.5899  2.9033
  895MOL0     H20762   5.460   5.907  10.533 -1.0723  0.4636 -0.3020
  895MOL0     H20763   5.397   5.797  10.400  0.7167 -2.3705  2.1941
  895MOL0     H20764   5.444   5.956  10.226  2.9731  1.6716 -1.8853
  895MOL0     H20765   5.603   5.961  10.285  0.4115 -0.4781  2.8066
  895MOL0     H20766   5.382   6.124  10.425 -0.6045 -2.4390 -1.4762
  895MOL0     H20767   5.560   6.127  10.448  1.1947  1.5560 -2.3156
  895MOL0     H20768   5.538   6.316  10.313 -0.6286 -0.1420  0.0625
  895MOL0     H20769   5.586   6.183  10.207 -0.4542 -1.5896 -0.0259
  895MOL0     H20770   5.398   6.162  10.083 -0.4810  1.8479 -3.0003
  895MOL0     H20771   5.300   6.247  10.201  0.2014  0.2938 -0.3890
  895MOL0     H20772   5.534   6.388  10.072 -0.7952  0.7282 -0.1680
  895MOL0     H20773   5.400   6.460  10.166  1.6379  2.6479 -1.0503
  895MOL0     H20774   5.236   6.400   9.985 -1.0314 -1.2223 -0.5062
  895MOL0     H20775   5.372   6.498   9.940 -3.6777  0.6085  1.1912
  895MOL0     H20776   5.171   6.179   9.842 -0.2828 -1.2062  0.2538
  895MOL0     H20777   5.379   5.900   9.704  0.0880 -0.2279  0.9075
  895MOL0     H20778   5.216   5.945   9.761  1.4129 -1.1024  1.7809
  895MOL0     H20779   5.162   6.071   9.568  0.1335  2.4022 -1.5882
  895MOL0     H20780   5.321   6.054   9.494  1.5910 -1.6599 -0.2071
  895MOL0     H20781   5.132   5.837   9.541 -3.2048  0.5397 -2.7653
  895MOL0     H20782   5.289   5.815   9.442  0.4272  1.4885 -0.9586
  895MOL0     H20783   5.056   5.997   9.370 -1.6597 -2.1362  1.1610
  895MOL0     H20784   5.078   5.824   9.323  0.8731 -0.6153  1.7341
  895MOL0     H20785   5.448   5.986   9.277  0.1596 -2.9192  3.3123
  895MOL0     H20786   5.627   5.873   9.139  0.3735  0.5868  0.6307
  895MOL0     H20787   5.778   5.425   9.039  2.1935  0.6440  4.7440
  895MOL0     H20788   5.962   5.320   8.934  2.2113 -0.0365 -1.9210
  895MOL0     H20789   6.198   5.539   8.652 -1.7955 -0.9623 -0.2062
  895MOL0     H20790   6.331   5.517   8.755  0.5458 -0.4016 -1.8966
  895MOL0     H20791   6.395   5.359   8.615  0.4592  1.9491 -2.8667
  895MOL0     H20792   6.280   5.257   8.695  1.5413  1.5235  1.1767
  895MOL0     H20793   6.105   5.303   8.514  0.4191 -0.7489  3.2530
  895MOL0     H20794   6.231   5.408   8.435 -2.4892 -0.2482 -0.5271
  895MOL0     H20795   6.275   5.128   8.498  1.8390  2.3215  2.4858
  895MOL0     H20796   6.385   5.247   8.419 -1.6143  0.0249 -1.5589
  895MOL0     H20797   6.225   5.310   8.255 -0.3275  0.0524  1.2351
  895MOL0     H20798   6.121   5.167   8.284  1.5451 -4.2785 -2.1354
  895MOL0     H20799   6.262   5.111   8.101 -2.8298  1.4333  1.6072
  895MOL0     H20800   6.413   5.153   8.197  0.9028 -1.3894  2.3565
  895MOL0     H20801   6.243   4.905   8.221  0.2466 -0.1610 -1.5060
  895MOL0     H20802   6.340   4.966   8.358 -1.5539  1.1752  0.2665
  895MOL0     H20803   6.533   4.963   8.203 -0.3022  0.8398  0.4370
  895MOL0     H20804   6.464   4.803   8.224  0.8952  0.2809 -0.8806
  895MOL0     H20805   6.146   5.670   8.821  1.1113 -2.7470 -2.4762
  895MOL0     H20806   5.928   5.802   8.904  0.0585  0.7722  4.0110
  895MOL0     H20807   5.329   5.603   8.980  1.3972  1.0974 -1.9598
  895MOL0     H20808   5.159   5.742   9.084 -0.8192 -0.0084  0.0840
  895MOL0     H20809   5.838   5.671  10.323 -0.7589 -0.0812  0.2198
  895MOL0     H20810   6.020   5.504  10.365 -0.9224 -4.2320  2.3060
  895MOL0     H20811   6.320   5.348  10.746  2.4899  0.4682 -1.5725
  895MOL0     H20812   6.493   5.219  10.764  0.4871 -0.0451  1.9416
  895MOL0     H20813   6.472   4.877  10.506 -0.2147 -2.8423 -0.4213
  895MOL0     H20814   6.600   4.804  10.599  2.3479  0.3337 -1.5701
  895MOL0     H20815   6.594   5.103  10.542 -0.3944 -0.0869 -1.2941
  895MOL0     H20816   6.677   4.994  10.439  1.0509  1.3420  0.0903
  895MOL0     H20817   6.831   4.898  10.602 -1.4462 -1.3194  2.0502
  895MOL0     H20818   6.743   4.969  10.733  0.0330 -2.7176  0.0994
  895MOL0     H20819   6.849   5.149  10.524  1.0290 -0.4812  0.2668
  895MOL0     H20820   6.846   5.165  10.709  1.4704 -0.5193  1.2050
  895MOL0     H20821   7.238   5.014  10.580  0.6187 -0.8012  1.4765
  895MOL0     H20822   6.267   4.879  10.645  1.3379 -0.5047  0.6829
  895MOL0     H20823   6.028   5.071  10.460 -2.2401  1.1392  0.3235
  895MOL0     H20824   6.047   4.912  10.521 -3.5209 -0.8135  0.9614
  895MOL0     H20825   5.942   5.043  10.602 -0.5878 -0.4352  0.3392
  896MOL0     O20826   4.500   7.675   0.700  0.2201  0.6231  0.7055
  896MOL0     C20827   4.571   7.749   0.770 -0.3359  0.0852 -0.0297
  896MOL0     O20828   4.558   7.884   0.779  0.7188 -0.5659  0.6251
  896MOL0     C20829   4.442   7.934   0.710  1.0129  0.2189  0.5314
  896MOL0     C20830   4.448   7.982   0.583  0.2030  0.0762  0.8352
  896MOL0     C20831   4.332   8.033   0.519  0.1553 -1.2192  0.1376
  896MOL0     C20832   4.214   8.034   0.586 -0.5471 -0.1911  0.2480
  896MOL0     O20833   4.115   8.101   0.516 -0.2938 -0.4496  0.1710
  896MOL0     C20834   3.982   8.070   0.553  1.0131  0.3781 -0.8623
  896MOL0     C20835   3.884   8.155   0.480  0.0359 -0.4999  0.3329
  896MOL0     C20836   3.892   8.131   0.331 -0.0938 -0.5593 -0.3332
  896MOL0     C20837   3.799   8.211   0.257 -0.9963  0.3328  0.5569
  896MOL0     C20838   3.651   8.175   0.282 -0.5602  0.2362 -0.9029
  896MOL0     C20839   3.561   8.240   0.181  0.9819  0.3258  0.3587
  896MOL0     C20840   3.411   8.215   0.220  0.9267  0.1094  0.0889
  896MOL0     C20841   3.317   8.281   0.125 -0.5475  0.1786 -0.2472
  896MOL0     N20842   3.333   8.432   0.097  0.1334 -0.1189  0.6957
  896MOL0     C20843   3.387   8.498  -0.010  0.0952 -0.7573  0.6835
  896MOL0     C20844   3.337   8.623  -0.008 -0.0012 -0.3834 -0.0272
  896MOL0     C20845   3.346   8.742  -0.103  0.1445  0.4072  0.2248
  896MOL0     C20846   3.205   8.778  -0.152 -0.8719 -0.5434 -0.0581
  896MOL0     C20847   3.197   8.921  -0.204 -0.5153 -0.8810 -0.2771
  896MOL0     C20848   3.069   8.963  -0.278  0.6757 -0.5167  0.6293
  896MOL0     O20849   2.953   8.949  -0.201  0.0039 -0.0912 -0.2461
  896MOL0     C20850   2.842   8.890  -0.259 -0.1727 -0.1149 -0.6042
  896MOL0     C20851   2.748   8.970  -0.325 -1.2850 -0.2875  0.6999
  896MOL0     C20852   2.626   8.911  -0.367 -0.3097  0.6440  0.1870
  896MOL0     C20853   2.600   8.775  -0.351 -0.3676  0.1683 -0.0736
  896MOL0     C20854   2.479   8.705  -0.388  1.2221 -0.0134  0.2506
  896MOL0     O20855   2.373   8.792  -0.374  1.1721  0.4511  1.0800
  896MOL0     C20856   2.244   8.771  -0.425 -0.0907 -0.1663 -0.4882
  896MOL0     C20857   2.166   8.883  -0.422 -0.4124 -0.1062 -0.0119
  896MOL0     C20858   2.050   8.891  -0.495  0.3169  0.6850 -0.1694
  896MOL0     C20859   2.001   8.767  -0.559  0.8759  0.6025 -0.2022
  896MOL0     O20860   1.873   8.757  -0.617 -0.6025  0.1505  0.3203
  896MOL0     C20861   1.778   8.773  -0.509  0.0856  0.3729  0.0889
  896MOL0     C20862   1.642   8.719  -0.551  0.9470  0.3986  0.8493
  896MOL0     C20863   1.654   8.574  -0.604  1.4402  0.4516  1.3730
  896MOL0     C20864   1.512   8.520  -0.656 -0.6648  0.7838  0.5905
  896MOL0     C20865   1.521   8.383  -0.728 -0.6469  0.4690  0.2352
  896MOL0     C20866   1.423   8.277  -0.672 -0.5059 -0.5541 -0.0163
  896MOL0     C20867   1.274   8.313  -0.709  0.1081  0.5751 -0.4236
  896MOL0     C20868   1.185   8.188  -0.715 -0.5427 -0.0500 -0.0966
  896MOL0    Cl20869   1.047   8.209  -0.829  0.2135 -0.2949 -0.3660
  896MOL0     C20870   2.070   8.647  -0.547  0.6774  0.0514 -0.1260
  896MOL0     C20871   2.195   8.656  -0.484  0.1982  0.4290 -0.0924
  896MOL0     O20872   2.475   8.587  -0.419  0.2059 -0.5000 -0.0079
  896MOL0     C20873   2.702   8.696  -0.282  0.4044  0.4043  0.2057
  896MOL0     C20874   2.825   8.752  -0.236 -0.3413 -0.1728 -0.8921
  896MOL0     N20875   3.279   8.643   0.115 -0.0193 -0.3830 -0.0756
  896MOL0     N20876   3.266   8.531   0.166  1.3743  0.3465 -0.5151
  896MOL0     C20877   4.195   7.974   0.708 -0.5055 -0.9018  0.0260
  896MOL0     C20878   4.316   7.921   0.769 -0.1266 -0.6715  0.5817
  896MOL0     C20879   4.698   7.687   0.824  0.3983 -0.1786 -0.5091
  896MOL0     C20880   4.751   7.571   0.759  0.6167 -0.0831 -1.2496
  896MOL0     C20881   4.870   7.509   0.799  0.6707 -0.0623 -0.0745
  896MOL0     C20882   4.927   7.554   0.918  1.1360  0.8831 -0.1997
  896MOL0     O20883   5.013   7.464   0.972 -0.4845 -0.3318  0.2906
  896MOL0     C20884   5.088   7.497   1.084  0.4963 -0.3265  0.3206
  896MOL0     C20885   5.174   7.378   1.129  0.2996 -0.8215 -1.4327
  896MOL0     C20886   5.271   7.338   1.022 -0.9774  0.1614  0.1085
  896MOL0     C20887   5.381   7.245   1.089  0.2388  0.2509 -0.7480
  896MOL0     C20888   5.472   7.302   1.194  0.4692 -0.4670 -0.7385
  896MOL0     C20889   5.538   7.333   1.292 -0.5168  0.9202  1.0601
  896MOL0     C20890   4.880   7.666   0.989 -0.0361 -0.2823 -0.1195
  896MOL0     C20891   4.757   7.728   0.949 -0.9706  0.6800 -0.0791
  896MOL0     C20892   4.708   7.837   1.027 -0.6637  0.4401  0.4221
  896MOL0     H20893   4.549   7.983   0.543  0.9661  2.3125  2.5553
  896MOL0     H20894   4.350   8.081   0.424 -0.1837  0.9295  1.1107
  896MOL0     H20895   3.956   7.964   0.549 -0.3803  0.6828 -0.2983
  896MOL0     H20896   3.979   8.111   0.654 -1.6535 -2.0843  0.1943
  896MOL0     H20897   3.896   8.261   0.504  2.0621 -0.7858  0.7556
  896MOL0     H20898   3.788   8.128   0.525 -2.1135  1.4979 -2.6640
  896MOL0     H20899   3.859   8.027   0.318 -2.7403 -0.1120  1.8912
  896MOL0     H20900   3.992   8.137   0.287  0.1491 -1.3379  0.0898
  896MOL0     H20901   3.813   8.317   0.279 -0.1582  0.1661  0.8404
  896MOL0     H20902   3.828   8.207   0.151  0.6330  0.8745  0.9573
  896MOL0     H20903   3.645   8.066   0.271 -1.3713  0.3060 -1.2190
  896MOL0     H20904   3.619   8.198   0.384  1.0686 -1.0969 -0.0350
  896MOL0     H20905   3.577   8.347   0.189 -1.3348  0.5988  3.0779
  896MOL0     H20906   3.586   8.198   0.084 -0.5090  0.2105 -0.0042
  896MOL0     H20907   3.391   8.255   0.320  0.3185  2.3182 -0.8512
  896MOL0     H20908   3.389   8.109   0.233 -1.4154  0.7151  1.6433
  896MOL0     H20909   3.335   8.223   0.034 -1.2200 -1.0274  0.3654
  896MOL0     H20910   3.215   8.252   0.154  0.3631 -2.2681  0.7582
  896MOL0     H20911   3.443   8.458  -0.093 -1.8803 -2.7924  0.2192
  896MOL0     H20912   3.398   8.825  -0.054 -0.4277 -0.6278  2.7411
  896MOL0     H20913   3.397   8.704  -0.192  0.0210 -1.0765  0.7516
  896MOL0     H20914   3.180   8.706  -0.230  0.9352 -2.8393  1.3294
  896MOL0     H20915   3.131   8.773  -0.072  1.0777  0.3875  1.9164
  896MOL0     H20916   3.284   8.938  -0.267  0.4138 -1.0103  0.9280
  896MOL0     H20917   3.204   8.981  -0.113 -0.8288 -1.1987 -0.0386
  896MOL0     H20918   3.056   8.897  -0.364 -3.7557  2.3359 -1.2294
  896MOL0     H20919   3.075   9.064  -0.317  3.1455 -0.2504  1.4984
  896MOL0     H20920   2.743   9.077  -0.345 -0.7780 -0.4826 -0.5254
  896MOL0     H20921   2.560   8.980  -0.418  0.1472 -0.7750 -2.5201
  896MOL0     H20922   2.212   8.969  -0.373  0.3068 -1.6203  2.1161
  896MOL0     H20923   1.999   8.986  -0.508  0.8479  0.8798 -0.9153
  896MOL0     H20924   1.806   8.707  -0.426 -3.8882 -3.6292 -1.3527
  896MOL0     H20925   1.771   8.878  -0.478  0.3933 -0.2408  2.4074
  896MOL0     H20926   1.575   8.723  -0.464  2.0733  0.1964  1.7486
  896MOL0     H20927   1.606   8.772  -0.640  1.5981 -2.6523 -1.3621
  896MOL0     H20928   1.727   8.562  -0.684 -1.4172 -4.2692 -0.9844
  896MOL0     H20929   1.683   8.520  -0.513 -1.5464  3.5839  4.5426
  896MOL0     H20930   1.470   8.592  -0.726 -3.9473 -3.3158 -2.1173
  896MOL0     H20931   1.445   8.505  -0.571  1.2003 -1.0929  1.8298
  896MOL0     H20932   1.622   8.343  -0.716 -0.8187 -0.0611 -0.0318
  896MOL0     H20933   1.503   8.388  -0.835 -1.9669 -2.0428  0.2464
  896MOL0     H20934   1.448   8.172  -0.694  1.1169 -0.5960  1.7964
  896MOL0     H20935   1.415   8.271  -0.563 -0.2273 -1.7094 -0.0453
  896MOL0     H20936   1.265   8.369  -0.803  1.4003 -0.3835 -1.1470
  896MOL0     H20937   1.244   8.382  -0.630 -1.0813 -0.3778 -0.0091
  896MOL0     H20938   1.246   8.101  -0.743  2.8649  2.1066 -0.0069
  896MOL0     H20939   1.144   8.163  -0.617 -2.2649  0.1372 -0.7448
  896MOL0     H20940   2.042   8.550  -0.586  1.7578 -1.6409  2.9308
  896MOL0     H20941   2.246   8.560  -0.483  1.2326  0.9630  0.5610
  896MOL0     H20942   2.685   8.595  -0.245 -2.2859  0.8818  0.5223
  896MOL0     H20943   2.900   8.695  -0.184 -1.9177 -1.2593  0.2894
  896MOL0     H20944   4.093   7.972   0.743 -0.6739  3.1449  0.1513
  896MOL0     H20945   4.315   7.881   0.870  1.4541  0.6082  1.1649
  896MOL0     H20946   4.698   7.534   0.672  2.1830  1.9841 -3.2108
  896MOL0     H20947   4.912   7.421   0.751 -1.0628 -0.9858  0.0262
  896MOL0     H20948   5.035   7.541   1.169 -2.0829 -2.0532 -0.2716
  896MOL0     H20949   5.163   7.574   1.062 -0.9439  1.3696  1.1377
  896MOL0     H20950   5.114   7.291   1.160 -1.4075  0.1513 -1.8494
  896MOL0     H20951   5.222   7.421   1.217 -1.6079 -1.4615  0.0126
  896MOL0     H20952   5.314   7.419   0.965 -0.2685  1.4391  2.3356
  896MOL0     H20953   5.210   7.284   0.949 -3.9427  2.4099  0.7362
  896MOL0     H20954   5.317   7.177   1.145  0.5868  2.3049  2.3923
  896MOL0     H20955   5.438   7.185   1.018 -1.0518  0.4403 -2.0055
  896MOL0     H20956   5.584   7.382   1.375 -1.6917 -0.2562  2.4655
  896MOL0     H20957   4.929   7.701   1.079  0.5630 -0.5305 -0.3441
  896MOL0     H20958   4.746   7.928   0.979  2.3531 -0.1102  1.5953
  896MOL0     H20959   4.601   7.842   1.052 -0.3530  0.7167  1.7823
  896MOL0     H20960   4.750   7.820   1.127 -2.6090 -0.7459  1.0947
  897MOL0     O20961   8.149  11.113   7.883  0.3171  0.1043  0.7375
  897MOL0     C20962   8.177  11.126   7.758 -0.1761  0.6311  0.0567
  897MOL0     O20963   8.101  11.201   7.672 -0.4695 -0.4736  0.0972
  897MOL0     C20964   8.016  11.301   7.726 -0.0662 -0.4110  0.2632
  897MOL0     C20965   8.070  11.410   7.783 -0.0233 -0.5349  0.0069
  897MOL0     C20966   7.985  11.517   7.817 -0.5076  0.0492  0.1826
  897MOL0     C20967   7.841  11.514   7.798 -0.6061 -0.0452  0.4018
  897MOL0     O20968   7.754  11.613   7.838 -0.7462  0.7407  0.0357
  897MOL0     C20969   7.754  11.645   7.976 -0.0982 -0.5878 -0.6078
  897MOL0     C20970   7.613  11.621   8.032 -0.3186  0.3056 -0.3389
  897MOL0     C20971   7.525  11.743   8.014 -0.0671 -0.6360  0.3137
  897MOL0     C20972   7.384  11.716   8.071 -1.2622 -0.1375 -0.0690
  897MOL0     C20973   7.307  11.849   8.072 -0.3686 -0.6133 -0.3302
  897MOL0     C20974   7.327  11.932   8.200  0.2769 -0.2137  0.0806
  897MOL0     C20975   7.234  12.042   8.192  0.6013 -0.4188  0.3664
  897MOL0     C20976   7.098  11.997   8.250  0.0997  0.4090 -0.4509
  897MOL0     N20977   7.006  12.109   8.276  0.3842 -0.0898  0.9895
  897MOL0     C20978   6.907  12.140   8.191  0.5787 -0.5415  0.4644
  897MOL0     C20979   6.853  12.249   8.252 -0.8591 -0.2842 -0.1653
  897MOL0     C20980   6.732  12.325   8.209  0.4105  0.4033  0.7233
  897MOL0     C20981   6.775  12.426   8.102  0.9972  0.5036 -0.3666
  897MOL0     C20982   6.655  12.501   8.041  0.0917 -0.3162  1.2335
  897MOL0     C20983   6.697  12.616   7.944  0.1441 -1.0933 -0.5048
  897MOL0     O20984   6.752  12.723   8.025  0.2348  0.2141 -0.3923
  897MOL0     C20985   6.746  12.849   7.966 -0.6913  0.1232  1.7314
  897MOL0     C20986   6.795  12.865   7.830 -0.3024 -0.7844 -0.3735
  897MOL0     C20987   6.781  12.983   7.765 -0.6306 -0.4442 -0.3823
  897MOL0     C20988   6.714  13.095   7.826 -0.3880  1.0088 -0.3526
  897MOL0     C20989   6.689  13.219   7.763  0.4698 -0.2423  0.2382
  897MOL0     O20990   6.710  13.225   7.632 -0.5759  0.0924  0.2364
  897MOL0     C20991   6.684  13.343   7.573 -0.8407  0.1586  0.2117
  897MOL0     C20992   6.783  13.447   7.579 -0.0609  0.0577  0.0547
  897MOL0     C20993   6.769  13.560   7.504 -0.8616 -1.0321  0.2282
  897MOL0     C20994   6.663  13.581   7.426 -0.1259  0.5179 -0.0606
  897MOL0     O20995   6.643  13.698   7.363  0.8218 -0.3951 -1.0561
  897MOL0     C20996   6.571  13.705   7.234 -0.3970  1.6903 -0.2477
  897MOL0     C20997   6.627  13.808   7.156  0.3323 -0.4830 -0.9173
  897MOL0     C20998   6.612  13.944   7.218  0.4066 -0.6844  0.0028
  897MOL0     C20999   6.470  14.015   7.209  0.8129  0.4632  0.6324
  897MOL0     C21000   6.462  14.143   7.297 -1.2008 -0.0842 -0.8331
  897MOL0     C21001   6.345  14.238   7.260  0.2373  0.3102  1.0407
  897MOL0     C21002   6.352  14.383   7.313  0.1581  1.0456 -0.6671
  897MOL0     C21003   6.318  14.390   7.458  0.1722  0.2040 -0.7498
  897MOL0    Cl21004   6.150  14.365   7.503 -0.0584 -0.1704 -0.3032
  897MOL0     C21005   6.557  13.473   7.429  0.6253 -1.0392  0.6388
  897MOL0     C21006   6.571  13.357   7.497 -0.0107  0.2161  0.1000
  897MOL0     O21007   6.666  13.312   7.835  1.0414  0.2927 -0.6667
  897MOL0     C21008   6.664  13.075   7.965  0.3575  0.3148 -0.0771
  897MOL0     C21009   6.692  12.958   8.033 -1.3461  0.0439 -0.2286
  897MOL0     N21010   6.904  12.254   8.376 -0.3571 -0.3546 -0.6400
  897MOL0     N21011   7.006  12.188   8.385  0.0502  0.0234 -0.5587
  897MOL0     C21012   7.788  11.397   7.741 -0.0419 -0.1776 -0.0128
  897MOL0     C21013   7.880  11.294   7.707 -0.3223  0.6501 -0.8296
  897MOL0     C21014   8.297  11.057   7.702  0.5855  0.8075  0.2445
  897MOL0     C21015   8.321  11.067   7.559 -0.5440  0.0101  0.0817
  897MOL0     C21016   8.429  11.004   7.490  0.7509 -0.6896 -0.1470
  897MOL0     C21017   8.497  10.903   7.556 -0.6904 -0.6751  0.0031
  897MOL0     O21018   8.588  10.829   7.482 -0.2420 -0.8679  0.6256
  897MOL0     C21019   8.665  10.735   7.551  0.1632 -0.4410 -1.0217
  897MOL0     C21020   8.727  10.644   7.454 -0.5148  0.4817  0.4562
  897MOL0     C21021   8.753  10.713   7.318 -0.1169  0.3475  0.0663
  897MOL0     C21022   8.866  10.653   7.234  0.1877  0.6947  0.3663
  897MOL0     C21023   8.832  10.519   7.184  0.0437  0.5461  0.0213
  897MOL0     C21024   8.807  10.405   7.147  0.1246 -0.6266 -0.0200
  897MOL0     C21025   8.483  10.904   7.697  0.6367  0.3228  0.4013
  897MOL0     C21026   8.391  10.974   7.772 -0.5725 -1.0109 -0.4222
  897MOL0     C21027   8.404  10.950   7.927  0.5716 -0.2053 -0.0281
  897MOL0     H21028   8.176  11.426   7.801 -0.4572  5.1554 -0.6884
  897MOL0     H21029   8.038  11.599   7.863 -0.5657  0.6001 -0.7080
  897MOL0     H21030   7.832  11.586   8.025  1.4818  1.0826 -0.9909
  897MOL0     H21031   7.790  11.746   8.000  1.9158 -1.8399  2.1408
  897MOL0     H21032   7.630  11.603   8.138 -3.7906  1.8604  0.6361
  897MOL0     H21033   7.566  11.535   7.984 -1.6802  0.8852 -0.0844
  897MOL0     H21034   7.522  11.766   7.907 -2.3464  0.7106  0.5872
  897MOL0     H21035   7.565  11.831   8.065  0.9735 -0.4703 -0.7513
  897MOL0     H21036   7.331  11.648   8.003 -2.4281  0.2358  0.4337
  897MOL0     H21037   7.388  11.667   8.169 -0.0832  1.0960  0.5305
  897MOL0     H21038   7.331  11.910   7.985 -0.6141  2.0310  1.3356
  897MOL0     H21039   7.200  11.828   8.067 -0.7072 -0.3633  3.0895
  897MOL0     H21040   7.301  11.880   8.292  1.7841  1.5474  1.6085
  897MOL0     H21041   7.432  11.964   8.205  0.4068 -0.7494  0.8461
  897MOL0     H21042   7.233  12.095   8.097  3.1726  0.5959  0.8256
  897MOL0     H21043   7.261  12.115   8.269 -0.7476 -1.5392  1.9735
  897MOL0     H21044   7.040  11.920   8.197 -0.5863 -1.5035  2.7843
  897MOL0     H21045   7.119  11.948   8.345 -0.7382  3.4506  1.4364
  897MOL0     H21046   6.880  12.101   8.093  2.2103  0.7072 -0.5341
  897MOL0     H21047   6.662  12.255   8.163  2.8626 -1.0447 -1.0996
  897MOL0     H21048   6.685  12.370   8.296  1.5928 -0.1636  1.6892
  897MOL0     H21049   6.843  12.501   8.143  2.8623 -1.3016  0.0083
  897MOL0     H21050   6.819  12.367   8.021 -0.3975 -0.5305 -0.4022
  897MOL0     H21051   6.587  12.542   8.116  0.1430  1.5921  0.2988
  897MOL0     H21052   6.588  12.435   7.986 -1.5053  2.3836 -0.2645
  897MOL0     H21053   6.601  12.653   7.907 -0.1448  0.3631  1.5421
  897MOL0     H21054   6.768  12.583   7.867  0.5183  0.8559 -1.0389
  897MOL0     H21055   6.828  12.775   7.779  0.7376 -0.5641 -0.1180
  897MOL0     H21056   6.813  12.978   7.661  0.8803  0.6392 -0.0075
  897MOL0     H21057   6.866  13.433   7.648 -0.3428 -2.1254  0.0373
  897MOL0     H21058   6.837  13.641   7.525 -2.2794 -0.3806  2.6372
  897MOL0     H21059   6.590  13.610   7.184  0.4852  2.4691 -1.4676
  897MOL0     H21060   6.464  13.716   7.253 -0.3949  0.2299  0.7370
  897MOL0     H21061   6.733  13.780   7.149 -0.3062 -3.8033  0.9093
  897MOL0     H21062   6.585  13.804   7.055 -0.8762  3.9295 -0.7892
  897MOL0     H21063   6.629  13.932   7.325 -2.0428 -1.3800  0.3861
  897MOL0     H21064   6.687  14.017   7.188 -0.6894  0.8170  0.7822
  897MOL0     H21065   6.387  13.952   7.242 -0.0295  0.2339 -1.7351
  897MOL0     H21066   6.441  14.038   7.106  1.9660  1.5404  0.5254
  897MOL0     H21067   6.557  14.197   7.298 -1.5945  0.6129  0.1472
  897MOL0     H21068   6.456  14.116   7.403  0.0365  1.2731 -0.3840
  897MOL0     H21069   6.359  14.238   7.152  2.3883 -1.6882  1.2464
  897MOL0     H21070   6.254  14.185   7.289 -0.4463  1.5388  1.1973
  897MOL0     H21071   6.274  14.435   7.257 -0.6449  0.0903 -0.4533
  897MOL0     H21072   6.452  14.425   7.293 -0.3734  2.0603 -1.3108
  897MOL0     H21073   6.380  14.318   7.514 -2.5343 -0.3662  1.7661
  897MOL0     H21074   6.344  14.489   7.496 -0.6579 -0.5213  1.9949
  897MOL0     H21075   6.466  13.484   7.371 -1.0963 -0.8444  3.2363
  897MOL0     H21076   6.495  13.280   7.491 -0.7338  0.8725  0.6880
  897MOL0     H21077   6.594  13.136   8.022 -2.4721 -1.9577 -0.9099
  897MOL0     H21078   6.656  12.944   8.134 -1.8577  0.0403 -0.4074
  897MOL0     H21079   7.682  11.387   7.719 -0.5122  4.3008 -0.8800
  897MOL0     H21080   7.835  11.199   7.678 -0.8063  0.8456 -0.7357
  897MOL0     H21081   8.252  11.124   7.497 -0.5272 -1.2218 -1.0988
  897MOL0     H21082   8.427  11.023   7.383 -3.3119 -0.4231 -0.1776
  897MOL0     H21083   8.595  10.677   7.611 -0.7704  0.6762 -1.0077
  897MOL0     H21084   8.742  10.780   7.613  1.0566 -0.1007 -2.3335
  897MOL0     H21085   8.658  10.561   7.433  0.0015 -0.5512  2.5686
  897MOL0     H21086   8.826  10.606   7.481 -0.2327 -0.8193 -2.1232
  897MOL0     H21087   8.778  10.818   7.337  0.5916  0.2549 -0.3282
  897MOL0     H21088   8.657  10.722   7.265 -0.8879 -2.3856  0.8173
  897MOL0     H21089   8.879  10.716   7.146  2.9639 -0.9311 -0.5099
  897MOL0     H21090   8.963  10.652   7.283 -0.4573  2.8794  1.8238
  897MOL0     H21091   8.776  10.304   7.136  0.6961 -1.0204  1.6075
  897MOL0     H21092   8.536  10.827   7.752 -3.1612 -0.6535  3.1363
  897MOL0     H21093   8.449  11.042   7.965 -0.8991  0.8611 -0.7638
  897MOL0     H21094   8.303  10.949   7.969  0.9685  1.2228  1.0413
  897MOL0     H21095   8.459  10.857   7.946 -1.2064 -0.8283  2.7065
  898MOL0     O21096   2.673   1.323   2.419  0.1236  0.5222  0.0514
  898MOL0     C21097   2.774   1.368   2.367 -0.4663  0.7606  0.1672
  898MOL0     O21098   2.824   1.484   2.388 -0.3250 -0.3295  0.2338
  898MOL0     C21099   2.754   1.586   2.448 -0.2304 -0.1000  0.0693
  898MOL0     C21100   2.628   1.618   2.417 -0.4073 -0.2555 -0.4441
  898MOL0     C21101   2.571   1.728   2.484  0.3693  1.4975 -0.0420
  898MOL0     C21102   2.633   1.795   2.582 -1.1380  1.4844  0.2666
  898MOL0     O21103   2.571   1.898   2.664  0.2101  0.2276  0.8739
  898MOL0     C21104   2.445   1.965   2.626 -0.9794  1.8496  0.0014
  898MOL0     C21105   2.433   2.087   2.713  0.1330 -0.3010  0.9753
  898MOL0     C21106   2.544   2.201   2.700  0.8185 -0.0899  0.4763
  898MOL0     C21107   2.646   2.195   2.814  0.9357 -0.5163 -0.2807
  898MOL0     C21108   2.789   2.204   2.765 -0.7991 -0.3493 -0.5897
  898MOL0     C21109   2.894   2.213   2.870 -0.2466 -0.3407  0.6711
  898MOL0     C21110   2.876   2.130   3.002 -0.6651  0.0837 -0.2132
  898MOL0     C21111   3.006   2.140   3.088 -0.9166 -0.7064  1.1182
  898MOL0     N21112   3.039   2.283   3.126  0.4415 -0.6728 -0.0758
  898MOL0     C21113   3.115   2.378   3.060 -0.0847  0.5224  0.0234
  898MOL0     C21114   3.083   2.498   3.113  0.0027 -0.3674  0.1189
  898MOL0     C21115   3.153   2.630   3.074  0.2708  0.4603 -0.1505
  898MOL0     C21116   3.055   2.745   3.043  0.4058 -0.3651  1.1393
  898MOL0     C21117   3.108   2.821   2.923 -0.1477  0.2104 -0.2832
  898MOL0     C21118   3.247   2.885   2.944  0.7250 -0.0979 -0.8739
  898MOL0     O21119   3.246   3.018   2.895  0.0199  0.2452 -0.3368
  898MOL0     C21120   3.242   3.052   2.758 -0.2880  0.1331  0.4758
  898MOL0     C21121   3.220   3.188   2.734  0.5066 -0.3118 -0.0088
  898MOL0     C21122   3.197   3.234   2.605  0.2697 -0.7953 -0.4457
  898MOL0     C21123   3.186   3.140   2.492 -0.0210 -0.1876  0.1237
  898MOL0     C21124   3.142   3.184   2.359  0.6264  0.2873 -0.1138
  898MOL0     O21125   3.143   3.107   2.240 -0.0739  0.9478  0.0029
  898MOL0     C21126   3.118   3.148   2.115 -0.3148  0.2361  0.6898
  898MOL0     C21127   3.187   3.096   2.002  0.9056  0.2450  1.0647
  898MOL0     C21128   3.164   3.142   1.873 -0.4656  0.2307 -0.4587
  898MOL0     C21129   3.067   3.236   1.850 -0.3467  0.7730  0.2749
  898MOL0     O21130   3.051   3.270   1.718 -0.4718 -0.0795 -0.7412
  898MOL0     C21131   2.915   3.308   1.683  0.5344  0.1127  0.2799
  898MOL0     C21132   2.908   3.266   1.544 -0.1411 -0.4110 -0.6546
  898MOL0     C21133   2.925   3.108   1.541  0.1399 -0.3812  0.8302
  898MOL0     C21134   2.902   3.053   1.398 -0.4708  0.7964  0.5522
  898MOL0     C21135   3.010   3.096   1.297  1.0464  0.4486  0.6697
  898MOL0     C21136   3.099   2.980   1.243  0.1469  0.1431 -0.0717
  898MOL0     C21137   3.200   2.931   1.343  0.9021  0.3490 -0.7256
  898MOL0     C21138   3.309   2.834   1.276  0.2768 -0.8600  0.1813
  898MOL0    Cl21139   3.388   2.887   1.115 -0.2920  0.3343  0.0479
  898MOL0     C21140   2.987   3.285   1.956 -0.3829  0.4094 -0.0265
  898MOL0     C21141   3.005   3.234   2.085 -0.5482 -0.2276 -0.3822
  898MOL0     O21142   3.121   3.310   2.359 -1.0603  0.4857  0.0270
  898MOL0     C21143   3.214   3.002   2.516 -0.4286 -0.0904  0.0421
  898MOL0     C21144   3.241   2.962   2.649  0.0275  0.8963 -0.2213
  898MOL0     N21145   2.985   2.471   3.215  0.2789 -0.7677  0.3041
  898MOL0     N21146   2.957   2.342   3.222  0.0577 -0.5576  0.5080
  898MOL0     C21147   2.771   1.771   2.611  1.2930  0.2085 -0.9641
  898MOL0     C21148   2.823   1.665   2.544  0.0297  0.3153  0.1544
  898MOL0     C21149   2.851   1.267   2.285  0.2426 -0.6820  0.1457
  898MOL0     C21150   2.990   1.280   2.283 -0.5184 -0.5382 -0.2492
  898MOL0     C21151   3.069   1.198   2.212  0.0458  0.6169 -0.9938
  898MOL0     C21152   3.011   1.088   2.150  0.0149  0.0207 -0.8936
  898MOL0     O21153   3.110   1.012   2.098  0.6348 -0.4697 -0.3503
  898MOL0     C21154   3.080   0.870   2.050  0.5860 -0.3292 -0.4427
  898MOL0     C21155   3.197   0.790   2.062 -0.5690  0.4595 -0.7679
  898MOL0     C21156   3.290   0.805   1.940  0.4334 -0.4840  0.0509
  898MOL0     C21157   3.341   0.949   1.918  0.0049 -0.3372  0.4658
  898MOL0     C21158   3.469   0.941   1.860 -0.8235 -0.7245  0.5046
  898MOL0     C21159   3.584   0.936   1.815  1.2443 -0.8164  0.7521
  898MOL0     C21160   2.876   1.063   2.156 -0.1567 -0.3964 -0.8811
  898MOL0     C21161   2.798   1.155   2.224  0.9014 -0.4249 -0.2112
  898MOL0     C21162   2.652   1.126   2.225 -0.0783 -0.2708  0.5908
  898MOL0     H21163   2.565   1.562   2.349 -0.2713 -0.0335 -0.7567
  898MOL0     H21164   2.468   1.749   2.459  0.3818  2.2060  0.4806
  898MOL0     H21165   2.444   1.992   2.520  2.9550  0.3774 -0.5491
  898MOL0     H21166   2.373   1.888   2.654  0.6162  0.0855 -0.5191
  898MOL0     H21167   2.414   2.051   2.814 -1.5524 -0.1648  0.7419
  898MOL0     H21168   2.338   2.127   2.677  0.7171  1.3302  1.1782
  898MOL0     H21169   2.507   2.303   2.702 -0.2538 -0.4729  1.3722
  898MOL0     H21170   2.594   2.184   2.604 -0.0512  1.2041 -0.2219
  898MOL0     H21171   2.613   2.266   2.890 -0.5996 -3.5825  2.1644
  898MOL0     H21172   2.634   2.101   2.869 -1.4436 -1.8146 -2.7785
  898MOL0     H21173   2.817   2.116   2.705 -0.8653 -1.4558  0.9433
  898MOL0     H21174   2.799   2.297   2.709 -1.7821  2.0463  2.8878
  898MOL0     H21175   2.993   2.184   2.832 -0.0516 -0.1294  1.0137
  898MOL0     H21176   2.886   2.320   2.891  2.5193  0.0257  0.2359
  898MOL0     H21177   2.856   2.028   2.969  1.4133 -0.3544 -0.2430
  898MOL0     H21178   2.796   2.172   3.064  1.9887  1.0693  2.8209
  898MOL0     H21179   2.997   2.080   3.179  0.3319 -2.1887  0.3090
  898MOL0     H21180   3.095   2.101   3.038 -0.4094  3.5182 -1.7902
  898MOL0     H21181   3.170   2.371   2.966  0.5319 -0.0483  0.4157
  898MOL0     H21182   3.206   2.675   3.158 -1.8413  1.2251  0.8398
  898MOL0     H21183   3.231   2.607   3.001 -0.2783  0.8725 -0.8813
  898MOL0     H21184   2.960   2.700   3.016  1.3422 -2.0169  0.4610
  898MOL0     H21185   3.049   2.807   3.133  1.1594  0.6916  0.4924
  898MOL0     H21186   3.043   2.909   2.915  0.9247  0.9618 -1.0247
  898MOL0     H21187   3.107   2.764   2.830  3.4122  0.4264 -0.5864
  898MOL0     H21188   3.324   2.819   2.903  0.9009  2.1018 -4.5770
  898MOL0     H21189   3.260   2.889   3.052 -3.1338  0.6419 -0.2774
  898MOL0     H21190   3.214   3.263   2.812 -0.2074  2.3108 -2.4235
  898MOL0     H21191   3.178   3.341   2.596  0.8354 -0.6286  0.2887
  898MOL0     H21192   3.268   3.026   2.021  0.6842 -0.5637 -0.7459
  898MOL0     H21193   3.228   3.122   1.788  0.2326  2.4959 -0.5350
  898MOL0     H21194   2.840   3.254   1.742 -1.6621  0.2395 -2.1769
  898MOL0     H21195   2.888   3.414   1.679 -1.3923 -0.3817 -1.8249
  898MOL0     H21196   2.810   3.291   1.502 -0.2069  0.6014  0.0385
  898MOL0     H21197   2.974   3.316   1.473  0.0238 -1.1564 -1.0290
  898MOL0     H21198   3.026   3.077   1.568  1.2900  1.5494 -0.9234
  898MOL0     H21199   2.848   3.064   1.605 -0.8931 -1.0211 -0.8015
  898MOL0     H21200   2.799   3.071   1.366 -0.8288  1.3257  1.9221
  898MOL0     H21201   2.908   2.944   1.410  0.0442  0.2546 -3.2922
  898MOL0     H21202   3.065   3.178   1.344  1.5062  2.1966 -2.5541
  898MOL0     H21203   2.953   3.140   1.214  1.0105  0.2226  0.5741
  898MOL0     H21204   3.037   2.894   1.214  1.9113 -0.8305 -1.1540
  898MOL0     H21205   3.151   3.003   1.149  1.2359 -0.7859  0.2916
  898MOL0     H21206   3.165   2.879   1.433 -0.3943 -2.0358 -2.5096
  898MOL0     H21207   3.257   3.015   1.385  0.3850  1.6935 -2.5683
  898MOL0     H21208   3.398   2.812   1.336  0.0493  0.4045  1.0164
  898MOL0     H21209   3.249   2.746   1.252 -3.3125  1.7319 -1.2613
  898MOL0     H21210   2.912   3.362   1.941  2.2634  3.4002  0.8932
  898MOL0     H21211   2.934   3.264   2.161 -0.1769 -0.7042  0.1625
  898MOL0     H21212   3.221   2.932   2.433  0.2184  1.4024 -1.1990
  898MOL0     H21213   3.255   2.854   2.653  3.1571  1.2008 -0.1233
  898MOL0     H21214   2.824   1.818   2.693 -1.8922 -1.0099  2.0406
  898MOL0     H21215   2.927   1.636   2.548  0.7001  2.5958  0.7844
  898MOL0     H21216   3.032   1.372   2.325 -1.4386  0.7113 -1.9295
  898MOL0     H21217   3.174   1.225   2.203  0.1221  1.5808  1.6450
  898MOL0     H21218   3.063   0.866   1.942  3.3625  1.3188 -1.0200
  898MOL0     H21219   3.002   0.815   2.105  1.0951 -0.4550  0.1714
  898MOL0     H21220   3.181   0.683   2.079 -0.0143  0.3776 -0.7166
  898MOL0     H21221   3.250   0.820   2.153  1.4582 -2.5168 -0.7897
  898MOL0     H21222   3.247   0.777   1.843  1.6522 -1.4403 -0.2394
  898MOL0     H21223   3.372   0.733   1.946  2.1503  1.4129  0.5912
  898MOL0     H21224   3.278   1.003   1.847  0.4997 -1.8033 -1.1634
  898MOL0     H21225   3.348   1.010   2.009  1.7348  4.5408 -2.4950
  898MOL0     H21226   3.677   0.924   1.765 -1.1164  1.9796 -5.1903
  898MOL0     H21227   2.828   0.975   2.115  1.5815 -1.0412 -1.6227
  898MOL0     H21228   2.597   1.221   2.221 -0.1360 -0.2777 -3.9696
  898MOL0     H21229   2.621   1.084   2.130  3.4081 -0.1550 -0.7608
  898MOL0     H21230   2.630   1.058   2.308  1.0348 -0.4003  0.8004
  899MOL0     O21231   0.668   8.689   7.794  0.4912 -0.3694 -0.5242
  899MOL0     C21232   0.758   8.733   7.866  0.0532 -0.2672  0.7989
  899MOL0     O21233   0.891   8.723   7.840 -0.1519  0.4434 -0.1696
  899MOL0     C21234   0.942   8.631   7.752 -0.0344  0.3479 -0.5834
  899MOL0     C21235   0.877   8.502   7.724 -1.1463 -0.4008  0.5312
  899MOL0     C21236   0.959   8.400   7.661 -1.0831 -0.3912 -0.2825
  899MOL0     C21237   1.095   8.433   7.623  1.0615 -0.2011 -0.5621
  899MOL0     O21238   1.190   8.349   7.573 -0.1532 -0.1322  0.0839
  899MOL0     C21239   1.223   8.250   7.663 -0.1036  0.5063 -0.5279
  899MOL0     C21240   1.180   8.119   7.612 -0.4404  0.3081  0.4105
  899MOL0     C21241   1.238   8.095   7.474  0.5020 -0.3494  0.2972
  899MOL0     C21242   1.282   7.951   7.445 -0.3858 -0.1304  0.1390
  899MOL0     C21243   1.170   7.849   7.437  0.2016  0.3877 -0.5677
  899MOL0     C21244   1.065   7.875   7.339  0.0810  0.7842  0.3099
  899MOL0     C21245   0.949   7.779   7.343  0.6619  1.1780  0.1355
  899MOL0     C21246   0.841   7.815   7.238  0.2979 -0.7236 -0.2862
  899MOL0     N21247   0.901   7.843   7.103  0.0294  0.5131  0.6832
  899MOL0     C21248   0.946   7.961   7.046 -0.6404 -0.6129 -0.2335
  899MOL0     C21249   1.006   7.940   6.932 -0.6389 -0.7172 -0.1036
  899MOL0     C21250   1.098   8.037   6.854  0.1678 -0.3579  0.7688
  899MOL0     C21251   1.250   8.010   6.869  0.4805 -0.1782  0.0903
  899MOL0     C21252   1.334   8.138   6.882  0.9829  0.5929 -0.3469
  899MOL0     C21253   1.401   8.210   6.754  0.1237  0.3038 -0.1910
  899MOL0     O21254   1.507   8.290   6.793 -0.0898  0.0678  0.1423
  899MOL0     C21255   1.523   8.387   6.698 -0.3327 -0.0715  0.5134
  899MOL0     C21256   1.570   8.356   6.567  0.1448  0.0510  0.6266
  899MOL0     C21257   1.580   8.464   6.474 -0.1978 -0.0598 -0.2194
  899MOL0     C21258   1.562   8.594   6.514 -0.3073 -0.6803  0.2806
  899MOL0     C21259   1.572   8.707   6.417 -0.3158 -0.6371  1.3750
  899MOL0     O21260   1.630   8.669   6.300  0.6981 -0.2934 -0.2692
  899MOL0     C21261   1.658   8.766   6.209 -0.1516  0.2521  0.4160
  899MOL0     C21262   1.658   8.716   6.076  0.3206 -0.4993  0.5924
  899MOL0     C21263   1.707   8.788   5.965  0.2785  0.1228  0.2822
  899MOL0     C21264   1.769   8.911   5.979  0.1262 -0.7233 -0.3580
  899MOL0     O21265   1.831   8.979   5.879  0.4628  0.3588  0.5133
  899MOL0     C21266   1.741   9.018   5.771  0.3875  0.3371  0.1961
  899MOL0     C21267   1.820   9.082   5.659  0.7104 -0.0469  0.0573
  899MOL0     C21268   1.949   9.164   5.698 -0.0063  0.0563  1.0150
  899MOL0     C21269   1.926   9.279   5.791 -0.7933  0.4422  0.1124
  899MOL0     C21270   2.057   9.337   5.848 -0.3142 -0.5723 -0.4408
  899MOL0     C21271   2.054   9.371   5.993 -0.0569 -0.2241 -0.6191
  899MOL0     C21272   2.052   9.250   6.084  0.3952 -0.6743 -0.1961
  899MOL0     C21273   2.017   9.268   6.230 -0.0841 -0.3457 -0.0232
  899MOL0    Cl21274   2.139   9.345   6.335  0.1106 -0.2973  0.5270
  899MOL0     C21275   1.765   8.966   6.113 -0.1975 -0.4425  0.0981
  899MOL0     C21276   1.713   8.897   6.225  0.3835 -0.6148 -0.0901
  899MOL0     O21277   1.536   8.821   6.443  0.1556  0.6910 -0.5252
  899MOL0     C21278   1.532   8.625   6.652  0.2723 -1.1637  0.6433
  899MOL0     C21279   1.519   8.518   6.741 -1.2347  0.7191  0.1859
  899MOL0     N21280   0.991   7.809   6.907  0.1354  0.1555  0.3422
  899MOL0     N21281   0.944   7.757   7.017  0.3650  0.3869  0.5633
  899MOL0     C21282   1.149   8.556   7.651 -0.4192 -0.5674  0.4376
  899MOL0     C21283   1.075   8.646   7.723  0.2289 -0.4328  0.3827
  899MOL0     C21284   0.722   8.844   7.957  0.3236 -0.4462  0.4196
  899MOL0     C21285   0.657   8.811   8.074  0.4077 -0.6513 -0.5802
  899MOL0     C21286   0.613   8.920   8.156 -0.3502 -0.3530 -0.2361
  899MOL0     C21287   0.675   9.046   8.149 -0.4257  0.6485  0.4788
  899MOL0     O21288   0.639   9.124   8.258  0.1722  0.7017 -0.0125
  899MOL0     C21289   0.711   9.254   8.269 -0.6813  0.5008 -1.2289
  899MOL0     C21290   0.678   9.307   8.406 -0.3246  1.2225 -0.7880
  899MOL0     C21291   0.739   9.444   8.446  1.1406  0.1257 -0.5304
  899MOL0     C21292   0.882   9.448   8.399 -0.5066 -1.1216 -0.0834
  899MOL0     C21293   0.930   9.590   8.399  0.0907  0.3755  0.2397
  899MOL0     C21294   0.963   9.709   8.397 -0.5404  0.5155 -0.0267
  899MOL0     C21295   0.759   9.075   8.042 -1.0499  1.0889  0.7658
  899MOL0     C21296   0.771   8.981   7.941 -0.5955 -0.5387  0.5906
  899MOL0     C21297   0.850   9.036   7.817  0.0173  0.2199 -0.4249
  899MOL0     H21298   0.776   8.477   7.756 -1.7165  3.0271  1.8784
  899MOL0     H21299   0.911   8.306   7.636 -0.0639 -0.7783 -0.8271
  899MOL0     H21300   1.332   8.242   7.676  0.1024 -1.4487 -2.7616
  899MOL0     H21301   1.179   8.259   7.763  3.2875  0.9964  1.0908
  899MOL0     H21302   1.071   8.116   7.622 -0.6433 -1.0911 -1.5743
  899MOL0     H21303   1.218   8.044   7.682  0.9707 -1.1596 -1.7829
  899MOL0     H21304   1.325   8.162   7.466  1.1128 -1.3007 -1.4834
  899MOL0     H21305   1.180   8.122   7.386  3.5400 -1.9858 -2.4504
  899MOL0     H21306   1.331   7.953   7.347 -1.2317  1.8372 -0.3023
  899MOL0     H21307   1.351   7.915   7.522 -1.6958 -0.9632  0.9674
  899MOL0     H21308   1.192   7.742   7.439  0.6981  0.0501 -6.4183
  899MOL0     H21309   1.125   7.863   7.536  0.8726  0.2384 -0.2337
  899MOL0     H21310   1.024   7.972   7.369 -1.2676 -0.0799  1.3838
  899MOL0     H21311   1.102   7.870   7.236 -1.7424 -1.9037 -0.3079
  899MOL0     H21312   0.897   7.776   7.439  1.2727  1.3156  0.4728
  899MOL0     H21313   0.985   7.677   7.322  2.0063  1.8591 -1.0330
  899MOL0     H21314   0.772   7.730   7.236  0.3747 -0.7833 -0.3912
  899MOL0     H21315   0.781   7.899   7.273 -1.5341 -1.9139 -0.4262
  899MOL0     H21316   0.939   8.055   7.100  0.2825  0.1312 -1.3624
  899MOL0     H21317   1.077   8.025   6.748 -4.1813 -0.5572  1.4863
  899MOL0     H21318   1.072   8.139   6.882 -0.1886 -1.1963  3.9735
  899MOL0     H21319   1.267   7.951   6.959 -1.0614 -3.6725 -1.7188
  899MOL0     H21320   1.273   7.947   6.782  0.0277 -0.0358 -0.1332
  899MOL0     H21321   1.410   8.098   6.950  0.4729 -1.8647 -1.1262
  899MOL0     H21322   1.275   8.218   6.928  3.0577  2.0924 -0.1439
  899MOL0     H21323   1.318   8.269   6.714 -0.1563 -0.4466 -0.7370
  899MOL0     H21324   1.440   8.134   6.686  2.1824  1.0075  0.1223
  899MOL0     H21325   1.578   8.251   6.545 -0.1732  0.2313 -0.4132
  899MOL0     H21326   1.609   8.452   6.370  2.1974 -2.2281  0.5877
  899MOL0     H21327   1.625   8.614   6.056 -1.4670  0.1543 -0.0312
  899MOL0     H21328   1.708   8.729   5.874 -0.6610  2.4293 -1.3322
  899MOL0     H21329   1.699   8.930   5.721 -0.9865  0.9791  0.1887
  899MOL0     H21330   1.671   9.087   5.818  0.1577 -0.2289  0.7005
  899MOL0     H21331   1.862   8.998   5.603 -0.8155 -1.8795  1.5451
  899MOL0     H21332   1.755   9.141   5.593  2.1352  2.1385  0.4744
  899MOL0     H21333   2.022   9.095   5.740  0.0319 -0.6963 -0.2487
  899MOL0     H21334   1.996   9.209   5.610 -0.9329 -4.2910 -2.0339
  899MOL0     H21335   1.853   9.258   5.869 -1.4308  0.8901 -0.3539
  899MOL0     H21336   1.890   9.356   5.722  0.2332  0.9484  0.1178
  899MOL0     H21337   2.085   9.427   5.793  2.5511 -1.3440 -0.4275
  899MOL0     H21338   2.139   9.266   5.832 -0.9713 -2.0086  2.0181
  899MOL0     H21339   2.133   9.443   6.018  1.1319 -1.5033 -0.5082
  899MOL0     H21340   1.959   9.419   6.018  0.6394 -0.3738  2.8415
  899MOL0     H21341   2.149   9.202   6.070  1.0821  0.1171  1.5324
  899MOL0     H21342   1.966   9.191   6.052 -0.5711 -1.3617  3.1951
  899MOL0     H21343   1.919   9.308   6.256 -0.0656  0.5623 -1.2789
  899MOL0     H21344   2.006   9.162   6.256 -0.7533 -0.1544  0.4804
  899MOL0     H21345   1.786   9.072   6.118 -2.6588  0.1531 -0.7829
  899MOL0     H21346   1.721   8.936   6.326  0.8454 -0.4711 -0.1797
  899MOL0     H21347   1.500   8.722   6.688 -1.9327 -1.2977 -0.7578
  899MOL0     H21348   1.505   8.539   6.846  0.4311 -0.6825  0.7215
  899MOL0     H21349   1.250   8.568   7.613 -0.3909 -0.5040  0.5326
  899MOL0     H21350   1.110   8.747   7.743 -1.7440  0.2449  0.6059
  899MOL0     H21351   0.638   8.708   8.100  0.4290 -0.7838 -1.0681
  899MOL0     H21352   0.543   8.900   8.236  0.2539 -3.4070 -0.3714
  899MOL0     H21353   0.665   9.329   8.204 -0.7919  0.3172 -1.3607
  899MOL0     H21354   0.814   9.221   8.252 -0.0983  1.3031  0.4936
  899MOL0     H21355   0.711   9.237   8.483 -0.1563  0.8846 -1.1672
  899MOL0     H21356   0.570   9.307   8.426  0.0006  2.2591  1.2988
  899MOL0     H21357   0.719   9.457   8.552 -3.6294  0.7515 -1.2814
  899MOL0     H21358   0.689   9.529   8.400  1.8268 -0.2588 -2.0599
  899MOL0     H21359   0.940   9.409   8.483  1.3418  1.2550 -0.1283
  899MOL0     H21360   0.905   9.405   8.301 -2.3083 -0.8918 -0.6352
  899MOL0     H21361   0.986   9.813   8.381  0.5611  0.3758  0.5593
  899MOL0     H21362   0.792   9.178   8.051 -4.5833  2.6682 -1.8322
  899MOL0     H21363   0.947   8.987   7.809  0.4731  0.7799  1.1848
  899MOL0     H21364   0.776   9.025   7.737 -2.1612 -0.4091  1.5550
  899MOL0     H21365   0.883   9.140   7.822 -0.7209  0.5014 -1.1290
  900MOL0     O21366  10.315   3.400  10.978 -0.1131  0.0095  0.0997
  900MOL0     C21367  10.238   3.328  11.035  0.2811  0.0824  0.1392
  900MOL0     O21368  10.138   3.367  11.122  0.2264 -0.2010 -0.4651
  900MOL0     C21369  10.125   3.500  11.154  0.0792 -0.3993  0.1956
  900MOL0     C21370  10.135   3.612  11.066  0.3446  1.0706 -0.2816
  900MOL0     C21371  10.109   3.743  11.102 -0.3834  0.5668 -0.5877
  900MOL0     C21372  10.083   3.766  11.238  0.4404  0.0320  0.2633
  900MOL0     O21373  10.062   3.882  11.284  0.3132 -0.1908 -0.1412
  900MOL0     C21374  10.011   3.991  11.206 -0.8531 -0.5138 -0.1920
  900MOL0     C21375   9.946   4.081  11.311  0.3705  0.8616  0.7723
  900MOL0     C21376  10.025   4.106  11.432 -0.2809 -0.1252  0.7567
  900MOL0     C21377  10.129   4.205  11.384 -0.7196 -0.4231  0.8508
  900MOL0     C21378  10.214   4.251  11.513  0.3433  0.3526 -0.4977
  900MOL0     C21379  10.277   4.390  11.476 -0.0178  0.3011  0.8783
  900MOL0     C21380  10.347   4.451  11.597 -0.6938 -0.1061 -1.2397
  900MOL0     C21381  10.492   4.401  11.631  0.8040 -0.1716 -0.3988
  900MOL0     N21382  10.599   4.493  11.590  0.0175  0.2411  0.0769
  900MOL0     C21383  10.645   4.609  11.666  0.0685  0.2730  0.4362
  900MOL0     C21384  10.713   4.685  11.575 -0.5866  0.4578 -0.0976
  900MOL0     C21385  10.774   4.818  11.602  0.3986 -0.1908 -0.3343
  900MOL0     C21386  10.923   4.803  11.622 -0.1180 -0.0844  0.0884
  900MOL0     C21387  10.987   4.940  11.638 -0.6796 -1.0176 -0.1322
  900MOL0     C21388  11.137   4.931  11.617  0.0376 -1.0668 -0.1622
  900MOL0     O21389  11.198   5.053  11.668  0.4098  0.3717 -0.7256
  900MOL0     C21390  11.333   5.067  11.674 -0.6711 -0.2496 -0.7799
  900MOL0     C21391  11.379   5.189  11.724  0.5368 -0.4412  0.3258
  900MOL0     C21392  11.510   5.219  11.731  0.4001 -0.0271  0.4642
  900MOL0     C21393  11.610   5.129  11.688  0.6384  0.6343  1.4677
  900MOL0     C21394  11.754   5.157  11.699 -0.2999  0.0781 -0.2232
  900MOL0     O21395  11.775   5.280  11.742 -0.4213 -0.6988  0.5791
  900MOL0     C21396  11.895   5.335  11.776  0.2960 -0.0958 -0.0886
  900MOL0     C21397  11.995   5.261  11.837 -0.3758 -0.1447  0.7741
  900MOL0     C21398  12.118   5.317  11.860 -0.6116  0.1403 -0.6306
  900MOL0     C21399  12.151   5.449  11.831 -0.2858 -0.9137  0.0836
  900MOL0     O21400  12.263   5.516  11.862 -0.3239 -0.3075  0.5166
  900MOL0     C21401  12.339   5.489  11.987 -0.0641  0.3644 -0.9735
  900MOL0     C21402  12.488   5.538  11.976 -0.0040  0.5406 -0.1490
  900MOL0     C21403  12.500   5.687  11.985 -0.0560  0.9091 -0.5104
  900MOL0     C21404  12.638   5.752  11.997  0.2727 -0.1240  0.1429
  900MOL0     C21405  12.622   5.904  11.993 -0.0688 -0.2686 -0.3385
  900MOL0     C21406  12.762   5.963  11.997  0.0491 -0.2839 -0.7269
  900MOL0     C21407  12.786   6.104  11.947 -0.5299 -0.4610 -0.1849
  900MOL0     C21408  12.902   6.156  12.016 -0.0415  0.2487 -0.5696
  900MOL0    Cl21409  12.928   6.328  11.951  0.4827 -0.2018  0.1126
  900MOL0     C21410  12.049   5.522  11.765  0.0402 -0.1786 -0.0996
  900MOL0     C21411  11.923   5.470  11.745 -0.2900  0.5768 -0.0101
  900MOL0     O21412  11.839   5.072  11.673 -0.5115  0.1477 -0.0977
  900MOL0     C21413  11.568   5.010  11.620  0.1932  0.1482  0.6846
  900MOL0     C21414  11.434   4.988  11.613  0.1231  0.7748 -0.2756
  900MOL0     N21415  10.715   4.607  11.461  0.0449 -0.6856  0.7347
  900MOL0     N21416  10.653   4.494  11.464  0.3612 -0.1949  0.1810
  900MOL0     C21417  10.090   3.659  11.328 -0.3263 -0.2446 -0.8467
  900MOL0     C21418  10.098   3.529  11.286 -0.3519  0.6034  1.1699
  900MOL0     C21419  10.236   3.190  10.981 -0.5101  0.6513 -0.2320
  900MOL0     C21420  10.125   3.124  11.025 -0.3279 -0.3955 -0.3394
  900MOL0     C21421  10.104   2.996  10.989 -0.7412  0.6182 -0.8009
  900MOL0     C21422  10.190   2.925  10.907 -0.1616 -0.2842 -0.2604
  900MOL0     O21423  10.141   2.800  10.889 -0.0594  0.4121  0.4264
  900MOL0     C21424  10.230   2.707  10.818 -0.0972 -0.0150  0.1331
  900MOL0     C21425  10.210   2.561  10.810  0.5300 -0.2972 -0.4232
  900MOL0     C21426  10.089   2.524  10.729  0.5450  0.6118  0.4586
  900MOL0     C21427  10.046   2.385  10.751 -0.4439 -0.1894 -0.2615
  900MOL0     C21428   9.901   2.366  10.750 -0.0905 -0.2761  0.1326
  900MOL0     C21429   9.782   2.353  10.752 -0.4877 -0.8444 -0.6815
  900MOL0     C21430  10.307   2.991  10.864  0.1173  0.5920  0.9889
  900MOL0     C21431  10.331   3.129  10.899  0.6548  0.5928  0.0193
  900MOL0     C21432  10.458   3.187  10.844 -0.5908 -0.3864 -0.4057
  900MOL0     H21433  10.139   3.591  10.959  1.1767  0.3214 -0.1189
  900MOL0     H21434  10.112   3.821  11.026 -0.3102  0.5609 -0.5906
  900MOL0     H21435  10.095   4.047  11.165  0.5412 -1.0906  1.7311
  900MOL0     H21436   9.936   3.955  11.135 -1.3202  0.4045 -0.1793
  900MOL0     H21437   9.861   4.018  11.341 -1.3078  2.2169 -0.8850
  900MOL0     H21438   9.904   4.167  11.258 -0.6990 -1.2004 -1.9937
  900MOL0     H21439  10.060   4.014  11.480  1.0826  0.2726  0.5737
  900MOL0     H21440   9.974   4.159  11.513  2.4566  0.8017  1.9845
  900MOL0     H21441  10.200   4.168  11.310  0.3752  3.4821 -0.3015
  900MOL0     H21442  10.082   4.287  11.329 -0.3789 -0.7370  0.0855
  900MOL0     H21443  10.154   4.265  11.603  1.4254  0.8163  0.1683
  900MOL0     H21444  10.280   4.169  11.543  0.1465 -1.3928 -4.2501
  900MOL0     H21445  10.350   4.385  11.395 -3.3345  0.3017 -2.4173
  900MOL0     H21446  10.198   4.451  11.431 -0.5653 -0.6487  0.5022
  900MOL0     H21447  10.280   4.454  11.684  1.2500  0.3121  0.2935
  900MOL0     H21448  10.363   4.552  11.557 -1.2845  0.8398  0.8013
  900MOL0     H21449  10.498   4.375  11.737 -0.1510  0.0992 -0.2648
  900MOL0     H21450  10.500   4.309  11.573 -2.6128 -1.0846  0.3628
  900MOL0     H21451  10.616   4.618  11.770 -2.4425 -0.4913 -0.1378
  900MOL0     H21452  10.763   4.876  11.510  1.6414 -0.4994 -0.6968
  900MOL0     H21453  10.710   4.869  11.674 -0.1781 -0.1084 -0.8961
  900MOL0     H21454  10.942   4.761  11.721  1.9940  1.2198  0.2948
  900MOL0     H21455  10.963   4.742  11.541 -2.9757  0.6671 -2.0684
  900MOL0     H21456  10.970   4.977  11.739  0.3807 -0.0894 -0.2780
  900MOL0     H21457  10.954   5.007  11.558 -2.9043  0.0248  1.5727
  900MOL0     H21458  11.157   4.935  11.510  2.3926 -1.6884  0.1924
  900MOL0     H21459  11.176   4.836  11.656 -0.6233 -1.2760  0.0189
  900MOL0     H21460  11.310   5.264  11.761  2.5075  2.0014 -0.6686
  900MOL0     H21461  11.550   5.317  11.754  0.4896  0.1142 -0.2614
  900MOL0     H21462  11.976   5.158  11.866 -1.5088 -0.7246 -1.7472
  900MOL0     H21463  12.187   5.256  11.918 -0.1632 -1.1864 -2.4675
  900MOL0     H21464  12.288   5.540  12.070  2.8161  0.3698  0.9219
  900MOL0     H21465  12.332   5.384  12.015 -1.3153  1.2010  2.4538
  900MOL0     H21466  12.549   5.498  12.058  1.8902  2.6550 -0.4269
  900MOL0     H21467  12.536   5.503  11.884  0.2862 -1.5603  0.7294
  900MOL0     H21468  12.454   5.738  11.900  1.1568 -1.6436 -2.8422
  900MOL0     H21469  12.462   5.711  12.085  2.5154  3.6508 -0.0506
  900MOL0     H21470  12.697   5.713  11.913 -1.9220  0.4986 -1.8094
  900MOL0     H21471  12.692   5.723  12.087  1.5169  1.9097  0.0959
  900MOL0     H21472  12.568   5.939  12.081  1.2205  1.4887 -0.1844
  900MOL0     H21473  12.569   5.935  11.903 -1.7699  0.2804  0.8004
  900MOL0     H21474  12.808   5.956  12.097  1.9937  4.3498 -1.0348
  900MOL0     H21475  12.825   5.900  11.934 -0.7259 -2.0844  0.2153
  900MOL0     H21476  12.699   6.164  11.977  0.6902  0.5633  1.4846
  900MOL0     H21477  12.805   6.100  11.839 -1.1099  0.0250 -0.3147
  900MOL0     H21478  12.896   6.160  12.125 -0.0313  3.7319 -0.5913
  900MOL0     H21479  12.995   6.102  11.995 -0.8949 -2.4167  1.8997
  900MOL0     H21480  12.070   5.625  11.741  1.0493 -0.1631  0.8154
  900MOL0     H21481  11.850   5.533  11.696  1.3202  0.7320 -2.4133
  900MOL0     H21482  11.637   4.949  11.563 -0.4257 -0.3895  0.5023
  900MOL0     H21483  11.408   4.903  11.551  0.1160  1.7571 -1.6735
  900MOL0     H21484  10.068   3.680  11.433  2.2689 -1.3938 -0.0047
  900MOL0     H21485  10.078   3.449  11.357 -1.6728  1.9165  2.3543
  900MOL0     H21486  10.054   3.171  11.091  2.6591  0.8057  2.2376
  900MOL0     H21487  10.018   2.936  11.019 -0.4977  1.2001  1.2638
  900MOL0     H21488  10.320   2.719  10.878 -0.9116 -0.6944  1.5409
  900MOL0     H21489  10.257   2.748  10.720  0.9341  0.9771  0.8001
  900MOL0     H21490  10.192   2.529  10.913 -0.3212  0.6384 -0.2726
  900MOL0     H21491  10.297   2.506  10.772  0.6397  0.5617 -1.4631
  900MOL0     H21492  10.097   2.530  10.620 -0.6563  0.1082  0.3273
  900MOL0     H21493  10.008   2.597  10.734  2.0218  2.8985 -3.7258
  900MOL0     H21494  10.078   2.327  10.664 -3.2202 -2.1576 -0.1223
  900MOL0     H21495  10.098   2.329  10.829 -2.0972 -0.4198  0.7220
  900MOL0     H21496   9.675   2.351  10.750 -0.5079 -3.3798 -1.8471
  900MOL0     H21497  10.384   2.942  10.806 -2.2770 -3.0260  0.5382
  900MOL0     H21498  10.545   3.123  10.862 -0.3328 -0.2183 -1.0050
  900MOL0     H21499  10.448   3.194  10.735 -1.1558  0.3797 -0.3100
  900MOL0     H21500  10.485   3.283  10.888 -0.2142 -1.4040  1.7142
  901MOL0     O21501   4.432   8.182  11.231 -0.2328  0.7696  0.0113
  901MOL0     C21502   4.337   8.133  11.178  0.3730  0.3530  0.4645
  901MOL0     O21503   4.314   8.124  11.039 -0.2864  0.0134  0.1010
  901MOL0     C21504   4.424   8.139  10.966  0.1524 -0.7296  0.2792
  901MOL0     C21505   4.523   8.038  10.971 -0.3491 -0.0224  0.2871
  901MOL0     C21506   4.640   8.051  10.892  0.1923 -0.6968 -0.2171
  901MOL0     C21507   4.656   8.168  10.814  0.3147 -0.4141 -0.8667
  901MOL0     O21508   4.761   8.159  10.726 -0.4857 -0.9234 -0.8169
  901MOL0     C21509   4.825   8.275  10.676  0.7845  0.2920 -0.5096
  901MOL0     C21510   4.905   8.346  10.787  0.0116  0.2050  0.5552
  901MOL0     C21511   5.023   8.254  10.828 -0.6050  0.9248  0.2189
  901MOL0     C21512   5.089   8.288  10.963  0.1954  0.2150 -0.9629
  901MOL0     C21513   5.210   8.189  10.989 -0.1854  0.6067 -0.4363
  901MOL0     C21514   5.260   8.230  11.133  1.2828 -0.2528  0.2364
  901MOL0     C21515   5.390   8.152  11.157  0.1064 -0.3245  0.7289
  901MOL0     C21516   5.436   8.173  11.296  0.8902 -0.8905  0.2678
  901MOL0     N21517   5.544   8.080  11.333  0.0966  0.4500  0.2866
  901MOL0     C21518   5.679   8.083  11.312  0.0099  1.1201 -0.4629
  901MOL0     C21519   5.725   7.967  11.345  0.2240  1.1193  0.0353
  901MOL0     C21520   5.864   7.914  11.360  1.0277 -0.1757  0.0207
  901MOL0     C21521   5.860   7.769  11.312  0.2398 -0.7285 -0.6744
  901MOL0     C21522   6.001   7.714  11.277 -0.7652 -0.7594  0.2773
  901MOL0     C21523   6.006   7.562  11.250 -0.6290 -0.0583  0.5737
  901MOL0     O21524   6.147   7.523  11.259  0.1144  0.2363 -0.1033
  901MOL0     C21525   6.164   7.393  11.306  0.3000  0.4665 -0.7902
  901MOL0     C21526   6.301   7.365  11.334 -0.3656  0.2673  0.3909
  901MOL0     C21527   6.341   7.236  11.387  0.4940  0.0256 -0.6622
  901MOL0     C21528   6.241   7.140  11.416 -0.5974  0.6680  0.2379
  901MOL0     C21529   6.271   7.007  11.467  0.2370  0.3783 -0.0961
  901MOL0     O21530   6.170   6.922  11.507  0.4461 -0.0221 -0.1186
  901MOL0     C21531   6.194   6.809  11.583 -0.1212 -1.1687  0.3705
  901MOL0     C21532   6.294   6.701  11.565  0.3956 -1.0283  0.4505
  901MOL0     C21533   6.284   6.577  11.632  0.8154  0.1593 -0.3695
  901MOL0     C21534   6.175   6.552  11.716 -0.2810 -0.2979 -0.0407
  901MOL0     O21535   6.158   6.423  11.762  0.2450  0.3531  0.1386
  901MOL0     C21536   6.030   6.376  11.777  1.3070  0.6168  0.2745
  901MOL0     C21537   6.026   6.224  11.766 -0.3737 -0.8800  0.8422
  901MOL0     C21538   5.883   6.164  11.789  0.3209  0.9384  0.2089
  901MOL0     C21539   5.881   6.002  11.749 -0.2334 -0.9107  0.5734
  901MOL0     C21540   5.743   5.948  11.718 -0.2356 -1.4426 -0.0346
  901MOL0     C21541   5.634   5.999  11.817 -1.2281  0.2397 -0.6129
  901MOL0     C21542   5.494   5.963  11.758 -0.7949  0.3153 -0.4168
  901MOL0     C21543   5.374   5.992  11.843  0.5297  0.2067 -0.5706
  901MOL0    Cl21544   5.351   6.167  11.897  0.2888 -0.1077  0.1382
  901MOL0     C21545   6.076   6.651  11.727  0.1651  0.5870 -0.3133
  901MOL0     C21546   6.080   6.778  11.657 -0.6043  0.1425  0.1643
  901MOL0     O21547   6.393   6.980  11.471  0.0274 -0.5582 -0.4529
  901MOL0     C21548   6.110   7.177  11.393  0.5828 -0.0672  0.0244
  901MOL0     C21549   6.065   7.299  11.339  0.2498 -0.0820 -0.1708
  901MOL0     N21550   5.611   7.901  11.408 -0.9444 -0.6319  0.7048
  901MOL0     N21551   5.506   7.973  11.401  0.9491  0.0520 -0.6664
  901MOL0     C21552   4.554   8.269  10.809 -0.6855 -0.2879  0.4968
  901MOL0     C21553   4.441   8.254  10.889  0.1619 -0.4457 -0.5334
  901MOL0     C21554   4.224   8.103  11.262  0.6833  0.3420 -0.0006
  901MOL0     C21555   4.111   8.059  11.187  0.8920  0.1470  0.9571
  901MOL0     C21556   4.001   8.004  11.254 -0.2843  0.1214 -0.3189
  901MOL0     C21557   3.991   7.988  11.391 -0.6360  0.5730  0.3933
  901MOL0     O21558   3.888   7.950  11.467  0.1527  0.1551  0.4094
  901MOL0     C21559   3.752   7.966  11.423  0.1858 -0.0981  0.1605
  901MOL0     C21560   3.646   7.910  11.518  0.6806  0.0895 -1.0190
  901MOL0     C21561   3.623   7.758  11.486 -0.3058 -0.2358 -0.8582
  901MOL0     C21562   3.593   7.725  11.330  0.1457 -0.4122 -1.6301
  901MOL0     C21563   3.715   7.684  11.258  0.2172 -0.3639  0.2729
  901MOL0     C21564   3.821   7.645  11.210 -0.2284  0.2711 -0.2758
  901MOL0     C21565   4.096   8.032  11.467 -0.5210  0.9064  0.6872
  901MOL0     C21566   4.209   8.102  11.405 -0.7633  0.0858 -0.5293
  901MOL0     C21567   4.315   8.143  11.505 -0.6595 -0.7220 -0.2004
  901MOL0     H21568   4.504   7.953  11.036  0.7205 -0.2253  0.3569
  901MOL0     H21569   4.720   7.977  10.901 -0.2279 -0.9366  2.8934
  901MOL0     H21570   4.888   8.247  10.591 -1.0559  3.2364 -3.0974
  901MOL0     H21571   4.743   8.335  10.633 -2.0972 -2.4838  0.6849
  901MOL0     H21572   4.840   8.378  10.869  1.0738  0.0504  1.4681
  901MOL0     H21573   4.965   8.425  10.741  2.4404 -3.0735 -2.5548
  901MOL0     H21574   5.102   8.262  10.753 -0.0083 -0.4675  0.6683
  901MOL0     H21575   4.992   8.149  10.831  0.1803  0.7063  1.7265
  901MOL0     H21576   5.119   8.393  10.971 -0.5561  0.2851  1.7830
  901MOL0     H21577   5.028   8.274  11.052 -1.2012 -0.9723 -2.0641
  901MOL0     H21578   5.179   8.084  10.980 -0.3141  0.3964  1.8160
  901MOL0     H21579   5.293   8.191  10.917  1.4398 -2.7294  1.0735
  901MOL0     H21580   5.281   8.336  11.143 -1.6781  0.2840  2.2539
  901MOL0     H21581   5.180   8.208  11.204 -0.9198 -0.1014 -2.0587
  901MOL0     H21582   5.478   8.186  11.102 -0.2487 -1.9871 -0.9524
  901MOL0     H21583   5.368   8.045  11.153 -3.4647  0.3154 -2.1527
  901MOL0     H21584   5.476   8.275  11.307 -2.1197  0.4686 -0.3110
  901MOL0     H21585   5.356   8.174  11.370  1.9881  2.8889  1.6622
  901MOL0     H21586   5.736   8.158  11.256  0.4328 -0.6904 -2.6288
  901MOL0     H21587   5.932   7.970  11.297  1.1303 -1.2344 -0.8365
  901MOL0     H21588   5.903   7.909  11.462  2.1815 -0.8603 -0.4334
  901MOL0     H21589   5.820   7.708  11.393 -0.3070  0.1361 -0.2824
  901MOL0     H21590   5.797   7.757  11.223 -0.1143  1.0367 -0.7155
  901MOL0     H21591   6.069   7.736  11.359 -1.1531  1.5537  0.0504
  901MOL0     H21592   6.037   7.770  11.190  2.1225 -4.5347 -1.2753
  901MOL0     H21593   5.976   7.553  11.145 -3.0853  0.3648  1.1690
  901MOL0     H21594   5.932   7.508  11.309 -0.1972 -1.4620 -0.1169
  901MOL0     H21595   6.380   7.439  11.329  2.0544 -2.1561  0.7275
  901MOL0     H21596   6.443   7.206  11.409  0.2586  1.2124  2.6489
  901MOL0     H21597   6.369   6.714  11.488 -0.6549 -3.4389 -1.1231
  901MOL0     H21598   6.359   6.502  11.613  0.8220 -0.7999  2.7913
  901MOL0     H21599   5.994   6.400  11.877 -1.7389 -1.6100 -0.1396
  901MOL0     H21600   5.960   6.416  11.702  3.8518  1.6940 -1.6900
  901MOL0     H21601   6.055   6.205  11.662 -1.6657 -1.6952  0.6058
  901MOL0     H21602   6.096   6.176  11.836 -2.5802 -1.6638  2.6073
  901MOL0     H21603   5.851   6.197  11.888  1.1200 -0.5149  0.9913
  901MOL0     H21604   5.817   6.206  11.712  1.5668  0.3167 -1.2500
  901MOL0     H21605   5.922   5.942  11.831 -1.1305 -1.8665  0.3528
  901MOL0     H21606   5.936   5.981  11.657 -0.9037 -1.5089  0.3026
  901MOL0     H21607   5.753   5.839  11.716 -1.0185 -1.8503 -6.9303
  901MOL0     H21608   5.707   5.963  11.616 -2.7258 -0.5166  0.9092
  901MOL0     H21609   5.639   5.959  11.919  0.7798 -0.3412 -0.9144
  901MOL0     H21610   5.647   6.108  11.819  2.3953 -0.0661  1.3070
  901MOL0     H21611   5.480   5.856  11.741 -3.0595 -0.5108  4.6976
  901MOL0     H21612   5.477   6.000  11.657  2.1632 -1.9752 -1.9082
  901MOL0     H21613   5.281   5.961  11.793 -0.4010  2.4378 -0.3608
  901MOL0     H21614   5.380   5.937  11.937  0.6769 -0.1419 -0.7825
  901MOL0     H21615   5.999   6.609  11.790  1.8048 -2.2476 -0.0281
  901MOL0     H21616   5.996   6.847  11.660 -0.1972  0.6336  2.5988
  901MOL0     H21617   6.028   7.106  11.402  0.1143  0.5296  0.5907
  901MOL0     H21618   5.958   7.316  11.333 -0.2153 -2.8304 -1.0717
  901MOL0     H21619   4.572   8.364  10.758 -2.5120  0.4997  1.2052
  901MOL0     H21620   4.379   8.342  10.904  2.2723  0.8401  1.2168
  901MOL0     H21621   4.100   8.069  11.080  2.6458  1.6350  0.8712
  901MOL0     H21622   3.913   7.974  11.199 -0.1398  1.2454 -1.1822
  901MOL0     H21623   3.733   7.926  11.323 -0.4455 -1.0901  0.6601
  901MOL0     H21624   3.737   8.073  11.408  2.1296  0.3472  1.0752
  901MOL0     H21625   3.557   7.971  11.499  1.8364  1.6324 -1.6613
  901MOL0     H21626   3.677   7.930  11.621 -3.0055  0.2161  0.2138
  901MOL0     H21627   3.541   7.722  11.549 -1.9572  2.3165 -1.4293
  901MOL0     H21628   3.716   7.702  11.503  0.1837  0.8597  0.2379
  901MOL0     H21629   3.522   7.642  11.333 -0.7714  0.3698 -0.3546
  901MOL0     H21630   3.539   7.808  11.284 -0.1806  0.0681 -0.4439
  901MOL0     H21631   3.918   7.641  11.165  0.0714 -0.6844  0.4077
  901MOL0     H21632   4.101   8.017  11.574  2.0981 -3.4967  0.2036
  901MOL0     H21633   4.370   8.058  11.547 -0.9364 -0.1420  1.4203
  901MOL0     H21634   4.392   8.211  11.465 -1.9172  1.1388  0.3957
  901MOL0     H21635   4.268   8.201  11.585 -0.7739  1.7816 -1.9551
  902MOL0     O21636   4.127   1.136   5.606 -0.8652  0.0711 -0.7820
  902MOL0     C21637   4.117   1.081   5.494 -0.6582 -0.1806 -0.9364
  902MOL0     O21638   4.156   0.950   5.473 -0.1509  0.8639  0.5492
  902MOL0     C21639   4.201   0.875   5.578  0.3989  0.4033 -0.5711
  902MOL0     C21640   4.317   0.902   5.641 -0.6587 -0.0978 -0.3946
  902MOL0     C21641   4.344   0.837   5.756 -0.8586 -0.2120  0.5318
  902MOL0     C21642   4.261   0.743   5.812 -0.4464  0.5405 -0.7284
  902MOL0     O21643   4.278   0.698   5.940  0.6879  0.3926 -0.5618
  902MOL0     C21644   4.403   0.638   5.972 -0.4748 -0.8446 -0.2691
  902MOL0     C21645   4.399   0.634   6.129  0.1914 -0.8049  0.2703
  902MOL0     C21646   4.537   0.627   6.187  0.0255  0.7516  0.2725
  902MOL0     C21647   4.545   0.697   6.315 -0.9526  0.5594 -0.4146
  902MOL0     C21648   4.689   0.711   6.368 -0.2600  0.0032  0.0725
  902MOL0     C21649   4.678   0.749   6.517 -0.9438  0.0591 -0.1054
  902MOL0     C21650   4.815   0.781   6.576 -0.0397 -0.2029  0.5529
  902MOL0     C21651   4.845   0.926   6.549  0.1056 -0.2122  0.5246
  902MOL0     N21652   4.992   0.950   6.591  0.5728  0.6751 -0.1734
  902MOL0     C21653   5.020   0.933   6.724 -0.2948 -1.8036 -0.0290
  902MOL0     C21654   5.154   0.960   6.721  0.3022  0.6825  0.0052
  902MOL0     C21655   5.250   0.961   6.845 -0.0693 -0.0641  0.0475
  902MOL0     C21656   5.209   0.862   6.959 -0.8893 -0.3543  0.2660
  902MOL0     C21657   5.219   0.715   6.902  0.0760  0.1148 -0.3173
  902MOL0     C21658   5.147   0.606   6.996  0.1458 -0.8073  0.2637
  902MOL0     O21659   5.007   0.613   6.952  0.2439 -0.4890  0.3382
  902MOL0     C21660   4.915   0.547   7.039 -0.2095  0.2292  0.5143
  902MOL0     C21661   4.781   0.550   7.001  0.4486  0.0947  0.0797
  902MOL0     C21662   4.683   0.478   7.073  0.7387  0.0812  0.7691
  902MOL0     C21663   4.717   0.419   7.195 -0.1876  0.8684 -1.2688
  902MOL0     C21664   4.621   0.334   7.274 -1.0949  0.1566  0.3322
  902MOL0     O21665   4.496   0.354   7.254 -1.0618 -0.1175  0.4008
  902MOL0     C21666   4.403   0.276   7.317 -0.5083  0.0322  0.7427
  902MOL0     C21667   4.305   0.345   7.385  0.1771 -0.2734 -0.2122
  902MOL0     C21668   4.194   0.290   7.435  0.6711 -0.0166  0.1823
  902MOL0     C21669   4.184   0.154   7.431  0.5490 -0.4228  0.2983
  902MOL0     O21670   4.063   0.099   7.478  0.1633  0.0640 -0.3046
  902MOL0     C21671   4.048  -0.035   7.446  0.2987  0.0156  0.1423
  902MOL0     C21672   3.900  -0.077   7.457  0.3457 -0.8195  0.4661
  902MOL0     C21673   3.791  -0.006   7.366 -0.1344 -0.1903 -0.1184
  902MOL0     C21674   3.801  -0.039   7.217 -0.6194 -0.3052  0.4952
  902MOL0     C21675   3.719   0.046   7.114 -0.5424  1.1981  0.1612
  902MOL0     C21676   3.733  -0.003   6.965 -0.6113  0.0340  0.2342
  902MOL0     C21677   3.656   0.085   6.876 -0.3161 -0.5559  0.5033
  902MOL0     C21678   3.679   0.034   6.737  1.3250 -0.3497 -0.2120
  902MOL0    Cl21679   3.581   0.155   6.648  0.3758  0.0229 -0.1683
  902MOL0     C21680   4.286   0.076   7.365  0.4584  0.3949  0.1155
  902MOL0     C21681   4.396   0.141   7.312 -0.4269  0.0434 -1.0924
  902MOL0     O21682   4.671   0.251   7.347  0.8299  0.0025 -0.7250
  902MOL0     C21683   4.857   0.418   7.227  0.2922  1.0336 -0.2127
  902MOL0     C21684   4.955   0.475   7.146  0.4185 -0.3062  0.0192
  902MOL0     N21685   5.212   0.992   6.592 -0.0502 -0.4788 -0.5976
  902MOL0     N21686   5.102   0.983   6.512  0.3375  0.4975 -0.7241
  902MOL0     C21687   4.141   0.711   5.750  0.8145 -0.8618  0.1737
  902MOL0     C21688   4.118   0.772   5.631  0.6827 -1.0775 -0.1151
  902MOL0     C21689   4.077   1.174   5.388 -0.1314  0.3317 -0.6349
  902MOL0     C21690   4.036   1.121   5.268  0.2898 -0.6591 -0.2484
  902MOL0     C21691   3.992   1.203   5.168 -0.3435 -0.4563  0.5975
  902MOL0     C21692   3.978   1.347   5.178  0.5859  0.5936 -0.8972
  902MOL0     O21693   3.938   1.423   5.069  0.4750 -0.3430  0.2527
  902MOL0     C21694   3.913   1.562   5.088 -0.4505  0.0302 -0.5170
  902MOL0     C21695   4.035   1.648   5.087 -0.4673  0.9980  0.4705
  902MOL0     C21696   4.087   1.671   4.943 -0.6170  0.0836  0.7363
  902MOL0     C21697   3.995   1.740   4.841 -0.3425 -0.3441 -0.5594
  902MOL0     C21698   3.957   1.875   4.882  0.0839 -0.3885  0.1386
  902MOL0     C21699   3.924   1.992   4.908  0.2611  0.1422  1.0946
  902MOL0     C21700   3.989   1.392   5.313  0.6745  0.3215  0.4209
  902MOL0     C21701   4.039   1.308   5.416 -0.1118  0.2123  0.2433
  902MOL0     C21702   4.050   1.387   5.547  0.0660  0.5664  0.1820
  902MOL0     H21703   4.386   0.968   5.590  1.1154  0.5277  2.5774
  902MOL0     H21704   4.434   0.864   5.812 -0.8076 -2.4431  1.6637
  902MOL0     H21705   4.421   0.539   5.928  0.8931 -0.0456 -1.5937
  902MOL0     H21706   4.486   0.701   5.942 -0.8178  0.8362  2.0814
  902MOL0     H21707   4.324   0.563   6.162 -3.1811  1.8814 -1.0188
  902MOL0     H21708   4.360   0.730   6.163 -3.4670 -1.6671 -0.9870
  902MOL0     H21709   4.615   0.677   6.130 -0.9213  2.3593  0.3409
  902MOL0     H21710   4.556   0.519   6.194  0.5211  0.4814 -3.3629
  902MOL0     H21711   4.515   0.801   6.308  0.2225  1.2333  2.7102
  902MOL0     H21712   4.482   0.644   6.387 -2.6571  4.6592  1.4320
  902MOL0     H21713   4.756   0.625   6.361 -0.4280 -0.2329  1.1246
  902MOL0     H21714   4.732   0.792   6.309  1.0231 -2.9623 -3.3994
  902MOL0     H21715   4.608   0.830   6.534  0.1629  1.4448 -1.8351
  902MOL0     H21716   4.639   0.667   6.579 -0.9703  1.6322  2.0712
  902MOL0     H21717   4.898   0.722   6.538  0.7958  1.6182 -0.6022
  902MOL0     H21718   4.793   0.762   6.682 -1.8865  2.3419  0.7122
  902MOL0     H21719   4.842   0.948   6.442  2.7338  0.9643  0.6111
  902MOL0     H21720   4.780   0.994   6.604  3.1951  3.4811  0.0650
  902MOL0     H21721   4.958   0.907   6.810 -2.4208  3.8228  0.5738
  902MOL0     H21722   5.354   0.955   6.810  0.5857  3.1825  1.1173
  902MOL0     H21723   5.240   1.056   6.897 -2.3952 -0.9378  1.3337
  902MOL0     H21724   5.283   0.876   7.038 -1.0600 -1.4127  0.6188
  902MOL0     H21725   5.110   0.895   6.993 -0.5933 -1.6963  2.6286
  902MOL0     H21726   5.325   0.687   6.894  0.5040  1.0140  1.6132
  902MOL0     H21727   5.165   0.700   6.808 -1.5678  0.1182  0.5960
  902MOL0     H21728   5.161   0.634   7.100 -0.5113 -1.1451  0.4466
  902MOL0     H21729   5.190   0.508   6.974  3.0815  0.8461 -2.1542
  902MOL0     H21730   4.752   0.604   6.911  1.1571 -1.2333 -0.9744
  902MOL0     H21731   4.578   0.494   7.051  1.0075  2.0037  0.7477
  902MOL0     H21732   4.319   0.451   7.403 -0.2829  0.5112 -3.7421
  902MOL0     H21733   4.108   0.347   7.470  1.0718  1.4348 -1.0927
  902MOL0     H21734   4.065  -0.063   7.341 -4.7439 -1.7216 -0.4869
  902MOL0     H21735   4.107  -0.106   7.504 -0.0975 -0.2895  0.1755
  902MOL0     H21736   3.907  -0.181   7.423  1.7799 -0.0771 -1.7186
  902MOL0     H21737   3.862  -0.056   7.557 -2.1352  4.2067 -1.2053
  902MOL0     H21738   3.687  -0.025   7.394 -0.7269  2.7215  0.0057
  902MOL0     H21739   3.797   0.103   7.378  1.1459 -0.3680  1.2681
  902MOL0     H21740   3.753  -0.134   7.194 -0.8876 -0.3827  1.3096
  902MOL0     H21741   3.904  -0.053   7.184 -0.4379  4.0110 -1.4685
  902MOL0     H21742   3.741   0.153   7.125  2.5675  0.9510 -2.3212
  902MOL0     H21743   3.617   0.022   7.148 -0.4706  0.2851 -0.2325
  902MOL0     H21744   3.840  -0.008   6.944 -0.7850 -3.2505 -0.3536
  902MOL0     H21745   3.684  -0.101   6.965 -0.9011  0.1744  0.7680
  902MOL0     H21746   3.688   0.189   6.894 -1.7454 -0.1820  1.0045
  902MOL0     H21747   3.550   0.072   6.901  0.0031 -0.7469  1.8298
  902MOL0     H21748   3.781   0.017   6.699  1.7142 -3.8509  1.9934
  902MOL0     H21749   3.636  -0.066   6.731 -4.5254  1.5706  2.7169
  902MOL0     H21750   4.276  -0.032   7.368 -0.6391  0.4344 -1.1526
  902MOL0     H21751   4.485   0.092   7.275 -1.2323 -2.3786 -0.0302
  902MOL0     H21752   4.879   0.364   7.319  1.2890  0.5577 -0.7103
  902MOL0     H21753   5.058   0.453   7.172  0.0591 -2.4230 -0.2107
  902MOL0     H21754   4.070   0.634   5.775  0.7913 -0.3578  1.7643
  902MOL0     H21755   4.026   0.758   5.576  1.5084  1.8411 -2.4988
  902MOL0     H21756   4.023   1.014   5.259  0.8269 -0.9038  1.6255
  902MOL0     H21757   3.979   1.156   5.072 -2.1247 -0.1478  0.6539
  902MOL0     H21758   3.852   1.575   5.178  1.0540  1.8308  0.2907
  902MOL0     H21759   3.851   1.583   5.000  0.5146 -4.2202 -2.4951
  902MOL0     H21760   4.111   1.594   5.144 -1.8167 -1.2648  0.2782
  902MOL0     H21761   4.020   1.744   5.136 -0.9140  1.8889 -1.3268
  902MOL0     H21762   4.097   1.572   4.897 -0.2854  1.3412 -2.1211
  902MOL0     H21763   4.188   1.713   4.944 -0.1969 -0.8957  1.1174
  902MOL0     H21764   4.061   1.748   4.755  2.4464  3.0107  1.6137
  902MOL0     H21765   3.900   1.691   4.818 -0.7601  0.1279  0.1114
  902MOL0     H21766   3.908   2.098   4.900 -1.4659 -0.2573 -2.9777
  902MOL0     H21767   3.958   1.496   5.324  0.4395  0.1000  2.0817
  902MOL0     H21768   3.970   1.351   5.612 -1.0059  1.2164 -0.7487
  902MOL0     H21769   4.149   1.380   5.593 -0.8606  0.5959  2.2705
  902MOL0     H21770   4.034   1.494   5.530 -1.4520  0.1479 -1.3224
  903MOL0     O21771   4.387   6.653   6.572 -0.0807 -0.0495 -0.0102
  903MOL0     C21772   4.296   6.660   6.658 -0.2510  0.6365 -0.4100
  903MOL0     O21773   4.277   6.765   6.745  0.3252 -0.2010 -0.4574
  903MOL0     C21774   4.367   6.872   6.729  0.5346 -0.5762 -0.3033
  903MOL0     C21775   4.493   6.873   6.787 -0.6360 -0.4893 -1.0139
  903MOL0     C21776   4.585   6.967   6.763 -0.5024  1.2352 -0.5005
  903MOL0     C21777   4.550   7.089   6.694 -0.5912 -1.3051  0.4147
  903MOL0     O21778   4.638   7.189   6.654 -0.6315 -0.4236  0.0505
  903MOL0     C21779   4.694   7.186   6.529 -0.6902  0.3457  0.5751
  903MOL0     C21780   4.808   7.288   6.517 -0.0429 -0.2587 -0.2634
  903MOL0     C21781   4.904   7.250   6.401 -0.9254 -0.5327  0.7306
  903MOL0     C21782   4.834   7.233   6.267  0.2754 -0.2099 -0.1470
  903MOL0     C21783   4.760   7.363   6.230 -0.0089 -0.2220  0.5147
  903MOL0     C21784   4.849   7.475   6.205 -0.5889 -0.7765 -0.9120
  903MOL0     C21785   4.786   7.607   6.178  0.3172 -0.3847 -0.7407
  903MOL0     C21786   4.883   7.715   6.122  1.5278  0.7646 -0.3130
  903MOL0     N21787   4.988   7.751   6.212 -0.2001  0.5896 -0.2283
  903MOL0     C21788   5.096   7.820   6.155  0.6531  0.3551  0.1110
  903MOL0     C21789   5.148   7.871   6.265 -0.2257  0.8577  0.8073
  903MOL0     C21790   5.265   7.969   6.262 -0.4859  0.4280  0.2847
  903MOL0     C21791   5.387   7.919   6.190 -0.5427 -0.6864  1.0308
  903MOL0     C21792   5.521   8.006   6.210 -0.4509  0.0827 -0.0352
  903MOL0     C21793   5.613   7.984   6.086  0.0702  0.1693  0.8013
  903MOL0     O21794   5.667   7.856   6.100 -0.4360  0.3372  0.2106
  903MOL0     C21795   5.782   7.821   6.026  0.8100  1.1399 -1.0639
  903MOL0     C21796   5.818   7.687   6.029 -0.2910  0.5742  0.0030
  903MOL0     C21797   5.947   7.647   5.983  1.1594  0.3624  0.0018
  903MOL0     C21798   6.034   7.733   5.926  0.6241  0.3795  0.0365
  903MOL0     C21799   6.167   7.692   5.897  1.2556 -0.1773  1.2628
  903MOL0     O21800   6.200   7.563   5.876 -0.0219  0.9784  1.4074
  903MOL0     C21801   6.338   7.539   5.845  0.6126 -0.1539 -0.5119
  903MOL0     C21802   6.383   7.608   5.729 -0.1653  0.5667 -0.4704
  903MOL0     C21803   6.516   7.584   5.677  0.4200 -0.1396  0.5081
  903MOL0     C21804   6.596   7.492   5.739  1.1476  0.3529 -0.3800
  903MOL0     O21805   6.731   7.495   5.714  0.5188  0.0155  0.2231
  903MOL0     C21806   6.807   7.373   5.705 -0.5614 -0.7618  0.2203
  903MOL0     C21807   6.917   7.401   5.609  0.2974  0.0743 -0.5201
  903MOL0     C21808   6.998   7.274   5.581  0.4494 -0.5225 -0.2273
  903MOL0     C21809   7.115   7.284   5.484  0.2528 -0.2260 -0.0830
  903MOL0     C21810   7.060   7.299   5.335 -0.0133  0.6254  0.9676
  903MOL0     C21811   7.175   7.307   5.226  0.5303  0.2684  0.8302
  903MOL0     C21812   7.157   7.428   5.134 -0.2032  0.1996  0.7528
  903MOL0     C21813   7.249   7.417   4.999  0.6505 -0.1297 -0.4240
  903MOL0    Cl21814   7.243   7.574   4.906  0.4212  0.4212  0.3918
  903MOL0     C21815   6.555   7.429   5.851  0.9309  0.0074 -0.2493
  903MOL0     C21816   6.426   7.449   5.910  0.8706 -0.2612 -0.2776
  903MOL0     O21817   6.248   7.780   5.909 -0.8873  0.7407 -0.6877
  903MOL0     C21818   5.991   7.866   5.926 -0.2717  0.4544  0.0064
  903MOL0     C21819   5.869   7.912   5.970  0.4177  0.9462 -0.1410
  903MOL0     N21820   5.068   7.857   6.380 -0.0469 -0.6862  0.3109
  903MOL0     N21821   4.968   7.786   6.337  0.1135  0.0631  0.0328
  903MOL0     C21822   4.422   7.095   6.642  0.2738 -0.2192 -0.5857
  903MOL0     C21823   4.329   6.991   6.660 -0.8538 -0.9141 -0.4338
  903MOL0     C21824   4.192   6.553   6.680 -0.0505  0.1252  0.8525
  903MOL0     C21825   4.110   6.549   6.792  0.5855 -0.1068  0.1510
  903MOL0     C21826   4.001   6.463   6.813 -0.6689 -0.3973  0.2776
  903MOL0     C21827   3.965   6.366   6.715 -0.7063 -0.7397 -0.0449
  903MOL0     O21828   3.855   6.279   6.724 -0.9834 -0.2214  0.2601
  903MOL0     C21829   3.814   6.249   6.856 -0.1803  0.3894 -0.1473
  903MOL0     C21830   3.726   6.130   6.860 -0.6613  0.0366  0.0555
  903MOL0     C21831   3.802   5.998   6.846  0.5999  0.6595 -0.7652
  903MOL0     C21832   3.714   5.873   6.854  0.0554  0.2180 -0.6395
  903MOL0     C21833   3.644   5.862   6.994 -0.2057  0.0434  0.7732
  903MOL0     C21834   3.595   5.862   7.102  0.2229 -0.5431  0.7855
  903MOL0     C21835   4.041   6.369   6.598  0.1220 -0.2696 -0.1676
  903MOL0     C21836   4.146   6.455   6.577 -0.3408  0.4674 -0.0016
  903MOL0     C21837   4.209   6.472   6.441  0.2784  0.0409 -0.0993
  903MOL0     H21838   4.529   6.783   6.835 -1.3432 -1.0453 -1.5173
  903MOL0     H21839   4.688   6.956   6.795 -1.4029  0.5589  2.5219
  903MOL0     H21840   4.742   7.088   6.527  0.2268  0.7941 -0.8465
  903MOL0     H21841   4.616   7.190   6.453 -2.7451 -1.7403  2.4052
  903MOL0     H21842   4.865   7.285   6.610 -2.0215 -1.3717  0.9832
  903MOL0     H21843   4.758   7.385   6.511 -2.5897 -1.3049  1.7900
  903MOL0     H21844   4.959   7.162   6.437  2.3137 -0.2459 -2.9094
  903MOL0     H21845   4.984   7.324   6.389  0.0830 -1.3049  2.3026
  903MOL0     H21846   4.910   7.220   6.190 -1.3708  1.5834 -2.2057
  903MOL0     H21847   4.765   7.148   6.270 -2.1466  1.5516 -2.0823
  903MOL0     H21848   4.698   7.338   6.144  0.7047 -2.3336  0.5575
  903MOL0     H21849   4.689   7.391   6.309  0.4258 -0.9539  1.1787
  903MOL0     H21850   4.909   7.476   6.297 -3.7296 -4.8576  1.5390
  903MOL0     H21851   4.914   7.464   6.118  0.3119 -0.7408 -0.2612
  903MOL0     H21852   4.727   7.641   6.264  2.1652  0.1445  0.3836
  903MOL0     H21853   4.710   7.585   6.103  1.5462  0.4576 -2.2906
  903MOL0     H21854   4.930   7.664   6.038  1.9834  1.6862 -0.6331
  903MOL0     H21855   4.829   7.806   6.097  2.3431  0.7799 -2.1748
  903MOL0     H21856   5.135   7.831   6.055  2.5962 -1.2796  0.6203
  903MOL0     H21857   5.228   8.055   6.205 -2.7617  0.2922  1.4351
  903MOL0     H21858   5.278   8.004   6.365 -5.2921  0.9670  0.9381
  903MOL0     H21859   5.413   7.822   6.233  1.4853 -0.5703  0.1522
  903MOL0     H21860   5.366   7.894   6.086  0.6946  0.3586  0.5099
  903MOL0     H21861   5.585   7.983   6.296  0.8937 -2.6857 -1.6367
  903MOL0     H21862   5.500   8.112   6.225  1.0732  0.1996  1.6573
  903MOL0     H21863   5.690   8.062   6.091 -1.4543  1.6854  3.2095
  903MOL0     H21864   5.553   7.987   5.995 -1.2629 -0.2759  1.6348
  903MOL0     H21865   5.752   7.617   6.078 -0.4117 -0.0457 -1.0036
  903MOL0     H21866   5.976   7.542   5.977 -1.3534 -0.5416  2.0509
  903MOL0     H21867   6.329   7.690   5.683 -0.2095  0.9939  0.3335
  903MOL0     H21868   6.548   7.644   5.593 -1.7152 -3.5819 -3.1299
  903MOL0     H21869   6.838   7.349   5.807 -0.7737 -1.0996  0.2064
  903MOL0     H21870   6.744   7.291   5.669  0.8242 -1.2612 -1.1723
  903MOL0     H21871   6.869   7.427   5.514  1.0063  1.1646 -0.6034
  903MOL0     H21872   6.982   7.480   5.650  1.7741 -1.0124 -0.7082
  903MOL0     H21873   7.044   7.236   5.673  1.5982 -0.3059 -0.7026
  903MOL0     H21874   6.923   7.208   5.536 -0.7783 -0.0295  1.0020
  903MOL0     H21875   7.176   7.194   5.488  0.1576 -0.2444  1.3938
  903MOL0     H21876   7.173   7.374   5.506  0.1503 -0.0064 -0.6623
  903MOL0     H21877   6.983   7.377   5.336 -0.9699 -0.2506  0.0634
  903MOL0     H21878   7.001   7.210   5.306  3.0451 -1.3385  0.3416
  903MOL0     H21879   7.274   7.324   5.270  2.1815 -0.1391 -2.4711
  903MOL0     H21880   7.179   7.211   5.173  2.9322  1.0954 -0.6614
  903MOL0     H21881   7.190   7.515   5.192  1.9498 -0.2855  0.3310
  903MOL0     H21882   7.054   7.431   5.097  0.8021  0.0612 -2.3021
  903MOL0     H21883   7.353   7.390   5.022  0.6742  1.2382  1.3944
  903MOL0     H21884   7.206   7.333   4.944  1.7886 -1.0547  0.0504
  903MOL0     H21885   6.628   7.360   5.893 -0.6225 -2.0530 -0.7979
  903MOL0     H21886   6.393   7.384   5.991  4.1662 -0.3107  1.2059
  903MOL0     H21887   6.065   7.932   5.882  1.5169 -3.0354 -2.6734
  903MOL0     H21888   5.834   8.014   5.971 -0.7620  0.5748  2.0633
  903MOL0     H21889   4.404   7.191   6.596 -1.7038  0.3444  1.1814
  903MOL0     H21890   4.225   6.989   6.628 -1.2043 -1.9390  0.6619
  903MOL0     H21891   4.139   6.618   6.870  1.4677 -0.6213  0.2867
  903MOL0     H21892   3.968   6.463   6.916  1.0107  0.5673  0.8596
  903MOL0     H21893   3.756   6.329   6.902  0.3943 -0.0703  1.4599
  903MOL0     H21894   3.905   6.236   6.915 -0.3292 -1.2527 -0.2306
  903MOL0     H21895   3.645   6.148   6.789 -1.0646 -0.7739  0.2981
  903MOL0     H21896   3.676   6.128   6.957 -1.7094  1.5257 -0.4276
  903MOL0     H21897   3.870   5.988   6.932 -0.6806 -0.0309  0.1920
  903MOL0     H21898   3.866   6.009   6.758  1.2480  1.4644 -0.2158
  903MOL0     H21899   3.631   5.885   6.785  0.0868  0.2600 -0.6704
  903MOL0     H21900   3.769   5.781   6.830  2.5685  1.6189 -0.5759
  903MOL0     H21901   3.551   5.875   7.199  1.5792 -1.7630  1.6092
  903MOL0     H21902   4.008   6.321   6.507 -0.2661  3.0860 -1.9335
  903MOL0     H21903   4.314   6.454   6.463  0.1316 -1.5874 -0.6176
  903MOL0     H21904   4.169   6.404   6.365  4.5180 -1.8563 -0.8745
  903MOL0     H21905   4.207   6.575   6.405 -1.6091  1.0493  2.5485
  904MOL0     O21906   3.987  10.527   8.908 -0.7597 -0.0241  0.5704
  904MOL0     C21907   3.890  10.598   8.930 -0.2409  0.2254 -0.4801
  904MOL0     O21908   3.860  10.657   9.053 -0.0866 -0.0464 -0.1589
  904MOL0     C21909   3.946  10.621   9.154 -0.0075  0.0555 -0.4007
  904MOL0     C21910   3.975  10.733   9.233  0.7612  0.3234 -0.5367
  904MOL0     C21911   4.077  10.731   9.328 -0.0189 -0.5164 -0.2319
  904MOL0     C21912   4.151  10.616   9.358  0.0257  0.3301 -0.0943
  904MOL0     O21913   4.251  10.607   9.449 -0.1026  0.7057 -0.2581
  904MOL0     C21914   4.312  10.733   9.498  0.2166 -0.9963 -0.2424
  904MOL0     C21915   4.441  10.684   9.564  0.3672 -0.4884  0.1617
  904MOL0     C21916   4.420  10.618   9.696  0.1976  1.2330 -0.8353
  904MOL0     C21917   4.560  10.573   9.749  1.0089  0.4063 -0.1249
  904MOL0     C21918   4.619  10.676   9.843 -0.1329 -0.1831  0.2276
  904MOL0     C21919   4.772  10.667   9.848  0.3392 -0.4912 -0.0773
  904MOL0     C21920   4.835  10.564   9.950  0.0086 -0.3757 -0.4709
  904MOL0     C21921   4.825  10.612  10.100 -0.2693 -0.5909 -0.4699
  904MOL0     N21922   4.901  10.537  10.198  0.0473 -0.7741  0.6820
  904MOL0     C21923   4.958  10.613  10.298 -0.3835 -0.1553 -0.1118
  904MOL0     C21924   4.983  10.532  10.400  0.3181  0.1919 -0.8092
  904MOL0     C21925   5.041  10.551  10.527 -0.3921 -1.1859 -0.6101
  904MOL0     C21926   5.044  10.701  10.569 -0.5518 -0.3168 -0.0854
  904MOL0     C21927   5.094  10.725  10.712 -0.5662  0.1128 -0.4825
  904MOL0     C21928   4.983  10.735  10.813  0.9514  0.1583  0.1339
  904MOL0     O21929   4.906  10.615  10.804 -0.4286  0.5077  0.4418
  904MOL0     C21930   4.773  10.618  10.840  0.3366 -0.0194  1.3009
  904MOL0     C21931   4.689  10.521  10.790  0.0127 -0.6090  0.1378
  904MOL0     C21932   4.559  10.510  10.843  0.9289 -0.2564 -0.1373
  904MOL0     C21933   4.506  10.603  10.932 -0.2381 -0.4781 -0.2469
  904MOL0     C21934   4.369  10.598  10.982 -0.6479 -0.0314 -0.4242
  904MOL0     O21935   4.348  10.683  11.090 -0.5278  0.6150 -0.0009
  904MOL0     C21936   4.220  10.685  11.132 -0.1182 -0.4489 -0.4768
  904MOL0     C21937   4.197  10.638  11.265 -0.9885  0.1360  0.4763
  904MOL0     C21938   4.071  10.654  11.325 -0.3715  0.0168  0.2921
  904MOL0     C21939   3.964  10.710  11.250  0.3436  0.7404  0.3675
  904MOL0     O21940   3.830  10.711  11.293  0.0791  0.4085 -0.5299
  904MOL0     C21941   3.811  10.651  11.418 -0.2914 -0.2080 -0.8894
  904MOL0     C21942   3.657  10.638  11.453 -0.1320 -1.6997  0.5146
  904MOL0     C21943   3.575  10.749  11.382 -0.0521 -0.0917 -0.6288
  904MOL0     C21944   3.434  10.757  11.437  0.1041 -0.9058  1.0046
  904MOL0     C21945   3.333  10.813  11.333  0.3298 -0.7500  0.2738
  904MOL0     C21946   3.191  10.805  11.392 -0.5198  1.1217 -0.1105
  904MOL0     C21947   3.092  10.853  11.284 -0.4979  0.0583 -0.3773
  904MOL0     C21948   2.961  10.904  11.341 -0.0770  0.3455  0.0251
  904MOL0    Cl21949   2.968  11.069  11.394  0.2303 -0.0940  0.0929
  904MOL0     C21950   3.989  10.759  11.128 -0.0707  0.0673  0.2470
  904MOL0     C21951   4.108  10.740  11.067  0.2331 -0.1566 -1.2097
  904MOL0     O21952   4.289  10.518  10.942  0.9083  0.3062 -0.3186
  904MOL0     C21953   4.587  10.705  10.973 -0.9697 -0.2249 -0.7421
  904MOL0     C21954   4.720  10.701  10.939  0.0522 -0.0151  0.5422
  904MOL0     N21955   4.916  10.411  10.377  0.1564 -0.2130 -0.3222
  904MOL0     N21956   4.884  10.411  10.248 -0.8454 -0.4607 -0.0509
  904MOL0     C21957   4.125  10.504   9.271 -0.0422  0.5389  0.8104
  904MOL0     C21958   4.016  10.502   9.186  0.0315 -0.3120  0.7897
  904MOL0     C21959   3.788  10.609   8.825  1.0552  0.2278  0.3587
  904MOL0     C21960   3.690  10.715   8.838 -0.0079 -0.4015  0.2586
  904MOL0     C21961   3.588  10.739   8.745 -0.4706  0.1612  0.1845
  904MOL0     C21962   3.570  10.664   8.633 -0.3904  0.0403  0.4642
  904MOL0     O21963   3.462  10.695   8.550  0.2624 -0.2850 -0.5896
  904MOL0     C21964   3.453  10.661   8.410  0.8867  0.4740 -0.2073
  904MOL0     C21965   3.331  10.738   8.342 -0.9824  0.3890  1.1471
  904MOL0     C21966   3.192  10.733   8.413  0.1247 -0.2893  0.5240
  904MOL0     C21967   3.098  10.603   8.406 -0.0708  0.5990 -0.5107
  904MOL0     C21968   3.143  10.482   8.485 -0.0278  0.5780 -0.1399
  904MOL0     C21969   3.191  10.386   8.554 -0.6492  0.6342 -0.0690
  904MOL0     C21970   3.671  10.565   8.609 -0.4490 -0.2850  0.3499
  904MOL0     C21971   3.775  10.529   8.708  0.6687 -0.4059 -0.8151
  904MOL0     C21972   3.857  10.407   8.673 -0.8937  0.3134 -0.5946
  904MOL0     H21973   3.934  10.827   9.198  1.4941  0.0090 -2.3180
  904MOL0     H21974   4.092  10.822   9.387  2.8138 -2.2025  1.9143
  904MOL0     H21975   4.341  10.803   9.420  2.0626 -1.7275 -0.2560
  904MOL0     H21976   4.245  10.780   9.570 -0.2411  0.8796 -1.8165
  904MOL0     H21977   4.503  10.771   9.590  0.8491 -0.4738 -0.9698
  904MOL0     H21978   4.498  10.627   9.490  1.5047  1.8116 -0.8324
  904MOL0     H21979   4.359  10.529   9.680 -0.4913  1.6811 -0.7641
  904MOL0     H21980   4.375  10.683   9.772  1.3009 -0.1615  1.0741
  904MOL0     H21981   4.549  10.478   9.803 -0.2753  0.0332 -1.0034
  904MOL0     H21982   4.628  10.541   9.670  0.7025  1.3591 -0.7872
  904MOL0     H21983   4.590  10.776   9.810  3.8208  0.6873 -1.1987
  904MOL0     H21984   4.585  10.657   9.945 -0.1360 -3.0379 -0.2159
  904MOL0     H21985   4.796  10.642   9.744 -1.9959 -2.0620 -0.3092
  904MOL0     H21986   4.812  10.764   9.880 -1.4718  0.4305 -0.4996
  904MOL0     H21987   4.942  10.558   9.927  1.5303  0.8137  4.9749
  904MOL0     H21988   4.784  10.469   9.929  0.1952 -0.4067 -0.7934
  904MOL0     H21989   4.840  10.719  10.112  1.2288 -0.9346  1.2947
  904MOL0     H21990   4.725  10.590  10.137  0.6208 -4.4993  0.1064
  904MOL0     H21991   4.977  10.720  10.288 -0.7189 -0.1773 -1.1730
  904MOL0     H21992   4.973  10.501  10.597  0.6474  1.8890  2.9287
  904MOL0     H21993   5.137  10.501  10.541  0.3623  0.7377  1.8027
  904MOL0     H21994   5.121  10.738  10.501  0.6653 -4.7307 -1.4034
  904MOL0     H21995   4.949  10.750  10.544 -0.0791 -0.2232 -1.8425
  904MOL0     H21996   5.150  10.819  10.714  0.1860 -0.3266  0.9376
  904MOL0     H21997   5.167  10.654  10.754 -0.7266 -0.4234 -1.0859
  904MOL0     H21998   4.931  10.830  10.802  3.0378  1.2249 -1.1999
  904MOL0     H21999   5.024  10.728  10.915  1.8789  2.3550 -0.0328
  904MOL0     H22000   4.736  10.451  10.722  1.5381  0.4641  0.0311
  904MOL0     H22001   4.493  10.431  10.806 -2.1942  0.3193  3.5516
  904MOL0     H22002   4.283  10.601  11.320 -1.9209  1.3484  2.8819
  904MOL0     H22003   4.046  10.619  11.425 -1.0939  1.5635  0.6800
  904MOL0     H22004   3.857  10.553  11.439  3.5986  2.1121  3.0895
  904MOL0     H22005   3.860  10.713  11.493  2.3054 -0.2552 -2.4161
  904MOL0     H22006   3.607  10.545  11.423 -0.4083 -0.3895 -3.7904
  904MOL0     H22007   3.637  10.660  11.558 -1.5600  1.3687 -0.3104
  904MOL0     H22008   3.621  10.846  11.403  0.7294 -0.7567  0.9447
  904MOL0     H22009   3.583  10.731  11.275  1.1111 -1.6174 -0.3316
  904MOL0     H22010   3.431  10.830  11.519 -1.5865  2.2693 -1.6283
  904MOL0     H22011   3.400  10.659  11.471  1.5972 -2.0573 -0.6338
  904MOL0     H22012   3.347  10.761  11.238 -0.3024  3.1075 -2.1424
  904MOL0     H22013   3.349  10.918  11.309  0.4779 -0.6199  0.9323
  904MOL0     H22014   3.166  10.702  11.415  1.8493 -0.2842 -3.0504
  904MOL0     H22015   3.169  10.865  11.481  0.6137 -2.7043  3.0482
  904MOL0     H22016   3.073  10.779  11.207  0.9103 -0.1124 -0.5762
  904MOL0     H22017   3.132  10.946  11.242 -3.0734  1.7014  0.5359
  904MOL0     H22018   2.878  10.886  11.271 -0.8226 -1.4896  1.3001
  904MOL0     H22019   2.920  10.848  11.425 -3.2462  1.7163 -0.4591
  904MOL0     H22020   3.915  10.804  11.062 -0.8908 -1.1227  0.3225
  904MOL0     H22021   4.108  10.773  10.964 -0.8384 -2.4545 -2.0085
  904MOL0     H22022   4.573  10.774  11.056  2.9021  1.8124 -1.5155
  904MOL0     H22023   4.784  10.764  11.000  0.0229 -0.4514  1.0356
  904MOL0     H22024   4.191  10.418   9.269  0.5607  0.9815 -1.6861
  904MOL0     H22025   3.998  10.415   9.123 -4.0126  0.0316  1.2134
  904MOL0     H22026   3.689  10.776   8.928  3.4097  2.5340 -1.4623
  904MOL0     H22027   3.520  10.823   8.757 -2.6250 -1.7009  1.9020
  904MOL0     H22028   3.457  10.553   8.396  0.4542  0.4950 -0.4831
  904MOL0     H22029   3.534  10.700   8.347 -1.1234 -0.6387 -3.7896
  904MOL0     H22030   3.324  10.710   8.236  1.1741 -1.4531  1.4080
  904MOL0     H22031   3.367  10.842   8.349 -1.4692  0.4773  2.8024
  904MOL0     H22032   3.128  10.800   8.354 -0.0963 -2.6215 -2.1011
  904MOL0     H22033   3.195  10.733   8.522  2.4743 -2.9279  0.5662
  904MOL0     H22034   2.997  10.622   8.444  0.1013 -1.3782  1.1190
  904MOL0     H22035   3.089  10.580   8.299 -0.0187  2.7332 -1.0106
  904MOL0     H22036   3.226  10.311   8.622  0.4051  2.1410  1.1100
  904MOL0     H22037   3.669  10.507   8.517  2.2119  0.5101 -0.2894
  904MOL0     H22038   3.959  10.437   8.648 -0.0880 -2.9227 -1.7463
  904MOL0     H22039   3.868  10.335   8.754 -0.3777  1.0704  0.0196
  904MOL0     H22040   3.826  10.356   8.581 -0.2577 -1.1025 -0.0612
  905MOL0     O22041  10.088   8.675   6.288  0.4255  0.3798 -0.3038
  905MOL0     C22042  10.191   8.700   6.237 -0.0687 -0.6631 -0.2736
  905MOL0     O22043  10.212   8.785   6.130 -0.2216  0.5703  0.5810
  905MOL0     C22044  10.102   8.814   6.055  0.0240  0.2546  0.7871
  905MOL0     C22045  10.061   8.949   6.045  0.6070  0.4779  0.5195
  905MOL0     C22046   9.966   8.976   5.946 -0.7370  0.2905 -0.9324
  905MOL0     C22047   9.894   8.888   5.869 -0.9329  0.7079  0.4028
  905MOL0     O22048   9.812   8.935   5.772  0.5993  0.1890 -0.6214
  905MOL0     C22049   9.701   8.859   5.742 -0.3556 -0.7610 -0.6478
  905MOL0     C22050   9.708   8.808   5.602 -0.1084 -0.1414  0.3985
  905MOL0     C22051   9.794   8.680   5.585  0.1249 -0.5533 -0.6114
  905MOL0     C22052   9.759   8.625   5.451  0.3879  0.6262 -0.4670
  905MOL0     C22053   9.826   8.488   5.418 -0.1235  0.7146 -0.6190
  905MOL0     C22054   9.815   8.442   5.269  0.8247 -0.0485 -0.3092
  905MOL0     C22055   9.864   8.301   5.249 -0.5001  0.6898  0.0107
  905MOL0     C22056   9.899   8.269   5.102 -0.1075  0.9967  0.6520
  905MOL0     N22057   9.802   8.188   5.038  0.7240 -0.2237  0.6684
  905MOL0     C22058   9.808   8.059   5.001 -1.2840 -0.8054 -0.4534
  905MOL0     C22059   9.687   8.032   4.953 -0.7936 -0.0882  0.1943
  905MOL0     C22060   9.651   7.912   4.874 -0.4465  0.2410 -0.5313
  905MOL0     C22061   9.660   7.806   4.973 -0.2639 -1.0027 -0.4541
  905MOL0     C22062   9.655   7.670   4.909 -0.1677  0.8108  0.0184
  905MOL0     C22063   9.518   7.652   4.843  0.3374  0.7731  0.1418
  905MOL0     O22064   9.489   7.516   4.828 -0.3414 -0.3107  0.1704
  905MOL0     C22065   9.398   7.477   4.920 -0.9852  0.6582 -0.5589
  905MOL0     C22066   9.434   7.366   5.002  0.2328 -0.7932 -0.3593
  905MOL0     C22067   9.349   7.305   5.088  0.9073  0.9900  0.0863
  905MOL0     C22068   9.217   7.353   5.105  0.6009  0.8049  1.4491
  905MOL0     C22069   9.115   7.281   5.185  0.1728 -0.4070  0.4902
  905MOL0     O22070   8.990   7.342   5.202  0.8212  0.2024 -0.1127
  905MOL0     C22071   8.892   7.267   5.268  0.3007 -0.2700  0.0196
  905MOL0     C22072   8.806   7.172   5.203 -0.1850 -0.2295  0.2653
  905MOL0     C22073   8.694   7.123   5.275 -0.1592  0.2510  0.2045
  905MOL0     C22074   8.667   7.153   5.407  0.7246  0.0446 -0.2172
  905MOL0     O22075   8.570   7.074   5.475 -1.0251  0.6005  0.1346
  905MOL0     C22076   8.504   7.145   5.587  0.3126  0.3559  0.9946
  905MOL0     C22077   8.409   7.043   5.642 -0.5984  0.4491  0.5627
  905MOL0     C22078   8.491   6.939   5.719  0.3682 -0.0047  0.1165
  905MOL0     C22079   8.442   6.913   5.860 -0.1500 -0.4487  0.4665
  905MOL0     C22080   8.532   6.814   5.933  0.5075  0.6932  0.3993
  905MOL0     C22081   8.462   6.797   6.072 -0.4307  0.3953 -0.0368
  905MOL0     C22082   8.499   6.668   6.139 -0.0086  1.1701 -0.1114
  905MOL0     C22083   8.646   6.631   6.172 -0.6973 -0.4266 -1.2935
  905MOL0    Cl22084   8.710   6.723   6.318 -0.2108  0.0695 -0.3663
  905MOL0     C22085   8.752   7.249   5.465  0.2325 -0.3459  1.2687
  905MOL0     C22086   8.856   7.313   5.393  0.0605  0.2288  0.3566
  905MOL0     O22087   9.142   7.167   5.215 -0.6740  0.1382  0.1139
  905MOL0     C22088   9.177   7.466   5.026  0.0454 -0.9141  0.2772
  905MOL0     C22089   9.274   7.532   4.941  0.2015 -0.7168  0.6744
  905MOL0     N22090   9.600   8.144   4.964  0.0594  0.8659 -0.0512
  905MOL0     N22091   9.675   8.238   5.018  0.3805 -0.1950 -0.0304
  905MOL0     C22092   9.923   8.751   5.898 -0.6553  0.2338 -0.1825
  905MOL0     C22093  10.027   8.712   5.993  0.2465 -0.5172 -0.3887
  905MOL0     C22094  10.316   8.623   6.280  1.2106 -0.3832  0.3504
  905MOL0     C22095  10.405   8.578   6.186  0.4904  0.3958 -0.0272
  905MOL0     C22096  10.520   8.501   6.214  0.2226 -0.1531  0.0706
  905MOL0     C22097  10.541   8.468   6.348  0.3140 -0.1266  0.1053
  905MOL0     O22098  10.644   8.386   6.380  0.7032 -0.3729 -0.0461
  905MOL0     C22099  10.644   8.255   6.318 -0.4502 -1.1463  0.2713
  905MOL0     C22100  10.783   8.239   6.252  0.3035 -0.2704 -0.4087
  905MOL0     C22101  10.889   8.237   6.365 -0.1565  0.9854  0.3591
  905MOL0     C22102  11.009   8.314   6.313 -0.2438  0.6695  0.8228
  905MOL0     C22103  11.118   8.302   6.406 -0.8475  0.9466  0.9716
  905MOL0     C22104  11.207   8.276   6.480  0.2448  0.4403  0.7895
  905MOL0     C22105  10.460   8.514   6.446  0.1714  0.2511  0.1395
  905MOL0     C22106  10.351   8.596   6.412 -0.0824  0.5567 -0.3508
  905MOL0     C22107  10.280   8.668   6.527 -1.3059  1.1741 -0.3906
  905MOL0     H22108  10.117   9.031   6.090 -0.2996  0.5560  1.5573
  905MOL0     H22109   9.939   9.079   5.922 -0.4622  1.0237  1.6688
  905MOL0     H22110   9.674   8.779   5.811  2.1530 -0.7564  0.4355
  905MOL0     H22111   9.619   8.928   5.765  2.3969  1.8767  2.2609
  905MOL0     H22112   9.751   8.881   5.533 -2.0251  1.1893  0.5434
  905MOL0     H22113   9.610   8.788   5.558  0.6445  0.3872 -1.6371
  905MOL0     H22114   9.777   8.602   5.659 -4.2574 -2.1485 -2.9455
  905MOL0     H22115   9.901   8.702   5.593  0.0491 -0.8650  2.1631
  905MOL0     H22116   9.651   8.617   5.438  0.2642  0.0789  0.8360
  905MOL0     H22117   9.795   8.697   5.377 -0.9486  2.7672  0.8448
  905MOL0     H22118   9.927   8.505   5.457  0.2280 -0.6742 -0.8438
  905MOL0     H22119   9.775   8.409   5.474 -1.2274  0.3935 -1.9978
  905MOL0     H22120   9.709   8.435   5.243  0.8761  2.2705 -1.3311
  905MOL0     H22121   9.875   8.514   5.213 -0.1001  0.6743 -0.3868
  905MOL0     H22122   9.789   8.232   5.290 -2.9710  2.9856 -0.3824
  905MOL0     H22123   9.962   8.299   5.298  0.2918 -0.3879 -1.5678
  905MOL0     H22124   9.921   8.358   5.042 -2.3483  1.2359  0.0852
  905MOL0     H22125   9.990   8.209   5.101 -1.2926 -0.8828  0.6386
  905MOL0     H22126   9.897   7.998   5.010 -2.9736 -3.1376  2.2575
  905MOL0     H22127   9.549   7.912   4.835 -0.1595 -0.9983 -1.3422
  905MOL0     H22128   9.723   7.901   4.792 -0.4054 -0.4637 -0.4060
  905MOL0     H22129   9.761   7.812   5.013  0.0797  0.6533 -1.4688
  905MOL0     H22130   9.586   7.808   5.054 -1.0283  0.8359 -1.1473
  905MOL0     H22131   9.685   7.595   4.983  6.7099  2.7783 -0.1066
  905MOL0     H22132   9.735   7.669   4.835 -0.5100 -0.8372 -0.3827
  905MOL0     H22133   9.520   7.697   4.743  2.0536  2.2820  0.8029
  905MOL0     H22134   9.443   7.706   4.902  3.9840  1.0363  5.1559
  905MOL0     H22135   9.534   7.323   4.992  1.8301  2.5878 -0.5151
  905MOL0     H22136   9.375   7.216   5.145  0.2294  0.9150  0.2815
  905MOL0     H22137   8.820   7.131   5.103 -0.2535 -3.2030  1.3847
  905MOL0     H22138   8.643   7.039   5.229 -2.0778  1.6732 -0.3873
  905MOL0     H22139   8.570   7.182   5.666 -0.6788  1.3116  1.3994
  905MOL0     H22140   8.450   7.229   5.543 -0.0894 -1.4149 -2.2096
  905MOL0     H22141   8.350   7.093   5.719 -1.4282 -1.0774  0.9774
  905MOL0     H22142   8.353   6.998   5.559 -1.7713  2.1539  0.3766
  905MOL0     H22143   8.497   6.847   5.660 -0.9288  1.0218 -1.7115
  905MOL0     H22144   8.594   6.975   5.735  0.4747 -0.5272  0.6380
  905MOL0     H22145   8.340   6.877   5.850  0.5509 -2.3100 -0.6277
  905MOL0     H22146   8.448   7.010   5.909  0.9518  0.7510 -1.8440
  905MOL0     H22147   8.632   6.856   5.948 -0.0147  1.8407  0.7378
  905MOL0     H22148   8.538   6.718   5.880  1.1986  0.4880  0.8269
  905MOL0     H22149   8.493   6.880   6.136  0.0935  1.0735 -1.1353
  905MOL0     H22150   8.353   6.800   6.082 -0.3162  2.9127  1.0152
  905MOL0     H22151   8.458   6.579   6.093  0.7413  0.2762  0.8930
  905MOL0     H22152   8.453   6.651   6.237 -3.4333 -3.0709 -2.1529
  905MOL0     H22153   8.661   6.523   6.168  2.0478 -0.0659 -3.0308
  905MOL0     H22154   8.707   6.673   6.092  0.9462  1.6756  0.8920
  905MOL0     H22155   8.741   7.280   5.569 -2.0159  0.9513  0.7287
  905MOL0     H22156   8.907   7.402   5.430  0.3373 -0.4428  1.6392
  905MOL0     H22157   9.075   7.502   5.026 -0.3463 -1.7682  3.1767
  905MOL0     H22158   9.254   7.623   4.885 -0.3778 -1.2735 -0.0577
  905MOL0     H22159   9.883   8.659   5.856  1.3487 -1.9659  2.3239
  905MOL0     H22160  10.051   8.607   6.006 -0.5034 -0.7476 -0.7795
  905MOL0     H22161  10.405   8.616   6.085  3.1941  1.1160  0.1892
  905MOL0     H22162  10.595   8.483   6.138  1.0861 -0.3171  0.9398
  905MOL0     H22163  10.564   8.238   6.245  0.8805 -0.7874 -1.3319
  905MOL0     H22164  10.636   8.180   6.398  0.8355  0.1716  1.6967
  905MOL0     H22165  10.807   8.323   6.186 -0.3230  3.0891  3.2188
  905MOL0     H22166  10.771   8.155   6.184  0.1180 -0.9500  0.4359
  905MOL0     H22167  10.917   8.131   6.370 -0.4594  0.7368 -2.0430
  905MOL0     H22168  10.853   8.278   6.460 -2.8491 -1.5792  0.5887
  905MOL0     H22169  11.038   8.273   6.217 -4.8325 -2.3516  0.4178
  905MOL0     H22170  10.981   8.420   6.314  0.1877  0.7857  0.3682
  905MOL0     H22171  11.287   8.267   6.550  1.0437  0.4392 -0.0977
  905MOL0     H22172  10.466   8.480   6.549  0.2616  2.3251  0.8687
  905MOL0     H22173  10.340   8.672   6.618 -0.9176  2.0263 -0.6715
  905MOL0     H22174  10.267   8.772   6.495  1.4943  1.5530 -0.5900
  905MOL0     H22175  10.191   8.612   6.557  0.3288 -0.6319  1.3851
  906MOL0     O22176   8.634   8.809  10.210  0.2287  0.5485  0.4271
  906MOL0     C22177   8.522   8.851  10.234  0.0057 -0.9354  0.4000
  906MOL0     O22178   8.494   8.953  10.321  0.1184  0.1672 -0.8142
  906MOL0     C22179   8.588   8.997  10.415 -0.2976  0.2172 -0.2006
  906MOL0     C22180   8.583   9.134  10.438 -0.6132  0.2389  0.3116
  906MOL0     C22181   8.674   9.201  10.506  0.4323  0.0996 -0.6315
  906MOL0     C22182   8.775   9.134  10.583  0.6358 -0.1877 -0.0244
  906MOL0     O22183   8.880   9.195  10.638 -0.4213 -0.6024 -0.1922
  906MOL0     C22184   8.865   9.312  10.725  0.3086  0.6337  0.3084
  906MOL0     C22185   8.980   9.413  10.739 -0.3172  0.3817  0.3379
  906MOL0     C22186   9.123   9.355  10.751 -0.4349 -0.0090  0.2710
  906MOL0     C22187   9.228   9.465  10.764  0.2677  0.0416 -0.4112
  906MOL0     C22188   9.371   9.408  10.774  0.0505  0.5225 -0.2578
  906MOL0     C22189   9.484   9.516  10.799 -0.1385 -0.0679  0.0646
  906MOL0     C22190   9.625   9.472  10.753 -0.8566 -0.8310  0.2341
  906MOL0     C22191   9.716   9.596  10.758  0.2490  0.9002 -0.0210
  906MOL0     N22192   9.680   9.708  10.683  0.0746 -0.0154  0.6661
  906MOL0     C22193   9.621   9.726  10.561 -0.4256  0.2854  1.0573
  906MOL0     C22194   9.590   9.855  10.547  0.1084  0.3472 -0.3020
  906MOL0     C22195   9.519   9.897  10.425 -1.1169  0.4683  0.3052
  906MOL0     C22196   9.594  10.005  10.346 -0.3054 -0.6497 -0.2652
  906MOL0     C22197   9.527  10.018  10.208 -0.3827 -0.2038 -0.3902
  906MOL0     C22198   9.557  10.148  10.139  0.6743 -0.2712  0.8725
  906MOL0     O22199   9.704  10.163  10.112 -0.1228  0.2823 -0.6588
  906MOL0     C22200   9.752  10.273  10.048  0.6979  0.2008  0.3160
  906MOL0     C22201   9.696  10.398  10.046 -0.6401  0.1184  0.0328
  906MOL0     C22202   9.752  10.505   9.982  0.4172 -0.1074  0.2047
  906MOL0     C22203   9.880  10.499   9.921  0.6766  0.1208  0.2053
  906MOL0     C22204   9.957  10.620   9.877 -1.0950 -0.0939  0.2578
  906MOL0     O22205   9.921  10.737   9.932  0.5116 -0.1980 -0.8847
  906MOL0     C22206   9.974  10.853   9.884  0.8366  0.0643  0.2979
  906MOL0     C22207  10.040  10.936   9.975  0.0041  0.2315  0.3598
  906MOL0     C22208  10.112  11.044   9.921 -0.0815  0.0295  0.0351
  906MOL0     C22209  10.108  11.082   9.784  0.0785  0.2943 -0.1248
  906MOL0     O22210  10.155  11.196   9.719  0.4117  0.4402  0.4920
  906MOL0     C22211  10.224  11.303   9.783  0.2065 -0.6306 -0.5153
  906MOL0     C22212  10.364  11.324   9.728 -0.1540 -0.8682  0.4856
  906MOL0     C22213  10.399  11.470   9.757  0.2062  0.5012  0.1542
  906MOL0     C22214  10.527  11.518   9.690  0.1289 -0.2875 -0.1549
  906MOL0     C22215  10.539  11.665   9.710 -0.6547 -0.2676 -0.1426
  906MOL0     C22216  10.676  11.720   9.683 -0.6799 -0.5691  0.7431
  906MOL0     C22217  10.712  11.845   9.752  0.9671  1.2937 -0.0364
  906MOL0     C22218  10.622  11.958   9.704 -1.2873 -0.4647  0.2006
  906MOL0    Cl22219  10.636  12.002   9.528 -0.1926  0.2826 -0.1522
  906MOL0     C22220  10.023  11.002   9.701 -0.5618  0.3729  0.2225
  906MOL0     C22221   9.958  10.884   9.741  0.6229 -0.1428  0.8190
  906MOL0     O22222  10.041  10.598   9.792  0.2259  0.0028 -0.0463
  906MOL0     C22223   9.940  10.367   9.914  0.7483  0.6271  0.0319
  906MOL0     C22224   9.868  10.257   9.974  0.7705  0.0576 -1.1378
  906MOL0     N22225   9.648   9.926  10.659  0.4729 -0.4211  0.7864
  906MOL0     N22226   9.669   9.836  10.743 -0.0539 -0.7521 -0.3873
  906MOL0     C22227   8.782   8.996  10.570  0.7312 -0.3725 -0.2977
  906MOL0     C22228   8.694   8.929  10.480 -0.3187 -0.4493  0.0676
  906MOL0     C22229   8.400   8.801  10.161 -0.3438  0.8924 -0.0467
  906MOL0     C22230   8.273   8.848  10.207  0.8463  0.9228 -0.2216
  906MOL0     C22231   8.161   8.802  10.136  0.0014  0.6090  0.3259
  906MOL0     C22232   8.163   8.705  10.044  0.3145 -1.3396  0.2789
  906MOL0     O22233   8.045   8.637  10.006 -0.3062 -0.5031  0.1350
  906MOL0     C22234   8.010   8.658   9.873  0.2542 -0.1353  0.4042
  906MOL0     C22235   7.923   8.786   9.862 -0.5984  1.3118  1.0289
  906MOL0     C22236   7.788   8.773   9.937  0.3729 -0.4996 -0.2503
  906MOL0     C22237   7.777   8.890  10.040 -0.6022  0.1911  0.4512
  906MOL0     C22238   7.664   8.876  10.123  0.1633  0.0559  0.0383
  906MOL0     C22239   7.564   8.860  10.193 -0.6351  0.0693  0.2065
  906MOL0     C22240   8.285   8.662   9.998  0.5712  0.4980  0.0849
  906MOL0     C22241   8.409   8.700  10.059  0.3823  0.1397 -0.0931
  906MOL0     C22242   8.533   8.616  10.025 -0.4357  0.4820  0.6381
  906MOL0     H22243   8.510   9.189  10.379  0.1027  1.9439  0.9546
  906MOL0     H22244   8.675   9.310  10.500 -0.7912  0.2102  0.5729
  906MOL0     H22245   8.783   9.376  10.694  2.3412  2.1884 -2.3331
  906MOL0     H22246   8.846   9.260  10.819 -1.6695 -0.6398 -0.7413
  906MOL0     H22247   8.951   9.481  10.820 -2.0356  0.1451 -0.0467
  906MOL0     H22248   8.970   9.477  10.651  0.7068  0.3549  0.1916
  906MOL0     H22249   9.149   9.293  10.666  0.2704 -1.4740  1.5053
  906MOL0     H22250   9.130   9.300  10.845 -1.4467  1.1882  1.0817
  906MOL0     H22251   9.238   9.535  10.681  2.7301  2.1375  1.4805
  906MOL0     H22252   9.198   9.531  10.845  1.7097  1.8250 -1.2640
  906MOL0     H22253   9.371   9.332  10.853 -0.0749  1.1220  0.3331
  906MOL0     H22254   9.407   9.357  10.684  4.8378  0.5396  1.3978
  906MOL0     H22255   9.448   9.608  10.753 -0.2951  2.0452  3.9796
  906MOL0     H22256   9.475   9.529  10.907 -3.6857  1.8113 -0.3038
  906MOL0     H22257   9.616   9.438  10.650  0.6208 -0.8415  0.0881
  906MOL0     H22258   9.664   9.394  10.819 -2.0710 -2.5849 -1.0230
  906MOL0     H22259   9.717   9.632  10.861  1.0264  0.1739  0.2379
  906MOL0     H22260   9.811   9.550  10.732 -1.0845 -0.6189 -2.6892
  906MOL0     H22261   9.596   9.644  10.494 -0.4543 -2.2067  3.9042
  906MOL0     H22262   9.511   9.810  10.360  0.5598  1.5008 -1.3852
  906MOL0     H22263   9.423   9.944  10.449 -2.3228  0.1586 -3.2740
  906MOL0     H22264   9.598  10.100  10.401 -0.1946 -1.2950  0.8703
  906MOL0     H22265   9.697   9.974  10.329  0.3523  1.1874  0.1175
  906MOL0     H22266   9.420  10.008  10.229  0.0323  0.4766  2.4003
  906MOL0     H22267   9.565   9.934  10.148  0.3216  0.8556 -1.4530
  906MOL0     H22268   9.521  10.227  10.207 -1.2054  0.5820 -0.9823
  906MOL0     H22269   9.501  10.157  10.046 -2.5770  1.3129  2.8048
  906MOL0     H22270   9.605  10.407  10.103 -0.7644 -3.9479  0.8015
  906MOL0     H22271   9.701  10.601   9.985  2.4250  1.0047  1.4462
  906MOL0     H22272  10.047  10.914  10.081  1.5954 -0.3935  0.1550
  906MOL0     H22273  10.160  11.116   9.986 -1.5317 -0.6154  1.9098
  906MOL0     H22274  10.179  11.397   9.751  1.7467  1.2750  2.3831
  906MOL0     H22275  10.214  11.292   9.892 -0.0277 -2.6602 -0.6996
  906MOL0     H22276  10.436  11.249   9.761 -1.6405 -3.4199 -1.5951
  906MOL0     H22277  10.348  11.317   9.619 -1.6075  0.4627  0.5584
  906MOL0     H22278  10.325  11.541   9.718 -1.7939 -1.5138  0.0329
  906MOL0     H22279  10.404  11.483   9.865 -1.1495  0.9746  0.1789
  906MOL0     H22280  10.510  11.510   9.583  3.0495  0.5579 -0.7519
  906MOL0     H22281  10.603  11.449   9.728 -1.8394 -1.5360  1.7664
  906MOL0     H22282  10.500  11.686   9.810 -1.1422  0.6755 -0.5222
  906MOL0     H22283  10.465  11.702   9.639 -2.2046 -1.1424  0.9414
  906MOL0     H22284  10.756  11.656   9.722 -0.9334  0.2331  2.7077
  906MOL0     H22285  10.714  11.717   9.580 -0.8063 -0.4903  0.6946
  906MOL0     H22286  10.818  11.867   9.737  0.9591  0.7139 -1.0102
  906MOL0     H22287  10.695  11.831   9.859  0.2491  1.7435 -0.0786
  906MOL0     H22288  10.519  11.943   9.738 -0.6139 -0.6826  2.2919
  906MOL0     H22289  10.656  12.048   9.755  0.5786 -1.0207  0.0127
  906MOL0     H22290  10.015  11.038   9.599 -0.9428  1.7134  0.7067
  906MOL0     H22291   9.898  10.816   9.680  1.4382  1.6934 -2.2544
  906MOL0     H22292  10.022  10.334   9.851 -1.9174 -0.0395 -3.3442
  906MOL0     H22293   9.910  10.157   9.966  3.0485  1.0489 -2.7342
  906MOL0     H22294   8.860   8.939  10.619 -0.6208 -1.6723  0.4470
  906MOL0     H22295   8.706   8.822  10.464 -0.1240 -0.2891 -0.9184
  906MOL0     H22296   8.267   8.940  10.265 -2.7215  1.2531 -0.9406
  906MOL0     H22297   8.064   8.850  10.146  0.4634  1.4581  0.8195
  906MOL0     H22298   7.945   8.579   9.834 -2.1109  1.7327  0.2667
  906MOL0     H22299   8.097   8.661   9.807 -0.3048 -4.5022 -0.8363
  906MOL0     H22300   7.900   8.800   9.756 -2.1601 -0.2004  1.1236
  906MOL0     H22301   7.995   8.861   9.897  3.0294 -1.3043 -0.2698
  906MOL0     H22302   7.783   8.675   9.985 -0.6858 -0.5587 -0.4461
  906MOL0     H22303   7.704   8.778   9.867 -0.1243 -0.0762  0.3707
  906MOL0     H22304   7.869   8.885  10.100 -0.4683 -2.1085  0.1371
  906MOL0     H22305   7.770   8.985   9.986  0.1264 -0.3752 -0.6799
  906MOL0     H22306   7.475   8.837  10.248 -1.0477 -0.0475 -0.5002
  906MOL0     H22307   8.276   8.579   9.929 -3.3736  0.4203  0.4614
  906MOL0     H22308   8.619   8.673   9.990  0.3369 -0.9614  0.0687
  906MOL0     H22309   8.575   8.559  10.109  1.4150 -0.6214 -0.9706
  906MOL0     H22310   8.502   8.541   9.951 -2.0690  1.1811  0.5788
  907MOL0     O22311   9.010   9.103   9.212 -0.0325  0.5818 -0.0452
  907MOL0     C22312   9.085   9.009   9.247  0.2184 -0.3947  0.4860
  907MOL0     O22313   9.039   8.885   9.280 -0.1335  0.4456  0.0539
  907MOL0     C22314   8.906   8.853   9.270 -0.2293 -0.5728 -0.2083
  907MOL0     C22315   8.817   8.931   9.345  0.0570 -1.0159  0.3611
  907MOL0     C22316   8.680   8.908   9.335  0.3773  0.5096 -0.0613
  907MOL0     C22317   8.631   8.805   9.257 -0.5233 -0.4135  0.3656
  907MOL0     O22318   8.495   8.783   9.235 -0.3053  1.3902 -0.1974
  907MOL0     C22319   8.401   8.889   9.272  0.2881  0.7158  0.6145
  907MOL0     C22320   8.270   8.887   9.192  0.9469 -0.3968  0.0630
  907MOL0     C22321   8.181   8.762   9.212  0.0334 -0.4020 -0.2165
  907MOL0     C22322   8.044   8.807   9.260 -0.2646  0.4495  0.3349
  907MOL0     C22323   7.944   8.684   9.274 -0.0322 -0.1102  0.4729
  907MOL0     C22324   7.919   8.654   9.430 -0.0894  0.5070  0.9917
  907MOL0     C22325   7.814   8.556   9.459 -0.6622  0.4817  0.2520
  907MOL0     C22326   7.819   8.412   9.426 -0.1980  0.6711  0.6261
  907MOL0     N22327   7.796   8.381   9.284 -0.0855  0.2115  0.4433
  907MOL0     C22328   7.705   8.434   9.192 -0.4560  0.7461  0.4019
  907MOL0     C22329   7.762   8.385   9.079  0.0564 -0.5575 -0.2970
  907MOL0     C22330   7.714   8.393   8.939 -0.7798 -0.7508  0.4975
  907MOL0     C22331   7.594   8.481   8.913 -0.4402 -0.0331 -0.0730
  907MOL0     C22332   7.620   8.630   8.903  0.1786  0.1424 -0.2521
  907MOL0     C22333   7.505   8.717   8.939 -0.3806 -0.2606 -0.4612
  907MOL0     O22334   7.493   8.724   9.082 -0.1236  0.6557  0.1597
  907MOL0     C22335   7.370   8.764   9.125 -0.2800 -0.6944 -0.3878
  907MOL0     C22336   7.277   8.837   9.049  1.0805  0.5850 -0.1705
  907MOL0     C22337   7.157   8.878   9.116 -0.2843  0.6546 -0.1377
  907MOL0     C22338   7.128   8.846   9.246 -0.1431 -0.4607  0.1179
  907MOL0     C22339   6.995   8.880   9.304  0.5059 -0.3859 -0.4781
  907MOL0     O22340   6.902   8.916   9.214  0.6149  0.2586 -0.1716
  907MOL0     C22341   6.778   8.952   9.262 -0.1354 -0.5023 -0.5695
  907MOL0     C22342   6.764   9.087   9.275 -0.4367  0.3871 -0.6494
  907MOL0     C22343   6.647   9.151   9.314  0.3984 -0.0770  0.2214
  907MOL0     C22344   6.545   9.073   9.365  0.1611  0.1270 -0.0086
  907MOL0     O22345   6.428   9.117   9.424  0.0813 -0.2672 -0.2330
  907MOL0     C22346   6.357   9.216   9.336  0.4092  0.0422 -0.4873
  907MOL0     C22347   6.349   9.175   9.194 -0.1476  0.4147 -0.6001
  907MOL0     C22348   6.259   9.259   9.112  0.4356 -0.1213  0.1358
  907MOL0     C22349   6.257   9.220   8.963 -0.5442 -0.2992 -0.4849
  907MOL0     C22350   6.214   9.355   8.889  0.0716  0.6280  0.7231
  907MOL0     C22351   6.321   9.452   8.867 -0.3362 -0.6790 -0.6558
  907MOL0     C22352   6.262   9.586   8.799  1.1642  0.5933  0.5472
  907MOL0     C22353   6.358   9.639   8.690 -0.3101  1.6511  0.4415
  907MOL0    Cl22354   6.396   9.526   8.557 -0.0903  0.3537  0.1961
  907MOL0     C22355   6.548   8.929   9.345  0.3458 -0.8027 -0.2587
  907MOL0     C22356   6.665   8.875   9.280 -0.0051 -0.2156  0.0221
  907MOL0     O22357   6.985   8.875   9.424  0.4036  0.3206  0.0046
  907MOL0     C22358   7.221   8.772   9.316 -0.1189 -0.2044  0.0979
  907MOL0     C22359   7.349   8.739   9.264  0.6650 -0.0833 -0.1632
  907MOL0     N22360   7.865   8.300   9.104  0.9773  1.1847 -0.1284
  907MOL0     N22361   7.889   8.290   9.234  0.1698  0.4245 -0.1762
  907MOL0     C22362   8.730   8.718   9.199  0.5766  0.8984 -0.3824
  907MOL0     C22363   8.864   8.737   9.202 -0.0739 -0.3789  0.2128
  907MOL0     C22364   9.230   9.031   9.272 -0.9359  0.1670  0.4434
  907MOL0     C22365   9.307   8.912   9.266  0.4212  0.3770 -0.1045
  907MOL0     C22366   9.449   8.915   9.264  1.0003 -0.0831  0.4046
  907MOL0     C22367   9.516   9.042   9.264  0.7489 -0.1426 -0.0447
  907MOL0     O22368   9.651   9.052   9.273 -0.1907 -0.3981  0.7997
  907MOL0     C22369   9.728   8.950   9.325  0.3641  0.3046  0.4495
  907MOL0     C22370   9.869   8.998   9.323 -0.0932 -0.1881 -0.1170
  907MOL0     C22371   9.971   8.892   9.353 -0.1771 -0.0958 -1.6974
  907MOL0     C22372  10.119   8.948   9.358 -0.6435 -0.2532  0.3048
  907MOL0     C22373  10.155   8.997   9.225  1.5120 -0.1015  0.3824
  907MOL0     C22374  10.184   9.057   9.123 -0.7534 -0.2755 -0.4636
  907MOL0     C22375   9.437   9.155   9.267 -0.5057 -0.5244 -0.3695
  907MOL0     C22376   9.297   9.153   9.266  0.4570  0.0867 -0.5680
  907MOL0     C22377   9.216   9.279   9.259  0.7501  0.0101  1.0983
  907MOL0     H22378   8.830   9.021   9.405 -1.4051  1.6911 -3.0311
  907MOL0     H22379   8.607   8.971   9.384 -1.7720 -1.3543 -0.7257
  907MOL0     H22380   8.393   8.884   9.381  2.7539 -3.6234  0.8171
  907MOL0     H22381   8.442   8.985   9.241  0.3887 -0.2230 -2.5772
  907MOL0     H22382   8.282   8.906   9.085 -0.7228  0.6976  0.0321
  907MOL0     H22383   8.227   8.980   9.230  0.9562 -0.3407 -0.0636
  907MOL0     H22384   8.218   8.696   9.291 -0.4764  0.5906  0.8780
  907MOL0     H22385   8.150   8.718   9.116 -1.3118 -0.3490  0.1682
  907MOL0     H22386   8.042   8.858   9.357  0.7225 -1.3856  1.3747
  907MOL0     H22387   8.000   8.879   9.190  1.8676  1.4462 -0.0346
  907MOL0     H22388   7.854   8.706   9.216  0.7428 -2.3820 -1.7447
  907MOL0     H22389   7.977   8.589   9.234  2.7619  0.2932  1.6115
  907MOL0     H22390   8.017   8.612   9.456  0.8901  1.0380 -1.5948
  907MOL0     H22391   7.906   8.752   9.478 -0.3201  1.1611 -0.3759
  907MOL0     H22392   7.722   8.600   9.419 -1.2141 -0.3930  0.5491
  907MOL0     H22393   7.806   8.555   9.568 -0.4804  2.4493  0.3294
  907MOL0     H22394   7.908   8.357   9.459  0.0423 -0.6864 -1.9994
  907MOL0     H22395   7.740   8.364   9.484 -2.1019  2.0294 -0.7231
  907MOL0     H22396   7.618   8.497   9.206 -0.8461  0.2090  0.3846
  907MOL0     H22397   7.792   8.430   8.871 -3.5576 -0.3106 -2.7076
  907MOL0     H22398   7.688   8.290   8.913  0.0381 -1.9418  3.8189
  907MOL0     H22399   7.556   8.455   8.814  2.2536  1.1832 -1.5385
  907MOL0     H22400   7.510   8.453   8.977 -1.8062 -2.2679 -2.6330
  907MOL0     H22401   7.636   8.665   8.801 -2.8538  1.4973 -0.3704
  907MOL0     H22402   7.703   8.665   8.965 -1.8803 -1.5099  3.8312
  907MOL0     H22403   7.410   8.679   8.899 -0.5387  0.5098 -0.8571
  907MOL0     H22404   7.522   8.807   8.879  0.0216 -1.9557 -3.0208
  907MOL0     H22405   7.292   8.860   8.943  0.4329 -1.6838 -0.8015
  907MOL0     H22406   7.092   8.944   9.060  0.3768  2.1810  0.8508
  907MOL0     H22407   6.848   9.151   9.248 -0.7106  2.5964  3.1113
  907MOL0     H22408   6.647   9.257   9.333 -1.1502 -0.3051  1.7509
  907MOL0     H22409   6.255   9.229   9.374  0.2423  2.4212 -1.5820
  907MOL0     H22410   6.399   9.317   9.340 -1.7401  0.9742  1.2681
  907MOL0     H22411   6.451   9.167   9.156 -0.1853  0.5444 -0.7319
  907MOL0     H22412   6.333   9.067   9.180 -1.1585  0.5072 -0.2343
  907MOL0     H22413   6.160   9.256   9.157 -0.3709  3.3067 -1.0977
  907MOL0     H22414   6.290   9.363   9.128 -2.4263  0.8450 -0.1293
  907MOL0     H22415   6.183   9.140   8.956 -2.7810  1.6783 -0.8992
  907MOL0     H22416   6.357   9.190   8.931  0.6948  0.3120  2.4862
  907MOL0     H22417   6.136   9.411   8.941  2.2532  4.1563  0.5086
  907MOL0     H22418   6.182   9.308   8.795 -0.4660 -0.1639  1.2870
  907MOL0     H22419   6.364   9.476   8.965 -0.8950 -0.2045 -0.5199
  907MOL0     H22420   6.397   9.414   8.798  0.1989 -3.4637  1.3130
  907MOL0     H22421   6.233   9.664   8.870 -2.9463 -0.4599  0.2607
  907MOL0     H22422   6.173   9.551   8.748  2.7248 -1.4784 -0.9479
  907MOL0     H22423   6.318   9.729   8.642 -0.0860  1.1665 -0.6881
  907MOL0     H22424   6.455   9.656   8.738  0.1716  0.5293 -0.0996
  907MOL0     H22425   6.464   8.868   9.378 -2.0088  1.2826 -2.0399
  907MOL0     H22426   6.674   8.769   9.260 -4.1762 -0.4483 -1.6891
  907MOL0     H22427   7.195   8.737   9.416 -0.1681  0.5758  0.3635
  907MOL0     H22428   7.429   8.689   9.316  0.3640  0.5447  0.9316
  907MOL0     H22429   8.699   8.635   9.137  1.9929  0.8049 -1.0179
  907MOL0     H22430   8.935   8.676   9.148 -0.5469 -0.6119 -0.1591
  907MOL0     H22431   9.270   8.810   9.265 -4.9563  1.9936  1.9798
  907MOL0     H22432   9.506   8.823   9.251  0.0643 -0.5717 -0.4279
  907MOL0     H22433   9.703   8.857   9.272  2.0604 -1.5270  2.6787
  907MOL0     H22434   9.693   8.937   9.428 -3.2473  1.4533 -0.4686
  907MOL0     H22435   9.891   9.075   9.397  0.6682  0.2139 -0.7561
  907MOL0     H22436   9.874   9.040   9.222 -1.2197  1.8981  0.6311
  907MOL0     H22437   9.964   8.808   9.284 -1.8108  0.6597 -2.5126
  907MOL0     H22438   9.955   8.859   9.457 -0.4050 -0.9012 -1.9804
  907MOL0     H22439  10.114   9.032   9.428  0.4584  1.6887 -1.7994
  907MOL0     H22440  10.193   8.870   9.379 -0.3504 -1.2000 -3.5292
  907MOL0     H22441  10.210   9.077   9.021  2.2170  1.3294  0.4716
  907MOL0     H22442   9.497   9.245   9.271 -1.3847  0.0400  2.4430
  907MOL0     H22443   9.155   9.275   9.168 -0.5486 -1.1847  1.9821
  907MOL0     H22444   9.163   9.289   9.354 -0.1975  2.1659  0.4073
  907MOL0     H22445   9.280   9.364   9.236  0.2204  0.1300  0.0152
  908MOL0     O22446   9.953   4.579   8.488  0.6577  0.1757 -0.8623
  908MOL0     C22447   9.866   4.561   8.403 -0.3580 -0.4212  0.9704
  908MOL0     O22448   9.873   4.467   8.305 -0.4682 -0.2166  0.8421
  908MOL0     C22449   9.992   4.386   8.295  0.1658 -0.5705  0.1993
  908MOL0     C22450   9.982   4.244   8.297  0.5049 -0.1503 -0.1162
  908MOL0     C22451  10.101   4.164   8.287  0.2302 -0.8775 -0.6192
  908MOL0     C22452  10.224   4.230   8.273  0.2975 -0.7631 -0.6373
  908MOL0     O22453  10.343   4.173   8.272  0.1523  0.3360 -0.1022
  908MOL0     C22454  10.357   4.047   8.208 -1.3003  0.4075 -0.3488
  908MOL0     C22455  10.505   4.047   8.155  0.4232  0.1209  0.2643
  908MOL0     C22456  10.588   3.942   8.228  0.3154  0.5286  0.2119
  908MOL0     C22457  10.738   3.959   8.178 -0.8824 -0.2864 -0.2789
  908MOL0     C22458  10.852   3.908   8.271  0.0438  0.2347 -0.2457
  908MOL0     C22459  10.826   3.758   8.320 -0.1938 -0.3829  0.2293
  908MOL0     C22460  10.925   3.697   8.408 -0.5118 -0.6202  0.1671
  908MOL0     C22461  10.846   3.596   8.509  0.0093  0.6123  0.3424
  908MOL0     N22462  10.796   3.676   8.624  0.0017  0.1999  1.4897
  908MOL0     C22463  10.867   3.739   8.721  0.7448  0.3873 -0.4950
  908MOL0     C22464  10.765   3.811   8.792 -0.1404  1.0123  0.7972
  908MOL0     C22465  10.791   3.890   8.921  0.4088  0.0284  0.3275
  908MOL0     C22466  10.876   3.807   9.018 -0.7096 -0.2150  0.0968
  908MOL0     C22467  10.828   3.668   9.078 -0.0132  0.7354 -0.1745
  908MOL0     C22468  10.702   3.684   9.169  0.2889  0.0625 -0.0491
  908MOL0     O22469  10.611   3.760   9.098  0.4910  0.9329  0.1377
  908MOL0     C22470  10.476   3.760   9.143  0.4462  0.3300  1.1535
  908MOL0     C22471  10.378   3.770   9.038  0.0322  0.3838  0.1705
  908MOL0     C22472  10.241   3.790   9.067  0.0366 -0.0372 -0.3768
  908MOL0     C22473  10.212   3.800   9.196 -0.3283 -0.2196 -1.0846
  908MOL0     C22474  10.072   3.847   9.231  0.5607  0.5942 -0.6811
  908MOL0     O22475  10.042   3.849   9.372 -0.1117 -0.0490  0.0960
  908MOL0     C22476   9.913   3.893   9.409 -0.4408 -0.1226  0.3286
  908MOL0     C22477   9.885   4.015   9.472 -0.0730  1.0199  0.3317
  908MOL0     C22478   9.753   4.047   9.516 -0.8942  0.7790 -0.8028
  908MOL0     C22479   9.645   3.960   9.492  0.7181  0.3953 -0.0665
  908MOL0     O22480   9.525   4.003   9.537  0.2690  0.3170 -0.0902
  908MOL0     C22481   9.401   3.960   9.476 -0.8820  0.2805  0.6487
  908MOL0     C22482   9.355   3.853   9.569 -0.3528  0.0410 -0.2494
  908MOL0     C22483   9.210   3.826   9.528 -0.2141 -0.2599  1.1127
  908MOL0     C22484   9.129   3.786   9.645  0.0494 -0.1439 -0.3300
  908MOL0     C22485   9.002   3.714   9.610 -0.6012  0.3042  0.5452
  908MOL0     C22486   8.916   3.775   9.503 -0.2982  0.6060  0.2376
  908MOL0     C22487   8.828   3.893   9.538  0.6797 -0.0617  1.4843
  908MOL0     C22488   8.902   4.027   9.561  0.5886  0.1932  1.2305
  908MOL0    Cl22489   8.787   4.164   9.525  0.1400  0.0858 -0.2350
  908MOL0     C22490   9.674   3.850   9.410  0.2341  0.6372 -0.2776
  908MOL0     C22491   9.800   3.817   9.374  0.0619 -1.0038 -0.0684
  908MOL0     O22492   9.997   3.879   9.143  0.0271  0.4587  0.5326
  908MOL0     C22493  10.308   3.798   9.303  0.1518 -0.4664 -0.4993
  908MOL0     C22494  10.443   3.768   9.277 -0.3374 -0.0287 -0.2721
  908MOL0     N22495  10.639   3.787   8.733 -0.3580  0.3747 -0.1227
  908MOL0     N22496  10.662   3.704   8.635 -0.4328 -1.1058 -0.8986
  908MOL0     C22497  10.228   4.369   8.269 -0.5346 -0.6336  1.0073
  908MOL0     C22498  10.119   4.441   8.281 -0.0202 -0.3181 -0.5081
  908MOL0     C22499   9.743   4.641   8.402 -1.0661  0.3472 -0.1778
  908MOL0     C22500   9.627   4.575   8.361  0.4363  0.0639  0.8584
  908MOL0     C22501   9.505   4.640   8.351 -0.1884 -0.4924  0.3714
  908MOL0     C22502   9.486   4.769   8.399 -0.0302 -1.0255  0.1472
  908MOL0     O22503   9.375   4.855   8.400  0.0045  0.5487 -0.0215
  908MOL0     C22504   9.259   4.802   8.339  0.7984 -0.3272 -0.3053
  908MOL0     C22505   9.146   4.847   8.443  0.1778  0.2403  0.6775
  908MOL0     C22506   9.132   4.998   8.454  0.2659  0.3953  0.0101
  908MOL0     C22507   9.023   5.040   8.543  0.3323  0.6427 -0.1184
  908MOL0     C22508   8.891   4.985   8.501  1.2999 -0.2903  0.7196
  908MOL0     C22509   8.785   4.935   8.463 -0.2194 -0.9693 -0.2198
  908MOL0     C22510   9.601   4.840   8.431 -0.1289 -0.1298 -0.1898
  908MOL0     C22511   9.727   4.772   8.440  0.3480 -0.6788  0.3696
  908MOL0     C22512   9.846   4.861   8.467 -0.1009  1.1547 -1.0627
  908MOL0     H22513   9.882   4.202   8.298 -0.2809  1.4697  3.3100
  908MOL0     H22514  10.103   4.057   8.301  1.1497 -0.6015  1.7821
  908MOL0     H22515  10.351   3.979   8.293 -0.8633  1.3407  0.4564
  908MOL0     H22516  10.282   4.024   8.132 -4.0272  0.5945  2.1119
  908MOL0     H22517  10.554   4.144   8.143  2.7905 -1.2271 -2.1670
  908MOL0     H22518  10.491   4.016   8.051 -0.7604 -0.7342  0.6556
  908MOL0     H22519  10.541   3.847   8.202  2.8607 -0.8710  0.3678
  908MOL0     H22520  10.593   3.940   8.337  0.5031  0.7338  0.2084
  908MOL0     H22521  10.756   3.905   8.084  2.0998  0.8717 -0.5070
  908MOL0     H22522  10.762   4.062   8.148  0.6637 -0.1128  1.3924
  908MOL0     H22523  10.942   3.893   8.212  0.2674 -1.8800  0.5467
  908MOL0     H22524  10.877   3.981   8.349 -0.3215 -0.1696  0.2581
  908MOL0     H22525  10.725   3.768   8.360 -0.0365  1.3153  0.2678
  908MOL0     H22526  10.825   3.707   8.223 -0.9612  1.6853 -0.9178
  908MOL0     H22527  10.983   3.771   8.465 -1.2579  0.6600 -0.7072
  908MOL0     H22528  10.995   3.643   8.344  1.7864  1.3570  0.8409
  908MOL0     H22529  10.769   3.544   8.452  1.3523  0.9423 -1.9027
  908MOL0     H22530  10.923   3.533   8.553 -1.6907  0.1235  2.8294
  908MOL0     H22531  10.974   3.728   8.734  0.5337 -0.2132  0.8067
  908MOL0     H22532  10.843   3.980   8.888 -0.8870  0.0527 -1.8824
  908MOL0     H22533  10.701   3.941   8.959  0.6245  1.7862 -1.3458
  908MOL0     H22534  10.974   3.803   8.971 -0.7475 -1.1696  0.0666
  908MOL0     H22535  10.887   3.868   9.108 -1.8489  0.7259 -0.3711
  908MOL0     H22536  10.902   3.607   9.131 -1.3946  1.8135  3.2111
  908MOL0     H22537  10.794   3.601   8.998 -0.7052  0.5463  0.2695
  908MOL0     H22538  10.735   3.727   9.263 -0.6079  2.1456 -0.6253
  908MOL0     H22539  10.662   3.586   9.192 -0.1048  0.6419  1.8401
  908MOL0     H22540  10.410   3.757   8.935  1.6458 -4.0550  1.0100
  908MOL0     H22541  10.163   3.794   8.992 -0.3285  1.8497  0.0611
  908MOL0     H22542   9.975   4.076   9.480  0.1170  0.6829  0.9126
  908MOL0     H22543   9.741   4.142   9.566  2.8460  0.7104  0.5246
  908MOL0     H22544   9.336   4.049   9.472 -1.1642  0.0737  0.6043
  908MOL0     H22545   9.414   3.910   9.380 -1.9936  1.1352  0.0278
  908MOL0     H22546   9.420   3.767   9.554 -3.5512 -2.9771  1.5794
  908MOL0     H22547   9.357   3.886   9.673  1.1413 -0.9471  0.0575
  908MOL0     H22548   9.183   3.913   9.467  2.4151 -2.4410 -3.7912
  908MOL0     H22549   9.206   3.736   9.465  1.9669  0.4159 -0.0969
  908MOL0     H22550   9.095   3.871   9.705 -1.2874  0.2020 -1.5147
  908MOL0     H22551   9.190   3.727   9.715  3.9085  2.8205 -0.8646
  908MOL0     H22552   8.940   3.702   9.700 -0.3571 -0.3741  0.6274
  908MOL0     H22553   9.026   3.610   9.587 -0.1989  0.4602  0.2547
  908MOL0     H22554   8.982   3.801   9.420  2.3138 -0.9958  1.7015
  908MOL0     H22555   8.848   3.697   9.468  0.3384  0.1511  0.0147
  908MOL0     H22556   8.761   3.886   9.624 -0.7225 -2.1403  0.2907
  908MOL0     H22557   8.759   3.903   9.454  1.2331 -0.4387  0.9733
  908MOL0     H22558   8.929   4.038   9.666 -4.7392  1.6613  2.7913
  908MOL0     H22559   8.994   4.030   9.503 -0.1946 -1.1825 -0.1642
  908MOL0     H22560   9.594   3.784   9.377  0.0695  2.3356 -3.6712
  908MOL0     H22561   9.845   3.733   9.323 -0.2304 -0.3174 -1.5231
  908MOL0     H22562  10.271   3.810   9.404  0.3368 -2.5640 -0.1335
  908MOL0     H22563  10.512   3.792   9.357  1.3342  2.3044 -2.2908
  908MOL0     H22564  10.323   4.421   8.275 -0.4860 -0.5032 -0.6563
  908MOL0     H22565  10.129   4.549   8.285 -0.0445 -0.3188  2.8058
  908MOL0     H22566   9.629   4.468   8.343  0.1646  0.2295 -0.2531
  908MOL0     H22567   9.422   4.580   8.314  0.5281 -1.4882  0.3383
  908MOL0     H22568   9.253   4.693   8.332 -5.8041 -0.3165 -1.0188
  908MOL0     H22569   9.233   4.844   8.241 -0.6811  1.2104  0.6858
  908MOL0     H22570   9.184   4.810   8.539  0.7684 -0.4131  0.2055
  908MOL0     H22571   9.056   4.796   8.409  0.0946 -0.1607  1.4699
  908MOL0     H22572   9.116   5.034   8.352  2.1518 -0.3070 -0.5614
  908MOL0     H22573   9.227   5.044   8.484  1.5646 -1.9650 -0.2918
  908MOL0     H22574   9.041   5.001   8.644 -1.1468  3.0945  1.2112
  908MOL0     H22575   9.021   5.149   8.556  4.4328  0.8014  0.2597
  908MOL0     H22576   8.688   4.904   8.431 -0.3543  0.1992 -1.0411
  908MOL0     H22577   9.588   4.947   8.443  0.4672 -0.0907  0.1397
  908MOL0     H22578   9.825   4.967   8.448 -3.5004  0.5151 -1.6606
  908MOL0     H22579   9.872   4.862   8.573 -1.5253  3.4458 -0.6748
  908MOL0     H22580   9.922   4.835   8.392 -1.8362  1.4920 -3.0394
  909MOL0     O22581   0.937  10.140   3.916 -0.0729  0.3434  0.7465
  909MOL0     C22582   0.850  10.087   3.989 -0.1921  0.0058  0.5718
  909MOL0     O22583   0.866  10.037   4.116  0.5751  0.2967 -0.4036
  909MOL0     C22584   0.986  10.032   4.185 -0.1083 -0.2194 -0.4678
  909MOL0     C22585   0.984   9.972   4.308  0.0964 -0.2018  0.0345
  909MOL0     C22586   1.098   9.949   4.397 -0.2569 -0.2044 -0.2756
  909MOL0     C22587   1.227   9.964   4.340 -0.3763  0.1775 -0.0829
  909MOL0     O22588   1.339   9.941   4.420 -0.3390  0.1696  0.1090
  909MOL0     C22589   1.340   9.835   4.517 -1.0239 -0.2553 -0.2930
  909MOL0     C22590   1.384   9.705   4.442  0.5327  0.6198 -0.3679
  909MOL0     C22591   1.485   9.707   4.330 -0.2015 -0.3267  0.3579
  909MOL0     C22592   1.637   9.733   4.357  0.1139 -0.7479 -0.2005
  909MOL0     C22593   1.715   9.696   4.238  0.0770  0.4753 -0.3321
  909MOL0     C22594   1.735   9.800   4.133  0.2998 -0.7330  0.3163
  909MOL0     C22595   1.829   9.746   4.030  1.3467 -0.1376  0.0869
  909MOL0     C22596   1.853   9.846   3.909  0.1689  0.4689 -0.0128
  909MOL0     N22597   1.906   9.971   3.951 -0.3272  0.1328 -0.1605
  909MOL0     C22598   1.826  10.078   4.001 -0.0201 -0.5717  0.3480
  909MOL0     C22599   1.919  10.174   4.032  0.0439 -0.2267  0.4948
  909MOL0     C22600   1.898  10.315   4.086 -0.0968  1.2152  0.6932
  909MOL0     C22601   2.016  10.379   4.167 -0.2580 -0.3000 -0.4886
  909MOL0     C22602   1.996  10.316   4.303 -0.3599 -1.3321  0.5693
  909MOL0     C22603   2.133  10.321   4.377 -0.4215  0.1815 -1.2835
  909MOL0     O22604   2.097  10.261   4.511  0.4032  0.1912  0.9081
  909MOL0     C22605   2.201  10.180   4.564 -0.7226  0.4379  0.3782
  909MOL0     C22606   2.164  10.064   4.628 -0.6731 -0.6827 -0.2767
  909MOL0     C22607   2.252   9.966   4.671 -0.0850 -0.3103 -0.1073
  909MOL0     C22608   2.394   9.979   4.663  0.4474  0.1297  0.6569
  909MOL0     C22609   2.488   9.865   4.694  0.9394 -0.9599 -0.1368
  909MOL0     O22610   2.433   9.762   4.761  0.3544 -0.5967 -0.2020
  909MOL0     C22611   2.500   9.648   4.745  0.3502 -0.2099  0.3951
  909MOL0     C22612   2.443   9.567   4.650  0.4940 -0.5462 -0.5946
  909MOL0     C22613   2.494   9.441   4.629  0.0502 -0.2455  0.9323
  909MOL0     C22614   2.602   9.400   4.724 -0.1034 -0.0973  0.0399
  909MOL0     O22615   2.650   9.272   4.712  0.0481  0.1815 -0.8995
  909MOL0     C22616   2.794   9.247   4.685 -0.4797  0.0009  0.0495
  909MOL0     C22617   2.853   9.130   4.756  0.3932 -1.1163 -0.7182
  909MOL0     C22618   2.885   9.153   4.903 -0.4331 -0.2525  0.4314
  909MOL0     C22619   2.916   9.018   4.961 -0.2757  1.1297 -0.4697
  909MOL0     C22620   2.952   9.033   5.100 -0.0015  0.3007  0.3619
  909MOL0     C22621   2.997   8.895   5.153 -0.0836 -1.0320  0.8464
  909MOL0     C22622   3.067   8.933   5.287 -0.1011  0.2445 -0.7436
  909MOL0     C22623   3.133   8.800   5.347 -0.7783  0.2910  0.4759
  909MOL0    Cl22624   3.220   8.863   5.483 -0.0705  0.4433  0.1520
  909MOL0     C22625   2.650   9.484   4.820  0.3209  0.1157 -0.8377
  909MOL0     C22626   2.594   9.607   4.832 -0.3922 -0.3713 -0.7863
  909MOL0     O22627   2.605   9.878   4.677 -0.4623 -0.0735 -0.2636
  909MOL0     C22628   2.437  10.107   4.623 -0.2894 -0.8801  0.0619
  909MOL0     C22629   2.344  10.201   4.566  0.3520 -0.1324 -0.1835
  909MOL0     N22630   2.046  10.126   4.011  0.1998  0.4925  0.6589
  909MOL0     N22631   2.039  10.003   3.954 -0.1338 -0.0239  0.0770
  909MOL0     C22632   1.236  10.028   4.215  0.5703 -0.3154  0.4211
  909MOL0     C22633   1.115  10.070   4.139 -0.0408 -0.8676 -0.1464
  909MOL0     C22634   0.713  10.104   3.946 -0.1155 -0.4885 -0.3892
  909MOL0     C22635   0.622  10.115   4.057 -0.5623  0.1091  0.8165
  909MOL0     C22636   0.483  10.122   4.028  0.0533  0.3568  0.2357
  909MOL0     C22637   0.437  10.142   3.902 -0.4102  0.0237  0.6702
  909MOL0     O22638   0.304  10.142   3.872  0.1370  0.1743 -0.0694
  909MOL0     C22639   0.263  10.284   3.860 -0.1412  0.2431 -0.5078
  909MOL0     C22640   0.107  10.293   3.832 -0.6455  0.3603  0.9085
  909MOL0     C22641   0.022  10.237   3.947  0.2301 -1.0759  0.3897
  909MOL0     C22642  -0.121  10.259   3.912 -0.5902 -0.5999  0.1416
  909MOL0     C22643  -0.190  10.221   4.039 -0.2832  0.7200 -0.0029
  909MOL0     C22644  -0.268  10.195   4.125  0.1237  0.5131  0.3057
  909MOL0     C22645   0.524  10.145   3.802 -0.2203  0.1625  0.3220
  909MOL0     C22646   0.662  10.133   3.816  0.2968  0.2097 -0.6693
  909MOL0     C22647   0.729  10.122   3.677  0.1150  0.4093  0.3696
  909MOL0     H22648   0.884   9.966   4.351  0.1916  1.5918  0.5868
  909MOL0     H22649   1.086   9.916   4.499  0.0984 -0.7016 -0.3926
  909MOL0     H22650   1.413   9.848   4.598 -0.0198  0.5561 -1.3012
  909MOL0     H22651   1.243   9.818   4.564 -2.4648 -0.1127 -3.0272
  909MOL0     H22652   1.290   9.666   4.400  0.3948  0.0625  0.4314
  909MOL0     H22653   1.423   9.630   4.511  1.3600 -2.0485 -3.5136
  909MOL0     H22654   1.458   9.783   4.256  1.7207  1.7040  1.5786
  909MOL0     H22655   1.483   9.609   4.282  1.1334 -1.1493  1.8825
  909MOL0     H22656   1.662   9.836   4.386  0.8989 -1.2761  1.0597
  909MOL0     H22657   1.671   9.673   4.441  0.3861 -0.2218  0.0738
  909MOL0     H22658   1.815   9.671   4.275  0.1254  1.0492 -0.0640
  909MOL0     H22659   1.670   9.607   4.195 -0.5006  1.6221 -2.1893
  909MOL0     H22660   1.633   9.826   4.104  0.3962  3.0593  2.7349
  909MOL0     H22661   1.782   9.888   4.176 -1.3995 -0.4378  1.6768
  909MOL0     H22662   1.776   9.661   3.988  0.9906 -0.2515  0.7472
  909MOL0     H22663   1.929   9.710   4.058  1.9461 -0.1334 -1.8971
  909MOL0     H22664   1.920   9.796   3.839 -1.6710 -1.7203 -0.3019
  909MOL0     H22665   1.763   9.875   3.854  1.7612  2.5990 -1.7010
  909MOL0     H22666   1.719  10.094   4.002  0.1834  1.4518 -1.8731
  909MOL0     H22667   1.874  10.373   3.997 -2.2926 -0.5145  0.0525
  909MOL0     H22668   1.808  10.312   4.148 -1.3922 -0.1011 -1.1424
  909MOL0     H22669   2.118  10.357   4.132  1.6197  0.5222  3.8191
  909MOL0     H22670   1.997  10.486   4.164 -0.0042 -0.1631  1.5628
  909MOL0     H22671   1.955  10.215   4.294 -0.2740 -1.2767 -0.5394
  909MOL0     H22672   1.921  10.366   4.367  0.5399 -1.6324  1.8972
  909MOL0     H22673   2.163  10.425   4.396 -0.4790 -0.3798  2.8174
  909MOL0     H22674   2.203  10.260   4.319  1.6146 -0.1332  1.2811
  909MOL0     H22675   2.061  10.040   4.652 -0.3506 -0.7098  1.2067
  909MOL0     H22676   2.203   9.884   4.722  0.2754 -0.9422 -0.7547
  909MOL0     H22677   2.359   9.599   4.588  2.4218  1.4041 -2.3988
  909MOL0     H22678   2.457   9.378   4.549 -1.2956  3.0392 -1.2262
  909MOL0     H22679   2.792   9.231   4.576 -0.8899 -3.5449  0.4762
  909MOL0     H22680   2.843   9.344   4.699 -2.5096  0.6418  3.9860
  909MOL0     H22681   2.786   9.045   4.743  1.2586 -1.9300  0.0588
  909MOL0     H22682   2.943   9.112   4.697 -0.4272  0.1909 -2.4658
  909MOL0     H22683   2.962   9.228   4.923 -0.7348  0.2519 -0.2542
  909MOL0     H22684   2.799   9.200   4.950  0.0430  1.1632 -0.0655
  909MOL0     H22685   3.009   8.984   4.913  0.3621 -0.3731  1.6834
  909MOL0     H22686   2.833   8.949   4.941 -0.3415  1.2769 -0.7224
  909MOL0     H22687   2.861   9.059   5.153  1.0149  1.5154  1.5673
  909MOL0     H22688   3.034   9.105   5.104  0.8565 -0.6893  1.1543
  909MOL0     H22689   2.913   8.828   5.177 -2.3504  0.8954 -1.1468
  909MOL0     H22690   3.066   8.850   5.081 -2.4023 -2.6291 -0.5285
  909MOL0     H22691   2.990   8.975   5.353  1.2530 -1.8765  2.4294
  909MOL0     H22692   3.145   9.007   5.266  2.3740 -0.6649  3.8929
  909MOL0     H22693   3.050   8.733   5.372 -0.4469 -0.7333 -1.0538
  909MOL0     H22694   3.206   8.756   5.279 -0.4601  1.2758  0.1574
  909MOL0     H22695   2.733   9.452   4.882 -1.4192 -0.4666  1.3151
  909MOL0     H22696   2.625   9.679   4.908  0.7150 -0.8149 -0.7965
  909MOL0     H22697   2.545  10.115   4.613 -0.3243  0.3663  0.5252
  909MOL0     H22698   2.393  10.287   4.521  1.3480  0.6714  2.3047
  909MOL0     H22699   1.330  10.034   4.162 -1.3896  0.9750 -3.2274
  909MOL0     H22700   1.129  10.118   4.043 -2.5942  0.6523  0.1545
  909MOL0     H22701   0.658  10.130   4.158  3.3244  0.6494 -0.4725
  909MOL0     H22702   0.413  10.100   4.109  1.6574  1.2958  1.9594
  909MOL0     H22703   0.316  10.328   3.774 -2.7283 -2.5704 -3.8477
  909MOL0     H22704   0.284  10.333   3.955  0.4520  0.2599 -0.6407
  909MOL0     H22705   0.086  10.241   3.738  0.0998  0.1421  0.8570
  909MOL0     H22706   0.086  10.399   3.814 -0.4388  0.2040 -0.3945
  909MOL0     H22707   0.033  10.305   4.033  0.3356 -1.7797  0.9409
  909MOL0     H22708   0.039  10.133   3.977 -1.1521 -0.6174  3.1178
  909MOL0     H22709  -0.128  10.368   3.907 -1.0699 -0.6976 -2.0671
  909MOL0     H22710  -0.145  10.222   3.812  1.2998 -1.6520  0.0193
  909MOL0     H22711  -0.336  10.182   4.207 -1.9781  4.1056 -0.6562
  909MOL0     H22712   0.475  10.155   3.705  1.3013  2.9494 -0.2632
  909MOL0     H22713   0.749  10.016   3.656  0.5132 -0.0051  2.6084
  909MOL0     H22714   0.667  10.164   3.597 -0.9780  1.1820  1.5793
  909MOL0     H22715   0.824  10.176   3.668  0.3653 -0.1802 -0.6929
  910MOL0     O22716   7.783   7.197   9.632 -0.3189 -0.8820 -0.5385
  910MOL0     C22717   7.837   7.117   9.564 -0.3922  0.2886  0.3479
  910MOL0     O22718   7.849   7.125   9.428 -0.7111 -0.2671 -0.2358
  910MOL0     C22719   7.798   7.238   9.361 -0.3970  0.3196 -1.0687
  910MOL0     C22720   7.871   7.357   9.342  0.4140  0.4706 -0.7612
  910MOL0     C22721   7.817   7.465   9.269  0.5267  0.8250 -0.5083
  910MOL0     C22722   7.687   7.456   9.222  0.2590 -0.5581 -1.3869
  910MOL0     O22723   7.637   7.577   9.177 -0.4246 -0.4737 -0.0252
  910MOL0     C22724   7.504   7.602   9.123  0.5126 -0.6957 -0.6995
  910MOL0     C22725   7.514   7.673   9.001 -0.5146 -0.1363 -0.4643
  910MOL0     C22726   7.380   7.694   8.939 -1.4843 -0.1610 -0.1663
  910MOL0     C22727   7.397   7.770   8.799 -0.2097 -0.6504 -0.4627
  910MOL0     C22728   7.261   7.779   8.730  0.4470  0.0173 -0.0758
  910MOL0     C22729   7.149   7.840   8.809  0.5710  0.0196  0.6587
  910MOL0     C22730   7.020   7.828   8.741 -0.1061 -0.3987  0.4613
  910MOL0     C22731   6.923   7.933   8.787  0.2330  0.0103  0.2183
  910MOL0     N22732   6.807   7.920   8.709  0.7418 -0.4314 -0.3217
  910MOL0     C22733   6.788   7.935   8.580 -0.6024  0.0580 -0.1927
  910MOL0     C22734   6.672   7.873   8.556 -0.3940  0.3474  0.1998
  910MOL0     C22735   6.591   7.855   8.428 -0.2197 -0.3323  0.2615
  910MOL0     C22736   6.632   7.971   8.335 -0.0807  0.0725 -0.3008
  910MOL0     C22737   6.569   7.954   8.196 -1.5326 -0.5543  0.1328
  910MOL0     C22738   6.550   8.092   8.125 -0.0355 -0.2417  0.4745
  910MOL0     O22739   6.667   8.179   8.140 -0.0122  1.0343  1.2112
  910MOL0     C22740   6.670   8.306   8.075  0.0073  0.4580 -0.4880
  910MOL0     C22741   6.791   8.371   8.052 -0.4230 -0.5279 -0.2204
  910MOL0     C22742   6.798   8.484   7.977  1.1940 -1.0306  0.2529
  910MOL0     C22743   6.676   8.545   7.921  0.2792  0.5180 -0.6288
  910MOL0     C22744   6.688   8.662   7.848  0.3215 -0.1208 -0.2556
  910MOL0     O22745   6.808   8.709   7.819  0.0244  0.2220  0.7739
  910MOL0     C22746   6.829   8.840   7.782 -0.2693 -0.3282 -0.0822
  910MOL0     C22747   6.875   8.935   7.878  0.2572  0.9589  0.7840
  910MOL0     C22748   6.909   9.067   7.860  0.8854  0.4423  0.2147
  910MOL0     C22749   6.883   9.120   7.730 -0.3718  0.4066 -0.6749
  910MOL0     O22750   6.897   9.254   7.716  0.3197 -0.6973 -0.1017
  910MOL0     C22751   7.004   9.323   7.636  0.8233 -0.2345 -0.7347
  910MOL0     C22752   6.943   9.454   7.581 -1.0177 -0.5490  0.8834
  910MOL0     C22753   6.825   9.432   7.482  0.3900 -0.1717 -0.3540
  910MOL0     C22754   6.698   9.494   7.530  1.1383  0.1504 -0.2871
  910MOL0     C22755   6.586   9.485   7.420  0.2916 -0.3216  0.8427
  910MOL0     C22756   6.451   9.512   7.487  0.3262 -0.1995  0.2680
  910MOL0     C22757   6.344   9.526   7.381 -0.4177 -0.2471 -0.5205
  910MOL0     C22758   6.270   9.391   7.352  0.5370 -0.5047 -0.1950
  910MOL0    Cl22759   6.368   9.268   7.294  0.1797  0.2972  0.3784
  910MOL0     C22760   6.836   9.046   7.627  0.4034  0.5280  0.6018
  910MOL0     C22761   6.808   8.904   7.651 -0.2291  0.1521 -0.5030
  910MOL0     O22762   6.583   8.712   7.804  0.1865  0.2699  0.8468
  910MOL0     C22763   6.550   8.485   7.954  0.3586  0.3868  0.3014
  910MOL0     C22764   6.550   8.364   8.024  0.4810 -0.4181  0.0774
  910MOL0     N22765   6.624   7.815   8.673  0.0286  0.2959 -0.3917
  910MOL0     N22766   6.703   7.858   8.765 -0.3802 -0.4906  0.3140
  910MOL0     C22767   7.612   7.333   9.242 -0.1088  0.5896 -0.2233
  910MOL0     C22768   7.666   7.228   9.311  1.3897  0.5478 -1.0441
  910MOL0     C22769   7.885   6.999   9.627  0.0749  0.1257 -0.0205
  910MOL0     C22770   7.919   6.894   9.543  0.2273 -0.3201  0.0775
  910MOL0     C22771   7.974   6.780   9.592 -0.4103  0.5306  0.4813
  910MOL0     C22772   7.978   6.755   9.730  0.2166 -0.5515 -0.8463
  910MOL0     O22773   8.023   6.633   9.784  0.8513  0.1302 -0.1035
  910MOL0     C22774   7.996   6.513   9.714 -0.5058  0.9162 -0.1957
  910MOL0     C22775   8.023   6.394   9.794 -0.6623  0.8649  0.7533
  910MOL0     C22776   7.968   6.264   9.730  0.3617  0.1219  0.4560
  910MOL0     C22777   8.007   6.133   9.790 -0.7922  0.8113  0.1343
  910MOL0     C22778   8.146   6.103   9.751  0.1554  0.1344  0.4188
  910MOL0     C22779   8.263   6.081   9.717  0.1487 -0.3242  0.5104
  910MOL0     C22780   7.932   6.859   9.810  0.3063  0.9099  0.1770
  910MOL0     C22781   7.886   6.977   9.765 -0.2268  0.3535 -0.8009
  910MOL0     C22782   7.823   7.059   9.879  0.3338 -0.4095  0.7152
  910MOL0     H22783   7.975   7.361   9.373  0.2426 -2.0529  0.3713
  910MOL0     H22784   7.878   7.549   9.239  1.1684  0.7153  0.4139
  910MOL0     H22785   7.457   7.505   9.103 -4.2841  1.5464 -1.8785
  910MOL0     H22786   7.434   7.654   9.188 -0.2626  2.6341 -3.8714
  910MOL0     H22787   7.579   7.619   8.932  2.0740  1.3530  0.6565
  910MOL0     H22788   7.554   7.772   9.024 -3.2413  0.9392 -0.0311
  910MOL0     H22789   7.320   7.758   9.003  2.5017  2.2020  1.5917
  910MOL0     H22790   7.335   7.594   8.931  2.5282 -2.3791  1.8065
  910MOL0     H22791   7.424   7.874   8.821 -2.5829  0.8210 -3.6581
  910MOL0     H22792   7.479   7.721   8.746 -0.7447 -3.4337  1.1253
  910MOL0     H22793   7.273   7.836   8.637  2.1704  6.3529  3.4314
  910MOL0     H22794   7.243   7.671   8.719  1.2018  0.0964 -3.0136
  910MOL0     H22795   7.133   7.789   8.905 -0.0667  0.6575  0.9061
  910MOL0     H22796   7.160   7.948   8.825 -2.4636  0.6725 -0.8967
  910MOL0     H22797   6.976   7.728   8.756  0.3758 -0.3325  2.5871
  910MOL0     H22798   7.045   7.839   8.635  1.1804 -0.9618  0.6895
  910MOL0     H22799   6.914   7.913   8.894  0.8788 -0.7496  0.1449
  910MOL0     H22800   6.958   8.032   8.757  0.6064 -0.2312 -0.1430
  910MOL0     H22801   6.852   7.983   8.507 -0.2919 -1.9374 -1.2828
  910MOL0     H22802   6.597   7.758   8.377 -3.3650 -1.9151  2.5424
  910MOL0     H22803   6.487   7.866   8.459 -0.1791 -0.1610  0.3311
  910MOL0     H22804   6.586   8.053   8.391 -1.0629 -0.9028  0.3500
  910MOL0     H22805   6.740   7.974   8.315 -0.0145 -3.2996 -1.0521
  910MOL0     H22806   6.475   7.902   8.215 -0.5291 -1.2729  3.9674
  910MOL0     H22807   6.635   7.900   8.127 -0.8439 -1.1742  1.2581
  910MOL0     H22808   6.458   8.140   8.160 -0.1734 -0.1328 -0.0421
  910MOL0     H22809   6.525   8.090   8.019 -0.6044 -0.4125  0.6090
  910MOL0     H22810   6.877   8.311   8.079  1.8636  2.0861 -1.1774
  910MOL0     H22811   6.893   8.527   7.945  0.3597 -0.1427 -1.1248
  910MOL0     H22812   6.877   8.917   7.985 -3.7526  1.4122  1.0769
  910MOL0     H22813   6.939   9.130   7.942 -0.5438  0.8426  0.4574
  910MOL0     H22814   7.092   9.346   7.697 -0.0418  0.5169  0.2594
  910MOL0     H22815   7.033   9.259   7.551 -0.7637  3.0041 -3.9681
  910MOL0     H22816   6.913   9.516   7.667 -3.4231 -2.0779  1.2305
  910MOL0     H22817   7.025   9.506   7.529 -1.1983  0.6330  1.7161
  910MOL0     H22818   6.850   9.487   7.391 -0.8029 -1.7097 -1.6491
  910MOL0     H22819   6.804   9.325   7.471  1.1527 -0.2504 -1.1577
  910MOL0     H22820   6.714   9.596   7.566 -1.0970  0.1941  0.6980
  910MOL0     H22821   6.678   9.432   7.617 -0.3306  0.9031 -0.0538
  910MOL0     H22822   6.596   9.391   7.364 -0.7557 -0.3723  0.7256
  910MOL0     H22823   6.596   9.576   7.360 -1.8230  0.6676  1.8984
  910MOL0     H22824   6.419   9.425   7.546 -0.7885  1.5683  2.4108
  910MOL0     H22825   6.459   9.603   7.546  1.5825 -0.5475  0.6756
  910MOL0     H22826   6.383   9.565   7.286  1.3651  1.3818  0.8189
  910MOL0     H22827   6.283   9.613   7.408  2.7108  3.0954 -3.1312
  910MOL0     H22828   6.226   9.357   7.447 -2.3911  2.1269 -0.4343
  910MOL0     H22829   6.183   9.401   7.286 -1.0174  0.4736  1.8554
  910MOL0     H22830   6.801   9.097   7.539 -0.7743 -0.6741  0.3354
  910MOL0     H22831   6.766   8.851   7.566  0.3778 -2.5311  0.7491
  910MOL0     H22832   6.459   8.532   7.919 -1.3578 -0.0818  3.7016
  910MOL0     H22833   6.454   8.316   8.040 -0.0801  0.9729  1.1018
  910MOL0     H22834   7.511   7.312   9.208 -1.3321  4.8880  0.2080
  910MOL0     H22835   7.605   7.138   9.315  0.6585  1.0364 -0.8734
  910MOL0     H22836   7.894   6.900   9.437 -0.7904 -3.0890  0.0674
  910MOL0     H22837   8.028   6.712   9.527 -1.2414 -0.3238  0.6628
  910MOL0     H22838   8.052   6.503   9.621 -2.3044  2.0627 -1.4862
  910MOL0     H22839   7.889   6.515   9.691 -0.6379  0.6362  0.3643
  910MOL0     H22840   7.992   6.399   9.899 -1.4141  1.1736  0.5278
  910MOL0     H22841   8.131   6.392   9.810 -0.4831  0.4299 -0.3613
  910MOL0     H22842   7.978   6.266   9.621  2.7321 -0.0545  0.6311
  910MOL0     H22843   7.862   6.276   9.755  0.2393 -0.1004  0.0531
  910MOL0     H22844   7.998   6.150   9.897  1.1494  0.5759  0.3730
  910MOL0     H22845   7.942   6.052   9.757 -0.7026  0.3373  1.0946
  910MOL0     H22846   8.358   6.066   9.669 -0.6024  0.1057 -1.1896
  910MOL0     H22847   7.933   6.839   9.917  0.5556  3.6671  0.7546
  910MOL0     H22848   7.715   7.043   9.866 -0.2153  2.1739  1.4789
  910MOL0     H22849   7.859   7.036   9.980  2.5143 -1.0042 -0.1502
  910MOL0     H22850   7.847   7.165   9.866 -0.9307 -0.4377 -3.3350
  911MOL0     O22851   0.407   6.297   2.494  0.7846 -0.6646 -0.4865
  911MOL0     C22852   0.503   6.372   2.510  0.0929  0.0295  0.3550
  911MOL0     O22853   0.530   6.478   2.429  0.3910 -0.4319 -0.4389
  911MOL0     C22854   0.430   6.535   2.355 -0.4816 -0.0250 -0.0672
  911MOL0     C22855   0.319   6.476   2.291  0.0754  0.3555 -0.1293
  911MOL0     C22856   0.226   6.547   2.216 -0.0502  1.1632 -0.6438
  911MOL0     C22857   0.251   6.684   2.200  1.1904  0.1717  0.0460
  911MOL0     O22858   0.174   6.771   2.126 -0.6739 -0.9291  0.1857
  911MOL0     C22859   0.053   6.726   2.075  0.2421  0.3986 -0.9694
  911MOL0     C22860  -0.045   6.827   2.035 -0.7552  0.0817 -0.1005
  911MOL0     C22861   0.014   6.922   1.927  0.8436  0.9505  0.2043
  911MOL0     C22862  -0.091   7.032   1.909  1.1282 -0.4347 -0.2885
  911MOL0     C22863  -0.043   7.137   1.806  0.5184  0.5798 -0.3302
  911MOL0     C22864  -0.171   7.218   1.766 -0.4928  0.0450 -0.1844
  911MOL0     C22865  -0.130   7.317   1.659  0.0571 -0.2845 -0.4896
  911MOL0     C22866  -0.079   7.449   1.728  0.6749 -0.4336  0.0921
  911MOL0     N22867  -0.061   7.562   1.624 -0.2650  1.5221 -0.3255
  911MOL0     C22868   0.015   7.540   1.513 -0.5467  0.0249  0.0064
  911MOL0     C22869  -0.027   7.618   1.412 -0.4429  0.9412 -0.3094
  911MOL0     C22870   0.035   7.627   1.277  1.0185  0.9026  0.2023
  911MOL0     C22871  -0.072   7.614   1.163 -0.5198  0.1612 -0.2351
  911MOL0     C22872  -0.002   7.625   1.025 -0.9550 -0.2399  0.5711
  911MOL0     C22873  -0.097   7.619   0.905 -0.6142  0.9837  0.4974
  911MOL0     O22874  -0.080   7.504   0.816  0.3182  0.0950 -0.5016
  911MOL0     C22875  -0.170   7.477   0.718  0.1855  0.1075  1.3729
  911MOL0     C22876  -0.140   7.367   0.646  0.2714  1.0859 -0.2698
  911MOL0     C22877  -0.233   7.320   0.554  0.1925 -0.0720 -0.6321
  911MOL0     C22878  -0.343   7.399   0.504  0.1186  0.9306 -0.1633
  911MOL0     C22879  -0.439   7.341   0.408  0.3682 -0.3249 -0.7947
  911MOL0     O22880  -0.405   7.216   0.350 -0.0673 -0.2071  0.2711
  911MOL0     C22881  -0.490   7.141   0.271  0.4774  0.2486  0.7613
  911MOL0     C22882  -0.618   7.111   0.326 -0.0614 -0.1552 -0.3854
  911MOL0     C22883  -0.714   7.038   0.258  0.6856 -0.6963 -0.6228
  911MOL0     C22884  -0.678   6.989   0.128 -0.3353  0.1220  0.0085
  911MOL0     O22885  -0.773   6.907   0.074 -0.6199 -0.2509 -0.4017
  911MOL0     C22886  -0.751   6.883  -0.065 -0.3970  0.7109  0.3815
  911MOL0     C22887  -0.876   6.820  -0.142 -0.2348 -0.7545  0.5602
  911MOL0     C22888  -0.995   6.913  -0.148 -0.1529 -0.1659  0.0844
  911MOL0     C22889  -1.108   6.833  -0.202 -0.0644 -1.3094  0.6664
  911MOL0     C22890  -1.216   6.937  -0.249 -0.2085  0.9434 -0.7977
  911MOL0     C22891  -1.341   6.859  -0.291  0.4372 -0.0013  0.5771
  911MOL0     C22892  -1.460   6.946  -0.340  0.2833 -0.3020 -0.1437
  911MOL0     C22893  -1.573   6.850  -0.384  0.2160  0.4841 -0.6662
  911MOL0    Cl22894  -1.724   6.940  -0.379 -0.0313  0.1663  0.2485
  911MOL0     C22895  -0.553   7.019   0.075  0.0450 -0.8545 -0.4640
  911MOL0     C22896  -0.459   7.093   0.144  0.4258 -0.4257 -1.4696
  911MOL0     O22897  -0.545   7.407   0.391 -0.7277  0.7920 -0.2249
  911MOL0     C22898  -0.369   7.523   0.563  0.2579 -0.1107 -0.4487
  911MOL0     C22899  -0.285   7.559   0.674  0.6211  0.5637  0.7157
  911MOL0     N22900  -0.126   7.691   1.464  0.0643  0.7069  0.2241
  911MOL0     N22901  -0.142   7.658   1.593 -0.0774 -0.7986 -0.1484
  911MOL0     C22902   0.361   6.746   2.251 -0.9388 -0.4985 -0.1054
  911MOL0     C22903   0.448   6.675   2.329  0.2199  0.3424 -0.4589
  911MOL0     C22904   0.593   6.351   2.632  0.4108 -0.0021  1.1486
  911MOL0     C22905   0.596   6.221   2.705 -0.2806 -0.9669 -1.4873
  911MOL0     C22906   0.685   6.193   2.816  0.1625  0.6470 -0.1698
  911MOL0     C22907   0.771   6.291   2.857 -0.2634  0.4013  0.4909
  911MOL0     O22908   0.861   6.256   2.952 -0.9366  0.1141 -0.8635
  911MOL0     C22909   0.986   6.330   2.960  0.3290  0.2195  0.0428
  911MOL0     C22910   1.085   6.307   2.844  0.9623  0.9033  0.1415
  911MOL0     C22911   1.123   6.152   2.843 -0.3322  0.0285  0.1579
  911MOL0     C22912   1.214   6.101   2.735  0.7988  0.1661 -0.3524
  911MOL0     C22913   1.213   5.956   2.732  0.1721 -0.5135  0.0481
  911MOL0     C22914   1.233   5.833   2.723  0.5654 -0.2325  0.1274
  911MOL0     C22915   0.753   6.419   2.809 -0.3546 -0.0157  0.3564
  911MOL0     C22916   0.684   6.452   2.691  0.3148  0.0053 -1.0142
  911MOL0     C22917   0.702   6.594   2.644  0.2788  0.5806  0.3888
  911MOL0     H22918   0.298   6.370   2.305  1.1489  0.0813 -0.4879
  911MOL0     H22919   0.144   6.497   2.165 -1.2792  1.7048  0.7513
  911MOL0     H22920   0.062   6.657   1.990  1.5402 -0.0856 -0.4597
  911MOL0     H22921   0.021   6.653   2.150  0.7230 -0.8585 -1.9443
  911MOL0     H22922  -0.073   6.882   2.126 -0.5473  0.6429 -0.3736
  911MOL0     H22923  -0.138   6.780   2.000 -0.4379 -0.4279 -0.2735
  911MOL0     H22924   0.034   6.863   1.838 -0.5269  2.5302 -1.2120
  911MOL0     H22925   0.108   6.962   1.966  2.3285 -1.6424 -0.5147
  911MOL0     H22926  -0.181   6.988   1.866  0.1374  0.3781  0.8889
  911MOL0     H22927  -0.104   7.074   2.009 -0.5510  0.2888 -0.7858
  911MOL0     H22928   0.033   7.204   1.847 -0.4410  0.4470  1.8078
  911MOL0     H22929  -0.010   7.087   1.714  0.8190  0.8827 -0.3897
  911MOL0     H22930  -0.237   7.153   1.708 -1.8051  3.1350 -2.4442
  911MOL0     H22931  -0.226   7.248   1.855 -2.1003  0.8764 -1.4095
  911MOL0     H22932  -0.224   7.337   1.606 -2.1246 -0.9023  2.8641
  911MOL0     H22933  -0.052   7.267   1.600  2.8246  0.5982  2.2138
  911MOL0     H22934  -0.152   7.492   1.797 -0.1968 -1.2628 -0.2949
  911MOL0     H22935   0.013   7.439   1.785  0.7491 -0.8779 -0.0988
  911MOL0     H22936   0.091   7.462   1.522 -0.4199  0.1830  0.3239
  911MOL0     H22937   0.081   7.725   1.274  0.3585  1.2942  1.9292
  911MOL0     H22938   0.110   7.550   1.259 -1.5880 -1.2629 -2.6419
  911MOL0     H22939  -0.121   7.517   1.174 -0.3797  0.1403  0.2352
  911MOL0     H22940  -0.146   7.694   1.175  0.1128  0.7008  0.1953
  911MOL0     H22941   0.077   7.549   1.028 -1.6873 -0.9829  1.9318
  911MOL0     H22942   0.042   7.725   1.030 -0.0818 -0.5646 -0.2658
  911MOL0     H22943  -0.088   7.711   0.847 -2.6049  2.4970  2.4375
  911MOL0     H22944  -0.198   7.629   0.946 -1.7352  0.1492 -1.9247
  911MOL0     H22945  -0.056   7.301   0.666  0.4862  1.9092  1.8443
  911MOL0     H22946  -0.206   7.223   0.516  2.0212 -0.2624  0.9778
  911MOL0     H22947  -0.635   7.140   0.429  2.3027 -2.8751  0.9221
  911MOL0     H22948  -0.808   7.008   0.305  0.2524  1.7262  0.1808
  911MOL0     H22949  -0.729   6.982  -0.107 -1.8141 -0.4937 -3.6562
  911MOL0     H22950  -0.674   6.806  -0.077  0.1423  0.7317  3.0454
  911MOL0     H22951  -0.835   6.792  -0.239 -2.6604  0.1120 -0.7900
  911MOL0     H22952  -0.914   6.735  -0.086 -1.1128 -1.6685 -1.3422
  911MOL0     H22953  -1.024   6.972  -0.060  1.3642 -0.8917  1.1122
  911MOL0     H22954  -0.963   6.987  -0.222  0.9704 -0.3441  0.3798
  911MOL0     H22955  -1.150   6.772  -0.122 -0.1914  0.4589  2.0161
  911MOL0     H22956  -1.068   6.775  -0.286 -0.6995 -1.0863  0.2021
  911MOL0     H22957  -1.176   6.991  -0.335  0.5629  0.0093 -1.0297
  911MOL0     H22958  -1.242   7.011  -0.172 -0.6978 -0.0218 -0.0193
  911MOL0     H22959  -1.318   6.793  -0.375  3.9463 -2.0111  2.8538
  911MOL0     H22960  -1.384   6.799  -0.210 -1.5001  0.0526 -0.3542
  911MOL0     H22961  -1.437   7.011  -0.425  1.6526  0.5452  0.8337
  911MOL0     H22962  -1.494   7.018  -0.264 -0.1501 -0.9113  0.2473
  911MOL0     H22963  -1.557   6.818  -0.488  0.7181 -0.1516 -0.4055
  911MOL0     H22964  -1.571   6.751  -0.337  4.5878 -0.3748 -2.0993
  911MOL0     H22965  -0.516   6.976  -0.018 -0.1724 -0.7321 -0.6069
  911MOL0     H22966  -0.365   7.114   0.096  0.0925 -1.7262 -2.7720
  911MOL0     H22967  -0.451   7.593   0.545  0.6812  0.7778  0.9709
  911MOL0     H22968  -0.312   7.647   0.732 -2.1348 -0.5095  1.2068
  911MOL0     H22969   0.378   6.850   2.226  0.4528  0.0932  2.8457
  911MOL0     H22970   0.530   6.721   2.384 -0.2143  1.0755 -0.4169
  911MOL0     H22971   0.519   6.146   2.684 -0.6732 -2.1765  3.2631
  911MOL0     H22972   0.705   6.094   2.856 -1.1165  1.0062  1.4410
  911MOL0     H22973   1.035   6.310   3.056 -2.3655 -1.0780  1.2527
  911MOL0     H22974   0.967   6.436   2.979 -0.1096  0.2035 -0.3116
  911MOL0     H22975   1.179   6.360   2.860  1.5701 -0.2074  0.3919
  911MOL0     H22976   1.032   6.330   2.751 -1.3214  5.3170  2.2542
  911MOL0     H22977   1.028   6.102   2.819 -0.7015 -0.1322  1.8310
  911MOL0     H22978   1.152   6.121   2.944 -2.1110 -2.3885  0.0347
  911MOL0     H22979   1.180   6.145   2.641  0.4336  0.2530 -0.1820
  911MOL0     H22980   1.317   6.126   2.759 -0.4015  2.4672  3.2187
  911MOL0     H22981   1.254   5.728   2.725  0.2586 -0.3179  3.0016
  911MOL0     H22982   0.807   6.496   2.864 -3.2774  1.7446  0.9770
  911MOL0     H22983   0.605   6.643   2.637  0.2013  0.3920  0.1322
  911MOL0     H22984   0.754   6.653   2.720 -2.2618  0.3678  2.4190
  911MOL0     H22985   0.751   6.592   2.546  3.6559  3.9435  1.7701
  912MOL0     O22986  10.237   8.154  10.093  0.7164  0.4133 -0.4583
  912MOL0     C22987  10.142   8.193  10.165 -0.2328  0.6225  0.9776
  912MOL0     O22988  10.008   8.174  10.135 -0.3555  0.0523  0.9370
  912MOL0     C22989   9.975   8.125  10.009  0.0974 -0.3757 -0.2512
  912MOL0     C22990  10.003   7.994   9.989  0.0483 -0.0646  0.6859
  912MOL0     C22991   9.967   7.936   9.869  0.0050 -0.1762  0.5389
  912MOL0     C22992   9.897   8.008   9.776  0.3844 -0.6041  0.1984
  912MOL0     O22993   9.841   7.957   9.652 -1.2160 -0.0618 -0.6632
  912MOL0     C22994   9.845   7.817   9.626 -0.0794  0.2199 -0.1742
  912MOL0     C22995   9.825   7.809   9.479  0.3031  0.1619  0.6317
  912MOL0     C22996   9.853   7.672   9.429 -0.7951 -0.4365 -1.3015
  912MOL0     C22997   9.847   7.678   9.278  0.2199  0.4138  0.1943
  912MOL0     C22998   9.914   7.548   9.218  0.1087 -0.3038 -0.0071
  912MOL0     C22999   9.836   7.422   9.257 -0.3327  0.3351  0.3198
  912MOL0     C23000   9.881   7.292   9.188  0.9782  0.4284  0.3071
  912MOL0     C23001  10.016   7.249   9.247 -0.4162 -0.2435 -0.2003
  912MOL0     N23002  10.013   7.240   9.395  0.3399 -1.1922 -0.1213
  912MOL0     C23003  10.123   7.236   9.473 -0.4698 -0.5302  0.5728
  912MOL0     C23004  10.074   7.191   9.588 -0.0287 -0.5855 -0.6699
  912MOL0     C23005  10.147   7.184   9.716  1.0500 -0.0004 -0.3060
  912MOL0     C23006  10.110   7.281   9.821  0.1696 -0.3356 -0.1606
  912MOL0     C23007  10.221   7.344   9.905 -0.5767  0.3839  0.2150
  912MOL0     C23008  10.291   7.460   9.836  0.1413 -1.2492 -0.6662
  912MOL0     O23009  10.205   7.572   9.817  0.5695  0.3721  0.1965
  912MOL0     C23010  10.220   7.642   9.701  0.3715  0.2760  0.2965
  912MOL0     C23011  10.256   7.773   9.713 -0.0346 -1.0592  0.8740
  912MOL0     C23012  10.260   7.853   9.597 -0.7048  0.5410  0.1816
  912MOL0     C23013  10.241   7.795   9.468 -0.6286 -0.3575 -0.7503
  912MOL0     C23014  10.247   7.875   9.348  0.3627  0.7943 -0.5975
  912MOL0     O23015  10.226   7.801   9.229 -0.6457  0.0140 -0.0986
  912MOL0     C23016  10.246   7.850   9.105  0.6519  0.1089  1.0829
  912MOL0     C23017  10.247   7.744   9.003  0.4354  0.5669 -0.5357
  912MOL0     C23018  10.260   7.776   8.875  0.1240 -0.3950 -0.1978
  912MOL0     C23019  10.278   7.910   8.836  1.1769  0.3989  0.4848
  912MOL0     O23020  10.303   7.918   8.696  0.6442 -0.3071  0.3289
  912MOL0     C23021  10.333   8.050   8.640  0.0411 -0.4587  0.7118
  912MOL0     C23022  10.398   8.045   8.495  0.9598  0.2217 -0.8289
  912MOL0     C23023  10.537   7.988   8.494 -0.5370 -0.8876  0.2655
  912MOL0     C23024  10.646   8.052   8.401  0.4231  1.1206  0.6394
  912MOL0     C23025  10.598   8.053   8.253 -0.1696  0.1344  0.9897
  912MOL0     C23026  10.694   8.115   8.145 -0.7552  0.4035 -0.4191
  912MOL0     C23027  10.651   8.113   7.998  1.0124  0.5011 -0.2023
  912MOL0     C23028  10.761   8.127   7.892 -0.5833 -0.6658  0.3634
  912MOL0    Cl23029  10.849   8.275   7.907  0.1289  0.1255  0.2204
  912MOL0     C23030  10.261   8.016   8.922 -0.2075 -0.1216 -0.8512
  912MOL0     C23031  10.249   7.989   9.056 -0.9856  0.3126  0.1158
  912MOL0     O23032  10.279   7.993   9.353  0.6742 -0.0863  0.0413
  912MOL0     C23033  10.220   7.660   9.457  0.0635  0.7112 -0.1210
  912MOL0     C23034  10.207   7.582   9.577  0.2185 -0.7511 -0.2333
  912MOL0     N23035   9.939   7.162   9.572  0.8352  0.6388 -0.6111
  912MOL0     N23036   9.906   7.186   9.453  0.3165 -0.9506  0.4031
  912MOL0     C23037   9.870   8.149   9.792 -0.6253 -0.2859  0.0334
  912MOL0     C23038   9.907   8.210   9.918  0.0500 -1.1266 -0.5097
  912MOL0     C23039  10.186   8.250  10.302  0.2328 -1.4538 -0.3647
  912MOL0     C23040  10.325   8.250  10.339  0.2529 -0.5478 -0.3581
  912MOL0     C23041  10.364   8.300  10.467  0.1731  0.7069  0.5483
  912MOL0     C23042  10.279   8.372  10.542  0.6713  0.9421  0.8118
  912MOL0     O23043  10.334   8.435  10.649  0.9476  0.8093 -0.6039
  912MOL0     C23044  10.248   8.481  10.758 -0.1832 -0.3521  0.8682
  912MOL0     C23045  10.315   8.478  10.879  1.1923 -0.5001 -0.3196
  912MOL0     C23046  10.218   8.498  11.002 -0.5502 -0.5576  0.1478
  912MOL0     C23047  10.278   8.456  11.133 -0.2555  0.1555 -1.3382
  912MOL0     C23048  10.207   8.502  11.258 -0.5091 -0.4950  0.3714
  912MOL0     C23049  10.158   8.551  11.355 -0.1774 -0.3267 -0.3560
  912MOL0     C23050  10.144   8.379  10.504 -0.3661  0.1783 -0.4030
  912MOL0     C23051  10.092   8.325  10.388 -0.5890 -0.4177  0.8948
  912MOL0     C23052   9.945   8.334  10.364  0.0914  0.3724  0.3621
  912MOL0     H23053  10.043   7.932  10.069  1.4073  0.2263  0.2647
  912MOL0     H23054   9.989   7.831   9.859 -2.0342 -0.6075  0.0465
  912MOL0     H23055   9.938   7.764   9.650 -0.0914 -2.1714 -4.4851
  912MOL0     H23056   9.768   7.759   9.677 -1.3926  0.0872 -2.1949
  912MOL0     H23057   9.896   7.870   9.422  0.4258  1.5204  2.1754
  912MOL0     H23058   9.721   7.841   9.465  0.8754  1.2913 -1.5283
  912MOL0     H23059   9.791   7.599   9.481  0.3011 -1.7863 -1.8192
  912MOL0     H23060   9.957   7.651   9.455 -0.6178  0.4348 -1.2799
  912MOL0     H23061   9.742   7.676   9.248  0.5760  0.6852 -1.1385
  912MOL0     H23062   9.904   7.756   9.227  1.6402  0.0816  1.1941
  912MOL0     H23063   9.926   7.552   9.109  0.3203  0.7194  0.0433
  912MOL0     H23064  10.018   7.547   9.252  0.3273 -0.5101 -0.6750
  912MOL0     H23065   9.832   7.413   9.366  0.2060 -1.0133  0.2408
  912MOL0     H23066   9.731   7.436   9.229 -0.6003 -0.8455  0.6692
  912MOL0     H23067   9.887   7.292   9.078 -0.1486 -1.3375  0.1992
  912MOL0     H23068   9.799   7.220   9.200  0.4513  0.3743 -2.7076
  912MOL0     H23069  10.029   7.145   9.217 -2.8815 -0.8050  0.4277
  912MOL0     H23070  10.099   7.311   9.212 -3.9934  3.3994 -3.2944
  912MOL0     H23071  10.219   7.261   9.430 -1.6016  1.1520 -1.1608
  912MOL0     H23072  10.136   7.080   9.749 -0.6641  0.6468  1.3380
  912MOL0     H23073  10.254   7.199   9.699  0.8180  0.2710 -1.6346
  912MOL0     H23074  10.051   7.361   9.777  0.7137 -1.2706 -2.7307
  912MOL0     H23075  10.038   7.234   9.888 -0.8189  1.0183 -0.2354
  912MOL0     H23076  10.299   7.274   9.938 -0.1901  1.3521  1.4070
  912MOL0     H23077  10.181   7.381   9.999  2.4894  4.2471  0.2810
  912MOL0     H23078  10.338   7.423   9.745  0.7225 -4.4932  0.8020
  912MOL0     H23079  10.366   7.498   9.906  1.0163 -1.8130 -1.2685
  912MOL0     H23080  10.271   7.818   9.810 -3.6861  0.5715  0.8571
  912MOL0     H23081  10.264   7.960   9.611  3.6445  0.4022  1.9131
  912MOL0     H23082  10.232   7.641   9.033  0.2877  0.7192 -0.0652
  912MOL0     H23083  10.282   7.693   8.809 -0.7337 -0.7814 -0.0181
  912MOL0     H23084  10.238   8.101   8.620  1.0139  0.3564 -2.2660
  912MOL0     H23085  10.400   8.103   8.709  2.8477  0.6349 -2.5661
  912MOL0     H23086  10.335   7.992   8.423  0.8487  0.7528 -1.1308
  912MOL0     H23087  10.410   8.144   8.449  0.6494  0.5184 -0.2777
  912MOL0     H23088  10.573   7.973   8.596 -1.3959 -2.0424  0.4182
  912MOL0     H23089  10.536   7.890   8.445 -0.9063 -0.0937 -1.3988
  912MOL0     H23090  10.736   7.990   8.406 -1.5989 -2.0545  1.0353
  912MOL0     H23091  10.667   8.155   8.431  1.9242  0.9763  0.1597
  912MOL0     H23092  10.501   8.104   8.248  0.0831  0.5825  0.5232
  912MOL0     H23093  10.558   7.954   8.229  0.3992 -0.1156  1.0651
  912MOL0     H23094  10.715   8.215   8.183 -1.1635  0.4168 -0.2211
  912MOL0     H23095  10.791   8.067   8.156 -1.0189  0.0745  0.6723
  912MOL0     H23096  10.574   8.187   7.974  2.0679  1.6363 -0.2116
  912MOL0     H23097  10.615   8.012   7.978  1.8332 -0.2004  1.6159
  912MOL0     H23098  10.824   8.040   7.912  1.1315  0.9335  2.4460
  912MOL0     H23099  10.715   8.124   7.793  1.9608  1.1178 -1.0024
  912MOL0     H23100  10.277   8.118   8.888 -0.8976 -0.0964 -1.1332
  912MOL0     H23101  10.243   8.084   9.110 -1.5985  1.6240 -2.1148
  912MOL0     H23102  10.219   7.620   9.357  1.5816  1.1087 -0.3282
  912MOL0     H23103  10.168   7.482   9.557  1.8804 -1.5304  0.3190
  912MOL0     H23104   9.821   8.194   9.707  2.0552  1.7616 -0.5728
  912MOL0     H23105   9.892   8.316   9.934  0.1243 -1.3893  1.6081
  912MOL0     H23106  10.398   8.201  10.275  1.8254  1.2036  0.0141
  912MOL0     H23107  10.469   8.301  10.494  0.6715  0.5223 -1.2490
  912MOL0     H23108  10.161   8.415  10.768  0.0289 -0.9544 -0.8787
  912MOL0     H23109  10.208   8.581  10.737  1.5098 -0.0828 -1.4417
  912MOL0     H23110  10.384   8.562  10.878 -0.1925  0.9296  3.7178
  912MOL0     H23111  10.378   8.389  10.884 -0.2019 -1.4845  0.5796
  912MOL0     H23112  10.119   8.453  10.990 -0.4205 -0.5464 -1.0709
  912MOL0     H23113  10.195   8.604  11.016 -0.1552 -0.7069  2.2529
  912MOL0     H23114  10.259   8.348  11.128 -2.8222  0.5479 -0.9282
  912MOL0     H23115  10.385   8.481  11.137 -0.7951  2.6046 -0.4391
  912MOL0     H23116  10.113   8.569  11.451 -0.2679  0.1623 -0.4862
  912MOL0     H23117  10.071   8.439  10.558 -0.8180  2.5290 -3.3492
  912MOL0     H23118   9.911   8.359  10.263  1.8653 -1.2444 -0.6838
  912MOL0     H23119   9.894   8.244  10.401 -1.7130  1.5346  0.8387
  912MOL0     H23120   9.911   8.418  10.425 -2.3312  0.2220 -0.6695
  913MOL0     O23121   9.123   9.826   6.037 -0.9460  0.0656 -0.9505
  913MOL0     C23122   9.068   9.880   6.136  0.5835  0.7142  0.1092
  913MOL0     O23123   8.951   9.945   6.126 -0.0742  0.4224 -0.0695
  913MOL0     C23124   8.884   9.957   6.006  0.4688 -0.3615 -0.4454
  913MOL0     C23125   8.855   9.848   5.918  0.5673  0.0076  0.7557
  913MOL0     C23126   8.784   9.859   5.789 -0.2575  0.3324  0.3232
  913MOL0     C23127   8.754   9.988   5.745  0.4456 -0.1584  0.7091
  913MOL0     O23128   8.683   9.990   5.623 -0.4369  0.6419  0.2715
  913MOL0     C23129   8.706  10.107   5.539 -0.5089 -0.7872 -0.7889
  913MOL0     C23130   8.637  10.090   5.397 -0.1040 -0.4781  0.5358
  913MOL0     C23131   8.671   9.955   5.323 -0.0209  0.3725 -0.1638
  913MOL0     C23132   8.591   9.934   5.193  0.1431  0.0997 -0.1538
  913MOL0     C23133   8.643   9.805   5.127  0.0133  0.3440  0.9129
  913MOL0     C23134   8.585   9.673   5.187  0.1428 -0.7120  0.6503
  913MOL0     C23135   8.616   9.564   5.097 -0.2320 -0.7024  0.1404
  913MOL0     C23136   8.558   9.425   5.138 -0.1707 -0.6391 -0.0809
  913MOL0     N23137   8.643   9.371   5.250 -0.2135 -0.0904 -0.0590
  913MOL0     C23138   8.770   9.335   5.224 -0.0546  0.0172 -0.5994
  913MOL0     C23139   8.805   9.258   5.330 -0.1483 -0.7550  1.3802
  913MOL0     C23140   8.942   9.189   5.342  0.4758  0.6999 -0.7061
  913MOL0     C23141   8.939   9.061   5.264  0.5945  0.1258 -0.5240
  913MOL0     C23142   8.939   9.089   5.115  0.2027  0.2023 -0.4989
  913MOL0     C23143   8.980   8.975   5.026 -0.1976  0.5249  0.0255
  913MOL0     O23144   8.998   9.031   4.898 -0.8282  0.4914 -0.2478
  913MOL0     C23145   9.041   8.948   4.793  0.2860  0.2041  0.2992
  913MOL0     C23146   9.070   8.813   4.809  0.2059 -0.5452 -0.0078
  913MOL0     C23147   9.106   8.742   4.693  0.5979 -0.4204 -0.0668
  913MOL0     C23148   9.100   8.802   4.563 -0.6824  0.5818  0.1447
  913MOL0     C23149   9.134   8.719   4.438  0.3407  0.4096  0.1077
  913MOL0     O23150   9.202   8.609   4.464 -0.2033  0.2221 -0.5127
  913MOL0     C23151   9.167   8.506   4.378  0.5735 -0.9671 -1.0475
  913MOL0     C23152   9.194   8.503   4.247 -0.4126  0.3857  0.4136
  913MOL0     C23153   9.161   8.387   4.179 -0.2790  0.1474 -0.2700
  913MOL0     C23154   9.092   8.279   4.238 -1.6710 -0.2373  0.2927
  913MOL0     O23155   9.059   8.181   4.158 -0.8513 -0.2848  0.1898
  913MOL0     C23156   8.947   8.101   4.183 -0.1445  0.4495 -0.5020
  913MOL0     C23157   8.813   8.169   4.172  0.9224  0.1535 -0.1004
  913MOL0     C23158   8.694   8.077   4.159  0.3841  0.3217  0.4347
  913MOL0     C23159   8.559   8.152   4.141  0.1318  0.0384  0.0302
  913MOL0     C23160   8.433   8.065   4.159 -0.6652 -0.1041  0.1715
  913MOL0     C23161   8.412   7.954   4.053 -0.6593  0.1115  0.1341
  913MOL0     C23162   8.349   8.011   3.922 -0.2499  0.7015  0.2739
  913MOL0     C23163   8.306   7.898   3.832  0.1589  0.0430  0.3584
  913MOL0    Cl23164   8.151   7.828   3.898 -0.5633 -0.2211  0.0870
  913MOL0     C23165   9.064   8.285   4.373  0.0141 -0.9427 -0.3306
  913MOL0     C23166   9.105   8.398   4.443  0.0769  0.1450  0.7474
  913MOL0     O23167   9.091   8.762   4.332  0.1798 -0.2695  0.2297
  913MOL0     C23168   9.057   8.931   4.551 -1.0152  0.2346  0.4483
  913MOL0     C23169   9.023   9.002   4.666  0.3009 -0.6103 -0.1053
  913MOL0     N23170   8.687   9.249   5.408  0.5396  0.9031  0.4178
  913MOL0     N23171   8.592   9.311   5.364  0.6719 -0.9269  0.3385
  913MOL0     C23172   8.788  10.097   5.823 -0.2991  0.0268 -0.8542
  913MOL0     C23173   8.855  10.076   5.950 -0.4144  0.1790 -0.5186
  913MOL0     C23174   9.132   9.872   6.268  0.5698  0.6811 -0.4801
  913MOL0     C23175   9.169   9.749   6.316 -0.0336  1.2206  0.7445
  913MOL0     C23176   9.230   9.730   6.438  0.2812 -0.3712  0.6656
  913MOL0     C23177   9.258   9.835   6.519  0.1390  0.2870 -0.8919
  913MOL0     O23178   9.316   9.805   6.643 -0.6056 -0.6964  0.6380
  913MOL0     C23179   9.348   9.916   6.729  0.8722  0.1626  0.2884
  913MOL0     C23180   9.405   9.866   6.872  0.7672  0.4882  0.6849
  913MOL0     C23181   9.520   9.771   6.849 -0.5738  0.7436  0.2008
  913MOL0     C23182   9.594   9.717   6.968 -0.6165  0.5039 -1.0161
  913MOL0     C23183   9.691   9.819   7.002  0.1203  0.4453 -0.2020
  913MOL0     C23184   9.765   9.912   7.019  0.3118  0.5587  0.2143
  913MOL0     C23185   9.223   9.967   6.467  0.6494 -0.0845 -0.0390
  913MOL0     C23186   9.148   9.985   6.347 -0.0089 -0.7743  0.1613
  913MOL0     C23187   9.098  10.118   6.309 -0.1560  0.4251 -0.9229
  913MOL0     H23188   8.877   9.747   5.950 -2.2757 -0.5947  1.0923
  913MOL0     H23189   8.756   9.773   5.729  1.3801 -1.1750  1.6174
  913MOL0     H23190   8.671  10.203   5.577  0.3367 -0.8523  0.2021
  913MOL0     H23191   8.815  10.113   5.528 -0.6327 -0.0724 -1.8237
  913MOL0     H23192   8.675  10.169   5.331  0.8350 -2.4057 -1.3545
  913MOL0     H23193   8.529  10.098   5.406 -0.2025 -1.8678  0.7365
  913MOL0     H23194   8.650   9.872   5.390  1.5274 -0.3902 -0.5661
  913MOL0     H23195   8.777   9.945   5.298 -0.4769 -1.9558 -1.5427
  913MOL0     H23196   8.483   9.925   5.203 -0.3925  2.4558 -2.7276
  913MOL0     H23197   8.605  10.029   5.141 -1.6596 -1.0188 -2.8848
  913MOL0     H23198   8.595   9.825   5.030 -3.0334  2.3524  2.6641
  913MOL0     H23199   8.752   9.805   5.119 -0.0537  2.1934 -1.5642
  913MOL0     H23200   8.625   9.658   5.288 -2.7136 -1.1892  1.8063
  913MOL0     H23201   8.480   9.695   5.203  0.5834  1.0040  1.4028
  913MOL0     H23202   8.724   9.555   5.084 -0.2204 -0.2701 -0.0972
  913MOL0     H23203   8.574   9.581   4.998 -0.8779 -2.6454  0.0420
  913MOL0     H23204   8.452   9.419   5.161  0.1256  0.8445  1.8982
  913MOL0     H23205   8.568   9.371   5.043  0.7190 -0.9603  0.1864
  913MOL0     H23206   8.835   9.360   5.140 -1.8665  0.0572 -2.0694
  913MOL0     H23207   9.022   9.257   5.312  0.5261  0.6194 -0.7539
  913MOL0     H23208   8.973   9.170   5.445  0.3677  2.0896 -0.3890
  913MOL0     H23209   9.016   8.994   5.301  0.9754 -0.1110 -1.6995
  913MOL0     H23210   8.843   9.015   5.291 -0.2751  3.7604  3.6208
  913MOL0     H23211   9.006   9.173   5.094  0.4790  0.2372  0.4466
  913MOL0     H23212   8.832   9.108   5.103 -0.3649 -1.9836  0.6354
  913MOL0     H23213   8.894   8.909   5.016  0.4387 -0.8495  2.5906
  913MOL0     H23214   9.071   8.925   5.061 -2.6697 -3.1895  1.8374
  913MOL0     H23215   9.072   8.767   4.907 -1.8018 -0.6981 -0.0066
  913MOL0     H23216   9.125   8.638   4.715  1.3014 -0.5679 -1.2538
  913MOL0     H23217   9.238   8.587   4.193 -1.2226 -0.4453 -1.6485
  913MOL0     H23218   9.193   8.389   4.076  0.6556 -0.2737  0.0038
  913MOL0     H23219   8.955   8.024   4.106 -0.9305  0.2757 -0.4137
  913MOL0     H23220   8.961   8.045   4.276  2.2501  3.0254  0.8245
  913MOL0     H23221   8.784   8.243   4.246 -1.4168 -2.0699  1.3773
  913MOL0     H23222   8.820   8.227   4.079  0.6999 -0.7048 -0.6718
  913MOL0     H23223   8.701   8.026   4.062  5.1395 -1.0715  1.2435
  913MOL0     H23224   8.694   8.005   4.242  4.4068 -2.5500 -1.6813
  913MOL0     H23225   8.549   8.186   4.038  0.2785 -1.2929 -0.4440
  913MOL0     H23226   8.558   8.230   4.218  2.1621 -1.6202  1.9082
  913MOL0     H23227   8.346   8.130   4.159 -0.1069  0.7817 -2.6775
  913MOL0     H23228   8.433   8.009   4.253  2.6428 -2.2583 -0.8984
  913MOL0     H23229   8.498   7.895   4.019 -0.8533  0.6133 -1.2844
  913MOL0     H23230   8.348   7.878   4.097  3.1417 -2.3194  1.9708
  913MOL0     H23231   8.421   8.066   3.859  0.9898 -0.7850  0.3396
  913MOL0     H23232   8.266   8.080   3.938 -0.6105  0.6692 -1.3133
  913MOL0     H23233   8.281   7.926   3.729 -0.0337 -3.7479 -0.8019
  913MOL0     H23234   8.379   7.815   3.826  0.3582 -0.0587  3.0369
  913MOL0     H23235   9.002   8.210   4.421 -3.5776  2.5666  1.1253
  913MOL0     H23236   9.079   8.402   4.549 -1.0693 -1.4857  0.5648
  913MOL0     H23237   9.069   8.967   4.449 -0.5211 -2.3256 -0.4750
  913MOL0     H23238   9.001   9.109   4.665 -1.0293 -0.8279  1.4901
  913MOL0     H23239   8.774  10.200   5.790  0.7860 -0.6960 -3.8440
  913MOL0     H23240   8.889  10.162   6.008 -0.5106  0.5802 -1.0488
  913MOL0     H23241   9.140   9.662   6.258  1.5114  0.3178  1.2747
  913MOL0     H23242   9.244   9.629   6.475 -2.6524 -1.0472  0.1577
  913MOL0     H23243   9.269   9.992   6.736  1.2782  1.0586 -2.8628
  913MOL0     H23244   9.421   9.977   6.675  0.0763  1.3929  0.5635
  913MOL0     H23245   9.327   9.814   6.928  1.4687 -1.2107  0.1258
  913MOL0     H23246   9.436   9.951   6.934 -1.0125  0.3263  1.8656
  913MOL0     H23247   9.592   9.828   6.789 -0.2519  0.2339  0.1038
  913MOL0     H23248   9.485   9.689   6.786  1.3273  0.9553 -1.2261
  913MOL0     H23249   9.519   9.700   7.046  0.7528 -0.6972  0.0903
  913MOL0     H23250   9.650   9.628   6.939 -0.5325  0.8778 -2.0707
  913MOL0     H23251   9.815  10.006   7.029 -0.8593  1.0855  1.4519
  913MOL0     H23252   9.230  10.056   6.528 -0.7818 -0.4270  0.6601
  913MOL0     H23253   9.095  10.133   6.201  0.8453 -1.7124 -1.3116
  913MOL0     H23254   9.000  10.139   6.351 -0.0414 -1.4808  0.4224
  913MOL0     H23255   9.172  10.187   6.350 -2.1796  2.0139  0.2321
  914MOL0     O23256   9.465  11.015   0.855  0.0949 -0.6694  0.0092
  914MOL0     C23257   9.417  11.123   0.842 -0.9415  0.4118  0.1845
  914MOL0     O23258   9.445  11.232   0.920 -0.8094  0.2536  0.3488
  914MOL0     C23259   9.521  11.230   1.032 -0.6357 -0.5836 -0.1814
  914MOL0     C23260   9.610  11.131   1.082 -0.8386 -0.4161  0.0224
  914MOL0     C23261   9.686  11.154   1.201  0.1313  0.5104  0.6768
  914MOL0     C23262   9.664  11.277   1.277 -0.5119  0.5616 -0.5406
  914MOL0     O23263   9.732  11.304   1.392  0.0745 -0.6727  0.6395
  914MOL0     C23264   9.749  11.204   1.496  0.4146 -0.4108 -0.5973
  914MOL0     C23265   9.893  11.163   1.540  0.0122 -0.0741  1.4408
  914MOL0     C23266   9.899  11.046   1.636  0.1085  0.9624 -0.2973
  914MOL0     C23267   9.918  11.105   1.776  0.4342 -0.4495  0.7240
  914MOL0     C23268   9.943  11.007   1.889  0.1782 -0.9194 -0.1761
  914MOL0     C23269   9.980  11.075   2.022 -0.0272 -0.1370 -0.0441
  914MOL0     C23270  10.032  10.986   2.128 -1.0472 -0.3304 -0.2941
  914MOL0     C23271   9.928  10.896   2.190 -0.2889  0.6929 -0.5570
  914MOL0     N23272   9.825  10.976   2.264  0.5919  0.0155 -0.2000
  914MOL0     C23273   9.705  11.020   2.222 -0.1148 -0.2016  0.1490
  914MOL0     C23274   9.646  11.073   2.334  0.6774  1.0651 -0.6761
  914MOL0     C23275   9.512  11.136   2.327  0.2499  0.6823  0.3034
  914MOL0     C23276   9.495  11.261   2.416 -0.1449 -0.7192 -0.4458
  914MOL0     C23277   9.346  11.309   2.415 -0.5628 -0.1217 -0.4428
  914MOL0     C23278   9.319  11.435   2.505 -0.1894  0.4031 -0.3690
  914MOL0     O23279   9.389  11.545   2.457  0.0026 -0.1333  0.2033
  914MOL0     C23280   9.390  11.670   2.520 -0.5417  0.3617  0.4706
  914MOL0     C23281   9.324  11.715   2.640 -0.1476 -0.6376 -0.5876
  914MOL0     C23282   9.323  11.846   2.686  0.8899  0.1984 -0.8493
  914MOL0     C23283   9.394  11.942   2.618 -0.3467  0.4822  0.1406
  914MOL0     C23284   9.401  12.081   2.669 -0.4831 -0.6697  0.3160
  914MOL0     O23285   9.364  12.109   2.797 -0.2516 -0.3101  0.5756
  914MOL0     C23286   9.376  12.237   2.847 -0.2391 -0.7898 -1.0203
  914MOL0     C23287   9.317  12.248   2.973 -0.2183 -0.3994  0.5086
  914MOL0     C23288   9.343  12.366   3.053  0.2574  0.1459  0.1084
  914MOL0     C23289   9.424  12.472   3.002 -0.4641 -0.8320 -0.4290
  914MOL0     O23290   9.434  12.590   3.071  0.1211 -0.6507 -0.3587
  914MOL0     C23291   9.387  12.601   3.207 -0.7453 -0.4852  0.4895
  914MOL0     C23292   9.437  12.729   3.283  0.7862  0.8685  0.1200
  914MOL0     C23293   9.323  12.823   3.328  0.4202  0.1184 -0.2428
  914MOL0     C23294   9.257  12.772   3.455  0.0678 -0.1906 -0.1435
  914MOL0     C23295   9.137  12.857   3.495 -0.1718 -0.0026 -0.2786
  914MOL0     C23296   9.102  12.846   3.640 -0.3430 -0.1626 -0.8395
  914MOL0     C23297   9.041  12.702   3.681  1.0575 -0.2020  0.6373
  914MOL0     C23298   9.045  12.680   3.834  0.3728 -0.8866 -0.5545
  914MOL0    Cl23299   9.219  12.650   3.870  0.1070  0.2078  0.1989
  914MOL0     C23300   9.491  12.451   2.891  0.7047  0.0007 -0.1194
  914MOL0     C23301   9.472  12.340   2.810  0.6635 -0.4631  0.2958
  914MOL0     O23302   9.456  12.161   2.598  0.0580  0.0964  0.2295
  914MOL0     C23303   9.463  11.910   2.503  0.7297 -0.1999  0.4785
  914MOL0     C23304   9.459  11.779   2.454  0.3628  0.4222 -0.2352
  914MOL0     N23305   9.734  11.067   2.432 -0.2519 -0.2617  0.5413
  914MOL0     N23306   9.836  11.004   2.394  0.3919 -0.4195 -0.1922
  914MOL0     C23307   9.568  11.372   1.232 -0.2441  0.6895 -0.6413
  914MOL0     C23308   9.499  11.345   1.114 -0.3687 -0.3249 -0.4036
  914MOL0     C23309   9.321  11.140   0.738 -0.7447 -0.2625 -0.4833
  914MOL0     C23310   9.360  11.157   0.605  0.5101  0.2624  0.5981
  914MOL0     C23311   9.263  11.170   0.504 -0.1392 -1.0585 -0.2306
  914MOL0     C23312   9.124  11.184   0.538 -0.9463 -0.5349  0.2930
  914MOL0     O23313   9.026  11.215   0.451 -0.0949 -0.0668 -0.2606
  914MOL0     C23314   9.062  11.253   0.321  0.7339 -0.0230  0.4615
  914MOL0     C23315   8.933  11.280   0.251 -0.6893 -0.1152  0.4026
  914MOL0     C23316   8.857  11.154   0.222  0.5085 -0.1189  0.6759
  914MOL0     C23317   8.744  11.175   0.114 -0.2416  0.0384 -0.3479
  914MOL0     C23318   8.625  11.245   0.170 -0.6020  0.4211  0.7393
  914MOL0     C23319   8.528  11.306   0.210 -0.3186  0.1705 -0.7942
  914MOL0     C23320   9.089  11.180   0.674  0.8010  0.1507 -0.1626
  914MOL0     C23321   9.183  11.151   0.774 -0.7045  0.7155  0.4734
  914MOL0     C23322   9.128  11.128   0.915  0.1217  0.1662  0.9115
  914MOL0     H23323   9.619  11.032   1.038 -0.5317 -1.5521  2.4746
  914MOL0     H23324   9.756  11.076   1.229 -1.7342 -1.0529  1.2246
  914MOL0     H23325   9.709  11.252   1.586 -1.4819 -0.5757 -1.3153
  914MOL0     H23326   9.684  11.118   1.477 -0.4358  0.1130 -0.1152
  914MOL0     H23327   9.945  11.252   1.576  0.3786 -0.0616  0.8883
  914MOL0     H23328   9.937  11.139   1.443 -1.4011  1.2707  0.4111
  914MOL0     H23329   9.980  10.982   1.600 -0.2923 -0.0723  0.6017
  914MOL0     H23330   9.810  10.984   1.640  1.1377 -0.5363  0.7030
  914MOL0     H23331  10.003  11.174   1.782  0.5269 -0.1301 -2.6508
  914MOL0     H23332   9.828  11.161   1.805  0.6172 -0.9728  2.4262
  914MOL0     H23333   9.864  10.933   1.905  0.9027 -1.4857  0.9495
  914MOL0     H23334  10.032  10.951   1.859  0.8424 -0.6243  1.1767
  914MOL0     H23335  10.052  11.151   1.992  0.9178  0.2619  2.9237
  914MOL0     H23336   9.892  11.134   2.050  1.4406  2.7231 -1.0170
  914MOL0     H23337  10.089  11.043   2.203 -3.2322  1.2769  0.2174
  914MOL0     H23338  10.109  10.920   2.087  1.5848  1.0514  2.0409
  914MOL0     H23339   9.883  10.831   2.113 -2.5948 -0.1651  1.4012
  914MOL0     H23340   9.975  10.827   2.261 -0.6610  1.5215  0.5137
  914MOL0     H23341   9.670  11.032   2.120 -0.3266  0.4765  0.2938
  914MOL0     H23342   9.487  11.159   2.223 -1.5718 -1.1349  0.2725
  914MOL0     H23343   9.446  11.054   2.356 -1.0670  2.1567  1.6869
  914MOL0     H23344   9.528  11.233   2.517 -0.2303 -0.4316 -0.3370
  914MOL0     H23345   9.566  11.338   2.383  0.3900 -0.0560  2.0046
  914MOL0     H23346   9.279  11.225   2.437 -1.0802  0.9506  2.5730
  914MOL0     H23347   9.339  11.330   2.308  1.3408 -3.0552 -1.2773
  914MOL0     H23348   9.340  11.414   2.610 -0.6111 -1.0157 -0.5465
  914MOL0     H23349   9.213  11.454   2.490 -0.7932 -3.8887 -3.7512
  914MOL0     H23350   9.264  11.646   2.698  0.6775  1.2016  2.6772
  914MOL0     H23351   9.270  11.877   2.775  0.6288 -0.8313 -0.6353
  914MOL0     H23352   9.251  12.173   3.016 -1.3067 -2.0905 -3.6422
  914MOL0     H23353   9.285  12.365   3.145 -3.1427  0.8601 -1.8165
  914MOL0     H23354   9.278  12.599   3.213 -0.7437  1.0378  1.7449
  914MOL0     H23355   9.404  12.512   3.267 -0.4998 -0.4502  0.4747
  914MOL0     H23356   9.500  12.707   3.370  0.8539  2.4194  0.4887
  914MOL0     H23357   9.505  12.785   3.218  0.5048 -0.1090 -1.0795
  914MOL0     H23358   9.362  12.925   3.341  0.5465  0.4427 -2.7641
  914MOL0     H23359   9.250  12.825   3.247 -1.2027  1.8566  1.1380
  914MOL0     H23360   9.335  12.778   3.532  0.8071 -2.1540 -0.6660
  914MOL0     H23361   9.228  12.666   3.453  0.5614 -0.6663  4.8263
  914MOL0     H23362   9.044  12.836   3.441 -1.0920  1.4844  0.6633
  914MOL0     H23363   9.157  12.961   3.469 -2.6709 -0.1072 -3.2568
  914MOL0     H23364   9.188  12.878   3.698 -0.5163  1.0205 -1.1926
  914MOL0     H23365   9.022  12.916   3.668  0.4386 -0.2072  1.7553
  914MOL0     H23366   9.089  12.620   3.627  0.1573  0.0835 -0.6669
  914MOL0     H23367   8.934  12.693   3.663  1.1008  2.6738 -2.0745
  914MOL0     H23368   9.004  12.767   3.886  3.7668  1.6107 -1.7330
  914MOL0     H23369   8.983  12.595   3.863 -0.2993  0.0401  0.8335
  914MOL0     H23370   9.551  12.528   2.843 -2.2435 -0.3876 -5.2591
  914MOL0     H23371   9.531  12.324   2.720 -2.3352 -0.2656 -1.8534
  914MOL0     H23372   9.533  11.983   2.464 -0.7835  0.1677 -1.7599
  914MOL0     H23373   9.515  11.759   2.364 -0.3887 -0.0652 -0.6026
  914MOL0     H23374   9.556  11.466   1.285 -2.1398 -0.6073  1.4080
  914MOL0     H23375   9.430  11.419   1.073  1.1158  0.5452 -1.4187
  914MOL0     H23376   9.465  11.161   0.577  0.4654 -3.2863 -0.5517
  914MOL0     H23377   9.306  11.189   0.406  1.9503 -0.1027  0.8073
  914MOL0     H23378   9.120  11.183   0.260  2.0843  2.6754 -1.6217
  914MOL0     H23379   9.131  11.338   0.322  0.2046  0.4343 -0.5241
  914MOL0     H23380   8.961  11.328   0.157  1.0437 -0.4029  0.7310
  914MOL0     H23381   8.855  11.339   0.300 -3.3368 -0.9974 -2.3987
  914MOL0     H23382   8.813  11.122   0.317  1.2227 -1.3524  0.6026
  914MOL0     H23383   8.920  11.078   0.176 -1.3471  0.0396 -2.4117
  914MOL0     H23384   8.777  11.230   0.025 -0.1411 -2.0323 -1.6704
  914MOL0     H23385   8.710  11.075   0.084 -2.9220  1.4519 -2.4427
  914MOL0     H23386   8.443  11.367   0.234 -0.5980 -0.8800  1.0310
  914MOL0     H23387   8.982  11.171   0.692  1.0132 -1.8792  0.3526
  914MOL0     H23388   9.116  11.021   0.936  0.5923  0.1816  1.2790
  914MOL0     H23389   9.189  11.173   0.994 -1.1865 -0.7917  2.5384
  914MOL0     H23390   9.035  11.185   0.926 -1.3427 -1.6585 -1.2060
  915MOL0     O23391  10.997   6.714  10.248 -1.1138 -0.0920  0.1595
  915MOL0     C23392  10.964   6.823  10.200  0.5531 -0.6679  0.2975
  915MOL0     O23393  11.045   6.918  10.141  0.2524 -0.3658  0.1229
  915MOL0     C23394  11.161   6.862  10.118  0.0469  0.1487  0.8645
  915MOL0     C23395  11.205   6.820   9.990  0.4496  0.2051 -0.5790
  915MOL0     C23396  11.339   6.770   9.973 -0.6945  0.7033  0.0981
  915MOL0     C23397  11.428   6.758  10.084  0.4492 -0.2240  0.1160
  915MOL0     O23398  11.550   6.713  10.062  0.0076 -0.2583  0.4590
  915MOL0     C23399  11.602   6.620  10.159  0.1887  0.0060  0.5384
  915MOL0     C23400  11.744   6.659  10.215  0.1311  0.0435  0.1858
  915MOL0     C23401  11.737   6.696  10.358 -0.3427 -0.2067  0.0133
  915MOL0     C23402  11.787   6.594  10.463  0.8954  0.7783 -0.3907
  915MOL0     C23403  11.701   6.610  10.595 -0.1095 -1.1430 -0.6858
  915MOL0     C23404  11.731   6.497  10.690  0.2989  0.0015 -0.2085
  915MOL0     C23405  11.681   6.520  10.836  0.1459 -1.0060  1.3738
  915MOL0     C23406  11.720   6.407  10.935  0.5724 -0.2725 -0.6933
  915MOL0     N23407  11.658   6.274  10.908 -1.0263  0.7005 -0.0541
  915MOL0     C23408  11.546   6.222  10.962 -0.8073 -0.0000  0.1374
  915MOL0     C23409  11.553   6.093  10.945  0.3589  0.1520  0.0914
  915MOL0     C23410  11.442   6.000  10.977 -0.3188 -0.8374  0.1018
  915MOL0     C23411  11.380   5.935  10.850  0.4145 -0.6481  0.2602
  915MOL0     C23412  11.341   6.045  10.756 -0.0113 -0.7275 -0.1927
  915MOL0     C23413  11.245   5.979  10.654  0.6140 -1.1114 -0.7189
  915MOL0     O23414  11.121   5.913  10.701  0.4129  0.0881 -0.2633
  915MOL0     C23415  11.012   6.000  10.705 -1.1364  0.0138  0.0653
  915MOL0     C23416  10.952   6.058  10.594 -0.6327  0.4026  0.2972
  915MOL0     C23417  10.839   6.149  10.604  1.1492  0.1062 -0.9240
  915MOL0     C23418  10.791   6.180  10.730 -1.5338 -0.0732 -0.9004
  915MOL0     C23419  10.684   6.279  10.749  0.4654 -0.0748  0.5023
  915MOL0     O23420  10.611   6.318  10.639  0.2937 -0.0712 -0.4279
  915MOL0     C23421  10.511   6.407  10.644 -0.1376  0.0337  0.0908
  915MOL0     C23422  10.415   6.413  10.746  0.4717  0.2554 -0.1741
  915MOL0     C23423  10.320   6.514  10.749 -0.2657  0.3473 -0.1987
  915MOL0     C23424  10.315   6.610  10.650 -0.4851  0.0625 -0.6454
  915MOL0     O23425  10.244   6.728  10.650 -0.2093  1.0952  0.4797
  915MOL0     C23426  10.159   6.765  10.762  0.4581 -0.5385  1.0581
  915MOL0     C23427  10.041   6.861  10.717 -0.6714 -0.1703 -0.6002
  915MOL0     C23428  10.052   7.006  10.735  0.5204 -1.0249  0.3403
  915MOL0     C23429   9.918   7.078  10.702 -0.7212 -1.5677 -0.6216
  915MOL0     C23430   9.942   7.228  10.701  0.2222 -1.2538  0.1032
  915MOL0     C23431  10.017   7.283  10.828 -0.5061 -0.6395  0.7261
  915MOL0     C23432  10.005   7.433  10.846 -0.0763 -0.4233 -0.4231
  915MOL0     C23433  10.048   7.510  10.724 -0.0418 -0.1251  0.1904
  915MOL0    Cl23434  10.229   7.503  10.718  0.2098  0.4080 -0.1834
  915MOL0     C23435  10.411   6.605  10.551 -0.0525 -0.3952  0.8995
  915MOL0     C23436  10.502   6.499  10.544  0.8834  0.0916  0.6634
  915MOL0     O23437  10.660   6.319  10.862 -0.4481 -0.1194 -1.6057
  915MOL0     C23438  10.855   6.119  10.840  0.8712 -0.5633 -0.5566
  915MOL0     C23439  10.959   6.026  10.827  0.3096 -0.0020 -0.5461
  915MOL0     N23440  11.663   6.061  10.873 -0.3326  0.0054 -0.2423
  915MOL0     N23441  11.731   6.169  10.857  0.4665  0.0863  0.9545
  915MOL0     C23442  11.386   6.814  10.202  0.3716  0.0964  0.2650
  915MOL0     C23443  11.254   6.860  10.221 -0.0833  0.8434 -0.4553
  915MOL0     C23444  10.823   6.858  10.200  0.7644  0.5257  0.2100
  915MOL0     C23445  10.728   6.756  10.212 -0.6285 -0.3200 -0.2828
  915MOL0     C23446  10.592   6.775  10.225 -0.4488 -0.4202  0.2504
  915MOL0     C23447  10.541   6.898  10.244  0.2909 -1.0143 -1.1676
  915MOL0     O23448  10.403   6.909  10.241  0.6939  0.5608  0.7622
  915MOL0     C23449  10.324   7.026  10.208 -0.5807 -0.3587 -0.0836
  915MOL0     C23450  10.240   7.050  10.335  0.1772 -0.2368 -0.3984
  915MOL0     C23451  10.141   7.160  10.306  0.2752 -0.7210  0.6678
  915MOL0     C23452  10.033   7.131  10.193  0.6436  0.4528 -0.3015
  915MOL0     C23453   9.935   7.027  10.246 -0.7448 -0.7084 -0.5576
  915MOL0     C23454   9.853   6.950  10.287 -0.0086  0.0544  0.4983
  915MOL0     C23455  10.630   7.013  10.250 -0.7360  0.3403 -0.3161
  915MOL0     C23456  10.768   6.988  10.215  0.8524  0.0051 -0.1840
  915MOL0     C23457  10.851   7.108  10.245 -0.7948  0.8078 -0.4010
  915MOL0     H23458  11.153   6.828   9.895 -1.1605  1.4453  0.3638
  915MOL0     H23459  11.366   6.747   9.871 -4.4689 -1.4084 -0.6317
  915MOL0     H23460  11.534   6.589  10.239  0.8697 -4.0558 -0.2587
  915MOL0     H23461  11.612   6.529  10.100 -0.2932  0.1055  0.2995
  915MOL0     H23462  11.779   6.744  10.156 -2.1325  1.6176  0.9594
  915MOL0     H23463  11.813   6.576  10.195  2.5180  2.3364 -1.9023
  915MOL0     H23464  11.634   6.729  10.376 -1.3366 -2.0991 -1.8576
  915MOL0     H23465  11.784   6.795  10.360 -2.4343  0.8479 -0.5697
  915MOL0     H23466  11.774   6.488  10.438  2.1447  0.2899  0.8855
  915MOL0     H23467  11.895   6.598  10.484  1.0056 -2.1195  0.1087
  915MOL0     H23468  11.736   6.700  10.647 -1.8909 -0.6508 -0.2883
  915MOL0     H23469  11.594   6.622  10.579 -0.1780  0.5596  0.6404
  915MOL0     H23470  11.691   6.401  10.655  1.1680 -1.1693  1.7970
  915MOL0     H23471  11.839   6.481  10.696  0.0519 -3.4422 -1.9865
  915MOL0     H23472  11.577   6.550  10.842 -0.2882 -2.2928  0.7411
  915MOL0     H23473  11.736   6.608  10.871  1.1516 -0.9498 -0.2058
  915MOL0     H23474  11.829   6.412  10.944  0.4087  1.7981  0.9098
  915MOL0     H23475  11.694   6.438  11.036  3.4336 -2.0288  0.7132
  915MOL0     H23476  11.463   6.277  11.005 -0.2121  1.8220 -0.9326
  915MOL0     H23477  11.479   5.920  11.042  3.3020  0.9226  0.4342
  915MOL0     H23478  11.368   6.057  11.035 -0.7995 -0.5786 -0.7513
  915MOL0     H23479  11.445   5.856  10.810  3.2299  0.9507  1.3942
  915MOL0     H23480  11.292   5.874  10.873 -0.0640  0.1924  0.6765
  915MOL0     H23481  11.425   6.085  10.698 -0.2314  1.9172  1.1240
  915MOL0     H23482  11.295   6.123  10.819  2.1113 -1.1405  2.0172
  915MOL0     H23483  11.304   5.906  10.597 -0.3605 -0.2203 -3.0197
  915MOL0     H23484  11.226   6.061  10.584  3.3493  2.6296  2.4635
  915MOL0     H23485  10.977   6.037  10.491  0.3096  0.4071  0.5160
  915MOL0     H23486  10.790   6.198  10.521  1.6091  1.6245 -0.3429
  915MOL0     H23487  10.416   6.337  10.822  0.1730 -0.6123 -1.0170
  915MOL0     H23488  10.257   6.518  10.837 -0.4947  2.0547 -0.4112
  915MOL0     H23489  10.104   6.673  10.784 -2.9039 -0.0670 -3.8272
  915MOL0     H23490  10.216   6.796  10.850 -1.0740  0.7819  1.6344
  915MOL0     H23491  10.010   6.839  10.614  0.6035  0.9519 -1.2540
  915MOL0     H23492   9.959   6.824  10.779  0.0676 -0.2499  0.3491
  915MOL0     H23493  10.056   7.016  10.844 -4.0098  2.1639  0.5177
  915MOL0     H23494  10.125   7.051  10.667 -1.2742  2.5184  0.5304
  915MOL0     H23495   9.832   7.059  10.766 -1.0669  1.6678  0.0011
  915MOL0     H23496   9.873   7.053  10.605 -0.7637  1.8837 -1.6016
  915MOL0     H23497   9.844   7.277  10.702  0.4582 -0.3906 -3.7544
  915MOL0     H23498  10.000   7.249  10.611  0.5997 -1.6844  0.2438
  915MOL0     H23499  10.002   7.223  10.919  2.1860 -1.3083  0.8109
  915MOL0     H23500  10.124   7.268  10.815 -0.2985  0.8658  0.4676
  915MOL0     H23501  10.061   7.466  10.934  0.0909 -3.1266  0.5640
  915MOL0     H23502   9.898   7.455  10.844 -0.7659 -3.4344 -1.7964
  915MOL0     H23503  10.015   7.470  10.628  1.1087 -0.6006 -0.0199
  915MOL0     H23504  10.014   7.614  10.733  2.9314  1.0795 -1.3104
  915MOL0     H23505  10.412   6.679  10.472  1.1725  1.2784  2.3931
  915MOL0     H23506  10.582   6.500  10.470 -1.2475 -5.1001 -2.2120
  915MOL0     H23507  10.809   6.135  10.937 -0.1168  0.8035 -1.2150
  915MOL0     H23508  11.014   5.994  10.915 -1.7608 -0.5062  0.6195
  915MOL0     H23509  11.459   6.840  10.277  0.9758 -0.2949 -0.1690
  915MOL0     H23510  11.221   6.902  10.316 -1.1890 -2.3041  0.7065
  915MOL0     H23511  10.768   6.655  10.211  1.9410  0.5386  2.3275
  915MOL0     H23512  10.534   6.683  10.221 -0.0890 -0.6279 -3.0077
  915MOL0     H23513  10.265   7.028  10.116  3.1804  0.8339 -2.6857
  915MOL0     H23514  10.384   7.114  10.185 -0.4747 -0.4778 -0.2578
  915MOL0     H23515  10.310   7.060  10.418  0.3606  1.7232 -0.7251
  915MOL0     H23516  10.178   6.960  10.338  0.8722 -0.7649 -1.2374
  915MOL0     H23517  10.193   7.251  10.276 -1.4129  0.7794  2.0650
  915MOL0     H23518  10.092   7.186  10.401 -0.3388  2.7151 -0.4683
  915MOL0     H23519   9.968   7.217  10.175 -1.9083 -0.9262  1.7797
  915MOL0     H23520  10.071   7.092  10.098 -0.7058 -2.4076  0.2335
  915MOL0     H23521   9.756   6.907  10.302  0.2658 -0.5441  0.5742
  915MOL0     H23522  10.582   7.109  10.267  0.0517  0.6167  0.4460
  915MOL0     H23523  10.922   7.084  10.324  1.4613 -1.1013 -2.7865
  915MOL0     H23524  10.911   7.129  10.156 -2.3357  2.7165 -1.0553
  915MOL0     H23525  10.783   7.192  10.261 -2.8736 -1.0440  1.0839
  916MOL0     O23526  10.654   8.817   8.992 -0.6949  0.3608 -0.1726
  916MOL0     C23527  10.588   8.836   9.091 -0.2640 -0.1922  0.4617
  916MOL0     O23528  10.618   8.926   9.197  0.1689 -0.2337 -0.6529
  916MOL0     C23529  10.733   8.992   9.172 -0.6429  0.0240  0.2023
  916MOL0     C23530  10.854   8.966   9.230 -0.9195  0.5694  0.6834
  916MOL0     C23531  10.966   9.048   9.210 -1.1174  0.0191  0.2559
  916MOL0     C23532  10.960   9.147   9.109  0.0984 -0.2695  0.3964
  916MOL0     O23533  11.074   9.217   9.087  0.8998  0.0657  0.8261
  916MOL0     C23534  11.093   9.295   8.966 -0.1223 -0.3674 -0.4004
  916MOL0     C23535  11.043   9.445   9.009  0.6616 -0.2155  0.9873
  916MOL0     C23536  10.973   9.517   8.891  0.5065 -0.0157  0.4590
  916MOL0     C23537  11.065   9.560   8.776  0.4535 -0.3999  0.2086
  916MOL0     C23538  10.973   9.638   8.675  0.2463 -0.0229  1.4696
  916MOL0     C23539  11.036   9.650   8.538  0.0425 -0.5351  0.2054
  916MOL0     C23540  10.974   9.762   8.453  0.2913  0.7325 -0.4067
  916MOL0     C23541  11.045   9.780   8.323  0.3197  0.2743  0.3531
  916MOL0     N23542  11.049   9.647   8.247  0.1170 -0.3050 -0.4139
  916MOL0     C23543  11.161   9.605   8.175 -0.2160  0.2968  0.2392
  916MOL0     C23544  11.119   9.491   8.120 -0.5053  0.6493 -0.0206
  916MOL0     C23545  11.207   9.398   8.030  0.0778  0.6285 -0.3752
  916MOL0     C23546  11.331   9.462   7.958 -0.4260  1.2469  0.2015
  916MOL0     C23547  11.361   9.425   7.814 -0.7262  0.1988  0.5326
  916MOL0     C23548  11.455   9.534   7.744  0.1890  0.2537  0.0215
  916MOL0     O23549  11.593   9.535   7.803  0.3991 -0.7243  0.4594
  916MOL0     C23550  11.677   9.450   7.734 -0.3520  1.0420 -1.3510
  916MOL0     C23551  11.803   9.454   7.791 -0.7605  0.5939 -0.2479
  916MOL0     C23552  11.913   9.384   7.746  0.8586  0.2742 -0.4375
  916MOL0     C23553  11.899   9.286   7.643 -0.2263  0.1946  0.1012
  916MOL0     C23554  12.012   9.212   7.590 -0.3692  0.7069  0.0245
  916MOL0     O23555  11.990   9.095   7.520 -0.8933  0.2989  0.2263
  916MOL0     C23556  12.099   9.020   7.474  0.3330 -0.1439  0.4882
  916MOL0     C23557  12.192   9.076   7.392 -0.8063 -0.6048 -0.5492
  916MOL0     C23558  12.303   9.004   7.349  0.3281  0.2481  0.5203
  916MOL0     C23559  12.309   8.867   7.365  0.1596 -0.4551 -1.0282
  916MOL0     O23560  12.421   8.804   7.314 -0.9586 -0.1302 -0.8830
  916MOL0     C23561  12.503   8.738   7.410  0.3798 -1.0054  0.3537
  916MOL0     C23562  12.645   8.765   7.388 -0.2960  0.1559 -0.4184
  916MOL0     C23563  12.694   8.707   7.259  0.2304  0.0647  0.1582
  916MOL0     C23564  12.849   8.722   7.254  0.2185  0.2509 -0.0551
  916MOL0     C23565  12.898   8.699   7.110 -0.5878 -0.2839 -0.2432
  916MOL0     C23566  13.055   8.723   7.092  0.0937 -0.0147 -0.3901
  916MOL0     C23567  13.153   8.654   7.185  0.4645  0.5821 -0.4208
  916MOL0     C23568  13.144   8.503   7.176  0.6664 -0.1290  0.3408
  916MOL0    Cl23569  13.027   8.431   7.302  0.1887 -0.0353 -0.0047
  916MOL0     C23570  12.204   8.806   7.438 -0.2716  0.2274 -0.4111
  916MOL0     C23571  12.109   8.883   7.499  0.1913  0.6920 -0.1989
  916MOL0     O23572  12.119   9.260   7.613  0.4441 -0.4379  0.2924
  916MOL0     C23573  11.767   9.267   7.597 -0.5055  0.8685 -0.7054
  916MOL0     C23574  11.660   9.341   7.646  0.1491 -0.0691  0.6473
  916MOL0     N23575  10.991   9.458   8.157  0.3998 -0.1979  0.0813
  916MOL0     N23576  10.949   9.560   8.227 -0.3373 -1.0545  0.3073
  916MOL0     C23577  10.835   9.183   9.055 -0.0201  0.9414 -0.2943
  916MOL0     C23578  10.725   9.101   9.085 -0.2288 -0.3396  1.1138
  916MOL0     C23579  10.449   8.796   9.091 -0.3490 -0.4491 -0.6133
  916MOL0     C23580  10.377   8.811   8.969 -0.6849  0.8021 -0.1323
  916MOL0     C23581  10.241   8.771   8.954 -0.2344  0.2716  0.4527
  916MOL0     C23582  10.172   8.699   9.050 -0.0101  1.2991  0.8705
  916MOL0     O23583  10.044   8.647   9.034 -0.4886  0.2171 -1.2829
  916MOL0     C23584   9.949   8.717   8.957  0.1575  0.9566  0.2262
  916MOL0     C23585   9.831   8.618   8.976 -0.7684  0.0049 -0.8336
  916MOL0     C23586   9.699   8.664   8.911 -0.1089 -0.5832  0.6368
  916MOL0     C23587   9.588   8.555   8.921 -0.2036  0.2831 -0.2344
  916MOL0     C23588   9.550   8.542   9.064  0.9038  0.0697  0.2391
  916MOL0     C23589   9.494   8.556   9.170  0.0917  0.8384 -0.4198
  916MOL0     C23590  10.243   8.673   9.167  0.1106  1.1888  0.0514
  916MOL0     C23591  10.374   8.729   9.193  0.4064 -0.2154  0.4046
  916MOL0     C23592  10.438   8.718   9.326  0.2541 -0.1932 -0.2778
  916MOL0     H23593  10.859   8.881   9.297  1.2210  0.5682  0.5941
  916MOL0     H23594  11.066   9.044   9.251 -1.3110  1.2788  0.8834
  916MOL0     H23595  11.198   9.302   8.935 -0.5945  1.3242 -1.8133
  916MOL0     H23596  11.043   9.257   8.876  1.6542 -2.0662 -0.7319
  916MOL0     H23597  11.121   9.501   9.061  0.4321  0.7028  0.3642
  916MOL0     H23598  10.965   9.441   9.085 -2.1954  0.2059 -1.7147
  916MOL0     H23599  10.909   9.602   8.918  1.8518  1.6785 -1.4279
  916MOL0     H23600  10.911   9.438   8.848 -2.6674  2.8790 -0.6962
  916MOL0     H23601  11.145   9.623   8.815  0.2302 -1.2648  2.1805
  916MOL0     H23602  11.115   9.473   8.732  3.9908 -0.1973  3.3582
  916MOL0     H23603  10.872   9.595   8.671  1.1769 -2.3751  1.5108
  916MOL0     H23604  10.960   9.740   8.712 -2.5205 -0.6683  2.5629
  916MOL0     H23605  11.141   9.672   8.559  0.3789 -1.1213 -0.8338
  916MOL0     H23606  11.035   9.556   8.483  3.4706 -1.0283  0.7958
  916MOL0     H23607  10.980   9.863   8.494  1.2044  1.2896 -1.8529
  916MOL0     H23608  10.873   9.725   8.434 -0.1289  0.7134  1.6227
  916MOL0     H23609  10.985   9.847   8.261 -2.8832 -0.8245  2.0782
  916MOL0     H23610  11.146   9.820   8.343 -0.6857  2.7655  0.8465
  916MOL0     H23611  11.261   9.647   8.166  1.8310 -3.8926  0.7078
  916MOL0     H23612  11.248   9.309   8.077  1.8449  1.4267 -0.3206
  916MOL0     H23613  11.146   9.360   7.948  2.5758  0.0903 -2.1183
  916MOL0     H23614  11.323   9.571   7.955 -1.0985  1.3147  2.7974
  916MOL0     H23615  11.422   9.433   8.012 -0.0808  0.3390 -0.8185
  916MOL0     H23616  11.274   9.402   7.751 -0.3512 -1.6704  0.6402
  916MOL0     H23617  11.426   9.337   7.805 -2.4496 -1.0533 -0.0991
  916MOL0     H23618  11.406   9.630   7.761  1.6846  1.3253 -1.4585
  916MOL0     H23619  11.459   9.504   7.639  2.7319  1.5503 -0.3234
  916MOL0     H23620  11.818   9.526   7.870  1.6036  0.4105 -0.4369
  916MOL0     H23621  12.009   9.417   7.785  0.5500 -2.0417  2.6096
  916MOL0     H23622  12.194   9.184   7.383 -0.2674 -0.4065  1.5510
  916MOL0     H23623  12.374   9.053   7.283 -0.5929  2.6036  1.1761
  916MOL0     H23624  12.479   8.774   7.511 -0.9417  2.7927 -1.1234
  916MOL0     H23625  12.492   8.631   7.391  0.0875 -0.6024 -1.9413
  916MOL0     H23626  12.651   8.873   7.401  1.5316  0.2840 -1.9199
  916MOL0     H23627  12.690   8.722   7.478 -2.6892  2.0671  1.8775
  916MOL0     H23628  12.680   8.598   7.267 -1.2390  0.1404 -0.9656
  916MOL0     H23629  12.652   8.766   7.177  1.1382  0.4450 -0.0416
  916MOL0     H23630  12.887   8.650   7.327 -2.0406 -1.6018 -0.6066
  916MOL0     H23631  12.869   8.827   7.278 -2.0328  0.6901  0.1924
  916MOL0     H23632  12.840   8.769   7.050 -1.6936  0.5349  1.6757
  916MOL0     H23633  12.869   8.599   7.076 -3.6113  0.5630 -0.4179
  916MOL0     H23634  13.076   8.683   6.992  0.2642 -0.8618 -0.0239
  916MOL0     H23635  13.083   8.829   7.100  1.9573 -0.4042 -1.2369
  916MOL0     H23636  13.139   8.689   7.288 -0.6906 -2.9114  0.7381
  916MOL0     H23637  13.251   8.678   7.142  0.5129 -0.7541 -1.1180
  916MOL0     H23638  13.106   8.476   7.076  3.6094  1.5182 -1.3576
  916MOL0     H23639  13.247   8.469   7.188  0.8128  1.1419  3.6600
  916MOL0     H23640  12.199   8.698   7.451  0.3493  0.4947  2.7377
  916MOL0     H23641  12.038   8.824   7.556  1.6315 -0.1965  0.7487
  916MOL0     H23642  11.739   9.192   7.524  1.7106  0.5410 -1.2723
  916MOL0     H23643  11.572   9.291   7.608  0.6056  0.1458 -0.7349
  916MOL0     H23644  10.813   9.261   8.983 -3.6897 -1.8823 -2.6269
  916MOL0     H23645  10.632   9.125   9.033  0.6258  0.3574 -0.1507
  916MOL0     H23646  10.427   8.864   8.888 -0.3700 -1.3826 -1.4441
  916MOL0     H23647  10.201   8.816   8.864  0.0898  3.9764  1.9708
  916MOL0     H23648   9.973   8.731   8.851  3.4554 -0.1329  0.7010
  916MOL0     H23649   9.932   8.812   9.010  2.3268  1.7875 -0.4514
  916MOL0     H23650   9.808   8.618   9.083 -2.7708  1.5453 -1.1886
  916MOL0     H23651   9.856   8.516   8.946 -0.5111 -2.2435  5.4892
  916MOL0     H23652   9.710   8.679   8.804  0.3098 -1.4513  0.5461
  916MOL0     H23653   9.655   8.755   8.953 -3.8808 -1.9759  0.1105
  916MOL0     H23654   9.502   8.579   8.858 -1.8157 -3.0011  0.5543
  916MOL0     H23655   9.624   8.455   8.895 -1.3144  0.1343 -1.2759
  916MOL0     H23656   9.468   8.573   9.273 -0.8524 -2.2709 -0.0485
  916MOL0     H23657  10.191   8.622   9.247 -1.1847  0.1298 -1.4069
  916MOL0     H23658  10.545   8.700   9.319  0.4854  0.2957  1.5804
  916MOL0     H23659  10.429   8.808   9.387  3.0110 -0.6687  0.9571
  916MOL0     H23660  10.390   8.633   9.377 -1.2981  0.3823 -0.7021
  917MOL0     O23661  10.425   1.554   9.817 -0.6784  0.5440 -0.3407
  917MOL0     C23662  10.527   1.618   9.842 -0.3829  0.3201 -0.7471
  917MOL0     O23663  10.532   1.730   9.922 -0.6256 -0.0072 -0.5427
  917MOL0     C23664  10.418   1.793   9.960  0.2618 -0.1860 -1.1751
  917MOL0     C23665  10.308   1.735  10.027  0.7336 -0.4932  0.6048
  917MOL0     C23666  10.192   1.812  10.051  0.2684  0.5376  0.0470
  917MOL0     C23667  10.176   1.938  10.003 -0.0758 -0.2748  0.1761
  917MOL0     O23668  10.061   2.023  10.008  0.2085  0.4112 -0.0581
  917MOL0     C23669   9.976   2.004  10.122 -0.7240  0.5293  0.5220
  917MOL0     C23670   9.860   1.895  10.097 -0.9486 -0.3291 -0.9802
  917MOL0     C23671   9.750   1.950  10.010 -0.2151 -0.2550  0.1218
  917MOL0     C23672   9.598   1.948  10.063 -1.0372 -0.1252  0.4759
  917MOL0     C23673   9.543   2.057  10.154  0.0813  0.3708  0.3669
  917MOL0     C23674   9.633   2.085  10.277 -0.6051 -0.3695 -0.2866
  917MOL0     C23675   9.580   2.192  10.369 -1.0058  1.3048  1.2416
  917MOL0     C23676   9.473   2.138  10.454  0.7262  0.0573 -0.3470
  917MOL0     N23677   9.397   2.247  10.529 -1.1976 -0.2541  0.9066
  917MOL0     C23678   9.398   2.275  10.662 -0.4949  0.6909 -0.2581
  917MOL0     C23679   9.311   2.380  10.680  0.1685 -0.1609  0.1264
  917MOL0     C23680   9.255   2.452  10.803 -0.9589  0.2049 -0.7412
  917MOL0     C23681   9.324   2.588  10.792 -0.5992 -0.3385  0.2155
  917MOL0     C23682   9.334   2.668  10.921 -0.4398  0.4428 -0.1520
  917MOL0     C23683   9.409   2.805  10.921  0.3276 -0.3959 -0.8237
  917MOL0     O23684   9.547   2.777  10.892 -0.4762  0.6136  0.0631
  917MOL0     C23685   9.642   2.765  10.988 -0.3832 -0.0623 -0.1359
  917MOL0     C23686   9.654   2.828  11.116  0.2047 -0.8574  0.2482
  917MOL0     C23687   9.763   2.810  11.188 -1.3727  0.1675 -0.6592
  917MOL0     C23688   9.867   2.719  11.149  0.6125 -0.4355  0.0012
  917MOL0     C23689   9.988   2.692  11.237  0.8092  0.2839  1.0246
  917MOL0     O23690  10.064   2.586  11.205  0.2264 -0.2762  0.0438
  917MOL0     C23691  10.166   2.554  11.296 -0.2993 -0.4458 -0.4814
  917MOL0     C23692  10.282   2.635  11.297 -0.7940  0.6682  0.0553
  917MOL0     C23693  10.395   2.593  11.359  0.0766  0.1191  0.3761
  917MOL0     C23694  10.403   2.484  11.438  0.4550 -0.6840  0.8399
  917MOL0     O23695  10.530   2.438  11.477 -1.3716  0.3404 -0.5461
  917MOL0     C23696  10.648   2.453  11.395 -0.1211  0.2083  0.1820
  917MOL0     C23697  10.735   2.331  11.412  0.9902  0.1759  0.1723
  917MOL0     C23698  10.646   2.214  11.358  0.4285 -0.2492 -0.4965
  917MOL0     C23699  10.713   2.081  11.379 -0.7884  0.3774  0.2263
  917MOL0     C23700  10.828   2.055  11.285 -0.8081  0.7669 -0.0972
  917MOL0     C23701  10.788   2.007  11.143 -0.3037 -0.0316  0.3376
  917MOL0     C23702  10.906   2.002  11.036  0.3524  0.0306 -0.7829
  917MOL0     C23703  10.907   2.153  10.995 -0.2634  0.3542 -0.5442
  917MOL0    Cl23704  11.051   2.200  10.897 -0.1015 -0.3867 -0.2131
  917MOL0     C23705  10.295   2.395  11.419 -0.0843 -0.1063  0.1161
  917MOL0     C23706  10.172   2.428  11.363  0.0167  0.6271 -0.5278
  917MOL0     O23707   9.990   2.749  11.344 -0.8736 -0.6625 -0.4566
  917MOL0     C23708   9.865   2.673  11.024  0.9936  0.5147  0.1881
  917MOL0     C23709   9.751   2.698  10.946  0.0493  0.0857  0.1895
  917MOL0     N23710   9.250   2.403  10.557  0.1063 -0.1130  1.3690
  917MOL0     N23711   9.301   2.325  10.464 -0.3526 -0.7769  0.2121
  917MOL0     C23712  10.282   1.994   9.939 -0.2878 -0.1950 -0.5110
  917MOL0     C23713  10.404   1.925   9.924  0.0059 -0.3062  0.1137
  917MOL0     C23714  10.655   1.569   9.807  0.2973  0.6377 -0.5238
  917MOL0     C23715  10.764   1.654   9.798 -0.5469  0.5371 -0.5994
  917MOL0     C23716  10.893   1.612   9.781 -0.7969  0.4369  0.0060
  917MOL0     C23717  10.917   1.476   9.770 -0.3851 -0.1037  1.5066
  917MOL0     O23718  11.050   1.429   9.759 -0.2073 -0.5466 -0.3584
  917MOL0     C23719  11.077   1.291   9.767  0.2516 -0.1333  0.0798
  917MOL0     C23720  11.183   1.281   9.875 -0.2155 -0.0131 -0.8249
  917MOL0     C23721  11.250   1.145   9.883 -0.0602  0.8847  0.1005
  917MOL0     C23722  11.371   1.117   9.791  1.0270  0.2594  0.3742
  917MOL0     C23723  11.412   0.971   9.804 -0.4020  0.9562  0.7503
  917MOL0     C23724  11.440   0.855   9.823 -0.3637  0.2415 -0.6869
  917MOL0     C23725  10.812   1.395   9.770  0.9839  0.1396  0.9016
  917MOL0     C23726  10.683   1.437   9.791 -0.1642 -0.2131  0.7645
  917MOL0     C23727  10.580   1.333   9.794  0.0267  0.4437  0.6537
  917MOL0     H23728  10.302   1.635  10.069  1.6858  0.4717  3.2807
  917MOL0     H23729  10.114   1.768  10.111 -1.3103  3.1279  0.0517
  917MOL0     H23730  10.044   1.970  10.201  0.2204 -3.8377 -1.8470
  917MOL0     H23731   9.942   2.107  10.134 -1.0242  0.7219 -1.5028
  917MOL0     H23732   9.823   1.881  10.199  1.6162  2.5787  0.5154
  917MOL0     H23733   9.899   1.799  10.062  0.3704 -0.2787  0.2876
  917MOL0     H23734   9.751   1.889   9.919  2.9809 -2.1015  1.2156
  917MOL0     H23735   9.778   2.055   9.993  2.0364 -0.6006  1.2490
  917MOL0     H23736   9.536   1.946   9.973  0.7329  2.0228 -0.9047
  917MOL0     H23737   9.597   1.850  10.113 -0.6528 -0.6270 -0.4783
  917MOL0     H23738   9.548   2.155  10.106  0.1588  1.5514  2.6448
  917MOL0     H23739   9.441   2.025  10.175  1.1366 -3.1125  0.7928
  917MOL0     H23740   9.641   1.992  10.335  0.2622 -1.6421 -2.3163
  917MOL0     H23741   9.736   2.108  10.249  0.2093 -1.0176  1.9779
  917MOL0     H23742   9.540   2.279  10.316 -2.8299 -0.0792  0.2309
  917MOL0     H23743   9.652   2.228  10.443 -2.3836  3.8218  1.4410
  917MOL0     H23744   9.403   2.084  10.389 -0.9066  2.2120 -0.5080
  917MOL0     H23745   9.519   2.063  10.518 -0.2496 -2.5756 -2.5092
  917MOL0     H23746   9.448   2.221  10.742  1.4033  3.0224  0.2375
  917MOL0     H23747   9.148   2.469  10.792 -0.8729  0.4941 -1.1361
  917MOL0     H23748   9.293   2.400  10.892 -4.4832  1.4302  1.6671
  917MOL0     H23749   9.430   2.569  10.775  0.4784  2.6898  2.5421
  917MOL0     H23750   9.278   2.644  10.710  2.6761  1.1208 -0.7931
  917MOL0     H23751   9.377   2.595  10.991  1.1798  0.2580 -1.2687
  917MOL0     H23752   9.237   2.690  10.966 -1.5915 -2.9360 -0.7134
  917MOL0     H23753   9.408   2.849  11.021  1.4992 -2.8209  0.3481
  917MOL0     H23754   9.374   2.882  10.853 -1.2268 -0.3351  0.0110
  917MOL0     H23755   9.577   2.898  11.146  0.1903 -1.1934  1.0342
  917MOL0     H23756   9.776   2.868  11.279  0.1288 -1.3065  0.1380
  917MOL0     H23757  10.287   2.735  11.254  2.1298  0.7596  0.4111
  917MOL0     H23758  10.468   2.672  11.342  1.1922 -0.6593  1.3686
  917MOL0     H23759  10.624   2.461  11.289  3.8831 -0.3759 -0.9014
  917MOL0     H23760  10.702   2.546  11.414 -2.0299  2.4094 -3.8743
  917MOL0     H23761  10.827   2.355  11.358 -0.4003  4.0830 -0.8036
  917MOL0     H23762  10.758   2.309  11.517 -0.3148 -3.8065 -0.2338
  917MOL0     H23763  10.548   2.227  11.404 -0.9294  1.0357 -3.5166
  917MOL0     H23764  10.630   2.227  11.251 -0.1671 -2.2906 -0.6891
  917MOL0     H23765  10.636   2.004  11.368  1.5135 -2.1348  0.5240
  917MOL0     H23766  10.751   2.068  11.481  0.8570 -2.1741 -0.6006
  917MOL0     H23767  10.885   1.970  11.324 -2.6251 -0.0358  0.9569
  917MOL0     H23768  10.902   2.135  11.284  2.3055 -1.8843  0.5023
  917MOL0     H23769  10.752   1.904  11.149  0.1780 -0.2188  0.0618
  917MOL0     H23770  10.702   2.061  11.102  0.7484 -1.5477 -4.4826
  917MOL0     H23771  10.886   1.932  10.955  1.5673 -0.2361 -0.8706
  917MOL0     H23772  11.001   1.973  11.083 -0.2983 -0.7866  0.0602
  917MOL0     H23773  10.810   2.178  10.950 -1.3986 -0.1187  1.4926
  917MOL0     H23774  10.923   2.214  11.084 -1.3095 -0.9791  0.6035
  917MOL0     H23775  10.320   2.297  11.457  0.6384 -0.7186 -1.8408
  917MOL0     H23776  10.092   2.355  11.349  0.5385 -0.5734  2.1154
  917MOL0     H23777   9.950   2.614  10.989  1.4695  0.8618  0.7375
  917MOL0     H23778   9.753   2.660  10.844 -2.4492  2.0429 -0.7134
  917MOL0     H23779  10.258   2.088   9.890  0.6997 -0.5653 -1.7630
  917MOL0     H23780  10.476   1.985   9.870 -2.7290  3.0269 -0.1357
  917MOL0     H23781  10.750   1.761   9.814 -0.1496  0.6811 -1.1574
  917MOL0     H23782  10.982   1.675   9.777  0.3389 -1.0702  0.8095
  917MOL0     H23783  11.132   1.259   9.678 -1.3478  0.8068 -1.3201
  917MOL0     H23784  10.992   1.229   9.796  0.4296  0.1109  1.1442
  917MOL0     H23785  11.129   1.312   9.965  0.7702  0.9921 -0.5565
  917MOL0     H23786  11.264   1.352   9.855  0.1869 -0.0722  0.5040
  917MOL0     H23787  11.174   1.067   9.874  0.6108  0.3081 -0.7362
  917MOL0     H23788  11.290   1.139   9.985 -0.3949  1.3583  0.2652
  917MOL0     H23789  11.334   1.129   9.688  0.6499  4.1447  0.8222
  917MOL0     H23790  11.460   1.181   9.796  2.6673 -1.8914  0.4464
  917MOL0     H23791  11.470   0.755   9.848 -1.3752  0.1914  0.4303
  917MOL0     H23792  10.825   1.294   9.733  1.1639  0.4638  0.0600
  917MOL0     H23793  10.499   1.340   9.721 -1.1797 -1.3357  1.7446
  917MOL0     H23794  10.629   1.238   9.770  0.4834 -0.0079  3.0738
  917MOL0     H23795  10.523   1.322   9.887 -0.8540  2.3980  0.3898
  918MOL0     O23796   2.375   2.292   8.820 -0.1579  0.3012  0.0043
  918MOL0     C23797   2.378   2.238   8.929 -0.0048 -0.3590 -0.1732
  918MOL0     O23798   2.348   2.301   9.052 -0.1256 -0.7091  0.2689
  918MOL0     C23799   2.315   2.431   9.049  0.1118  0.0754  0.3589
  918MOL0     C23800   2.182   2.464   9.022  0.1983 -0.2976  0.2767
  918MOL0     C23801   2.144   2.593   9.022 -0.3417 -0.8981  0.3216
  918MOL0     C23802   2.241   2.700   9.051  1.3763  0.5641 -0.0782
  918MOL0     O23803   2.195   2.833   9.039 -0.5239 -0.6680 -0.2031
  918MOL0     C23804   2.088   2.871   9.123 -0.3731 -0.2605  0.0663
  918MOL0     C23805   2.089   3.021   9.102  0.0966  0.3993 -0.9316
  918MOL0     C23806   2.181   3.086   9.212  0.2326 -0.1166  0.6047
  918MOL0     C23807   2.194   3.231   9.178 -0.2897  0.6634  0.8560
  918MOL0     C23808   2.296   3.307   9.265  0.2649  0.5066 -0.8027
  918MOL0     C23809   2.262   3.294   9.417 -0.6303 -0.3673  0.0346
  918MOL0     C23810   2.353   3.392   9.500  0.0714  0.0754 -1.3105
  918MOL0     C23811   2.488   3.320   9.511  0.8953 -0.5606 -0.6580
  918MOL0     N23812   2.570   3.405   9.602 -0.2305  0.4521 -0.0173
  918MOL0     C23813   2.536   3.445   9.727  1.2343  0.1617 -1.1211
  918MOL0     C23814   2.617   3.545   9.764  0.0687  0.7916 -0.3265
  918MOL0     C23815   2.622   3.612   9.900 -0.2051 -0.8382 -0.1996
  918MOL0     C23816   2.770   3.617   9.962  0.0156  0.0327 -0.6099
  918MOL0     C23817   2.768   3.651  10.115 -0.1294 -0.5355  0.3946
  918MOL0     C23818   2.908   3.698  10.157 -0.6090 -0.2867 -0.5791
  918MOL0     O23819   2.966   3.807  10.087 -1.4456  0.1767 -0.4462
  918MOL0     C23820   2.919   3.935  10.070 -0.4987  0.0113  0.4318
  918MOL0     C23821   2.851   3.998  10.172 -0.0726 -0.4721 -0.1232
  918MOL0     C23822   2.804   4.130  10.158  0.8047  0.9460  0.6849
  918MOL0     C23823   2.810   4.190  10.031 -0.8595 -0.1144 -0.0273
  918MOL0     C23824   2.738   4.319   9.991 -0.7043 -0.4055  0.0766
  918MOL0     O23825   2.757   4.363   9.865  0.6145 -0.5884  1.7071
  918MOL0     C23826   2.661   4.447   9.813 -0.6398 -0.0787 -0.0994
  918MOL0     C23827   2.649   4.584   9.851 -0.8189  0.5737 -0.3671
  918MOL0     C23828   2.549   4.661   9.797 -0.2583 -0.1554  0.4007
  918MOL0     C23829   2.461   4.605   9.705  0.0003  0.6688  0.6986
  918MOL0     O23830   2.373   4.700   9.668  0.5585  0.6150 -0.0789
  918MOL0     C23831   2.303   4.671   9.545 -0.1990 -0.5205 -0.8409
  918MOL0     C23832   2.223   4.790   9.503  0.4203 -0.2216  0.3519
  918MOL0     C23833   2.117   4.818   9.610  0.4966 -0.2948  0.2290
  918MOL0     C23834   1.999   4.897   9.557  0.6337 -0.1344 -1.1393
  918MOL0     C23835   1.889   4.937   9.652 -0.1365 -0.4907  0.0252
  918MOL0     C23836   1.808   4.829   9.712 -0.8129  0.7019 -0.0764
  918MOL0     C23837   1.684   4.889   9.781 -0.0891  0.3645  0.4804
  918MOL0     C23838   1.626   4.769   9.866 -0.6090 -0.1934 -0.7184
  918MOL0    Cl23839   1.523   4.667   9.771  0.3551  0.2447 -0.3313
  918MOL0     C23840   2.470   4.472   9.682  0.5601  0.8808 -0.6423
  918MOL0     C23841   2.565   4.389   9.737 -0.2783  0.5273 -0.1176
  918MOL0     O23842   2.660   4.362  10.072  0.3476  1.4955  0.2800
  918MOL0     C23843   2.892   4.129   9.928  0.3696  0.3023  0.2060
  918MOL0     C23844   2.939   4.003   9.947  0.1057 -0.4551 -0.6127
  918MOL0     N23845   2.699   3.572   9.650  0.3584 -0.3281 -0.0674
  918MOL0     N23846   2.667   3.495   9.550 -0.2635 -0.0171 -0.0175
  918MOL0     C23847   2.369   2.662   9.079 -0.2256  0.2742 -0.8009
  918MOL0     C23848   2.412   2.531   9.081 -0.4652  0.5692 -0.1772
  918MOL0     C23849   2.416   2.101   8.954 -0.1627  0.4097 -0.5113
  918MOL0     C23850   2.362   2.033   9.058 -0.1900  0.0139 -0.8960
  918MOL0     C23851   2.402   1.915   9.096  0.6940  0.2752  0.6685
  918MOL0     C23852   2.488   1.843   9.019 -0.3449  0.6714 -0.5650
  918MOL0     O23853   2.523   1.713   9.038  1.0258 -0.6669  0.1888
  918MOL0     C23854   2.473   1.639   9.153 -0.9352  0.1424  0.4565
  918MOL0     C23855   2.555   1.508   9.167 -0.2558 -0.9632  0.1554
  918MOL0     C23856   2.704   1.521   9.171 -0.1906  0.0615 -0.6112
  918MOL0     C23857   2.755   1.599   9.297  0.2379  0.0466  0.4937
  918MOL0     C23858   2.716   1.519   9.415  0.3410  0.1642  0.5864
  918MOL0     C23859   2.677   1.470   9.522 -0.7740 -0.5926  0.2933
  918MOL0     C23860   2.537   1.902   8.899 -0.0828  0.1456 -0.3675
  918MOL0     C23861   2.506   2.029   8.870 -0.2869  0.1261 -0.0247
  918MOL0     C23862   2.567   2.076   8.746  0.2637 -0.5260  1.2973
  918MOL0     H23863   2.109   2.390   8.989 -0.3551 -1.0941  3.0281
  918MOL0     H23864   2.044   2.617   8.987 -0.1314 -0.4672 -0.0008
  918MOL0     H23865   1.988   2.834   9.100 -0.7523  1.9090 -2.1670
  918MOL0     H23866   2.118   2.844   9.225 -2.0810  0.4191  0.7746
  918MOL0     H23867   1.988   3.061   9.112  0.0106  0.8513 -3.2004
  918MOL0     H23868   2.127   3.055   9.006  1.9105  1.4051  0.0794
  918MOL0     H23869   2.272   3.026   9.214  0.5976  0.4398  0.6949
  918MOL0     H23870   2.130   3.088   9.309  0.4338  1.0596  0.6920
  918MOL0     H23871   2.221   3.256   9.075 -0.0725  2.2992  1.2754
  918MOL0     H23872   2.096   3.278   9.191 -1.5778 -1.9573  1.1907
  918MOL0     H23873   2.393   3.260   9.245 -0.0042 -0.2472 -0.3811
  918MOL0     H23874   2.314   3.410   9.235  1.4655  0.7989  0.8167
  918MOL0     H23875   2.162   3.331   9.439 -1.2341 -1.3586 -0.9347
  918MOL0     H23876   2.276   3.193   9.458 -3.7469 -0.7823  0.3231
  918MOL0     H23877   2.306   3.401   9.599 -0.4022 -3.3063 -1.1093
  918MOL0     H23878   2.373   3.489   9.454  1.3923  1.2390  1.4907
  918MOL0     H23879   2.470   3.223   9.560  4.1792  0.2297  2.6660
  918MOL0     H23880   2.545   3.314   9.418  0.5812 -0.4625 -0.8556
  918MOL0     H23881   2.462   3.401   9.794  2.1912 -0.9487 -0.7474
  918MOL0     H23882   2.587   3.716   9.902  0.1687 -0.7151  0.2979
  918MOL0     H23883   2.561   3.558   9.972 -0.4567  2.1330  2.0105
  918MOL0     H23884   2.818   3.519   9.955  0.9976  0.5663 -1.6231
  918MOL0     H23885   2.837   3.688   9.913  1.9894 -2.5041 -1.7927
  918MOL0     H23886   2.737   3.562  10.170  0.8590 -1.2542 -0.1788
  918MOL0     H23887   2.693   3.727  10.136  0.2110 -0.8295  2.9611
  918MOL0     H23888   2.959   3.602  10.161  0.0914  0.1235  1.4120
  918MOL0     H23889   2.908   3.733  10.261  0.0033 -1.3183 -0.2188
  918MOL0     H23890   2.834   3.947  10.266 -1.9852 -0.8195 -0.6037
  918MOL0     H23891   2.753   4.184  10.238 -0.6607 -2.0801  1.9713
  918MOL0     H23892   2.708   4.619   9.935  0.9792  0.2751 -1.4285
  918MOL0     H23893   2.519   4.761   9.827 -1.4543 -0.8045  1.4957
  918MOL0     H23894   2.375   4.645   9.467  1.7910  2.4939 -0.1755
  918MOL0     H23895   2.248   4.577   9.559  1.3277 -1.1172  1.7179
  918MOL0     H23896   2.293   4.874   9.497 -0.6250  0.5536 -2.1906
  918MOL0     H23897   2.182   4.783   9.402 -3.2328  2.9791  1.3883
  918MOL0     H23898   2.085   4.732   9.670  0.5629 -0.6661 -0.2623
  918MOL0     H23899   2.156   4.885   9.688 -1.9620  0.2885  1.0449
  918MOL0     H23900   1.954   4.850   9.469 -1.4609  1.5543 -1.0708
  918MOL0     H23901   2.045   4.990   9.522  0.1720  1.1117  1.3416
  918MOL0     H23902   1.821   4.982   9.579 -0.9984 -1.2155  0.3524
  918MOL0     H23903   1.932   5.010   9.721 -1.5091 -0.8057  1.2926
  918MOL0     H23904   1.784   4.765   9.626 -0.4808 -0.7939  0.9237
  918MOL0     H23905   1.881   4.784   9.779 -0.5651  2.5649  0.9719
  918MOL0     H23906   1.614   4.929   9.708 -0.5811  0.2917  0.9108
  918MOL0     H23907   1.705   4.973   9.848  0.6178  1.0450 -0.5730
  918MOL0     H23908   1.707   4.720   9.921  0.6166  1.6989 -0.7684
  918MOL0     H23909   1.570   4.813   9.950 -0.2306  4.4194 -2.5856
  918MOL0     H23910   2.392   4.410   9.637  0.5107 -0.2070  0.8957
  918MOL0     H23911   2.569   4.286   9.704  0.9609  1.4363 -3.1823
  918MOL0     H23912   2.894   4.173   9.829 -0.1588  1.0040  0.5029
  918MOL0     H23913   3.000   3.952   9.873  0.8431 -0.6313  0.1023
  918MOL0     H23914   2.442   2.736   9.109  0.3020  0.6760 -2.9242
  918MOL0     H23915   2.511   2.500   9.115 -0.7819 -0.8292 -0.4499
  918MOL0     H23916   2.286   2.093   9.107 -0.4280  2.9462 -4.3690
  918MOL0     H23917   2.352   1.868   9.180  0.5731 -2.0771 -0.6128
  918MOL0     H23918   2.369   1.617   9.127 -1.0315 -1.0502  1.7218
  918MOL0     H23919   2.468   1.695   9.247  2.3362  0.9684  0.2601
  918MOL0     H23920   2.530   1.457   9.074  0.4577 -0.0215 -0.5661
  918MOL0     H23921   2.515   1.452   9.253 -0.8009  0.6352  0.9713
  918MOL0     H23922   2.740   1.567   9.079  1.2883 -0.0633 -0.1230
  918MOL0     H23923   2.756   1.425   9.168  2.9954  1.5850  0.5933
  918MOL0     H23924   2.864   1.597   9.291  0.3507  2.5375  0.7444
  918MOL0     H23925   2.714   1.700   9.301  3.2096  1.3532  4.4979
  918MOL0     H23926   2.636   1.416   9.605 -0.8486  1.6273  1.7804
  918MOL0     H23927   2.602   1.842   8.836 -1.2131 -0.3700 -1.0756
  918MOL0     H23928   2.665   2.033   8.721  0.5799  0.7494  0.2769
  918MOL0     H23929   2.489   2.058   8.672 -0.2112 -0.5165  1.7892
  918MOL0     H23930   2.599   2.179   8.762 -1.3172  0.1155  0.4843
  919MOL0     O23931  10.973  11.159   1.075  0.6523 -0.4057 -0.4146
  919MOL0     C23932  10.874  11.124   1.008 -0.1755 -0.8639 -0.2774
  919MOL0     O23933  10.855  11.148   0.875 -0.6299 -0.5916 -0.3107
  919MOL0     C23934  10.936  11.243   0.806 -0.3953 -0.1608 -0.2827
  919MOL0     C23935  11.026  11.343   0.862  0.4542 -0.1419 -0.2484
  919MOL0     C23936  11.104  11.427   0.790 -0.5090 -0.0657  0.1160
  919MOL0     C23937  11.096  11.413   0.647  0.1394 -0.5336 -0.3602
  919MOL0     O23938  11.189  11.496   0.584 -0.8039 -0.2893 -0.0718
  919MOL0     C23939  11.208  11.468   0.444  0.2927  0.0862 -0.8066
  919MOL0     C23940  11.295  11.345   0.427 -0.1408  0.1458 -0.6553
  919MOL0     C23941  11.311  11.322   0.275  0.7487  0.1616  0.2640
  919MOL0     C23942  11.415  11.413   0.219 -0.0162  0.2270  1.3352
  919MOL0     C23943  11.563  11.386   0.260 -0.2069  0.8382 -0.2230
  919MOL0     C23944  11.593  11.240   0.216 -0.2164  0.2257  0.7777
  919MOL0     C23945  11.728  11.232   0.137 -0.7652  1.0547  0.9776
  919MOL0     C23946  11.725  11.101   0.060 -1.3361  1.4908  0.4718
  919MOL0     N23947  11.847  11.085  -0.026 -0.0725  0.5773 -0.5685
  919MOL0     C23948  11.870  11.148  -0.146  0.4545 -1.0054 -0.9439
  919MOL0     C23949  11.999  11.119  -0.175 -0.6192  0.0319 -0.0373
  919MOL0     C23950  12.078  11.165  -0.296 -0.7876  0.0662 -0.4265
  919MOL0     C23951  12.006  11.122  -0.426 -0.3256  0.4778 -0.5933
  919MOL0     C23952  12.049  10.986  -0.475 -0.1880  0.2079 -1.0785
  919MOL0     C23953  11.967  10.940  -0.590  0.1958  0.0516 -0.2806
  919MOL0     O23954  11.834  10.896  -0.531 -0.2919 -0.0230  0.8120
  919MOL0     C23955  11.744  10.822  -0.601 -0.1399 -0.1969  0.5432
  919MOL0     C23956  11.773  10.773  -0.730 -0.0802 -0.3183 -0.4182
  919MOL0     C23957  11.674  10.702  -0.792 -0.1562  0.3536 -0.0118
  919MOL0     C23958  11.552  10.661  -0.729 -0.0641  0.6367 -0.1054
  919MOL0     C23959  11.457  10.562  -0.792 -0.2342 -0.1367 -0.1219
  919MOL0     O23960  11.353  10.517  -0.711 -0.3924  0.4550  0.9321
  919MOL0     C23961  11.283  10.408  -0.762 -0.0394 -0.0388 -0.8966
  919MOL0     C23962  11.226  10.403  -0.884  0.1567  0.0846  0.1956
  919MOL0     C23963  11.175  10.283  -0.949  0.3613 -0.6118 -0.2492
  919MOL0     C23964  11.170  10.165  -0.881  0.1623  0.3849  0.1202
  919MOL0     O23965  11.126  10.042  -0.930  0.1787 -0.0958 -0.3250
  919MOL0     C23966  11.205   9.988  -1.037  0.0644 -0.2067  0.2870
  919MOL0     C23967  11.333   9.927  -0.989 -0.5198 -0.3015 -0.4424
  919MOL0     C23968  11.410   9.869  -1.106 -0.1246  0.3754  0.6753
  919MOL0     C23969  11.550   9.816  -1.060  0.5039 -1.0511  0.2558
  919MOL0     C23970  11.595   9.667  -1.054 -0.7018  0.6996 -0.3742
  919MOL0     C23971  11.744   9.644  -1.074 -1.2856 -0.2892 -0.3687
  919MOL0     C23972  11.819   9.683  -0.946  0.2958 -0.5261  1.2091
  919MOL0     C23973  11.970   9.692  -0.970  0.5354 -0.0342  0.7424
  919MOL0    Cl23974  12.053   9.701  -0.817  0.0607  1.0961  0.2348
  919MOL0     C23975  11.214  10.171  -0.748  0.8577  0.2153 -0.1291
  919MOL0     C23976  11.269  10.283  -0.692 -0.1319  0.2813 -0.3457
  919MOL0     O23977  11.484  10.528  -0.902  0.0800  0.6023 -0.5907
  919MOL0     C23978  11.524  10.714  -0.601  0.6538 -0.0715 -0.7539
  919MOL0     C23979  11.618  10.798  -0.541 -0.8327  0.0471  0.1365
  919MOL0     N23980  12.057  11.049  -0.064  0.2041  0.0248 -0.7796
  919MOL0     N23981  11.960  11.026   0.016 -0.3172  0.0090 -0.5760
  919MOL0     C23982  11.008  11.321   0.589  0.0786  0.3890  0.5550
  919MOL0     C23983  10.920  11.249   0.671  0.0386  0.4755  0.8432
  919MOL0     C23984  10.774  11.039   1.069 -0.0965 -0.4781  0.1221
  919MOL0     C23985  10.726  10.925   1.000 -1.8010 -0.5369 -0.7321
  919MOL0     C23986  10.628  10.851   1.053  0.2082 -0.4866 -0.3385
  919MOL0     C23987  10.579  10.871   1.177  0.0439 -0.5578  0.5066
  919MOL0     O23988  10.488  10.782   1.235 -0.1405  0.5267  0.3797
  919MOL0     C23989  10.548  10.662   1.284 -1.0922 -0.7109 -0.0132
  919MOL0     C23990  10.468  10.578   1.382  0.1256  0.0984  0.8280
  919MOL0     C23991  10.467  10.656   1.520  0.7699 -0.2612  0.3009
  919MOL0     C23992  10.321  10.721   1.537  0.1066  0.3942  0.1506
  919MOL0     C23993  10.326  10.819   1.642  0.2199  0.1796 -0.2057
  919MOL0     C23994  10.337  10.897   1.735 -0.9658 -0.0501 -0.2114
  919MOL0     C23995  10.626  10.981   1.252  0.5671  0.2596 -0.0970
  919MOL0     C23996  10.724  11.069   1.198  0.2306  0.5026 -0.0359
  919MOL0     C23997  10.754  11.187   1.299 -0.4715  0.5650  0.4718
  919MOL0     H23998  11.030  11.356   0.970 -1.6852  2.7383 -0.4017
  919MOL0     H23999  11.169  11.496   0.842 -1.1680  0.0798  0.7553
  919MOL0     H24000  11.115  11.456   0.388 -0.9456  0.2700  1.1074
  919MOL0     H24001  11.272  11.546   0.402  0.2930  0.9643  0.7392
  919MOL0     H24002  11.247  11.262   0.478 -0.5134 -0.0116 -1.2501
  919MOL0     H24003  11.391  11.359   0.476 -1.0200  0.8051  0.9591
  919MOL0     H24004  11.219  11.352   0.224 -0.0976 -0.9378  1.1106
  919MOL0     H24005  11.319  11.218   0.244 -1.9698 -0.8549  2.4975
  919MOL0     H24006  11.398  11.414   0.110 -0.3743  0.3657  1.3902
  919MOL0     H24007  11.384  11.516   0.236  0.7738  0.5887  0.6596
  919MOL0     H24008  11.639  11.448   0.212  1.3397 -0.5316  0.3406
  919MOL0     H24009  11.577  11.396   0.368  2.1934  0.1519 -0.4144
  919MOL0     H24010  11.598  11.171   0.301 -0.0963  1.9839  2.2556
  919MOL0     H24011  11.508  11.217   0.151  0.2524  0.6296  0.0068
  919MOL0     H24012  11.817  11.240   0.199  1.1966  0.8658 -1.6333
  919MOL0     H24013  11.755  11.313   0.068 -0.8207  1.0001  0.8919
  919MOL0     H24014  11.724  11.019   0.133 -1.1392  3.7728  3.1900
  919MOL0     H24015  11.637  11.102  -0.004 -0.3146  1.8504 -0.9921
  919MOL0     H24016  11.802  11.220  -0.189  1.9249  0.1781 -1.3462
  919MOL0     H24017  12.077  11.274  -0.303 -2.3875 -0.0035 -1.9028
  919MOL0     H24018  12.184  11.138  -0.292 -0.7612 -0.2277 -2.2251
  919MOL0     H24019  11.897  11.114  -0.414 -0.4757  1.1763 -1.4248
  919MOL0     H24020  12.018  11.198  -0.503  3.4269 -0.2879 -0.9345
  919MOL0     H24021  12.055  10.911  -0.396  1.6497  0.2107 -1.1634
  919MOL0     H24022  12.150  11.001  -0.515 -0.6196 -1.6100 -3.0216
  919MOL0     H24023  12.027  10.866  -0.644  2.1175 -0.3397  2.2197
  919MOL0     H24024  11.952  11.029  -0.653 -0.9216 -0.6002 -0.9702
  919MOL0     H24025  11.868  10.798  -0.774  0.4713  2.2153  1.9206
  919MOL0     H24026  11.712  10.667  -0.888 -0.2077  3.0355 -1.0992
  919MOL0     H24027  11.224  10.497  -0.939  3.9260 -1.1382 -2.3998
  919MOL0     H24028  11.153  10.278  -1.055 -2.6925 -1.8664  0.3574
  919MOL0     H24029  11.158   9.903  -1.088 -0.0084  1.0471 -1.8599
  919MOL0     H24030  11.216  10.059  -1.120 -2.5781 -0.9231 -0.7914
  919MOL0     H24031  11.401   9.996  -0.939  1.0262 -2.0960  0.0883
  919MOL0     H24032  11.306   9.850  -0.917  1.6690  1.1855  2.1498
  919MOL0     H24033  11.353   9.786  -1.150 -2.9037  2.5998 -0.2257
  919MOL0     H24034  11.407   9.936  -1.191 -1.8711 -0.7403 -0.2120
  919MOL0     H24035  11.571   9.845  -0.957 -0.4047  0.7480 -0.0276
  919MOL0     H24036  11.620   9.868  -1.125 -0.4545  1.4848  1.1460
  919MOL0     H24037  11.544   9.603  -1.127  3.8280 -0.8818 -2.5324
  919MOL0     H24038  11.579   9.626  -0.954 -1.7466 -2.1196 -1.5960
  919MOL0     H24039  11.762   9.539  -1.097 -2.0912 -0.3339 -0.8380
  919MOL0     H24040  11.782   9.696  -1.162  0.1348  0.1033  0.4415
  919MOL0     H24041  11.799   9.603  -0.875 -1.7582  0.4314  1.7804
  919MOL0     H24042  11.777   9.774  -0.902  0.2413  0.3186 -0.5119
  919MOL0     H24043  12.001   9.604  -1.026 -2.0445  0.0641 -1.0320
  919MOL0     H24044  11.995   9.782  -1.028 -1.4820 -0.0247 -0.1905
  919MOL0     H24045  11.198  10.078  -0.693  0.7580  0.1283 -0.3049
  919MOL0     H24046  11.306  10.247  -0.597 -0.7749  0.0545 -0.1746
  919MOL0     H24047  11.429  10.685  -0.558  1.9041 -3.4476  0.0623
  919MOL0     H24048  11.601  10.837  -0.441  1.1584  1.6634 -0.0984
  919MOL0     H24049  10.995  11.323   0.481  1.9343  1.9415  0.3082
  919MOL0     H24050  10.838  11.182   0.646  0.4954 -0.2415  1.2209
  919MOL0     H24051  10.771  10.908   0.902 -0.2979 -0.3978 -0.0872
  919MOL0     H24052  10.579  10.765   1.007 -0.2610 -0.4276  0.0453
  919MOL0     H24053  10.649  10.675   1.324 -0.4106 -3.8364 -0.4367
  919MOL0     H24054  10.564  10.608   1.190 -1.8734  2.3107 -2.0280
  919MOL0     H24055  10.524  10.485   1.392 -0.4416 -0.0912  2.6512
  919MOL0     H24056  10.371  10.564   1.335  1.0960 -1.8559 -0.7313
  919MOL0     H24057  10.544  10.732   1.532 -0.3936  0.9508  0.3153
  919MOL0     H24058  10.478  10.587   1.604 -1.2491  2.6929  3.2478
  919MOL0     H24059  10.300  10.763   1.438  0.9101 -2.9535 -1.5613
  919MOL0     H24060  10.254  10.636   1.548  0.3125  0.0491 -1.1094
  919MOL0     H24061  10.337  10.968   1.815  1.0995  0.6986 -0.8225
  919MOL0     H24062  10.574  11.018   1.339 -2.0360  0.1578 -1.4909
  919MOL0     H24063  10.702  11.175   1.394  0.5961  1.2471  1.1756
  919MOL0     H24064  10.861  11.193   1.323 -0.7102  1.2687  1.4251
  919MOL0     H24065  10.715  11.280   1.256  4.2964  2.3522 -0.6651
  920MOL0     O24066   8.672   8.243   5.458  0.1141 -0.0349  0.0202
  920MOL0     C24067   8.620   8.128   5.455 -1.1776  0.3933  0.9958
  920MOL0     O24068   8.508   8.091   5.389  0.1216  0.1614  0.6939
  920MOL0     C24069   8.456   8.170   5.292 -0.6884  1.1214  0.2855
  920MOL0     C24070   8.527   8.211   5.179  0.3732 -0.0069  0.4281
  920MOL0     C24071   8.455   8.270   5.072  0.2401 -0.0426  0.8111
  920MOL0     C24072   8.317   8.290   5.073  0.8444  0.3003 -0.6341
  920MOL0     O24073   8.260   8.342   4.964 -1.3048  0.1874  0.1304
  920MOL0     C24074   8.149   8.275   4.905  0.1562  0.5512 -0.0004
  920MOL0     C24075   8.170   8.126   4.874 -0.1392 -0.0865 -0.0778
  920MOL0     C24076   8.036   8.064   4.834  0.2343 -0.2621 -0.3057
  920MOL0     C24077   7.915   8.073   4.937 -0.0071  0.2453  0.0901
  920MOL0     C24078   7.948   8.013   5.065 -0.4018 -0.6838 -0.2240
  920MOL0     C24079   7.978   7.867   5.078 -0.1663 -0.6696 -0.5811
  920MOL0     C24080   8.006   7.816   5.222  0.3499 -1.3640 -0.2885
  920MOL0     C24081   7.880   7.795   5.304 -0.3939 -0.1604 -0.7903
  920MOL0     N24082   7.892   7.772   5.446  0.1142  0.6258 -0.2917
  920MOL0     C24083   7.953   7.670   5.513  1.0448 -0.1290 -1.1836
  920MOL0     C24084   7.938   7.692   5.648  0.0610  0.1623 -0.5223
  920MOL0     C24085   8.005   7.604   5.751  0.8271 -1.0214  0.2404
  920MOL0     C24086   7.926   7.483   5.772  0.3569  0.2325 -0.7628
  920MOL0     C24087   8.006   7.368   5.838 -0.8537 -0.4243 -0.4940
  920MOL0     C24088   7.919   7.253   5.891  0.5724  0.7061  1.0826
  920MOL0     O24089   7.997   7.154   5.951 -0.0073 -1.5367 -0.3053
  920MOL0     C24090   7.952   7.058   6.032 -0.4225  0.4971  0.0090
  920MOL0     C24091   8.041   6.973   6.091  0.5933 -0.1607  0.4333
  920MOL0     C24092   7.997   6.869   6.174 -0.7250  0.5112 -0.0934
  920MOL0     C24093   7.856   6.842   6.196 -0.0476  0.6368 -0.9914
  920MOL0     C24094   7.807   6.728   6.276 -0.6713  0.2804 -0.2180
  920MOL0     O24095   7.675   6.717   6.283  0.4496 -0.6222 -0.2909
  920MOL0     C24096   7.636   6.593   6.314 -0.1229 -0.5497 -0.6736
  920MOL0     C24097   7.657   6.488   6.228  0.2780 -0.1944 -0.2583
  920MOL0     C24098   7.614   6.362   6.272 -0.6256 -0.5551  0.3793
  920MOL0     C24099   7.603   6.334   6.410  0.6735 -0.7896  0.5416
  920MOL0     O24100   7.584   6.207   6.437  0.0526 -0.7804 -0.1971
  920MOL0     C24101   7.489   6.175   6.542  0.2223 -0.1055 -0.2454
  920MOL0     C24102   7.448   6.031   6.513  1.1945  1.0002 -0.1736
  920MOL0     C24103   7.408   6.008   6.365 -0.0353 -0.6495 -0.2327
  920MOL0     C24104   7.301   6.108   6.306 -0.2959  1.3283 -0.1041
  920MOL0     C24105   7.244   6.071   6.174 -0.2933  0.0933  0.2621
  920MOL0     C24106   7.311   6.140   6.049  0.0284 -0.4135 -0.0428
  920MOL0     C24107   7.215   6.125   5.922 -0.3569  0.5358 -0.7865
  920MOL0     C24108   7.278   6.144   5.782 -0.0649 -0.6465  0.6546
  920MOL0    Cl24109   7.272   6.315   5.757  0.2391  0.1906  0.1537
  920MOL0     C24110   7.587   6.443   6.499  0.4124  0.2374 -0.8901
  920MOL0     C24111   7.600   6.576   6.448  0.7982 -0.2499 -0.5759
  920MOL0     O24112   7.890   6.635   6.305 -0.8424  0.2385 -0.3633
  920MOL0     C24113   7.770   6.930   6.143  0.4760  0.3335  0.5687
  920MOL0     C24114   7.811   7.037   6.055  0.1795 -0.0152  0.0001
  920MOL0     N24115   7.858   7.806   5.661 -0.0014 -0.1425  0.6889
  920MOL0     N24116   7.848   7.856   5.540  0.4229  0.1606  0.0820
  920MOL0     C24117   8.245   8.269   5.195  0.4450  0.4646 -0.5248
  920MOL0     C24118   8.313   8.202   5.297 -0.7095 -0.1116 -0.8752
  920MOL0     C24119   8.695   8.008   5.510 -0.9414 -0.9625 -0.2193
  920MOL0     C24120   8.665   7.888   5.459  0.4711 -0.0361 -0.3739
  920MOL0     C24121   8.732   7.771   5.509  0.1297 -0.5548  0.7638
  920MOL0     C24122   8.828   7.770   5.602  0.0862 -0.3835 -0.1460
  920MOL0     O24123   8.898   7.659   5.633  0.0264 -1.2073  1.2900
  920MOL0     C24124   8.926   7.636   5.770  0.9509 -0.8460 -1.0609
  920MOL0     C24125   8.931   7.485   5.799  0.3070 -0.6351 -0.0468
  920MOL0     C24126   8.993   7.462   5.941  0.4259 -0.3381 -1.1111
  920MOL0     C24127   9.021   7.313   5.944  0.2542 -0.2168  0.9173
  920MOL0     C24128   8.902   7.232   5.922  0.0317  0.2990  0.2102
  920MOL0     C24129   8.793   7.177   5.908  0.4516  0.3083 -0.1169
  920MOL0     C24130   8.859   7.899   5.650 -0.3703  0.0650 -0.1258
  920MOL0     C24131   8.794   8.017   5.614  0.4756  0.3588  0.4261
  920MOL0     C24132   8.832   8.134   5.704  1.3352 -0.2068  0.2328
  920MOL0     H24133   8.632   8.186   5.168  0.1243 -1.5228  1.1822
  920MOL0     H24134   8.500   8.302   4.979  0.2972  0.2660  0.9439
  920MOL0     H24135   8.068   8.279   4.979  0.4610 -3.5446  0.8321
  920MOL0     H24136   8.107   8.313   4.812  0.0279 -2.5385 -1.3433
  920MOL0     H24137   8.218   8.086   4.963  0.8107  2.1867  0.5179
  920MOL0     H24138   8.240   8.121   4.790 -0.0025  1.2614 -0.0669
  920MOL0     H24139   8.051   7.959   4.807 -2.3009 -0.0662 -3.0320
  920MOL0     H24140   8.007   8.113   4.741 -1.8094 -0.3040  0.2702
  920MOL0     H24141   7.904   8.178   4.966 -0.7840 -0.9418  5.1070
  920MOL0     H24142   7.827   8.026   4.892  0.9803  0.3387 -2.0399
  920MOL0     H24143   8.035   8.058   5.115 -1.3012  0.0249  0.7471
  920MOL0     H24144   7.862   8.043   5.126 -1.6465 -3.7290 -0.3419
  920MOL0     H24145   7.897   7.813   5.027 -1.0183  3.0268 -3.5398
  920MOL0     H24146   8.073   7.854   5.026 -2.1134 -1.1952 -4.3687
  920MOL0     H24147   8.069   7.894   5.266 -1.6893  0.5003 -0.5339
  920MOL0     H24148   8.065   7.725   5.209 -0.0933 -1.9978  1.7342
  920MOL0     H24149   7.808   7.876   5.285 -0.3256  0.2470  0.5259
  920MOL0     H24150   7.830   7.702   5.278 -0.2305 -0.0022 -1.6865
  920MOL0     H24151   8.004   7.588   5.464  1.0663 -0.9747  0.2034
  920MOL0     H24152   8.101   7.587   5.701  2.2623  1.1014  2.1121
  920MOL0     H24153   8.032   7.663   5.838  1.8415  1.9829 -1.9432
  920MOL0     H24154   7.840   7.517   5.830 -1.1589 -1.8617 -1.6708
  920MOL0     H24155   7.886   7.435   5.682 -2.8971 -0.8094  1.0695
  920MOL0     H24156   8.070   7.408   5.918  0.0678 -0.1755 -1.3292
  920MOL0     H24157   8.077   7.331   5.764  0.2672 -0.8044  0.7433
  920MOL0     H24158   7.846   7.213   5.821 -3.5017  5.5809  2.0343
  920MOL0     H24159   7.861   7.284   5.978  0.8667 -2.7572  2.7087
  920MOL0     H24160   8.144   6.985   6.057  0.2565 -0.1752 -0.6411
  920MOL0     H24161   8.079   6.805   6.205  1.9333  2.3326 -2.7626
  920MOL0     H24162   7.689   6.493   6.125  3.9357  1.3383  0.8021
  920MOL0     H24163   7.611   6.285   6.195  0.3222  2.3751 -2.8645
  920MOL0     H24164   7.534   6.174   6.642 -1.2212  2.0890  0.5149
  920MOL0     H24165   7.407   6.248   6.551 -0.2421 -0.5540 -0.7659
  920MOL0     H24166   7.524   5.965   6.554 -1.0014  0.6636  3.8204
  920MOL0     H24167   7.353   6.006   6.561  1.8192  0.3019  0.7371
  920MOL0     H24168   7.503   6.004   6.311  1.5839  0.2102  2.3873
  920MOL0     H24169   7.354   5.913   6.379 -2.2678  0.5953  0.1703
  920MOL0     H24170   7.348   6.204   6.282  1.7481  0.0475 -1.5117
  920MOL0     H24171   7.221   6.113   6.381 -0.2557  0.1361  0.0325
  920MOL0     H24172   7.138   6.097   6.181 -0.5527  0.0801 -2.6895
  920MOL0     H24173   7.248   5.963   6.155 -0.2916  0.4915 -2.2262
  920MOL0     H24174   7.326   6.246   6.075  1.1540 -0.4215 -0.6072
  920MOL0     H24175   7.413   6.109   6.027 -0.7141 -1.8975 -1.6106
  920MOL0     H24176   7.125   6.184   5.940 -1.1003 -0.5189 -0.9232
  920MOL0     H24177   7.180   6.021   5.916 -0.6715  0.4809  1.2131
  920MOL0     H24178   7.383   6.112   5.782  0.3438  0.4313 -2.3115
  920MOL0     H24179   7.224   6.085   5.708  2.3684 -0.8626 -1.0585
  920MOL0     H24180   7.574   6.433   6.607  0.7307  1.2032 -0.7525
  920MOL0     H24181   7.586   6.653   6.524 -1.2470 -0.0004 -1.1376
  920MOL0     H24182   7.664   6.919   6.164  0.1670 -3.2179 -1.9689
  920MOL0     H24183   7.728   7.091   6.010 -0.6649 -1.3989 -0.1759
  920MOL0     H24184   8.141   8.297   5.211 -0.2229 -1.1424 -1.8323
  920MOL0     H24185   8.264   8.179   5.391 -0.5625  0.0121 -0.7670
  920MOL0     H24186   8.592   7.878   5.379  1.4471  1.8387 -1.5636
  920MOL0     H24187   8.697   7.671   5.485  1.6766 -0.6452 -1.3191
  920MOL0     H24188   8.861   7.687   5.842  0.8936 -2.6923  0.2648
  920MOL0     H24189   9.021   7.687   5.786  0.5205  0.1625 -1.6115
  920MOL0     H24190   8.992   7.442   5.719  1.1524 -0.4843  0.4982
  920MOL0     H24191   8.835   7.433   5.787  1.0870 -1.3761 -5.3550
  920MOL0     H24192   8.924   7.480   6.024 -1.3912 -1.2226 -2.3629
  920MOL0     H24193   9.093   7.504   5.955 -0.6160  2.4709 -1.4365
  920MOL0     H24194   9.099   7.295   5.870 -0.6106 -2.6023  0.4736
  920MOL0     H24195   9.074   7.276   6.032  2.0281 -1.5914 -0.6658
  920MOL0     H24196   8.693   7.139   5.902  0.4873 -0.2258  1.8872
  920MOL0     H24197   8.943   7.910   5.718  1.2375 -1.5551 -1.7500
  920MOL0     H24198   8.919   8.110   5.766  2.4049 -2.8003 -2.0811
  920MOL0     H24199   8.855   8.228   5.652 -2.7774  0.5239 -0.6806
  920MOL0     H24200   8.745   8.157   5.767  0.7821 -0.4095 -0.4463
  921MOL0     O24201   1.492   3.129   8.447  0.0230 -0.1358 -0.3820
  921MOL0     C24202   1.472   3.181   8.337  0.4802 -0.1882 -0.6411
  921MOL0     O24203   1.575   3.190   8.235  0.1700 -0.8611  0.0300
  921MOL0     C24204   1.706   3.151   8.258 -0.3142 -0.7084  1.4827
  921MOL0     C24205   1.769   3.033   8.216 -0.7930 -0.6894 -0.1477
  921MOL0     C24206   1.909   3.012   8.233  0.0093  0.3137 -0.7605
  921MOL0     C24207   1.996   3.103   8.300  0.5811  0.4389 -0.2164
  921MOL0     O24208   2.127   3.065   8.316 -0.3101 -0.6421 -0.4755
  921MOL0     C24209   2.222   3.145   8.382 -0.2752  0.1616 -0.0217
  921MOL0     C24210   2.363   3.085   8.354 -0.4610  0.5920 -0.0013
  921MOL0     C24211   2.469   3.160   8.437 -0.0537 -0.0357  0.2434
  921MOL0     C24212   2.601   3.100   8.399 -0.2151  0.1768  0.2887
  921MOL0     C24213   2.718   3.126   8.488 -0.5152 -0.8717  0.1750
  921MOL0     C24214   2.846   3.145   8.422  0.9725  0.6009  0.0173
  921MOL0     C24215   2.869   3.279   8.356 -0.5587  0.1251 -0.8482
  921MOL0     C24216   2.889   3.391   8.454  1.1644  0.4845  0.0058
  921MOL0     N24217   3.005   3.364   8.544  0.3930 -0.0808  0.1684
  921MOL0     C24218   3.133   3.396   8.504 -0.1890 -0.8902  1.3805
  921MOL0     C24219   3.205   3.361   8.611 -0.7277  0.7016  0.1831
  921MOL0     C24220   3.346   3.391   8.607 -0.0814  0.0211 -1.0275
  921MOL0     C24221   3.428   3.274   8.662 -0.4075 -0.8316  1.5911
  921MOL0     C24222   3.497   3.195   8.549 -0.5463 -0.7857  0.0963
  921MOL0     C24223   3.395   3.120   8.467  0.3715 -0.1588  0.6803
  921MOL0     O24224   3.462   3.060   8.354 -0.6215  0.2519  0.8349
  921MOL0     C24225   3.387   3.009   8.251  0.0660 -0.3295 -0.0604
  921MOL0     C24226   3.459   2.967   8.138 -0.4711  0.2129  0.1808
  921MOL0     C24227   3.390   2.931   8.019 -0.0777  0.6443 -0.2191
  921MOL0     C24228   3.248   2.917   8.013 -0.6643  0.2625 -0.4504
  921MOL0     C24229   3.185   2.883   7.887 -1.1152 -0.8139 -0.5832
  921MOL0     O24230   3.047   2.872   7.892 -0.0773  0.0503 -0.2351
  921MOL0     C24231   2.999   2.797   7.785  0.5119 -1.1803 -0.3180
  921MOL0     C24232   2.933   2.860   7.684  0.0430 -1.4630 -0.4119
  921MOL0     C24233   2.886   2.795   7.575  0.6628  0.8954  1.2123
  921MOL0     C24234   2.889   2.659   7.576 -0.8496  0.7823  0.5224
  921MOL0     O24235   2.828   2.579   7.485 -0.3101 -0.4358  0.1844
  921MOL0     C24236   2.708   2.609   7.423 -0.4196  0.0551  0.8530
  921MOL0     C24237   2.646   2.482   7.347 -0.1564 -0.8767  0.0134
  921MOL0     C24238   2.607   2.362   7.432  0.4830  0.7730  0.2518
  921MOL0     C24239   2.611   2.233   7.341  1.0279 -0.6771 -0.3712
  921MOL0     C24240   2.558   2.106   7.406  0.6392  0.4732  0.1120
  921MOL0     C24241   2.646   1.991   7.370 -0.1522  0.3533 -0.3057
  921MOL0     C24242   2.585   1.854   7.410  0.3937 -0.1755  0.4157
  921MOL0     C24243   2.606   1.829   7.560  0.0764  0.3563 -0.2254
  921MOL0    Cl24244   2.546   1.671   7.590 -0.0421 -0.0513 -0.3014
  921MOL0     C24245   2.970   2.596   7.667  0.3233 -0.2745  0.4357
  921MOL0     C24246   3.023   2.663   7.776 -0.4703 -0.1279 -0.2573
  921MOL0     O24247   3.251   2.881   7.778  0.5004 -0.0736  0.1789
  921MOL0     C24248   3.171   2.946   8.133 -1.1953 -0.3716  0.9514
  921MOL0     C24249   3.246   2.995   8.243  0.3160 -0.1467 -0.1640
  921MOL0     N24250   3.128   3.306   8.709  0.2139 -0.8305 -0.7332
  921MOL0     N24251   3.009   3.308   8.664 -0.3029  0.1121  0.5489
  921MOL0     C24252   1.927   3.223   8.341  0.0989 -0.1658 -0.1299
  921MOL0     C24253   1.795   3.246   8.316  0.1169 -0.0476  0.5668
  921MOL0     C24254   1.333   3.237   8.308 -0.4405  0.6302  0.2689
  921MOL0     C24255   1.315   3.310   8.190  0.6169  0.5925  0.5667
  921MOL0     C24256   1.192   3.367   8.152  0.3174  0.5099  0.2858
  921MOL0     C24257   1.078   3.351   8.233  0.0993  0.0688  0.8781
  921MOL0     O24258   0.954   3.384   8.170 -0.2543  0.2122 -0.3226
  921MOL0     C24259   0.832   3.411   8.243  0.2685 -0.0040 -0.1781
  921MOL0     C24260   0.836   3.554   8.299 -1.0886 -0.0699 -0.4134
  921MOL0     C24261   0.730   3.581   8.410 -0.3135 -0.1041 -0.0805
  921MOL0     C24262   0.731   3.734   8.454  0.4049  0.3929 -0.3782
  921MOL0     C24263   0.629   3.760   8.553 -0.7413  0.6788  0.2492
  921MOL0     C24264   0.544   3.788   8.642 -0.5226  0.4249  0.4097
  921MOL0     C24265   1.089   3.288   8.353  1.1181 -0.9042  0.1644
  921MOL0     C24266   1.218   3.232   8.392  0.0094  0.2587 -0.8170
  921MOL0     C24267   1.227   3.169   8.530 -0.5237 -0.7522  0.0013
  921MOL0     H24268   1.706   2.957   8.171 -0.2784 -0.6773 -0.8951
  921MOL0     H24269   1.944   2.910   8.220  0.6300  0.6372 -1.6450
  921MOL0     H24270   2.225   3.252   8.359 -0.1520  0.7588  2.5048
  921MOL0     H24271   2.198   3.137   8.488  2.6639 -0.5322  0.6953
  921MOL0     H24272   2.374   3.102   8.247  2.8828  1.0847  0.3208
  921MOL0     H24273   2.371   2.976   8.360  1.2775 -0.1019 -7.0382
  921MOL0     H24274   2.454   3.158   8.545  1.4967  4.8127  0.7868
  921MOL0     H24275   2.462   3.265   8.408 -1.1734  0.3823  1.8666
  921MOL0     H24276   2.588   2.993   8.382  2.6590  0.0800 -2.1401
  921MOL0     H24277   2.622   3.125   8.295  1.0080 -1.9866 -0.0374
  921MOL0     H24278   2.695   3.210   8.555  3.4353  0.1415  0.4714
  921MOL0     H24279   2.741   3.044   8.556  5.0119 -0.2794 -0.5391
  921MOL0     H24280   2.932   3.122   8.487  3.4614 -3.1251 -4.0037
  921MOL0     H24281   2.839   3.071   8.342  0.0543 -0.6612  1.2145
  921MOL0     H24282   2.783   3.304   8.293 -0.9298  0.3264 -0.2706
  921MOL0     H24283   2.959   3.276   8.295  1.1260 -1.3374  1.5243
  921MOL0     H24284   2.907   3.483   8.396  1.2189 -0.3706 -1.3809
  921MOL0     H24285   2.807   3.408   8.524  1.2629  1.2097 -0.0395
  921MOL0     H24286   3.165   3.451   8.416 -3.1450  0.3457  0.9829
  921MOL0     H24287   3.386   3.420   8.509  2.2908 -0.9651 -0.4445
  921MOL0     H24288   3.369   3.474   8.674  1.1851 -0.4910 -0.7842
  921MOL0     H24289   3.502   3.304   8.736 -0.1627  1.6126  0.4558
  921MOL0     H24290   3.357   3.208   8.713 -0.6502 -2.5337 -0.7516
  921MOL0     H24291   3.557   3.121   8.602  1.1204  1.5850  1.7691
  921MOL0     H24292   3.557   3.263   8.488 -1.8977 -0.6026 -1.0868
  921MOL0     H24293   3.326   3.193   8.425  2.7148  2.1152  0.5462
  921MOL0     H24294   3.342   3.045   8.528  0.4275 -2.6421 -2.0855
  921MOL0     H24295   3.567   2.975   8.144 -0.0740 -4.0942  2.3638
  921MOL0     H24296   3.448   2.929   7.927  1.8830 -0.1501  0.9605
  921MOL0     H24297   2.917   2.967   7.697 -2.5806 -2.0201  1.6968
  921MOL0     H24298   2.847   2.845   7.487  1.6444  1.2481  0.9633
  921MOL0     H24299   2.639   2.650   7.497 -0.4189  0.3248  0.7050
  921MOL0     H24300   2.724   2.688   7.349  2.8144 -0.5276  0.8080
  921MOL0     H24301   2.561   2.518   7.289 -0.2829  0.0210  0.7242
  921MOL0     H24302   2.729   2.448   7.285  0.2943  1.0466 -0.4970
  921MOL0     H24303   2.674   2.357   7.518  1.0900 -1.1972 -0.2882
  921MOL0     H24304   2.502   2.368   7.464  0.1161 -2.0815 -0.2058
  921MOL0     H24305   2.706   2.223   7.288  0.5490  1.0148 -1.6186
  921MOL0     H24306   2.535   2.244   7.263 -2.1114  1.1369  2.6446
  921MOL0     H24307   2.461   2.077   7.364  1.5431 -1.2558 -0.8809
  921MOL0     H24308   2.550   2.124   7.514 -3.2917  1.8916 -0.2343
  921MOL0     H24309   2.669   2.000   7.263 -2.6639 -1.9452 -1.1631
  921MOL0     H24310   2.738   2.007   7.426 -0.6813 -1.1487  1.0684
  921MOL0     H24311   2.632   1.771   7.356  1.8565  0.3358  0.8606
  921MOL0     H24312   2.478   1.843   7.392  0.7663 -0.6889 -1.6968
  921MOL0     H24313   2.713   1.825   7.583 -0.1763 -0.2901  0.9247
  921MOL0     H24314   2.558   1.898   7.630  0.4511 -1.9764  2.5020
  921MOL0     H24315   2.993   2.491   7.658 -3.0184 -1.4480  3.4193
  921MOL0     H24316   3.077   2.615   7.858 -0.6411 -0.4183 -0.3111
  921MOL0     H24317   3.062   2.945   8.138 -1.1617  0.4207  3.3054
  921MOL0     H24318   3.199   3.020   8.337  0.2112 -0.4304 -0.1426
  921MOL0     H24319   1.977   3.300   8.399  2.0626 -1.8438  0.5161
  921MOL0     H24320   1.768   3.350   8.335  1.1571  0.2931  0.2884
  921MOL0     H24321   1.392   3.336   8.118 -1.9915 -1.0505 -3.1464
  921MOL0     H24322   1.186   3.418   8.056  0.6916 -2.7887 -1.6265
  921MOL0     H24323   0.817   3.332   8.317 -0.9141  0.0557 -0.3335
  921MOL0     H24324   0.759   3.403   8.162  1.9292 -0.1667 -1.7345
  921MOL0     H24325   0.817   3.623   8.216  2.9084 -0.3482 -1.8009
  921MOL0     H24326   0.931   3.576   8.349 -1.8127 -0.3075  1.1189
  921MOL0     H24327   0.759   3.522   8.497  0.0276  1.1447  0.6846
  921MOL0     H24328   0.629   3.545   8.387 -0.5851  0.8404 -0.4379
  921MOL0     H24329   0.831   3.759   8.490 -0.1410  0.3207  1.2482
  921MOL0     H24330   0.693   3.796   8.372 -1.2983 -1.5294 -1.1582
  921MOL0     H24331   0.477   3.800   8.725 -0.1549 -0.9144  0.9251
  921MOL0     H24332   1.006   3.263   8.418  0.5912  0.1186 -0.0988
  921MOL0     H24333   1.127   3.159   8.571  0.3511 -3.3014  1.7816
  921MOL0     H24334   1.248   3.065   8.503 -0.9720 -1.3587  1.8497
  921MOL0     H24335   1.301   3.212   8.598 -0.9233 -1.1717  0.7120
  922MOL0     O24336  11.400   2.477   8.682 -0.0045  0.5111  0.0141
  922MOL0     C24337  11.340   2.414   8.773 -0.3032  0.0510  0.1283
  922MOL0     O24338  11.226   2.460   8.838  0.2016  0.2447  0.0811
  922MOL0     C24339  11.173   2.584   8.791 -0.1704  0.4683  0.7948
  922MOL0     C24340  11.122   2.665   8.888  0.4838  0.6348  0.2012
  922MOL0     C24341  11.053   2.783   8.862 -0.0760  0.0130  0.8523
  922MOL0     C24342  11.044   2.825   8.724  0.7898 -0.7824 -0.1074
  922MOL0     O24343  10.993   2.946   8.688  0.1479 -0.5434  0.2549
  922MOL0     C24344  10.901   3.010   8.778  0.1981 -0.1060  0.5176
  922MOL0     C24345  10.814   3.121   8.707 -1.0728  0.0682 -0.5138
  922MOL0     C24346  10.760   3.226   8.803 -0.1171  0.7760  1.1065
  922MOL0     C24347  10.644   3.179   8.897 -0.3445 -0.3305  0.0919
  922MOL0     C24348  10.594   3.294   8.989 -0.2339  0.6744  0.0890
  922MOL0     C24349  10.514   3.405   8.925 -0.3973  1.0827  0.0613
  922MOL0     C24350  10.369   3.365   8.889  0.0619 -0.0974 -0.3386
  922MOL0     C24351  10.306   3.491   8.814  0.1259 -0.7199  0.0104
  922MOL0     N24352  10.168   3.479   8.765  0.2414  0.5994  0.1232
  922MOL0     C24353  10.058   3.559   8.789  0.2630  0.4345 -0.2904
  922MOL0     C24354   9.957   3.511   8.716 -0.0235 -1.2527  0.3387
  922MOL0     C24355   9.821   3.567   8.719 -0.5182 -1.3411  0.6996
  922MOL0     C24356   9.758   3.516   8.852  0.3077  0.8672 -0.3645
  922MOL0     C24357   9.747   3.362   8.857  0.9520 -0.1596 -0.5077
  922MOL0     C24358   9.643   3.308   8.752  0.0976 -0.8367 -0.0732
  922MOL0     O24359   9.612   3.181   8.807 -0.2003 -0.6882 -0.0994
  922MOL0     C24360   9.657   3.066   8.753  0.6229 -0.5189 -0.0720
  922MOL0     C24361   9.565   2.968   8.751 -0.2010 -0.5850 -0.0774
  922MOL0     C24362   9.589   2.852   8.685 -0.8153  0.3135 -0.7518
  922MOL0     C24363   9.717   2.826   8.625  0.1098 -0.1008  0.8322
  922MOL0     C24364   9.741   2.703   8.546  0.0490 -0.8794 -0.4620
  922MOL0     O24365   9.843   2.705   8.460  0.6069 -0.2943  0.4704
  922MOL0     C24366   9.859   2.586   8.389 -0.0962 -0.1428  0.1097
  922MOL0     C24367   9.916   2.469   8.445  0.3081 -0.3096  0.4940
  922MOL0     C24368   9.919   2.354   8.361 -0.2671  0.3159 -0.8742
  922MOL0     C24369   9.887   2.354   8.225  0.1302  0.5453 -1.0276
  922MOL0     O24370   9.883   2.253   8.138 -0.4232 -0.2433  0.3188
  922MOL0     C24371   9.931   2.118   8.184 -0.7251 -0.8794  1.0754
  922MOL0     C24372   9.824   2.049   8.262  0.1312 -0.0929  0.4261
  922MOL0     C24373   9.874   1.952   8.360 -0.4436 -0.3976  0.5975
  922MOL0     C24374   9.963   1.836   8.304 -0.6592 -0.0819 -0.1442
  922MOL0     C24375  10.021   1.762   8.425  0.1843 -0.5484  0.2627
  922MOL0     C24376   9.913   1.707   8.524 -0.2247  0.1704 -0.5134
  922MOL0     C24377   9.976   1.612   8.626 -0.0658  0.2819 -0.7906
  922MOL0     C24378   9.871   1.586   8.735 -0.4382 -0.1718 -0.2554
  922MOL0    Cl24379   9.749   1.473   8.676  0.0227 -0.4041 -0.4991
  922MOL0     C24380   9.844   2.474   8.175  0.1536 -0.5962  0.3695
  922MOL0     C24381   9.822   2.590   8.251  0.8196 -0.2510 -0.7974
  922MOL0     O24382   9.665   2.605   8.569  0.3702 -0.4819 -0.6086
  922MOL0     C24383   9.819   2.931   8.636 -0.1682 -0.4046  0.4142
  922MOL0     C24384   9.787   3.046   8.708  0.7393  0.0586  0.4376
  922MOL0     N24385  10.008   3.399   8.646  0.1624 -0.4948  0.5762
  922MOL0     N24386  10.125   3.375   8.683 -0.5295 -0.0668  0.0385
  922MOL0     C24387  11.088   2.738   8.628  0.6693 -0.4490 -0.0919
  922MOL0     C24388  11.138   2.615   8.655  0.6507  0.1908 -0.5781
  922MOL0     C24389  11.395   2.292   8.832  0.4618 -0.8416  0.4075
  922MOL0     C24390  11.331   2.241   8.943 -0.2098 -0.3736 -0.1393
  922MOL0     C24391  11.375   2.124   9.008  0.0006 -0.0368 -0.0387
  922MOL0     C24392  11.491   2.056   8.963 -0.4396  0.4759 -0.5822
  922MOL0     O24393  11.539   1.946   9.035  1.3716  0.6413 -1.0539
  922MOL0     C24394  11.668   1.901   9.013 -0.8999  0.8238 -1.1783
  922MOL0     C24395  11.711   1.782   9.115  0.2129 -0.0360  0.4459
  922MOL0     C24396  11.870   1.773   9.115  0.4613 -0.1832 -0.4245
  922MOL0     C24397  11.912   1.650   9.197  1.0538 -0.4114 -1.3278
  922MOL0     C24398  12.040   1.673   9.272 -0.4371  1.0103  0.2218
  922MOL0     C24399  12.138   1.693   9.350 -0.0666 -0.3525 -0.3443
  922MOL0     C24400  11.556   2.106   8.843  0.4176 -1.6342  0.6124
  922MOL0     C24401  11.504   2.216   8.781  0.9331  0.3960  0.9319
  922MOL0     C24402  11.584   2.262   8.665  0.2379 -0.5976  0.3640
  922MOL0     H24403  11.136   2.636   8.992 -1.7183 -2.3284 -0.2011
  922MOL0     H24404  11.015   2.848   8.941  2.0798  2.9074 -0.3014
  922MOL0     H24405  10.841   2.930   8.822 -0.3758 -0.2619 -0.5145
  922MOL0     H24406  10.960   3.044   8.864 -0.6174 -0.0501  1.0679
  922MOL0     H24407  10.725   3.071   8.666 -1.9286  1.3862 -0.2909
  922MOL0     H24408  10.877   3.170   8.631  1.7908 -0.6048  1.2714
  922MOL0     H24409  10.728   3.308   8.738 -0.4728 -1.9203 -2.4034
  922MOL0     H24410  10.850   3.260   8.856  0.3668  2.0233 -0.4507
  922MOL0     H24411  10.565   3.150   8.827 -0.7997  0.2538  0.3472
  922MOL0     H24412  10.675   3.097   8.962  0.7966  1.9419  2.6131
  922MOL0     H24413  10.538   3.245   9.070 -0.7080 -0.6398 -0.9798
  922MOL0     H24414  10.681   3.349   9.023 -1.1416  1.7556  0.7205
  922MOL0     H24415  10.498   3.492   8.990  2.1070  1.5604  0.1337
  922MOL0     H24416  10.567   3.435   8.834 -0.0970  1.2432  0.2893
  922MOL0     H24417  10.309   3.322   8.969  1.1155  0.2092  0.6380
  922MOL0     H24418  10.385   3.298   8.804  3.9785 -0.9554  0.8466
  922MOL0     H24419  10.311   3.576   8.883 -2.3421 -0.6827  0.2243
  922MOL0     H24420  10.354   3.514   8.718 -4.5033 -1.1760 -2.6898
  922MOL0     H24421  10.064   3.649   8.851  1.5343 -0.7224  1.3813
  922MOL0     H24422   9.831   3.676   8.715 -1.9379 -1.2268 -0.1868
  922MOL0     H24423   9.755   3.535   8.638  0.4805 -1.4432 -0.0903
  922MOL0     H24424   9.811   3.551   8.941  0.2705 -0.4502  0.2045
  922MOL0     H24425   9.656   3.551   8.870  0.3687  1.9914 -1.9980
  922MOL0     H24426   9.712   3.331   8.956  0.8761  2.5466  0.3774
  922MOL0     H24427   9.841   3.311   8.833  1.4860  0.7945 -0.4876
  922MOL0     H24428   9.690   3.306   8.654  2.0609 -1.8080  0.8336
  922MOL0     H24429   9.556   3.375   8.751  1.3564  0.8642  0.0714
  922MOL0     H24430   9.471   2.993   8.801 -0.4195 -4.3694  1.7145
  922MOL0     H24431   9.517   2.771   8.694 -1.0058  0.6995  2.6073
  922MOL0     H24432   9.937   2.461   8.552  0.9433 -0.5950  0.3540
  922MOL0     H24433   9.950   2.260   8.404 -2.4644 -0.9653 -1.9340
  922MOL0     H24434   9.943   2.064   8.089 -0.2381 -1.8820  1.6853
  922MOL0     H24435  10.032   2.113   8.227 -0.6274 -0.7709  0.8643
  922MOL0     H24436   9.766   2.120   8.321 -0.6635 -1.3596  1.2338
  922MOL0     H24437   9.758   1.997   8.190  0.0365 -1.0840  1.2043
  922MOL0     H24438   9.935   2.008   8.431  1.4856 -0.3616 -0.9771
  922MOL0     H24439   9.788   1.907   8.409  0.2674 -4.0323 -1.1313
  922MOL0     H24440  10.046   1.871   8.242 -0.0607  1.3168  1.3554
  922MOL0     H24441   9.896   1.779   8.238  0.0095  1.4258 -2.2450
  922MOL0     H24442  10.100   1.820   8.475  2.1538 -2.3977 -0.5348
  922MOL0     H24443  10.058   1.667   8.388 -1.9620 -1.6617  0.8030
  922MOL0     H24444   9.861   1.789   8.574 -1.8693 -0.5793 -0.9296
  922MOL0     H24445   9.847   1.642   8.465  0.7852 -2.0689  0.6762
  922MOL0     H24446  10.064   1.660   8.670 -1.2440  0.8035  1.1421
  922MOL0     H24447  10.005   1.511   8.593 -0.7942 -0.3633  0.4416
  922MOL0     H24448   9.913   1.541   8.825 -0.4186  1.5277  0.6140
  922MOL0     H24449   9.832   1.679   8.776  0.3503 -0.3574  0.9512
  922MOL0     H24450   9.817   2.495   8.073  0.7820  0.7951  0.4614
  922MOL0     H24451   9.774   2.674   8.202 -3.2264  0.4227  3.5752
  922MOL0     H24452   9.922   2.916   8.605  0.6390  1.2793  2.0981
  922MOL0     H24453   9.865   3.121   8.717  1.6242 -0.5762 -1.3879
  922MOL0     H24454  11.085   2.779   8.527  1.7251 -0.9125 -0.3285
  922MOL0     H24455  11.160   2.562   8.563  0.9942 -2.9241  1.1632
  922MOL0     H24456  11.238   2.271   8.991  1.5580 -0.2116  3.4659
  922MOL0     H24457  11.328   2.067   9.088  0.2397 -0.8236 -0.4445
  922MOL0     H24458  11.722   1.992   9.042 -0.3006 -0.5424  2.4650
  922MOL0     H24459  11.681   1.879   8.907 -0.8254  2.5270 -1.5560
  922MOL0     H24460  11.681   1.686   9.072  0.4631 -0.3279  0.9162
  922MOL0     H24461  11.669   1.803   9.214 -3.1575 -1.0797 -0.6535
  922MOL0     H24462  11.920   1.865   9.148  3.2177 -2.3457  1.9624
  922MOL0     H24463  11.899   1.748   9.013 -0.4144 -0.3357 -0.6447
  922MOL0     H24464  11.832   1.644   9.271  1.7172 -1.2820 -0.6496
  922MOL0     H24465  11.907   1.557   9.139 -3.3159  0.4064 -2.5945
  922MOL0     H24466  12.228   1.702   9.407  0.0502  3.3279 -0.8695
  922MOL0     H24467  11.626   2.039   8.795  1.0408 -1.9249  1.8852
  922MOL0     H24468  11.661   2.188   8.640 -0.6995 -0.5906 -3.1590
  922MOL0     H24469  11.526   2.274   8.573  1.3119 -2.9916 -0.7408
  922MOL0     H24470  11.638   2.355   8.680 -0.3015 -0.3596  0.8899
  923MOL0     O24471   3.550   7.659   0.732  0.0640  0.0846  0.0105
  923MOL0     C24472   3.517   7.759   0.660 -0.7865  0.4528 -0.4628
  923MOL0     O24473   3.524   7.758   0.527  0.1046  0.9775 -0.0251
  923MOL0     C24474   3.586   7.655   0.465 -0.1577  0.3007 -0.2346
  923MOL0     C24475   3.515   7.544   0.410  0.1446 -0.5204  0.8915
  923MOL0     C24476   3.584   7.451   0.327  0.8707  0.2003  0.4308
  923MOL0     C24477   3.719   7.480   0.295 -0.0327 -0.1073  0.1406
  923MOL0     O24478   3.790   7.381   0.213 -0.6408 -0.4483 -0.8241
  923MOL0     C24479   3.851   7.434   0.084  0.2955 -0.1616 -0.8094
  923MOL0     C24480   3.973   7.355   0.056 -0.3139 -0.7222  0.0407
  923MOL0     C24481   3.975   7.202   0.048  0.2757  0.3159  0.3591
  923MOL0     C24482   3.977   7.137  -0.090 -0.0172  0.2075  0.1050
  923MOL0     C24483   4.038   6.997  -0.104  0.3267 -0.1249  0.3367
  923MOL0     C24484   4.028   6.952  -0.260 -0.7430  0.3435 -0.9335
  923MOL0     C24485   3.878   6.920  -0.301  1.3851  0.2490 -0.2153
  923MOL0     C24486   3.867   6.854  -0.438  0.6624 -0.9145  0.0672
  923MOL0     N24487   3.740   6.886  -0.495  0.7738  0.0550  0.4089
  923MOL0     C24488   3.697   6.805  -0.591  1.1196  0.7730  0.6550
  923MOL0     C24489   3.583   6.863  -0.641  0.4804  0.7468 -0.0597
  923MOL0     C24490   3.500   6.793  -0.746 -0.2401 -0.4786  0.0613
  923MOL0     C24491   3.367   6.745  -0.682 -0.2855  0.0079 -0.4856
  923MOL0     C24492   3.305   6.624  -0.749  0.0819  0.9552 -0.8841
  923MOL0     C24493   3.294   6.651  -0.899 -0.6238 -0.0623 -0.9661
  923MOL0     O24494   3.197   6.546  -0.937 -0.0510 -0.3457 -0.7870
  923MOL0     C24495   3.156   6.565  -1.063  1.1037  0.1968 -0.0059
  923MOL0     C24496   3.087   6.679  -1.102  0.4939  0.6314  0.4527
  923MOL0     C24497   3.035   6.672  -1.229  0.0651 -0.7884 -0.4944
  923MOL0     C24498   3.047   6.570  -1.318  1.0913  0.8853 -0.1851
  923MOL0     C24499   2.984   6.574  -1.449  0.2751 -0.8525 -0.1903
  923MOL0     O24500   2.991   6.465  -1.533 -0.1185  0.0431 -0.5210
  923MOL0     C24501   2.960   6.489  -1.661  0.7103 -1.0201  0.9281
  923MOL0     C24502   2.999   6.594  -1.740 -0.3340 -1.2454 -0.4141
  923MOL0     C24503   2.960   6.617  -1.874 -0.5165  0.7558 -0.0811
  923MOL0     C24504   2.883   6.520  -1.929  0.0915  0.9873  0.0684
  923MOL0     O24505   2.859   6.519  -2.067  0.0984 -0.0201 -0.5085
  923MOL0     C24506   2.951   6.448  -2.146 -0.3123  0.4587  0.6542
  923MOL0     C24507   2.953   6.293  -2.134  0.5299  0.3257 -0.6096
  923MOL0     C24508   2.833   6.225  -2.201  0.4500  0.3896 -0.1943
  923MOL0     C24509   2.802   6.077  -2.157  0.0356 -0.5388 -0.4622
  923MOL0     C24510   2.674   6.020  -2.217 -1.0185 -0.1877 -0.5358
  923MOL0     C24511   2.625   5.875  -2.172  0.0619  0.1541  0.0558
  923MOL0     C24512   2.512   5.824  -2.262 -0.3986  0.5953  0.1662
  923MOL0     C24513   2.567   5.783  -2.395 -1.0485  0.2028  0.1108
  923MOL0    Cl24514   2.431   5.749  -2.488  0.4684  0.5703  0.2966
  923MOL0     C24515   2.820   6.423  -1.846 -0.5040 -0.3945  0.3940
  923MOL0     C24516   2.865   6.399  -1.716 -0.6884  0.2045  0.2321
  923MOL0     O24517   2.923   6.679  -1.471 -0.6558  0.6529 -0.4328
  923MOL0     C24518   3.108   6.453  -1.272  1.2259 -0.2386 -0.2422
  923MOL0     C24519   3.172   6.455  -1.146  0.1841 -0.0770 -0.3836
  923MOL0     N24520   3.564   6.987  -0.576 -0.7280  0.6362  0.3835
  923MOL0     N24521   3.662   7.000  -0.490 -0.4260 -0.4270  0.1052
  923MOL0     C24522   3.780   7.601   0.335 -0.5576 -0.2617  0.3349
  923MOL0     C24523   3.717   7.677   0.426 -1.0887 -0.0543  0.6893
  923MOL0     C24524   3.440   7.866   0.726 -0.0999 -0.4617  0.2830
  923MOL0     C24525   3.469   7.885   0.866  0.1959  0.5441  0.1299
  923MOL0     C24526   3.374   7.954   0.941  0.8592 -0.6776  0.4285
  923MOL0     C24527   3.256   8.016   0.885  0.0964 -0.4785  0.6054
  923MOL0     O24528   3.157   8.070   0.964  0.5342 -1.1992 -0.3066
  923MOL0     C24529   3.176   8.155   1.071 -0.0034  0.5551  0.7686
  923MOL0     C24530   3.034   8.189   1.132  1.1712 -0.2376 -0.0881
  923MOL0     C24531   3.024   8.327   1.214 -0.1891  0.0703  0.5730
  923MOL0     C24532   3.043   8.440   1.112  0.1377  0.7226 -0.3476
  923MOL0     C24533   2.919   8.472   1.045  0.4659 -0.7270  0.0926
  923MOL0     C24534   2.814   8.507   0.990 -0.9121  0.0045  1.5591
  923MOL0     C24535   3.258   8.006   0.743  0.5697 -0.1642  0.0336
  923MOL0     C24536   3.342   7.945   0.657  0.3592  0.4803 -0.2681
  923MOL0     C24537   3.324   7.962   0.504  0.7952 -0.8041 -0.5170
  923MOL0     H24538   3.411   7.544   0.441  0.0735  0.9964  0.7002
  923MOL0     H24539   3.531   7.363   0.290  3.3854 -1.1978 -0.1546
  923MOL0     H24540   3.773   7.420   0.008 -0.0826  1.9334 -0.8756
  923MOL0     H24541   3.875   7.541   0.090 -1.9968  0.3580  1.0769
  923MOL0     H24542   4.051   7.387   0.126 -0.1565  2.6154 -1.4889
  923MOL0     H24543   4.012   7.386  -0.041 -0.4938 -0.7841 -0.0513
  923MOL0     H24544   3.882   7.172   0.097  1.5696 -2.7350  1.1671
  923MOL0     H24545   4.062   7.168   0.106  0.2250  1.0986  0.9113
  923MOL0     H24546   3.874   7.137  -0.127  0.5562 -0.7487 -1.6373
  923MOL0     H24547   4.034   7.200  -0.159 -0.6698  0.6442 -0.0377
  923MOL0     H24548   4.142   6.980  -0.075  0.5172 -6.1442 -2.4305
  923MOL0     H24549   3.990   6.929  -0.034  3.2518 -2.4633  0.2625
  923MOL0     H24550   4.067   7.033  -0.323 -0.4554  2.5805  1.9222
  923MOL0     H24551   4.089   6.862  -0.273  1.9741  1.2836  3.3749
  923MOL0     H24552   3.837   7.020  -0.319 -0.4944 -0.4699 -0.1734
  923MOL0     H24553   3.810   6.865  -0.235  3.7716 -0.9870  1.3531
  923MOL0     H24554   3.941   6.893  -0.509 -0.5128 -1.9641 -1.8314
  923MOL0     H24555   3.876   6.745  -0.431 -0.3826 -0.9555  1.1755
  923MOL0     H24556   3.755   6.718  -0.620  3.7691  1.8547  2.3032
  923MOL0     H24557   3.472   6.868  -0.820  2.1720  1.9228  1.4079
  923MOL0     H24558   3.559   6.719  -0.801 -0.4058  0.9299 -2.1248
  923MOL0     H24559   3.385   6.734  -0.575 -2.4750  3.5493  0.4137
  923MOL0     H24560   3.293   6.825  -0.682 -1.5681 -1.0682 -3.1871
  923MOL0     H24561   3.209   6.601  -0.702  1.0816  1.4084  1.5711
  923MOL0     H24562   3.366   6.534  -0.735  0.1886  0.5348 -3.6253
  923MOL0     H24563   3.383   6.627  -0.958 -1.3242 -2.2026 -1.2463
  923MOL0     H24564   3.259   6.752  -0.922 -0.9012 -0.0313 -0.4253
  923MOL0     H24565   3.070   6.765  -1.037 -0.2248 -0.6179  1.9895
  923MOL0     H24566   2.982   6.764  -1.251  3.3107  1.1478 -0.8804
  923MOL0     H24567   3.063   6.671  -1.698 -1.1520 -0.1630 -1.0807
  923MOL0     H24568   2.992   6.696  -1.941  1.2394 -0.0122 -0.1931
  923MOL0     H24569   2.934   6.469  -2.252  3.5508 -0.9868 -0.4458
  923MOL0     H24570   3.053   6.482  -2.127 -1.1727  2.5029  1.8675
  923MOL0     H24571   3.049   6.246  -2.156 -0.5844 -3.0409  1.1177
  923MOL0     H24572   2.935   6.263  -2.031  1.1385 -1.0277 -0.8734
  923MOL0     H24573   2.745   6.289  -2.194  0.5218  0.5886 -0.9625
  923MOL0     H24574   2.856   6.227  -2.308 -0.8364 -1.2067 -0.5486
  923MOL0     H24575   2.804   6.090  -2.049  2.4243  0.8554 -0.6233
  923MOL0     H24576   2.886   6.009  -2.175 -0.8582 -3.2110  3.9733
  923MOL0     H24577   2.674   6.034  -2.325  1.3270 -1.6417 -0.7785
  923MOL0     H24578   2.591   6.087  -2.193  0.3886  1.6442 -0.5431
  923MOL0     H24579   2.714   5.813  -2.188  0.2934  0.9440 -2.0627
  923MOL0     H24580   2.593   5.880  -2.067 -1.6466  0.2899 -0.4495
  923MOL0     H24581   2.435   5.902  -2.269 -1.0177  0.0016  0.2529
  923MOL0     H24582   2.462   5.734  -2.226 -0.5276 -0.1752 -1.8335
  923MOL0     H24583   2.626   5.857  -2.450 -2.5829  1.6870  0.3758
  923MOL0     H24584   2.627   5.695  -2.367  1.1921  1.9156  1.0509
  923MOL0     H24585   2.742   6.367  -1.899  2.0634 -2.0813 -1.8668
  923MOL0     H24586   2.839   6.316  -1.651  2.1084  0.8257  2.3307
  923MOL0     H24587   3.131   6.373  -1.341 -0.1918 -1.1992  0.3470
  923MOL0     H24588   3.231   6.371  -1.109 -2.0494 -0.2574  3.2412
  923MOL0     H24589   3.879   7.632   0.302 -1.4541  1.6015 -0.8082
  923MOL0     H24590   3.755   7.776   0.451 -1.4640 -0.0839  1.4113
  923MOL0     H24591   3.553   7.838   0.915  1.4848  3.3447  0.7581
  923MOL0     H24592   3.395   7.957   1.047  2.8784  1.3752  0.0448
  923MOL0     H24593   3.232   8.246   1.046 -1.6224  0.9320 -1.8316
  923MOL0     H24594   3.233   8.093   1.141 -0.5011 -4.2666 -2.6558
  923MOL0     H24595   2.991   8.101   1.180 -0.0364 -1.2698 -2.8831
  923MOL0     H24596   2.975   8.194   1.040  0.6949 -3.3220 -0.0343
  923MOL0     H24597   3.110   8.328   1.281  0.5440  0.4427 -0.3556
  923MOL0     H24598   2.933   8.334   1.275  1.0952 -0.5833  2.6547
  923MOL0     H24599   3.079   8.531   1.161 -0.4344  2.8988 -3.5963
  923MOL0     H24600   3.125   8.418   1.043 -1.0730 -1.7078 -1.0954
  923MOL0     H24601   2.726   8.529   0.934 -1.6007 -1.5708  1.9575
  923MOL0     H24602   3.159   8.041   0.717 -1.3908 -1.3399  4.9547
  923MOL0     H24603   3.267   7.879   0.464 -0.5158 -0.1144 -0.1300
  923MOL0     H24604   3.259   8.050   0.493  0.5876 -0.7539  0.8995
  923MOL0     H24605   3.414   7.970   0.442 -0.8693 -0.7660 -3.0630
  924MOL0     O24606   5.935   8.632   7.497  0.0162  0.5396  0.0498
  924MOL0     C24607   6.013   8.683   7.421 -1.8320 -0.5894  0.0949
  924MOL0     O24608   5.986   8.808   7.379 -0.6656  0.0297  0.2239
  924MOL0     C24609   5.865   8.860   7.382  0.3731  0.2479  0.1358
  924MOL0     C24610   5.857   8.997   7.414 -0.1399 -0.0236 -0.3516
  924MOL0     C24611   5.730   9.056   7.419 -0.0537 -0.7818 -0.3519
  924MOL0     C24612   5.613   8.989   7.406 -0.6812 -0.6847  0.4749
  924MOL0     O24613   5.505   9.073   7.410  0.1809  0.1314  0.0849
  924MOL0     C24614   5.379   8.998   7.421  0.0989  0.2151 -0.3505
  924MOL0     C24615   5.266   9.099   7.452 -0.1504  0.2834  0.2040
  924MOL0     C24616   5.138   9.008   7.463  0.0173 -0.3319 -0.4598
  924MOL0     C24617   5.007   9.084   7.473  0.1871  0.5448 -0.2858
  924MOL0     C24618   4.882   8.999   7.476  0.4720  0.5056  0.3535
  924MOL0     C24619   4.752   9.077   7.452  0.0628  0.6645 -0.4126
  924MOL0     C24620   4.637   8.978   7.429 -0.8962 -0.0041 -0.1166
  924MOL0     C24621   4.509   9.041   7.480  0.3937  0.0437 -1.1275
  924MOL0     N24622   4.499   9.077   7.627  0.7659 -0.2689  0.2067
  924MOL0     C24623   4.475   8.982   7.734 -0.6547  0.0012  1.1446
  924MOL0     C24624   4.434   9.058   7.839 -0.5927  0.3529 -0.4737
  924MOL0     C24625   4.409   9.008   7.976 -0.5244  0.2212 -0.5458
  924MOL0     C24626   4.495   8.903   8.021 -0.5852  0.0522  0.1094
  924MOL0     C24627   4.462   8.870   8.168 -0.1584 -0.4279  0.2074
  924MOL0     C24628   4.522   8.741   8.211  0.0603 -0.0952 -0.6100
  924MOL0     O24629   4.523   8.721   8.357 -1.0711  0.2528 -0.0125
  924MOL0     C24630   4.601   8.620   8.409 -0.3834 -0.2032  0.8071
  924MOL0     C24631   4.684   8.536   8.338 -0.4483 -0.6274 -0.0757
  924MOL0     C24632   4.762   8.434   8.398 -0.2070  1.1066 -0.3408
  924MOL0     C24633   4.748   8.413   8.537  0.8453  0.8840  0.5975
  924MOL0     C24634   4.848   8.325   8.598  0.5283  0.3433 -0.4786
  924MOL0     O24635   4.876   8.346   8.737  0.3514 -0.1620  0.3320
  924MOL0     C24636   4.961   8.248   8.783 -0.5222  0.0817 -0.9723
  924MOL0     C24637   4.920   8.141   8.856 -0.1312  0.3431  0.0219
  924MOL0     C24638   5.015   8.059   8.910  0.6330  0.1793  0.3730
  924MOL0     C24639   5.153   8.073   8.892 -0.1959  0.2926  0.7425
  924MOL0     O24640   5.243   7.995   8.952 -0.1288 -0.1841 -0.1291
  924MOL0     C24641   5.333   7.914   8.870 -0.8087  0.6357 -0.0495
  924MOL0     C24642   5.476   7.911   8.939 -0.4900  1.2083 -0.4996
  924MOL0     C24643   5.576   7.826   8.854 -1.4784 -0.5293 -0.3005
  924MOL0     C24644   5.579   7.677   8.898  0.3973 -0.8406  0.2863
  924MOL0     C24645   5.627   7.591   8.776 -0.4318  1.2966  0.2340
  924MOL0     C24646   5.766   7.612   8.727 -0.3834 -0.5917  0.2378
  924MOL0     C24647   5.866   7.534   8.808  0.1445  1.0341 -0.4037
  924MOL0     C24648   5.878   7.383   8.761 -0.4352  1.0703  0.5297
  924MOL0    Cl24649   6.026   7.300   8.824 -0.3048  0.1649  0.1231
  924MOL0     C24650   5.194   8.190   8.809 -0.2824  0.2490 -0.9003
  924MOL0     C24651   5.097   8.273   8.765 -0.5210 -0.9400  0.2206
  924MOL0     O24652   4.899   8.239   8.532 -0.1160  0.5999 -0.2525
  924MOL0     C24653   4.668   8.499   8.617 -0.0893 -0.9321  0.3148
  924MOL0     C24654   4.593   8.606   8.556  0.7277  1.7465  1.0043
  924MOL0     N24655   4.436   9.195   7.795 -0.1739 -0.0098  0.0958
  924MOL0     N24656   4.471   9.200   7.668  0.3080 -0.1089 -0.4811
  924MOL0     C24657   5.620   8.854   7.377  0.7463  0.8925 -0.1524
  924MOL0     C24658   5.745   8.788   7.372 -0.3638  0.5554  0.2239
  924MOL0     C24659   6.145   8.630   7.410 -0.4126  0.1266 -0.5639
  924MOL0     C24660   6.249   8.718   7.373  0.0788  0.0399  0.6893
  924MOL0     C24661   6.388   8.683   7.359 -0.2244  0.2337  0.3342
  924MOL0     C24662   6.413   8.551   7.390 -0.2812 -0.0998 -0.6880
  924MOL0     O24663   6.543   8.514   7.383  0.0296  0.2398 -0.2159
  924MOL0     C24664   6.619   8.582   7.478  0.1697 -0.2372 -0.5040
  924MOL0     C24665   6.743   8.500   7.526 -0.0808 -0.3631  0.0906
  924MOL0     C24666   6.704   8.371   7.605  0.2018 -0.4141 -0.5551
  924MOL0     C24667   6.833   8.297   7.655 -0.2087 -0.6191  0.4971
  924MOL0     C24668   6.793   8.172   7.707 -0.9066  0.7590  0.0428
  924MOL0     C24669   6.764   8.066   7.744  0.8038 -0.5173 -0.1844
  924MOL0     C24670   6.317   8.457   7.419 -0.5883  0.4275 -0.0640
  924MOL0     C24671   6.188   8.499   7.421  0.3013  1.2486  0.4852
  924MOL0     C24672   6.085   8.391   7.422  0.1410  0.8381 -0.0601
  924MOL0     H24673   5.945   9.061   7.419 -0.0976  0.0624 -1.6802
  924MOL0     H24674   5.733   9.162   7.441  2.2665 -0.1254 -3.2426
  924MOL0     H24675   5.346   8.941   7.334  1.7018 -2.5792  0.7340
  924MOL0     H24676   5.391   8.925   7.501 -0.7073  1.3239  0.8222
  924MOL0     H24677   5.265   9.157   7.360 -1.3110 -2.4020 -1.6276
  924MOL0     H24678   5.281   9.166   7.537  0.8697 -2.1771  2.1201
  924MOL0     H24679   5.149   8.953   7.557  1.6954  1.4911  0.4744
  924MOL0     H24680   5.128   8.933   7.384 -1.7787 -1.4260  0.7503
  924MOL0     H24681   5.014   9.147   7.562  1.9443  0.5260 -0.3802
  924MOL0     H24682   5.004   9.142   7.380 -1.4163  0.0981 -0.5481
  924MOL0     H24683   4.891   8.920   7.401 -1.2530 -3.3776  3.8453
  924MOL0     H24684   4.874   8.943   7.570 -0.5928 -1.7676 -1.0173
  924MOL0     H24685   4.726   9.126   7.547 -5.5750 -1.5370 -0.3931
  924MOL0     H24686   4.779   9.150   7.375  1.4471  1.0831  0.4494
  924MOL0     H24687   4.643   8.875   7.465 -1.9072 -0.5769 -1.4613
  924MOL0     H24688   4.633   8.959   7.321 -0.4096 -0.2466 -0.0936
  924MOL0     H24689   4.491   9.132   7.421 -1.1837  1.5365  1.4742
  924MOL0     H24690   4.428   8.977   7.442 -1.2011  0.6949  1.0019
  924MOL0     H24691   4.493   8.875   7.740  0.9105  0.2890  2.1600
  924MOL0     H24692   4.403   9.091   8.047 -0.2944  1.9689 -2.4652
  924MOL0     H24693   4.311   8.964   7.955 -0.3802 -0.3458 -0.0628
  924MOL0     H24694   4.464   8.819   7.959  0.4857 -0.6194  0.4624
  924MOL0     H24695   4.602   8.925   8.016 -0.6392  0.0914 -1.2988
  924MOL0     H24696   4.354   8.869   8.189 -0.8063 -2.2048 -2.6966
  924MOL0     H24697   4.490   8.946   8.241 -2.5199 -0.6554  1.4704
  924MOL0     H24698   4.625   8.751   8.176 -0.9800 -0.3781 -4.0382
  924MOL0     H24699   4.464   8.663   8.161 -3.3537  2.0274 -0.2830
  924MOL0     H24700   4.679   8.539   8.230 -0.5412 -0.0043 -0.0578
  924MOL0     H24701   4.821   8.366   8.337  0.3179 -0.5313  1.8621
  924MOL0     H24702   4.816   8.122   8.879  0.5036 -3.1443  0.5725
  924MOL0     H24703   4.976   7.971   8.960  0.7445  0.4118  0.8716
  924MOL0     H24704   5.300   7.811   8.854  1.4171 -0.1491  0.0053
  924MOL0     H24705   5.362   7.960   8.775 -1.7648  1.6439  0.1234
  924MOL0     H24706   5.511   8.014   8.946  0.5624  0.7952  0.6657
  924MOL0     H24707   5.479   7.876   9.042  2.8838 -0.3144 -0.9840
  924MOL0     H24708   5.559   7.831   8.746 -0.7937 -0.1106 -0.3957
  924MOL0     H24709   5.677   7.868   8.864 -0.5359 -2.0808 -2.3820
  924MOL0     H24710   5.480   7.634   8.912 -0.4913 -0.3265 -3.3393
  924MOL0     H24711   5.650   7.667   8.980  0.0535  1.9316  1.0354
  924MOL0     H24712   5.557   7.600   8.692  0.5618 -1.5434 -1.0314
  924MOL0     H24713   5.622   7.484   8.798  1.8774  0.8985 -0.9026
  924MOL0     H24714   5.776   7.574   8.625  3.8337 -1.8592  0.9361
  924MOL0     H24715   5.789   7.718   8.743 -0.2425 -0.6201  0.2237
  924MOL0     H24716   5.851   7.546   8.915 -1.3450  4.7021 -0.8572
  924MOL0     H24717   5.967   7.562   8.775  1.8184 -5.4343 -2.1648
  924MOL0     H24718   5.790   7.326   8.793 -1.2310  1.7957 -0.3090
  924MOL0     H24719   5.867   7.374   8.653 -0.2975 -1.8827  0.6851
  924MOL0     H24720   5.298   8.210   8.785 -0.4139  4.4179  1.0173
  924MOL0     H24721   5.121   8.354   8.697 -1.5897  0.6307  1.6455
  924MOL0     H24722   4.648   8.487   8.723 -0.8053  0.3150  0.3495
  924MOL0     H24723   4.541   8.676   8.620  1.7583  0.4733  3.3415
  924MOL0     H24724   5.528   8.800   7.358  1.3775 -0.9459  1.6582
  924MOL0     H24725   5.744   8.681   7.354 -3.5087  0.4207  0.6404
  924MOL0     H24726   6.218   8.820   7.354  0.4736 -0.2275 -1.7907
  924MOL0     H24727   6.468   8.745   7.317 -2.7722  0.7255 -4.4893
  924MOL0     H24728   6.560   8.602   7.568  2.2052 -1.7147  1.2736
  924MOL0     H24729   6.636   8.685   7.446 -3.7463  0.7239 -0.0164
  924MOL0     H24730   6.809   8.567   7.581 -2.5101  0.5732  2.0982
  924MOL0     H24731   6.798   8.463   7.439 -0.5480 -2.9381  0.8000
  924MOL0     H24732   6.651   8.296   7.545  1.5827 -1.5328 -0.4444
  924MOL0     H24733   6.656   8.394   7.700  1.5206 -1.3892  0.3861
  924MOL0     H24734   6.913   8.287   7.581  0.6138  0.8428  1.1547
  924MOL0     H24735   6.869   8.362   7.736  0.3874 -0.5028  0.1421
  924MOL0     H24736   6.729   7.966   7.757 -0.3404  0.0358  1.3590
  924MOL0     H24737   6.346   8.355   7.441 -1.9179  0.9058  5.2429
  924MOL0     H24738   6.018   8.394   7.509 -0.8029 -2.5810 -0.4886
  924MOL0     H24739   6.015   8.398   7.338  2.9031  0.6658 -2.5338
  924MOL0     H24740   6.123   8.288   7.420 -0.1092  0.6361 -4.3164
  925MOL0     O24741   8.631  10.158   3.461  0.0397  0.3372 -0.4042
  925MOL0     C24742   8.710  10.255   3.452 -0.3599  0.3201 -0.5280
  925MOL0     O24743   8.723  10.332   3.340  0.1693 -0.3652 -0.1916
  925MOL0     C24744   8.628  10.315   3.248  0.3857 -0.6382 -0.9616
  925MOL0     C24745   8.492  10.349   3.257 -0.5463  1.1997  0.0990
  925MOL0     C24746   8.405  10.326   3.151  0.6161  0.4638 -0.0464
  925MOL0     C24747   8.455  10.266   3.032  0.1460 -0.2459  0.1748
  925MOL0     O24748   8.381  10.236   2.921  0.5562 -0.1065 -0.1915
  925MOL0     C24749   8.245  10.285   2.911 -0.3065 -0.7478 -0.2822
  925MOL0     C24750   8.180  10.271   2.775  0.3892 -0.1455 -0.6593
  925MOL0     C24751   8.180  10.403   2.694  1.2938  0.2820  0.1124
  925MOL0     C24752   8.314  10.447   2.636 -0.4523  0.3759 -0.3505
  925MOL0     C24753   8.287  10.566   2.537  0.2164 -1.0994 -0.9200
  925MOL0     C24754   8.392  10.595   2.437 -0.3535 -0.0431  0.7298
  925MOL0     C24755   8.371  10.733   2.361 -0.2904 -0.2291 -0.3508
  925MOL0     C24756   8.466  10.780   2.249 -0.7808 -0.3087 -0.1556
  925MOL0     N24757   8.403  10.898   2.192  0.4723  0.3644  0.4746
  925MOL0     C24758   8.386  11.016   2.254 -0.3687  0.1226  0.3301
  925MOL0     C24759   8.296  11.076   2.179  0.3998  1.4299  0.0348
  925MOL0     C24760   8.251  11.209   2.205  0.3793 -0.7617  0.5265
  925MOL0     C24761   8.145  11.264   2.122 -0.0429 -0.0056  0.2307
  925MOL0     C24762   8.167  11.288   1.974  0.3444  0.2415  1.1170
  925MOL0     C24763   8.050  11.351   1.890  0.2305  0.5214  0.4813
  925MOL0     O24764   8.110  11.430   1.785 -0.0385 -1.2292 -0.6208
  925MOL0     C24765   8.187  11.395   1.678 -0.0059  0.0856  0.0513
  925MOL0     C24766   8.245  11.502   1.609 -0.2400 -0.3202  0.6471
  925MOL0     C24767   8.321  11.489   1.490 -0.3883 -0.4797 -0.0559
  925MOL0     C24768   8.350  11.357   1.446 -0.6771 -0.1916  0.4583
  925MOL0     C24769   8.422  11.322   1.322  0.6756 -0.2829  0.1903
  925MOL0     O24770   8.400  11.192   1.273 -0.2786 -0.3828  0.1253
  925MOL0     C24771   8.460  11.138   1.161  0.3831  0.4957  0.0095
  925MOL0     C24772   8.444  11.003   1.152  0.4713 -0.8044 -0.5109
  925MOL0     C24773   8.486  10.928   1.048 -0.8897  0.3184 -0.2348
  925MOL0     C24774   8.566  10.980   0.952 -0.2076 -0.5611 -0.3249
  925MOL0     O24775   8.617  10.907   0.846 -0.1560  0.6418  0.1370
  925MOL0     C24776   8.767  10.878   0.850  0.6417 -0.7871 -0.4708
  925MOL0     C24777   8.800  10.775   0.746  0.0856  0.7795  0.2910
  925MOL0     C24778   8.787  10.826   0.593  0.7231 -0.2763 -0.3857
  925MOL0     C24779   8.920  10.862   0.527 -0.5675 -0.2371  0.0927
  925MOL0     C24780   8.952  10.746   0.425 -0.1947  0.1445  0.7329
  925MOL0     C24781   9.023  10.777   0.293 -0.4371  1.0052  0.5322
  925MOL0     C24782   9.162  10.843   0.299  0.7074  0.2515  0.1234
  925MOL0     C24783   9.218  10.868   0.154 -0.5832 -0.1638  0.2204
  925MOL0    Cl24784   9.189  10.743   0.043 -0.2614 -0.3423 -0.3167
  925MOL0     C24785   8.585  11.119   0.957  0.7204 -0.5529  1.1128
  925MOL0     C24786   8.520  11.202   1.053 -0.3688  0.2601  0.2355
  925MOL0     O24787   8.495  11.411   1.280  0.5140  0.2714  0.5151
  925MOL0     C24788   8.304  11.251   1.533  1.1118  0.1489 -0.8963
  925MOL0     C24789   8.225  11.270   1.643 -0.1839  0.3791 -1.1058
  925MOL0     N24790   8.237  10.983   2.099  0.8552  0.8299  0.6295
  925MOL0     N24791   8.307  10.874   2.093 -0.0123 -0.1500 -0.5495
  925MOL0     C24792   8.591  10.227   3.027  0.5921  1.1134  0.0137
  925MOL0     C24793   8.676  10.244   3.138 -0.2443  1.0755 -0.2335
  925MOL0     C24794   8.804  10.289   3.575 -0.2454  0.1791  0.2427
  925MOL0     C24795   8.904  10.391   3.551 -0.2717  0.2240 -0.0089
  925MOL0     C24796   8.992  10.423   3.663  0.5005  0.6117  0.0840
  925MOL0     C24797   8.989  10.346   3.789 -0.0051  0.7543 -0.9868
  925MOL0     O24798   9.083  10.365   3.890  0.1813  0.5181  0.1986
  925MOL0     C24799   9.208  10.432   3.868 -1.0767 -0.1517 -0.5330
  925MOL0     C24800   9.260  10.461   4.010  0.4259 -0.5613  1.0377
  925MOL0     C24801   9.165  10.576   4.064 -0.0529  0.1101  0.3967
  925MOL0     C24802   9.237  10.625   4.188  0.0604 -0.2002 -1.8318
  925MOL0     C24803   9.342  10.726   4.146  0.5293 -0.0554 -0.6273
  925MOL0     C24804   9.418  10.809   4.117  0.4208 -0.3297  0.4138
  925MOL0     C24805   8.873  10.264   3.816 -0.4657 -0.1998  0.8732
  925MOL0     C24806   8.787  10.237   3.711 -1.1468 -0.0158 -0.0125
  925MOL0     C24807   8.688  10.126   3.749  0.8421  0.1407 -0.5520
  925MOL0     H24808   8.456  10.380   3.355 -2.5296 -1.8657  0.5097
  925MOL0     H24809   8.301  10.340   3.177  0.6195  0.6050 -0.1102
  925MOL0     H24810   8.195  10.224   2.987  1.4937 -1.8717  0.0753
  925MOL0     H24811   8.237  10.388   2.946  2.1173 -0.5543 -0.0842
  925MOL0     H24812   8.085  10.218   2.791  0.6527 -0.3192  0.4166
  925MOL0     H24813   8.244  10.201   2.720  3.4079  1.0412  1.1123
  925MOL0     H24814   8.126  10.475   2.756  3.4791 -0.4100  3.0945
  925MOL0     H24815   8.107  10.383   2.615 -1.6357 -0.2352  2.7495
  925MOL0     H24816   8.374  10.489   2.718  2.1517 -1.2062 -1.3231
  925MOL0     H24817   8.374  10.374   2.581  0.9801  3.2989 -2.9840
  925MOL0     H24818   8.196  10.543   2.479 -0.2630 -2.9940  0.4835
  925MOL0     H24819   8.263  10.653   2.599 -0.8725  1.1651 -4.2493
  925MOL0     H24820   8.481  10.624   2.493 -0.3676  3.3277 -0.7344
  925MOL0     H24821   8.417  10.507   2.377  1.2321  0.5173  0.5102
  925MOL0     H24822   8.360  10.813   2.435 -0.1845 -0.8254  0.3231
  925MOL0     H24823   8.270  10.724   2.318 -1.4709 -0.8571  2.3158
  925MOL0     H24824   8.568  10.796   2.284 -0.7490  1.8504 -1.1082
  925MOL0     H24825   8.463  10.704   2.170 -1.1060 -1.7174  1.1565
  925MOL0     H24826   8.447  11.053   2.336  2.2074  2.0134 -2.2675
  925MOL0     H24827   8.217  11.203   2.309  3.3076  3.8152  2.0757
  925MOL0     H24828   8.338  11.275   2.205 -0.7913  1.0760  4.2707
  925MOL0     H24829   8.055  11.202   2.126  0.9920 -1.6524 -0.9283
  925MOL0     H24830   8.121  11.363   2.161  0.3175  0.4675 -0.7097
  925MOL0     H24831   8.185  11.194   1.921 -1.0575  2.2815 -3.4803
  925MOL0     H24832   8.255  11.352   1.955  1.1019 -1.5298 -2.1587
  925MOL0     H24833   7.988  11.406   1.961 -1.4046 -3.2457  2.2702
  925MOL0     H24834   7.990  11.274   1.840 -2.2254  0.6565  2.9804
  925MOL0     H24835   8.247  11.599   1.657  1.5140 -0.9217  1.8953
  925MOL0     H24836   8.357  11.583   1.450  0.3549 -1.4054 -1.6465
  925MOL0     H24837   8.384  10.952   1.227  3.1730 -1.3860  1.3995
  925MOL0     H24838   8.462  10.825   1.027  1.3285 -0.6373  1.5208
  925MOL0     H24839   8.818  10.972   0.831 -1.3277  0.6761  1.0230
  925MOL0     H24840   8.776  10.835   0.950 -0.2816 -3.2699 -1.3666
  925MOL0     H24841   8.900  10.736   0.763  0.3925  2.1541  1.8754
  925MOL0     H24842   8.727  10.696   0.765 -2.5605  2.7805 -0.9254
  925MOL0     H24843   8.726  10.755   0.535  1.8345 -3.1949  1.7685
  925MOL0     H24844   8.714  10.907   0.603 -1.7297 -2.4783  0.8351
  925MOL0     H24845   8.995  10.873   0.605 -0.2278  1.1832 -0.4039
  925MOL0     H24846   8.912  10.950   0.463 -1.8776  0.4174  1.1119
  925MOL0     H24847   8.858  10.708   0.384  0.4253 -0.6188 -0.0304
  925MOL0     H24848   9.013  10.672   0.478  1.9358 -0.4269 -2.2707
  925MOL0     H24849   9.024  10.675   0.254 -2.2416  0.6716  1.2458
  925MOL0     H24850   8.961  10.830   0.220  2.8186  3.2739 -0.8451
  925MOL0     H24851   9.229  10.772   0.348  0.4965  0.0019  0.0541
  925MOL0     H24852   9.148  10.936   0.354  0.4452  1.6165 -2.1476
  925MOL0     H24853   9.158  10.957   0.134 -1.4129 -0.3214  1.8004
  925MOL0     H24854   9.326  10.884   0.162 -0.5969 -0.6556  1.9613
  925MOL0     H24855   8.640  11.161   0.874 -2.4918  2.9953  0.4984
  925MOL0     H24856   8.541  11.307   1.039  0.6719  0.0214 -0.0724
  925MOL0     H24857   8.335  11.148   1.514  2.5526  0.2077  0.8486
  925MOL0     H24858   8.185  11.189   1.702 -2.2681 -0.9970 -4.1593
  925MOL0     H24859   8.623  10.175   2.937 -2.4897 -0.2667 -0.4066
  925MOL0     H24860   8.778  10.206   3.136 -0.2952  0.8167 -3.6586
  925MOL0     H24861   8.908  10.443   3.456  1.5378  0.4120  0.1508
  925MOL0     H24862   9.074  10.494   3.655  1.3967  0.0564  2.9802
  925MOL0     H24863   9.200  10.526   3.813 -0.8778  1.5897  2.2417
  925MOL0     H24864   9.277  10.365   3.816  0.0726  0.7963 -0.2867
  925MOL0     H24865   9.358  10.505   3.992 -0.7402  1.3901 -1.0737
  925MOL0     H24866   9.263  10.373   4.075  0.1056 -0.1030  1.6841
  925MOL0     H24867   9.066  10.537   4.087  0.7473 -2.2246  0.1389
  925MOL0     H24868   9.162  10.659   3.994 -1.5309 -0.5767 -0.3843
  925MOL0     H24869   9.177  10.676   4.264  2.4412 -1.4576  1.1074
  925MOL0     H24870   9.285  10.542   4.242 -0.8793  1.4408  1.8287
  925MOL0     H24871   9.504  10.872   4.105  0.3032 -0.1517  0.5086
  925MOL0     H24872   8.871  10.208   3.910  0.8109 -0.2174  0.9032
  925MOL0     H24873   8.705  10.080   3.847 -0.4125  2.6884  0.9890
  925MOL0     H24874   8.591  10.178   3.743  1.2879  0.8482 -2.2177
  925MOL0     H24875   8.675  10.061   3.662 -2.1098  0.0539 -0.1541
  926MOL0     O24876   5.311   1.546   4.203  0.0129  0.0391 -0.2966
  926MOL0     C24877   5.207   1.606   4.228  0.1344  0.3996 -0.4409
  926MOL0     O24878   5.182   1.738   4.205 -0.4794 -0.6018 -0.4891
  926MOL0     C24879   5.281   1.824   4.161 -0.7570 -0.4905  0.6192
  926MOL0     C24880   5.308   1.944   4.228  1.1240  0.6744 -0.1673
  926MOL0     C24881   5.399   2.035   4.182 -0.3350 -0.9018 -0.2909
  926MOL0     C24882   5.471   2.006   4.059 -0.5719  0.3505  0.4079
  926MOL0     O24883   5.565   2.085   3.994 -0.6973 -0.2327  0.1619
  926MOL0     C24884   5.637   2.185   4.072 -1.1122 -0.0466  0.2686
  926MOL0     C24885   5.563   2.321   4.063 -0.1816 -0.4833  0.8008
  926MOL0     C24886   5.568   2.417   4.187  0.0312  0.8110  0.4594
  926MOL0     C24887   5.705   2.408   4.253 -0.3024 -0.2400 -0.2333
  926MOL0     C24888   5.700   2.325   4.381  0.4434 -0.6308  0.4104
  926MOL0     C24889   5.832   2.283   4.434 -1.1888  1.2581 -0.1543
  926MOL0     C24890   5.825   2.252   4.585  0.1628  0.5748 -0.2710
  926MOL0     C24891   5.713   2.154   4.622 -0.6953  0.2871 -0.9149
  926MOL0     N24892   5.745   2.096   4.759  1.4140  0.5748  0.5302
  926MOL0     C24893   5.718   2.159   4.879 -0.7421 -0.8761 -0.1096
  926MOL0     C24894   5.753   2.067   4.973 -0.1498 -0.1241 -0.7861
  926MOL0     C24895   5.721   2.098   5.122 -1.2829  0.1620  0.0294
  926MOL0     C24896   5.644   1.981   5.173  0.3711 -0.3919  0.4205
  926MOL0     C24897   5.586   2.012   5.318 -0.2091  0.5362  0.5311
  926MOL0     C24898   5.682   1.971   5.430 -0.4620  0.1350 -0.1135
  926MOL0     O24899   5.610   1.992   5.551 -0.2277 -0.3331  0.0219
  926MOL0     C24900   5.677   1.967   5.668 -0.4936  0.8693 -0.6221
  926MOL0     C24901   5.607   1.972   5.793  1.0871 -0.7825 -1.0441
  926MOL0     C24902   5.671   1.924   5.915  0.5485  0.4164  0.1456
  926MOL0     C24903   5.800   1.884   5.922 -0.3905  0.1719  0.2147
  926MOL0     C24904   5.866   1.856   6.044  1.5876  0.4405 -0.0014
  926MOL0     O24905   5.781   1.852   6.157 -0.4991  0.5401  0.2259
  926MOL0     C24906   5.845   1.828   6.276  0.0307 -0.9027 -0.0659
  926MOL0     C24907   5.826   1.918   6.378 -0.0795  0.4210 -0.3543
  926MOL0     C24908   5.874   1.901   6.513  0.2856  0.3002 -0.6509
  926MOL0     C24909   5.945   1.784   6.541 -0.1213  0.0497  0.9410
  926MOL0     O24910   6.001   1.760   6.660 -0.5382 -0.0779  0.3080
  926MOL0     C24911   5.925   1.794   6.776  0.1165 -0.7801  0.0250
  926MOL0     C24912   5.983   1.728   6.901 -0.0266 -0.6088  0.2126
  926MOL0     C24913   5.941   1.579   6.916  0.7199  0.0580 -0.1726
  926MOL0     C24914   5.909   1.550   7.070 -0.2765 -0.4730  0.0405
  926MOL0     C24915   5.893   1.402   7.107 -0.0450 -1.0835 -0.3784
  926MOL0     C24916   5.926   1.362   7.249 -0.5442 -0.3324 -0.0003
  926MOL0     C24917   5.861   1.440   7.356  0.2758  0.0439 -0.4501
  926MOL0     C24918   5.905   1.369   7.492 -0.0257 -0.3191  0.6898
  926MOL0    Cl24919   5.817   1.455   7.618  0.0723  0.3384  0.2658
  926MOL0     C24920   5.963   1.695   6.442 -0.0440 -0.7109 -0.0194
  926MOL0     C24921   5.910   1.712   6.313 -0.8954 -0.2710 -0.6108
  926MOL0     O24922   5.988   1.842   6.049 -0.2336 -0.2392 -0.6431
  926MOL0     C24923   5.869   1.879   5.799 -0.1899 -0.0580 -0.5617
  926MOL0     C24924   5.813   1.921   5.674 -0.3976 -0.6384 -0.9153
  926MOL0     N24925   5.799   1.950   4.911 -0.0631 -0.2281 -0.2432
  926MOL0     N24926   5.810   1.983   4.785  0.2682  0.1118 -0.3250
  926MOL0     C24927   5.434   1.891   3.985  0.8680  0.0552 -0.2075
  926MOL0     C24928   5.339   1.803   4.033  0.5886 -0.0728 -0.1925
  926MOL0     C24929   5.104   1.516   4.275  0.0725  0.8180 -0.7958
  926MOL0     C24930   5.044   1.427   4.183  0.4273  0.3746 -0.5406
  926MOL0     C24931   4.943   1.342   4.217  1.0822  0.7958  0.4110
  926MOL0     C24932   4.897   1.329   4.355 -0.1521  1.1240  0.5110
  926MOL0     O24933   4.788   1.246   4.389 -0.6943 -0.5147 -0.4799
  926MOL0     C24934   4.793   1.177   4.516 -0.8334 -0.0880  0.6568
  926MOL0     C24935   4.742   1.036   4.492 -0.2660 -0.2983  0.6695
  926MOL0     C24936   4.787   0.953   4.617  0.7248  1.3003 -0.4587
  926MOL0     C24937   4.747   0.806   4.594  0.1754  1.0245  0.5464
  926MOL0     C24938   4.771   0.719   4.714 -0.1379 -0.0209 -0.5658
  926MOL0     C24939   4.767   0.636   4.805  0.5791 -0.2002 -0.5990
  926MOL0     C24940   4.956   1.415   4.444 -0.1327 -0.5255  0.7723
  926MOL0     C24941   5.053   1.515   4.409 -0.9894 -0.1398  0.4688
  926MOL0     C24942   5.123   1.595   4.519 -0.3509  0.4135  0.1332
  926MOL0     H24943   5.248   1.965   4.316 -0.2458  0.1098 -0.9342
  926MOL0     H24944   5.442   2.112   4.246  3.0635 -2.5847 -0.3052
  926MOL0     H24945   5.648   2.139   4.171  1.0681 -1.0163 -0.3577
  926MOL0     H24946   5.740   2.199   4.037 -1.4629 -0.5919 -1.0128
  926MOL0     H24947   5.456   2.314   4.041 -0.1105  2.4853 -1.0784
  926MOL0     H24948   5.613   2.373   3.981 -0.4585  1.4761  1.8155
  926MOL0     H24949   5.486   2.386   4.253 -0.6657 -1.0363 -1.1749
  926MOL0     H24950   5.532   2.519   4.171 -2.3165  0.1516  1.1450
  926MOL0     H24951   5.776   2.359   4.186  0.1293  0.7640 -0.5244
  926MOL0     H24952   5.734   2.510   4.281  0.1860 -0.1534 -1.0329
  926MOL0     H24953   5.650   2.394   4.449  0.1689 -1.3874  0.9832
  926MOL0     H24954   5.637   2.239   4.359  1.0212 -0.3291 -3.0630
  926MOL0     H24955   5.872   2.200   4.375 -0.0679  1.4924  0.2437
  926MOL0     H24956   5.909   2.357   4.411  0.5431 -0.5067 -0.3435
  926MOL0     H24957   5.817   2.343   4.645 -1.6454 -0.3354  0.9572
  926MOL0     H24958   5.925   2.217   4.614  0.9981  2.5885 -0.5620
  926MOL0     H24959   5.614   2.200   4.631 -0.5066  0.6412 -0.6274
  926MOL0     H24960   5.718   2.070   4.552  4.6928 -0.2326 -0.3324
  926MOL0     H24961   5.689   2.263   4.887  0.1909 -0.4766 -1.5398
  926MOL0     H24962   5.813   2.103   5.180 -0.6980 -1.5154 -0.6901
  926MOL0     H24963   5.666   2.189   5.144 -1.2085  0.0134  0.8703
  926MOL0     H24964   5.567   1.952   5.101  2.8917 -0.6050 -2.3827
  926MOL0     H24965   5.705   1.891   5.166 -0.0612 -0.5876 -1.8622
  926MOL0     H24966   5.499   1.946   5.309 -0.1264  0.5116 -0.2093
  926MOL0     H24967   5.549   2.112   5.339  1.5011  1.4117 -0.3861
  926MOL0     H24968   5.772   2.033   5.434  2.7926 -4.0386 -0.5783
  926MOL0     H24969   5.714   1.867   5.418  4.0913  1.2631  0.4400
  926MOL0     H24970   5.506   2.010   5.797  0.3004 -2.9021  1.4936
  926MOL0     H24971   5.607   1.913   6.002  0.1583 -0.4872 -0.2513
  926MOL0     H24972   5.773   2.008   6.347  0.2795  0.3126 -1.3247
  926MOL0     H24973   5.878   1.975   6.593 -3.0728  0.2838 -0.3524
  926MOL0     H24974   5.935   1.900   6.799  1.1047 -1.0479  0.9387
  926MOL0     H24975   5.820   1.773   6.757  0.5089 -0.3083 -3.1552
  926MOL0     H24976   6.091   1.740   6.914  0.5153 -2.7997 -1.6777
  926MOL0     H24977   5.947   1.777   6.992  1.7634 -0.1499  0.7309
  926MOL0     H24978   5.849   1.558   6.860 -0.9940  1.6166  1.8765
  926MOL0     H24979   6.032   1.525   6.889  1.1375 -0.0824  1.3902
  926MOL0     H24980   5.815   1.603   7.088 -0.7779 -1.8899  1.8759
  926MOL0     H24981   5.986   1.590   7.136 -0.9252 -1.1679  1.2392
  926MOL0     H24982   5.939   1.332   7.037  2.6565  2.3727 -2.4008
  926MOL0     H24983   5.785   1.400   7.095 -0.9641  0.8038  4.8544
  926MOL0     H24984   5.883   1.262   7.262 -0.7218 -0.6996 -2.7791
  926MOL0     H24985   6.036   1.368   7.247 -0.5609  0.4398  0.8336
  926MOL0     H24986   5.753   1.446   7.339  0.4779  2.0776 -1.3073
  926MOL0     H24987   5.896   1.544   7.351 -1.8477  0.9287  1.3914
  926MOL0     H24988   5.868   1.268   7.473  2.1593 -0.8430 -1.1774
  926MOL0     H24989   6.014   1.369   7.502  0.1051 -1.0072 -0.5430
  926MOL0     H24990   6.024   1.607   6.461  1.9050  0.7242  0.7283
  926MOL0     H24991   5.920   1.638   6.234 -1.6317 -0.7986 -0.2147
  926MOL0     H24992   5.971   1.843   5.788 -0.2437  0.0416 -1.4707
  926MOL0     H24993   5.885   1.923   5.593 -0.2384 -1.0309 -0.7874
  926MOL0     H24994   5.497   1.879   3.897  0.5583  1.8474 -0.7181
  926MOL0     H24995   5.317   1.712   3.978 -1.9819 -0.3373  1.0953
  926MOL0     H24996   5.063   1.441   4.077 -2.1608  1.5422 -0.9434
  926MOL0     H24997   4.885   1.300   4.135  0.3246  0.4102  1.1284
  926MOL0     H24998   4.749   1.224   4.605  1.9860 -1.9877  3.2649
  926MOL0     H24999   4.900   1.167   4.538  0.5386  2.7946 -3.3915
  926MOL0     H25000   4.790   0.985   4.408 -2.0470 -1.3698  0.2458
  926MOL0     H25001   4.634   1.028   4.478 -0.1046 -3.5488  0.4515
  926MOL0     H25002   4.736   0.988   4.708  1.0835 -0.9399  0.6679
  926MOL0     H25003   4.891   0.963   4.650 -0.4230 -0.7045  4.7454
  926MOL0     H25004   4.644   0.793   4.561  1.3320 -0.1266 -3.0901
  926MOL0     H25005   4.807   0.779   4.506 -3.1624  2.8083 -2.5448
  926MOL0     H25006   4.782   0.572   4.889 -1.2796  2.6727  2.1430
  926MOL0     H25007   4.915   1.400   4.544  0.6348  1.7127  1.5001
  926MOL0     H25008   5.225   1.559   4.537 -0.4523  0.3357  0.5775
  926MOL0     H25009   5.139   1.699   4.489  0.5181 -0.0924 -1.2447
  926MOL0     H25010   5.072   1.593   4.616 -0.0347  0.9901  0.3154
  927MOL0     O25011   1.404   1.759  10.866 -0.1466  0.5283 -0.9563
  927MOL0     C25012   1.295   1.704  10.838 -0.3262 -0.0468  0.1613
  927MOL0     O25013   1.237   1.593  10.900  0.2797 -0.7611 -0.6190
  927MOL0     C25014   1.287   1.539  11.008 -1.1512 -0.2160 -0.5010
  927MOL0     C25015   1.201   1.523  11.115  0.0882  0.5779 -0.4628
  927MOL0     C25016   1.248   1.457  11.226 -0.6887  0.7922 -0.1836
  927MOL0     C25017   1.371   1.392  11.227  0.2743  0.1689  0.1372
  927MOL0     O25018   1.404   1.313  11.323  0.3282  1.0147  0.2091
  927MOL0     C25019   1.494   1.370  11.418 -0.5603  0.4589 -0.5817
  927MOL0     C25020   1.582   1.268  11.497  0.3814  0.4256  0.0340
  927MOL0     C25021   1.667   1.178  11.400 -0.0213  0.2441 -0.2379
  927MOL0     C25022   1.779   1.098  11.478  0.1208 -0.3599  0.1949
  927MOL0     C25023   1.750   0.951  11.507  0.1883 -0.1918 -0.2033
  927MOL0     C25024   1.832   0.895  11.619  0.2800  0.4733  1.1454
  927MOL0     C25025   1.848   0.745  11.620  0.4541 -0.7601  0.1097
  927MOL0     C25026   1.937   0.702  11.499 -0.2050 -1.0751  0.8253
  927MOL0     N25027   2.016   0.579  11.533 -0.4976 -0.1535  0.4152
  927MOL0     C25028   2.099   0.515  11.448 -0.0271 -0.1704 -0.4123
  927MOL0     C25029   2.147   0.407  11.519  0.3060 -0.0391  0.3274
  927MOL0     C25030   2.252   0.313  11.470  0.5058 -0.5914  0.3493
  927MOL0     C25031   2.205   0.166  11.493 -0.4656  0.0798 -0.7644
  927MOL0     C25032   2.322   0.067  11.546 -0.2548 -0.8500  0.2633
  927MOL0     C25033   2.267  -0.064  11.612 -0.1673 -0.0655 -0.3352
  927MOL0     O25034   2.376  -0.162  11.635 -0.1551  0.0803  0.4890
  927MOL0     C25035   2.357  -0.265  11.731 -0.6176 -0.3280 -0.2165
  927MOL0     C25036   2.253  -0.275  11.829  0.1689  0.0555 -0.0486
  927MOL0     C25037   2.252  -0.380  11.916  0.7143 -0.5935 -0.4069
  927MOL0     C25038   2.349  -0.483  11.923 -0.2355  0.0747  0.3297
  927MOL0     C25039   2.333  -0.591  12.024 -0.4109  0.4857 -0.4092
  927MOL0     O25040   2.397  -0.711  11.987  0.4289 -0.4285 -0.1957
  927MOL0     C25041   2.388  -0.831  12.062 -0.7562 -1.0559 -1.0818
  927MOL0     C25042   2.456  -0.937  12.004 -0.2787  0.0813  0.8204
  927MOL0     C25043   2.445  -1.062  12.070 -0.3206  0.4295  1.3595
  927MOL0     C25044   2.364  -1.081  12.179 -0.0680  0.0229  0.3386
  927MOL0     O25045   2.362  -1.206  12.231  0.9272  0.5574  0.1095
  927MOL0     C25046   2.234  -1.250  12.270  0.5395  0.0798 -0.4388
  927MOL0     C25047   2.214  -1.397  12.235 -0.0853 -0.3774  0.4350
  927MOL0     C25048   2.064  -1.446  12.271  0.5420  0.2828 -0.5116
  927MOL0     C25049   2.058  -1.596  12.299 -0.1640  0.1302  0.4666
  927MOL0     C25050   1.925  -1.652  12.366 -0.3995  0.0069 -0.8215
  927MOL0     C25051   1.863  -1.571  12.486  0.5489  1.0571 -0.3137
  927MOL0     C25052   1.941  -1.574  12.612  0.7688  0.0898 -0.1509
  927MOL0     C25053   1.989  -1.699  12.671 -0.6009  0.4174  0.0959
  927MOL0    Cl25054   1.844  -1.793  12.714 -0.3554  0.1615  0.1820
  927MOL0     C25055   2.302  -0.967  12.246 -0.0220 -0.0014  0.1836
  927MOL0     C25056   2.328  -0.842  12.187 -0.4823 -0.2976 -0.6593
  927MOL0     O25057   2.267  -0.575  12.123 -0.0862 -1.1080  0.5901
  927MOL0     C25058   2.451  -0.464  11.831  0.4948  0.2712  0.2062
  927MOL0     C25059   2.456  -0.363  11.736 -0.0949 -0.6238  0.6427
  927MOL0     N25060   2.097   0.412  11.645  0.5131  0.0615 -0.5795
  927MOL0     N25061   2.008   0.510  11.650 -0.2372 -1.1387 -0.4364
  927MOL0     C25062   1.455   1.399  11.114 -0.8784 -0.1459  0.0340
  927MOL0     C25063   1.418   1.484  11.013  0.0010 -0.3087 -0.7157
  927MOL0     C25064   1.225   1.754  10.715 -0.2347 -0.3375 -0.0654
  927MOL0     C25065   1.095   1.704  10.680  0.0705 -0.7435  0.0694
  927MOL0     C25066   1.024   1.737  10.564 -0.1529 -0.1355 -0.1245
  927MOL0     C25067   1.083   1.822  10.474  0.1617  0.4758  0.3206
  927MOL0     O25068   1.005   1.842  10.363  0.0485  0.0271  0.0971
  927MOL0     C25069   1.065   1.928  10.261  0.0301 -0.5273  0.2639
  927MOL0     C25070   1.008   1.894  10.121  0.5579  0.2976 -0.6652
  927MOL0     C25071   1.053   1.974  10.005 -1.0013 -0.8650  0.4081
  927MOL0     C25072   1.029   2.123  10.025  0.1269 -0.1797 -1.1434
  927MOL0     C25073   0.890   2.159  10.067 -0.6769 -0.7214  0.9472
  927MOL0     C25074   0.775   2.180  10.085  0.3049  0.2912 -0.2909
  927MOL0     C25075   1.208   1.880  10.504 -0.2664 -0.1161  0.4811
  927MOL0     C25076   1.279   1.856  10.627  0.0291 -0.4513  0.3640
  927MOL0     C25077   1.412   1.934  10.645 -0.5948  0.4847 -0.1922
  927MOL0     H25078   1.099   1.561  11.118 -0.5539 -0.7622 -2.7672
  927MOL0     H25079   1.173   1.452  11.304 -1.2266  1.3791 -0.6627
  927MOL0     H25080   1.558   1.449  11.377 -1.5148  1.1614 -0.7583
  927MOL0     H25081   1.427   1.417  11.491  0.9712 -1.0755  1.9379
  927MOL0     H25082   1.510   1.203  11.546  1.5189 -0.3371  0.7351
  927MOL0     H25083   1.640   1.311  11.578 -0.7868  0.4648  0.8715
  927MOL0     H25084   1.712   1.250  11.332  0.5920  1.7019  1.6217
  927MOL0     H25085   1.611   1.108  11.337 -2.3307  1.1191  0.7133
  927MOL0     H25086   1.871   1.107  11.419 -0.9726  3.7065 -1.2530
  927MOL0     H25087   1.798   1.150  11.572 -0.3037 -0.4078  0.3088
  927MOL0     H25088   1.642   0.942  11.525  0.2545 -2.7284 -0.5999
  927MOL0     H25089   1.783   0.903  11.414  0.7563  1.5322 -0.9386
  927MOL0     H25090   1.931   0.941  11.616  0.2368  0.5785 -2.0559
  927MOL0     H25091   1.785   0.928  11.712 -1.7078  2.6626 -0.5305
  927MOL0     H25092   1.757   0.684  11.621  2.2036 -3.5823 -1.1757
  927MOL0     H25093   1.902   0.734  11.714  3.4453  3.8561 -0.6860
  927MOL0     H25094   1.875   0.694  11.410  1.6809  0.9484 -0.7995
  927MOL0     H25095   2.007   0.783  11.476  0.6378 -1.9159  0.3617
  927MOL0     H25096   2.132   0.544  11.349  0.2002  0.2923 -0.2052
  927MOL0     H25097   2.284   0.318  11.366  3.1763 -1.6107  1.0552
  927MOL0     H25098   2.337   0.332  11.536  0.2925  1.5899  0.0866
  927MOL0     H25099   2.114   0.166  11.554  0.2540  1.9698  0.3828
  927MOL0     H25100   2.166   0.138  11.395 -0.5260  2.3117 -1.4249
  927MOL0     H25101   2.386   0.117  11.619 -0.9957  4.2064 -2.1140
  927MOL0     H25102   2.383   0.038  11.460 -0.9976  1.4492 -1.1205
  927MOL0     H25103   2.195  -0.104  11.540  1.6864  0.8865 -2.9034
  927MOL0     H25104   2.215  -0.038  11.704  1.3224 -1.2268  0.8892
  927MOL0     H25105   2.174  -0.201  11.834 -0.2462 -0.3429 -0.6920
  927MOL0     H25106   2.177  -0.382  11.994 -0.9036 -0.0294 -1.8672
  927MOL0     H25107   2.504  -0.918  11.908 -2.8594 -1.0680 -0.8085
  927MOL0     H25108   2.489  -1.155  12.036 -2.9022 -1.2614  2.2892
  927MOL0     H25109   2.223  -1.225  12.375  2.6638  0.3251 -0.2270
  927MOL0     H25110   2.163  -1.189  12.214 -0.0311  0.3879  0.6068
  927MOL0     H25111   2.256  -1.428  12.139 -0.6548 -0.2919  0.1530
  927MOL0     H25112   2.271  -1.450  12.312 -2.7207 -1.5213  1.7202
  927MOL0     H25113   2.032  -1.384  12.355  0.6815 -2.1954  1.4578
  927MOL0     H25114   2.006  -1.416  12.183  1.8713  2.0271 -0.8701
  927MOL0     H25115   2.141  -1.619  12.366 -0.3301 -5.5226 -0.8114
  927MOL0     H25116   2.080  -1.648  12.206 -0.2391 -2.5490  1.8346
  927MOL0     H25117   1.961  -1.749  12.402 -1.7791  0.9632  3.7818
  927MOL0     H25118   1.853  -1.670  12.286 -0.1271 -1.1777 -0.8149
  927MOL0     H25119   1.845  -1.467  12.458  1.0968  2.1744  3.0627
  927MOL0     H25120   1.762  -1.612  12.497  0.9898 -0.4961 -1.6225
  927MOL0     H25121   1.870  -1.531  12.684  1.2613 -1.4145  1.3036
  927MOL0     H25122   2.033  -1.514  12.610  1.2827 -0.5188  2.2295
  927MOL0     H25123   2.057  -1.751  12.603 -0.1227  2.2823 -0.9349
  927MOL0     H25124   2.044  -1.689  12.765 -0.7904 -0.5077  0.3170
  927MOL0     H25125   2.249  -0.975  12.340 -1.2589 -2.1442 -0.6123
  927MOL0     H25126   2.291  -0.760  12.248  1.4765 -1.5026  2.3918
  927MOL0     H25127   2.525  -0.543  11.837  3.0270  2.4349 -0.7237
  927MOL0     H25128   2.533  -0.366  11.661 -1.6685 -0.2878 -1.0594
  927MOL0     H25129   1.549   1.347  11.104 -1.3106 -1.2138  1.1418
  927MOL0     H25130   1.478   1.521  10.931 -0.2747  0.0365 -0.7630
  927MOL0     H25131   1.040   1.648  10.755  1.4970  0.4037  2.0688
  927MOL0     H25132   0.924   1.702  10.540 -1.6256  3.0929  0.7513
  927MOL0     H25133   1.169   1.894  10.249 -0.4735 -1.4060 -2.0180
  927MOL0     H25134   1.054   2.031  10.297  1.8560 -0.7449  1.6262
  927MOL0     H25135   0.900   1.904  10.135  0.4869 -1.9739  1.0142
  927MOL0     H25136   1.022   1.786  10.110 -1.8912 -0.0486 -1.1133
  927MOL0     H25137   1.001   1.948   9.913 -0.3398  0.7221 -0.4525
  927MOL0     H25138   1.159   1.960   9.981 -0.6061  1.0825  0.8664
  927MOL0     H25139   1.091   2.166  10.105  0.7697 -1.8467 -0.7145
  927MOL0     H25140   1.054   2.177   9.933 -0.2348 -1.3697 -1.9550
  927MOL0     H25141   0.689   2.228  10.127  2.5693  1.9190  3.0022
  927MOL0     H25142   1.254   1.947  10.432 -0.4349 -1.5046 -0.9454
  927MOL0     H25143   1.408   2.004  10.729 -2.7579 -0.2757  0.4217
  927MOL0     H25144   1.493   1.865  10.671 -1.6158  0.5776  3.8655
  927MOL0     H25145   1.442   1.995  10.559  0.5444  2.5686  1.5964
  928MOL0     O25146  10.723   8.279   9.805 -0.4437 -0.0954  0.4120
  928MOL0     C25147  10.710   8.159   9.811 -0.2469  0.3316 -0.3701
  928MOL0     O25148  10.599   8.095   9.774  0.0405  0.1608 -0.1604
  928MOL0     C25149  10.502   8.166   9.708 -0.0717 -0.2019 -0.1262
  928MOL0     C25150  10.389   8.191   9.778  0.7836 -0.2622 -0.7715
  928MOL0     C25151  10.277   8.258   9.716 -0.7159  0.5378 -0.3369
  928MOL0     C25152  10.287   8.285   9.585  0.8631 -0.5052 -0.4119
  928MOL0     O25153  10.182   8.350   9.532 -0.1693  0.4756  0.1692
  928MOL0     C25154  10.165   8.344   9.388 -0.0840 -0.5099  0.0848
  928MOL0     C25155  10.022   8.390   9.354  0.2748  0.8436  0.8461
  928MOL0     C25156   9.898   8.307   9.381  0.1946 -0.0500 -0.8385
  928MOL0     C25157   9.762   8.383   9.340 -0.1891  0.0825  0.3852
  928MOL0     C25158   9.666   8.270   9.316 -0.2179 -1.0216  0.0763
  928MOL0     C25159   9.614   8.193   9.446  0.8960 -0.0693 -0.5230
  928MOL0     C25160   9.539   8.306   9.527 -0.0982  1.1123 -0.0953
  928MOL0     C25161   9.408   8.270   9.578  0.2381 -0.1469  0.1157
  928MOL0     N25162   9.308   8.275   9.472 -0.0449  0.6200  0.0086
  928MOL0     C25163   9.232   8.383   9.420  0.3801  0.2815  0.2278
  928MOL0     C25164   9.156   8.327   9.320  1.1636  0.1432  0.9579
  928MOL0     C25165   9.057   8.404   9.244  0.6346  0.3708 -1.1256
  928MOL0     C25166   8.916   8.349   9.276  1.0289 -0.5173  0.5469
  928MOL0     C25167   8.863   8.413   9.401  0.4288 -0.5483 -0.1982
  928MOL0     C25168   8.713   8.400   9.431  0.3830  0.1594  0.2234
  928MOL0     O25169   8.693   8.489   9.540 -0.0854  1.1080 -0.5187
  928MOL0     C25170   8.569   8.474   9.591  0.4759  0.1762  1.0561
  928MOL0     C25171   8.546   8.370   9.670 -0.9595 -0.9484 -0.2401
  928MOL0     C25172   8.417   8.335   9.724 -0.7043 -0.6865 -0.1082
  928MOL0     C25173   8.313   8.424   9.689 -0.4991  0.5817 -0.0366
  928MOL0     C25174   8.172   8.388   9.722 -0.2995 -0.8589  0.0914
  928MOL0     O25175   8.155   8.281   9.807  1.0734  0.7369 -0.2169
  928MOL0     C25176   8.030   8.247   9.844  0.0703  0.8456 -0.0423
  928MOL0     C25177   8.005   8.218   9.978  0.0567 -0.7883 -0.0612
  928MOL0     C25178   7.897   8.151  10.011 -0.0183  0.6418  0.1904
  928MOL0     C25179   7.795   8.123   9.926 -0.5963 -0.3044  0.3829
  928MOL0     O25180   7.699   8.029   9.967  0.1606 -0.1240 -0.0409
  928MOL0     C25181   7.658   7.932   9.865  0.8528 -0.2522 -0.8624
  928MOL0     C25182   7.567   7.821   9.919 -0.6719  0.2483  0.3257
  928MOL0     C25183   7.622   7.765  10.058  0.7659 -1.1030  0.5531
  928MOL0     C25184   7.537   7.637  10.085 -0.5175  1.1156 -0.3102
  928MOL0     C25185   7.582   7.553  10.211  0.7112 -0.0849  0.8897
  928MOL0     C25186   7.516   7.413  10.215 -0.5551  0.4120  0.1222
  928MOL0     C25187   7.586   7.318  10.118  0.2280 -0.1683  0.3194
  928MOL0     C25188   7.519   7.182  10.079  0.8178 -0.3705 -0.5011
  928MOL0    Cl25189   7.456   7.102  10.232  0.0446 -0.3723  0.0446
  928MOL0     C25190   7.811   8.169   9.799 -0.9152  0.5038 -0.1223
  928MOL0     C25191   7.931   8.229   9.754 -0.1349  0.3894 -0.9502
  928MOL0     O25192   8.088   8.455   9.668  0.5427  0.6598  0.5265
  928MOL0     C25193   8.342   8.542   9.603 -0.5479 -0.3045 -1.0871
  928MOL0     C25194   8.468   8.563   9.553 -0.0475 -0.9221  0.1187
  928MOL0     N25195   9.176   8.188   9.303 -0.3531  0.2259 -0.2680
  928MOL0     N25196   9.266   8.165   9.395 -0.7770  0.2581 -0.7388
  928MOL0     C25197  10.407   8.269   9.520 -0.0830 -0.7181 -0.2243
  928MOL0     C25198  10.513   8.202   9.576  0.0285 -0.0153  0.3913
  928MOL0     C25199  10.836   8.080   9.855  0.1486  0.0977 -0.0704
  928MOL0     C25200  10.832   7.945   9.809  0.6011 -0.4193 -0.3407
  928MOL0     C25201  10.943   7.872   9.830 -0.5684  0.5078  0.3311
  928MOL0     C25202  11.064   7.923   9.884  0.5188  0.0433  0.4587
  928MOL0     O25203  11.175   7.843   9.894  0.2270 -0.4431  0.4890
  928MOL0     C25204  11.264   7.853  10.005 -0.1851  0.5479 -0.2824
  928MOL0     C25205  11.204   7.788  10.134 -0.7499 -0.1360 -0.7265
  928MOL0     C25206  11.203   7.637  10.144  0.6594 -0.7554  0.0726
  928MOL0     C25207  11.340   7.582  10.178 -0.4213  0.3053  0.5211
  928MOL0     C25208  11.383   7.607  10.314 -0.0429 -0.4068 -0.2764
  928MOL0     C25209  11.407   7.649  10.423  0.5408 -0.1315 -0.6560
  928MOL0     C25210  11.063   8.053   9.932 -0.0516  0.3947  0.6323
  928MOL0     C25211  10.945   8.130   9.919  0.0063 -0.0571  0.1128
  928MOL0     C25212  10.951   8.273   9.979  0.6993  0.2178  0.5074
  928MOL0     H25213  10.392   8.155   9.881  0.5063 -0.8226 -0.9555
  928MOL0     H25214  10.193   8.277   9.782  1.1435  2.4967  1.6062
  928MOL0     H25215  10.234   8.417   9.345 -2.1921  3.9665  3.4334
  928MOL0     H25216  10.171   8.244   9.344 -2.7898 -1.5348  1.8136
  928MOL0     H25217  10.029   8.423   9.250 -2.3747 -0.3461  0.1964
  928MOL0     H25218  10.015   8.482   9.413 -3.5167  1.4927 -0.3486
  928MOL0     H25219   9.894   8.281   9.487  2.6122  3.3304  0.2909
  928MOL0     H25220   9.915   8.217   9.323  1.4326  0.2174 -0.9215
  928MOL0     H25221   9.731   8.448   9.423  2.4357 -1.5013  2.7805
  928MOL0     H25222   9.774   8.444   9.250  3.4096 -0.5282  0.2989
  928MOL0     H25223   9.575   8.303   9.266 -0.8321  0.9229  2.3303
  928MOL0     H25224   9.708   8.203   9.240  0.2376  3.2606 -3.9322
  928MOL0     H25225   9.542   8.123   9.402 -0.6479 -0.6831  2.6627
  928MOL0     H25226   9.687   8.144   9.511 -1.6049  1.0665  3.5058
  928MOL0     H25227   9.515   8.394   9.467 -1.5883 -0.8200 -2.5267
  928MOL0     H25228   9.608   8.331   9.608  0.0764 -0.0648  0.1350
  928MOL0     H25229   9.419   8.171   9.623  4.5490  0.4006  0.6118
  928MOL0     H25230   9.369   8.333   9.659 -2.0015 -0.1242 -0.8931
  928MOL0     H25231   9.227   8.486   9.454  0.3596  1.1494 -2.2186
  928MOL0     H25232   9.057   8.513   9.242 -1.1122  0.4037 -2.5589
  928MOL0     H25233   9.069   8.374   9.139 -1.3159  4.1957 -2.6497
  928MOL0     H25234   8.849   8.388   9.199  1.3105  0.3127  0.7096
  928MOL0     H25235   8.908   8.241   9.287  1.1402 -0.5762  0.0576
  928MOL0     H25236   8.886   8.520   9.398  0.7997 -0.5833  1.0017
  928MOL0     H25237   8.912   8.366   9.487 -1.8319  0.6471  1.8714
  928MOL0     H25238   8.681   8.298   9.453  0.8379 -0.2085 -0.7206
  928MOL0     H25239   8.649   8.428   9.347 -3.2920 -3.7116  1.3927
  928MOL0     H25240   8.624   8.300   9.698 -1.0082 -1.5998 -1.6734
  928MOL0     H25241   8.409   8.245   9.784  2.9883  0.5313  2.5486
  928MOL0     H25242   8.080   8.234  10.055  2.5588 -1.6873 -2.1433
  928MOL0     H25243   7.875   8.121  10.113  0.6758  0.3661  0.2655
  928MOL0     H25244   7.604   7.985   9.787  0.0770  2.3118  1.2678
  928MOL0     H25245   7.749   7.889   9.823  2.2104  2.9224 -1.4431
  928MOL0     H25246   7.466   7.862   9.928 -1.1569  0.5942 -4.1521
  928MOL0     H25247   7.567   7.737   9.849  2.3081 -0.3630  0.9185
  928MOL0     H25248   7.725   7.737  10.031 -0.1119 -2.9787 -1.1362
  928MOL0     H25249   7.611   7.837  10.140 -1.1085  1.9617 -2.1460
  928MOL0     H25250   7.524   7.574   9.996  2.9066 -0.4030  0.1127
  928MOL0     H25251   7.432   7.665  10.096 -0.2187  1.8599  0.7625
  928MOL0     H25252   7.573   7.606  10.306  1.3093 -0.1862  1.0099
  928MOL0     H25253   7.690   7.535  10.201  1.1410  2.1730  0.8889
  928MOL0     H25254   7.527   7.368  10.314 -2.9802 -1.0431 -0.1729
  928MOL0     H25255   7.410   7.414  10.185 -0.4701  0.3641 -0.1879
  928MOL0     H25256   7.690   7.311  10.151  0.6147 -1.1611 -1.0547
  928MOL0     H25257   7.581   7.378  10.027  2.2893  1.1460  1.0099
  928MOL0     H25258   7.437   7.202  10.010  0.3464 -0.3780  0.0532
  928MOL0     H25259   7.594   7.122  10.026  1.2666  1.6616 -2.2946
  928MOL0     H25260   7.741   8.167   9.717 -1.8162  1.6482  0.5919
  928MOL0     H25261   7.939   8.253   9.648 -1.9997 -1.9869 -1.7342
  928MOL0     H25262   8.269   8.614   9.568  2.3484  3.1359 -0.5912
  928MOL0     H25263   8.483   8.647   9.487  1.7788 -1.4862 -0.2316
  928MOL0     H25264  10.418   8.306   9.419 -0.9215  1.1209  0.3044
  928MOL0     H25265  10.601   8.164   9.525  0.0947  1.4216 -0.6154
  928MOL0     H25266  10.744   7.902   9.762  0.2434 -0.5140  0.4018
  928MOL0     H25267  10.940   7.770   9.793  3.3289  0.1230  0.6667
  928MOL0     H25268  11.300   7.955  10.019 -0.0781  0.1502  3.0995
  928MOL0     H25269  11.353   7.792   9.987 -0.8365 -0.6272  0.3224
  928MOL0     H25270  11.103   7.819  10.161 -0.0610 -1.5687  4.6565
  928MOL0     H25271  11.272   7.824  10.212  1.1101 -2.9627 -0.9047
  928MOL0     H25272  11.160   7.608  10.048  1.6838 -2.4585  0.0738
  928MOL0     H25273  11.143   7.613  10.232 -0.1400  0.1925 -0.1977
  928MOL0     H25274  11.339   7.472  10.185  4.0987 -0.0908 -1.2995
  928MOL0     H25275  11.414   7.609  10.103 -0.0737 -2.2405 -0.1743
  928MOL0     H25276  11.413   7.683  10.525 -0.3384 -1.7643 -0.0206
  928MOL0     H25277  11.156   8.099   9.963  1.5791 -1.4935 -1.1559
  928MOL0     H25278  10.858   8.300  10.030  2.1362  1.0124  2.8861
  928MOL0     H25279  11.041   8.276  10.042  1.7450  1.6481 -0.9482
  928MOL0     H25280  10.975   8.349   9.904  2.9376 -0.7072  0.2237
  929MOL0     O25281  10.610   8.148   3.093  0.0411  0.2309  0.2910
  929MOL0     C25282  10.588   8.239   3.171  0.2528  0.0013 -0.5865
  929MOL0     O25283  10.490   8.246   3.268  0.7871 -0.1889  0.5351
  929MOL0     C25284  10.406   8.136   3.258 -0.8320  0.6926  0.6317
  929MOL0     C25285  10.291   8.125   3.169 -0.1421 -1.4224 -0.3514
  929MOL0     C25286  10.208   8.018   3.166  0.4481 -0.9147 -0.4277
  929MOL0     C25287  10.233   7.912   3.263  0.5684  0.7889  0.1045
  929MOL0     O25288  10.153   7.801   3.285  0.4001 -1.2418 -0.6595
  929MOL0     C25289  10.023   7.797   3.220 -0.5633 -0.5113  0.3757
  929MOL0     C25290   9.926   7.695   3.279  0.2025 -0.8133  0.3883
  929MOL0     C25291   9.973   7.548   3.278 -0.5208 -0.3904  0.7959
  929MOL0     C25292   9.851   7.457   3.291 -0.5522 -0.4567  0.4962
  929MOL0     C25293   9.889   7.313   3.321  0.2002 -0.0317  0.9276
  929MOL0     C25294   9.783   7.236   3.394  0.1094 -0.1237  0.0003
  929MOL0     C25295   9.826   7.092   3.436  0.1200 -1.2984 -0.7649
  929MOL0     C25296   9.716   7.004   3.479  0.0835  0.6575  0.3601
  929MOL0     N25297   9.768   6.871   3.470 -0.0989 -0.1444 -0.3198
  929MOL0     C25298   9.835   6.807   3.573 -0.6294 -0.5091  0.4624
  929MOL0     C25299   9.823   6.678   3.537  0.0463 -0.8230  0.5187
  929MOL0     C25300   9.882   6.568   3.615 -0.1505  0.1367  0.4081
  929MOL0     C25301  10.001   6.507   3.547  0.5660  0.0212 -0.2444
  929MOL0     C25302   9.971   6.365   3.518 -0.6731 -0.4695 -0.1301
  929MOL0     C25303  10.102   6.294   3.481 -0.0973  0.9883  0.4797
  929MOL0     O25304  10.087   6.156   3.460 -0.1140 -0.8175  0.2318
  929MOL0     C25305  10.043   6.090   3.346 -0.7632 -0.5716 -0.3206
  929MOL0     C25306   9.973   6.159   3.253 -0.4512 -0.5478 -0.2274
  929MOL0     C25307   9.930   6.084   3.141 -0.8897  0.3433 -0.4732
  929MOL0     C25308   9.957   5.946   3.120 -0.8420 -0.3901 -0.0446
  929MOL0     C25309   9.921   5.876   2.992  1.2657 -0.4392  0.9251
  929MOL0     O25310   9.863   5.951   2.894 -0.7473 -0.1554 -0.5751
  929MOL0     C25311   9.832   5.915   2.764 -0.0559  1.5493 -0.7694
  929MOL0     C25312   9.748   6.002   2.694 -0.7564 -0.0710  0.5043
  929MOL0     C25313   9.698   5.970   2.566 -1.3145  0.5635  0.2646
  929MOL0     C25314   9.742   5.848   2.508 -0.5395 -0.8034 -0.4650
  929MOL0     O25315   9.718   5.820   2.376  1.0826  0.8189 -0.4690
  929MOL0     C25316   9.588   5.845   2.315 -0.2444  0.7680  1.1184
  929MOL0     C25317   9.568   5.740   2.204 -0.3193 -0.0954 -0.0895
  929MOL0     C25318   9.515   5.609   2.260  0.1746  0.5592  0.4469
  929MOL0     C25319   9.616   5.487   2.281  1.1496 -0.2752  0.4000
  929MOL0     C25320   9.543   5.357   2.334 -0.0285 -0.1475  0.2896
  929MOL0     C25321   9.517   5.248   2.227 -0.3255 -0.7753  0.4907
  929MOL0     C25322   9.439   5.126   2.274 -0.7303  0.0318 -0.1766
  929MOL0     C25323   9.290   5.127   2.276  0.1431 -0.5610  0.1005
  929MOL0    Cl25324   9.231   5.136   2.107  0.1795  0.0332  0.0385
  929MOL0     C25325   9.843   5.767   2.565  0.5642 -0.3255  0.4016
  929MOL0     C25326   9.883   5.803   2.696  0.0873 -0.4829 -0.5187
  929MOL0     O25327   9.956   5.756   2.983  1.0434 -0.0116  0.2245
  929MOL0     C25328  10.018   5.886   3.229 -0.1694 -0.2477  0.9634
  929MOL0     C25329  10.058   5.954   3.343  0.5617  0.6166  0.3755
  929MOL0     N25330   9.754   6.663   3.417  0.3238 -0.5491  0.4891
  929MOL0     N25331   9.727   6.782   3.375 -0.8601 -0.3207  0.3516
  929MOL0     C25332  10.342   7.918   3.356 -0.5770 -0.8946  0.7281
  929MOL0     C25333  10.432   8.031   3.347 -0.4614 -0.1450 -0.0782
  929MOL0     C25334  10.678   8.356   3.157 -0.4200 -0.0015 -0.6412
  929MOL0     C25335  10.814   8.339   3.177  0.8575  0.6725 -1.2638
  929MOL0     C25336  10.905   8.432   3.160  0.1266  0.8860  0.0115
  929MOL0     C25337  10.862   8.551   3.090 -0.5081 -0.1579 -0.9698
  929MOL0     O25338  10.939   8.661   3.077  0.0533  0.1344  0.6031
  929MOL0     C25339  11.078   8.664   3.088  0.1424 -1.6653  0.6552
  929MOL0     C25340  11.131   8.704   2.950 -0.7259 -0.3567  0.1175
  929MOL0     C25341  11.058   8.822   2.891 -0.0265 -0.4733 -0.2365
  929MOL0     C25342  11.147   8.932   2.838  0.7733  0.2629 -0.9072
  929MOL0     C25343  11.060   9.045   2.816  1.6275  0.5214  0.3235
  929MOL0     C25344  11.003   9.150   2.793 -0.4804 -0.1949 -1.1136
  929MOL0     C25345  10.723   8.575   3.073 -0.0335  0.3111 -0.0421
  929MOL0     C25346  10.626   8.482   3.109 -0.0323  0.0992  0.0034
  929MOL0     C25347  10.475   8.503   3.077 -0.7252  0.0782 -0.1877
  929MOL0     H25348  10.269   8.209   3.103  1.8263 -1.4147 -1.0711
  929MOL0     H25349  10.124   8.032   3.099  1.0862 -0.1537 -1.0912
  929MOL0     H25350   9.978   7.896   3.234 -1.3938 -1.1622  2.8509
  929MOL0     H25351  10.050   7.791   3.114 -1.0696 -0.0733  0.2159
  929MOL0     H25352   9.830   7.703   3.227 -0.0395  0.2172  0.9765
  929MOL0     H25353   9.910   7.727   3.382  0.5849  0.4981  0.0563
  929MOL0     H25354  10.043   7.530   3.361 -3.7588 -0.6109  3.6891
  929MOL0     H25355  10.032   7.539   3.186  2.7688  2.4953  2.3798
  929MOL0     H25356   9.783   7.491   3.370 -0.7085  3.0841 -0.9611
  929MOL0     H25357   9.810   7.458   3.189 -0.0797 -2.5046  0.2429
  929MOL0     H25358   9.902   7.275   3.219  1.7565 -0.4041  1.2342
  929MOL0     H25359   9.982   7.298   3.376 -0.4737 -1.5317  1.7073
  929MOL0     H25360   9.743   7.293   3.478  2.0781 -1.8702  2.2617
  929MOL0     H25361   9.707   7.211   3.319  1.5173 -1.1601 -1.1441
  929MOL0     H25362   9.899   7.095   3.517 -1.8997 -1.7944  1.1837
  929MOL0     H25363   9.882   7.055   3.350  2.0354 -0.6552  0.1642
  929MOL0     H25364   9.672   7.033   3.575  0.8716  1.0492  0.6119
  929MOL0     H25365   9.634   7.008   3.406  0.4475 -2.9511 -0.4192
  929MOL0     H25366   9.877   6.841   3.667  1.1615  1.6918 -1.0239
  929MOL0     H25367   9.901   6.580   3.722 -2.3487 -0.1494  0.8719
  929MOL0     H25368   9.799   6.498   3.607 -1.7109  1.8230  1.1875
  929MOL0     H25369  10.006   6.552   3.447 -0.8274  1.2299  0.2131
  929MOL0     H25370  10.090   6.521   3.609  0.2614  1.8193 -0.1506
  929MOL0     H25371   9.899   6.361   3.435 -0.5755  0.6874 -0.2901
  929MOL0     H25372   9.915   6.318   3.599 -2.4430  0.6517 -0.6299
  929MOL0     H25373  10.167   6.296   3.569  2.3625 -1.5465 -1.0738
  929MOL0     H25374  10.154   6.339   3.395  1.0073  0.6716  0.9556
  929MOL0     H25375   9.976   6.267   3.256  3.2843 -0.5300  0.9831
  929MOL0     H25376   9.875   6.134   3.062  0.0673 -0.9029 -1.9871
  929MOL0     H25377   9.738   6.097   2.747  1.1530  0.7685 -0.5440
  929MOL0     H25378   9.619   6.030   2.521 -0.4382  1.1192 -0.5761
  929MOL0     H25379   9.512   5.848   2.393  0.0428  1.8127  1.3676
  929MOL0     H25380   9.605   5.939   2.263  1.4368  1.6058  3.0582
  929MOL0     H25381   9.493   5.782   2.136  1.0164  5.0904  1.1783
  929MOL0     H25382   9.661   5.730   2.148 -0.7245 -0.8472 -0.6534
  929MOL0     H25383   9.458   5.629   2.352  1.8883 -0.4052  1.7767
  929MOL0     H25384   9.450   5.575   2.179  0.8039 -0.5197  0.3732
  929MOL0     H25385   9.678   5.507   2.369  0.9677  0.4014  0.3745
  929MOL0     H25386   9.672   5.453   2.192  2.5242 -1.0335  1.5028
  929MOL0     H25387   9.447   5.388   2.377 -1.4286 -1.2414 -1.8157
  929MOL0     H25388   9.589   5.303   2.417 -2.0338 -0.1777  1.4615
  929MOL0     H25389   9.458   5.300   2.151  2.2451 -0.3270 -1.3225
  929MOL0     H25390   9.618   5.225   2.190 -1.1092 -2.6865 -0.6041
  929MOL0     H25391   9.490   5.087   2.363  0.0963 -0.5329 -0.8750
  929MOL0     H25392   9.469   5.049   2.202  2.8614 -0.0355  1.1867
  929MOL0     H25393   9.253   5.043   2.336  1.8651  0.4517  2.7980
  929MOL0     H25394   9.246   5.215   2.322 -1.4812 -1.3127  0.0486
  929MOL0     H25395   9.881   5.680   2.514 -0.6843 -2.2560  2.5275
  929MOL0     H25396   9.955   5.734   2.739 -0.5882 -1.8136 -1.4750
  929MOL0     H25397  10.044   5.780   3.227 -0.1115 -0.2671 -2.2842
  929MOL0     H25398  10.103   5.906   3.429 -3.5575  0.4883  2.7030
  929MOL0     H25399  10.357   7.842   3.432  5.5597  0.4403  1.3614
  929MOL0     H25400  10.520   8.031   3.411  0.0469 -0.5858 -0.7657
  929MOL0     H25401  10.858   8.247   3.213  1.9483  1.7993  0.3922
  929MOL0     H25402  11.012   8.418   3.177  0.2561  1.3306 -0.3998
  929MOL0     H25403  11.121   8.567   3.114  1.2264 -1.3342  0.1715
  929MOL0     H25404  11.100   8.739   3.166 -0.9629  1.6865 -1.9972
  929MOL0     H25405  11.122   8.623   2.877  0.8337 -0.5573  0.1079
  929MOL0     H25406  11.237   8.723   2.969 -0.9451 -1.6430  3.1319
  929MOL0     H25407  11.006   8.868   2.975  0.8369  2.2115 -1.0493
  929MOL0     H25408  10.974   8.790   2.828  0.1480 -4.6274  1.3182
  929MOL0     H25409  11.223   8.970   2.906 -0.6331  1.2478  0.1565
  929MOL0     H25410  11.187   8.891   2.744 -0.3616  2.9855 -2.7098
  929MOL0     H25411  10.960   9.248   2.787 -0.2405  0.0067  0.2040
  929MOL0     H25412  10.702   8.665   3.015 -1.1506  1.7510  2.4294
  929MOL0     H25413  10.413   8.416   3.097  2.9333 -2.9509 -0.9060
  929MOL0     H25414  10.441   8.596   3.124 -1.5871 -0.5506  0.4738
  929MOL0     H25415  10.479   8.519   2.969  0.0288 -2.5186 -0.5954
  930MOL0     O25416   5.681   4.192   5.156  1.2124 -0.3190 -0.0759
  930MOL0     C25417   5.691   4.315   5.132  0.0490 -0.2892 -1.3226
  930MOL0     O25418   5.629   4.384   5.043  0.5922 -0.4988  1.1560
  930MOL0     C25419   5.525   4.336   4.961 -0.0727 -0.1669 -0.0720
  930MOL0     C25420   5.514   4.415   4.849  0.5071  0.3190 -1.0265
  930MOL0     C25421   5.412   4.374   4.758 -0.1011  0.0041 -0.1244
  930MOL0     C25422   5.315   4.271   4.782  0.8199  0.6496  0.6653
  930MOL0     O25423   5.230   4.226   4.679 -0.2165  0.2275  0.8407
  930MOL0     C25424   5.141   4.328   4.630  1.3616 -0.3172 -0.4525
  930MOL0     C25425   5.060   4.272   4.518 -0.5360 -0.4545 -0.0443
  930MOL0     C25426   4.953   4.363   4.464  1.2488  0.3167  0.3991
  930MOL0     C25427   4.808   4.346   4.538 -0.2039  1.2103  0.2370
  930MOL0     C25428   4.693   4.426   4.483 -0.5434  0.1572  0.4846
  930MOL0     C25429   4.567   4.396   4.551 -1.0026  0.1691 -1.0910
  930MOL0     C25430   4.457   4.447   4.457 -0.7140 -0.0589  0.3479
  930MOL0     C25431   4.317   4.415   4.522 -0.1504 -0.0920  0.4573
  930MOL0     N25432   4.220   4.451   4.428  0.7614  0.4656  0.0567
  930MOL0     C25433   4.174   4.581   4.383 -0.6253  0.5875 -0.9476
  930MOL0     C25434   4.052   4.566   4.344  0.7284  0.1163 -0.8024
  930MOL0     C25435   3.962   4.669   4.298  0.1100  0.7646 -0.1442
  930MOL0     C25436   3.870   4.616   4.181 -0.0170 -0.3990  0.3029
  930MOL0     C25437   3.793   4.725   4.114  0.8178  0.2488  0.2282
  930MOL0     C25438   3.711   4.694   3.994 -0.0699  1.1708  1.2466
  930MOL0     O25439   3.626   4.802   3.957 -0.0598  0.1942  0.0933
  930MOL0     C25440   3.659   4.873   3.845  0.1253  0.6567  0.9969
  930MOL0     C25441   3.560   4.955   3.789 -0.8859 -0.1253 -0.2760
  930MOL0     C25442   3.585   5.037   3.684  0.6449  0.1274 -0.1239
  930MOL0     C25443   3.704   5.029   3.613 -0.0049 -0.1715 -0.0429
  930MOL0     C25444   3.723   5.089   3.480  0.7606 -0.4820  0.7619
  930MOL0     O25445   3.658   5.214   3.454 -0.1142  0.3110  0.2138
  930MOL0     C25446   3.708   5.285   3.348 -0.4995 -1.2277 -0.1370
  930MOL0     C25447   3.839   5.342   3.348 -0.0249  1.0430  0.6084
  930MOL0     C25448   3.890   5.434   3.249  0.8930  0.1220 -0.1581
  930MOL0     C25449   3.811   5.465   3.139 -0.6357 -0.6411  0.6677
  930MOL0     O25450   3.854   5.554   3.037  0.3482 -0.1517  0.0777
  930MOL0     C25451   3.976   5.609   3.046 -1.3572 -1.1402  0.9566
  930MOL0     C25452   4.036   5.680   2.920  0.2374  0.6486  0.6209
  930MOL0     C25453   3.940   5.782   2.868 -0.8375 -0.9935  0.9169
  930MOL0     C25454   4.016   5.867   2.763  0.3346 -0.8559 -0.0494
  930MOL0     C25455   3.926   5.980   2.702 -0.0597 -1.3503  0.0949
  930MOL0     C25456   4.002   6.074   2.600  0.4742 -0.0762 -0.8113
  930MOL0     C25457   4.055   5.998   2.471 -1.0417  0.1873 -0.7157
  930MOL0     C25458   4.115   6.095   2.374 -0.0970 -0.6381  0.2938
  930MOL0    Cl25459   4.143   6.026   2.201  0.2251 -0.1275  0.4016
  930MOL0     C25460   3.677   5.407   3.134  0.4681 -0.4401 -0.2545
  930MOL0     C25461   3.623   5.332   3.240 -0.2818 -0.4515  0.3188
  930MOL0     O25462   3.814   5.040   3.411 -0.2946 -0.6434 -0.4319
  930MOL0     C25463   3.811   4.961   3.673 -0.0703  0.0876 -0.3616
  930MOL0     C25464   3.787   4.884   3.782 -0.1192  0.5589  0.6268
  930MOL0     N25465   4.018   4.431   4.352 -0.4486 -0.4482  0.1585
  930MOL0     N25466   4.116   4.371   4.408  0.5065  0.3998  0.0904
  930MOL0     C25467   5.320   4.208   4.910  0.3497 -0.0575 -0.5566
  930MOL0     C25468   5.424   4.232   5.000 -1.0462 -0.1556 -0.5057
  930MOL0     C25469   5.792   4.394   5.216 -0.7578 -0.0072  0.2055
  930MOL0     C25470   5.848   4.515   5.161  1.1820  0.1431  0.5623
  930MOL0     C25471   5.929   4.594   5.237 -0.1875 -0.0806 -0.1246
  930MOL0     C25472   5.973   4.545   5.369  0.2266  0.2990  0.6603
  930MOL0     O25473   6.062   4.613   5.445 -0.2047  0.4116  0.4812
  930MOL0     C25474   6.196   4.560   5.440  0.3601  0.4157  0.1062
  930MOL0     C25475   6.298   4.672   5.488 -0.2563  0.2110  0.0638
  930MOL0     C25476   6.332   4.779   5.383  0.3878  0.0826 -0.1061
  930MOL0     C25477   6.431   4.883   5.411 -0.0869 -1.3999  0.3957
  930MOL0     C25478   6.550   4.872   5.326  0.0109 -0.1777  0.1392
  930MOL0     C25479   6.652   4.861   5.252  0.5921  0.7322  0.5157
  930MOL0     C25480   5.924   4.427   5.414 -0.0914  0.1291  0.4455
  930MOL0     C25481   5.828   4.349   5.346  0.4846  0.3384  0.6354
  930MOL0     C25482   5.783   4.216   5.414  0.3358  0.6369 -0.2127
  930MOL0     H25483   5.571   4.503   4.821  1.6720 -0.6339 -1.7400
  930MOL0     H25484   5.390   4.420   4.662 -0.0964 -0.1832 -0.2145
  930MOL0     H25485   5.082   4.360   4.717 -0.9697 -0.8098 -1.7711
  930MOL0     H25486   5.191   4.417   4.593 -1.5204  0.1197 -3.7802
  930MOL0     H25487   5.019   4.173   4.542 -0.1007 -0.6318 -0.0346
  930MOL0     H25488   5.131   4.248   4.439 -1.7006 -1.1418 -0.9295
  930MOL0     H25489   4.939   4.336   4.359 -0.4519 -0.0525  0.6901
  930MOL0     H25490   4.990   4.465   4.468 -0.6694  1.0223  1.3457
  930MOL0     H25491   4.781   4.240   4.532  0.3555  0.6154  4.7685
  930MOL0     H25492   4.820   4.371   4.643 -0.5145  2.1248  0.0679
  930MOL0     H25493   4.717   4.533   4.491 -0.8865  0.2269  0.6343
  930MOL0     H25494   4.696   4.402   4.377 -1.7143 -4.4287  1.2997
  930MOL0     H25495   4.550   4.288   4.562 -0.1743 -0.0342 -1.7025
  930MOL0     H25496   4.567   4.448   4.647  1.0482  2.1605 -2.0867
  930MOL0     H25497   4.441   4.388   4.366  1.0177 -3.2293  1.9233
  930MOL0     H25498   4.475   4.549   4.423 -1.4259  0.3918  1.3151
  930MOL0     H25499   4.317   4.307   4.538  0.9387  0.1699  2.4594
  930MOL0     H25500   4.307   4.481   4.608 -0.3879  2.7920 -1.6298
  930MOL0     H25501   4.217   4.680   4.385 -2.7277  1.5194  0.3232
  930MOL0     H25502   3.901   4.698   4.384  1.4064 -0.8946  1.4299
  930MOL0     H25503   4.022   4.749   4.256  2.4632  0.2732  2.0243
  930MOL0     H25504   3.945   4.580   4.110 -1.5256 -0.7218 -1.1700
  930MOL0     H25505   3.811   4.537   4.227  2.9863 -4.4160 -2.0622
  930MOL0     H25506   3.867   4.795   4.074 -0.8147  1.8866 -0.1082
  930MOL0     H25507   3.732   4.783   4.185  1.7928 -0.5928  1.8117
  930MOL0     H25508   3.650   4.607   4.021  0.8770  0.6852  1.8532
  930MOL0     H25509   3.765   4.661   3.904 -0.7369  0.5173  1.0715
  930MOL0     H25510   3.458   4.974   3.821 -1.3890  1.9548 -2.7984
  930MOL0     H25511   3.504   5.104   3.659 -4.2623 -3.1621  4.7293
  930MOL0     H25512   3.913   5.316   3.424 -1.4210 -3.6358  0.6931
  930MOL0     H25513   3.992   5.470   3.255  1.1726 -0.8371  1.3375
  930MOL0     H25514   3.979   5.686   3.123  0.6251 -1.1651  0.9628
  930MOL0     H25515   4.051   5.531   3.067 -0.3903 -0.2625  0.8451
  930MOL0     H25516   4.126   5.736   2.945 -0.1647  1.2051  0.8392
  930MOL0     H25517   4.055   5.601   2.847  2.3526 -1.1462  2.9233
  930MOL0     H25518   3.853   5.730   2.827  0.6145 -1.8606 -1.2332
  930MOL0     H25519   3.910   5.851   2.948 -0.5558 -1.8141  1.7508
  930MOL0     H25520   4.052   5.801   2.683 -0.6369  0.7168 -1.8646
  930MOL0     H25521   4.095   5.932   2.801 -3.0919  2.6356  1.8447
  930MOL0     H25522   3.877   6.043   2.776  0.0609  0.2618 -1.1494
  930MOL0     H25523   3.845   5.934   2.642 -1.7476 -1.3851  2.2782
  930MOL0     H25524   3.923   6.140   2.563 -2.3757 -2.5942  0.3392
  930MOL0     H25525   4.078   6.125   2.660 -1.8520  0.8221  1.5660
  930MOL0     H25526   3.979   5.946   2.412 -0.0008  0.1996 -2.1191
  930MOL0     H25527   4.131   5.923   2.493  2.2617  3.6755  0.7997
  930MOL0     H25528   4.059   6.189   2.372  0.4968 -0.2649  0.8972
  930MOL0     H25529   4.212   6.127   2.415 -0.1971 -1.8426  1.5509
  930MOL0     H25530   3.617   5.435   3.049 -1.3303  1.4265  1.5278
  930MOL0     H25531   3.518   5.313   3.261  0.0991 -1.7733  1.1724
  930MOL0     H25532   3.909   4.973   3.628  0.7837  1.6137  1.6942
  930MOL0     H25533   3.866   4.830   3.833  2.1822  2.5947 -0.5659
  930MOL0     H25534   5.242   4.143   4.949  0.0473  2.2036  3.0596
  930MOL0     H25535   5.432   4.176   5.093 -3.0931  0.2942 -0.0023
  930MOL0     H25536   5.827   4.535   5.057 -1.8380 -1.3847  0.7695
  930MOL0     H25537   5.975   4.688   5.211 -0.4681  0.7720  2.1986
  930MOL0     H25538   6.219   4.540   5.335  0.0451 -0.5596  0.2147
  930MOL0     H25539   6.209   4.465   5.493  1.1168 -0.6324 -1.8173
  930MOL0     H25540   6.396   4.632   5.517  0.0532  2.4137  2.5027
  930MOL0     H25541   6.252   4.714   5.578 -1.3569 -0.5878 -0.1043
  930MOL0     H25542   6.231   4.822   5.383 -0.6653 -2.1990  0.3852
  930MOL0     H25543   6.337   4.726   5.288 -0.1432  0.1236 -0.1613
  930MOL0     H25544   6.385   4.982   5.413 -0.6252 -1.3030 -4.4577
  930MOL0     H25545   6.460   4.871   5.516 -0.4274  0.3946  0.7190
  930MOL0     H25546   6.738   4.833   5.194  0.9267  0.7214  1.0102
  930MOL0     H25547   5.962   4.397   5.511  1.7507 -0.1701 -0.3290
  930MOL0     H25548   5.674   4.205   5.407  0.5991 -1.7253 -1.5913
  930MOL0     H25549   5.836   4.133   5.367 -2.7502 -3.9640  3.4867
  930MOL0     H25550   5.810   4.209   5.520  0.4633  1.7368 -0.1633
  931MOL0     O25551   1.991   0.646   3.067  0.5432  0.2998 -0.0928
  931MOL0     C25552   1.890   0.687   3.009  0.1029 -0.0837  0.0926
  931MOL0     O25553   1.776   0.609   2.982 -0.3105  0.1287  0.0015
  931MOL0     C25554   1.796   0.492   2.923  0.5552 -0.5874  0.1287
  931MOL0     C25555   1.691   0.401   2.914 -0.7333 -1.4795 -0.4335
  931MOL0     C25556   1.700   0.287   2.834  0.0180  0.6832 -0.2753
  931MOL0     C25557   1.799   0.252   2.750 -0.1031  0.4489  0.3445
  931MOL0     O25558   1.793   0.153   2.658  0.4394 -0.2572  0.5392
  931MOL0     C25559   1.894   0.157   2.548  0.1889  0.3703 -0.2069
  931MOL0     C25560   1.865   0.044   2.441 -0.1043 -0.5661  0.1421
  931MOL0     C25561   1.815  -0.088   2.505  0.4796  0.8604 -0.6334
  931MOL0     C25562   1.727  -0.162   2.398  0.5878 -0.3443  0.1681
  931MOL0     C25563   1.708  -0.308   2.423 -0.0087 -0.2703 -0.5291
  931MOL0     C25564   1.679  -0.347   2.570 -0.0160 -0.2009 -0.1684
  931MOL0     C25565   1.659  -0.499   2.580 -0.0970 -0.3386  0.1792
  931MOL0     C25566   1.792  -0.574   2.576  0.0107 -0.9373  0.1789
  931MOL0     N25567   1.765  -0.710   2.535 -1.1082  0.3643  0.4777
  931MOL0     C25568   1.818  -0.757   2.418  0.0274  0.8554 -0.1441
  931MOL0     C25569   1.783  -0.886   2.426 -0.4952  0.6772 -0.0175
  931MOL0     C25570   1.830  -0.987   2.339 -0.2026  1.0471 -0.0417
  931MOL0     C25571   1.959  -1.033   2.416  0.6514 -0.8951 -0.1371
  931MOL0     C25572   2.041  -1.141   2.356  0.3734  0.1660  0.3162
  931MOL0     C25573   2.115  -1.099   2.221 -0.4512  0.6340 -0.2481
  931MOL0     O25574   2.188  -0.976   2.252  0.0721  0.4311  0.2185
  931MOL0     C25575   2.127  -0.865   2.204 -0.3725 -0.0623 -0.7107
  931MOL0     C25576   2.043  -0.850   2.095 -0.7373  0.1069  0.2022
  931MOL0     C25577   1.973  -0.737   2.062  0.4051 -0.0059 -0.7386
  931MOL0     C25578   1.997  -0.617   2.135 -0.5985  0.0134  0.1123
  931MOL0     C25579   1.923  -0.501   2.091 -0.2827 -0.5532 -0.4856
  931MOL0     O25580   1.823  -0.519   2.002 -0.5625  0.3656 -0.3437
  931MOL0     C25581   1.745  -0.412   1.976 -0.1845  0.0162 -0.2469
  931MOL0     C25582   1.742  -0.363   1.850  0.2302 -1.0744 -0.5890
  931MOL0     C25583   1.652  -0.261   1.817 -0.2831 -0.1442 -0.1075
  931MOL0     C25584   1.573  -0.200   1.912 -1.1219 -0.2370 -0.1398
  931MOL0     O25585   1.480  -0.104   1.888 -0.1511 -0.4556  0.0250
  931MOL0     C25586   1.461  -0.053   1.746 -0.3435  0.0904 -0.7470
  931MOL0     C25587   1.333   0.035   1.729  0.7139 -0.6279 -0.1442
  931MOL0     C25588   1.193  -0.026   1.744  0.0404 -1.0956  0.8291
  931MOL0     C25589   1.155  -0.128   1.644 -0.1487  0.3948  0.3271
  931MOL0     C25590   1.000  -0.159   1.639  0.1970  0.3252  0.5452
  931MOL0     C25591   0.985  -0.297   1.575 -0.3148 -0.5002 -0.6854
  931MOL0     C25592   0.833  -0.338   1.574  0.2081 -0.3442 -0.3142
  931MOL0     C25593   0.822  -0.493   1.576 -0.0208 -0.3898  0.3744
  931MOL0    Cl25594   0.847  -0.543   1.407 -0.4521 -0.3030 -0.1452
  931MOL0     C25595   1.590  -0.238   2.044  0.4178 -0.5967 -0.1928
  931MOL0     C25596   1.659  -0.354   2.070 -0.8959 -0.3626  0.3153
  931MOL0     O25597   1.949  -0.392   2.146  0.3328 -0.5659  0.0468
  931MOL0     C25598   2.100  -0.617   2.227  0.4101  0.7804  0.0840
  931MOL0     C25599   2.153  -0.742   2.265 -0.3889  0.1167  0.2621
  931MOL0     N25600   1.696  -0.911   2.531  0.4267 -0.0869 -0.3633
  931MOL0     N25601   1.694  -0.806   2.606  0.5758 -0.1373  0.9926
  931MOL0     C25602   1.914   0.343   2.761  0.0408  0.5885 -0.2346
  931MOL0     C25603   1.908   0.458   2.844 -0.4558 -1.0617 -1.2108
  931MOL0     C25604   1.878   0.834   2.993 -0.6279  0.0549  0.8314
  931MOL0     C25605   1.756   0.883   2.941  0.5606  0.9607 -0.1177
  931MOL0     C25606   1.745   1.020   2.890  0.5378  0.0661  0.2384
  931MOL0     C25607   1.858   1.104   2.895  0.2013  0.7368  0.6404
  931MOL0     O25608   1.831   1.222   2.838  0.3405 -0.2715 -0.0757
  931MOL0     C25609   1.926   1.320   2.850  0.9478 -0.6768 -0.5156
  931MOL0     C25610   2.012   1.344   2.730 -0.3307 -0.3639  0.3633
  931MOL0     C25611   2.098   1.226   2.693 -0.2672  0.5804  0.2172
  931MOL0     C25612   2.147   1.228   2.552 -0.1499  0.4270  0.5171
  931MOL0     C25613   2.047   1.181   2.453  0.9043  0.4548 -0.6792
  931MOL0     C25614   1.960   1.156   2.372 -0.3059 -0.3498  0.5783
  931MOL0     C25615   1.976   1.060   2.952  0.4439  0.3933 -0.6809
  931MOL0     C25616   1.984   0.925   3.011  0.8654 -0.0893 -0.2244
  931MOL0     C25617   2.121   0.898   3.058 -0.0817 -0.1017 -0.1619
  931MOL0     H25618   1.602   0.416   2.974  0.5418 -0.3390  1.2631
  931MOL0     H25619   1.611   0.229   2.815  2.1778 -3.1420  0.1809
  931MOL0     H25620   1.899   0.258   2.505 -1.5152  0.9509  0.8479
  931MOL0     H25621   1.993   0.134   2.589  1.3348  3.0815 -1.2028
  931MOL0     H25622   1.928   0.022   2.355 -0.4094  2.1084 -0.8598
  931MOL0     H25623   1.781   0.077   2.379  1.7488  1.4966 -1.4415
  931MOL0     H25624   1.753  -0.077   2.594 -2.7101 -2.7007 -2.0798
  931MOL0     H25625   1.903  -0.152   2.518 -1.2273 -1.7424 -0.9069
  931MOL0     H25626   1.628  -0.116   2.391 -0.2387 -1.8673  1.2698
  931MOL0     H25627   1.766  -0.154   2.296 -2.1287  3.4102 -0.8107
  931MOL0     H25628   1.626  -0.342   2.359  0.4390  1.1049 -1.9027
  931MOL0     H25629   1.801  -0.355   2.390  0.0860  0.1127 -0.8160
  931MOL0     H25630   1.754  -0.314   2.644 -2.8014  1.8100  2.0029
  931MOL0     H25631   1.597  -0.295   2.621  1.5456  1.3112  0.9353
  931MOL0     H25632   1.583  -0.521   2.504  0.8406  0.3463 -0.9859
  931MOL0     H25633   1.607  -0.522   2.674  0.4863 -0.0157  0.5829
  931MOL0     H25634   1.862  -0.535   2.502  2.0837 -2.5085  1.1866
  931MOL0     H25635   1.842  -0.589   2.673  1.1902 -3.7221 -0.7495
  931MOL0     H25636   1.884  -0.704   2.350  0.7996 -2.2266 -2.0028
  931MOL0     H25637   1.762  -1.072   2.333  1.3314 -0.0992 -3.2813
  931MOL0     H25638   1.844  -0.954   2.236 -2.3375  2.3792  0.0489
  931MOL0     H25639   2.033  -0.959   2.448  1.6699 -2.7714  2.1699
  931MOL0     H25640   1.914  -1.074   2.507  0.1310 -0.6996 -0.2993
  931MOL0     H25641   1.982  -1.231   2.335  2.1887 -0.8354 -0.7996
  931MOL0     H25642   2.126  -1.165   2.421  0.2514 -0.1646  0.3589
  931MOL0     H25643   2.040  -1.098   2.142 -1.0275 -1.4997  0.1954
  931MOL0     H25644   2.176  -1.187   2.199  0.0763 -0.1038  3.3894
  931MOL0     H25645   2.035  -0.926   2.018  2.3486  0.6063 -0.7614
  931MOL0     H25646   1.915  -0.733   1.971  3.1374 -0.4693 -2.6271
  931MOL0     H25647   1.803  -0.400   1.768  0.9056  1.8768 -1.5097
  931MOL0     H25648   1.647  -0.237   1.712 -0.7041  1.2149  0.2030
  931MOL0     H25649   1.545   0.011   1.717 -1.4669  3.1824  2.0464
  931MOL0     H25650   1.459  -0.132   1.671 -3.5119 -1.5023  0.8105
  931MOL0     H25651   1.346   0.119   1.797  1.5783 -2.1330  1.6271
  931MOL0     H25652   1.351   0.086   1.634 -0.3913 -1.0771 -0.6123
  931MOL0     H25653   1.185  -0.064   1.846  0.4854  0.2847  1.4063
  931MOL0     H25654   1.123   0.058   1.737  0.5165 -0.0109  5.5268
  931MOL0     H25655   1.218  -0.213   1.668  0.3523  0.8471  0.6458
  931MOL0     H25656   1.180  -0.085   1.547  2.5220 -1.9368 -0.1341
  931MOL0     H25657   0.947  -0.079   1.586 -4.1735 -1.5802  1.6844
  931MOL0     H25658   0.962  -0.158   1.741  0.0937  0.9826  0.5074
  931MOL0     H25659   1.023  -0.306   1.473 -0.8977 -1.8255 -0.8211
  931MOL0     H25660   1.048  -0.364   1.634  1.1253  0.8174 -0.6940
  931MOL0     H25661   0.787  -0.286   1.489 -0.6405  0.0725  0.3845
  931MOL0     H25662   0.786  -0.307   1.668  1.5997  1.7352 -0.2445
  931MOL0     H25663   0.909  -0.529   1.631 -0.1285  1.0788  1.5671
  931MOL0     H25664   0.733  -0.530   1.628  1.0454 -2.4527  0.8775
  931MOL0     H25665   1.548  -0.184   2.129 -2.8757 -1.5476 -1.0668
  931MOL0     H25666   1.664  -0.412   2.161 -1.2867  0.8710  1.1444
  931MOL0     H25667   2.130  -0.526   2.277 -1.5411  0.3180  2.2556
  931MOL0     H25668   2.214  -0.742   2.355 -3.2509  0.8438  2.3664
  931MOL0     H25669   2.000   0.331   2.695  2.2832 -1.7166  2.8332
  931MOL0     H25670   1.997   0.519   2.843 -0.0281 -1.6718 -0.6355
  931MOL0     H25671   1.669   0.819   2.927  2.5959 -2.1978  0.6739
  931MOL0     H25672   1.650   1.049   2.846  0.5830 -1.9245 -1.3495
  931MOL0     H25673   1.990   1.308   2.938  2.4599  1.0990 -1.2843
  931MOL0     H25674   1.871   1.413   2.867 -3.0886 -2.8201 -0.8989
  931MOL0     H25675   2.082   1.421   2.764 -0.0412 -0.0564 -0.8738
  931MOL0     H25676   1.951   1.389   2.652  0.0702  2.3568  1.4977
  931MOL0     H25677   2.037   1.135   2.692 -0.6448  0.8288 -0.8646
  931MOL0     H25678   2.190   1.216   2.751 -1.1958  2.9141  2.2580
  931MOL0     H25679   2.179   1.332   2.534  3.4014 -0.3132  1.7810
  931MOL0     H25680   2.238   1.167   2.557 -0.0931 -0.0927 -3.5331
  931MOL0     H25681   1.896   1.135   2.289  1.8606 -0.6438 -1.1027
  931MOL0     H25682   2.068   1.116   2.961 -0.0708  0.9196  2.1016
  931MOL0     H25683   2.155   0.795   3.053  3.6583  0.8984  1.3453
  931MOL0     H25684   2.195   0.969   3.019 -0.9080 -0.1540 -1.9502
  931MOL0     H25685   2.112   0.908   3.166 -0.4947 -0.4557 -0.1613
  932MOL0     O25686  10.479   7.814   4.348 -0.2692  0.1369 -0.8815
  932MOL0     C25687  10.370   7.779   4.398 -0.1919 -0.8758 -0.0501
  932MOL0     O25688  10.356   7.683   4.494 -0.8208 -0.1588  0.2053
  932MOL0     C25689  10.456   7.613   4.559  0.6828 -0.7464  0.2330
  932MOL0     C25690  10.571   7.566   4.506 -0.4240  0.3762  0.0582
  932MOL0     C25691  10.651   7.472   4.575  0.5697  0.3166  1.4454
  932MOL0     C25692  10.605   7.437   4.701 -0.8407  0.1275 -0.1879
  932MOL0     O25693  10.690   7.345   4.762  0.6253 -0.8260  0.1650
  932MOL0     C25694  10.668   7.308   4.895  0.1436 -0.2416 -0.3421
  932MOL0     C25695  10.781   7.211   4.921 -0.0972  0.0075 -0.5435
  932MOL0     C25696  10.791   7.175   5.064 -0.6507  0.0635 -0.1771
  932MOL0     C25697  10.898   7.058   5.087  0.3851 -0.3453  0.2461
  932MOL0     C25698  10.910   7.038   5.236  1.2948 -0.6275 -0.5558
  932MOL0     C25699  11.024   6.939   5.279 -0.1421 -0.3267  0.2412
  932MOL0     C25700  11.069   6.956   5.429 -0.6494 -0.1523 -0.1866
  932MOL0     C25701  11.194   6.870   5.454  0.4102  0.1659 -0.0363
  932MOL0     N25702  11.161   6.725   5.428  1.1562  0.3509  0.3673
  932MOL0     C25703  11.055   6.658   5.491  0.1154 -1.0552  0.0686
  932MOL0     C25704  11.055   6.541   5.425  0.3150 -0.6345  0.5842
  932MOL0     C25705  10.985   6.418   5.474  0.5242 -0.3712 -0.8908
  932MOL0     C25706  11.020   6.354   5.610 -0.9259  0.1606  0.0053
  932MOL0     C25707  11.021   6.445   5.729  0.5261 -1.5832 -1.0028
  932MOL0     C25708  11.044   6.391   5.864 -0.2893  0.0778 -0.5554
  932MOL0     O25709  10.962   6.273   5.882  0.5858 -1.8555 -0.2229
  932MOL0     C25710  10.987   6.195   5.999  0.5434 -0.2958  0.3477
  932MOL0     C25711  11.073   6.239   6.097 -0.8989  0.1277 -0.7610
  932MOL0     C25712  11.107   6.160   6.208  0.2648  0.4561 -0.4123
  932MOL0     C25713  11.051   6.028   6.226 -0.1284  0.8036 -0.4194
  932MOL0     C25714  11.092   5.940   6.350  0.4917 -0.7507 -0.2191
  932MOL0     O25715  11.051   5.810   6.352 -0.1328 -0.2330  0.1942
  932MOL0     C25716  11.115   5.744   6.451  0.6462 -0.1485 -0.9604
  932MOL0     C25717  11.040   5.732   6.566  0.2687 -0.5067  0.3662
  932MOL0     C25718  11.074   5.657   6.677  0.2500 -0.2656  0.4693
  932MOL0     C25719  11.190   5.581   6.661 -0.1026 -0.0405  1.5556
  932MOL0     O25720  11.245   5.494   6.755 -0.1822 -0.4653  0.2242
  932MOL0     C25721  11.218   5.545   6.886  0.4503 -0.0349 -0.3221
  932MOL0     C25722  11.301   5.465   6.988  0.4526  0.3866  0.0330
  932MOL0     C25723  11.231   5.325   7.009 -0.3553 -0.3076 -0.0925
  932MOL0     C25724  11.325   5.243   7.091  0.0501 -1.2360 -0.5886
  932MOL0     C25725  11.331   5.097   7.050 -0.4518 -0.0242 -0.0385
  932MOL0     C25726  11.399   4.994   7.143  0.5073 -0.1966 -0.9905
  932MOL0     C25727  11.553   5.015   7.149  0.2472 -0.2319 -0.0906
  932MOL0     C25728  11.636   4.899   7.183 -0.5381  0.0735  0.0547
  932MOL0    Cl25729  11.618   4.768   7.069  0.2080  0.0375  0.5100
  932MOL0     C25730  11.265   5.589   6.544  0.4362  0.1728 -0.2446
  932MOL0     C25731  11.236   5.676   6.439 -0.3942  0.0999 -0.1316
  932MOL0     O25732  11.154   6.002   6.439  0.0385  0.6778  0.1458
  932MOL0     C25733  10.967   5.986   6.114  0.0620  1.2012 -0.3222
  932MOL0     C25734  10.947   6.062   5.997  0.0785 -0.1150  0.6981
  932MOL0     N25735  11.145   6.539   5.326 -0.0608 -0.1347  0.1268
  932MOL0     N25736  11.210   6.652   5.319 -0.3168 -0.3269  0.2417
  932MOL0     C25737  10.493   7.497   4.762  0.9380  0.2685  0.0054
  932MOL0     C25738  10.420   7.592   4.696  0.3511  0.2899  0.1384
  932MOL0     C25739  10.258   7.835   4.331 -0.2482 -0.4476  0.7664
  932MOL0     C25740  10.166   7.897   4.414 -0.3674 -0.1954 -0.8308
  932MOL0     C25741  10.054   7.960   4.358  0.5371 -0.4091  1.0530
  932MOL0     C25742  10.032   7.961   4.220 -0.9025  0.2503  0.8090
  932MOL0     O25743   9.916   8.010   4.172  0.8446  0.1750  0.5710
  932MOL0     C25744   9.882   8.010   4.036  0.3718  0.0643  0.4441
  932MOL0     C25745   9.963   8.138   3.977 -0.3832  0.9382  0.5085
  932MOL0     C25746   9.913   8.273   4.043  0.3691  0.1783  0.4658
  932MOL0     C25747   9.768   8.318   4.009 -0.1745 -0.0933  0.4005
  932MOL0     C25748   9.742   8.316   3.866 -0.6341 -0.6688 -0.2876
  932MOL0     C25749   9.726   8.306   3.740 -0.7916  0.0955 -1.2610
  932MOL0     C25750  10.125   7.899   4.134 -0.6791  0.1863  0.3576
  932MOL0     C25751  10.242   7.844   4.188 -0.4997  0.1302 -0.6868
  932MOL0     C25752  10.320   7.767   4.083  0.1489 -0.2004 -0.0178
  932MOL0     H25753  10.579   7.572   4.398  0.9640 -0.3544  0.1105
  932MOL0     H25754  10.744   7.434   4.535  0.4695 -0.4204  1.9009
  932MOL0     H25755  10.678   7.386   4.971 -1.1361 -2.5954  2.4780
  932MOL0     H25756  10.575   7.254   4.920  0.9693 -0.6954  1.9945
  932MOL0     H25757  10.876   7.256   4.889 -0.6839 -0.4662 -3.2187
  932MOL0     H25758  10.774   7.118   4.864 -2.2477 -0.2966  0.1306
  932MOL0     H25759  10.693   7.151   5.107 -0.3239 -0.5799  0.2318
  932MOL0     H25760  10.833   7.258   5.122  2.4555 -2.7679  2.0569
  932MOL0     H25761  10.854   6.967   5.043  0.0510  0.5487 -1.3388
  932MOL0     H25762  10.994   7.065   5.035 -2.1488  0.7594 -4.9873
  932MOL0     H25763  10.915   7.134   5.288  0.1866 -0.8360 -0.0299
  932MOL0     H25764  10.816   7.000   5.277  2.2391  1.4992  4.2522
  932MOL0     H25765  10.999   6.834   5.261 -0.1792  0.0387 -2.2041
  932MOL0     H25766  11.117   6.967   5.228 -0.4184 -0.0630 -0.1286
  932MOL0     H25767  10.990   6.926   5.498 -0.4005 -2.2118 -0.7403
  932MOL0     H25768  11.102   7.060   5.429 -1.2586  0.1247 -3.0587
  932MOL0     H25769  11.261   6.900   5.373 -1.2227 -4.4397 -3.5717
  932MOL0     H25770  11.232   6.879   5.556 -0.3072  1.4784  0.1373
  932MOL0     H25771  11.000   6.697   5.576  0.9848  0.4990 -0.0482
  932MOL0     H25772  10.878   6.442   5.475  0.5488 -0.0670  1.6615
  932MOL0     H25773  11.007   6.339   5.402 -0.4594 -0.6144 -0.9499
  932MOL0     H25774  10.955   6.267   5.622 -1.1486 -0.2114 -3.1286
  932MOL0     H25775  11.119   6.310   5.606 -1.2723 -0.5354 -1.5713
  932MOL0     H25776  10.933   6.509   5.735  0.6692 -1.3824 -1.0214
  932MOL0     H25777  11.107   6.511   5.711  0.1440 -1.4252 -2.4420
  932MOL0     H25778  11.022   6.463   5.944 -3.1490 -1.6200  0.3461
  932MOL0     H25779  11.151   6.371   5.874  0.8528  4.8530 -0.7368
  932MOL0     H25780  11.112   6.340   6.102  0.6367 -0.3335 -2.4712
  932MOL0     H25781  11.165   6.193   6.293 -0.8346  1.2529  0.0609
  932MOL0     H25782  10.946   5.787   6.567 -0.0767 -1.0815  1.2245
  932MOL0     H25783  11.017   5.672   6.768  1.3049 -0.4486  1.1694
  932MOL0     H25784  11.254   5.648   6.877  4.8427 -1.5290 -4.1068
  932MOL0     H25785  11.110   5.538   6.896  0.4886 -1.7702 -0.8457
  932MOL0     H25786  11.401   5.458   6.946  0.6267  1.1753  0.3059
  932MOL0     H25787  11.304   5.528   7.077 -3.3044  2.4629 -1.0825
  932MOL0     H25788  11.135   5.330   7.060  0.6119  0.8504  1.7279
  932MOL0     H25789  11.211   5.281   6.910 -0.9149 -0.0413 -0.1017
  932MOL0     H25790  11.305   5.246   7.199 -0.2147 -0.5091 -0.6531
  932MOL0     H25791  11.428   5.278   7.075 -0.3576  0.4166  0.1333
  932MOL0     H25792  11.375   5.085   6.951 -0.6838 -0.7176 -0.0618
  932MOL0     H25793  11.233   5.053   7.030  1.1793 -3.5579 -1.0957
  932MOL0     H25794  11.362   4.993   7.246  1.5062  1.0257 -0.6021
  932MOL0     H25795  11.401   4.896   7.094 -0.6529 -1.0498  0.5378
  932MOL0     H25796  11.582   5.085   7.228  0.2222 -1.4150  1.0005
  932MOL0     H25797  11.588   5.043   7.049  1.4462  1.2060  0.6792
  932MOL0     H25798  11.736   4.940   7.171 -0.6610  0.0828 -1.1212
  932MOL0     H25799  11.616   4.872   7.287  1.2631  2.2424  1.0304
  932MOL0     H25800  11.360   5.537   6.535 -1.2729 -3.0673 -1.0397
  932MOL0     H25801  11.308   5.666   6.359  2.2196 -0.2772  2.1293
  932MOL0     H25802  10.933   5.883   6.110 -1.6151  1.6736  0.7425
  932MOL0     H25803  10.902   6.005   5.916  0.5671 -2.3745  1.9504
  932MOL0     H25804  10.465   7.485   4.866 -1.7037  0.2709 -0.6459
  932MOL0     H25805  10.331   7.646   4.729 -0.5548 -0.7260 -0.5614
  932MOL0     H25806  10.177   7.903   4.522 -3.9667 -0.3621 -0.3391
  932MOL0     H25807   9.977   8.010   4.417  1.0336  1.4401  0.2244
  932MOL0     H25808   9.778   8.039   4.019  1.2612  2.7089 -1.0450
  932MOL0     H25809   9.890   7.912   3.988 -1.5438  0.0583  0.0607
  932MOL0     H25810   9.944   8.152   3.870  1.2371  3.3130  0.4554
  932MOL0     H25811  10.069   8.116   3.991 -0.4152  0.4139 -0.0347
  932MOL0     H25812   9.990   8.344   4.010 -1.5634  1.6794 -1.0604
  932MOL0     H25813   9.924   8.266   4.151  3.5820  3.1042  0.4950
  932MOL0     H25814   9.700   8.246   4.056 -0.7186 -0.0379 -0.2978
  932MOL0     H25815   9.747   8.411   4.063  2.9945  1.2507 -0.4470
  932MOL0     H25816   9.728   8.323   3.634  2.3513  1.0820 -1.1503
  932MOL0     H25817  10.094   7.880   4.031 -3.6659  1.4720  0.9032
  932MOL0     H25818  10.427   7.782   4.097  0.0108 -0.1334  0.9843
  932MOL0     H25819  10.299   7.664   4.114  1.7352 -0.5919 -0.1758
  932MOL0     H25820  10.275   7.799   3.989  2.2574  0.0826 -0.9953
  933MOL0     O25821   0.733   7.886   9.973  0.7777  0.1067 -0.1309
  933MOL0     C25822   0.660   7.933   9.889 -0.8024 -0.0753 -0.1307
  933MOL0     O25823   0.635   7.879   9.756  0.7163 -1.3974  0.0546
  933MOL0     C25824   0.727   7.802   9.699  0.3281 -0.9024  0.1061
  933MOL0     C25825   0.856   7.798   9.734 -0.6134  0.4825  0.3510
  933MOL0     C25826   0.952   7.713   9.668  0.0866  0.9180  0.3798
  933MOL0     C25827   0.917   7.627   9.558  0.5134  0.2790  1.2659
  933MOL0     O25828   0.996   7.543   9.478  0.5592 -0.2883 -0.3366
  933MOL0     C25829   1.140   7.535   9.502  0.1040  0.4385 -1.1332
  933MOL0     C25830   1.212   7.402   9.473  0.5041  1.1766  0.5443
  933MOL0     C25831   1.139   7.283   9.559  0.7683 -0.2673  0.0984
  933MOL0     C25832   1.218   7.161   9.528  0.4857  0.0365 -0.2229
  933MOL0     C25833   1.146   7.043   9.583 -1.2577  0.2413  0.1702
  933MOL0     C25834   1.223   6.914   9.546 -0.0041  0.1057 -0.0900
  933MOL0     C25835   1.132   6.790   9.564 -0.3031  0.1560 -0.3428
  933MOL0     C25836   1.100   6.749   9.708  0.9100 -0.6737  1.2031
  933MOL0     N25837   0.989   6.657   9.712  0.6354  0.3777 -0.3236
  933MOL0     C25838   0.876   6.671   9.789 -0.0105 -0.3968  0.6229
  933MOL0     C25839   0.786   6.577   9.747  0.1393  0.5943  0.3157
  933MOL0     C25840   0.646   6.561   9.796 -0.3818  1.2441  0.4830
  933MOL0     C25841   0.601   6.420   9.758  0.3462  0.4641 -0.0479
  933MOL0     C25842   0.463   6.401   9.817 -0.4437  0.5013  0.3333
  933MOL0     C25843   0.442   6.254   9.853  0.6932  0.4943  0.6375
  933MOL0     O25844   0.314   6.217   9.899 -0.1788  0.0067  0.1264
  933MOL0     C25845   0.282   6.087   9.888  0.3427 -0.6580  0.3061
  933MOL0     C25846   0.196   6.031   9.794 -0.2589 -0.1136  0.6916
  933MOL0     C25847   0.175   5.891   9.778  0.6688 -0.8651  0.5043
  933MOL0     C25848   0.221   5.803   9.874  0.0857  0.2221  0.8609
  933MOL0     C25849   0.197   5.656   9.871  0.8776 -0.1183 -0.2812
  933MOL0     O25850   0.169   5.608   9.746 -0.4992  0.8896 -1.0849
  933MOL0     C25851   0.111   5.490   9.721  0.2152  0.8627 -0.0307
  933MOL0     C25852   0.109   5.449   9.590  0.3894 -0.0641  0.5646
  933MOL0     C25853   0.061   5.326   9.540 -0.3153  0.7320 -0.0552
  933MOL0     C25854   0.005   5.244   9.637  0.6555 -0.0181 -0.5639
  933MOL0     O25855  -0.051   5.125   9.599  0.2449 -0.5853  0.2431
  933MOL0     C25856   0.001   5.002   9.661 -0.8561 -0.4000 -0.1592
  933MOL0     C25857   0.021   4.892   9.556 -0.3753 -0.8400 -0.2684
  933MOL0     C25858   0.091   4.939   9.429  0.3371 -0.2988 -0.0391
  933MOL0     C25859   0.164   4.830   9.358  0.7223 -0.2899  0.1557
  933MOL0     C25860   0.298   4.790   9.420  0.0999  0.1975  0.8952
  933MOL0     C25861   0.378   4.702   9.327  0.2716 -0.0404 -0.2094
  933MOL0     C25862   0.525   4.670   9.378 -0.1207  0.4108  0.5627
  933MOL0     C25863   0.520   4.576   9.493 -1.1895  0.2040 -1.0070
  933MOL0    Cl25864   0.686   4.531   9.533 -0.8154 -0.0956 -0.2564
  933MOL0     C25865  -0.020   5.283   9.776 -0.5044 -0.3390 -0.6677
  933MOL0     C25866   0.039   5.401   9.823 -0.5925 -1.1598 -0.0125
  933MOL0     O25867   0.200   5.591   9.980 -0.1508 -0.2036 -0.4619
  933MOL0     C25868   0.296   5.858   9.981  0.4857  0.3934  0.3135
  933MOL0     C25869   0.336   5.997   9.981  0.1956 -0.2890 -0.3179
  933MOL0     N25870   0.852   6.502   9.649 -0.3631  0.2042 -0.3050
  933MOL0     N25871   0.967   6.553   9.626 -0.6135  0.3345  0.2366
  933MOL0     C25872   0.775   7.631   9.530 -0.5494 -1.1755 -0.0023
  933MOL0     C25873   0.691   7.718   9.599  0.3105 -0.4225  0.7796
  933MOL0     C25874   0.587   8.063   9.908  0.1971 -0.1072 -0.2158
  933MOL0     C25875   0.591   8.151   9.800 -0.2080  0.8162  0.3085
  933MOL0     C25876   0.518   8.269   9.823 -0.7554 -0.5318  0.0167
  933MOL0     C25877   0.472   8.316   9.944 -0.2964  0.3639  0.7403
  933MOL0     O25878   0.391   8.428   9.949 -0.0114 -0.2169  0.3620
  933MOL0     C25879   0.316   8.470  10.065 -0.3959  0.6343  0.1462
  933MOL0     C25880   0.405   8.549  10.166 -0.2411 -0.4626  0.0781
  933MOL0     C25881   0.454   8.682  10.103  0.2499  0.0934  0.8160
  933MOL0     C25882   0.416   8.811  10.181 -0.2512  0.2087 -0.3177
  933MOL0     C25883   0.277   8.853  10.160  0.7079  1.7072 -0.2594
  933MOL0     C25884   0.166   8.870  10.111  0.2302 -0.4117 -0.5178
  933MOL0     C25885   0.488   8.231  10.056  0.1730 -0.1468  0.2182
  933MOL0     C25886   0.531   8.100  10.035 -1.1474  0.6268 -0.1041
  933MOL0     C25887   0.540   8.011  10.157  0.9841  0.6969 -0.4293
  933MOL0     H25888   0.913   7.860   9.804  2.1495 -0.5503 -0.8256
  933MOL0     H25889   1.054   7.719   9.705  0.0255 -0.9509  0.9576
  933MOL0     H25890   1.199   7.604   9.441 -0.3371  2.0314  0.1379
  933MOL0     H25891   1.170   7.546   9.607 -0.4258 -0.6862 -0.8564
  933MOL0     H25892   1.319   7.414   9.490  1.1531 -2.7499  0.0630
  933MOL0     H25893   1.199   7.385   9.366 -0.2724  0.4100  0.7495
  933MOL0     H25894   1.037   7.274   9.521  0.3105  1.8532  0.7391
  933MOL0     H25895   1.118   7.313   9.662 -0.4587  0.6846 -0.4149
  933MOL0     H25896   1.252   7.146   9.425  5.7343  3.8086  0.5344
  933MOL0     H25897   1.316   7.166   9.575  1.0518  0.1572 -1.3692
  933MOL0     H25898   1.138   7.042   9.692 -4.1536 -4.0105  0.1589
  933MOL0     H25899   1.046   7.031   9.540 -0.7625 -0.3159 -0.8402
  933MOL0     H25900   1.248   6.911   9.439  0.1550  2.2343 -0.1559
  933MOL0     H25901   1.316   6.898   9.601 -1.0363 -2.8360  0.9610
  933MOL0     H25902   1.170   6.699   9.517  0.5533  0.6545 -0.6435
  933MOL0     H25903   1.032   6.814   9.526 -1.2124  0.1794  1.9121
  933MOL0     H25904   1.190   6.694   9.736  3.1612  0.9823 -2.0642
  933MOL0     H25905   1.092   6.841   9.768  0.8516 -0.1476  0.4088
  933MOL0     H25906   0.849   6.757   9.851  0.5399  0.6513 -0.5401
  933MOL0     H25907   0.647   6.582   9.903 -2.4047 -0.6429  0.9558
  933MOL0     H25908   0.589   6.638   9.744 -0.4582  0.9663  0.1490
  933MOL0     H25909   0.592   6.401   9.651  0.1065 -2.1467  0.3823
  933MOL0     H25910   0.681   6.351   9.787 -0.6176 -2.1896 -3.1559
  933MOL0     H25911   0.387   6.433   9.745  1.7824  2.2385 -1.3878
  933MOL0     H25912   0.452   6.465   9.906  1.0204  1.5459 -0.1915
  933MOL0     H25913   0.517   6.223   9.927  1.0706  1.0610  0.4989
  933MOL0     H25914   0.478   6.194   9.770 -0.0400 -1.2955  1.5412
  933MOL0     H25915   0.155   6.095   9.717 -1.9995 -2.4767 -0.4468
  933MOL0     H25916   0.104   5.849   9.708  2.7925 -0.9028 -1.7642
  933MOL0     H25917   0.169   5.503   9.517 -1.1818  1.0499  0.0464
  933MOL0     H25918   0.073   5.287   9.439  1.7102 -2.4521  1.2414
  933MOL0     H25919   0.096   5.034   9.703 -1.8972  3.9911 -0.6899
  933MOL0     H25920  -0.077   4.960   9.726 -0.5924  2.0416  1.8615
  933MOL0     H25921   0.073   4.807   9.602 -1.4054 -2.0892 -1.3229
  933MOL0     H25922  -0.077   4.853   9.527 -0.1899 -1.4382 -0.1122
  933MOL0     H25923   0.011   4.994   9.378 -1.8671  0.5647  3.9297
  933MOL0     H25924   0.159   5.023   9.445  1.7957 -1.0026 -2.1871
  933MOL0     H25925   0.175   4.864   9.255 -1.6741  1.3207  0.3224
  933MOL0     H25926   0.093   4.747   9.356 -1.8814  1.7758  0.7024
  933MOL0     H25927   0.277   4.734   9.511  0.7768 -4.4436 -1.5069
  933MOL0     H25928   0.364   4.878   9.425 -0.4914  1.0602 -2.9654
  933MOL0     H25929   0.318   4.613   9.308 -3.1230  2.4977 -2.6233
  933MOL0     H25930   0.375   4.756   9.232 -1.8835  0.7234  0.2552
  933MOL0     H25931   0.577   4.762   9.409  2.2923 -0.3662 -0.9358
  933MOL0     H25932   0.589   4.622   9.304 -1.6454 -0.0597 -0.5024
  933MOL0     H25933   0.482   4.636   9.576 -1.1300  0.0232 -0.8510
  933MOL0     H25934   0.457   4.490   9.471  0.4613 -0.9413 -1.4131
  933MOL0     H25935  -0.069   5.214   9.843 -1.2299 -1.0407 -1.8811
  933MOL0     H25936   0.023   5.433   9.925 -0.1727  1.8299 -0.7866
  933MOL0     H25937   0.324   5.806  10.072 -2.4302 -1.1560  0.4621
  933MOL0     H25938   0.396   6.022  10.068  1.4607  0.1929 -1.3006
  933MOL0     H25939   0.734   7.577   9.445  1.2053  0.1921 -1.7885
  933MOL0     H25940   0.587   7.708   9.570  0.6215  1.3878 -1.1727
  933MOL0     H25941   0.640   8.128   9.706 -1.4833  1.0644 -0.4545
  933MOL0     H25942   0.521   8.341   9.742  0.3833  0.2525  0.7294
  933MOL0     H25943   0.281   8.384  10.122  2.1896  0.6223  1.8558
  933MOL0     H25944   0.225   8.521  10.033 -1.5798 -0.7015  1.2643
  933MOL0     H25945   0.494   8.487  10.183 -0.4366 -0.2451  2.0945
  933MOL0     H25946   0.352   8.577  10.257  0.3301 -1.0834  0.6155
  933MOL0     H25947   0.426   8.682   9.997 -0.3577  0.9547  0.9656
  933MOL0     H25948   0.563   8.679  10.104  0.2351 -0.6566  1.1053
  933MOL0     H25949   0.453   8.807  10.284  0.5342 -0.1208 -0.6048
  933MOL0     H25950   0.471   8.899  10.148  0.3776  0.0731  0.3516
  933MOL0     H25951   0.077   8.884  10.053  1.2527 -1.0615 -2.3161
  933MOL0     H25952   0.458   8.274  10.151 -2.7729  0.5027 -0.8871
  933MOL0     H25953   0.617   8.055  10.222  0.9445 -0.5648  0.5021
  933MOL0     H25954   0.438   8.002  10.196  0.6818 -2.3790 -1.6572
  933MOL0     H25955   0.564   7.905  10.143  3.4267  1.1059  0.0494
  934MOL0     O25956   7.400   3.053   9.267 -0.5497 -0.0945 -0.3744
  934MOL0     C25957   7.403   3.151   9.202  0.1882  0.4232 -0.0407
  934MOL0     O25958   7.517   3.204   9.138 -0.5711 -0.7347 -0.4921
  934MOL0     C25959   7.646   3.162   9.172  0.1584  0.2889 -0.5752
  934MOL0     C25960   7.700   3.047   9.131  0.3562  0.0780 -0.4856
  934MOL0     C25961   7.831   3.022   9.155 -0.2766  0.1501  0.1319
  934MOL0     C25962   7.911   3.100   9.230  0.5186 -0.6043  0.1672
  934MOL0     O25963   8.046   3.084   9.255  0.3951 -0.2938  0.4389
  934MOL0     C25964   8.119   2.956   9.223  0.7168  0.0603  0.9568
  934MOL0     C25965   8.266   2.981   9.256  1.0607 -0.2996  0.2115
  934MOL0     C25966   8.309   2.949   9.404 -0.5724  0.5825 -0.2342
  934MOL0     C25967   8.467   2.919   9.403  1.0843 -0.3470  0.1899
  934MOL0     C25968   8.528   2.986   9.534  0.6428  0.1738 -0.3355
  934MOL0     C25969   8.556   3.131   9.525 -0.3370 -0.1665 -0.1312
  934MOL0     C25970   8.663   3.185   9.423  0.2171  0.0026 -0.1540
  934MOL0     C25971   8.775   3.267   9.489 -0.1254  0.0518  0.5736
  934MOL0     N25972   8.865   3.327   9.382  0.0119  0.2098  0.4907
  934MOL0     C25973   8.995   3.391   9.398  0.4153  0.3688 -0.1344
  934MOL0     C25974   9.022   3.443   9.276 -0.7230 -0.4433 -0.1944
  934MOL0     C25975   9.152   3.514   9.235 -0.0420 -0.1488  0.7120
  934MOL0     C25976   9.267   3.424   9.203 -0.1506 -0.0863 -0.3777
  934MOL0     C25977   9.396   3.505   9.170  0.2000  0.3398 -0.3422
  934MOL0     C25978   9.506   3.405   9.115  0.2267 -0.9731  0.5600
  934MOL0     O25979   9.540   3.307   9.213 -0.2630 -1.1382 -0.9318
  934MOL0     C25980   9.532   3.175   9.180 -0.6040  0.9597 -0.0750
  934MOL0     C25981   9.426   3.090   9.201 -0.0565  0.3416  0.3007
  934MOL0     C25982   9.420   2.957   9.148 -0.3925  0.7442 -0.8562
  934MOL0     C25983   9.532   2.901   9.081  0.1490 -0.3993 -0.1217
  934MOL0     C25984   9.548   2.761   9.032 -0.2159 -0.4073  0.0543
  934MOL0     O25985   9.675   2.728   8.994 -0.0581  0.3615 -0.2130
  934MOL0     C25986   9.702   2.608   8.929  0.4924 -0.3324 -0.6830
  934MOL0     C25987   9.610   2.517   8.862 -0.2828  0.9107  0.1496
  934MOL0     C25988   9.664   2.400   8.803  1.1214  0.4477 -0.4454
  934MOL0     C25989   9.791   2.358   8.819 -0.9405 -0.2860 -0.3115
  934MOL0     O25990   9.854   2.247   8.762  0.4896 -0.4417  0.7882
  934MOL0     C25991   9.788   2.168   8.664  0.6554  0.1647 -1.0199
  934MOL0     C25992   9.680   2.075   8.717  0.4961  0.7158 -0.1235
  934MOL0     C25993   9.733   1.968   8.815  0.0970 -1.1329  0.0928
  934MOL0     C25994   9.619   1.885   8.884 -0.2872  0.0806 -0.0476
  934MOL0     C25995   9.670   1.771   8.964  0.0734  0.7549  1.4387
  934MOL0     C25996   9.560   1.738   9.060  0.4214  0.0047 -0.2174
  934MOL0     C25997   9.616   1.641   9.171 -0.7331 -0.2116 -0.1281
  934MOL0     C25998   9.503   1.572   9.247  0.2491  0.2719  0.1804
  934MOL0    Cl25999   9.565   1.531   9.408  0.0906  0.2446  0.0071
  934MOL0     C26000   9.878   2.443   8.894 -0.4437 -0.0984  0.6609
  934MOL0     C26001   9.836   2.565   8.935  0.1852 -0.0807  0.7176
  934MOL0     O26002   9.444   2.689   9.046 -1.0198 -1.0887  0.2351
  934MOL0     C26003   9.639   2.975   9.096 -0.2213  0.2038  0.1130
  934MOL0     C26004   9.641   3.114   9.132 -0.5470  0.5643 -0.4148
  934MOL0     N26005   8.916   3.417   9.192 -0.9524 -0.7529 -0.1472
  934MOL0     N26006   8.821   3.363   9.257 -0.3712 -0.5897 -0.2070
  934MOL0     C26007   7.849   3.213   9.285  0.4656  0.6452 -0.3998
  934MOL0     C26008   7.717   3.243   9.261 -0.3428 -0.3076 -0.7551
  934MOL0     C26009   7.285   3.244   9.193  0.3821 -0.0666 -0.1985
  934MOL0     C26010   7.312   3.385   9.173  0.5015  0.0435  0.0803
  934MOL0     C26011   7.209   3.475   9.162 -1.1286 -0.3669  0.0940
  934MOL0     C26012   7.073   3.433   9.169 -0.8897  0.7428  0.7096
  934MOL0     O26013   6.968   3.524   9.158 -0.4679  0.3685 -0.3937
  934MOL0     C26014   6.979   3.626   9.053  0.1146  0.1293  0.1772
  934MOL0     C26015   6.842   3.690   9.027  0.2302 -0.8263 -0.6735
  934MOL0     C26016   6.735   3.588   8.972  0.5767 -0.0501 -1.1295
  934MOL0     C26017   6.668   3.511   9.094  0.0640  0.3523  0.2987
  934MOL0     C26018   6.529   3.472   9.074 -0.2380 -0.1112  0.1106
  934MOL0     C26019   6.418   3.436   9.056  0.6951 -0.8259  0.9219
  934MOL0     C26020   7.045   3.299   9.210  0.1625  0.5780 -0.9348
  934MOL0     C26021   7.146   3.201   9.211  0.0757 -0.6793 -0.8591
  934MOL0     C26022   7.107   3.060   9.239 -0.4643  1.2730 -0.6456
  934MOL0     H26023   7.645   2.983   9.062 -0.8867 -1.2708  1.6503
  934MOL0     H26024   7.879   2.937   9.107 -1.1082  0.3807 -1.1444
  934MOL0     H26025   8.087   2.861   9.266  1.0668 -0.6608 -0.3109
  934MOL0     H26026   8.096   2.953   9.116  0.9563  0.2890  0.8977
  934MOL0     H26027   8.282   3.086   9.229 -4.4656 -0.2514 -4.9170
  934MOL0     H26028   8.325   2.906   9.203  1.4173 -0.5636  0.9751
  934MOL0     H26029   8.253   2.863   9.442  0.0165 -0.9504 -2.6321
  934MOL0     H26030   8.288   3.037   9.465 -2.9098 -0.6467  0.8505
  934MOL0     H26031   8.470   2.811   9.421  0.3321 -0.4244 -0.1165
  934MOL0     H26032   8.525   2.937   9.312  1.8732  1.3469  0.9736
  934MOL0     H26033   8.445   2.964   9.602  0.1632  0.0597 -0.9547
  934MOL0     H26034   8.623   2.938   9.562  0.4419  0.7298  1.4672
  934MOL0     H26035   8.463   3.181   9.496 -1.1690 -2.7066 -2.2390
  934MOL0     H26036   8.588   3.157   9.627 -2.0456  2.2702 -0.1406
  934MOL0     H26037   8.617   3.239   9.341 -0.6283  0.8663  0.8581
  934MOL0     H26038   8.714   3.096   9.384  0.0086 -0.9091  1.5488
  934MOL0     H26039   8.727   3.338   9.557  0.8377 -1.8434  3.4368
  934MOL0     H26040   8.844   3.209   9.551  2.7911  2.5186 -0.1106
  934MOL0     H26041   9.048   3.386   9.493 -2.0053 -0.8310  1.2536
  934MOL0     H26042   9.135   3.579   9.149 -2.3881 -0.1484  1.1152
  934MOL0     H26043   9.192   3.576   9.316  1.5892  3.6138 -2.6024
  934MOL0     H26044   9.286   3.366   9.293 -1.1309 -0.5215 -0.4343
  934MOL0     H26045   9.250   3.350   9.124  0.3270  0.5773 -1.1219
  934MOL0     H26046   9.432   3.559   9.257  2.9946 -0.4976 -0.8914
  934MOL0     H26047   9.377   3.588   9.101 -2.5053  2.3337  2.5496
  934MOL0     H26048   9.592   3.470   9.096  0.0261 -1.3003 -1.6992
  934MOL0     H26049   9.472   3.372   9.016  2.8343 -0.2420 -0.6794
  934MOL0     H26050   9.330   3.117   9.245  0.4562  0.7414  1.2006
  934MOL0     H26051   9.328   2.902   9.162 -0.8516  1.9575  1.4085
  934MOL0     H26052   9.511   2.550   8.832  0.0374  0.6775 -1.2316
  934MOL0     H26053   9.589   2.345   8.748  1.9521  0.0261 -1.1893
  934MOL0     H26054   9.744   2.227   8.584  0.3205 -1.4604 -2.0771
  934MOL0     H26055   9.867   2.107   8.620  0.9371  0.4308 -0.8865
  934MOL0     H26056   9.595   2.128   8.760  1.0347  1.8776 -0.4663
  934MOL0     H26057   9.647   2.022   8.628 -2.3707  1.4256  0.4231
  934MOL0     H26058   9.805   1.906   8.760  2.3249 -0.3125  1.9446
  934MOL0     H26059   9.790   2.018   8.894 -0.4199  2.6435 -1.6766
  934MOL0     H26060   9.557   1.836   8.808 -0.6161  1.6875 -0.8785
  934MOL0     H26061   9.557   1.952   8.943  0.4441 -0.2567  1.1234
  934MOL0     H26062   9.764   1.782   9.018  0.3232  0.2378  1.1138
  934MOL0     H26063   9.680   1.687   8.895  0.4489  0.9642  1.2339
  934MOL0     H26064   9.525   1.832   9.103 -2.6123 -0.7645 -0.7980
  934MOL0     H26065   9.481   1.682   9.009 -0.3779 -1.1073  2.1171
  934MOL0     H26066   9.676   1.700   9.241 -2.2326  0.7653  0.3941
  934MOL0     H26067   9.682   1.566   9.128  2.2396 -0.1178  3.7266
  934MOL0     H26068   9.409   1.628   9.256 -2.4648 -3.4982 -1.9968
  934MOL0     H26069   9.472   1.480   9.197  1.5253 -0.5770  0.8978
  934MOL0     H26070   9.975   2.400   8.917 -1.3808 -1.7079  1.8705
  934MOL0     H26071   9.910   2.629   8.982 -0.8601  1.6559  0.0812
  934MOL0     H26072   9.736   2.931   9.079  1.5728  4.1635 -0.9799
  934MOL0     H26073   9.732   3.172   9.135 -0.9115  1.1132  0.2848
  934MOL0     H26074   7.887   3.294   9.346  0.5094 -0.8178  1.6190
  934MOL0     H26075   7.692   3.331   9.319  1.3517 -1.2113  1.4859
  934MOL0     H26076   7.413   3.425   9.168  0.5269  0.4199  2.5450
  934MOL0     H26077   7.228   3.580   9.144  1.0460 -0.2941  2.3539
  934MOL0     H26078   7.004   3.568   8.963  0.2374 -1.3834  1.1406
  934MOL0     H26079   7.047   3.705   9.087  0.4044 -0.7287  1.7175
  934MOL0     H26080   6.854   3.772   8.955  2.0559  2.4094  2.9157
  934MOL0     H26081   6.804   3.734   9.119  2.7803 -0.4649  0.2925
  934MOL0     H26082   6.788   3.517   8.907  0.1470  0.4455 -2.0370
  934MOL0     H26083   6.650   3.631   8.919 -0.7506 -1.6657 -0.4106
  934MOL0     H26084   6.714   3.413   9.107 -5.1937 -2.4471  0.3876
  934MOL0     H26085   6.684   3.554   9.193  0.5288 -3.5088  2.0538
  934MOL0     H26086   6.316   3.405   9.054  0.5542 -0.3370 -0.2850
  934MOL0     H26087   6.940   3.276   9.226  0.5058 -1.2462 -1.0472
  934MOL0     H26088   7.109   3.039   9.347 -4.0010  1.4222 -0.4043
  934MOL0     H26089   7.004   3.051   9.203 -0.4456  1.4074 -0.7328
  934MOL0     H26090   7.162   2.983   9.187  0.2877  1.2198  0.2021
  935MOL0     O26091  10.874   8.735   0.830  0.2264 -0.2799 -0.4072
  935MOL0     C26092  10.754   8.720   0.809 -0.2593  0.0787  0.2185
  935MOL0     O26093  10.658   8.693   0.901 -0.3489 -0.4465 -0.7266
  935MOL0     C26094  10.695   8.612   1.002 -0.7236 -0.4987 -0.6241
  935MOL0     C26095  10.625   8.635   1.129 -0.1650  0.5011  1.1974
  935MOL0     C26096  10.673   8.568   1.245  0.4825 -0.2619 -1.1197
  935MOL0     C26097  10.772   8.463   1.233 -0.6533 -0.4650  0.1075
  935MOL0     O26098  10.793   8.373   1.338  0.1081  0.5549  0.3938
  935MOL0     C26099  10.880   8.425   1.434 -0.0841  0.5237  0.5993
  935MOL0     C26100  10.927   8.311   1.530  0.2202 -0.2152  0.1967
  935MOL0     C26101  11.047   8.236   1.469  0.0038  0.5331 -0.5181
  935MOL0     C26102  11.090   8.114   1.548 -0.3510 -0.0114  0.7640
  935MOL0     C26103  11.190   8.148   1.653 -1.3509 -0.6108 -0.4263
  935MOL0     C26104  11.248   8.017   1.716 -1.0417 -0.6348 -0.5556
  935MOL0     C26105  11.377   8.040   1.813  0.9633 -0.7775 -0.1945
  935MOL0     C26106  11.351   8.117   1.942  0.5169 -1.2159  0.0266
  935MOL0     N26107  11.477   8.158   1.999  0.5916 -0.0087  0.4675
  935MOL0     C26108  11.565   8.236   1.943 -0.0978 -0.7452  0.5025
  935MOL0     C26109  11.677   8.234   2.015  0.1806  0.3578 -0.1952
  935MOL0     C26110  11.808   8.306   1.998 -0.2152 -0.2537  0.1665
  935MOL0     C26111  11.888   8.244   1.888 -0.1455  0.8477  1.1519
  935MOL0     C26112  12.001   8.327   1.846 -0.5806  0.6898  0.3282
  935MOL0     C26113  12.091   8.247   1.749 -0.7476 -0.7207  0.6908
  935MOL0     O26114  12.002   8.198   1.647 -0.0228  0.4223  0.3987
  935MOL0     C26115  11.976   8.270   1.533  0.3053  0.0591  0.3032
  935MOL0     C26116  12.033   8.396   1.498 -0.4339  0.7913 -0.2197
  935MOL0     C26117  11.995   8.459   1.378 -0.0601 -0.5490 -0.3334
  935MOL0     C26118  11.899   8.403   1.293  0.4451 -0.1445  0.1285
  935MOL0     C26119  11.841   8.475   1.176 -0.5014 -0.1345 -0.0867
  935MOL0     O26120  11.838   8.612   1.187  0.5293 -0.5190  0.4620
  935MOL0     C26121  11.801   8.676   1.078  1.0334 -0.7825  1.1420
  935MOL0     C26122  11.856   8.657   0.951  0.2094 -0.4318  0.5002
  935MOL0     C26123  11.823   8.739   0.844 -0.2154 -0.3769  0.0137
  935MOL0     C26124  11.732   8.851   0.857 -0.0769 -0.4283 -0.3484
  935MOL0     O26125  11.686   8.938   0.763  0.2236  1.5327  0.0988
  935MOL0     C26126  11.741   8.936   0.629 -0.6688 -0.4491  1.1284
  935MOL0     C26127  11.876   8.990   0.618 -0.0092  0.9194  1.0521
  935MOL0     C26128  11.901   9.137   0.664 -0.2707  0.8469  0.8073
  935MOL0     C26129  12.046   9.173   0.627  0.5541  0.1177 -0.3858
  935MOL0     C26130  12.064   9.323   0.638 -0.2787 -0.4043  0.2427
  935MOL0     C26131  12.198   9.366   0.583  0.4060  0.3247  0.4510
  935MOL0     C26132  12.189   9.513   0.623 -1.2157 -0.8566  0.1449
  935MOL0     C26133  12.303   9.588   0.546  0.4733 -0.1566 -0.6868
  935MOL0    Cl26134  12.283   9.757   0.541  0.3523 -0.0956 -0.9403
  935MOL0     C26135  11.686   8.876   0.988 -0.1650 -0.1500 -0.0086
  935MOL0     C26136  11.721   8.792   1.089  0.0271 -0.1002  0.3178
  935MOL0     O26137  11.793   8.411   1.084 -0.4808  0.5286 -0.4762
  935MOL0     C26138  11.836   8.282   1.333  0.3423 -0.2799 -1.1521
  935MOL0     C26139  11.875   8.229   1.456  0.5971  0.4281  0.4461
  935MOL0     N26140  11.647   8.157   2.128  0.0585  0.1209 -0.8940
  935MOL0     N26141  11.524   8.119   2.116 -0.5997  0.0775  0.0841
  935MOL0     C26142  10.842   8.445   1.111 -0.0549 -0.1511 -0.0846
  935MOL0     C26143  10.806   8.519   1.002 -0.2432 -0.5076  0.2046
  935MOL0     C26144  10.709   8.774   0.676  0.0885 -0.4911 -0.1411
  935MOL0     C26145  10.582   8.834   0.675 -0.8562 -1.3200 -1.1371
  935MOL0     C26146  10.536   8.905   0.565  0.3324  0.5574  0.2138
  935MOL0     C26147  10.610   8.894   0.444  0.1343 -0.5290  0.4785
  935MOL0     O26148  10.547   8.976   0.347  0.6559 -1.2904  0.2995
  935MOL0     C26149  10.578   8.957   0.212 -0.9583 -0.0175  0.5184
  935MOL0     C26150  10.511   8.825   0.158 -0.8541 -0.3002 -0.3726
  935MOL0     C26151  10.580   8.771   0.030  0.3244 -0.2339  0.3005
  935MOL0     C26152  10.575   8.625   0.008  1.0084  0.5994 -0.4682
  935MOL0     C26153  10.667   8.550   0.098 -0.1528 -0.3406 -0.6536
  935MOL0     C26154  10.732   8.493   0.187  0.1758  0.3679  0.5547
  935MOL0     C26155  10.722   8.820   0.439 -0.1166 -0.2103 -0.2617
  935MOL0     C26156  10.781   8.762   0.554 -0.0898  0.1428 -0.5520
  935MOL0     C26157  10.918   8.704   0.545  0.2283  0.7262  0.1933
  935MOL0     H26158  10.546   8.709   1.139 -1.4111 -0.7201  0.6558
  935MOL0     H26159  10.618   8.574   1.338  0.9562  1.6926 -0.9155
  935MOL0     H26160  10.957   8.488   1.389 -1.0231  1.7273  0.6269
  935MOL0     H26161  10.830   8.501   1.495  2.1629  1.9709  0.7609
  935MOL0     H26162  10.848   8.239   1.551 -1.1140  1.2934  0.5613
  935MOL0     H26163  10.955   8.362   1.623 -2.2625 -0.0658  0.9264
  935MOL0     H26164  11.129   8.308   1.459 -1.5069  2.7955  1.9874
  935MOL0     H26165  11.022   8.207   1.367 -1.3020  4.1542 -1.3732
  935MOL0     H26166  11.007   8.047   1.572 -0.6556 -0.3262 -1.0237
  935MOL0     H26167  11.152   8.051   1.484  1.2926 -1.2599  3.4120
  935MOL0     H26168  11.274   8.202   1.608 -1.7953  0.5435  0.0750
  935MOL0     H26169  11.144   8.210   1.731 -3.7123 -1.2171 -1.2798
  935MOL0     H26170  11.167   7.958   1.760 -1.1721 -0.2194 -0.2335
  935MOL0     H26171  11.270   7.952   1.631  0.0859 -1.6903  0.5098
  935MOL0     H26172  11.459   8.088   1.759  0.2170 -1.8801 -2.4419
  935MOL0     H26173  11.420   7.941   1.833 -0.4097 -1.4553 -0.4812
  935MOL0     H26174  11.290   8.201   1.906  0.2252 -1.0728  0.8301
  935MOL0     H26175  11.285   8.065   2.012 -1.4358 -2.0445 -2.3044
  935MOL0     H26176  11.558   8.287   1.847 -0.1465 -0.3816  0.6969
  935MOL0     H26177  11.790   8.400   1.946  0.6792 -0.2342 -0.1350
  935MOL0     H26178  11.869   8.322   2.088 -0.8030 -3.7244  1.3442
  935MOL0     H26179  11.930   8.150   1.925  1.4912  1.2709  0.4802
  935MOL0     H26180  11.821   8.222   1.804  0.7471 -1.4851  0.9755
  935MOL0     H26181  12.057   8.355   1.936 -1.9888  0.7512  1.2181
  935MOL0     H26182  11.976   8.426   1.808 -4.4113 -0.5532 -0.8267
  935MOL0     H26183  12.144   8.165   1.799 -1.9973 -0.5947  2.2853
  935MOL0     H26184  12.164   8.321   1.714 -0.5415 -1.2650 -0.0478
  935MOL0     H26185  12.105   8.447   1.562  1.0857  0.4640 -1.5876
  935MOL0     H26186  12.031   8.558   1.353 -2.0031  0.1066 -0.7159
  935MOL0     H26187  11.929   8.580   0.925 -1.3687 -1.3802 -1.4846
  935MOL0     H26188  11.859   8.703   0.748  0.9348 -2.3124  1.1003
  935MOL0     H26189  11.733   8.836   0.586 -3.3286  0.0166  0.3278
  935MOL0     H26190  11.668   8.991   0.568  0.7688 -2.9680 -3.2312
  935MOL0     H26191  11.933   8.916   0.675 -2.8799 -0.0392  2.9126
  935MOL0     H26192  11.910   8.981   0.515 -1.0004 -1.1103  0.8529
  935MOL0     H26193  11.827   9.205   0.619  2.8702  1.9648 -3.3275
  935MOL0     H26194  11.885   9.150   0.771  0.3894  0.2500  0.9867
  935MOL0     H26195  12.088   9.154   0.528  1.0239 -0.8822 -0.0063
  935MOL0     H26196  12.118   9.118   0.688 -1.6687 -0.4881  1.8861
  935MOL0     H26197  12.053   9.338   0.746 -0.2926  1.3687  0.0216
  935MOL0     H26198  11.986   9.370   0.578 -0.1541  0.1304  0.4975
  935MOL0     H26199  12.283   9.317   0.632  0.1008 -0.6095  0.0570
  935MOL0     H26200  12.211   9.337   0.479  1.2760 -1.3937  1.0038
  935MOL0     H26201  12.210   9.533   0.728  1.1962  1.7945 -0.7069
  935MOL0     H26202  12.096   9.557   0.586 -2.2592 -2.3497  0.8956
  935MOL0     H26203  12.391   9.546   0.595 -1.3221 -2.4832  0.7776
  935MOL0     H26204  12.302   9.555   0.442 -0.2220 -1.6855 -0.2237
  935MOL0     H26205  11.624   8.961   1.019  0.1123 -0.3393  1.1233
  935MOL0     H26206  11.692   8.816   1.191 -0.9751 -0.1791  0.0654
  935MOL0     H26207  11.750   8.253   1.273  0.1566  0.8687 -1.4682
  935MOL0     H26208  11.811   8.147   1.488  0.6732  0.2214  0.0667
  935MOL0     H26209  10.915   8.365   1.102 -0.7739 -1.0456  1.5388
  935MOL0     H26210  10.867   8.504   0.914  0.0626 -0.4786  0.4127
  935MOL0     H26211  10.535   8.844   0.772 -0.0282 -0.8875 -0.7828
  935MOL0     H26212  10.443   8.960   0.569 -0.1898 -0.3284  0.4814
  935MOL0     H26213  10.686   8.956   0.197 -0.7228  1.9963  1.7559
  935MOL0     H26214  10.549   9.050   0.163  1.5602  2.3446  3.1352
  935MOL0     H26215  10.413   8.863   0.125 -0.1814 -0.3649 -2.5956
  935MOL0     H26216  10.495   8.744   0.230  0.3288 -0.1277  0.0969
  935MOL0     H26217  10.683   8.808   0.030 -0.2209  1.3647 -0.4617
  935MOL0     H26218  10.538   8.833  -0.050  0.5316  1.3164  1.3542
  935MOL0     H26219  10.474   8.586   0.025  0.3961  1.5967 -1.6385
  935MOL0     H26220  10.601   8.603  -0.096  0.4649  0.1080 -0.5125
  935MOL0     H26221  10.774   8.419   0.253  3.5187  2.2055  0.6992
  935MOL0     H26222  10.791   8.822   0.355  0.4408 -4.5680 -0.1471
  935MOL0     H26223  10.947   8.690   0.440  0.8607 -1.3122  0.6054
  935MOL0     H26224  10.986   8.773   0.595  0.5145  0.1308  0.6308
  935MOL0     H26225  10.929   8.604   0.589  3.3115  0.2757 -1.2993
  936MOL0     O26226   0.501   8.316   3.927 -0.2285 -0.3972  0.3192
  936MOL0     C26227   0.504   8.348   3.814 -0.6944 -0.3035  0.5116
  936MOL0     O26228   0.391   8.392   3.741 -0.5864  0.2716  0.3350
  936MOL0     C26229   0.283   8.418   3.823 -0.4851  1.0028  1.3249
  936MOL0     C26230   0.156   8.362   3.784  0.8101 -0.3867  0.2780
  936MOL0     C26231   0.037   8.382   3.861 -0.8260 -0.3963 -0.3502
  936MOL0     C26232   0.048   8.461   3.978  0.6942 -0.2987  0.6964
  936MOL0     O26233  -0.067   8.464   4.048  0.5315 -0.2380 -0.2691
  936MOL0     C26234  -0.085   8.541   4.166 -0.0868 -0.0317 -0.4223
  936MOL0     C26235  -0.233   8.537   4.206 -0.6638  0.5407  0.0709
  936MOL0     C26236  -0.259   8.624   4.326  0.1767  0.6704 -0.1566
  936MOL0     C26237  -0.413   8.641   4.348  0.9758  0.1710 -0.0791
  936MOL0     C26238  -0.439   8.704   4.484 -0.6630 -0.9191 -0.3385
  936MOL0     C26239  -0.432   8.609   4.602  0.0375  0.1079  0.2415
  936MOL0     C26240  -0.459   8.676   4.736  0.6142 -0.6551  0.6028
  936MOL0     C26241  -0.332   8.698   4.820  0.2363  0.0344 -0.2257
  936MOL0     N26242  -0.357   8.802   4.926 -0.1162  0.4596  0.2028
  936MOL0     C26243  -0.365   8.936   4.904  1.4510 -0.0212  1.0591
  936MOL0     C26244  -0.391   8.988   5.029 -0.3817 -0.8155  0.8493
  936MOL0     C26245  -0.388   9.132   5.082 -0.7724 -0.7562  0.4479
  936MOL0     C26246  -0.242   9.191   5.085  1.6424 -0.4085  0.4150
  936MOL0     C26247  -0.167   9.130   5.206 -0.2002 -0.1788  0.1942
  936MOL0     C26248  -0.111   8.986   5.169  0.1942  0.2161  0.9500
  936MOL0     O26249   0.028   8.999   5.153 -0.3162  0.6128 -0.3436
  936MOL0     C26250   0.097   8.876   5.123  0.3982 -0.9767  0.1005
  936MOL0     C26251   0.039   8.753   5.095 -0.2513 -0.4634  0.0585
  936MOL0     C26252   0.114   8.646   5.062 -0.5547 -0.0186  1.1207
  936MOL0     C26253   0.254   8.647   5.064  0.1941  0.3411 -0.0834
  936MOL0     C26254   0.329   8.533   5.009 -0.3839 -0.4510 -0.1262
  936MOL0     O26255   0.266   8.461   4.911  0.8053 -0.3387 -0.5885
  936MOL0     C26256   0.329   8.357   4.843 -0.2158  0.0299 -1.6788
  936MOL0     C26257   0.352   8.226   4.903 -0.2574 -0.4613 -1.0813
  936MOL0     C26258   0.400   8.125   4.822 -0.8249 -0.6271  0.0900
  936MOL0     C26259   0.428   8.148   4.685 -0.8166  0.8578 -0.6401
  936MOL0     O26260   0.461   8.049   4.595  0.4163  0.0523 -0.6697
  936MOL0     C26261   0.537   7.935   4.640 -0.6068 -0.1084 -0.3264
  936MOL0     C26262   0.689   7.971   4.642 -0.0773 -0.4456  0.3854
  936MOL0     C26263   0.766   7.864   4.718 -0.9458  0.5344  0.6519
  936MOL0     C26264   0.922   7.853   4.675 -0.0956  0.2272  0.7911
  936MOL0     C26265   0.994   7.723   4.737  0.4574 -0.0400 -0.2256
  936MOL0     C26266   1.016   7.749   4.890  0.8958  0.7811  0.4330
  936MOL0     C26267   1.148   7.831   4.931 -0.3300 -0.0611  0.4197
  936MOL0     C26268   1.280   7.755   4.972  0.6777 -0.2085  0.6152
  936MOL0    Cl26269   1.363   7.697   4.818  0.6810  0.1240  0.0465
  936MOL0     C26270   0.420   8.276   4.634  0.1278  0.9967 -1.1487
  936MOL0     C26271   0.365   8.380   4.713 -0.0053  0.0908  0.1037
  936MOL0     O26272   0.440   8.517   5.045 -0.4606 -0.7296  0.3796
  936MOL0     C26273   0.312   8.770   5.108  0.3441  0.3991  0.8476
  936MOL0     C26274   0.232   8.884   5.129 -1.3204  0.4406  0.4932
  936MOL0     N26275  -0.404   8.887   5.114 -0.2225  0.0654  0.0213
  936MOL0     N26276  -0.390   8.780   5.056  0.5369 -0.3770  0.8902
  936MOL0     C26277   0.169   8.519   4.007 -0.0700 -0.2844 -0.2472
  936MOL0     C26278   0.285   8.490   3.934  0.6023 -0.2443  0.3703
  936MOL0     C26279   0.635   8.320   3.756  0.0668 -0.3680  0.7662
  936MOL0     C26280   0.647   8.319   3.615  0.3660 -0.2505  0.7538
  936MOL0     C26281   0.766   8.290   3.547  0.1721  0.2106  0.5870
  936MOL0     C26282   0.879   8.265   3.625  0.3577  0.0671 -1.3091
  936MOL0     O26283   1.001   8.219   3.571  0.6171 -0.0173  0.0526
  936MOL0     C26284   1.015   8.200   3.429 -0.3867  0.3156  0.1026
  936MOL0     C26285   0.993   8.053   3.409  0.6492 -1.3039  0.4730
  936MOL0     C26286   0.989   8.032   3.260  0.9256  1.2786 -0.2656
  936MOL0     C26287   0.867   7.960   3.225  0.7946 -0.1789  0.1264
  936MOL0     C26288   0.879   7.913   3.084 -0.2879 -0.0250  0.0541
  936MOL0     C26289   0.868   7.859   2.972 -0.3580  0.2751 -0.4166
  936MOL0     C26290   0.885   8.285   3.765 -0.2794  0.1099 -0.4549
  936MOL0     C26291   0.758   8.314   3.826  0.5631 -0.2885 -0.8449
  936MOL0     C26292   0.774   8.328   3.977  0.1366  0.4407 -0.7742
  936MOL0     H26293   0.142   8.295   3.700  2.2706 -2.5438  1.6698
  936MOL0     H26294  -0.050   8.322   3.835  0.0601 -2.0105  0.2430
  936MOL0     H26295  -0.027   8.513   4.255 -0.6137  1.5643  0.4702
  936MOL0     H26296  -0.059   8.643   4.135  2.0100 -1.5635 -4.2585
  936MOL0     H26297  -0.265   8.433   4.221 -2.5449  1.1627  0.6579
  936MOL0     H26298  -0.278   8.588   4.121  0.8911  0.2868 -0.9430
  936MOL0     H26299  -0.216   8.723   4.309  0.5370  0.3666 -1.1113
  936MOL0     H26300  -0.213   8.563   4.404 -1.2596  1.6054  1.4917
  936MOL0     H26301  -0.454   8.695   4.263  1.5435 -1.4638 -1.4603
  936MOL0     H26302  -0.454   8.539   4.347  2.4032 -0.4612 -2.2973
  936MOL0     H26303  -0.382   8.796   4.501 -1.7941 -0.1960 -0.3091
  936MOL0     H26304  -0.537   8.752   4.493 -0.9030 -1.7045  2.0937
  936MOL0     H26305  -0.506   8.531   4.578  1.4102 -1.2206  0.1495
  936MOL0     H26306  -0.340   8.550   4.609 -0.1345 -0.3392 -0.9329
  936MOL0     H26307  -0.534   8.614   4.785  1.4755 -0.0758  2.7676
  936MOL0     H26308  -0.515   8.769   4.724 -0.3795 -1.0332  2.0747
  936MOL0     H26309  -0.299   8.605   4.866  1.1308  0.1731 -0.5560
  936MOL0     H26310  -0.263   8.726   4.740 -4.8908  0.9354 -4.9285
  936MOL0     H26311  -0.347   8.980   4.807 -0.2659 -0.6708  0.4139
  936MOL0     H26312  -0.458   9.188   5.018 -1.2781  0.4069  1.9578
  936MOL0     H26313  -0.423   9.116   5.184  2.2091 -1.3975  1.4549
  936MOL0     H26314  -0.202   9.171   4.985 -0.0025  2.0369 -0.8085
  936MOL0     H26315  -0.253   9.298   5.103  0.2234 -0.5726  0.6428
  936MOL0     H26316  -0.229   9.138   5.296 -0.0432  2.5463  0.1603
  936MOL0     H26317  -0.088   9.200   5.237 -1.1622  0.3755  1.4855
  936MOL0     H26318  -0.158   8.947   5.079 -0.3260 -1.7274  1.9998
  936MOL0     H26319  -0.137   8.916   5.249 -1.9983  0.3966  0.4397
  936MOL0     H26320  -0.069   8.741   5.105 -0.0637 -0.8767  1.9412
  936MOL0     H26321   0.073   8.551   5.028  0.7490 -0.1193 -0.3031
  936MOL0     H26322   0.322   8.198   5.003  2.0889 -1.9247 -0.7241
  936MOL0     H26323   0.403   8.028   4.872  1.1384 -1.9566 -2.3583
  936MOL0     H26324   0.511   7.887   4.735  1.7738  2.1107  1.5913
  936MOL0     H26325   0.525   7.864   4.556  2.7708 -0.5818 -0.5323
  936MOL0     H26326   0.718   7.982   4.537 -2.6641 -1.9259 -0.5755
  936MOL0     H26327   0.691   8.069   4.691 -0.2152  0.0903 -0.6613
  936MOL0     H26328   0.766   7.895   4.823  0.7486  2.7226  0.0866
  936MOL0     H26329   0.708   7.773   4.701  0.5703 -0.4678  0.6922
  936MOL0     H26330   0.969   7.945   4.711 -0.9786  0.2298  1.9974
  936MOL0     H26331   0.932   7.847   4.566 -1.6994  2.2628  0.4672
  936MOL0     H26332   1.090   7.709   4.686 -0.0724  1.3896 -1.7390
  936MOL0     H26333   0.933   7.633   4.729 -0.7141  0.3173  3.1873
  936MOL0     H26334   0.937   7.803   4.942  0.3485 -0.9028  1.4622
  936MOL0     H26335   1.028   7.660   4.953 -0.7579  1.2439  1.4557
  936MOL0     H26336   1.117   7.901   5.009 -1.3456  0.8052 -0.7156
  936MOL0     H26337   1.172   7.900   4.849 -1.7517  1.9256  1.5867
  936MOL0     H26338   1.347   7.826   5.020  2.8153 -2.5792  1.3606
  936MOL0     H26339   1.261   7.675   5.045 -0.6245 -0.5768 -0.0924
  936MOL0     H26340   0.459   8.278   4.533  2.1924 -3.1134 -0.6315
  936MOL0     H26341   0.366   8.481   4.674 -0.3616 -1.5479 -4.8974
  936MOL0     H26342   0.419   8.784   5.118  0.2609  0.2208  2.2246
  936MOL0     H26343   0.287   8.972   5.158  1.3875 -1.4095  1.3963
  936MOL0     H26344   0.172   8.582   4.095  3.0078 -0.9885  0.2465
  936MOL0     H26345   0.374   8.537   3.974  1.6718  0.1747 -2.3091
  936MOL0     H26346   0.562   8.340   3.551  2.0565 -0.0152 -1.5144
  936MOL0     H26347   0.770   8.277   3.439 -0.4728 -0.1964  0.6039
  936MOL0     H26348   1.120   8.221   3.410  0.6763  0.7852  5.0118
  936MOL0     H26349   0.958   8.267   3.363 -3.7603 -1.3731  1.0565
  936MOL0     H26350   0.899   8.033   3.461 -0.3141 -0.6072 -0.9346
  936MOL0     H26351   1.075   8.009   3.467  1.5501  1.2266  1.2575
  936MOL0     H26352   1.075   7.966   3.250 -1.3247 -2.1165  0.8524
  936MOL0     H26353   0.989   8.127   3.206 -3.7202  1.2686 -0.7355
  936MOL0     H26354   0.834   7.870   3.277 -1.9453 -0.4647 -1.9023
  936MOL0     H26355   0.786   8.033   3.224 -0.4433 -1.4693 -2.2973
  936MOL0     H26356   0.843   7.827   2.873 -0.2460  0.0219 -0.3639
  936MOL0     H26357   0.975   8.251   3.817 -1.9188 -1.2357  1.6842
  936MOL0     H26358   0.745   8.237   4.030 -1.3780  1.5534  0.4225
  936MOL0     H26359   0.874   8.352   4.014  0.5965 -0.6449 -1.2821
  936MOL0     H26360   0.715   8.415   4.009  0.4369 -0.0374  1.2404
  937MOL0     O26361  10.704   8.604   6.700  0.2996  0.2199 -0.6787
  937MOL0     C26362  10.629   8.657   6.784  0.1134 -0.5370  0.6978
  937MOL0     O26363  10.572   8.590   6.890 -0.4587  0.1697  0.0757
  937MOL0     C26364  10.554   8.455   6.890  0.2920  0.6375  0.2303
  937MOL0     C26365  10.426   8.412   6.887 -0.2612 -0.0042 -0.4206
  937MOL0     C26366  10.404   8.270   6.902 -0.2618  0.5055  0.3365
  937MOL0     C26367  10.515   8.178   6.896 -0.3644  0.1432  0.3545
  937MOL0     O26368  10.490   8.045   6.912  0.8546 -0.3466  0.4755
  937MOL0     C26369  10.589   7.942   6.923 -0.7730 -1.0677  0.3673
  937MOL0     C26370  10.551   7.816   6.989  1.6561  0.5287 -0.1635
  937MOL0     C26371  10.496   7.820   7.135 -0.1404  0.3522  0.6603
  937MOL0     C26372  10.347   7.831   7.150  0.5840  0.4793  0.5191
  937MOL0     C26373  10.288   7.821   7.291 -0.0622  0.3836 -0.2504
  937MOL0     C26374  10.155   7.893   7.304  0.9194 -0.2787  0.3999
  937MOL0     C26375  10.103   7.908   7.443  0.2636  0.1803  0.4708
  937MOL0     C26376  10.051   7.772   7.487  0.6204 -0.0299 -0.0081
  937MOL0     N26377   9.955   7.786   7.599  0.1065  1.2491 -0.1143
  937MOL0     C26378   9.820   7.758   7.598 -0.1240  1.5637 -0.2659
  937MOL0     C26379   9.780   7.794   7.734 -1.1255  0.6612  1.0280
  937MOL0     C26380   9.640   7.785   7.786  0.7767  0.8270 -0.3142
  937MOL0     C26381   9.587   7.925   7.813  0.5660  0.0410  0.3501
  937MOL0     C26382   9.606   8.014   7.694 -0.0904  0.9684  0.2477
  937MOL0     C26383   9.548   8.152   7.722  0.4418  0.0370  1.0610
  937MOL0     O26384   9.573   8.230   7.600 -0.1444 -0.7842 -0.3319
  937MOL0     C26385   9.577   8.368   7.611 -0.2063 -0.4300  0.0424
  937MOL0     C26386   9.467   8.441   7.568  0.8612  0.0632 -0.7490
  937MOL0     C26387   9.468   8.574   7.609  1.0135 -0.0524 -0.4131
  937MOL0     C26388   9.573   8.646   7.657  0.4320  0.5831 -0.0503
  937MOL0     C26389   9.574   8.786   7.662 -0.5261 -0.8040  0.7596
  937MOL0     O26390   9.457   8.853   7.647  0.5911  0.8751  1.5254
  937MOL0     C26391   9.427   8.984   7.669  0.1189  1.3648  0.5758
  937MOL0     C26392   9.520   9.085   7.702  0.4034  0.4209 -0.0400
  937MOL0     C26393   9.495   9.223   7.699  0.0375 -0.4367  0.6638
  937MOL0     C26394   9.365   9.266   7.659  0.2872  0.0084  0.1154
  937MOL0     O26395   9.316   9.395   7.647  0.8032  0.0667  0.4562
  937MOL0     C26396   9.412   9.504   7.685 -0.1732 -0.5498 -0.2164
  937MOL0     C26397   9.499   9.556   7.567  0.0103 -0.7622 -0.1477
  937MOL0     C26398   9.417   9.631   7.464  0.3696 -0.4497 -0.5000
  937MOL0     C26399   9.497   9.713   7.353  0.1266  0.0256  0.3597
  937MOL0     C26400   9.484   9.868   7.375  0.1853 -0.7074 -0.7417
  937MOL0     C26401   9.578   9.922   7.498  0.0755  0.3334 -0.0107
  937MOL0     C26402   9.519  10.055   7.552  0.1585 -0.4041  0.7483
  937MOL0     C26403   9.531  10.173   7.443 -0.0891 -0.8556 -0.0646
  937MOL0    Cl26404   9.455  10.315   7.514  0.1206  0.0048 -0.1814
  937MOL0     C26405   9.274   9.166   7.625  0.8457  0.0657  0.1377
  937MOL0     C26406   9.304   9.026   7.621  0.0982  0.1247  0.2718
  937MOL0     O26407   9.684   8.840   7.673  0.0951 -0.8816  0.6664
  937MOL0     C26408   9.689   8.567   7.694 -0.1107  0.4527  0.2108
  937MOL0     C26409   9.683   8.425   7.671  0.5497 -0.3913 -0.2366
  937MOL0     N26410   9.891   7.839   7.801  0.2246  0.8970  0.4324
  937MOL0     N26411   9.984   7.847   7.711 -0.5962  0.1497 -0.8370
  937MOL0     C26412  10.649   8.227   6.899  0.4890 -0.5217 -0.2506
  937MOL0     C26413  10.663   8.367   6.898  0.4608  0.2087  1.0329
  937MOL0     C26414  10.584   8.797   6.765 -0.2755 -0.7735  1.1817
  937MOL0     C26415  10.481   8.857   6.848  0.2185 -0.2607 -0.7426
  937MOL0     C26416  10.431   8.983   6.824 -0.0952  0.8855  0.3726
  937MOL0     C26417  10.496   9.067   6.737 -0.4239  1.5213  0.0377
  937MOL0     O26418  10.456   9.194   6.728 -0.0215 -0.2583 -0.6732
  937MOL0     C26419  10.547   9.308   6.712  0.4951  0.4802  0.6433
  937MOL0     C26420  10.475   9.440   6.755  0.5354  0.0934 -0.0611
  937MOL0     C26421  10.533   9.568   6.710 -0.9281 -0.2965 -0.2378
  937MOL0     C26422  10.437   9.682   6.728  0.3240 -0.3351 -0.0611
  937MOL0     C26423  10.504   9.803   6.704  1.1294  0.6750  0.3797
  937MOL0     C26424  10.573   9.894   6.688 -0.0462 -0.4710  0.2452
  937MOL0     C26425  10.601   9.018   6.655  0.9327 -0.0551  0.1622
  937MOL0     C26426  10.645   8.892   6.674 -1.1933 -0.7420  0.5682
  937MOL0     C26427  10.753   8.863   6.578 -0.2825  0.2466  1.4140
  937MOL0     H26428  10.349   8.489   6.885 -0.1771  0.0696 -0.9862
  937MOL0     H26429  10.308   8.221   6.918  1.9428 -3.7890  1.8852
  937MOL0     H26430  10.629   7.920   6.823 -1.8159  1.9537 -0.8321
  937MOL0     H26431  10.672   7.991   6.975 -0.8035  0.6852 -1.1252
  937MOL0     H26432  10.636   7.747   6.990  0.1948 -1.3573  0.9236
  937MOL0     H26433  10.478   7.768   6.924 -0.0050  0.3646  1.7346
  937MOL0     H26434  10.546   7.894   7.197 -0.2187 -2.3437  4.2895
  937MOL0     H26435  10.535   7.727   7.178  0.8033  0.3973 -0.0634
  937MOL0     H26436  10.321   7.927   7.104  0.7640  0.5828  0.6306
  937MOL0     H26437  10.295   7.761   7.084 -1.2767  0.2478  2.1516
  937MOL0     H26438  10.272   7.716   7.316 -1.7428  0.6415 -0.0814
  937MOL0     H26439  10.360   7.859   7.363 -0.6822 -3.1488  2.4769
  937MOL0     H26440  10.172   7.999   7.281 -0.9414  0.4441  2.0510
  937MOL0     H26441  10.075   7.850   7.245 -1.6281  2.9063  1.2270
  937MOL0     H26442  10.017   7.975   7.453 -0.0697 -0.5485  3.5938
  937MOL0     H26443  10.182   7.943   7.510 -0.4143 -1.4560  2.2685
  937MOL0     H26444  10.003   7.714   7.407  3.1701 -1.7311 -0.4369
  937MOL0     H26445  10.128   7.706   7.528  2.1842  0.6525 -1.7138
  937MOL0     H26446   9.764   7.718   7.515  1.9298 -0.9914 -0.5710
  937MOL0     H26447   9.570   7.747   7.711  1.4848 -1.2568  0.0169
  937MOL0     H26448   9.629   7.725   7.878 -0.2567  3.5764  1.4783
  937MOL0     H26449   9.482   7.931   7.844 -0.4348  5.7048 -2.8164
  937MOL0     H26450   9.637   7.967   7.900 -0.2459 -2.1768  1.9948
  937MOL0     H26451   9.561   7.966   7.606 -0.6001  1.1532  0.4071
  937MOL0     H26452   9.714   8.024   7.677 -0.2716 -0.8662 -2.8038
  937MOL0     H26453   9.601   8.199   7.806  0.8174 -1.8374  1.9105
  937MOL0     H26454   9.444   8.142   7.755  0.8584 -1.8699  1.9427
  937MOL0     H26455   9.383   8.384   7.530  1.6673 -2.4106  0.9076
  937MOL0     H26456   9.376   8.625   7.585  0.4060 -1.0831 -0.3005
  937MOL0     H26457   9.615   9.057   7.746  1.3955  0.3178 -2.1255
  937MOL0     H26458   9.591   9.273   7.708  0.3942 -1.0126  0.1542
  937MOL0     H26459   9.354   9.585   7.731 -0.1981  0.4533 -1.9079
  937MOL0     H26460   9.472   9.463   7.766  1.2962  0.0058 -0.9797
  937MOL0     H26461   9.580   9.619   7.606 -0.2361 -0.4424 -0.1435
  937MOL0     H26462   9.548   9.476   7.512 -0.4272 -0.3357 -1.1895
  937MOL0     H26463   9.358   9.554   7.412  0.8605  0.7776 -3.0084
  937MOL0     H26464   9.342   9.698   7.508 -2.0896 -2.3205 -1.5804
  937MOL0     H26465   9.455   9.694   7.254  1.9771 -1.7704 -0.1587
  937MOL0     H26466   9.600   9.677   7.351 -0.3711 -1.5916  1.7332
  937MOL0     H26467   9.380   9.891   7.398  0.4195 -0.0677 -0.2991
  937MOL0     H26468   9.502   9.924   7.282 -2.3470  1.1749 -0.1981
  937MOL0     H26469   9.583   9.840   7.570 -0.6175  1.3844  1.2820
  937MOL0     H26470   9.680   9.934   7.460  0.6713 -2.8647  0.2626
  937MOL0     H26471   9.581  10.085   7.636  0.4960 -1.4327  0.8836
  937MOL0     H26472   9.413  10.044   7.573  0.1188 -2.6479 -0.2799
  937MOL0     H26473   9.630  10.214   7.420 -0.6006  0.9837  0.8313
  937MOL0     H26474   9.489  10.149   7.345  0.6185  2.1219 -1.2154
  937MOL0     H26475   9.172   9.194   7.597  1.0367 -0.1991 -0.8700
  937MOL0     H26476   9.228   8.963   7.577 -2.1882  3.2564 -0.6469
  937MOL0     H26477   9.771   8.605   7.754  1.4231 -0.6028 -1.1405
  937MOL0     H26478   9.754   8.359   7.721  0.9265 -0.6589 -1.1157
  937MOL0     H26479  10.743   8.172   6.897 -0.6541 -2.6216  0.3903
  937MOL0     H26480  10.758   8.418   6.897  0.4869  0.1502 -0.1207
  937MOL0     H26481  10.432   8.802   6.928 -0.6254  0.0911 -1.0089
  937MOL0     H26482  10.354   9.035   6.881  0.0525  2.7597 -1.0567
  937MOL0     H26483  10.572   9.310   6.605 -0.3514 -3.2557  0.2202
  937MOL0     H26484  10.637   9.290   6.772  0.3115 -1.0450  0.4953
  937MOL0     H26485  10.480   9.456   6.863 -0.8580 -2.2985  0.4466
  937MOL0     H26486  10.376   9.426   6.711  0.8769 -3.4540  0.0229
  937MOL0     H26487  10.559   9.558   6.605 -0.3235  0.9756 -0.2319
  937MOL0     H26488  10.631   9.589   6.755 -0.9014  5.1943 -2.0756
  937MOL0     H26489  10.348   9.675   6.666  0.7674  1.5436 -0.9677
  937MOL0     H26490  10.405   9.679   6.833  0.8625 -2.2324  0.0875
  937MOL0     H26491  10.642   9.976   6.695  1.4875 -1.8412  2.2936
  937MOL0     H26492  10.638   9.091   6.583  0.3097  1.1141  0.9783
  937MOL0     H26493  10.848   8.888   6.625 -0.8454 -0.6544  3.0912
  937MOL0     H26494  10.777   8.765   6.537  0.3571  1.1528 -0.5106
  937MOL0     H26495  10.734   8.920   6.486  0.9806 -1.9124 -0.2844
  938MOL0     O26496   2.678   4.467   6.159 -0.6279  0.8244  0.5739
  938MOL0     C26497   2.754   4.411   6.233 -0.5798 -0.0427 -0.4536
  938MOL0     O26498   2.888   4.448   6.254  0.5182  0.1235 -0.2203
  938MOL0     C26499   2.962   4.531   6.174 -0.1552  0.0823  0.2402
  938MOL0     C26500   3.096   4.530   6.218  0.0899 -0.3776 -0.6873
  938MOL0     C26501   3.192   4.604   6.144 -0.4900 -0.6136 -0.3284
  938MOL0     C26502   3.156   4.666   6.026 -1.0101 -0.4807  0.0261
  938MOL0     O26503   3.247   4.723   5.941 -0.0434  0.2467  0.3713
  938MOL0     C26504   3.386   4.720   5.961 -0.8497 -0.4200  0.6528
  938MOL0     C26505   3.439   4.741   5.829 -0.8564 -0.6284 -0.1124
  938MOL0     C26506   3.453   4.893   5.791 -0.7084 -0.0265  0.3493
  938MOL0     C26507   3.526   4.911   5.655 -0.1497 -0.9923 -0.0855
  938MOL0     C26508   3.522   5.061   5.624  0.5075  1.1837  0.3132
  938MOL0     C26509   3.566   5.081   5.478 -0.1099  0.1908  0.5677
  938MOL0     C26510   3.719   5.050   5.458 -0.1677  0.6486  0.0962
  938MOL0     C26511   3.804   5.137   5.546  0.1618  0.4824 -0.5040
  938MOL0     N26512   3.792   5.275   5.524  0.7170  0.6758 -0.4830
  938MOL0     C26513   3.768   5.340   5.397  0.7896  1.4686 -1.4489
  938MOL0     C26514   3.736   5.467   5.425  0.0827 -0.0977  0.3239
  938MOL0     C26515   3.708   5.572   5.325  0.3034  0.5893  0.2581
  938MOL0     C26516   3.837   5.626   5.252 -0.2162  0.4615 -0.8544
  938MOL0     C26517   3.811   5.763   5.193  0.2503 -0.0860  0.3165
  938MOL0     C26518   3.721   5.740   5.077 -0.5289 -1.1018  0.3539
  938MOL0     O26519   3.703   5.878   5.026 -0.8710  0.0781  0.2998
  938MOL0     C26520   3.636   5.896   4.907 -0.2882  0.4544 -0.6416
  938MOL0     C26521   3.696   5.995   4.825  0.1189  0.0262  0.0310
  938MOL0     C26522   3.646   6.021   4.705 -0.6578  0.8878  1.5737
  938MOL0     C26523   3.540   5.935   4.650  0.7532  0.0693 -0.6384
  938MOL0     C26524   3.482   5.952   4.514  0.6590  0.0629 -0.0961
  938MOL0     O26525   3.370   5.885   4.480  0.1469 -0.1192  0.8338
  938MOL0     C26526   3.315   5.918   4.357  0.9373  0.9800 -0.4448
  938MOL0     C26527   3.244   6.040   4.343 -0.0121  0.6635  0.0593
  938MOL0     C26528   3.164   6.067   4.230 -0.7715  1.0914  0.6168
  938MOL0     C26529   3.171   5.974   4.119 -0.0749 -0.1100 -0.0170
  938MOL0     O26530   3.108   5.995   4.002 -0.6358  0.3851  0.4439
  938MOL0     C26531   2.964   5.974   4.005  0.0525  0.7547 -0.2993
  938MOL0     C26532   2.909   6.001   3.865  0.4663  0.1997 -0.5869
  938MOL0     C26533   2.915   6.143   3.815 -0.1022  0.4472 -0.8482
  938MOL0     C26534   2.868   6.156   3.674 -0.8010 -0.4407 -0.1748
  938MOL0     C26535   2.840   6.308   3.653 -1.2393  0.4313  0.0678
  938MOL0     C26536   2.958   6.407   3.660 -0.2093 -0.2550  1.2497
  938MOL0     C26537   2.918   6.552   3.622 -0.4462  0.3048  0.3279
  938MOL0     C26538   3.029   6.655   3.645 -0.5324  1.3720 -0.1739
  938MOL0    Cl26539   3.179   6.628   3.543  0.3641  0.2002  0.0453
  938MOL0     C26540   3.243   5.862   4.134  0.2768 -0.7262  0.1691
  938MOL0     C26541   3.316   5.832   4.252 -0.6833  0.6822  1.0451
  938MOL0     O26542   3.536   6.037   4.447 -0.4474 -1.0959 -0.0275
  938MOL0     C26543   3.489   5.835   4.737 -0.2357  0.3471 -0.4323
  938MOL0     C26544   3.530   5.820   4.863  0.3974  0.5704  0.1950
  938MOL0     N26545   3.738   5.489   5.562  0.2981  0.0259 -0.8517
  938MOL0     N26546   3.768   5.375   5.618 -0.4006 -0.4964 -0.6027
  938MOL0     C26547   3.019   4.660   5.986  0.9946 -0.4343 -0.0614
  938MOL0     C26548   2.921   4.600   6.058 -0.7219  0.3258  0.2275
  938MOL0     C26549   2.700   4.294   6.311  0.3642 -0.1964 -0.1793
  938MOL0     C26550   2.779   4.173   6.323 -0.4852  0.2422  0.4487
  938MOL0     C26551   2.735   4.063   6.400 -0.4906 -0.6352  0.3864
  938MOL0     C26552   2.611   4.069   6.470 -0.1019 -0.1166  1.2842
  938MOL0     O26553   2.581   3.956   6.549  0.3057 -0.0441  0.2696
  938MOL0     C26554   2.459   3.941   6.607 -0.2292 -0.0800  0.0236
  938MOL0     C26555   2.347   3.910   6.513 -0.0160 -0.7791 -1.2929
  938MOL0     C26556   2.370   3.789   6.433 -1.3190 -0.2044 -0.0417
  938MOL0     C26557   2.241   3.746   6.361 -0.4597 -0.2890  0.3880
  938MOL0     C26558   2.227   3.822   6.236 -0.3312 -0.6660 -0.0667
  938MOL0     C26559   2.219   3.896   6.141  0.4750 -0.0534 -0.2598
  938MOL0     C26560   2.530   4.181   6.461  0.4301  0.1486  0.8719
  938MOL0     C26561   2.572   4.291   6.378  0.3661  0.1904 -1.0956
  938MOL0     C26562   2.479   4.417   6.378  0.4338 -0.1700  0.2776
  938MOL0     H26563   3.116   4.473   6.308  1.8499  0.2876 -0.6116
  938MOL0     H26564   3.296   4.600   6.172  0.0376 -1.0860 -2.1830
  938MOL0     H26565   3.422   4.794   6.034 -0.3809 -0.4630  0.4673
  938MOL0     H26566   3.413   4.618   5.988  2.5805 -0.7217 -3.0218
  938MOL0     H26567   3.389   4.682   5.751  0.3736  0.8914 -2.1629
  938MOL0     H26568   3.541   4.702   5.829  0.2614  1.9676 -1.6727
  938MOL0     H26569   3.493   4.945   5.879 -0.7152  0.6122 -0.0207
  938MOL0     H26570   3.353   4.928   5.767  0.3133  2.1679 -1.0368
  938MOL0     H26571   3.631   4.880   5.654 -0.3304 -1.6313 -0.3250
  938MOL0     H26572   3.477   4.851   5.578  1.8630  0.9347 -3.0477
  938MOL0     H26573   3.418   5.093   5.635  0.1533 -0.3426  1.8598
  938MOL0     H26574   3.584   5.105   5.702  1.9050  0.9337 -0.6158
  938MOL0     H26575   3.512   5.010   5.416  1.9597  0.2149 -1.3872
  938MOL0     H26576   3.557   5.185   5.444  2.6809  0.7617  1.3152
  938MOL0     H26577   3.738   5.067   5.352  0.5835  4.1854  0.6678
  938MOL0     H26578   3.737   4.942   5.470 -0.9746  0.6886  2.0058
  938MOL0     H26579   3.797   5.101   5.648 -0.4720 -0.1610 -0.7665
  938MOL0     H26580   3.907   5.107   5.526  0.9284  0.2503  3.2089
  938MOL0     H26581   3.756   5.292   5.301 -1.1836 -1.9440  0.3333
  938MOL0     H26582   3.630   5.537   5.256 -0.6724 -2.1575  2.5911
  938MOL0     H26583   3.663   5.649   5.388  0.4174  1.6935 -0.9476
  938MOL0     H26584   3.903   5.622   5.340  0.3767 -4.0567 -1.2694
  938MOL0     H26585   3.878   5.556   5.179  0.1062  1.4729 -1.6662
  938MOL0     H26586   3.915   5.797   5.184  1.0371 -2.5192 -0.6451
  938MOL0     H26587   3.752   5.827   5.260 -1.5635  1.2063 -2.3683
  938MOL0     H26588   3.622   5.712   5.114 -1.4767  3.2027  1.7099
  938MOL0     H26589   3.762   5.672   5.002  4.1099 -0.1091  1.6820
  938MOL0     H26590   3.777   6.058   4.859 -1.9919  2.4025  1.0207
  938MOL0     H26591   3.698   6.095   4.646  1.4721 -1.2487  0.5959
  938MOL0     H26592   3.232   6.112   4.423  1.7790 -0.2489  1.2163
  938MOL0     H26593   3.105   6.157   4.245 -0.1261  1.4645  0.9585
  938MOL0     H26594   2.927   5.878   4.044 -0.6757  2.2745  3.1267
  938MOL0     H26595   2.923   6.054   4.067 -0.3079  1.1337 -1.0186
  938MOL0     H26596   2.957   5.949   3.782  2.0743 -0.0705  0.4723
  938MOL0     H26597   2.803   5.975   3.874  0.7251 -0.5413  0.4807
  938MOL0     H26598   2.852   6.204   3.880  2.0658  0.4983  1.3341
  938MOL0     H26599   3.015   6.189   3.820 -1.5288  4.1680 -2.7189
  938MOL0     H26600   2.780   6.095   3.654 -1.0626 -0.3466  0.6686
  938MOL0     H26601   2.950   6.131   3.606 -1.1982  2.8973 -2.1021
  938MOL0     H26602   2.770   6.335   3.733 -0.3138 -0.3049  1.1425
  938MOL0     H26603   2.792   6.309   3.554  0.6892  1.3785 -0.9091
  938MOL0     H26604   2.994   6.405   3.764 -1.1805  1.9919  1.7021
  938MOL0     H26605   3.046   6.381   3.601  0.7662  3.4745  0.7867
  938MOL0     H26606   2.839   6.587   3.690  1.3858  1.6018  1.9078
  938MOL0     H26607   2.888   6.558   3.517  0.4545  0.4569  0.0758
  938MOL0     H26608   2.991   6.752   3.613 -2.2575  0.1462 -2.0713
  938MOL0     H26609   3.044   6.662   3.753  1.7570 -1.8971 -0.1307
  938MOL0     H26610   3.240   5.798   4.046 -1.1486 -0.4866  0.0311
  938MOL0     H26611   3.358   5.732   4.251 -1.4724  0.2798  2.7398
  938MOL0     H26612   3.418   5.760   4.705 -0.6592  0.0740  1.1047
  938MOL0     H26613   3.493   5.735   4.919 -0.2704 -0.0095 -1.0937
  938MOL0     H26614   2.990   4.695   5.888  2.2399  1.1057  0.0913
  938MOL0     H26615   2.819   4.596   6.021 -0.9486 -2.3423  0.8987
  938MOL0     H26616   2.876   4.169   6.275 -0.5562  4.4150 -0.4460
  938MOL0     H26617   2.778   3.966   6.421  0.6168  0.3219  2.9444
  938MOL0     H26618   2.431   4.031   6.661 -1.8473 -1.1658  1.1022
  938MOL0     H26619   2.450   3.862   6.682 -1.3530 -1.6604 -1.6548
  938MOL0     H26620   2.325   3.988   6.440  1.9347  0.3860 -0.6971
  938MOL0     H26621   2.256   3.898   6.572 -1.2468 -2.2622 -3.3177
  938MOL0     H26622   2.403   3.705   6.495 -0.9153  2.5658  3.8307
  938MOL0     H26623   2.436   3.820   6.351 -1.0531 -2.0417 -0.5793
  938MOL0     H26624   2.249   3.643   6.325  1.2363  1.0162 -3.5742
  938MOL0     H26625   2.151   3.763   6.421  0.2511 -0.6847  1.5809
  938MOL0     H26626   2.231   3.957   6.054  2.4445  1.0523  0.7394
  938MOL0     H26627   2.431   4.189   6.505 -0.5731  3.3394 -1.5562
  938MOL0     H26628   2.433   4.425   6.279 -0.0392 -1.3611  0.3892
  938MOL0     H26629   2.392   4.408   6.444  0.3467  0.1530  0.2118
  938MOL0     H26630   2.532   4.512   6.396 -0.8768  0.3655  1.4672
  939MOL0     O26631   0.888   1.141   4.552 -0.4200  0.0886  0.5606
  939MOL0     C26632   1.000   1.100   4.582 -0.3776  0.1143 -0.4571
  939MOL0     O26633   1.024   1.004   4.683  0.9490  0.1196 -0.0363
  939MOL0     C26634   0.920   0.977   4.770  0.0626  0.6615  0.1771
  939MOL0     C26635   0.821   0.891   4.733  0.0404  0.2173 -0.8415
  939MOL0     C26636   0.711   0.877   4.815 -0.3022  0.3615  0.2460
  939MOL0     C26637   0.699   0.930   4.947 -0.0294 -1.5442  0.5963
  939MOL0     O26638   0.585   0.899   5.013  0.0469 -1.2610 -0.8111
  939MOL0     C26639   0.558   0.951   5.147  0.0983 -0.0408 -0.2266
  939MOL0     C26640   0.422   0.891   5.204  0.5300  0.1414  0.4379
  939MOL0     C26641   0.376   0.947   5.333 -0.3405  0.6119  0.3127
  939MOL0     C26642   0.327   1.085   5.325 -0.7383  0.0389  1.2418
  939MOL0     C26643   0.263   1.126   5.458 -0.3140  0.0672 -0.2354
  939MOL0     C26644   0.229   1.274   5.454 -0.7608  0.8147 -0.2869
  939MOL0     C26645   0.144   1.328   5.563 -0.0900  0.1541  0.2623
  939MOL0     C26646   0.198   1.310   5.701  0.8564  0.0039 -0.0479
  939MOL0     N26647   0.138   1.397   5.798  0.6229 -0.8328 -0.2315
  939MOL0     C26648   0.127   1.531   5.786 -0.1897 -0.5548 -0.2505
  939MOL0     C26649   0.096   1.575   5.910 -0.5481 -0.0282  0.0770
  939MOL0     C26650   0.079   1.720   5.937  0.5410 -0.8010 -0.7730
  939MOL0     C26651  -0.082   1.759   5.946 -0.3750 -0.2430 -0.3725
  939MOL0     C26652  -0.116   1.911   5.946 -0.0723  1.0330 -0.4136
  939MOL0     C26653  -0.119   1.970   5.807 -0.2393  0.2993 -0.1212
  939MOL0     O26654  -0.148   2.105   5.821  0.2349 -0.1795 -0.0250
  939MOL0     C26655  -0.197   2.171   5.715 -0.3854 -0.2475 -0.0256
  939MOL0     C26656  -0.234   2.302   5.748  0.4949  0.1444  0.2301
  939MOL0     C26657  -0.285   2.388   5.649 -1.5724 -0.3894 -0.0888
  939MOL0     C26658  -0.291   2.352   5.517  0.2911 -0.1565  0.6389
  939MOL0     C26659  -0.309   2.452   5.408  0.6797 -0.2511 -0.1899
  939MOL0     O26660  -0.269   2.581   5.436 -0.5291 -0.1193 -0.4848
  939MOL0     C26661  -0.291   2.683   5.349 -0.4082  0.4458 -0.1407
  939MOL0     C26662  -0.210   2.683   5.231  1.1382  0.0780 -0.7773
  939MOL0     C26663  -0.224   2.781   5.134  0.7933  0.6261  0.5732
  939MOL0     C26664  -0.312   2.883   5.159 -0.4833  0.1888  0.1530
  939MOL0     O26665  -0.305   2.989   5.068 -0.3995  0.3400  0.2027
  939MOL0     C26666  -0.333   3.120   5.107 -0.1143 -0.5906  0.3773
  939MOL0     C26667  -0.302   3.195   4.976 -0.1387 -0.0058  0.2805
  939MOL0     C26668  -0.163   3.239   4.971  0.2174  0.1484  0.1741
  939MOL0     C26669  -0.064   3.133   4.922 -0.6298  0.1906  0.9820
  939MOL0     C26670  -0.086   3.079   4.777  0.9532 -0.8013 -0.0727
  939MOL0     C26671   0.020   2.977   4.747 -0.0885  0.9659  0.2495
  939MOL0     C26672   0.007   2.942   4.592  0.7152 -1.0857  1.1764
  939MOL0     C26673   0.110   2.834   4.557 -0.7911 -0.0973  0.2461
  939MOL0    Cl26674   0.129   2.820   4.377  0.6312 -0.0728  0.4562
  939MOL0     C26675  -0.376   2.901   5.282 -0.6022  0.5086 -0.0199
  939MOL0     C26676  -0.367   2.801   5.381 -0.0845  0.6454  0.7977
  939MOL0     O26677  -0.346   2.409   5.293  0.0502 -0.2214 -0.1695
  939MOL0     C26678  -0.261   2.226   5.479 -0.3953  0.7012 -0.6860
  939MOL0     C26679  -0.214   2.138   5.577 -0.6537 -0.4385  0.3017
  939MOL0     N26680   0.071   1.475   5.991 -0.7113  0.9219  0.2888
  939MOL0     N26681   0.091   1.369   5.924 -0.3855  0.2919  0.6435
  939MOL0     C26682   0.795   1.025   4.974 -0.5075  0.5218 -0.2900
  939MOL0     C26683   0.907   1.045   4.891 -0.3370  1.3086  0.0683
  939MOL0     C26684   1.123   1.137   4.498 -0.2044  0.7105  0.3220
  939MOL0     C26685   1.232   1.049   4.495  0.1490  0.5212  0.7348
  939MOL0     C26686   1.348   1.072   4.416 -1.0986  0.6631 -0.6903
  939MOL0     C26687   1.355   1.189   4.335 -0.5649  0.6676 -0.1439
  939MOL0     O26688   1.454   1.229   4.245  0.9325  0.1669 -0.1667
  939MOL0     C26689   1.564   1.142   4.211  0.5454 -0.0287 -0.6864
  939MOL0     C26690   1.533   1.053   4.094  0.5505 -0.1915 -0.2208
  939MOL0     C26691   1.622   0.929   4.066  0.3577  0.6989  0.6557
  939MOL0     C26692   1.766   0.964   4.044 -0.3087 -0.4125  0.0306
  939MOL0     C26693   1.803   1.080   3.948  0.9066 -0.6548  0.3817
  939MOL0     C26694   1.826   1.168   3.863  0.5960 -0.3800  0.0204
  939MOL0     C26695   1.251   1.274   4.336  0.8399  0.1226 -0.7171
  939MOL0     C26696   1.137   1.254   4.418 -0.4693 -1.2589  1.3608
  939MOL0     C26697   1.042   1.364   4.424  0.7049  0.3151 -0.0301
  939MOL0     H26698   0.824   0.827   4.646  1.9119 -1.5327  0.4029
  939MOL0     H26699   0.623   0.827   4.776 -0.4190 -0.0348  0.9890
  939MOL0     H26700   0.642   0.917   5.209  0.7269  1.7250 -0.0598
  939MOL0     H26701   0.551   1.060   5.153  0.7969  0.2424 -3.2048
  939MOL0     H26702   0.433   0.782   5.204  1.8572  0.1237 -3.3254
  939MOL0     H26703   0.340   0.903   5.132 -2.6426 -1.7747  3.4497
  939MOL0     H26704   0.471   0.947   5.387  0.2862  0.9480 -0.7816
  939MOL0     H26705   0.301   0.889   5.389  0.4033 -0.0876  0.5929
  939MOL0     H26706   0.409   1.152   5.297 -2.2772  1.3645 -0.2948
  939MOL0     H26707   0.253   1.085   5.245  1.5771  3.5351 -1.1479
  939MOL0     H26708   0.179   1.057   5.467 -0.1562 -0.1227 -0.2144
  939MOL0     H26709   0.329   1.104   5.543 -2.4967 -0.6677  1.3688
  939MOL0     H26710   0.316   1.338   5.464 -0.9729  1.0769 -0.1177
  939MOL0     H26711   0.182   1.301   5.359 -1.2037  1.9217  0.2314
  939MOL0     H26712   0.037   1.310   5.551 -0.3988  1.9399 -0.0253
  939MOL0     H26713   0.153   1.433   5.533 -0.2443 -0.4449 -2.0318
  939MOL0     H26714   0.203   1.205   5.733 -0.7381  0.1570  0.8336
  939MOL0     H26715   0.303   1.338   5.705  1.0116 -0.6299  2.6233
  939MOL0     H26716   0.134   1.599   5.702  1.9942  3.0146  2.4713
  939MOL0     H26717   0.113   1.747   6.037 -0.6759 -1.3101 -0.2052
  939MOL0     H26718   0.128   1.784   5.862  0.6462 -0.8256 -0.7250
  939MOL0     H26719  -0.138   1.714   5.864  0.2074  1.2196 -1.6262
  939MOL0     H26720  -0.105   1.717   6.044  2.6515 -1.2703  0.0112
  939MOL0     H26721  -0.043   1.967   6.005  0.2837  1.6631 -1.4193
  939MOL0     H26722  -0.220   1.918   5.978 -0.8383 -1.4545 -2.0430
  939MOL0     H26723  -0.199   1.921   5.750  1.3325 -1.0372 -1.2557
  939MOL0     H26724  -0.027   1.949   5.752  1.4855 -0.1855  2.7446
  939MOL0     H26725  -0.225   2.335   5.851 -0.1711 -0.8313  0.6174
  939MOL0     H26726  -0.304   2.491   5.676 -0.5219 -0.8753  2.9433
  939MOL0     H26727  -0.148   2.600   5.200  1.7384  0.3073 -0.1985
  939MOL0     H26728  -0.164   2.775   5.044  1.3432 -1.2369  1.0083
  939MOL0     H26729  -0.437   3.142   5.132  0.2705 -0.4037  1.9150
  939MOL0     H26730  -0.269   3.148   5.191 -1.9080 -0.1762  1.6657
  939MOL0     H26731  -0.330   3.135   4.889 -0.2568  1.0603 -0.4340
  939MOL0     H26732  -0.365   3.283   4.963  1.7539  1.1320 -2.0115
  939MOL0     H26733  -0.167   3.327   4.906 -1.6408  0.8829  1.2086
  939MOL0     H26734  -0.125   3.275   5.067  1.0811 -0.6565  0.1538
  939MOL0     H26735  -0.066   3.047   4.989 -0.0203  0.0875  0.8767
  939MOL0     H26736   0.038   3.172   4.934  1.3557 -3.2142 -2.6239
  939MOL0     H26737  -0.082   3.162   4.706 -1.4771 -0.3702  0.1994
  939MOL0     H26738  -0.189   3.043   4.766  0.4499  1.1500 -2.7911
  939MOL0     H26739   0.120   3.020   4.760  1.4148 -1.8138 -1.0551
  939MOL0     H26740   0.012   2.882   4.802 -0.2645  0.2062 -1.0424
  939MOL0     H26741   0.035   3.028   4.531  1.1476 -2.3440 -0.4778
  939MOL0     H26742  -0.092   2.905   4.563  0.5577  1.3974 -2.0525
  939MOL0     H26743   0.212   2.860   4.589 -1.1864  0.5535  1.0017
  939MOL0     H26744   0.085   2.740   4.605  2.9477 -1.3982 -0.0066
  939MOL0     H26745  -0.426   2.993   5.311  0.8074  1.1149  0.5775
  939MOL0     H26746  -0.420   2.811   5.475  2.3447  0.1541  2.3086
  939MOL0     H26747  -0.255   2.181   5.381  0.4245  0.0898 -0.3658
  939MOL0     H26748  -0.181   2.039   5.546  3.8738  1.4631 -1.9452
  939MOL0     H26749   0.802   1.067   5.073  0.3351  1.4242 -0.7123
  939MOL0     H26750   0.980   1.115   4.930 -0.7250  0.1679  3.1438
  939MOL0     H26751   1.223   0.958   4.553  0.6308  0.3072  0.4821
  939MOL0     H26752   1.431   1.002   4.411  0.7940  2.8428 -1.2778
  939MOL0     H26753   1.593   1.094   4.305  0.9287 -0.4920 -1.0294
  939MOL0     H26754   1.648   1.203   4.174  1.4524 -0.5571  0.4333
  939MOL0     H26755   1.528   1.113   4.003 -1.7635  1.7890  1.0775
  939MOL0     H26756   1.433   1.010   4.104  0.8531 -1.3369 -1.8584
  939MOL0     H26757   1.583   0.889   3.972 -0.5159  2.5189  0.2100
  939MOL0     H26758   1.605   0.851   4.140  0.8629 -0.4605 -0.4048
  939MOL0     H26759   1.794   0.983   4.148 -0.0295  0.6118 -0.2154
  939MOL0     H26760   1.818   0.875   4.010  0.1613  0.4008 -1.4642
  939MOL0     H26761   1.845   1.248   3.794  0.9947 -0.1599  0.3878
  939MOL0     H26762   1.243   1.351   4.261 -1.9755 -2.1441 -3.0102
  939MOL0     H26763   0.962   1.337   4.355  1.5023 -1.9715 -0.1220
  939MOL0     H26764   1.009   1.383   4.527 -0.5461  4.3703 -0.9724
  939MOL0     H26765   1.071   1.463   4.386 -0.3485  0.7756  0.3088
  940MOL0     O26766   7.364   8.153  10.798 -0.4168  0.2578 -0.0569
  940MOL0     C26767   7.406   8.110  10.908 -0.6980 -0.2849  0.0085
  940MOL0     O26768   7.402   8.188  11.026 -0.3147 -0.1779 -0.3957
  940MOL0     C26769   7.396   8.325  11.029 -0.9259 -0.3801  0.2074
  940MOL0     C26770   7.469   8.410  11.112 -0.0614  0.2559 -1.0561
  940MOL0     C26771   7.464   8.546  11.102 -0.2926 -0.5020 -0.1673
  940MOL0     C26772   7.377   8.614  11.015  0.1617 -0.8744 -0.0617
  940MOL0     O26773   7.403   8.744  10.999 -0.1647 -0.2712  0.0116
  940MOL0     C26774   7.290   8.823  11.019 -0.6666 -0.1203 -1.3451
  940MOL0     C26775   7.217   8.854  10.884 -0.1396  0.2012 -0.1590
  940MOL0     C26776   7.106   8.959  10.916 -0.1775  0.4111 -0.1593
  940MOL0     C26777   7.050   9.019  10.788  0.8129  0.2734  0.3435
  940MOL0     C26778   6.946   9.134  10.817 -0.6941 -0.3352 -0.5120
  940MOL0     C26779   6.897   9.193  10.686  0.0029  0.5770  1.1171
  940MOL0     C26780   6.766   9.272  10.692  0.8646  0.7140  0.4319
  940MOL0     C26781   6.770   9.389  10.789 -0.2805  0.4361  0.3731
  940MOL0     N26782   6.877   9.482  10.753  0.3136 -0.1163  0.8595
  940MOL0     C26783   6.860   9.581  10.655  0.2827 -0.3033  0.0737
  940MOL0     C26784   6.973   9.656  10.656  0.3079  0.0852  0.3649
  940MOL0     C26785   7.009   9.774  10.564  0.3036 -1.1530  0.0533
  940MOL0     C26786   7.166   9.777  10.545 -0.3259 -0.1901  0.8417
  940MOL0     C26787   7.222   9.831  10.411 -0.0129  0.6258 -0.1424
  940MOL0     C26788   7.177   9.984  10.404 -0.2302 -0.6409 -0.4414
  940MOL0     O26789   7.247  10.048  10.292 -0.1140 -0.1813  0.5280
  940MOL0     C26790   7.366  10.103  10.315  0.4408  0.5786  0.2349
  940MOL0     C26791   7.447  10.089  10.425 -0.0773 -0.2246  0.1135
  940MOL0     C26792   7.566  10.161  10.443 -0.6382 -0.1192 -0.0544
  940MOL0     C26793   7.610  10.254  10.345  0.3310 -0.0859 -0.5789
  940MOL0     C26794   7.737  10.327  10.370 -0.0267  1.2031  0.4606
  940MOL0     O26795   7.772  10.417  10.278 -0.6412 -0.2926  1.0238
  940MOL0     C26796   7.891  10.472  10.289 -0.0001 -0.4858 -0.6395
  940MOL0     C26797   8.007  10.394  10.276 -0.7469  0.2877 -0.1218
  940MOL0     C26798   8.134  10.453  10.276 -0.7060  0.1090 -1.0144
  940MOL0     C26799   8.151  10.599  10.283 -0.6025 -0.4615  0.4035
  940MOL0     O26800   8.269  10.671  10.289 -0.2544  0.2274 -0.5387
  940MOL0     C26801   8.396  10.631  10.236  0.5829  0.2908 -1.0169
  940MOL0     C26802   8.513  10.713  10.290 -0.8287 -0.8382  0.1679
  940MOL0     C26803   8.491  10.864  10.292  0.7000 -0.5752  0.6244
  940MOL0     C26804   8.621  10.945  10.299 -0.6959 -1.2493 -0.1531
  940MOL0     C26805   8.674  11.005  10.168 -0.6985 -0.0889 -0.5431
  940MOL0     C26806   8.582  11.077  10.073 -0.4953 -0.0432 -0.4096
  940MOL0     C26807   8.660  11.175   9.987  0.1558 -0.1317 -0.0448
  940MOL0     C26808   8.574  11.256   9.899  0.1763  0.1808 -0.0752
  940MOL0    Cl26809   8.695  11.343   9.797  0.5999 -0.5125  0.2432
  940MOL0     C26810   8.034  10.669  10.303 -0.3669  0.1582  0.0121
  940MOL0     C26811   7.898  10.611  10.302  0.3095  0.5785 -0.0802
  940MOL0     O26812   7.806  10.291  10.465  0.5910 -0.0177 -0.3414
  940MOL0     C26813   7.528  10.262  10.226  0.7523  0.3288  0.1672
  940MOL0     C26814   7.406  10.196  10.216 -0.0690  0.4995  0.5484
  940MOL0     N26815   7.042   9.613  10.769 -0.2641 -0.3178 -0.4109
  940MOL0     N26816   6.993   9.511  10.822  0.0105 -0.1917 -0.1562
  940MOL0     C26817   7.288   8.526  10.947  0.1084  0.1592 -0.1649
  940MOL0     C26818   7.293   8.392  10.960  0.7112 -0.0336 -0.4307
  940MOL0     C26819   7.454   7.974  10.921  0.3199  0.6340 -0.4688
  940MOL0     C26820   7.518   7.942  11.042  0.1184  0.7782 -0.3107
  940MOL0     C26821   7.548   7.808  11.072  0.3995 -0.4205  0.5433
  940MOL0     C26822   7.523   7.704  10.989 -0.3350 -0.9352 -0.7051
  940MOL0     O26823   7.569   7.582  11.030  0.7197 -0.5728 -0.0248
  940MOL0     C26824   7.469   7.488  11.031 -0.6036 -0.1412  0.0038
  940MOL0     C26825   7.510   7.380  11.129  0.7241 -0.4816 -0.3606
  940MOL0     C26826   7.655   7.324  11.121 -0.7638 -0.2998  0.8945
  940MOL0     C26827   7.689   7.266  10.984  0.4739 -1.1407 -1.4320
  940MOL0     C26828   7.819   7.189  10.989  0.8197 -0.6752 -0.5228
  940MOL0     C26829   7.931   7.142  11.006  0.0591 -0.2906 -0.2910
  940MOL0     C26830   7.465   7.734  10.870 -0.8892  0.2473 -0.0069
  940MOL0     C26831   7.442   7.864  10.824 -0.6968 -0.7099 -0.7421
  940MOL0     C26832   7.389   7.879  10.686 -0.3622  0.6658  0.2877
  940MOL0     H26833   7.538   8.369  11.186 -0.5035 -1.2649 -1.4383
  940MOL0     H26834   7.541   8.599  11.157 -1.5164  0.5639  0.5812
  940MOL0     H26835   7.216   8.788  11.091  1.7414 -2.1276  0.3341
  940MOL0     H26836   7.324   8.918  11.062  1.4096 -1.2633 -0.3383
  940MOL0     H26837   7.176   8.760  10.846 -1.0986  0.1253  1.0027
  940MOL0     H26838   7.287   8.898  10.811  0.4744 -0.7657 -0.1715
  940MOL0     H26839   7.164   9.040  10.962  1.0437  0.5586 -1.8408
  940MOL0     H26840   7.028   8.924  10.983  0.9266  1.8577  1.9900
  940MOL0     H26841   7.127   9.064  10.725  0.3775 -1.7457 -1.7869
  940MOL0     H26842   7.007   8.937  10.730  3.4572 -0.0359 -1.3196
  940MOL0     H26843   6.858   9.089  10.864 -0.0915  0.5812  1.5876
  940MOL0     H26844   6.999   9.213  10.871 -1.2141 -0.8841  0.8471
  940MOL0     H26845   6.974   9.256  10.639  0.5471  0.1749  1.4684
  940MOL0     H26846   6.882   9.108  10.620  2.4525 -0.2822  1.5599
  940MOL0     H26847   6.690   9.202  10.727  2.2705 -1.1997 -0.1952
  940MOL0     H26848   6.742   9.307  10.591 -1.2453  1.5856  1.1805
  940MOL0     H26849   6.676   9.445  10.792 -0.3690  0.2508  3.4261
  940MOL0     H26850   6.786   9.343  10.887 -1.0259 -0.5819  0.0378
  940MOL0     H26851   6.785   9.580  10.577  1.8458  2.5996 -1.6106
  940MOL0     H26852   6.957   9.769  10.468 -1.9390  3.3920  0.7751
  940MOL0     H26853   6.978   9.869  10.608 -0.1092 -1.4250  0.3549
  940MOL0     H26854   7.226   9.811  10.630  3.7132 -3.6960 -0.2312
  940MOL0     H26855   7.202   9.674  10.534  2.0930  0.8450 -3.0541
  940MOL0     H26856   7.184   9.766  10.332  5.0510 -2.8413 -0.1868
  940MOL0     H26857   7.330   9.815  10.411 -0.1555 -0.5406 -1.5365
  940MOL0     H26858   7.195  10.028  10.502 -0.6797 -3.8541  1.2077
  940MOL0     H26859   7.068   9.989  10.392 -1.0516 -0.5657  4.8518
  940MOL0     H26860   7.422  10.020  10.505  2.6839 -0.8194  0.5621
  940MOL0     H26861   7.616  10.130  10.535 -0.3848 -5.8972 -1.7484
  940MOL0     H26862   8.001  10.289  10.249 -2.0268 -0.4701  2.6908
  940MOL0     H26863   8.220  10.396  10.244 -1.5228  0.2698 -3.7595
  940MOL0     H26864   8.410  10.532  10.281 -1.5670  1.1805  1.9439
  940MOL0     H26865   8.384  10.622  10.127 -0.6873  1.7694 -1.0266
  940MOL0     H26866   8.538  10.691  10.394  1.7675 -0.3423 -0.2863
  940MOL0     H26867   8.601  10.694  10.228 -0.9107  3.2355 -1.5164
  940MOL0     H26868   8.435  10.881  10.199  0.0650 -2.5454  0.5947
  940MOL0     H26869   8.423  10.892  10.374 -0.4359 -0.8522 -0.1949
  940MOL0     H26870   8.702  10.892  10.350  0.5302 -1.4099 -2.1651
  940MOL0     H26871   8.611  11.039  10.355  3.5226 -0.6664 -0.0458
  940MOL0     H26872   8.734  10.936  10.108 -0.9971 -2.6018  1.8558
  940MOL0     H26873   8.750  11.073  10.207 -0.8073 -0.9064  1.1495
  940MOL0     H26874   8.538  11.004  10.004 -3.2809  1.9680 -0.9091
  940MOL0     H26875   8.497  11.125  10.122 -2.1026 -1.3515 -1.7782
  940MOL0     H26876   8.734  11.123   9.926 -0.0938  0.0048 -0.4683
  940MOL0     H26877   8.718  11.245  10.046 -0.5602  1.3317 -1.0046
  940MOL0     H26878   8.496  11.196   9.850  0.4873  0.2779 -0.6961
  940MOL0     H26879   8.520  11.334   9.954  2.1842  0.0065  2.2952
  940MOL0     H26880   8.033  10.773  10.334 -2.2830  0.7726 -1.8813
  940MOL0     H26881   7.810  10.674  10.311 -1.2677 -0.8294 -3.8590
  940MOL0     H26882   7.556  10.321  10.139 -1.0706  2.6105  1.0367
  940MOL0     H26883   7.338  10.199  10.132  0.0852  0.5911  0.4240
  940MOL0     H26884   7.220   8.548  10.865  2.0790 -0.7022 -2.1679
  940MOL0     H26885   7.221   8.318  10.926 -1.6153  2.2808 -0.8032
  940MOL0     H26886   7.542   8.012  11.122 -2.2487  1.4303 -0.0736
  940MOL0     H26887   7.593   7.772  11.164  3.5914 -0.4478 -0.8656
  940MOL0     H26888   7.466   7.448  10.929 -0.1409 -2.4080  0.8216
  940MOL0     H26889   7.373   7.529  11.062  0.1970  1.2306  0.7441
  940MOL0     H26890   7.432   7.303  11.131  0.5828 -0.3979 -1.7807
  940MOL0     H26891   7.504   7.434  11.224 -1.7490  1.2775 -1.3995
  940MOL0     H26892   7.677   7.263  11.209  2.1505 -3.3017 -1.6294
  940MOL0     H26893   7.722   7.408  11.142 -0.3077 -1.4270  4.7182
  940MOL0     H26894   7.610   7.197  10.952 -0.4599  0.0005 -1.6444
  940MOL0     H26895   7.709   7.346  10.913  1.8669 -0.9231 -0.8359
  940MOL0     H26896   8.020   7.083  11.007  0.7346  0.6173 -2.4926
  940MOL0     H26897   7.456   7.648  10.804  1.8711 -0.2067  0.0780
  940MOL0     H26898   7.360   7.783  10.643  0.3827  0.5358  0.0723
  940MOL0     H26899   7.304   7.947  10.698  0.4677  1.6393  0.7574
  940MOL0     H26900   7.462   7.928  10.621 -0.7639  2.0598  0.8528
  941MOL0     O26901   2.888  10.109   2.796 -0.2184  0.5269 -0.9513
  941MOL0     C26902   2.803  10.103   2.702  0.3975  0.2520 -0.1044
  941MOL0     O26903   2.824  10.027   2.581 -0.1523  0.2452  0.4216
  941MOL0     C26904   2.948   9.975   2.555 -0.3647  0.1999 -0.2197
  941MOL0     C26905   3.060  10.058   2.534  0.3171 -0.0870 -0.3380
  941MOL0     C26906   3.193  10.000   2.507 -0.1530  0.0750 -0.3083
  941MOL0     C26907   3.206   9.860   2.484 -0.4868 -0.2906 -0.2463
  941MOL0     O26908   3.322   9.794   2.441  0.5111  0.2030 -0.7873
  941MOL0     C26909   3.444   9.829   2.499  0.5885 -0.9488  0.0561
  941MOL0     C26910   3.546   9.740   2.419  1.3900 -0.0995 -0.2022
  941MOL0     C26911   3.559   9.767   2.267 -0.6511 -0.4982  0.6759
  941MOL0     C26912   3.552   9.913   2.229  0.7393  0.1652 -0.9823
  941MOL0     C26913   3.623   9.927   2.093 -0.0384 -0.5706  0.4268
  941MOL0     C26914   3.609  10.059   2.022  0.4999 -0.5679 -0.1726
  941MOL0     C26915   3.680  10.048   1.877  0.2930 -0.3678 -0.5481
  941MOL0     C26916   3.611   9.959   1.769 -0.2178 -0.3024 -0.7479
  941MOL0     N26917   3.495  10.031   1.711 -0.0793  1.1632  0.5509
  941MOL0     C26918   3.500  10.157   1.663  0.0790 -0.3043  0.2137
  941MOL0     C26919   3.380  10.181   1.622  0.3262  0.1441 -1.0759
  941MOL0     C26920   3.318  10.308   1.583 -0.0933 -0.5968  0.1379
  941MOL0     C26921   3.243  10.377   1.702  0.7082  1.0492 -0.9314
  941MOL0     C26922   3.225  10.521   1.726 -0.3202 -0.1789 -0.9799
  941MOL0     C26923   3.322  10.583   1.815  0.1860  0.2805  0.3645
  941MOL0     O26924   3.452  10.567   1.756  0.6106  0.8888 -0.2284
  941MOL0     C26925   3.480  10.670   1.666 -0.7294  0.5327  0.6243
  941MOL0     C26926   3.587  10.756   1.697 -0.1488 -0.1616  0.3789
  941MOL0     C26927   3.636  10.853   1.606  0.2520  0.6356 -0.3113
  941MOL0     C26928   3.579  10.867   1.472  0.4043  0.7654 -0.2398
  941MOL0     C26929   3.631  10.971   1.380  0.0586  0.1503  1.0248
  941MOL0     O26930   3.679  11.074   1.445 -0.0365 -0.0863 -0.2625
  941MOL0     C26931   3.702  11.180   1.364  0.7507 -0.0850  0.4012
  941MOL0     C26932   3.600  11.277   1.356 -0.2042 -0.2398 -0.0074
  941MOL0     C26933   3.628  11.398   1.285  0.7119 -0.6255 -0.6288
  941MOL0     C26934   3.750  11.421   1.224 -0.5576 -1.0349 -0.8390
  941MOL0     O26935   3.786  11.539   1.157 -1.1816  0.2503 -0.2745
  941MOL0     C26936   3.696  11.628   1.099  0.3963  0.2860 -0.0340
  941MOL0     C26937   3.744  11.668   0.952  0.6630 -0.0685  0.1535
  941MOL0     C26938   3.852  11.769   0.967  0.3497  0.4553  0.2581
  941MOL0     C26939   3.847  11.866   0.851  0.4263  0.1565  1.2129
  941MOL0     C26940   3.885  12.003   0.905 -1.3408  0.6885 -0.8921
  941MOL0     C26941   4.041  12.013   0.930  0.6482 -0.1722  0.4155
  941MOL0     C26942   4.078  12.146   1.000  0.6322 -0.6879  0.5903
  941MOL0     C26943   4.049  12.269   0.920  0.8084 -0.0831 -0.9900
  941MOL0    Cl26944   4.092  12.254   0.739 -0.0934 -0.0438  0.0074
  941MOL0     C26945   3.856  11.323   1.236 -0.4124 -0.0256 -0.6368
  941MOL0     C26946   3.829  11.206   1.308  0.0830  0.5817  0.3568
  941MOL0     O26947   3.611  10.965   1.260 -0.4971 -0.3397 -0.3425
  941MOL0     C26948   3.485  10.767   1.439  0.6223  0.1898  0.6269
  941MOL0     C26949   3.441  10.670   1.528  0.3678 -0.1066  0.0692
  941MOL0     N26950   3.299  10.071   1.641  0.2617 -0.0136 -0.6918
  941MOL0     N26951   3.376   9.978   1.682 -0.3921  0.3585 -0.1019
  941MOL0     C26952   3.087   9.789   2.493 -0.6295 -0.0716  0.7581
  941MOL0     C26953   2.963   9.836   2.542 -0.5058 -0.3291  0.7773
  941MOL0     C26954   2.670  10.169   2.710  0.0066 -0.6906  0.4701
  941MOL0     C26955   2.558  10.123   2.641  0.1921 -0.0989 -0.1743
  941MOL0     C26956   2.427  10.174   2.664 -0.2079  0.6230 -0.3681
  941MOL0     C26957   2.409  10.281   2.763  0.4894 -0.7042  0.3031
  941MOL0     O26958   2.286  10.321   2.800 -0.4348 -1.2490  0.9813
  941MOL0     C26959   2.172  10.265   2.734 -0.3434  0.4695  0.1261
  941MOL0     C26960   2.049  10.327   2.793  1.0353 -0.0697  0.0586
  941MOL0     C26961   2.045  10.300   2.938 -0.0911 -0.7333 -0.2501
  941MOL0     C26962   1.909  10.348   2.991 -0.1048  0.1440  0.9139
  941MOL0     C26963   1.799  10.261   2.944 -0.2766  0.5770 -0.4974
  941MOL0     C26964   1.707  10.202   2.893  0.1293  0.1859  0.3818
  941MOL0     C26965   2.517  10.323   2.831  0.2440 -0.0295 -0.0455
  941MOL0     C26966   2.648  10.275   2.802  0.5536  0.5402 -1.0104
  941MOL0     C26967   2.758  10.345   2.880 -0.4502  0.6967 -0.4999
  941MOL0     H26968   3.048  10.164   2.552 -0.1976 -0.4894  1.9229
  941MOL0     H26969   3.285  10.056   2.498 -0.6316  0.7066 -1.5584
  941MOL0     H26970   3.466   9.935   2.483 -1.0270 -0.7745 -1.2812
  941MOL0     H26971   3.441   9.803   2.605 -4.2825 -2.2325 -0.1717
  941MOL0     H26972   3.540   9.634   2.444  1.3367 -0.4062 -1.4875
  941MOL0     H26973   3.643   9.760   2.466  0.6909  0.8516  0.8988
  941MOL0     H26974   3.471   9.716   2.228  0.3766 -1.6410 -0.1847
  941MOL0     H26975   3.645   9.720   2.218 -1.6196  0.6496 -2.3058
  941MOL0     H26976   3.450   9.950   2.219  1.6442  3.3260  0.1108
  941MOL0     H26977   3.602   9.973   2.306  1.0888 -0.6263 -0.5757
  941MOL0     H26978   3.729   9.913   2.117  0.4876 -0.6546 -1.7322
  941MOL0     H26979   3.588   9.860   2.014 -0.7816  3.2544 -2.9027
  941MOL0     H26980   3.506  10.095   2.026 -0.1880 -2.0837 -2.4661
  941MOL0     H26981   3.663  10.138   2.076 -0.8080 -1.0472  1.9495
  941MOL0     H26982   3.783  10.014   1.894  0.1270 -0.7246 -0.2500
  941MOL0     H26983   3.686  10.151   1.842  1.4354 -0.7906 -1.6883
  941MOL0     H26984   3.690   9.939   1.697 -0.2093 -2.1791 -0.2559
  941MOL0     H26985   3.575   9.867   1.816 -2.2896  1.7001  1.9535
  941MOL0     H26986   3.590  10.218   1.652  0.6976 -0.5109  3.2835
  941MOL0     H26987   3.407  10.362   1.547 -0.9367 -0.4290 -1.8286
  941MOL0     H26988   3.256  10.308   1.493 -1.3045  1.0891  0.9049
  941MOL0     H26989   3.140  10.342   1.702  0.0619  2.6842  1.5158
  941MOL0     H26990   3.297  10.338   1.789  1.2087 -1.2404 -2.1855
  941MOL0     H26991   3.129  10.529   1.779  1.5605  2.6534  2.4440
  941MOL0     H26992   3.215  10.577   1.633 -3.5951  0.7730 -0.1853
  941MOL0     H26993   3.317  10.532   1.912  3.2311 -1.1858 -0.1234
  941MOL0     H26994   3.309  10.691   1.813  1.2744  0.4157 -1.2591
  941MOL0     H26995   3.620  10.761   1.800  0.5374 -0.3132  0.1707
  941MOL0     H26996   3.724  10.911   1.631  0.3204  1.5160 -2.3540
  941MOL0     H26997   3.503  11.266   1.403 -0.6441  1.7316 -0.3779
  941MOL0     H26998   3.553  11.477   1.281 -0.5429 -1.7325  0.3932
  941MOL0     H26999   3.600  11.577   1.087  1.2140 -2.2640  2.9175
  941MOL0     H27000   3.678  11.714   1.163 -1.7687 -0.8675  1.0225
  941MOL0     H27001   3.784  11.584   0.896  0.5276 -0.8256  1.1732
  941MOL0     H27002   3.652  11.699   0.901  0.2921 -0.9302  0.2745
  941MOL0     H27003   3.845  11.830   1.058  1.9871  0.7438  0.2069
  941MOL0     H27004   3.945  11.712   0.967  0.7162  1.0347 -0.4260
  941MOL0     H27005   3.749  11.878   0.805  0.5735 -1.9331  0.2354
  941MOL0     H27006   3.910  11.831   0.768 -2.3993 -1.5367 -0.3866
  941MOL0     H27007   3.825  12.024   0.994 -0.8191  2.3612 -0.9028
  941MOL0     H27008   3.861  12.071   0.822 -0.2602  0.2590 -1.5757
  941MOL0     H27009   4.071  11.924   0.986  0.5192 -0.7884 -0.4831
  941MOL0     H27010   4.095  11.999   0.836 -0.0461 -1.1392  0.1429
  941MOL0     H27011   4.186  12.151   1.019  1.0567 -0.8641 -1.5386
  941MOL0     H27012   4.029  12.156   1.097  0.7176  0.8517  0.5005
  941MOL0     H27013   3.945  12.300   0.926  0.7368 -0.3348 -0.9286
  941MOL0     H27014   4.104  12.345   0.976  0.0884  0.0328 -0.4280
  941MOL0     H27015   3.951  11.344   1.189  0.0049  2.5394  1.1509
  941MOL0     H27016   3.912  11.140   1.327 -0.9289 -0.3583  1.7100
  941MOL0     H27017   3.444  10.775   1.339  2.7733 -0.2985 -0.3468
  941MOL0     H27018   3.373  10.595   1.490 -1.2468  1.1559  0.3527
  941MOL0     H27019   3.094   9.681   2.497  1.1126 -0.0545 -0.6465
  941MOL0     H27020   2.883   9.768   2.567 -0.2522 -1.0834 -0.4361
  941MOL0     H27021   2.570  10.047   2.565 -1.6180  1.0418 -1.6852
  941MOL0     H27022   2.348  10.144   2.596 -2.3879  0.9307  1.8719
  941MOL0     H27023   2.172  10.156   2.732  2.3819  0.3228  2.5087
  941MOL0     H27024   2.173  10.305   2.632  1.4434  1.9616  0.6778
  941MOL0     H27025   1.952  10.311   2.745 -0.2852  3.5674  1.1673
  941MOL0     H27026   2.072  10.433   2.785 -3.7368  1.2962  1.0887
  941MOL0     H27027   2.130  10.350   2.986  0.7315 -0.8888 -1.4821
  941MOL0     H27028   2.060  10.197   2.970 -1.0125 -0.2679  1.8904
  941MOL0     H27029   1.915  10.341   3.100  0.1135 -0.5011  0.8686
  941MOL0     H27030   1.889  10.454   2.974  0.2262 -0.2173 -2.5403
  941MOL0     H27031   1.636  10.147   2.836 -1.6995  0.9249  1.8272
  941MOL0     H27032   2.497  10.397   2.909 -0.6848  0.9296 -1.1555
  941MOL0     H27033   2.800  10.277   2.955 -1.7801 -1.4314 -1.5722
  941MOL0     H27034   2.832  10.394   2.817  0.8325 -0.3645  0.1449
  941MOL0     H27035   2.715  10.422   2.945 -1.7448 -0.1876 -0.2589
  942MOL0     O27036   6.368   3.374   7.879  0.2316 -0.1643  0.2462
  942MOL0     C27037   6.344   3.364   7.758  0.4169  0.2736 -0.3114
  942MOL0     O27038   6.297   3.241   7.698  0.3413  0.0048 -0.0947
  942MOL0     C27039   6.341   3.123   7.749  0.3758  0.3612 -0.2445
  942MOL0     C27040   6.482   3.091   7.757 -0.6443  0.1473  0.8044
  942MOL0     C27041   6.526   2.962   7.769 -0.8500 -0.9656  0.1452
  942MOL0     C27042   6.443   2.859   7.808  0.4605 -0.0854  0.1296
  942MOL0     O27043   6.499   2.733   7.834 -0.3527  0.0801  0.4196
  942MOL0     C27044   6.432   2.623   7.777 -0.1554  0.8605  0.2069
  942MOL0     C27045   6.513   2.496   7.756  0.2481  0.1354 -0.1189
  942MOL0     C27046   6.564   2.439   7.890  0.0303  0.2954 -0.5394
  942MOL0     C27047   6.653   2.325   7.883 -0.6597  0.4578  0.4034
  942MOL0     C27048   6.624   2.202   7.802  0.3593 -0.2912 -0.1900
  942MOL0     C27049   6.475   2.157   7.831 -0.5310 -0.3712  0.0196
  942MOL0     C27050   6.476   2.077   7.961  0.3740  0.1686 -0.0535
  942MOL0     C27051   6.353   1.994   7.979  1.1171 -0.5720 -0.6796
  942MOL0     N27052   6.348   1.858   7.924  0.6157 -0.6439  0.0974
  942MOL0     C27053   6.326   1.815   7.797  0.2701  0.8820  1.0310
  942MOL0     C27054   6.301   1.684   7.807 -0.2629  0.1000 -0.6578
  942MOL0     C27055   6.310   1.587   7.697 -0.3584  0.2448  1.1967
  942MOL0     C27056   6.179   1.570   7.620  1.0934  0.1577  0.2953
  942MOL0     C27057   6.123   1.705   7.551 -1.1055 -0.8915 -0.7095
  942MOL0     C27058   6.188   1.764   7.433 -0.2728 -0.1406 -0.0927
  942MOL0     O27059   6.105   1.861   7.370 -0.2839 -0.5176  0.5916
  942MOL0     C27060   6.140   1.905   7.243  0.2770  0.9634 -1.0202
  942MOL0     C27061   6.264   1.903   7.188 -0.3713 -1.3130 -0.7357
  942MOL0     C27062   6.276   1.970   7.066 -0.4322 -0.8762  0.0137
  942MOL0     C27063   6.170   2.044   7.002  0.3858  0.5751  0.7357
  942MOL0     C27064   6.182   2.132   6.885 -0.0213  0.0757  0.4084
  942MOL0     O27065   6.062   2.183   6.819  0.0411 -0.3620  0.4492
  942MOL0     C27066   6.070   2.273   6.714  1.1315  0.3058  0.6641
  942MOL0     C27067   6.052   2.229   6.582  0.5565  0.5372  0.0957
  942MOL0     C27068   6.019   2.321   6.483  0.2303 -0.2051  0.5534
  942MOL0     C27069   5.989   2.462   6.512 -0.0101 -0.3906  0.3863
  942MOL0     O27070   5.955   2.539   6.401  0.4992  0.1392 -0.9593
  942MOL0     C27071   5.962   2.686   6.413  0.1963  0.0283  0.8035
  942MOL0     C27072   5.942   2.765   6.280  0.6011  0.0811 -0.6651
  942MOL0     C27073   5.824   2.688   6.212 -0.6524 -0.7453 -0.9587
  942MOL0     C27074   5.788   2.775   6.084 -0.4356 -0.8061 -0.1227
  942MOL0     C27075   5.690   2.880   6.127 -0.3249  0.2257  0.6119
  942MOL0     C27076   5.631   2.972   6.004 -0.5401 -0.9482 -0.4550
  942MOL0     C27077   5.537   3.074   6.072 -0.7087 -0.5343  0.4731
  942MOL0     C27078   5.390   3.041   6.029 -0.5290 -0.4198  0.4972
  942MOL0    Cl27079   5.279   3.061   6.166 -0.0245  0.2718  0.0582
  942MOL0     C27080   6.006   2.504   6.646  0.3974 -1.1361 -0.3928
  942MOL0     C27081   6.044   2.407   6.744  0.5607  0.4894  0.0389
  942MOL0     O27082   6.298   2.165   6.852 -0.0495 -0.2205  0.8761
  942MOL0     C27083   6.045   2.037   7.059 -0.0478  0.9227 -0.7677
  942MOL0     C27084   6.036   1.968   7.188 -0.2298 -0.8685 -0.2533
  942MOL0     N27085   6.314   1.644   7.939  0.1389 -0.5008 -0.2496
  942MOL0     N27086   6.328   1.750   8.009  0.1987 -0.1652  0.1459
  942MOL0     C27087   6.307   2.886   7.822  0.0784  0.7562  0.1651
  942MOL0     C27088   6.259   3.010   7.782 -0.1004  0.2377  0.1564
  942MOL0     C27089   6.390   3.468   7.671  0.2564 -0.4983 -0.1346
  942MOL0     C27090   6.325   3.482   7.551  0.6909 -0.2027 -0.3171
  942MOL0     C27091   6.360   3.570   7.451 -0.2290 -0.8021 -1.4813
  942MOL0     C27092   6.466   3.654   7.479  0.0341 -0.0800 -0.7335
  942MOL0     O27093   6.498   3.746   7.380 -0.5964  0.6298 -0.3890
  942MOL0     C27094   6.535   3.687   7.251  0.5120  0.0862 -0.3818
  942MOL0     C27095   6.662   3.598   7.237 -0.3650 -0.2203 -0.1466
  942MOL0     C27096   6.777   3.697   7.252 -0.8630  1.0882  0.3702
  942MOL0     C27097   6.910   3.646   7.194  0.2606 -0.2854  0.2194
  942MOL0     C27098   7.010   3.751   7.176  0.2621  0.5062 -0.4000
  942MOL0     C27099   7.077   3.852   7.165 -0.2083  0.5452 -0.0778
  942MOL0     C27100   6.532   3.650   7.595  0.7739  0.1124  0.2140
  942MOL0     C27101   6.502   3.559   7.694 -0.5817  0.3773  0.5662
  942MOL0     C27102   6.585   3.559   7.816  0.2594  0.1754  0.7471
  942MOL0     H27103   6.564   3.161   7.744  1.5211 -2.7099 -2.9343
  942MOL0     H27104   6.630   2.933   7.768  0.1067  1.9717 -2.5791
  942MOL0     H27105   6.344   2.597   7.837 -0.6529 -3.3525 -2.0011
  942MOL0     H27106   6.399   2.646   7.675  0.4067 -0.2190 -0.2316
  942MOL0     H27107   6.597   2.518   7.691 -1.8199  0.2556 -2.9543
  942MOL0     H27108   6.455   2.422   7.699  2.3537 -3.3122  1.8470
  942MOL0     H27109   6.472   2.414   7.944  1.6622 -0.6084  2.0358
  942MOL0     H27110   6.615   2.519   7.944  0.2451  1.4914 -2.4579
  942MOL0     H27111   6.747   2.360   7.839  0.1920 -2.3546 -0.2366
  942MOL0     H27112   6.668   2.293   7.987 -2.0437  0.6614  0.6919
  942MOL0     H27113   6.632   2.221   7.695  0.0447 -0.7310 -0.2980
  942MOL0     H27114   6.687   2.113   7.812 -1.8268 -1.9235 -0.1941
  942MOL0     H27115   6.411   2.245   7.842  0.9177  0.7215 -0.0716
  942MOL0     H27116   6.433   2.095   7.751 -0.0217 -0.4009 -0.2238
  942MOL0     H27117   6.499   2.157   8.032  2.8509  2.0967 -2.7993
  942MOL0     H27118   6.563   2.011   7.970 -0.1477 -0.8231 -1.9145
  942MOL0     H27119   6.346   1.983   8.088  3.7421  3.0124  0.0455
  942MOL0     H27120   6.266   2.045   7.938 -0.4283 -2.2064  0.4274
  942MOL0     H27121   6.333   1.872   7.705 -0.5077  2.8261  2.1089
  942MOL0     H27122   6.383   1.618   7.623 -0.4997 -0.8129  0.5914
  942MOL0     H27123   6.352   1.490   7.727  1.9896  0.5195 -0.8907
  942MOL0     H27124   6.192   1.490   7.547  0.3509  0.0762  0.2466
  942MOL0     H27125   6.102   1.549   7.695 -0.0285  0.7154 -0.6613
  942MOL0     H27126   6.116   1.782   7.629  1.8126 -1.8926  0.6643
  942MOL0     H27127   6.023   1.681   7.513 -2.4917 -0.3737  2.3094
  942MOL0     H27128   6.209   1.681   7.365  1.0578 -2.1813  2.5951
  942MOL0     H27129   6.285   1.797   7.470  1.6999 -2.8962 -2.4152
  942MOL0     H27130   6.348   1.854   7.236  1.2738  0.6329 -1.4576
  942MOL0     H27131   6.376   1.967   7.025 -0.1708  1.2072  0.4185
  942MOL0     H27132   6.077   2.130   6.546  0.2206  0.7764 -0.8208
  942MOL0     H27133   6.023   2.290   6.379 -0.9948 -3.6971  1.4339
  942MOL0     H27134   5.878   2.717   6.477  1.8307  0.2820  2.9362
  942MOL0     H27135   6.057   2.709   6.462  0.6009 -1.6459  0.8657
  942MOL0     H27136   5.915   2.866   6.311  2.0195 -0.2381  1.8620
  942MOL0     H27137   6.032   2.768   6.217 -0.6326  0.9539 -2.4804
  942MOL0     H27138   5.844   2.588   6.174  0.8928 -0.1794 -1.7032
  942MOL0     H27139   5.734   2.684   6.274  1.5283  0.4372  2.6151
  942MOL0     H27140   5.755   2.708   6.005  0.2535 -0.3244 -0.8419
  942MOL0     H27141   5.875   2.833   6.051 -1.6772  0.3191 -1.5255
  942MOL0     H27142   5.736   2.942   6.205  0.0539 -0.9968  1.3718
  942MOL0     H27143   5.597   2.833   6.161 -0.1238 -0.5382  0.1115
  942MOL0     H27144   5.711   3.017   5.944  1.7237 -0.9594  2.3350
  942MOL0     H27145   5.575   2.901   5.942 -1.3920 -1.9513  1.3832
  942MOL0     H27146   5.559   3.180   6.055 -1.9069 -0.2519  0.6119
  942MOL0     H27147   5.544   3.066   6.181 -2.5770  0.1570  0.6701
  942MOL0     H27148   5.362   3.081   5.932 -0.5506 -0.7833  0.3537
  942MOL0     H27149   5.389   2.932   6.017 -1.9134 -0.6154  1.9338
  942MOL0     H27150   5.970   2.601   6.681 -0.8321 -2.5124  2.4785
  942MOL0     H27151   6.053   2.437   6.848  0.0806  1.4360 -0.1769
  942MOL0     H27152   5.957   2.082   7.014 -1.1145 -0.4316 -0.1067
  942MOL0     H27153   5.942   1.973   7.242  1.4345  2.0739  2.6978
  942MOL0     H27154   6.255   2.803   7.869  0.7297  1.1395  1.6132
  942MOL0     H27155   6.153   3.025   7.764 -0.0669 -1.8242 -2.3454
  942MOL0     H27156   6.265   3.400   7.512  0.5581  1.3129 -3.6329
  942MOL0     H27157   6.310   3.568   7.355  1.2085  0.5197 -2.2938
  942MOL0     H27158   6.540   3.773   7.184  0.1032  2.6794  2.6600
  942MOL0     H27159   6.458   3.624   7.206 -0.8909  2.3215 -1.2423
  942MOL0     H27160   6.654   3.546   7.141  3.2499 -0.1195 -0.6223
  942MOL0     H27161   6.669   3.518   7.311  1.0446  1.2133  1.3605
  942MOL0     H27162   6.774   3.733   7.355  0.1250  2.8154 -0.1508
  942MOL0     H27163   6.754   3.788   7.196 -1.9594  0.7398  0.2336
  942MOL0     H27164   6.956   3.567   7.255 -2.7675 -0.9015  1.8903
  942MOL0     H27165   6.883   3.607   7.095 -3.1790  0.1614  0.8716
  942MOL0     H27166   7.127   3.946   7.154 -0.2107  0.4231 -1.2149
  942MOL0     H27167   6.617   3.714   7.616  0.3396  0.4856  0.8708
  942MOL0     H27168   6.529   3.586   7.906  0.7276 -0.1597  1.1477
  942MOL0     H27169   6.625   3.459   7.838  1.2536  0.1157 -1.1678
  942MOL0     H27170   6.676   3.618   7.801 -0.8719  1.4406 -1.8402
  943MOL0     O27171   4.571   9.306   8.958 -0.3481  0.6920  0.1921
  943MOL0     C27172   4.456   9.341   8.992 -0.1877  0.1892 -0.4970
  943MOL0     O27173   4.395   9.298   9.104 -0.1595 -0.3637  0.4768
  943MOL0     C27174   4.457   9.202   9.183  0.0803  0.6446  0.4963
  943MOL0     C27175   4.542   9.238   9.286 -0.7469 -0.0934  0.5934
  943MOL0     C27176   4.612   9.147   9.359  1.2085  0.2030  0.3357
  943MOL0     C27177   4.602   9.014   9.324  0.2683 -0.0768 -0.6237
  943MOL0     O27178   4.676   8.919   9.399 -0.6884 -0.5066  0.0108
  943MOL0     C27179   4.718   8.802   9.318  0.7542  0.4052 -0.7419
  943MOL0     C27180   4.843   8.744   9.380  0.8478 -0.3274 -0.5527
  943MOL0     C27181   4.959   8.845   9.360  0.3537 -0.3015 -0.4334
  943MOL0     C27182   5.080   8.802   9.425 -0.9020 -0.6505 -0.9525
  943MOL0     C27183   5.198   8.896   9.381 -1.3422 -0.0213  0.2737
  943MOL0     C27184   5.280   8.952   9.503  0.0302  0.0837  0.3354
  943MOL0     C27185   5.384   9.051   9.447 -1.5888  0.1736 -0.2004
  943MOL0     C27186   5.487   9.109   9.552  0.6617 -0.3987  0.5268
  943MOL0     N27187   5.450   9.208   9.649  0.2706  0.0184  0.4305
  943MOL0     C27188   5.456   9.186   9.778 -0.5918 -0.2522 -0.6055
  943MOL0     C27189   5.383   9.287   9.827  0.2040 -0.9940  0.0432
  943MOL0     C27190   5.354   9.313   9.972  0.0131  0.1796 -0.3478
  943MOL0     C27191   5.423   9.223  10.065 -0.1066 -1.0885 -0.7436
  943MOL0     C27192   5.348   9.091  10.079 -0.2931 -0.2193  0.3874
  943MOL0     C27193   5.416   8.996  10.175  0.4654 -0.5071 -0.4416
  943MOL0     O27194   5.529   8.940  10.107 -0.6435  0.0834 -0.3416
  943MOL0     C27195   5.600   8.845  10.162  0.2318  0.1651  0.2864
  943MOL0     C27196   5.569   8.765  10.276 -0.0325 -0.2777  0.6775
  943MOL0     C27197   5.659   8.670  10.325  0.7609  0.6158 -0.5223
  943MOL0     C27198   5.777   8.635  10.255  0.3475  0.1444 -0.7428
  943MOL0     C27199   5.864   8.526  10.293 -0.4943 -0.0866 -0.6397
  943MOL0     O27200   5.816   8.434  10.375  0.5442  0.3684 -0.7262
  943MOL0     C27201   5.881   8.313  10.407  0.0479  0.1189  0.8605
  943MOL0     C27202   5.970   8.238  10.322 -0.2875 -0.9252 -0.0139
  943MOL0     C27203   6.025   8.118  10.368 -0.5966  0.3851  0.7490
  943MOL0     C27204   5.990   8.072  10.496  0.9187 -0.3581  0.1255
  943MOL0     O27205   6.044   7.954  10.527  0.3547 -0.0638  0.2322
  943MOL0     C27206   5.965   7.867  10.609 -0.3669  1.1522 -0.5815
  943MOL0     C27207   6.045   7.740  10.642 -0.0849  0.3909 -0.2393
  943MOL0     C27208   5.957   7.641  10.709  0.2667  0.2770  0.4607
  943MOL0     C27209   6.040   7.533  10.774 -1.1021 -0.8492 -0.0411
  943MOL0     C27210   5.954   7.409  10.785 -0.2793 -0.0957  1.0414
  943MOL0     C27211   6.047   7.298  10.840 -0.1513  0.3554  0.1053
  943MOL0     C27212   5.983   7.156  10.809 -0.3473  0.0523 -0.2448
  943MOL0     C27213   5.888   7.094  10.919  0.1451 -1.6215  0.9121
  943MOL0    Cl27214   5.962   7.062  11.084 -0.1609  0.0864  0.3976
  943MOL0     C27215   5.899   8.146  10.578  1.0270  0.2248 -0.4001
  943MOL0     C27216   5.847   8.272  10.536 -0.2093  0.6307 -0.6295
  943MOL0     O27217   5.981   8.524  10.251  0.8014 -1.0274 -0.1684
  943MOL0     C27218   5.803   8.721  10.143 -0.7847 -0.1621 -0.4948
  943MOL0     C27219   5.720   8.830  10.099 -0.6172 -0.5853 -0.5429
  943MOL0     N27220   5.316   9.358   9.726  0.0752  0.6164  0.2348
  943MOL0     N27221   5.360   9.309   9.616  0.0164  0.3376 -0.1446
  943MOL0     C27222   4.513   8.973   9.224  0.1282 -0.0638 -0.9448
  943MOL0     C27223   4.433   9.067   9.154 -0.2208 -0.6021  0.7288
  943MOL0     C27224   4.382   9.437   8.914 -0.3964 -0.1939 -0.2284
  943MOL0     C27225   4.281   9.397   8.834  0.5915  0.4603 -0.2280
  943MOL0     C27226   4.197   9.486   8.764  0.1883 -0.0985  0.0456
  943MOL0     C27227   4.217   9.625   8.765  0.5259  0.6579 -0.0960
  943MOL0     O27228   4.134   9.699   8.689  0.3374  0.1990 -0.8385
  943MOL0     C27229   4.151   9.845   8.696  0.6615  0.6799 -0.3505
  943MOL0     C27230   4.030   9.918   8.777  0.7530 -0.1108  0.0385
  943MOL0     C27231   4.058   9.922   8.924 -0.2751  0.7907 -0.6116
  943MOL0     C27232   3.975  10.028   9.003  0.8785 -0.0363  0.2871
  943MOL0     C27233   4.031  10.048   9.140 -0.1474 -0.1097  0.4543
  943MOL0     C27234   4.090  10.078   9.244  0.4517 -1.3234 -0.0203
  943MOL0     C27235   4.307   9.668   8.864 -0.6581 -0.1813  0.2580
  943MOL0     C27236   4.388   9.576   8.937 -0.0392  0.0586 -0.6524
  943MOL0     C27237   4.477   9.641   9.037 -0.6021 -0.0136 -0.5574
  943MOL0     H27238   4.541   9.346   9.301 -0.9812  0.7186 -3.8516
  943MOL0     H27239   4.680   9.173   9.440 -1.0072  3.2043  1.4158
  943MOL0     H27240   4.640   8.725   9.312  1.1518 -0.3660  2.3254
  943MOL0     H27241   4.740   8.826   9.214  0.7948 -2.8647 -1.5865
  943MOL0     H27242   4.872   8.648   9.335  2.6611 -0.5128  0.8788
  943MOL0     H27243   4.828   8.736   9.488  1.5772  0.6750 -0.3684
  943MOL0     H27244   4.928   8.945   9.390  1.0355  1.4229 -4.7843
  943MOL0     H27245   4.966   8.858   9.252  0.0703 -1.6770 -0.6314
  943MOL0     H27246   5.058   8.781   9.531  0.9599 -2.6045 -0.8822
  943MOL0     H27247   5.104   8.698   9.400 -1.9659 -2.3017  3.7023
  943MOL0     H27248   5.274   8.829   9.339  0.8976  1.8034  1.2058
  943MOL0     H27249   5.164   8.979   9.319  0.8807  1.2940  0.7080
  943MOL0     H27250   5.214   9.000   9.576 -2.0475 -3.0371  0.7014
  943MOL0     H27251   5.334   8.870   9.550  0.6136 -0.2290 -0.8471
  943MOL0     H27252   5.333   9.133   9.396  1.4987  1.9511 -0.7059
  943MOL0     H27253   5.436   9.001   9.364 -0.9552  0.0523  0.2618
  943MOL0     H27254   5.549   9.028   9.593  0.7365 -0.0742  1.0617
  943MOL0     H27255   5.558   9.165   9.490 -0.4688  0.2415 -0.2168
  943MOL0     H27256   5.521   9.117   9.830  2.2044  1.4703 -1.5743
  943MOL0     H27257   5.377   9.415  10.004  0.7124 -0.5326  1.5464
  943MOL0     H27258   5.245   9.302   9.978 -0.0197  0.7665  0.3096
  943MOL0     H27259   5.528   9.194  10.057 -0.2036 -1.2658 -1.3929
  943MOL0     H27260   5.413   9.274  10.161  3.1481 -0.4068 -0.6614
  943MOL0     H27261   5.345   9.047   9.979 -2.3762  1.2465 -0.2450
  943MOL0     H27262   5.245   9.111  10.110  0.5900  3.2487  1.5437
  943MOL0     H27263   5.347   8.920  10.211  2.8974 -1.2721  3.1906
  943MOL0     H27264   5.453   9.043  10.267  3.9478 -1.9520 -0.9467
  943MOL0     H27265   5.471   8.770  10.324 -1.9061 -1.2548 -2.6963
  943MOL0     H27266   5.619   8.605  10.402 -2.5875  0.0668 -2.5588
  943MOL0     H27267   6.002   8.268  10.223  2.0477 -0.6209  0.7767
  943MOL0     H27268   6.101   8.069  10.307 -0.9565  0.1601  0.4734
  943MOL0     H27269   5.936   7.915  10.703 -0.3952 -0.6861  0.3999
  943MOL0     H27270   5.874   7.847  10.551 -0.9569  3.2520 -0.4537
  943MOL0     H27271   6.088   7.703  10.549  0.3043  0.0413  0.0753
  943MOL0     H27272   6.123   7.757  10.717  1.5596  0.2746 -1.8650
  943MOL0     H27273   5.896   7.693  10.784  2.1731  0.9984  1.5885
  943MOL0     H27274   5.877   7.606  10.644  1.1009 -1.2244  0.1927
  943MOL0     H27275   6.077   7.567  10.872 -0.0971 -5.3859  1.3980
  943MOL0     H27276   6.134   7.517  10.720 -1.0872 -0.3732 -0.1679
  943MOL0     H27277   5.917   7.384  10.685  2.0250  1.3256 -0.2407
  943MOL0     H27278   5.864   7.430  10.843 -1.5400  1.2261 -1.2123
  943MOL0     H27279   6.149   7.304  10.799 -0.4591  1.8153 -0.4953
  943MOL0     H27280   6.059   7.320  10.947 -0.8524  0.4802  0.1584
  943MOL0     H27281   6.065   7.086  10.793  0.9305  1.7571 -1.4256
  943MOL0     H27282   5.933   7.162  10.712  4.1607  0.0435 -2.8418
  943MOL0     H27283   5.809   7.167  10.938 -0.5446 -2.3968  1.0862
  943MOL0     H27284   5.856   6.997  10.880  2.4187 -2.1100  0.1299
  943MOL0     H27285   5.875   8.097  10.672 -0.5858  1.1790 -0.2783
  943MOL0     H27286   5.773   8.331  10.589 -0.2367 -2.1746  2.7501
  943MOL0     H27287   5.898   8.716  10.091 -1.6076 -1.4770 -1.9749
  943MOL0     H27288   5.761   8.890  10.018  0.2861  0.7163  0.8118
  943MOL0     H27289   4.478   8.871   9.209  1.6949 -1.2284  2.2661
  943MOL0     H27290   4.357   9.049   9.078  1.5563 -3.8738 -0.4802
  943MOL0     H27291   4.265   9.290   8.841  1.9467  0.2236 -0.5741
  943MOL0     H27292   4.124   9.441   8.697  0.6059  1.0527 -1.2313
  943MOL0     H27293   4.139   9.880   8.594 -2.2072 -2.3771 -1.2572
  943MOL0     H27294   4.248   9.884   8.730 -0.0455  1.5766  0.7250
  943MOL0     H27295   3.933   9.870   8.761  0.8893 -0.5204  0.4240
  943MOL0     H27296   4.015  10.020   8.738 -3.2569  0.0927  1.6983
  943MOL0     H27297   4.159   9.964   8.936 -1.1144  2.7048  0.2275
  943MOL0     H27298   4.047   9.817   8.950 -1.1092  0.7359 -1.1711
  943MOL0     H27299   3.982  10.128   8.960 -0.7204 -0.7665 -1.8108
  943MOL0     H27300   3.870  10.007   9.025  1.5847 -1.3039  2.9629
  943MOL0     H27301   4.149  10.112   9.327  1.2160  0.1536 -1.1162
  943MOL0     H27302   4.320   9.773   8.890  1.7103 -0.2659 -0.3688
  943MOL0     H27303   4.474   9.590   9.134 -1.8187  1.9945  0.5426
  943MOL0     H27304   4.580   9.646   9.000 -0.4513  1.5672  0.0207
  943MOL0     H27305   4.435   9.739   9.062 -1.7670 -0.4737 -0.6566
  944MOL0     O27306   9.698   0.517   4.602 -0.9855 -0.0146  0.1362
  944MOL0     C27307   9.785   0.448   4.654 -0.8361 -0.7754  0.5427
  944MOL0     O27308   9.919   0.488   4.647 -0.2690 -0.0872  0.0296
  944MOL0     C27309   9.953   0.587   4.557  0.1139 -0.5039 -0.2402
  944MOL0     C27310   9.959   0.575   4.425 -0.3185  0.6538 -1.2998
  944MOL0     C27311   9.992   0.673   4.342 -0.3812  0.3628 -0.4793
  944MOL0     C27312  10.043   0.793   4.385  0.2658  0.4324 -0.3585
  944MOL0     O27313  10.095   0.871   4.296 -1.1226  0.7364 -0.3686
  944MOL0     C27314  10.206   0.810   4.231  0.3042 -0.2500 -0.3535
  944MOL0     C27315  10.170   0.780   4.088 -0.5096 -0.4890  0.8760
  944MOL0     C27316  10.124   0.893   4.012 -0.6679 -0.4110  1.1524
  944MOL0     C27317  10.223   1.009   3.983 -0.6739  0.0257  0.2100
  944MOL0     C27318  10.167   1.125   3.891  0.5056 -0.7950  0.5665
  944MOL0     C27319  10.280   1.222   3.849 -0.6279  0.7474  0.2299
  944MOL0     C27320  10.218   1.318   3.752 -0.0056 -0.3643 -0.5528
  944MOL0     C27321  10.339   1.387   3.685 -0.2426  0.0417  0.4339
  944MOL0     N27322  10.312   1.513   3.611 -0.5984  0.3982 -0.3961
  944MOL0     C27323  10.315   1.522   3.462 -0.3314  0.1769 -1.2743
  944MOL0     C27324  10.297   1.660   3.446 -0.3597 -0.5441  0.3666
  944MOL0     C27325  10.296   1.731   3.314 -0.3313 -1.3715  0.0642
  944MOL0     C27326  10.178   1.825   3.299  0.0500  0.3784 -0.3932
  944MOL0     C27327  10.227   1.960   3.351 -0.0427 -0.2760 -0.6673
  944MOL0     C27328  10.118   2.070   3.327  0.6942 -0.1797 -0.4163
  944MOL0     O27329  10.110   2.101   3.188 -0.3436  0.7480 -0.4789
  944MOL0     C27330  10.038   2.209   3.148 -0.4442 -1.1573 -0.0392
  944MOL0     C27331  10.092   2.317   3.084 -0.1831 -0.4647  0.4665
  944MOL0     C27332  10.015   2.424   3.037  0.4009 -0.5637 -0.2632
  944MOL0     C27333   9.873   2.422   3.060  0.3323  0.5186  0.0333
  944MOL0     C27334   9.785   2.536   3.022 -0.7003 -0.6754 -0.9351
  944MOL0     O27335   9.852   2.660   2.993 -0.0912  0.1696 -0.2232
  944MOL0     C27336   9.775   2.777   2.981 -0.5059  0.9082 -0.0848
  944MOL0     C27337   9.719   2.820   2.861  0.0989  0.2588  0.2715
  944MOL0     C27338   9.627   2.930   2.864 -0.6593  0.3216  0.2984
  944MOL0     C27339   9.599   3.005   2.975  0.9235  0.9721 -0.0087
  944MOL0     O27340   9.518   3.117   2.966 -0.9702 -0.3199 -0.1274
  944MOL0     C27341   9.450   3.187   3.073 -0.6000  0.6416 -0.5030
  944MOL0     C27342   9.428   3.333   3.039  0.0142  0.4327 -0.1590
  944MOL0     C27343   9.334   3.390   3.145  0.5901 -0.3121  0.2908
  944MOL0     C27344   9.315   3.547   3.151 -0.2479  0.1455  0.5468
  944MOL0     C27345   9.191   3.583   3.239  0.9817 -0.3345  0.6259
  944MOL0     C27346   9.146   3.735   3.216 -0.4637  0.2933 -0.7188
  944MOL0     C27347   9.020   3.781   3.303  0.3438 -0.3007 -0.2815
  944MOL0     C27348   9.030   3.768   3.454 -0.1914  0.7789  0.8899
  944MOL0    Cl27349   8.870   3.807   3.505 -0.0428  0.2734 -0.0498
  944MOL0     C27350   9.664   2.965   3.095 -0.8583 -0.4807  0.2489
  944MOL0     C27351   9.749   2.848   3.100  0.4572 -0.3767  0.4852
  944MOL0     O27352   9.662   2.521   3.028 -0.0899  0.2779 -0.1112
  944MOL0     C27353   9.813   2.307   3.119 -0.6438 -0.4764 -0.6837
  944MOL0     C27354   9.901   2.198   3.159 -0.5151 -0.9798 -0.0447
  944MOL0     N27355  10.277   1.729   3.570 -0.1575  0.0577 -0.1524
  944MOL0     N27356  10.286   1.634   3.664 -0.1629 -0.1489  0.0671
  944MOL0     C27357  10.034   0.815   4.524 -0.7325  0.6924  0.7469
  944MOL0     C27358   9.978   0.717   4.611  0.2149  0.0674 -0.1335
  944MOL0     C27359   9.766   0.331   4.744 -0.6470  0.3156  0.3859
  944MOL0     C27360   9.873   0.295   4.827  0.5930 -1.4121 -0.1155
  944MOL0     C27361   9.867   0.177   4.898  0.4622  0.3550 -0.2914
  944MOL0     C27362   9.755   0.088   4.881 -0.3511  0.3426 -0.2532
  944MOL0     O27363   9.754  -0.030   4.948  0.8162  0.3391  0.4924
  944MOL0     C27364   9.857  -0.124   4.918  0.0582  0.7284 -0.4242
  944MOL0     C27365   9.816  -0.259   4.985 -0.6732 -0.7570 -0.4635
  944MOL0     C27366   9.792  -0.254   5.134 -0.1298 -0.0829  0.2977
  944MOL0     C27367   9.920  -0.202   5.206  0.6944 -0.2917  0.1038
  944MOL0     C27368   9.930  -0.272   5.334 -0.4271 -1.1004  0.0675
  944MOL0     C27369   9.950  -0.329   5.438  0.1901  0.0460 -0.5779
  944MOL0     C27370   9.650   0.133   4.810 -0.6588 -0.3214  0.3850
  944MOL0     C27371   9.646   0.253   4.742  0.1356 -0.1543  0.9562
  944MOL0     C27372   9.522   0.270   4.673 -0.7083  0.0881 -0.2695
  944MOL0     H27373   9.946   0.473   4.388  2.9277  0.1032 -1.2916
  944MOL0     H27374   9.981   0.625   4.245  2.2017 -2.2288  0.3760
  944MOL0     H27375  10.288   0.883   4.230  0.7198 -0.6737  1.0729
  944MOL0     H27376  10.252   0.723   4.279 -0.1530 -1.2701 -1.6944
  944MOL0     H27377  10.096   0.700   4.076 -0.6585 -0.2141 -0.1881
  944MOL0     H27378  10.253   0.742   4.028  0.0841  0.2789  1.1949
  944MOL0     H27379  10.038   0.930   4.069  0.0968  2.5480  0.5408
  944MOL0     H27380  10.076   0.855   3.921 -3.7700 -4.0086  3.9272
  944MOL0     H27381  10.270   1.041   4.076  0.0010  0.1049 -0.1512
  944MOL0     H27382  10.300   0.956   3.925  1.0631  1.0026  1.5341
  944MOL0     H27383  10.123   1.082   3.801 -2.6652  3.5009 -0.2350
  944MOL0     H27384  10.084   1.171   3.945 -0.6461 -1.8863 -0.2201
  944MOL0     H27385  10.329   1.273   3.933  0.4343 -1.0170  0.7597
  944MOL0     H27386  10.360   1.156   3.813 -0.5906  1.1034 -0.3357
  944MOL0     H27387  10.146   1.380   3.807  2.3123 -0.0297  2.3478
  944MOL0     H27388  10.148   1.281   3.676 -1.3702  1.8696 -0.4797
  944MOL0     H27389  10.403   1.415   3.768 -2.0374 -2.6294  2.9070
  944MOL0     H27390  10.398   1.319   3.622  0.8092  2.5371 -1.4452
  944MOL0     H27391  10.317   1.451   3.380 -0.4396 -1.4124  0.0380
  944MOL0     H27392  10.391   1.781   3.294  0.9406 -2.7222  2.3094
  944MOL0     H27393  10.287   1.655   3.235  1.6044 -2.2758  0.6568
  944MOL0     H27394  10.148   1.836   3.195 -0.0452  1.6429 -0.2528
  944MOL0     H27395  10.091   1.789   3.354  1.3309  0.0418  1.5388
  944MOL0     H27396  10.322   1.989   3.306  0.5927  1.2763  1.4627
  944MOL0     H27397  10.248   1.966   3.459 -1.6364  0.9249 -0.3844
  944MOL0     H27398  10.146   2.161   3.380  1.5086 -0.1822 -0.8198
  944MOL0     H27399  10.019   2.042   3.364  0.3153 -0.1730 -1.3845
  944MOL0     H27400  10.198   2.325   3.065 -0.4806  0.4416 -0.9897
  944MOL0     H27401  10.061   2.509   2.987  3.0036 -1.3992  0.5658
  944MOL0     H27402   9.727   2.766   2.767 -3.9749  0.1211 -0.1895
  944MOL0     H27403   9.574   2.953   2.772 -2.7623 -2.7549  0.5725
  944MOL0     H27404   9.346   3.156   3.083 -1.7537  4.5258  1.9574
  944MOL0     H27405   9.496   3.180   3.172  2.3840  3.2475 -1.5191
  944MOL0     H27406   9.528   3.376   3.032  0.1752 -0.0198 -0.7758
  944MOL0     H27407   9.378   3.343   2.942 -1.9245 -1.1809  0.6073
  944MOL0     H27408   9.238   3.337   3.143  0.4289  0.0073 -0.5256
  944MOL0     H27409   9.381   3.363   3.241 -1.1780  2.5490  2.1188
  944MOL0     H27410   9.293   3.574   3.047  1.6304 -0.3321 -0.0161
  944MOL0     H27411   9.404   3.594   3.193 -0.3307  0.2795  0.5706
  944MOL0     H27412   9.206   3.558   3.345 -1.7440  1.7911  1.6415
  944MOL0     H27413   9.111   3.515   3.211  1.6420 -0.7868 -0.2091
  944MOL0     H27414   9.230   3.799   3.246 -0.6047  0.3673 -0.4846
  944MOL0     H27415   9.130   3.744   3.108 -1.4219  0.2163 -0.5898
  944MOL0     H27416   8.936   3.719   3.270 -0.9030 -1.1352  3.9079
  944MOL0     H27417   8.994   3.885   3.285  0.3251 -0.0242  1.2046
  944MOL0     H27418   9.042   3.663   3.481 -1.9455  0.5437  0.8835
  944MOL0     H27419   9.103   3.833   3.503 -0.6377 -0.1339  2.8476
  944MOL0     H27420   9.640   3.023   3.184 -2.5323 -0.3436 -0.2544
  944MOL0     H27421   9.789   2.824   3.198  2.1931  1.3061  0.2342
  944MOL0     H27422   9.709   2.301   3.150  0.5317  0.0124  3.9916
  944MOL0     H27423   9.855   2.113   3.209  1.4255 -2.4736 -0.6486
  944MOL0     H27424  10.067   0.906   4.574 -1.2212  0.6410  1.1780
  944MOL0     H27425   9.967   0.734   4.718  1.4850  0.7705 -0.0948
  944MOL0     H27426   9.961   0.356   4.842 -0.0095 -0.8001  1.1756
  944MOL0     H27427   9.955   0.148   4.956 -0.8192 -1.4369  0.8715
  944MOL0     H27428   9.954  -0.097   4.959 -0.5198 -0.9756  2.3288
  944MOL0     H27429   9.875  -0.136   4.811  4.9148 -1.9838  0.4217
  944MOL0     H27430   9.888  -0.337   4.959 -0.3000 -0.9047  0.9498
  944MOL0     H27431   9.716  -0.285   4.947 -1.0904  0.5841 -0.3501
  944MOL0     H27432   9.762  -0.350   5.177 -3.0491  1.0995  1.1479
  944MOL0     H27433   9.712  -0.188   5.167 -0.5158 -0.8738  0.9636
  944MOL0     H27434  10.012  -0.227   5.152  1.3800 -2.1911  1.9719
  944MOL0     H27435   9.908  -0.094   5.216 -1.1909 -0.6105  2.2387
  944MOL0     H27436   9.951  -0.393   5.524 -0.0754  0.1893 -0.4648
  944MOL0     H27437   9.565   0.066   4.812  0.7833 -2.3006 -0.6503
  944MOL0     H27438   9.443   0.295   4.744 -1.3487 -1.0998 -0.5408
  944MOL0     H27439   9.532   0.341   4.591 -2.3611 -0.4675 -0.9885
  944MOL0     H27440   9.499   0.172   4.631 -1.4263 -0.3078  0.9926
  945MOL0     O27441  11.462   3.611   6.398 -0.4093  0.5687 -0.1809
  945MOL0     C27442  11.415   3.696   6.323  0.7270 -0.4066  0.4175
  945MOL0     O27443  11.324   3.793   6.356 -1.0080 -0.0946 -0.4640
  945MOL0     C27444  11.228   3.769   6.449  0.3327 -0.5750 -0.8181
  945MOL0     C27445  11.160   3.876   6.504  0.0869  0.6894 -0.3161
  945MOL0     C27446  11.053   3.844   6.596 -0.4873  0.2653 -0.9901
  945MOL0     C27447  11.009   3.717   6.629 -0.0263  0.3948  0.4082
  945MOL0     O27448  10.894   3.709   6.710 -0.6089 -0.9540  0.3365
  945MOL0     C27449  10.842   3.584   6.736  0.4972 -0.6030 -0.2757
  945MOL0     C27450  10.732   3.606   6.845  1.7028 -0.0134  0.1893
  945MOL0     C27451  10.626   3.729   6.815 -0.6847  0.5067 -0.1030
  945MOL0     C27452  10.502   3.709   6.910  0.4309 -1.3249  0.0052
  945MOL0     C27453  10.399   3.831   6.898 -0.9475  0.2453 -0.3161
  945MOL0     C27454  10.279   3.789   6.973 -0.6989 -0.0779 -0.2869
  945MOL0     C27455  10.181   3.902   6.995  0.2758  0.6678 -0.2192
  945MOL0     C27456  10.137   3.967   6.868 -0.5886  0.3675 -0.1180
  945MOL0     N27457  10.034   4.064   6.892  0.1918 -0.4699 -0.2972
  945MOL0     C27458   9.988   4.124   7.004 -0.4778  0.2318  0.5370
  945MOL0     C27459   9.884   4.202   6.976  1.1775 -0.6701 -0.0538
  945MOL0     C27460   9.793   4.269   7.079 -0.5534 -0.0850 -0.2393
  945MOL0     C27461   9.725   4.154   7.156 -0.1008 -0.3080 -0.1641
  945MOL0     C27462   9.626   4.212   7.255 -0.1043 -0.3155  0.6809
  945MOL0     C27463   9.529   4.092   7.290 -0.1111 -0.0362 -0.5215
  945MOL0     O27464   9.470   4.048   7.173  0.3846  0.5234 -0.3114
  945MOL0     C27465   9.405   3.929   7.170  0.4864  0.4660  0.2297
  945MOL0     C27466   9.322   3.888   7.269 -0.2912  0.4742  0.3450
  945MOL0     C27467   9.251   3.770   7.253  0.0347  0.2700  0.0579
  945MOL0     C27468   9.259   3.682   7.140  0.6350  0.1961  0.2135
  945MOL0     C27469   9.173   3.568   7.118  0.1552  0.1473 -0.3686
  945MOL0     O27470   9.210   3.465   7.030 -0.1744  0.0106  0.3636
  945MOL0     C27471   9.114   3.365   7.021 -0.2647 -0.4695 -0.5448
  945MOL0     C27472   8.997   3.374   6.940  0.2591 -0.1719 -0.3598
  945MOL0     C27473   8.909   3.271   6.939  0.6524 -0.4314  0.7534
  945MOL0     C27474   8.926   3.153   7.027  0.3533 -0.8893 -0.1810
  945MOL0     O27475   8.840   3.046   7.032 -0.3971 -1.1103 -0.8232
  945MOL0     C27476   8.749   3.040   6.919 -0.0870 -0.5857  0.3071
  945MOL0     C27477   8.663   2.908   6.933  0.8461 -0.4388  0.1518
  945MOL0     C27478   8.731   2.774   6.905 -0.7944  1.0124  0.4642
  945MOL0     C27479   8.655   2.642   6.908 -0.7353  0.0662  0.1234
  945MOL0     C27480   8.754   2.518   6.893 -0.2529 -0.6732 -0.2764
  945MOL0     C27481   8.680   2.391   6.842 -0.1580  0.9427  0.0202
  945MOL0     C27482   8.786   2.270   6.830  0.7037  0.3904  0.2626
  945MOL0     C27483   8.748   2.151   6.739  2.1073  0.4505  0.1592
  945MOL0    Cl27484   8.800   2.199   6.570  0.3345  0.0831 -0.4533
  945MOL0     C27485   9.040   3.158   7.122  0.8257 -0.5450 -0.1395
  945MOL0     C27486   9.135   3.256   7.105 -0.5540 -0.4974 -0.4622
  945MOL0     O27487   9.067   3.570   7.183 -0.2728 -0.0504  0.6896
  945MOL0     C27488   9.339   3.731   7.031  0.5430  0.0406 -0.2008
  945MOL0     C27489   9.395   3.855   7.047 -0.5604  0.8054 -0.3872
  945MOL0     N27490   9.854   4.197   6.839 -0.3628 -0.7356 -0.1070
  945MOL0     N27491   9.946   4.120   6.791 -0.1185 -0.3708  0.4379
  945MOL0     C27492  11.071   3.615   6.554 -0.4544  0.3937  0.0081
  945MOL0     C27493  11.178   3.640   6.470  0.2972  0.7820  0.1593
  945MOL0     C27494  11.480   3.728   6.195  0.8385  0.5375 -0.9719
  945MOL0     C27495  11.624   3.726   6.187  0.2964 -0.8094 -0.7624
  945MOL0     C27496  11.687   3.758   6.070  0.1836  0.8107 -0.1388
  945MOL0     C27497  11.626   3.801   5.953  0.2538 -0.4802 -1.2297
  945MOL0     O27498  11.702   3.837   5.850  0.4088  0.2822  0.0990
  945MOL0     C27499  11.642   3.907   5.734  0.6492 -0.0793 -0.6548
  945MOL0     C27500  11.753   3.915   5.630  0.2824 -0.6057 -0.1406
  945MOL0     C27501  11.717   4.042   5.545  0.7354 -0.7762  0.4277
  945MOL0     C27502  11.816   4.063   5.420 -1.2481  0.0577  0.5604
  945MOL0     C27503  11.955   4.073   5.468  0.5260 -0.3993  0.7253
  945MOL0     C27504  12.043   4.098   5.546  0.3916 -0.1410 -0.0069
  945MOL0     C27505  11.479   3.818   5.963  0.9892 -0.2587 -0.9422
  945MOL0     C27506  11.407   3.767   6.075 -0.0176 -0.2928  0.4106
  945MOL0     C27507  11.263   3.785   6.074 -0.2706  0.2844 -0.2152
  945MOL0     H27508  11.185   3.978   6.476 -1.0065  0.8975 -0.5851
  945MOL0     H27509  11.011   3.927   6.651  0.2043 -1.1541  1.8896
  945MOL0     H27510  10.818   3.527   6.646 -0.1878  0.9381 -1.0894
  945MOL0     H27511  10.904   3.522   6.802  0.9984 -0.3676 -0.5153
  945MOL0     H27512  10.772   3.621   6.946  0.8780  1.5724  0.3286
  945MOL0     H27513  10.675   3.514   6.837  2.9332 -0.9257  1.5015
  945MOL0     H27514  10.599   3.736   6.709 -3.8898 -1.0184  0.4835
  945MOL0     H27515  10.682   3.817   6.848  0.6523 -1.1434  2.3749
  945MOL0     H27516  10.451   3.614   6.896  0.0767 -1.3785  1.4798
  945MOL0     H27517  10.541   3.709   7.012  1.5847 -0.8891 -0.4142
  945MOL0     H27518  10.448   3.917   6.944 -2.2864  0.0593  1.5492
  945MOL0     H27519  10.384   3.846   6.790  0.1950 -1.6257 -0.7928
  945MOL0     H27520  10.238   3.699   6.927  2.2475 -1.3640 -0.5965
  945MOL0     H27521  10.310   3.748   7.070 -2.0799  2.2383  1.2242
  945MOL0     H27522  10.227   3.980   7.058  0.3556 -1.2342  2.2302
  945MOL0     H27523  10.099   3.849   7.043  3.1259 -2.9633  1.0620
  945MOL0     H27524  10.213   4.026   6.815 -2.3898  0.8652 -2.3312
  945MOL0     H27525  10.091   3.887   6.810 -0.4203 -2.7583  3.6983
  945MOL0     H27526  10.032   4.119   7.103  2.7566 -2.5116 -0.8387
  945MOL0     H27527   9.864   4.312   7.151  0.8483 -1.8886 -0.4813
  945MOL0     H27528   9.724   4.347   7.045  0.1310  1.0534  0.8983
  945MOL0     H27529   9.679   4.091   7.079 -3.0675  0.9724  0.4223
  945MOL0     H27530   9.796   4.094   7.214 -3.3431 -1.4566  2.8961
  945MOL0     H27531   9.572   4.297   7.212 -0.6508  0.1973  2.3306
  945MOL0     H27532   9.672   4.233   7.352 -2.2350 -0.8172  1.8553
  945MOL0     H27533   9.460   4.120   7.370  4.5714  2.5588  3.1313
  945MOL0     H27534   9.585   4.006   7.327 -3.0776 -1.7835  0.2498
  945MOL0     H27535   9.317   3.940   7.363  1.0397 -1.6037  1.6480
  945MOL0     H27536   9.194   3.728   7.335  0.1889 -1.6801 -0.7802
  945MOL0     H27537   8.994   3.452   6.865 -4.2179 -1.4916 -1.8544
  945MOL0     H27538   8.836   3.257   6.861  1.6852  0.2862 -0.3770
  945MOL0     H27539   8.677   3.121   6.922  0.6594  0.1296 -0.6905
  945MOL0     H27540   8.821   3.044   6.837  1.1658 -2.9327  1.1738
  945MOL0     H27541   8.615   2.916   7.031 -0.7074  1.7953 -0.7024
  945MOL0     H27542   8.584   2.895   6.859  0.4584 -1.5448  0.7481
  945MOL0     H27543   8.787   2.785   6.812 -1.8113 -2.3016 -0.6578
  945MOL0     H27544   8.810   2.759   6.980 -1.9153 -1.4823  1.2258
  945MOL0     H27545   8.587   2.640   6.822  1.7853 -1.0842 -2.0091
  945MOL0     H27546   8.600   2.635   7.002  0.0839 -0.2799  0.5951
  945MOL0     H27547   8.805   2.497   6.987 -0.0836  1.5783  0.1961
  945MOL0     H27548   8.833   2.524   6.818  0.7086 -5.2355  0.0699
  945MOL0     H27549   8.601   2.380   6.917  0.7540 -1.7377  0.7059
  945MOL0     H27550   8.637   2.403   6.742 -0.6019 -3.9269 -0.6457
  945MOL0     H27551   8.802   2.215   6.923  0.8486  2.0257  1.2377
  945MOL0     H27552   8.883   2.308   6.796 -1.2418  3.1216 -2.7875
  945MOL0     H27553   8.794   2.058   6.774  1.3074 -0.0094  0.0333
  945MOL0     H27554   8.640   2.131   6.741  2.2577 -0.3614  0.5427
  945MOL0     H27555   9.057   3.081   7.197 -0.6125 -0.6799  0.0623
  945MOL0     H27556   9.228   3.249   7.160 -0.6945 -0.9258 -0.2703
  945MOL0     H27557   9.346   3.682   6.935 -0.5158 -2.8765  1.1183
  945MOL0     H27558   9.461   3.899   6.972  0.1596  2.2774  1.0511
  945MOL0     H27559  11.049   3.511   6.577  1.1777 -0.5902 -2.5510
  945MOL0     H27560  11.216   3.552   6.418 -0.4780  0.7725 -0.4183
  945MOL0     H27561  11.688   3.686   6.266  1.5692 -1.6398 -2.1568
  945MOL0     H27562  11.793   3.735   6.060 -0.6370 -4.7981  0.7472
  945MOL0     H27563  11.601   4.003   5.766  0.6821 -0.1834 -0.3019
  945MOL0     H27564  11.558   3.850   5.693 -0.2138 -0.3196  1.3752
  945MOL0     H27565  11.760   3.827   5.565 -2.1265 -0.2205 -1.0196
  945MOL0     H27566  11.850   3.923   5.680 -0.5745  1.7780  1.2628
  945MOL0     H27567  11.714   4.131   5.608  1.0484  1.3084 -2.2797
  945MOL0     H27568  11.616   4.021   5.509 -0.0486  0.9539  1.5384
  945MOL0     H27569  11.808   3.982   5.347 -4.0936  1.7306 -1.1450
  945MOL0     H27570  11.803   4.152   5.359 -2.0475 -2.3856 -3.1733
  945MOL0     H27571  12.124   4.115   5.614 -1.2820 -1.5629  2.4845
  945MOL0     H27572  11.434   3.867   5.878 -3.4718 -1.4690  0.4251
  945MOL0     H27573  11.245   3.884   6.117 -0.6496  0.6522 -1.1789
  945MOL0     H27574  11.221   3.791   5.973 -0.9176  0.3166  0.0504
  945MOL0     H27575  11.213   3.714   6.141 -1.3746  3.1346  2.2368
  946MOL0     O27576   9.599   5.545   5.299  0.7486 -1.1921  0.2942
  946MOL0     C27577   9.652   5.443   5.275  0.4383  0.1387 -0.0866
  946MOL0     O27578   9.589   5.350   5.188  0.0311  1.5376 -0.0274
  946MOL0     C27579   9.477   5.384   5.117 -0.9267  0.4227  0.0590
  946MOL0     C27580   9.482   5.466   5.006  0.0177 -1.2142 -0.4890
  946MOL0     C27581   9.360   5.506   4.947 -0.9057  0.4184 -1.1850
  946MOL0     C27582   9.235   5.441   4.975  0.4796 -0.6253  0.0219
  946MOL0     O27583   9.115   5.472   4.910 -0.6202  0.6901 -0.0070
  946MOL0     C27584   9.114   5.577   4.811 -0.5996  0.0944  0.2023
  946MOL0     C27585   9.179   5.519   4.688  0.3740 -0.0573  0.0767
  946MOL0     C27586   9.105   5.401   4.627 -0.7989  0.3358  0.3147
  946MOL0     C27587   8.983   5.441   4.550  0.6497  0.0951  0.1192
  946MOL0     C27588   8.912   5.322   4.487 -0.6881  0.2343 -0.0554
  946MOL0     C27589   8.840   5.229   4.594 -1.2897 -0.2532 -0.6007
  946MOL0     C27590   8.745   5.292   4.695  0.9309  0.2923  0.3192
  946MOL0     C27591   8.660   5.188   4.765  0.3187  0.0752  0.4801
  946MOL0     N27592   8.568   5.113   4.674 -0.2873  0.5228  0.4959
  946MOL0     C27593   8.476   5.177   4.597 -0.2244 -0.2098  0.1225
  946MOL0     C27594   8.429   5.083   4.509 -0.4767 -0.7250  1.4080
  946MOL0     C27595   8.323   5.105   4.400 -0.0161 -0.3681 -0.2337
  946MOL0     C27596   8.190   5.138   4.460  0.0502 -0.4658  0.8894
  946MOL0     C27597   8.104   5.186   4.351  0.2045 -0.7054 -0.7229
  946MOL0     C27598   8.014   5.072   4.283 -0.4625 -1.0142 -1.0190
  946MOL0     O27599   8.088   4.976   4.207 -0.9716  0.0805 -0.1360
  946MOL0     C27600   8.107   4.997   4.068  0.5073  0.6789 -1.2357
  946MOL0     C27601   8.065   5.112   3.995 -0.3912 -0.2072 -0.1722
  946MOL0     C27602   8.063   5.107   3.859  1.0782  0.5433  0.6957
  946MOL0     C27603   8.083   4.991   3.782  1.4227 -0.3065  0.2961
  946MOL0     C27604   8.081   4.992   3.636 -0.4611 -0.3372 -0.1900
  946MOL0     O27605   8.085   5.111   3.569  0.0980 -0.2525  0.4930
  946MOL0     C27606   8.082   5.103   3.429  0.1517  0.6323  0.4213
  946MOL0     C27607   8.174   5.035   3.357  0.1447  1.2343 -0.2749
  946MOL0     C27608   8.177   5.041   3.216 -0.0533  0.3565 -0.0584
  946MOL0     C27609   8.074   5.097   3.144  0.3160 -0.2040 -0.1629
  946MOL0     O27610   8.059   5.107   3.012 -0.2102  0.2799 -0.0820
  946MOL0     C27611   8.000   4.996   2.951 -0.0676 -0.0679 -0.2528
  946MOL0     C27612   7.914   5.046   2.838 -0.5311  0.2527  0.0957
  946MOL0     C27613   7.867   4.927   2.749  0.4030  0.3662 -0.2622
  946MOL0     C27614   7.818   4.984   2.616 -0.0790  0.6206 -0.5702
  946MOL0     C27615   7.767   4.867   2.521 -0.4997  0.1438  0.7840
  946MOL0     C27616   7.716   4.912   2.373 -1.1784 -0.5823 -1.3612
  946MOL0     C27617   7.610   4.805   2.321 -0.0910  0.3972 -0.3019
  946MOL0     C27618   7.651   4.658   2.343  0.4271 -0.1234  0.3221
  946MOL0    Cl27619   7.812   4.620   2.284 -0.2095 -0.1835  0.4901
  946MOL0     C27620   7.978   5.160   3.218  0.3502 -0.8987  0.1695
  946MOL0     C27621   7.985   5.170   3.360 -0.0636  0.0456  1.4508
  946MOL0     O27622   8.078   4.883   3.578  0.2567  0.5677 -0.7313
  946MOL0     C27623   8.118   4.875   3.856 -0.0877  0.3766  0.1024
  946MOL0     C27624   8.134   4.878   3.997  0.2554  0.7297 -0.2118
  946MOL0     N27625   8.488   4.963   4.533 -0.0678  1.1129  0.3988
  946MOL0     N27626   8.567   4.985   4.636 -0.4061 -0.2262  0.6458
  946MOL0     C27627   9.243   5.353   5.086  0.1656  0.1306  0.2403
  946MOL0     C27628   9.357   5.331   5.156  0.5413  0.2381  0.7485
  946MOL0     C27629   9.797   5.423   5.289 -0.1692  0.0745  0.0635
  946MOL0     C27630   9.847   5.292   5.254  0.3288 -1.1991 -1.0785
  946MOL0     C27631   9.982   5.264   5.242  1.5969  0.6036 -1.4400
  946MOL0     C27632  10.073   5.362   5.278  0.2390  0.0101  0.6056
  946MOL0     O27633  10.203   5.322   5.272 -0.3791  0.5214 -0.2746
  946MOL0     C27634  10.314   5.416   5.297 -0.6643 -0.2911  1.1950
  946MOL0     C27635  10.425   5.341   5.214 -0.6131 -0.2694 -0.7093
  946MOL0     C27636  10.421   5.381   5.067 -0.1437  0.1032 -0.0353
  946MOL0     C27637  10.557   5.350   5.002 -0.2915  0.3408 -0.8464
  946MOL0     C27638  10.653   5.450   5.055 -0.1582  0.3104  0.1357
  946MOL0     C27639  10.733   5.536   5.076  0.2642  0.4871  0.9289
  946MOL0     C27640  10.030   5.492   5.308 -0.0083  0.0069 -0.2045
  946MOL0     C27641   9.897   5.527   5.306 -0.6307  0.4295  0.0738
  946MOL0     C27642   9.860   5.672   5.313 -0.1199  0.5014 -0.2114
  946MOL0     H27643   9.579   5.503   4.974  0.8214 -1.1989  1.7748
  946MOL0     H27644   9.370   5.574   4.863 -2.7710 -1.4131 -3.0011
  946MOL0     H27645   9.007   5.592   4.800 -2.2429 -6.0275  3.3174
  946MOL0     H27646   9.155   5.674   4.841  0.2736 -0.3317  0.4570
  946MOL0     H27647   9.281   5.488   4.715  0.0859 -0.6015  0.5699
  946MOL0     H27648   9.186   5.597   4.612 -2.4182  1.2890  1.0396
  946MOL0     H27649   9.090   5.325   4.704  0.9153  1.6606  2.0940
  946MOL0     H27650   9.173   5.356   4.555 -1.3063  1.4866 -0.9226
  946MOL0     H27651   8.919   5.486   4.626 -0.5691 -1.3625 -0.0015
  946MOL0     H27652   8.994   5.510   4.465 -0.0130  0.8284  0.6221
  946MOL0     H27653   8.841   5.369   4.418  0.9406 -1.4112 -3.0950
  946MOL0     H27654   8.975   5.262   4.421 -0.7635  1.0997 -0.9484
  946MOL0     H27655   8.787   5.154   4.533 -0.5587 -1.7822  0.5577
  946MOL0     H27656   8.919   5.178   4.650 -1.6951  0.1312  0.3541
  946MOL0     H27657   8.673   5.361   4.650 -0.9055 -1.8026 -0.1362
  946MOL0     H27658   8.799   5.363   4.759  3.0669  1.6658 -2.7466
  946MOL0     H27659   8.713   5.112   4.825  2.1087  0.1008 -0.9902
  946MOL0     H27660   8.594   5.241   4.834  1.1236 -0.1125  1.4314
  946MOL0     H27661   8.457   5.284   4.602 -1.3489 -0.4007  0.2582
  946MOL0     H27662   8.354   5.183   4.329  0.6174  4.2763  4.5024
  946MOL0     H27663   8.308   5.007   4.355  1.5153 -1.7546  2.0556
  946MOL0     H27664   8.146   5.057   4.518 -0.7233  1.0983  2.5845
  946MOL0     H27665   8.207   5.221   4.530 -1.7282  1.3354 -0.6711
  946MOL0     H27666   8.151   5.259   4.285 -0.1693  0.5342  0.3315
  946MOL0     H27667   8.030   5.248   4.404  1.2918  0.8512 -0.9608
  946MOL0     H27668   7.925   5.117   4.238 -0.8585  0.8390  1.3695
  946MOL0     H27669   7.962   5.018   4.363 -2.7581  1.8718 -0.3836
  946MOL0     H27670   8.016   5.186   4.057  0.8976  0.2100  0.3855
  946MOL0     H27671   8.040   5.202   3.810 -0.1410  1.3507  2.6888
  946MOL0     H27672   8.255   4.978   3.403 -0.6526  0.3626  0.0679
  946MOL0     H27673   8.255   5.005   3.150  0.5342  2.9741 -0.8952
  946MOL0     H27674   8.079   4.926   2.921  1.3610  1.6695 -0.7716
  946MOL0     H27675   7.944   4.935   3.022 -0.1788  0.2333 -0.0822
  946MOL0     H27676   7.835   5.115   2.869  0.8516  1.7463  0.4138
  946MOL0     H27677   7.978   5.105   2.772 -0.5602  1.2234  0.9208
  946MOL0     H27678   7.947   4.854   2.737  0.3608  0.7271 -3.3607
  946MOL0     H27679   7.783   4.866   2.785  1.5709 -0.5038  1.0960
  946MOL0     H27680   7.896   5.045   2.569  1.0413  0.7277  1.3394
  946MOL0     H27681   7.734   5.052   2.632  0.2506  0.8471  0.2464
  946MOL0     H27682   7.686   4.814   2.572 -0.9396 -1.0451 -1.0580
  946MOL0     H27683   7.843   4.791   2.501 -2.7783 -2.5556  1.6811
  946MOL0     H27684   7.667   5.010   2.376  1.8285  1.0378  1.3405
  946MOL0     H27685   7.807   4.927   2.313 -0.4622  0.8413 -0.0001
  946MOL0     H27686   7.586   4.812   2.214 -2.3175 -2.1688 -0.0688
  946MOL0     H27687   7.517   4.821   2.375  0.3712  2.0918  0.0546
  946MOL0     H27688   7.643   4.623   2.446  1.3961 -2.1972 -0.2489
  946MOL0     H27689   7.589   4.588   2.287  1.0740 -0.8138  0.4510
  946MOL0     H27690   7.909   5.223   3.164  1.5070 -0.1218 -0.4375
  946MOL0     H27691   7.913   5.234   3.410  0.1923 -0.0718  1.9796
  946MOL0     H27692   8.143   4.782   3.806 -1.1512 -1.0347  2.0860
  946MOL0     H27693   8.168   4.800   4.064 -2.6800  2.3619  3.5616
  946MOL0     H27694   9.141   5.322   5.105 -0.0070  1.2695  1.3436
  946MOL0     H27695   9.367   5.256   5.235 -1.3578 -0.9323 -0.0544
  946MOL0     H27696   9.778   5.221   5.208 -3.5130  2.5543 -1.7766
  946MOL0     H27697  10.004   5.162   5.210  0.4803 -0.4633  0.9145
  946MOL0     H27698  10.328   5.411   5.405 -2.2479  0.7796  1.4881
  946MOL0     H27699  10.297   5.520   5.267  1.4316 -0.1249  0.4330
  946MOL0     H27700  10.412   5.233   5.228 -0.7406 -0.1129  0.4918
  946MOL0     H27701  10.518   5.360   5.267 -0.7463 -1.9097  0.1653
  946MOL0     H27702  10.376   5.480   5.055 -0.8983 -0.2050  0.1664
  946MOL0     H27703  10.350   5.324   5.006  0.4180  0.2732 -0.8500
  946MOL0     H27704  10.597   5.253   5.033  0.4922  1.1911  0.9471
  946MOL0     H27705  10.532   5.359   4.896  0.1475  1.0481 -0.8908
  946MOL0     H27706  10.795   5.620   5.101 -0.5641  0.6547  2.5809
  946MOL0     H27707  10.109   5.563   5.331 -0.0201 -0.1920  0.4731
  946MOL0     H27708   9.938   5.740   5.350 -0.2701  0.1482  0.7708
  946MOL0     H27709   9.823   5.710   5.217 -1.2183 -3.6483 -1.6179
  946MOL0     H27710   9.775   5.695   5.379 -0.7236  0.3543 -0.9252
  947MOL0     O27711   6.213   2.465   8.525 -0.5024  0.1422 -0.4285
  947MOL0     C27712   6.309   2.477   8.454  0.0783  0.1119  0.1854
  947MOL0     O27713   6.388   2.378   8.407 -0.2311 -0.6185 -0.5171
  947MOL0     C27714   6.369   2.247   8.457 -0.6071 -0.2007  0.3949
  947MOL0     C27715   6.389   2.143   8.367 -0.4048 -0.2248 -1.0484
  947MOL0     C27716   6.399   2.006   8.410  0.2471  0.7467 -0.5462
  947MOL0     C27717   6.375   1.976   8.542 -0.1772 -0.2479  0.0717
  947MOL0     O27718   6.377   1.850   8.586 -0.2383  0.6238  0.2433
  947MOL0     C27719   6.306   1.744   8.514  0.3276  0.0685 -0.1631
  947MOL0     C27720   6.193   1.684   8.593 -0.4982  0.1586 -0.4855
  947MOL0     C27721   6.255   1.625   8.719 -0.1765  0.4892  0.3398
  947MOL0     C27722   6.157   1.504   8.761  0.6954 -0.3272  0.3017
  947MOL0     C27723   6.164   1.477   8.917 -0.6979 -1.0809 -0.5620
  947MOL0     C27724   6.076   1.583   8.992 -0.1811 -0.1394 -0.4568
  947MOL0     C27725   6.017   1.544   9.122  0.0255 -0.6827  0.6628
  947MOL0     C27726   6.131   1.533   9.229  0.1332 -0.0265  0.2110
  947MOL0     N27727   6.084   1.489   9.360 -0.5434 -0.0125 -0.9368
  947MOL0     C27728   6.023   1.576   9.448 -0.4952  0.1115 -0.8211
  947MOL0     C27729   5.996   1.501   9.560 -0.0106 -0.3914  0.1862
  947MOL0     C27730   5.938   1.546   9.689 -0.0951  0.3325  0.1109
  947MOL0     C27731   6.008   1.679   9.732  0.1588 -0.0222  0.6789
  947MOL0     C27732   5.920   1.808   9.720 -0.5212 -0.0431 -0.9962
  947MOL0     C27733   5.973   1.930   9.809  0.5593  0.2664 -0.3583
  947MOL0     O27734   5.871   2.021   9.807  0.5788 -0.7125  0.7284
  947MOL0     C27735   5.912   2.136   9.872  0.2605  0.5238  1.5071
  947MOL0     C27736   5.947   2.242   9.787  0.3178  0.0552  0.3122
  947MOL0     C27737   5.986   2.364   9.851 -0.2675 -0.6294  0.4796
  947MOL0     C27738   5.998   2.364  10.004  0.3300  0.0185  0.2555
  947MOL0     C27739   6.048   2.482  10.075  0.7817 -0.3593 -0.3309
  947MOL0     O27740   6.050   2.489  10.212  0.2496 -0.2432 -0.0140
  947MOL0     C27741   6.099   2.604  10.278 -0.2602 -0.3532 -1.2439
  947MOL0     C27742   6.091   2.731  10.243 -0.3246  0.8795 -0.0422
  947MOL0     C27743   6.153   2.834  10.313  0.2560 -1.3718 -0.2931
  947MOL0     C27744   6.235   2.813  10.428  0.1727 -0.2955  0.0627
  947MOL0     O27745   6.303   2.907  10.504 -0.5079 -0.0525  0.2449
  947MOL0     C27746   6.255   3.045  10.514 -0.4164  0.2938 -0.5269
  947MOL0     C27747   6.135   3.040  10.614 -0.4091 -0.3121 -0.3728
  947MOL0     C27748   6.165   3.053  10.759 -0.6846 -0.2880 -0.7119
  947MOL0     C27749   6.262   2.942  10.813  0.9013 -0.7050 -0.2520
  947MOL0     C27750   6.276   2.953  10.966  0.6107  0.0213 -0.7621
  947MOL0     C27751   6.341   2.827  11.035  0.2762  0.0304 -0.1344
  947MOL0     C27752   6.478   2.797  10.972 -0.5696 -0.5573 -0.1437
  947MOL0     C27753   6.538   2.657  11.018 -0.3429  0.3405 -0.2194
  947MOL0    Cl27754   6.444   2.514  10.977 -0.5403  0.0997  0.4568
  947MOL0     C27755   6.250   2.676  10.471  0.2742 -0.4689  0.3002
  947MOL0     C27756   6.175   2.576  10.400 -1.1930  0.4982  1.1783
  947MOL0     O27757   6.090   2.568  10.006  0.2630 -0.2114  0.2494
  947MOL0     C27758   5.963   2.250  10.075  0.5832  0.3612 -0.5112
  947MOL0     C27759   5.911   2.138  10.010  0.0022  1.4057  0.8805
  947MOL0     N27760   6.036   1.368   9.537  0.8965 -0.1842  0.3889
  947MOL0     N27761   6.090   1.367   9.418  0.1813  0.6951  0.4042
  947MOL0     C27762   6.359   2.087   8.632 -0.1594  0.1085  0.2484
  947MOL0     C27763   6.349   2.220   8.590  0.2158  0.7905 -0.1013
  947MOL0     C27764   6.338   2.616   8.398  0.1238 -0.2848 -0.0544
  947MOL0     C27765   6.431   2.630   8.295 -1.1872  0.5012  0.3585
  947MOL0     C27766   6.464   2.753   8.238  0.5603  0.2992 -0.2545
  947MOL0     C27767   6.385   2.867   8.268  0.6698  0.6567  0.0827
  947MOL0     O27768   6.401   2.992   8.220 -0.5379 -0.3075 -0.2803
  947MOL0     C27769   6.521   3.018   8.143  0.1983  0.2654 -0.4362
  947MOL0     C27770   6.543   3.166   8.123  0.8245  0.3989  0.2074
  947MOL0     C27771   6.563   3.250   8.253 -0.0574  0.3267 -0.6301
  947MOL0     C27772   6.681   3.213   8.341 -1.2100  0.3837 -0.1695
  947MOL0     C27773   6.807   3.230   8.271 -1.2381  0.3134  0.5942
  947MOL0     C27774   6.918   3.251   8.221  0.6761  0.0327  0.2177
  947MOL0     C27775   6.280   2.854   8.356  0.2676 -0.9034 -0.0831
  947MOL0     C27776   6.253   2.734   8.421  0.7302  0.0072  0.8212
  947MOL0     C27777   6.141   2.740   8.520  0.7533 -0.8657  0.6302
  947MOL0     H27778   6.417   2.175   8.267  1.6042 -0.6088 -0.6575
  947MOL0     H27779   6.412   1.924   8.340  0.8493 -0.4589  0.9292
  947MOL0     H27780   6.251   1.794   8.434 -1.9026 -0.9234  0.6537
  947MOL0     H27781   6.368   1.665   8.471  0.0476 -0.3671  0.2189
  947MOL0     H27782   6.143   1.608   8.532  0.8266  1.2966 -3.1546
  947MOL0     H27783   6.128   1.767   8.622 -0.3198  2.2952 -5.1877
  947MOL0     H27784   6.258   1.705   8.793 -0.1571  2.0509 -1.2659
  947MOL0     H27785   6.351   1.576   8.698 -0.8567 -0.0062 -1.9370
  947MOL0     H27786   6.055   1.522   8.726  0.4942  1.0736  1.5258
  947MOL0     H27787   6.193   1.417   8.706 -0.1638  0.2615 -1.2386
  947MOL0     H27788   6.147   1.373   8.949  4.5783 -0.9459  4.3478
  947MOL0     H27789   6.271   1.479   8.940 -0.5749  1.9195 -1.0703
  947MOL0     H27790   6.118   1.684   9.004 -1.6622  0.4839 -0.3637
  947MOL0     H27791   5.986   1.598   8.932 -0.9442 -1.2870  0.3780
  947MOL0     H27792   5.964   1.448   9.119 -1.7639  0.2209  1.5559
  947MOL0     H27793   5.944   1.618   9.157 -1.2043  0.2332 -3.3479
  947MOL0     H27794   6.197   1.455   9.190 -1.3064 -0.8044 -0.7417
  947MOL0     H27795   6.188   1.626   9.233  2.2863 -1.2379 -0.2733
  947MOL0     H27796   6.005   1.682   9.434 -0.0712  1.2070  4.5758
  947MOL0     H27797   5.830   1.563   9.689  0.1873  2.3695  0.4509
  947MOL0     H27798   5.960   1.469   9.763  0.1523 -0.7837 -1.0852
  947MOL0     H27799   6.007   1.664   9.841 -2.5155  1.6970  0.9720
  947MOL0     H27800   6.111   1.695   9.700 -0.4565  0.6316 -1.1096
  947MOL0     H27801   5.821   1.787   9.762 -0.8881  0.9506 -1.3504
  947MOL0     H27802   5.918   1.852   9.620 -2.2518  2.8533  0.2044
  947MOL0     H27803   6.059   1.976   9.760 -0.7647  1.2334 -1.8868
  947MOL0     H27804   5.999   1.891   9.908  3.8926 -1.4672 -1.7525
  947MOL0     H27805   5.930   2.240   9.679 -0.7376  0.6818  0.4488
  947MOL0     H27806   6.015   2.456   9.801  2.2640 -0.8494  1.4126
  947MOL0     H27807   6.018   2.748  10.164 -4.1181 -1.6881  2.5593
  947MOL0     H27808   6.159   2.934  10.271  3.4981 -0.8125  1.1322
  947MOL0     H27809   6.339   3.109  10.543 -0.4775 -0.5260  1.7193
  947MOL0     H27810   6.212   3.092  10.426 -1.5631  2.2340  0.9899
  947MOL0     H27811   6.056   3.114  10.599  0.7561  1.4150  1.6418
  947MOL0     H27812   6.083   2.944  10.602 -0.5846 -0.5018  1.6539
  947MOL0     H27813   6.197   3.158  10.761  1.3961 -0.8731  0.8002
  947MOL0     H27814   6.073   3.045  10.818  0.6660  1.0119  1.7414
  947MOL0     H27815   6.360   2.938  10.764  0.7028  0.1486 -0.7507
  947MOL0     H27816   6.207   2.851  10.791 -0.7743  0.5670 -1.6061
  947MOL0     H27817   6.179   2.966  11.014  0.8843 -0.6516  0.0090
  947MOL0     H27818   6.330   3.045  10.991  1.2609 -0.3853 -0.6495
  947MOL0     H27819   6.355   2.844  11.142 -2.0101  3.3142 -0.2032
  947MOL0     H27820   6.275   2.741  11.028 -1.8555  1.4764  1.0557
  947MOL0     H27821   6.547   2.881  10.976 -0.1807 -0.8690  3.8875
  947MOL0     H27822   6.466   2.777  10.865 -1.8854 -0.3990 -0.0482
  947MOL0     H27823   6.639   2.637  10.983 -0.5527 -0.0286 -0.6197
  947MOL0     H27824   6.530   2.670  11.126 -4.7927  4.2211 -0.6686
  947MOL0     H27825   6.301   2.645  10.562  0.8602  3.0674  1.3524
  947MOL0     H27826   6.167   2.474  10.434 -1.2113  0.3378  0.6976
  947MOL0     H27827   5.964   2.245  10.183  2.6895 -4.0528 -0.5140
  947MOL0     H27828   5.895   2.043  10.060 -0.2467  1.4821  0.9475
  947MOL0     H27829   6.343   2.056   8.735  2.5446  0.4506  0.8505
  947MOL0     H27830   6.343   2.306   8.656  2.1513  1.5773 -0.8667
  947MOL0     H27831   6.491   2.549   8.256 -2.9139  0.7661 -3.3228
  947MOL0     H27832   6.521   2.746   8.146 -0.0970 -0.7575 -0.6007
  947MOL0     H27833   6.505   2.976   8.043 -3.0409  1.7331 -0.6843
  947MOL0     H27834   6.614   2.983   8.189  1.2030  2.0761 -0.9810
  947MOL0     H27835   6.455   3.199   8.066 -0.4316 -2.7987  0.0283
  947MOL0     H27836   6.631   3.183   8.060  0.5997  0.6333 -0.0423
  947MOL0     H27837   6.484   3.221   8.321 -0.6727  2.5824 -0.2869
  947MOL0     H27838   6.537   3.353   8.225 -0.4474  0.2019 -0.7304
  947MOL0     H27839   6.690   3.285   8.422 -3.3158 -0.0148  0.4894
  947MOL0     H27840   6.671   3.109   8.374  2.3121  0.2125  0.7441
  947MOL0     H27841   7.015   3.274   8.183  0.3042 -0.4651 -1.0687
  947MOL0     H27842   6.236   2.950   8.385  2.3225  0.3957 -1.0121
  947MOL0     H27843   6.203   2.727   8.609  3.7811  2.7895 -0.7128
  947MOL0     H27844   6.086   2.834   8.525 -0.7376 -1.5577 -1.3175
  947MOL0     H27845   6.074   2.660   8.487  1.8298  0.3132 -5.4865
  948MOL0     O27846   4.450   6.061   3.870 -0.6522  0.3406  0.0178
  948MOL0     C27847   4.468   6.179   3.872 -0.1754 -0.2061 -0.5597
  948MOL0     O27848   4.508   6.257   3.766 -0.5594 -0.2930  0.5826
  948MOL0     C27849   4.480   6.199   3.645  1.0193 -0.5580 -0.5101
  948MOL0     C27850   4.349   6.228   3.596  0.0156 -0.4567  0.5780
  948MOL0     C27851   4.312   6.182   3.472 -0.0100  1.0148  0.7563
  948MOL0     C27852   4.409   6.111   3.398 -0.2730 -0.5431 -0.2738
  948MOL0     O27853   4.371   6.073   3.270  0.4323 -0.6438 -0.2704
  948MOL0     C27854   4.416   5.951   3.222  0.0267  0.1445  0.6898
  948MOL0     C27855   4.329   5.903   3.103  0.9324  0.6672  0.5050
  948MOL0     C27856   4.393   5.789   3.020 -0.2034 -0.4119  0.3344
  948MOL0     C27857   4.412   5.671   3.099  0.6115  1.1899  0.1364
  948MOL0     C27858   4.451   5.552   3.003 -0.2679 -0.1573 -0.7416
  948MOL0     C27859   4.583   5.487   3.032 -0.5121 -0.2772  0.4463
  948MOL0     C27860   4.611   5.449   3.176  0.7675  0.1446  0.2069
  948MOL0     C27861   4.507   5.364   3.241 -0.1571 -0.5331 -0.5976
  948MOL0     N27862   4.562   5.239   3.296 -0.5456 -0.2145 -0.2132
  948MOL0     C27863   4.562   5.120   3.226 -0.9167 -0.2618  0.1101
  948MOL0     C27864   4.601   5.027   3.318 -0.0171  0.0310  0.0495
  948MOL0     C27865   4.619   4.882   3.283  1.2779  0.3059 -0.6198
  948MOL0     C27866   4.502   4.792   3.336 -0.0329 -1.3236 -0.2304
  948MOL0     C27867   4.381   4.808   3.250  0.4584  0.3710 -0.7503
  948MOL0     C27868   4.379   4.720   3.124  0.1868  0.1167 -0.0860
  948MOL0     O27869   4.403   4.587   3.171 -0.6822  1.1315  0.0135
  948MOL0     C27870   4.393   4.478   3.086 -0.8405 -0.3943 -0.1887
  948MOL0     C27871   4.383   4.350   3.143  0.1304 -0.5832 -0.0184
  948MOL0     C27872   4.356   4.235   3.061  0.1926  0.4659  0.2389
  948MOL0     C27873   4.372   4.255   2.923  0.3600  1.0750 -0.8636
  948MOL0     C27874   4.334   4.142   2.836 -0.4550  0.3393  0.2695
  948MOL0     O27875   4.372   4.152   2.712  0.1702 -0.0835 -0.1136
  948MOL0     C27876   4.337   4.043   2.633 -0.0535 -0.3332  0.0510
  948MOL0     C27877   4.432   3.956   2.592 -0.2046 -0.0547 -0.9142
  948MOL0     C27878   4.408   3.857   2.497  0.2519  0.2435 -1.4987
  948MOL0     C27879   4.280   3.839   2.443 -0.4470 -0.4272  0.0660
  948MOL0     O27880   4.261   3.758   2.337 -0.4609 -0.1001  0.3947
  948MOL0     C27881   4.331   3.629   2.320  0.6947 -0.1081  0.3184
  948MOL0     C27882   4.264   3.564   2.201 -1.3053 -0.7988 -0.7036
  948MOL0     C27883   4.337   3.428   2.180 -0.1358  0.3214  0.6698
  948MOL0     C27884   4.289   3.332   2.060  0.5872  0.4322  0.2861
  948MOL0     C27885   4.365   3.201   2.059  0.0243  0.0915  0.3300
  948MOL0     C27886   4.324   3.088   1.959 -0.0161  0.9217 -0.0716
  948MOL0     C27887   4.421   2.967   1.974 -0.2026  0.4415 -0.5258
  948MOL0     C27888   4.370   2.857   1.880  0.6642 -1.2289  0.0521
  948MOL0    Cl27889   4.193   2.824   1.893  0.0035 -0.0977 -0.3146
  948MOL0     C27890   4.189   3.938   2.468  0.4875 -0.0554  0.2134
  948MOL0     C27891   4.215   4.034   2.569  0.1207 -0.2670  0.3647
  948MOL0     O27892   4.268   4.051   2.886 -0.1745 -0.0949 -0.5155
  948MOL0     C27893   4.404   4.380   2.869  0.1764 -0.5051  0.4775
  948MOL0     C27894   4.421   4.492   2.944 -0.6534 -0.1434 -0.1431
  948MOL0     N27895   4.594   5.087   3.445  1.0533  0.0288 -0.0340
  948MOL0     N27896   4.580   5.215   3.432  0.0252 -0.6634 -0.2490
  948MOL0     C27897   4.532   6.077   3.453 -0.1106  0.2244 -0.5900
  948MOL0     C27898   4.575   6.118   3.583  0.5347 -0.1035 -0.1047
  948MOL0     C27899   4.430   6.238   4.000 -0.5280 -1.1218 -0.9764
  948MOL0     C27900   4.406   6.156   4.110  0.1667  0.9773 -0.2347
  948MOL0     C27901   4.347   6.200   4.231  0.2426  0.8012  0.4138
  948MOL0     C27902   4.319   6.334   4.254 -1.1711 -0.6604 -1.1323
  948MOL0     O27903   4.261   6.388   4.374 -0.4539 -0.2580  0.5440
  948MOL0     C27904   4.361   6.404   4.482  0.1207  0.1343  0.2631
  948MOL0     C27905   4.417   6.547   4.495 -0.7636  0.0981 -0.2146
  948MOL0     C27906   4.304   6.643   4.508 -0.0727 -1.2705 -0.4635
  948MOL0     C27907   4.361   6.790   4.499 -0.3059 -0.1317  0.3844
  948MOL0     C27908   4.464   6.799   4.610 -0.0523  0.2203  1.2523
  948MOL0     C27909   4.529   6.822   4.708  0.1656  0.7178 -0.2234
  948MOL0     C27910   4.356   6.422   4.156 -0.3777  0.2402  0.6562
  948MOL0     C27911   4.400   6.379   4.025  0.4534  0.0051 -0.5474
  948MOL0     C27912   4.411   6.481   3.920  0.8464 -0.4266 -0.2007
  948MOL0     H27913   4.287   6.305   3.642  0.0106  0.8034 -1.3945
  948MOL0     H27914   4.210   6.201   3.440 -0.0574  0.4704  0.5699
  948MOL0     H27915   4.520   5.966   3.191  0.6172  2.9687  3.4916
  948MOL0     H27916   4.398   5.864   3.286  0.7841 -1.1709 -0.8212
  948MOL0     H27917   4.303   5.986   3.037  0.3385 -0.6110 -0.9038
  948MOL0     H27918   4.231   5.868   3.136  0.5415 -0.4631 -1.6903
  948MOL0     H27919   4.492   5.817   2.982  1.0441 -2.3747  1.9483
  948MOL0     H27920   4.317   5.769   2.944 -1.1854 -0.8290  1.4042
  948MOL0     H27921   4.490   5.689   3.174  0.9437 -0.8073  0.3359
  948MOL0     H27922   4.318   5.643   3.146  0.7474 -0.2679 -0.4013
  948MOL0     H27923   4.370   5.478   2.997  0.1429 -0.5390 -1.8176
  948MOL0     H27924   4.460   5.589   2.901  1.4577  1.1612 -0.1569
  948MOL0     H27925   4.593   5.408   2.958  1.9984 -0.0322  0.4453
  948MOL0     H27926   4.655   5.560   2.994 -0.3309  0.0771  1.4480
  948MOL0     H27927   4.621   5.542   3.233  2.2056 -0.5760  1.2078
  948MOL0     H27928   4.702   5.390   3.192  0.5224 -1.1645 -2.6783
  948MOL0     H27929   4.464   5.404   3.334 -0.2266  0.5616 -1.0875
  948MOL0     H27930   4.431   5.336   3.167 -0.0223  1.1325 -1.3909
  948MOL0     H27931   4.552   5.090   3.122  0.3311 -3.5647  0.8282
  948MOL0     H27932   4.638   4.861   3.177  1.1641 -1.4652 -0.3232
  948MOL0     H27933   4.709   4.848   3.335  1.4915  1.8353  0.0690
  948MOL0     H27934   4.537   4.689   3.341  0.8037 -1.0624 -0.6132
  948MOL0     H27935   4.471   4.821   3.437 -2.5565 -2.0701 -0.7008
  948MOL0     H27936   4.367   4.909   3.211  0.6884  0.1326 -1.4584
  948MOL0     H27937   4.293   4.785   3.311 -0.1007  2.7945 -0.5501
  948MOL0     H27938   4.456   4.763   3.060  1.0567  2.7572  2.5243
  948MOL0     H27939   4.281   4.729   3.076  0.0613 -0.1873  0.1096
  948MOL0     H27940   4.382   4.334   3.250 -4.6733  0.1940  0.2538
  948MOL0     H27941   4.346   4.139   3.109  2.5849 -0.9731 -1.8869
  948MOL0     H27942   4.533   3.955   2.632 -1.2959  0.2876  2.1581
  948MOL0     H27943   4.490   3.790   2.472 -0.4806 -0.9223 -0.8704
  948MOL0     H27944   4.436   3.639   2.294  1.7831 -2.0311  3.4104
  948MOL0     H27945   4.315   3.576   2.415 -1.7305 -0.2666 -0.1105
  948MOL0     H27946   4.157   3.555   2.223 -1.5682  0.6776 -1.2444
  948MOL0     H27947   4.279   3.619   2.108  4.1870 -2.8290 -1.3826
  948MOL0     H27948   4.440   3.457   2.159  0.5658  1.7569  5.0910
  948MOL0     H27949   4.337   3.381   2.278  0.2950  0.4811  0.7473
  948MOL0     H27950   4.306   3.384   1.966 -3.6383  0.3775 -0.6949
  948MOL0     H27951   4.184   3.313   2.084  0.4825  1.6244  0.8513
  948MOL0     H27952   4.356   3.162   2.160  2.4167 -4.8255 -1.0466
  948MOL0     H27953   4.473   3.212   2.043  0.3372 -1.0966  1.4975
  948MOL0     H27954   4.216   3.072   1.974  0.0082  1.1617  0.3511
  948MOL0     H27955   4.343   3.135   1.862 -1.7865 -1.3787 -1.6621
  948MOL0     H27956   4.411   2.933   2.078 -0.9064 -0.0596 -0.7514
  948MOL0     H27957   4.523   3.002   1.958  0.0215 -0.7663 -1.9470
  948MOL0     H27958   4.392   2.881   1.776  1.3334  3.3027  1.0509
  948MOL0     H27959   4.415   2.760   1.902  1.8152 -1.8065 -4.0770
  948MOL0     H27960   4.095   3.938   2.413 -1.5285  2.7235  3.2974
  948MOL0     H27961   4.141   4.112   2.582  1.9231  1.7406 -0.5677
  948MOL0     H27962   4.404   4.396   2.762  3.6702  1.1047  0.5639
  948MOL0     H27963   4.439   4.590   2.900  2.8717  1.7132  4.5447
  948MOL0     H27964   4.589   6.011   3.388 -1.4690  0.4183 -2.0524
  948MOL0     H27965   4.673   6.090   3.621 -0.4995 -3.8354  0.1697
  948MOL0     H27966   4.411   6.048   4.102 -2.0708  0.8664 -0.8635
  948MOL0     H27967   4.326   6.127   4.308 -3.5933  1.9438  0.6500
  948MOL0     H27968   4.449   6.341   4.465 -0.1780 -0.1485 -0.2650
  948MOL0     H27969   4.307   6.373   4.572  1.4945 -1.0203  0.7263
  948MOL0     H27970   4.476   6.583   4.411 -2.5378  2.6549 -0.4831
  948MOL0     H27971   4.471   6.548   4.590  0.3438  0.9585 -0.8474
  948MOL0     H27972   4.257   6.619   4.604  3.6747 -3.5876  1.0305
  948MOL0     H27973   4.230   6.618   4.432 -2.3681 -2.9812  2.1282
  948MOL0     H27974   4.416   6.811   4.406  3.4889  0.2771  2.5084
  948MOL0     H27975   4.284   6.866   4.512  1.2508  1.3469  1.3847
  948MOL0     H27976   4.597   6.853   4.784 -1.1702  2.7860  0.2000
  948MOL0     H27977   4.334   6.522   4.190  2.0709  0.5394  1.5540
  948MOL0     H27978   4.328   6.474   3.848  1.0105  6.7147 -1.8244
  948MOL0     H27979   4.396   6.581   3.962  2.2190  0.2017 -1.1309
  948MOL0     H27980   4.511   6.476   3.877  1.0359  2.3981 -0.2566
  949MOL0     O27981  11.309   5.640   1.885 -0.0777  0.7616 -0.3893
  949MOL0     C27982  11.276   5.740   1.947  0.3403 -0.0856  0.1026
  949MOL0     O27983  11.298   5.757   2.079 -0.0428 -0.7880 -0.6273
  949MOL0     C27984  11.265   5.650   2.162  0.7678  0.4759  0.4440
  949MOL0     C27985  11.353   5.541   2.169 -0.0983 -0.3795  0.4160
  949MOL0     C27986  11.328   5.438   2.252  0.5097 -0.5798 -0.0212
  949MOL0     C27987  11.220   5.431   2.332  0.4382 -0.2727 -1.1812
  949MOL0     O27988  11.219   5.317   2.410 -0.0959  0.4812  0.1766
  949MOL0     C27989  11.103   5.292   2.489  0.4037 -0.4114  0.2841
  949MOL0     C27990  11.121   5.359   2.629  0.4588  0.1128 -0.3626
  949MOL0     C27991  11.212   5.294   2.725 -0.1060  0.2033 -0.3167
  949MOL0     C27992  11.149   5.237   2.857  0.2285 -1.2796  0.2395
  949MOL0     C27993  11.248   5.141   2.927 -0.5399  0.3620 -0.0681
  949MOL0     C27994  11.201   5.098   3.067  0.0618  0.6035  0.5095
  949MOL0     C27995  11.177   5.213   3.166  0.2768  0.3433 -0.4234
  949MOL0     C27996  11.299   5.271   3.242 -0.4443  0.5410 -0.1033
  949MOL0     N27997  11.375   5.363   3.163  0.0622 -0.0260  0.3112
  949MOL0     C27998  11.329   5.481   3.106  0.3872  0.6289  0.5209
  949MOL0     C27999  11.441   5.535   3.048 -0.4446 -0.4292 -0.3787
  949MOL0     C28000  11.453   5.658   2.960  0.0346  0.3903  0.4242
  949MOL0     C28001  11.395   5.634   2.820 -0.1449  0.2540 -0.0429
  949MOL0     C28002  11.416   5.764   2.746 -0.1852 -0.2780 -0.5341
  949MOL0     C28003  11.366   5.747   2.602  0.3969 -0.0913  0.3992
  949MOL0     O28004  11.224   5.725   2.603  0.5501 -0.8573  0.7160
  949MOL0     C28005  11.147   5.833   2.646 -0.1876 -0.0961 -1.4329
  949MOL0     C28006  11.192   5.962   2.634 -0.3229 -0.6088  0.8289
  949MOL0     C28007  11.108   6.069   2.675  0.6577  0.5215  0.5028
  949MOL0     C28008  10.980   6.040   2.732  0.2530 -0.1605  0.3434
  949MOL0     C28009  10.913   6.156   2.792 -0.0575  0.1393  0.6514
  949MOL0     O28010  10.989   6.265   2.824  0.2863 -0.4748 -0.4187
  949MOL0     C28011  10.912   6.362   2.886  0.1726  0.0504  0.4605
  949MOL0     C28012  10.818   6.436   2.824  0.0047 -0.1520  0.2225
  949MOL0     C28013  10.769   6.560   2.879 -0.3051 -0.1150 -0.1466
  949MOL0     C28014  10.802   6.607   3.009 -0.1238 -0.2762  0.6026
  949MOL0     O28015  10.758   6.730   3.050  0.3444  0.0606 -0.4106
  949MOL0     C28016  10.811   6.785   3.174  0.8038 -0.1413 -0.4892
  949MOL0     C28017  10.965   6.830   3.170 -1.0595 -0.3857 -0.5806
  949MOL0     C28018  11.013   6.911   3.299  0.3864  0.9547  0.0278
  949MOL0     C28019  11.148   6.978   3.273 -0.4924  0.6619 -0.4607
  949MOL0     C28020  11.147   7.119   3.334 -0.1924 -0.0503  0.4697
  949MOL0     C28021  11.160   7.123   3.484  0.0123 -0.3415 -1.2168
  949MOL0     C28022  11.126   7.256   3.537 -0.9253 -0.3431 -0.1617
  949MOL0     C28023  11.204   7.382   3.476  0.6221  0.6046 -0.6515
  949MOL0    Cl28024  11.090   7.438   3.352 -0.1035  0.5345  0.6587
  949MOL0     C28025  10.890   6.516   3.072 -0.5820 -0.3256  0.2410
  949MOL0     C28026  10.947   6.402   3.018 -0.2683 -0.0986 -0.1179
  949MOL0     O28027  10.795   6.147   2.807 -0.1366  0.8561  0.7617
  949MOL0     C28028  10.924   5.912   2.728 -0.1155 -0.0138  0.6180
  949MOL0     C28029  11.016   5.808   2.696  0.1847  0.4146 -0.0926
  949MOL0     N28030  11.548   5.451   3.063  0.6818 -0.3630 -0.1213
  949MOL0     N28031  11.504   5.352   3.133  0.6241 -0.5217 -0.3436
  949MOL0     C28032  11.132   5.537   2.342  0.4343 -0.2099  0.8641
  949MOL0     C28033  11.152   5.657   2.259  0.1765  0.6392 -0.1790
  949MOL0     C28034  11.260   5.861   1.863  1.6305 -0.4516 -0.3992
  949MOL0     C28035  11.344   5.888   1.750  1.0417  1.1338  0.7144
  949MOL0     C28036  11.316   5.999   1.669  1.1848  0.9491 -0.6522
  949MOL0     C28037  11.220   6.095   1.712 -0.0322 -0.5908  0.4909
  949MOL0     O28038  11.214   6.205   1.626  0.3167 -0.6403 -0.2980
  949MOL0     C28039  11.086   6.252   1.599 -0.4331 -0.6300  0.9561
  949MOL0     C28040  11.088   6.321   1.458 -1.0066 -0.6041 -0.0743
  949MOL0     C28041  10.968   6.398   1.428  0.4823 -0.4888  0.7224
  949MOL0     C28042  10.982   6.470   1.285 -0.4369  0.7868  0.2280
  949MOL0     C28043  11.103   6.549   1.293  0.0876  0.4288 -0.3055
  949MOL0     C28044  11.197   6.620   1.309 -0.0114  0.7982 -0.7810
  949MOL0     C28045  11.133   6.068   1.823  0.7709 -0.5673 -0.0257
  949MOL0     C28046  11.146   5.948   1.890 -0.4950  0.7159 -0.2205
  949MOL0     C28047  11.034   5.913   1.996  0.2166 -0.6997 -0.6216
  949MOL0     H28048  11.444   5.538   2.108  1.0819  2.7863  1.7834
  949MOL0     H28049  11.398   5.355   2.248  2.6389  1.1554 -0.1485
  949MOL0     H28050  11.014   5.339   2.445 -1.1947 -1.3135  2.3696
  949MOL0     H28051  11.087   5.184   2.487  0.0630 -0.3710 -2.1726
  949MOL0     H28052  11.026   5.351   2.683  0.9647  1.9179  0.8672
  949MOL0     H28053  11.153   5.460   2.603  3.6868 -1.5000 -3.6291
  949MOL0     H28054  11.290   5.362   2.760 -0.4387 -0.3054  1.5157
  949MOL0     H28055  11.259   5.205   2.681 -3.1036 -1.9876  0.6177
  949MOL0     H28056  11.127   5.326   2.915  2.0478  0.0361 -0.9646
  949MOL0     H28057  11.056   5.188   2.826 -2.0395  2.2021  0.9455
  949MOL0     H28058  11.257   5.051   2.865  1.9745 -1.6888  2.9349
  949MOL0     H28059  11.347   5.187   2.925 -1.2791  1.9973 -0.7188
  949MOL0     H28060  11.109   5.041   3.057 -0.0887  0.8532  0.4454
  949MOL0     H28061  11.280   5.037   3.112  0.3579 -0.4445 -1.3305
  949MOL0     H28062  11.106   5.167   3.236  1.5708 -1.4611 -0.2288
  949MOL0     H28063  11.118   5.291   3.118 -0.6977  1.8020  2.9096
  949MOL0     H28064  11.271   5.308   3.341 -0.5597  1.5087 -0.4867
  949MOL0     H28065  11.352   5.177   3.258  2.3024  1.4367 -2.8718
  949MOL0     H28066  11.227   5.517   3.109  0.8143  2.3898 -2.1984
  949MOL0     H28067  11.401   5.744   3.003 -3.3008 -1.7745  1.0438
  949MOL0     H28068  11.561   5.675   2.956  0.1976 -0.5196  0.7522
  949MOL0     H28069  11.453   5.554   2.772  2.2990  1.6763  0.3757
  949MOL0     H28070  11.288   5.621   2.837  0.2888  0.5276  3.4626
  949MOL0     H28071  11.520   5.799   2.742 -0.4656  0.5773 -0.4755
  949MOL0     H28072  11.354   5.833   2.804  0.4231 -0.7990  0.7625
  949MOL0     H28073  11.414   5.655   2.566 -1.8468 -2.4396  2.9238
  949MOL0     H28074  11.401   5.829   2.539 -0.3835  3.7347  4.4141
  949MOL0     H28075  11.290   5.984   2.594 -2.1030  1.4419 -2.9705
  949MOL0     H28076  11.138   6.172   2.663  1.2487  1.0530  4.9738
  949MOL0     H28077  10.781   6.409   2.725 -1.1278  4.6007 -0.9282
  949MOL0     H28078  10.712   6.623   2.811  1.4196 -0.2163 -1.7688
  949MOL0     H28079  10.745   6.866   3.206 -0.9365 -2.0118  0.8860
  949MOL0     H28080  10.795   6.714   3.255 -3.1020  1.1300  0.0368
  949MOL0     H28081  11.028   6.741   3.158 -0.4403  0.0003 -0.2695
  949MOL0     H28082  10.986   6.894   3.084  1.9347 -1.1141 -0.5247
  949MOL0     H28083  10.938   6.986   3.328 -0.5741 -1.0900  3.3646
  949MOL0     H28084  11.023   6.843   3.384 -0.2914  0.9236  0.0877
  949MOL0     H28085  11.167   6.986   3.166 -3.4699 -2.8087 -1.4753
  949MOL0     H28086  11.232   6.917   3.307  0.8375  1.6784 -1.7802
  949MOL0     H28087  11.053   7.161   3.296  0.0462  1.7804  1.7578
  949MOL0     H28088  11.229   7.177   3.291 -1.4043  2.3632  1.2129
  949MOL0     H28089  11.104   7.056   3.549 -0.7030  3.6588  2.8682
  949MOL0     H28090  11.268   7.115   3.502  0.8020  1.8480 -4.2076
  949MOL0     H28091  11.148   7.250   3.644  0.9362 -1.3247 -0.5590
  949MOL0     H28092  11.017   7.267   3.530 -0.9648 -0.7724 -0.2647
  949MOL0     H28093  11.210   7.464   3.549 -1.1463  0.7494 -0.6225
  949MOL0     H28094  11.302   7.355   3.437 -0.9300 -0.0880 -4.5465
  949MOL0     H28095  10.904   6.533   3.178 -0.7692 -1.3061  0.4284
  949MOL0     H28096  11.027   6.345   3.064 -1.1112  0.2716  1.9221
  949MOL0     H28097  10.828   5.877   2.764 -0.6850  0.3878 -0.4665
  949MOL0     H28098  10.991   5.703   2.707  2.7956 -0.4613 -1.5664
  949MOL0     H28099  11.046   5.534   2.408 -0.0324  1.5920  0.3984
  949MOL0     H28100  11.097   5.750   2.259 -3.1406 -1.1770  0.2398
  949MOL0     H28101  11.422   5.816   1.727 -0.6363  0.1015 -2.3239
  949MOL0     H28102  11.384   6.016   1.586 -1.0911 -0.5668 -2.9440
  949MOL0     H28103  11.058   6.332   1.669  1.5692 -1.1135  2.3778
  949MOL0     H28104  11.009   6.175   1.608 -1.3570  0.0555 -0.5328
  949MOL0     H28105  11.102   6.252   1.374  0.7645 -1.4703  0.8711
  949MOL0     H28106  11.175   6.386   1.472 -0.0307 -2.2532  2.1771
  949MOL0     H28107  10.946   6.470   1.508 -1.3639 -0.3440  0.1212
  949MOL0     H28108  10.885   6.328   1.417 -0.6080  0.8323  0.2192
  949MOL0     H28109  10.965   6.407   1.198 -2.7817  0.4806  0.8566
  949MOL0     H28110  10.900   6.542   1.284 -0.9700  0.1758 -0.4393
  949MOL0     H28111  11.285   6.670   1.346 -0.1083 -1.4687  3.1226
  949MOL0     H28112  11.048   6.134   1.839  0.2967 -0.9805 -0.7521
  949MOL0     H28113  11.065   5.925   2.100 -1.9514  3.3984 -0.2709
  949MOL0     H28114  10.950   5.980   1.976 -0.8926 -2.8570 -4.0632
  949MOL0     H28115  11.003   5.808   1.990  1.9558 -1.4693  2.0353
  950MOL0     O28116   3.968   5.901   8.778  0.9427 -0.0074 -0.0480
  950MOL0     C28117   3.855   5.943   8.818  0.3546  0.1387 -0.0858
  950MOL0     O28118   3.730   5.901   8.775  0.6001 -0.5111 -0.2806
  950MOL0     C28119   3.705   5.836   8.652  0.1343  0.5358 -0.8525
  950MOL0     C28120   3.608   5.890   8.568 -0.9357  0.6361  0.6797
  950MOL0     C28121   3.581   5.822   8.441 -1.0477  0.9274  0.4875
  950MOL0     C28122   3.653   5.704   8.401  0.6029 -0.1533 -0.2561
  950MOL0     O28123   3.601   5.636   8.299 -0.9342  0.2529  0.2364
  950MOL0     C28124   3.626   5.497   8.279  0.1220 -0.4680 -0.2730
  950MOL0     C28125   3.505   5.419   8.310  0.7967  0.1060  0.2544
  950MOL0     C28126   3.520   5.340   8.443  0.4395 -0.7122 -0.0829
  950MOL0     C28127   3.397   5.262   8.501  0.6400 -0.5178 -0.8992
  950MOL0     C28128   3.326   5.341   8.608  0.1661 -0.5593  0.2762
  950MOL0     C28129   3.177   5.338   8.617  0.8278  0.1434 -0.2816
  950MOL0     C28130   3.117   5.202   8.574  0.7224  0.0793  0.6271
  950MOL0     C28131   3.153   5.072   8.656  0.5500  0.3370 -0.1378
  950MOL0     N28132   3.124   5.088   8.800  0.7141  0.4409 -0.2863
  950MOL0     C28133   3.231   5.104   8.890  0.7184  0.9034 -0.1284
  950MOL0     C28134   3.174   5.167   8.993  0.7344  0.2194  0.0281
  950MOL0     C28135   3.261   5.210   9.109  0.2657 -0.6097  0.4347
  950MOL0     C28136   3.195   5.322   9.198  0.5026 -0.0609  0.7226
  950MOL0     C28137   3.306   5.405   9.259 -0.0739  0.8943 -1.0125
  950MOL0     C28138   3.389   5.322   9.359 -0.0395 -0.0548 -0.4686
  950MOL0     O28139   3.523   5.383   9.371 -0.1516  0.1511  0.5982
  950MOL0     C28140   3.550   5.491   9.458 -0.2923 -0.4656  0.9594
  950MOL0     C28141   3.625   5.602   9.415  0.2030  0.4740 -1.0822
  950MOL0     C28142   3.644   5.716   9.498 -0.6719  0.1635  0.5990
  950MOL0     C28143   3.576   5.736   9.619  0.3924 -0.7412 -0.1423
  950MOL0     C28144   3.595   5.853   9.704  0.4545  0.4727 -0.4937
  950MOL0     O28145   3.656   5.958   9.649  0.9188  0.7084  0.1197
  950MOL0     C28146   3.698   6.073   9.713  0.7983  0.3159  0.1428
  950MOL0     C28147   3.615   6.147   9.803 -0.7449 -1.0339  1.0759
  950MOL0     C28148   3.661   6.269   9.868 -0.0436  0.5975  0.3394
  950MOL0     C28149   3.793   6.309   9.840 -0.0366  0.7672  0.0166
  950MOL0     O28150   3.836   6.421   9.893 -0.5199 -0.5554  0.2690
  950MOL0     C28151   3.796   6.462  10.017 -0.3412 -0.8423  0.0950
  950MOL0     C28152   3.869   6.590  10.063  0.5775  0.4694  0.4974
  950MOL0     C28153   3.852   6.696   9.960  0.0021  0.1038  0.0745
  950MOL0     C28154   3.968   6.789   9.953 -1.2220 -0.1010  0.4319
  950MOL0     C28155   3.935   6.920   9.880  0.6645  0.1020 -0.0311
  950MOL0     C28156   3.849   7.015   9.959 -0.7292 -0.3839 -0.0584
  950MOL0     C28157   3.878   7.166   9.932 -0.0244 -0.5594  0.2963
  950MOL0     C28158   4.009   7.213   9.998 -0.0320  0.3313  0.1246
  950MOL0    Cl28159   3.997   7.368  10.094 -0.0188 -0.3466 -0.3620
  950MOL0     C28160   3.874   6.238   9.748  0.2519 -0.7166 -0.7152
  950MOL0     C28161   3.825   6.122   9.680  0.2493  0.4215  1.3560
  950MOL0     O28162   3.578   5.837   9.826 -0.6435  0.1031 -0.4583
  950MOL0     C28163   3.499   5.629   9.653  0.1489  0.8621 -0.1857
  950MOL0     C28164   3.488   5.502   9.581 -0.5973 -0.2283 -0.5064
  950MOL0     N28165   3.029   5.166   8.981 -0.1806 -0.3856  0.1003
  950MOL0     N28166   3.004   5.124   8.859  0.2530 -0.1575  1.3364
  950MOL0     C28167   3.764   5.672   8.483 -0.1609 -0.0629 -0.7711
  950MOL0     C28168   3.787   5.728   8.610 -0.6128 -0.9349  0.1342
  950MOL0     C28169   3.877   6.045   8.923  0.5095 -0.0583 -0.6782
  950MOL0     C28170   3.855   6.175   8.886 -0.2244  0.6181  0.5106
  950MOL0     C28171   3.884   6.268   8.984 -0.6429  0.1714 -0.4833
  950MOL0     C28172   3.950   6.238   9.103  0.8579 -0.0652 -0.2899
  950MOL0     O28173   3.982   6.330   9.203 -0.7177 -0.3381  0.5023
  950MOL0     C28174   3.887   6.369   9.301  0.7926 -0.3696  0.3494
  950MOL0     C28175   3.927   6.497   9.357 -0.5004  0.4091  0.3497
  950MOL0     C28176   3.932   6.607   9.251 -0.7135 -0.2728 -0.4932
  950MOL0     C28177   3.966   6.740   9.329  0.4672 -0.1237  0.1830
  950MOL0     C28178   3.852   6.799   9.403 -0.5726  0.4021  1.0599
  950MOL0     C28179   3.764   6.849   9.466  0.7164 -0.6555  0.2258
  950MOL0     C28180   3.970   6.114   9.143 -0.6785  0.4582  0.4399
  950MOL0     C28181   3.933   6.009   9.060  0.5655 -0.5456  0.3009
  950MOL0     C28182   3.955   5.866   9.093 -0.6988  0.8204 -0.4239
  950MOL0     H28183   3.554   5.968   8.622  1.5124 -0.2935  4.9493
  950MOL0     H28184   3.514   5.865   8.367  2.2854  0.6892 -2.9683
  950MOL0     H28185   3.657   5.477   8.176 -0.1882 -1.6676 -0.1496
  950MOL0     H28186   3.706   5.452   8.338 -0.4933  2.6297  3.2629
  950MOL0     H28187   3.476   5.360   8.222  3.4563  1.2956 -1.5728
  950MOL0     H28188   3.419   5.486   8.320  0.2559 -0.3312 -1.0917
  950MOL0     H28189   3.555   5.406   8.523  0.9654 -1.9609  0.7583
  950MOL0     H28190   3.600   5.266   8.428  2.2360  1.1792 -0.3089
  950MOL0     H28191   3.325   5.250   8.419  0.9319 -0.1794 -1.2059
  950MOL0     H28192   3.430   5.166   8.544  2.1238  0.0711 -0.6738
  950MOL0     H28193   3.367   5.316   8.706  1.0263  3.3321  1.0938
  950MOL0     H28194   3.344   5.448   8.592  1.5477 -0.6785  0.8859
  950MOL0     H28195   3.142   5.350   8.720 -1.2617  0.1229 -0.9438
  950MOL0     H28196   3.127   5.413   8.556 -0.1225  0.2260  0.5647
  950MOL0     H28197   3.112   5.185   8.466 -2.7583  0.2352  0.6713
  950MOL0     H28198   3.011   5.204   8.598  1.1084 -0.6915  2.6322
  950MOL0     H28199   3.076   4.999   8.631  0.0480  0.4504  1.0503
  950MOL0     H28200   3.259   5.048   8.644  1.6066  3.1366  2.2787
  950MOL0     H28201   3.335   5.082   8.869  1.1057  1.2452  1.3254
  950MOL0     H28202   3.278   5.126   9.177  2.7768  0.7574  1.6459
  950MOL0     H28203   3.358   5.246   9.075  0.3433  0.6145  1.8347
  950MOL0     H28204   3.140   5.388   9.130  0.0853 -0.3315  0.7997
  950MOL0     H28205   3.137   5.270   9.275 -0.6364 -0.5677 -0.4418
  950MOL0     H28206   3.254   5.484   9.313 -2.4533 -1.5365  0.5165
  950MOL0     H28207   3.387   5.443   9.196  0.4731  0.3382 -0.6634
  950MOL0     H28208   3.405   5.216   9.336  0.1231 -0.8093  2.6935
  950MOL0     H28209   3.337   5.322   9.455  1.5950 -0.6278  0.4691
  950MOL0     H28210   3.661   5.609   9.313 -1.4595  1.5293 -1.6509
  950MOL0     H28211   3.711   5.796   9.468  0.1729 -0.2988  1.1891
  950MOL0     H28212   3.523   6.108   9.845 -0.5640 -2.3876  0.2736
  950MOL0     H28213   3.589   6.324   9.928  1.7187 -0.0513  3.2108
  950MOL0     H28214   3.689   6.482  10.023 -0.3962 -0.3307 -1.8162
  950MOL0     H28215   3.822   6.397  10.101 -1.2209  2.5975  3.3352
  950MOL0     H28216   3.854   6.612  10.169  4.6773 -0.7790  1.5280
  950MOL0     H28217   3.978   6.576  10.065  0.8700  1.1699 -3.3197
  950MOL0     H28218   3.820   6.659   9.862  2.8577 -0.6275 -0.6788
  950MOL0     H28219   3.770   6.753  10.005 -0.9662 -1.6495  0.6350
  950MOL0     H28220   4.052   6.731   9.913  0.5296  2.8870 -0.4863
  950MOL0     H28221   3.995   6.813  10.056 -0.5535  0.1245  0.2041
  950MOL0     H28222   3.882   6.897   9.787 -1.1626 -2.4612  1.5109
  950MOL0     H28223   4.031   6.960   9.845  0.0757 -1.0690 -3.3215
  950MOL0     H28224   3.744   7.001   9.933 -0.0122  0.5943 -4.2257
  950MOL0     H28225   3.868   6.998  10.065 -0.0298 -0.0083 -0.1159
  950MOL0     H28226   3.801   7.227   9.979  2.9806  0.7396  4.0663
  950MOL0     H28227   3.885   7.174   9.823 -1.3354 -0.9906  0.1621
  950MOL0     H28228   4.036   7.131  10.067 -2.5891 -0.4573  0.3001
  950MOL0     H28229   4.079   7.218   9.914 -1.8634  2.2527 -1.3652
  950MOL0     H28230   3.974   6.273   9.730 -0.3981  1.6310 -0.0593
  950MOL0     H28231   3.895   6.066   9.618 -2.0269 -0.8365 -0.2124
  950MOL0     H28232   3.440   5.633   9.744  1.6166 -3.3149  1.2180
  950MOL0     H28233   3.426   5.427   9.629  1.7029 -0.7435  1.9102
  950MOL0     H28234   3.811   5.575   8.472 -0.0182  0.1516 -2.2433
  950MOL0     H28235   3.856   5.672   8.671 -0.3075 -2.2764 -1.3802
  950MOL0     H28236   3.816   6.203   8.789  0.8581  1.3955  0.2738
  950MOL0     H28237   3.850   6.368   8.962 -1.0313 -0.1889 -1.6376
  950MOL0     H28238   3.877   6.289   9.375  1.2657  0.8230  1.7552
  950MOL0     H28239   3.787   6.387   9.259  0.3999 -0.4140  1.2387
  950MOL0     H28240   4.026   6.477   9.400  0.7120  1.6376 -1.7059
  950MOL0     H28241   3.854   6.525   9.434 -0.9357  2.9446 -0.8684
  950MOL0     H28242   3.837   6.631   9.201 -0.0818  0.5770 -1.3307
  950MOL0     H28243   4.001   6.578   9.171 -0.9705  1.0393 -1.2287
  950MOL0     H28244   4.044   6.732   9.405 -0.9549  2.9193  2.1307
  950MOL0     H28245   3.990   6.827   9.268  1.3388 -1.5744 -1.6820
  950MOL0     H28246   3.686   6.901   9.518  0.3625 -1.7159  0.7845
  950MOL0     H28247   4.032   6.100   9.231  3.3658  2.2724 -1.8037
  950MOL0     H28248   4.046   5.832   9.044 -0.4797  0.4074  0.2598
  950MOL0     H28249   3.961   5.850   9.201 -2.6019  1.0689 -0.2427
  950MOL0     H28250   3.885   5.801   9.041 -0.2740  0.8230 -1.0088
  951MOL0     O28251  11.358   9.241   7.473 -0.2793 -0.6873 -0.1583
  951MOL0     C28252  11.252   9.185   7.481  0.8346 -0.7271 -0.2359
  951MOL0     O28253  11.135   9.250   7.492  0.3744 -0.0803 -0.8842
  951MOL0     C28254  11.128   9.374   7.431 -0.3573  0.1231 -0.7377
  951MOL0     C28255  11.094   9.491   7.513 -0.2385  0.3402  1.1195
  951MOL0     C28256  11.085   9.614   7.443  0.5649  0.4614 -0.4546
  951MOL0     C28257  11.086   9.625   7.306  0.0582 -0.3612 -0.4482
  951MOL0     O28258  11.036   9.744   7.265  0.8973 -0.1758  0.3116
  951MOL0     C28259  11.074   9.783   7.132 -0.5236 -0.4408  0.3383
  951MOL0     C28260  11.052   9.935   7.137  0.6551  0.0125  0.5367
  951MOL0     C28261  11.161  10.009   7.213  0.7742  0.2036  1.1754
  951MOL0     C28262  11.141  10.162   7.222 -1.3994 -0.1998  0.1984
  951MOL0     C28263  11.205  10.244   7.100 -0.4536  0.4260 -0.3847
  951MOL0     C28264  11.355  10.245   7.109  0.0397 -0.8697  0.8225
  951MOL0     C28265  11.416  10.350   7.022 -0.3794 -0.2319  0.2179
  951MOL0     C28266  11.400  10.495   7.070  0.3591 -0.7355  0.5122
  951MOL0     N28267  11.427  10.588   6.958  0.6057 -0.4416  0.4450
  951MOL0     C28268  11.550  10.602   6.889  0.3107 -0.2345 -0.5168
  951MOL0     C28269  11.517  10.669   6.776 -1.2812 -0.1117  0.1975
  951MOL0     C28270  11.617  10.719   6.671  0.8012 -1.1082 -1.2359
  951MOL0     C28271  11.610  10.633   6.537  0.3519  1.2209  0.3797
  951MOL0     C28272  11.727  10.657   6.445  0.2176 -0.0884  0.0911
  951MOL0     C28273  11.719  10.789   6.361  0.4982 -0.0771  0.8791
  951MOL0     O28274  11.835  10.795   6.271 -0.1758  0.6019 -0.4630
  951MOL0     C28275  11.812  10.748   6.144  0.4577 -0.3202 -0.5748
  951MOL0     C28276  11.889  10.648   6.102  1.3012 -0.5023 -0.3989
  951MOL0     C28277  11.877  10.589   5.973  0.5036 -0.2891  0.3938
  951MOL0     C28278  11.774  10.635   5.891  1.3446 -0.9118 -0.4312
  951MOL0     C28279  11.749  10.574   5.760  0.5729  0.2251 -0.1553
  951MOL0     O28280  11.854  10.482   5.729  0.4461  0.4141  0.0300
  951MOL0     C28281  11.842  10.424   5.606 -0.1011 -0.3294  0.0679
  951MOL0     C28282  11.768  10.310   5.593 -0.2843  0.2250  0.7420
  951MOL0     C28283  11.761  10.251   5.465  0.5256  0.2873 -0.2490
  951MOL0     C28284  11.822  10.296   5.353 -0.1793  1.2479  0.9155
  951MOL0     O28285  11.796  10.235   5.238 -0.2978 -0.5927  1.0199
  951MOL0     C28286  11.767  10.315   5.125 -0.0403 -0.1246  0.7747
  951MOL0     C28287  11.722  10.210   5.015 -0.3013  0.6749 -0.2978
  951MOL0     C28288  11.663  10.262   4.887  0.0381 -0.0691  0.2786
  951MOL0     C28289  11.654  10.145   4.783 -0.3370  0.0881 -0.1390
  951MOL0     C28290  11.576  10.186   4.659 -0.2442 -0.5671 -0.4169
  951MOL0     C28291  11.598  10.086   4.549 -0.6951  0.4550  0.2617
  951MOL0     C28292  11.506  10.117   4.427  0.0822 -0.2956 -1.4761
  951MOL0     C28293  11.580  10.186   4.319 -0.4856  0.3184  0.5137
  951MOL0    Cl28294  11.670  10.060   4.235  0.0697  0.1112 -0.2415
  951MOL0     C28295  11.906  10.413   5.365 -0.7877  0.0230  0.3336
  951MOL0     C28296  11.911  10.472   5.486  1.2542  0.3213  0.6069
  951MOL0     O28297  11.665  10.615   5.682 -0.0658 -0.2730 -0.1764
  951MOL0     C28298  11.696  10.746   5.936  0.3099  0.2949 -0.0156
  951MOL0     C28299  11.711  10.799   6.057 -0.7473  0.7030 -0.5109
  951MOL0     N28300  11.383  10.691   6.772 -0.0076 -0.5698 -0.2466
  951MOL0     N28301  11.325  10.645   6.884  0.2517  0.4940 -0.3619
  951MOL0     C28302  11.102   9.505   7.231  0.0700 -0.2812 -0.5298
  951MOL0     C28303  11.119   9.382   7.294 -0.0895 -0.9803  0.0641
  951MOL0     C28304  11.252   9.040   7.482  0.7685  0.0949 -0.2385
  951MOL0     C28305  11.148   8.982   7.413 -0.2619 -0.4549 -1.7827
  951MOL0     C28306  11.149   8.847   7.385  0.6860  0.6972 -0.5742
  951MOL0     C28307  11.251   8.759   7.431 -0.2608 -0.1501 -0.0919
  951MOL0     O28308  11.239   8.622   7.415  0.8432  0.1207 -0.1883
  951MOL0     C28309  11.326   8.520   7.464  0.3148  0.8052 -0.3969
  951MOL0     C28310  11.250   8.389   7.477  0.0585  0.7611 -0.5643
  951MOL0     C28311  11.335   8.270   7.503  0.1612  0.2218 -0.2370
  951MOL0     C28312  11.246   8.141   7.502  0.3556  0.2580  0.2358
  951MOL0     C28313  11.183   8.118   7.633 -0.0856 -0.2519 -0.4512
  951MOL0     C28314  11.104   8.083   7.725  0.3405 -0.4460 -0.2073
  951MOL0     C28315  11.355   8.816   7.509  0.1170  1.4501 -0.1391
  951MOL0     C28316  11.347   8.950   7.548 -0.3968 -1.0335  0.2895
  951MOL0     C28317  11.420   8.993   7.677  0.5736  0.1611  0.0369
  951MOL0     H28318  11.065   9.493   7.617 -2.0787 -0.1754  0.6597
  951MOL0     H28319  11.061   9.712   7.485 -1.1095 -0.4104  0.7394
  951MOL0     H28320  11.178   9.762   7.107 -0.5376 -1.2843  0.9690
  951MOL0     H28321  11.006   9.745   7.055 -1.4732  0.4139  0.7259
  951MOL0     H28322  10.961   9.940   7.197  0.0336 -2.8834  0.0155
  951MOL0     H28323  11.034   9.971   7.035  1.2567 -0.9201  0.0858
  951MOL0     H28324  11.257   9.983   7.168 -0.7655  0.0301 -2.2910
  951MOL0     H28325  11.162   9.969   7.315  0.0034  0.7678  1.4142
  951MOL0     H28326  11.037  10.196   7.222 -1.0146  1.0577 -0.3039
  951MOL0     H28327  11.176  10.209   7.314  0.5067 -0.1092 -0.5308
  951MOL0     H28328  11.164  10.211   7.004 -1.6899  4.1607 -1.3371
  951MOL0     H28329  11.168  10.346   7.113 -2.0150 -0.3884  2.3483
  951MOL0     H28330  11.381  10.261   7.214 -0.5481  3.9137  0.4450
  951MOL0     H28331  11.384  10.147   7.069 -2.0876 -1.2948  0.2214
  951MOL0     H28332  11.379  10.342   6.919 -0.5292  0.9611  0.1603
  951MOL0     H28333  11.525  10.341   7.020 -0.3137  0.5831 -0.6935
  951MOL0     H28334  11.308  10.520   7.123 -1.1606 -1.6269 -1.5988
  951MOL0     H28335  11.477  10.514   7.146  0.7953 -1.5227  0.2839
  951MOL0     H28336  11.653  10.574   6.907  0.0109  0.3196  2.8140
  951MOL0     H28337  11.593  10.823   6.646 -0.2194 -0.7374  1.0662
  951MOL0     H28338  11.715  10.708   6.716  0.2368 -0.6245  0.1730
  951MOL0     H28339  11.603  10.529   6.571 -0.0532  0.1887 -2.5133
  951MOL0     H28340  11.516  10.653   6.483  0.3212  2.4507  0.8655
  951MOL0     H28341  11.733  10.575   6.373  3.1016 -1.0314  1.2684
  951MOL0     H28342  11.816  10.646   6.508 -0.9717  0.2994  1.9369
  951MOL0     H28343  11.715  10.877   6.426 -3.2203  1.0010 -0.5757
  951MOL0     H28344  11.630  10.786   6.297  0.2014 -2.2260  1.3436
  951MOL0     H28345  11.977  10.617   6.158 -0.1930 -0.5462  2.1012
  951MOL0     H28346  11.957  10.518   5.957  0.5643 -0.6619  2.1598
  951MOL0     H28347  11.722  10.265   5.681  0.3451 -1.3202  0.3151
  951MOL0     H28348  11.689  10.171   5.448 -2.3784  2.6438  0.0763
  951MOL0     H28349  11.684  10.385   5.132  0.7570  1.0257 -0.6444
  951MOL0     H28350  11.857  10.368   5.094 -0.4618 -0.8938 -2.0556
  951MOL0     H28351  11.796  10.135   4.985 -0.3741  0.3666  0.2829
  951MOL0     H28352  11.652  10.153   5.077  2.9238 -2.5434  0.7253
  951MOL0     H28353  11.563  10.300   4.914 -0.2495 -0.9099  0.4243
  951MOL0     H28354  11.725  10.344   4.850  4.4374 -3.8847 -1.8338
  951MOL0     H28355  11.601  10.052   4.807  2.3180 -1.1059  1.5374
  951MOL0     H28356  11.757  10.120   4.753 -1.1139 -0.9872 -2.0754
  951MOL0     H28357  11.610  10.283   4.622 -0.5022 -0.7358 -1.0929
  951MOL0     H28358  11.471  10.186   4.689  0.3372 -0.9903  1.8145
  951MOL0     H28359  11.704  10.077   4.527 -0.2670 -1.6822  2.7213
  951MOL0     H28360  11.569   9.985   4.582  0.0194  0.1116 -0.1466
  951MOL0     H28361  11.423  10.180   4.461 -0.3555 -2.2239  1.4134
  951MOL0     H28362  11.457  10.027   4.389 -3.7513  1.6624 -1.6424
  951MOL0     H28363  11.511  10.236   4.251 -1.1372 -0.3993  0.6255
  951MOL0     H28364  11.650  10.256   4.364  2.6719 -0.1714 -3.1414
  951MOL0     H28365  11.964  10.446   5.279 -1.9520  1.7162  0.1365
  951MOL0     H28366  11.973  10.560   5.501  0.0971  1.4658 -1.0389
  951MOL0     H28367  11.628  10.773   5.855 -0.0989 -1.6183 -0.3744
  951MOL0     H28368  11.664  10.894   6.078 -0.5149  0.2428  2.6584
  951MOL0     H28369  11.075   9.508   7.127 -1.8480 -0.9559 -0.0819
  951MOL0     H28370  11.127   9.295   7.230 -1.7217 -2.1902  1.4085
  951MOL0     H28371  11.064   9.048   7.394  0.4795  0.1711 -3.1079
  951MOL0     H28372  11.064   8.800   7.336 -1.9875  2.1196  2.2944
  951MOL0     H28373  11.345   8.542   7.569  0.5259  2.6660 -0.7965
  951MOL0     H28374  11.426   8.506   7.421  1.3468 -0.1932  2.1380
  951MOL0     H28375  11.205   8.369   7.380  2.0958  0.2383 -1.4559
  951MOL0     H28376  11.175   8.395   7.557  1.8253  0.3388  1.2155
  951MOL0     H28377  11.387   8.285   7.598 -1.3118 -0.1193  0.6385
  951MOL0     H28378  11.399   8.266   7.413  0.3416 -1.1895 -0.0642
  951MOL0     H28379  11.163   8.159   7.433  1.2964  3.9057 -0.1504
  951MOL0     H28380  11.302   8.049   7.483  2.2838  1.2424  0.8973
  951MOL0     H28381  11.035   8.046   7.798 -0.1046  1.1201  0.2120
  951MOL0     H28382  11.429   8.751   7.553  1.2739  1.0177 -2.5363
  951MOL0     H28383  11.528   9.008   7.662  1.1631 -2.2499  1.3910
  951MOL0     H28384  11.376   9.084   7.717  1.0247  0.1406  0.5863
  951MOL0     H28385  11.404   8.913   7.750 -0.4466 -1.0517 -1.4487
  952MOL0     O28386   2.046   0.784  11.193 -0.3448  0.6727 -0.3209
  952MOL0     C28387   1.962   0.759  11.108  0.9624  0.6230 -0.0042
  952MOL0     O28388   1.949   0.643  11.033 -0.3403  0.0895  0.2468
  952MOL0     C28389   2.054   0.556  11.050 -0.8795 -0.0634  0.0542
  952MOL0     C28390   2.016   0.425  11.085 -1.2166 -0.0630 -0.1566
  952MOL0     C28391   2.107   0.325  11.104  0.2078  0.5382 -0.0015
  952MOL0     C28392   2.232   0.348  11.053 -0.0052  0.2753  0.7935
  952MOL0     O28393   2.329   0.252  11.038 -0.1564  0.5596  0.3817
  952MOL0     C28394   2.303   0.116  10.999  0.1773 -0.2090  0.1499
  952MOL0     C28395   2.320   0.043  11.129 -0.8555  0.2502 -0.0049
  952MOL0     C28396   2.374  -0.102  11.105  0.5140 -0.3345  0.5411
  952MOL0     C28397   2.449  -0.160  11.228 -0.8571  0.7564 -0.9773
  952MOL0     C28398   2.536  -0.289  11.199 -0.0367 -0.3998  0.0558
  952MOL0     C28399   2.672  -0.274  11.105  0.2621 -1.2265 -0.1113
  952MOL0     C28400   2.747  -0.396  11.094  0.6110 -0.0462 -0.6094
  952MOL0     C28401   2.676  -0.525  11.044 -0.0945  1.1914  0.2765
  952MOL0     N28402   2.763  -0.642  11.024  0.0393 -0.1117 -0.8514
  952MOL0     C28403   2.871  -0.636  10.944 -0.4806 -0.3068  0.9214
  952MOL0     C28404   2.934  -0.749  10.966 -0.1074  0.2845 -0.5611
  952MOL0     C28405   3.078  -0.782  10.916  0.9228 -0.3093  0.1272
  952MOL0     C28406   3.104  -0.931  10.927 -0.1964  0.4647  0.5131
  952MOL0     C28407   3.256  -0.965  10.941 -0.0196  0.1478 -0.1964
  952MOL0     C28408   3.346  -0.954  10.813  0.1776  0.2411 -1.1017
  952MOL0     O28409   3.279  -1.019  10.701 -0.7687  0.3227  0.2208
  952MOL0     C28410   3.283  -1.150  10.693 -0.7378  0.3865  0.0193
  952MOL0     C28411   3.163  -1.216  10.694  0.2234  0.2108 -0.1365
  952MOL0     C28412   3.154  -1.350  10.673  0.2653 -0.2832 -0.2861
  952MOL0     C28413   3.272  -1.430  10.671  0.2523 -0.6679 -1.2751
  952MOL0     C28414   3.264  -1.580  10.666  0.3307  0.6211 -0.7979
  952MOL0     O28415   3.369  -1.658  10.717  0.0162 -0.2527 -0.5930
  952MOL0     C28416   3.366  -1.794  10.702  1.7369  0.0417 -0.4089
  952MOL0     C28417   3.326  -1.874  10.809  0.1669  0.1137  0.2788
  952MOL0     C28418   3.306  -2.005  10.793 -1.6365  0.5125  0.2642
  952MOL0     C28419   3.330  -2.062  10.664  0.7447  0.4369 -0.5658
  952MOL0     O28420   3.299  -2.192  10.646 -0.4514 -0.0607 -0.2774
  952MOL0     C28421   3.412  -2.279  10.606 -0.6621 -0.4240 -1.0029
  952MOL0     C28422   3.380  -2.426  10.622  0.9830 -0.1079 -0.0981
  952MOL0     C28423   3.476  -2.524  10.545 -0.3360  0.1354  1.4373
  952MOL0     C28424   3.626  -2.547  10.598 -0.0694  0.3391 -0.6375
  952MOL0     C28425   3.707  -2.652  10.519 -0.0613  0.0782 -0.1053
  952MOL0     C28426   3.667  -2.798  10.522 -0.5990 -1.1631  0.3530
  952MOL0     C28427   3.767  -2.878  10.435  0.2832 -0.5730 -0.2414
  952MOL0     C28428   3.684  -2.977  10.347  0.7631  0.7700  0.5240
  952MOL0    Cl28429   3.800  -3.029  10.217  0.4287  0.1006  0.3282
  952MOL0     C28430   3.367  -1.979  10.552 -0.9706  0.3597  0.0368
  952MOL0     C28431   3.381  -1.841  10.573  0.0858  0.2189 -0.6546
  952MOL0     O28432   3.159  -1.626  10.623 -0.0326  0.0937  0.8029
  952MOL0     C28433   3.394  -1.361  10.686  0.5409 -0.5580 -0.7167
  952MOL0     C28434   3.397  -1.225  10.678  0.0082  0.0693 -0.0293
  952MOL0     N28435   2.852  -0.821  11.051  0.3479  0.3630  0.6564
  952MOL0     N28436   2.744  -0.758  11.086  0.4174  0.4928  0.4349
  952MOL0     C28437   2.267   0.474  11.003  0.3775 -0.4969 -0.3591
  952MOL0     C28438   2.180   0.583  11.010  0.0351  0.4976 -0.2403
  952MOL0     C28439   1.836   0.831  11.088 -0.0407 -0.1199  0.2703
  952MOL0     C28440   1.719   0.761  11.039  0.8879  0.2656 -0.0696
  952MOL0     C28441   1.593   0.821  11.027  0.4246 -0.3679 -0.4626
  952MOL0     C28442   1.579   0.957  11.065 -0.1743 -0.2875 -0.2767
  952MOL0     O28443   1.461   1.014  11.076 -0.2345 -0.7432 -0.6563
  952MOL0     C28444   1.375   0.991  11.196 -0.3648 -0.4493  0.3685
  952MOL0     C28445   1.245   1.049  11.169 -0.6556  0.3646  0.4209
  952MOL0     C28446   1.161   1.047  11.303  0.2264  0.4986  0.6174
  952MOL0     C28447   1.033   1.130  11.298  0.2205 -0.0973  0.1998
  952MOL0     C28448   0.938   1.079  11.196  0.3474 -1.2532  0.8539
  952MOL0     C28449   0.855   1.044  11.113 -0.4447 -0.0834  0.0245
  952MOL0     C28450   1.695   1.020  11.108  0.3111 -0.1763  0.4115
  952MOL0     C28451   1.820   0.964  11.112 -1.0229 -1.4617  0.4741
  952MOL0     C28452   1.936   1.058  11.115 -0.5624 -0.0274 -0.0497
  952MOL0     H28453   1.919   0.400  11.127  0.7965 -1.4657  4.2877
  952MOL0     H28454   2.077   0.232  11.150  1.0070 -0.8556 -2.1132
  952MOL0     H28455   2.203   0.100  10.959 -0.1795 -0.4749  1.1053
  952MOL0     H28456   2.376   0.092  10.921  0.5681 -2.1716  1.0475
  952MOL0     H28457   2.225   0.032  11.183 -0.6832  0.1435  0.2758
  952MOL0     H28458   2.402   0.084  11.188  1.1795 -4.6632  1.0345
  952MOL0     H28459   2.446  -0.107  11.024 -2.1358  1.3786 -2.1407
  952MOL0     H28460   2.289  -0.157  11.063 -0.8893 -0.2697  3.0523
  952MOL0     H28461   2.516  -0.090  11.278 -2.1058 -0.2560  2.3687
  952MOL0     H28462   2.370  -0.174  11.302  1.4139  0.5331  1.5646
  952MOL0     H28463   2.562  -0.327  11.298  0.2520 -0.1422  0.0814
  952MOL0     H28464   2.478  -0.365  11.147 -0.0598 -1.1922  1.2028
  952MOL0     H28465   2.643  -0.226  11.011  1.8672  2.1142  0.9562
  952MOL0     H28466   2.738  -0.195  11.141 -1.3383  1.2225 -2.2257
  952MOL0     H28467   2.789  -0.427  11.190  0.2093 -1.0107 -0.7244
  952MOL0     H28468   2.834  -0.374  11.032 -1.0639 -0.2596 -3.1737
  952MOL0     H28469   2.595  -0.560  11.109 -2.1071  0.8688 -2.2146
  952MOL0     H28470   2.636  -0.500  10.945  2.0561  0.6686 -0.7992
  952MOL0     H28471   2.910  -0.550  10.891 -2.1436  0.0387  0.1980
  952MOL0     H28472   3.107  -0.754  10.815  2.1158 -1.0181  0.2501
  952MOL0     H28473   3.144  -0.729  10.985 -0.7361 -0.9219  2.3316
  952MOL0     H28474   3.050  -0.967  11.014 -0.4505  2.2589  1.1471
  952MOL0     H28475   3.063  -0.967  10.832  1.5453 -0.2650  0.0021
  952MOL0     H28476   3.267  -1.068  10.974  0.8989 -0.2090 -1.5292
  952MOL0     H28477   3.314  -0.905  11.012  0.6569  2.6825 -2.7076
  952MOL0     H28478   3.440  -1.008  10.826 -0.6581 -1.7070 -2.5086
  952MOL0     H28479   3.363  -0.850  10.787 -0.4961  1.5667  3.0216
  952MOL0     H28480   3.082  -1.147  10.714  2.1911  2.5216  0.1939
  952MOL0     H28481   3.059  -1.401  10.657 -0.7897  0.4564  2.9564
  952MOL0     H28482   3.298  -1.831  10.904 -1.9010  0.7180 -0.5425
  952MOL0     H28483   3.276  -2.073  10.872 -3.1461 -0.4995 -1.1106
  952MOL0     H28484   3.442  -2.257  10.503  2.1654  2.7985  0.3217
  952MOL0     H28485   3.494  -2.249  10.672 -0.7962  0.7312 -1.3490
  952MOL0     H28486   3.365  -2.460  10.724  3.2604 -1.0754 -0.0385
  952MOL0     H28487   3.284  -2.431  10.570  0.6220  0.6038  0.4748
  952MOL0     H28488   3.428  -2.621  10.537  0.3092 -0.0868 -0.4759
  952MOL0     H28489   3.484  -2.499  10.438 -0.4579 -3.1872  0.5367
  952MOL0     H28490   3.620  -2.568  10.705 -0.6843  2.5229 -0.1866
  952MOL0     H28491   3.677  -2.450  10.597 -1.9891  1.4183 -0.9676
  952MOL0     H28492   3.812  -2.659  10.549  0.1439  2.8807  0.0718
  952MOL0     H28493   3.709  -2.620  10.415  0.9474  1.0666  0.1948
  952MOL0     H28494   3.666  -2.836  10.625  3.0924 -0.4660  0.7860
  952MOL0     H28495   3.566  -2.812  10.483 -0.8120  1.9351 -0.4633
  952MOL0     H28496   3.841  -2.930  10.497 -1.2259  1.2465  3.3847
  952MOL0     H28497   3.826  -2.806  10.377  0.4874  1.1388  1.9453
  952MOL0     H28498   3.648  -3.064  10.403  4.9545 -1.4872  0.1118
  952MOL0     H28499   3.601  -2.924  10.299  0.1151 -2.0268 -1.6745
  952MOL0     H28500   3.370  -2.031  10.457 -2.1835  1.3103 -0.5350
  952MOL0     H28501   3.409  -1.770  10.496  1.9843  0.0058 -0.2179
  952MOL0     H28502   3.483  -1.423  10.682  2.1448  1.5727  0.1551
  952MOL0     H28503   3.495  -1.184  10.657 -0.3671  0.2220 -1.5779
  952MOL0     H28504   2.359   0.496  10.949 -0.9108  3.3544 -1.2885
  952MOL0     H28505   2.211   0.674  10.960 -2.0846 -0.1634 -3.0062
  952MOL0     H28506   1.717   0.656  11.014 -0.2170  0.5368 -1.2041
  952MOL0     H28507   1.505   0.762  11.001 -0.0874  1.2825 -2.8123
  952MOL0     H28508   1.421   1.030  11.287  1.2676 -2.7179  0.6128
  952MOL0     H28509   1.360   0.887  11.224 -1.3669 -0.1969  0.8230
  952MOL0     H28510   1.199   0.993  11.087  2.1015 -2.4338  0.5757
  952MOL0     H28511   1.253   1.154  11.141  2.3744  0.2027  0.3410
  952MOL0     H28512   1.225   1.085  11.383 -0.5912  2.1999  0.5191
  952MOL0     H28513   1.131   0.944  11.323 -1.9413  0.3681 -2.6140
  952MOL0     H28514   0.999   1.122  11.402 -0.4028 -1.8760 -0.1055
  952MOL0     H28515   1.058   1.235  11.286  3.4599 -0.7718  0.1112
  952MOL0     H28516   0.797   1.018  11.027  0.5027 -0.7878 -0.4251
  952MOL0     H28517   1.696   1.125  11.137  2.4936  0.2059 -0.8312
  952MOL0     H28518   2.006   1.035  11.034 -0.5256  0.2683 -0.1058
  952MOL0     H28519   1.911   1.163  11.096  1.0164  0.3927  0.0332
  952MOL0     H28520   1.988   1.059  11.211 -1.1131 -0.6268  0.2577
  953MOL0     O28521   7.159   3.076   2.645 -0.0926 -0.1576 -0.1594
  953MOL0     C28522   7.186   3.029   2.534 -0.4232 -1.0124  0.5588
  953MOL0     O28523   7.182   3.097   2.419  0.3394  0.1659 -0.0192
  953MOL0     C28524   7.154   3.227   2.440  0.5897  0.0365  0.2301
  953MOL0     C28525   7.261   3.315   2.431  0.6634 -0.0633  0.2331
  953MOL0     C28526   7.233   3.451   2.443 -0.3009 -0.4842  1.1365
  953MOL0     C28527   7.102   3.493   2.458 -0.1556 -0.4731  0.0729
  953MOL0     O28528   7.083   3.630   2.471 -0.2734 -0.1373 -0.3376
  953MOL0     C28529   6.966   3.689   2.429 -0.6228 -0.9999  0.6130
  953MOL0     C28530   6.974   3.829   2.367  0.2331  0.4578 -0.3392
  953MOL0     C28531   7.061   3.815   2.233  0.4387  0.2714  0.9457
  953MOL0     C28532   7.013   3.776   2.095  0.0657 -0.3633  0.4950
  953MOL0     C28533   6.958   3.627   2.076  0.3810  0.1789 -0.4582
  953MOL0     C28534   7.073   3.527   2.076 -0.3539  0.1849 -0.0963
  953MOL0     C28535   7.012   3.388   2.060 -0.9702 -0.0870  0.7664
  953MOL0     C28536   7.131   3.285   2.082  0.0424 -0.4309 -0.1373
  953MOL0     N28537   7.070   3.152   2.060 -0.2622 -0.2628 -0.1563
  953MOL0     C28538   7.132   3.040   2.104  0.0460 -0.2341  1.2945
  953MOL0     C28539   7.079   2.943   2.027  0.6225 -1.5466 -0.9226
  953MOL0     C28540   7.107   2.795   2.041 -0.2370  0.1263  0.3943
  953MOL0     C28541   6.979   2.709   2.008  0.2597 -0.0493  0.2190
  953MOL0     C28542   6.948   2.687   1.868 -0.5881 -0.4648  0.8641
  953MOL0     C28543   6.834   2.604   1.838  0.5248 -0.4741 -0.4770
  953MOL0     O28544   6.733   2.643   1.933  0.3589 -0.4586  0.7699
  953MOL0     C28545   6.602   2.601   1.901  1.4499  0.5962 -0.5439
  953MOL0     C28546   6.562   2.508   1.803  0.8249 -0.5136 -0.0886
  953MOL0     C28547   6.425   2.466   1.799  0.4385 -0.8170  0.3976
  953MOL0     C28548   6.325   2.536   1.864  0.1870 -0.0099  0.0206
  953MOL0     C28549   6.180   2.504   1.836  0.2182 -0.2047 -1.0494
  953MOL0     O28550   6.090   2.563   1.914 -0.0012  0.0250 -0.1665
  953MOL0     C28551   5.960   2.503   1.918  0.6475  0.1617  0.7991
  953MOL0     C28552   5.943   2.379   1.976 -1.3652 -0.2835  0.0168
  953MOL0     C28553   5.817   2.331   2.000  0.2157 -0.3498 -0.2073
  953MOL0     C28554   5.702   2.389   1.933 -0.0950 -0.2858 -0.3762
  953MOL0     O28555   5.568   2.358   1.948  0.0557 -0.2995  0.5282
  953MOL0     C28556   5.532   2.227   1.997  0.0866 -0.0484 -0.4080
  953MOL0     C28557   5.558   2.121   1.900 -0.0669 -0.2592  0.0552
  953MOL0     C28558   5.511   1.990   1.954 -0.4461 -0.7557 -0.6896
  953MOL0     C28559   5.448   1.895   1.847 -0.0871 -0.5456  0.1820
  953MOL0     C28560   5.442   1.752   1.899 -0.7445 -0.1477  0.2786
  953MOL0     C28561   5.408   1.657   1.778 -1.4236  0.1951  0.3066
  953MOL0     C28562   5.388   1.517   1.836  0.6624  0.3726 -0.5798
  953MOL0     C28563   5.347   1.419   1.733 -0.6618  0.1207  0.2112
  953MOL0    Cl28564   5.367   1.241   1.797 -0.0833 -0.1463  0.0068
  953MOL0     C28565   5.721   2.507   1.863 -0.5700  0.1361 -0.1785
  953MOL0     C28566   5.851   2.562   1.852 -0.3320  0.6852  0.0489
  953MOL0     O28567   6.168   2.417   1.757  0.1352  0.2124 -0.2268
  953MOL0     C28568   6.368   2.641   1.954  1.2380  0.5051  0.3646
  953MOL0     C28569   6.500   2.657   1.979  0.4933 -0.4706 -0.5577
  953MOL0     N28570   6.980   3.004   1.955 -0.6812  0.1515  0.4679
  953MOL0     N28571   6.969   3.134   1.966  0.3459  0.2582  0.3674
  953MOL0     C28572   6.998   3.395   2.479 -0.1669 -0.6049  0.3901
  953MOL0     C28573   7.022   3.266   2.470  0.7030 -0.3753 -0.5709
  953MOL0     C28574   7.200   2.881   2.528  0.1145  1.1951 -0.7280
  953MOL0     C28575   7.111   2.797   2.591 -0.8427 -0.7192  0.0731
  953MOL0     C28576   7.144   2.662   2.596 -0.2056 -0.2738  0.3926
  953MOL0     C28577   7.251   2.599   2.532  0.3384 -1.5594 -0.4074
  953MOL0     O28578   7.258   2.472   2.534 -0.1943 -0.0711  0.1170
  953MOL0     C28579   7.342   2.406   2.434 -0.5032 -0.1031  0.1947
  953MOL0     C28580   7.265   2.398   2.297 -0.5970  0.4071  0.1569
  953MOL0     C28581   7.349   2.371   2.183  0.0596 -0.0549 -1.4565
  953MOL0     C28582   7.294   2.296   2.065  0.1298 -0.2574  1.0103
  953MOL0     C28583   7.151   2.333   2.038  0.1138  0.8287 -0.3627
  953MOL0     C28584   7.028   2.348   2.026  0.0197  0.5215  0.2497
  953MOL0     C28585   7.323   2.689   2.454  0.5325  0.5671  0.0531
  953MOL0     C28586   7.311   2.827   2.456 -0.2908 -0.1091 -0.5022
  953MOL0     C28587   7.414   2.891   2.377  0.9928 -0.2228 -0.1203
  953MOL0     H28588   7.363   3.283   2.413  0.5957  0.2930 -0.8504
  953MOL0     H28589   7.307   3.527   2.424 -0.6070 -0.9558 -2.6887
  953MOL0     H28590   6.920   3.617   2.360  0.7103 -0.1034 -1.2834
  953MOL0     H28591   6.905   3.705   2.519  1.2448  2.4012  1.4149
  953MOL0     H28592   7.005   3.908   2.435 -3.7988  0.6048  1.6319
  953MOL0     H28593   6.873   3.864   2.342 -0.2510 -1.0841 -0.6736
  953MOL0     H28594   7.146   3.746   2.244  0.5673 -0.5016 -3.3029
  953MOL0     H28595   7.103   3.916   2.231  1.9515 -0.2981  1.9027
  953MOL0     H28596   6.943   3.851   2.058  2.5764  2.1186  0.3806
  953MOL0     H28597   7.095   3.803   2.027 -1.7603  3.5764 -0.3941
  953MOL0     H28598   6.882   3.609   2.153  1.4445 -0.2514  0.5075
  953MOL0     H28599   6.917   3.621   1.974 -0.5101  0.1363 -0.1021
  953MOL0     H28600   7.143   3.554   1.996  3.1288 -1.5047  2.1568
  953MOL0     H28601   7.130   3.526   2.169  0.7480  2.4572 -0.6603
  953MOL0     H28602   6.995   3.386   1.952  0.3058 -3.3371  0.5207
  953MOL0     H28603   6.923   3.361   2.118 -1.8641  0.3380 -0.3697
  953MOL0     H28604   7.208   3.318   2.012 -0.5915 -0.7817 -1.0040
  953MOL0     H28605   7.167   3.281   2.186  1.7311  2.8206 -0.4819
  953MOL0     H28606   7.208   3.033   2.181  0.7702  2.2809  0.9019
  953MOL0     H28607   7.195   2.765   1.984 -0.7581 -0.0918 -0.3122
  953MOL0     H28608   7.135   2.782   2.145  0.3495  0.9474  0.3504
  953MOL0     H28609   7.006   2.610   2.048  2.0665  0.5194  0.4860
  953MOL0     H28610   6.893   2.754   2.060  1.7803  4.0886 -0.4908
  953MOL0     H28611   7.035   2.643   1.818 -1.1837  0.3398 -0.9699
  953MOL0     H28612   6.937   2.788   1.827  0.2116  0.5050  2.9078
  953MOL0     H28613   6.860   2.500   1.860 -0.0451 -0.8144 -1.3723
  953MOL0     H28614   6.807   2.614   1.733  1.5731  3.1538 -0.5343
  953MOL0     H28615   6.629   2.462   1.731  0.0244 -1.9324  0.0340
  953MOL0     H28616   6.412   2.384   1.730 -1.1589  1.2901 -1.9812
  953MOL0     H28617   6.031   2.338   2.024  0.1416  2.5919 -0.0652
  953MOL0     H28618   5.802   2.252   2.073 -1.1318 -0.6855 -0.8014
  953MOL0     H28619   5.589   2.196   2.085 -1.3994  0.9339  0.9444
  953MOL0     H28620   5.428   2.228   2.031  0.6226 -0.1991  1.3553
  953MOL0     H28621   5.484   2.152   1.826 -0.9041 -2.2830  0.0063
  953MOL0     H28622   5.658   2.125   1.856 -1.7608  3.4229 -4.3336
  953MOL0     H28623   5.604   1.939   1.982 -1.3249 -1.8301  0.3955
  953MOL0     H28624   5.454   2.002   2.046 -1.5644  0.2491 -1.4907
  953MOL0     H28625   5.491   1.900   1.746 -2.7876 -1.7142 -1.1212
  953MOL0     H28626   5.348   1.933   1.824  1.9373  5.5037 -0.3406
  953MOL0     H28627   5.366   1.744   1.977 -1.4558  0.0353 -0.3860
  953MOL0     H28628   5.539   1.714   1.934 -0.0428  2.3885  1.2696
  953MOL0     H28629   5.313   1.687   1.732 -1.1266 -0.3162 -0.6769
  953MOL0     H28630   5.487   1.667   1.703 -1.1423  0.6169  0.6567
  953MOL0     H28631   5.320   1.513   1.921  1.7100 -3.3353  0.2546
  953MOL0     H28632   5.484   1.484   1.876 -1.1565 -1.7550  2.3857
  953MOL0     H28633   5.252   1.451   1.690  0.4237  0.0027 -2.5048
  953MOL0     H28634   5.412   1.423   1.645 -1.0354  3.0938 -0.0066
  953MOL0     H28635   5.638   2.564   1.822 -1.0162 -2.0279 -2.5428
  953MOL0     H28636   5.859   2.657   1.800 -0.6494  0.8712  0.3354
  953MOL0     H28637   6.284   2.694   1.997 -2.1198 -3.6557 -0.3497
  953MOL0     H28638   6.525   2.727   2.059  0.2594  0.9192 -1.6642
  953MOL0     H28639   6.904   3.434   2.516 -1.0209  0.0504 -2.2673
  953MOL0     H28640   6.946   3.196   2.501  0.1936  0.6432  0.5696
  953MOL0     H28641   7.028   2.839   2.647 -1.0075  1.8606 -1.9301
  953MOL0     H28642   7.076   2.593   2.646 -1.6290  0.5762 -0.3000
  953MOL0     H28643   7.376   2.306   2.462  1.7496  0.9479  1.5132
  953MOL0     H28644   7.444   2.445   2.425  0.9123 -2.8770  2.3568
  953MOL0     H28645   7.214   2.493   2.275  2.6694  1.9027 -1.8412
  953MOL0     H28646   7.183   2.326   2.302 -0.1812 -0.1477 -0.7117
  953MOL0     H28647   7.434   2.310   2.214 -1.5398 -2.8489 -2.1252
  953MOL0     H28648   7.378   2.475   2.167 -1.6113  0.8944  0.9798
  953MOL0     H28649   7.362   2.302   1.979 -1.8390  0.5349 -0.5801
  953MOL0     H28650   7.290   2.189   2.088 -1.2831 -0.5456 -0.3573
  953MOL0     H28651   6.924   2.362   2.007 -0.3498 -1.8251  0.2738
  953MOL0     H28652   7.408   2.645   2.402 -0.2556 -0.8882 -0.0581
  953MOL0     H28653   7.496   2.903   2.447  1.4082  1.3517 -0.8274
  953MOL0     H28654   7.455   2.831   2.295  0.3521 -0.1989 -0.4712
  953MOL0     H28655   7.379   2.987   2.337 -1.9276 -0.4093  1.6765
  954MOL0     O28656  11.105   1.021   0.758 -0.2847  0.5175 -0.7930
  954MOL0     C28657  11.035   0.994   0.856  0.4797 -0.1012  0.6357
  954MOL0     O28658  10.934   1.072   0.902 -0.3067 -0.0954 -0.6803
  954MOL0     C28659  10.926   1.198   0.844 -0.0392 -0.0664  0.2778
  954MOL0     C28660  11.025   1.284   0.887  0.5650  0.2027  0.0460
  954MOL0     C28661  11.038   1.422   0.849  0.1148  0.8930  0.6226
  954MOL0     C28662  10.942   1.468   0.754  0.9624 -0.7361 -0.5841
  954MOL0     O28663  10.963   1.603   0.719  0.3578 -0.0821 -0.1104
  954MOL0     C28664  10.844   1.670   0.680 -0.0890  0.0684  0.1689
  954MOL0     C28665  10.847   1.809   0.716 -0.3120  0.5166 -0.0649
  954MOL0     C28666  10.704   1.861   0.681 -0.0476  0.4797 -1.3280
  954MOL0     C28667  10.628   1.919   0.801  0.4010 -0.2956 -0.5472
  954MOL0     C28668  10.566   1.810   0.890 -0.0664  0.0727 -1.1980
  954MOL0     C28669  10.422   1.755   0.858  0.2128  0.9583 -0.8345
  954MOL0     C28670  10.340   1.684   0.969 -0.5112  0.0070  0.6296
  954MOL0     C28671  10.182   1.704   0.969  0.0023 -0.1990 -0.0266
  954MOL0     N28672  10.134   1.642   0.852  0.4232 -0.5416  0.1062
  954MOL0     C28673  10.131   1.709   0.730 -0.7495  0.0176  0.4454
  954MOL0     C28674  10.043   1.639   0.649 -0.1467  0.2048  0.6587
  954MOL0     C28675   9.986   1.671   0.515 -0.5118 -0.0239 -0.7135
  954MOL0     C28676   9.847   1.744   0.511 -0.6040 -0.4441 -0.5138
  954MOL0     C28677   9.743   1.704   0.618  0.4947 -0.3267 -0.5289
  954MOL0     C28678   9.737   1.778   0.756  0.1126  0.5473  0.5050
  954MOL0     O28679   9.607   1.759   0.811  0.2504  0.3185 -0.0077
  954MOL0     C28680   9.589   1.649   0.898 -0.4215 -0.4938  0.0307
  954MOL0     C28681   9.683   1.555   0.930 -0.4908  0.8377 -0.0428
  954MOL0     C28682   9.652   1.445   1.016 -0.0310 -0.5425 -0.2681
  954MOL0     C28683   9.519   1.422   1.055 -0.0701 -0.1954  0.6747
  954MOL0     C28684   9.479   1.308   1.138 -0.8823  0.1971 -0.2658
  954MOL0     O28685   9.570   1.216   1.170 -0.0705 -0.5901 -0.1684
  954MOL0     C28686   9.535   1.097   1.220 -0.4083  0.2700 -0.7429
  954MOL0     C28687   9.444   1.015   1.160  0.8069 -0.2054  1.1704
  954MOL0     C28688   9.398   0.904   1.226  0.2698 -0.6739  0.0292
  954MOL0     C28689   9.460   0.862   1.347 -0.2616 -0.2005 -0.4475
  954MOL0     O28690   9.431   0.738   1.397 -0.2869  0.8811 -0.8091
  954MOL0     C28691   9.295   0.694   1.373  0.3375  0.6422  0.5010
  954MOL0     C28692   9.242   0.581   1.463 -0.3313 -0.4912 -1.1284
  954MOL0     C28693   9.332   0.460   1.490  0.0592 -0.1403 -0.1863
  954MOL0     C28694   9.401   0.410   1.366  0.4496 -0.0983 -0.2085
  954MOL0     C28695   9.306   0.360   1.255  0.6854  1.0078  0.0054
  954MOL0     C28696   9.385   0.276   1.154  0.1527 -1.1703  0.1408
  954MOL0     C28697   9.312   0.181   1.068 -0.5509  0.1283  0.3492
  954MOL0     C28698   9.240   0.083   1.158 -0.0224 -0.7179  0.2389
  954MOL0    Cl28699   9.181  -0.040   1.052  0.2332  0.5635 -0.4215
  954MOL0     C28700   9.563   0.948   1.405  0.5062 -0.7167  0.5452
  954MOL0     C28701   9.599   1.060   1.338 -0.7787 -0.0896  0.2374
  954MOL0     O28702   9.365   1.306   1.172  0.2787 -0.5231 -0.4734
  954MOL0     C28703   9.428   1.524   1.030  0.5357 -0.2593  0.5784
  954MOL0     C28704   9.452   1.628   0.942 -0.9684 -0.2504  0.3703
  954MOL0     N28705  10.002   1.532   0.725 -0.3030 -0.1776 -0.2463
  954MOL0     N28706  10.054   1.535   0.843  0.2339  0.0678 -0.3212
  954MOL0     C28707  10.843   1.373   0.705 -0.7493  0.0210  0.4512
  954MOL0     C28708  10.824   1.245   0.754  0.0031 -0.3522  1.1186
  954MOL0     C28709  11.083   0.874   0.937  0.2948  0.3119 -0.3294
  954MOL0     C28710  11.181   0.795   0.876  0.0396 -0.4336 -0.6768
  954MOL0     C28711  11.224   0.680   0.943 -0.0088  0.1370  0.0459
  954MOL0     C28712  11.178   0.657   1.080  0.3839  0.3303  0.4766
  954MOL0     O28713  11.213   0.548   1.157  0.8331  0.0648 -0.1634
  954MOL0     C28714  11.280   0.439   1.086  0.1171  0.2363  0.6086
  954MOL0     C28715  11.253   0.311   1.167 -1.1520 -0.9725  0.0839
  954MOL0     C28716  11.310   0.173   1.121 -0.1049 -0.7471  0.7576
  954MOL0     C28717  11.336   0.097   1.257  0.7074 -0.0475 -0.9369
  954MOL0     C28718  11.368  -0.045   1.239  0.7824  0.9932 -0.0582
  954MOL0     C28719  11.402  -0.165   1.222  0.0177 -0.2256 -0.4696
  954MOL0     C28720  11.082   0.739   1.139  0.0630  0.4433 -0.5271
  954MOL0     C28721  11.031   0.842   1.070 -0.9888 -0.5931 -0.3194
  954MOL0     C28722  10.939   0.931   1.158 -0.2394  0.5071  0.1899
  954MOL0     H28723  11.094   1.238   0.957 -1.6385 -3.6835 -0.1042
  954MOL0     H28724  11.117   1.492   0.874 -2.2590  3.5325  1.3192
  954MOL0     H28725  10.836   1.659   0.571 -0.4080 -4.5404  0.4380
  954MOL0     H28726  10.757   1.618   0.723  2.0348 -1.5683  2.7880
  954MOL0     H28727  10.915   1.871   0.657  0.5727 -0.3647 -0.0025
  954MOL0     H28728  10.868   1.816   0.823  0.0749  1.4087 -0.1879
  954MOL0     H28729  10.642   1.786   0.631  0.9381  0.7147 -2.9728
  954MOL0     H28730  10.711   1.948   0.615  0.6111  1.4064 -0.0702
  954MOL0     H28731  10.693   1.987   0.857 -0.7054  3.0958 -2.9963
  954MOL0     H28732  10.551   1.978   0.751 -0.3614  0.1769  1.1281
  954MOL0     H28733  10.636   1.727   0.889 -1.3154 -1.1663  1.4503
  954MOL0     H28734  10.581   1.838   0.995 -2.3870 -1.8884 -0.2281
  954MOL0     H28735  10.359   1.837   0.824  2.6114  1.6452 -4.1405
  954MOL0     H28736  10.426   1.692   0.769 -1.1425  0.0417 -0.2805
  954MOL0     H28737  10.378   1.723   1.064  3.5487  1.4054 -1.2978
  954MOL0     H28738  10.369   1.580   0.949  0.3476  0.7728 -2.7836
  954MOL0     H28739  10.138   1.663   1.061  1.6975 -0.2722  0.8023
  954MOL0     H28740  10.160   1.810   0.957  2.4080  0.4331  0.5656
  954MOL0     H28741  10.177   1.803   0.699 -1.8500  0.7361  0.9181
  954MOL0     H28742  10.053   1.726   0.447 -0.8509  1.1800 -0.1018
  954MOL0     H28743   9.971   1.571   0.474 -0.5680 -0.7366  0.9536
  954MOL0     H28744   9.868   1.851   0.509  2.3109 -0.4811  5.4535
  954MOL0     H28745   9.800   1.723   0.415 -1.2172 -0.1078 -0.2891
  954MOL0     H28746   9.751   1.595   0.625  2.7198 -0.2407 -0.8448
  954MOL0     H28747   9.648   1.710   0.564  0.3217 -0.1642 -0.2117
  954MOL0     H28748   9.742   1.884   0.730 -2.1149  1.3676  2.9846
  954MOL0     H28749   9.816   1.749   0.826 -0.4934 -2.2750  0.1268
  954MOL0     H28750   9.783   1.578   0.894 -1.2479  2.1198 -1.4470
  954MOL0     H28751   9.729   1.374   1.046 -0.4767 -0.7010  0.5586
  954MOL0     H28752   9.391   1.054   1.075 -0.2291  0.6836  2.1948
  954MOL0     H28753   9.320   0.853   1.171 -0.6744  0.6120  0.1340
  954MOL0     H28754   9.228   0.780   1.388  0.2233  1.4666 -3.4279
  954MOL0     H28755   9.289   0.669   1.266  2.7155  2.9882 -0.2908
  954MOL0     H28756   9.231   0.618   1.565 -1.6150 -2.5367 -0.4656
  954MOL0     H28757   9.138   0.555   1.443 -1.9957  4.5617 -0.5303
  954MOL0     H28758   9.407   0.509   1.552  0.5006  1.1870 -1.7404
  954MOL0     H28759   9.275   0.381   1.541 -1.4352  0.3516 -1.0195
  954MOL0     H28760   9.460   0.322   1.393 -2.3162 -1.9892  0.1872
  954MOL0     H28761   9.460   0.490   1.320 -0.2213  1.0857  0.9331
  954MOL0     H28762   9.245   0.440   1.213  1.1850  0.6564 -1.4449
  954MOL0     H28763   9.244   0.285   1.304  1.7728 -0.0605 -0.1910
  954MOL0     H28764   9.425   0.351   1.085  1.9488 -1.0474  1.2529
  954MOL0     H28765   9.465   0.225   1.209 -0.6560 -0.8030  1.7047
  954MOL0     H28766   9.384   0.138   0.997 -1.2210 -3.9524  1.8977
  954MOL0     H28767   9.239   0.239   1.011 -0.8833  3.6462  3.9084
  954MOL0     H28768   9.301   0.047   1.241 -1.1694 -1.6365  0.7169
  954MOL0     H28769   9.157   0.138   1.203  2.0753  1.5903  1.4849
  954MOL0     H28770   9.613   0.930   1.499  0.7318  1.4636  0.8889
  954MOL0     H28771   9.675   1.114   1.393 -0.9531  0.0092  0.3800
  954MOL0     H28772   9.323   1.511   1.055  0.7967 -0.0545  1.8528
  954MOL0     H28773   9.375   1.703   0.928 -0.0065  1.4137  3.2502
  954MOL0     H28774  10.768   1.414   0.639  1.3398 -0.0517 -2.1104
  954MOL0     H28775  10.734   1.193   0.723  1.6766 -2.7550  0.0334
  954MOL0     H28776  11.236   0.825   0.788 -1.3129  2.0513 -0.7530
  954MOL0     H28777  11.289   0.604   0.901  0.3318 -0.9134  2.3582
  954MOL0     H28778  11.388   0.445   1.069  0.4988 -1.2683  2.2419
  954MOL0     H28779  11.223   0.425   0.994  1.4969  1.8070 -0.5537
  954MOL0     H28780  11.146   0.297   1.181 -1.3942  1.1194  0.6356
  954MOL0     H28781  11.296   0.343   1.263  0.9324  2.9308 -1.9093
  954MOL0     H28782  11.406   0.188   1.069 -0.6553 -0.3092 -0.1477
  954MOL0     H28783  11.250   0.117   1.049  1.7247 -0.8273 -0.8001
  954MOL0     H28784  11.415   0.153   1.307 -0.0196  0.8350 -0.7560
  954MOL0     H28785  11.250   0.107   1.324 -3.6421  0.2880 -5.9219
  954MOL0     H28786  11.402  -0.268   1.190 -0.1993  0.7134 -3.9764
  954MOL0     H28787  11.060   0.706   1.240  0.7894 -1.0040 -0.8168
  954MOL0     H28788  10.852   0.977   1.111  0.5031  3.5104  1.5120
  954MOL0     H28789  10.898   0.875   1.242 -2.1256  0.9195 -0.4168
  954MOL0     H28790  10.993   1.013   1.207  1.8171 -1.8824  2.1880
  955MOL0     O28791   9.705   9.908   6.440 -0.7411 -0.2084 -0.2825
  955MOL0     C28792   9.626   9.879   6.349  0.0008 -0.4500 -0.2707
  955MOL0     O28793   9.597   9.753   6.314 -0.4640 -0.2869 -0.5670
  955MOL0     C28794   9.597   9.645   6.401  0.3826 -0.0459  0.4555
  955MOL0     C28795   9.644   9.625   6.536  0.0197 -0.7223 -0.6397
  955MOL0     C28796   9.624   9.500   6.598 -0.0249 -0.2449  1.0286
  955MOL0     C28797   9.560   9.400   6.544  0.4435  0.3142  1.2487
  955MOL0     O28798   9.541   9.284   6.610 -0.1017  0.1352  0.4536
  955MOL0     C28799   9.606   9.276   6.739  0.0216 -0.2899 -0.2957
  955MOL0     C28800   9.585   9.133   6.795  0.5856  0.0436 -0.3964
  955MOL0     C28801   9.452   9.116   6.861 -0.0633  0.1141 -0.5208
  955MOL0     C28802   9.388   8.973   6.833 -0.5922 -0.1880  0.3900
  955MOL0     C28803   9.268   8.944   6.929  0.0741  0.3902  0.8437
  955MOL0     C28804   9.193   8.807   6.904  1.2922 -0.0294  0.6818
  955MOL0     C28805   9.277   8.687   6.923  0.5806 -0.0346 -0.3412
  955MOL0     C28806   9.195   8.563   6.876 -0.0889  0.0623 -0.6155
  955MOL0     N28807   9.063   8.536   6.942 -0.7840  0.1766  0.4972
  955MOL0     C28808   8.940   8.589   6.918  0.5241  0.0193  0.3939
  955MOL0     C28809   8.866   8.582   7.032  0.1277  1.2952  0.5349
  955MOL0     C28810   8.719   8.619   7.034  0.2856  0.3814 -0.3209
  955MOL0     C28811   8.619   8.499   7.021 -0.1965 -0.3630  0.1434
  955MOL0     C28812   8.496   8.516   7.118  0.1170  0.3547  0.7765
  955MOL0     C28813   8.536   8.447   7.246  0.4049 -0.8882 -0.2626
  955MOL0     O28814   8.447   8.488   7.345  0.1668 -1.1849 -0.1083
  955MOL0     C28815   8.436   8.412   7.468  0.2298 -0.7663 -0.1765
  955MOL0     C28816   8.312   8.394   7.535  0.6460 -0.8079  0.4340
  955MOL0     C28817   8.299   8.343   7.656 -0.2719  1.0007 -0.2446
  955MOL0     C28818   8.416   8.291   7.723 -0.4390 -0.0676 -0.4353
  955MOL0     C28819   8.410   8.233   7.856 -0.3250  0.9600  0.1311
  955MOL0     O28820   8.509   8.135   7.878  0.4214 -0.0727 -0.0246
  955MOL0     C28821   8.495   8.065   7.989 -0.6167 -0.5079  0.6622
  955MOL0     C28822   8.389   7.969   8.011  0.0071 -1.0053  0.0204
  955MOL0     C28823   8.371   7.917   8.142 -0.1587  1.0345 -0.5627
  955MOL0     C28824   8.452   7.964   8.251 -0.0659  0.6370 -0.8145
  955MOL0     O28825   8.432   7.939   8.387 -1.0544 -0.9286 -0.4625
  955MOL0     C28826   8.312   7.880   8.435 -0.0315 -0.4581  0.9696
  955MOL0     C28827   8.314   7.844   8.588 -0.3548  0.5384  0.7206
  955MOL0     C28828   8.380   7.959   8.665  0.4318  0.4119  0.2593
  955MOL0     C28829   8.343   7.938   8.805  0.1012  0.3302  0.7773
  955MOL0     C28830   8.418   8.036   8.892  0.0756  0.6683 -0.0442
  955MOL0     C28831   8.355   8.177   8.885  0.1346 -0.5621 -0.6687
  955MOL0     C28832   8.201   8.182   8.908 -0.4325  0.6731  0.7971
  955MOL0     C28833   8.147   8.318   8.871 -0.0758 -0.1420 -0.0199
  955MOL0    Cl28834   8.142   8.322   8.693  0.0778 -0.5083 -0.1036
  955MOL0     C28835   8.554   8.049   8.219 -0.0981 -0.8122 -0.6888
  955MOL0     C28836   8.564   8.111   8.093 -0.3256  1.2127  0.3207
  955MOL0     O28837   8.328   8.269   7.938 -0.1748 -0.2612 -0.6759
  955MOL0     C28838   8.545   8.294   7.663  0.0364  0.4637  0.1540
  955MOL0     C28839   8.556   8.353   7.530  0.6729  0.1069 -0.4334
  955MOL0     N28840   8.936   8.515   7.131 -0.4874  0.3102  0.2804
  955MOL0     N28841   9.051   8.488   7.072  0.5025  0.2754  0.3151
  955MOL0     C28842   9.514   9.407   6.414  0.6875  0.4698 -0.0808
  955MOL0     C28843   9.541   9.525   6.344 -0.5015  0.6281  0.9587
  955MOL0     C28844   9.565   9.992   6.267 -0.5645  0.4370  1.2113
  955MOL0     C28845   9.474   9.959   6.172  0.0231  0.3000 -0.1471
  955MOL0     C28846   9.394  10.055   6.098 -0.7675 -0.8711 -0.8586
  955MOL0     C28847   9.407  10.188   6.130 -0.0652 -0.1659  0.5480
  955MOL0     O28848   9.324  10.290   6.084  0.2625 -0.8634 -0.1074
  955MOL0     C28849   9.226  10.250   5.985  0.1825  0.4357  0.5535
  955MOL0     C28850   9.129  10.361   5.944 -0.4367 -0.1886  0.6340
  955MOL0     C28851   9.025  10.403   6.049  0.6250 -0.1177 -0.1402
  955MOL0     C28852   9.082  10.492   6.158 -0.4377 -0.0984  0.0799
  955MOL0     C28853   9.002  10.522   6.277  0.3809  0.1877  0.9272
  955MOL0     C28854   8.947  10.571   6.374  0.2200  0.5707 -0.0212
  955MOL0     C28855   9.496  10.217   6.234 -0.6172 -0.2128 -0.4530
  955MOL0     C28856   9.582  10.132   6.298 -0.0014 -0.1184  0.4230
  955MOL0     C28857   9.666  10.187   6.414 -0.0626  0.1651  0.9270
  955MOL0     H28858   9.703   9.682   6.607  1.0230 -1.2459 -1.0263
  955MOL0     H28859   9.670   9.500   6.697 -1.0652 -0.6109  1.5258
  955MOL0     H28860   9.715   9.287   6.743  0.0982 -1.2399  2.1550
  955MOL0     H28861   9.563   9.347   6.811  2.6350  1.8327 -0.6451
  955MOL0     H28862   9.665   9.105   6.864 -0.5852 -0.8913  0.6248
  955MOL0     H28863   9.583   9.058   6.716 -0.8586 -0.7893  0.3900
  955MOL0     H28864   9.379   9.195   6.836 -0.8441  0.2825  2.0385
  955MOL0     H28865   9.468   9.134   6.968  0.2068  1.2639 -0.7383
  955MOL0     H28866   9.365   8.959   6.727 -0.1794 -0.7160  0.3678
  955MOL0     H28867   9.467   8.899   6.848 -2.1123 -2.1985 -0.9209
  955MOL0     H28868   9.294   8.952   7.035 -2.2132  0.6237  1.4461
  955MOL0     H28869   9.191   9.022   6.930 -0.3943 -0.0491 -0.2637
  955MOL0     H28870   9.109   8.792   6.973  0.8812 -1.8351 -0.1549
  955MOL0     H28871   9.149   8.803   6.804  1.2505 -3.7954  0.6806
  955MOL0     H28872   9.300   8.671   7.029  2.5078  0.4244 -0.6563
  955MOL0     H28873   9.370   8.691   6.865 -1.5812 -3.2827 -4.6196
  955MOL0     H28874   9.178   8.566   6.768  0.0108  1.0550 -0.6117
  955MOL0     H28875   9.254   8.474   6.901  1.2430  0.9344 -0.5442
  955MOL0     H28876   8.898   8.642   6.833 -0.9238  1.8976  2.2075
  955MOL0     H28877   8.690   8.674   7.124  2.1481 -0.9604  1.1663
  955MOL0     H28878   8.693   8.689   6.953  1.2693  3.0162  1.4946
  955MOL0     H28879   8.589   8.492   6.916 -0.1534  1.8875 -0.0533
  955MOL0     H28880   8.660   8.401   7.046 -1.6112 -0.0601  4.4258
  955MOL0     H28881   8.397   8.479   7.089  0.2016 -0.4757  1.4836
  955MOL0     H28882   8.473   8.620   7.140 -0.6658  0.5917 -1.0431
  955MOL0     H28883   8.638   8.480   7.263  0.9650 -2.5816 -0.0782
  955MOL0     H28884   8.529   8.338   7.235  0.8119 -1.3586  3.0436
  955MOL0     H28885   8.225   8.441   7.492  0.5972  1.6567  2.8843
  955MOL0     H28886   8.199   8.345   7.699 -0.6191  2.2893 -1.0540
  955MOL0     H28887   8.322   7.940   7.931  1.0964 -0.1612 -1.2559
  955MOL0     H28888   8.286   7.850   8.151  1.0771 -0.2852  1.9016
  955MOL0     H28889   8.230   7.950   8.415 -0.8010 -1.7634 -0.7076
  955MOL0     H28890   8.282   7.793   8.375  2.1138 -0.5744 -0.0177
  955MOL0     H28891   8.213   7.835   8.629  0.6796 -1.1479  3.0931
  955MOL0     H28892   8.368   7.750   8.601  1.0707  0.7252 -2.7964
  955MOL0     H28893   8.488   7.976   8.661  0.3463  1.8781  2.2379
  955MOL0     H28894   8.333   8.052   8.633 -0.6689 -1.2570 -3.4173
  955MOL0     H28895   8.377   7.840   8.842 -1.4346 -0.2485  0.7316
  955MOL0     H28896   8.238   7.936   8.834  0.4948  0.4269  2.2925
  955MOL0     H28897   8.519   8.045   8.851  0.0490 -0.0933 -0.2862
  955MOL0     H28898   8.414   8.002   8.996  1.2323 -0.3424 -0.3074
  955MOL0     H28899   8.412   8.237   8.957  3.9812 -2.9113 -1.4480
  955MOL0     H28900   8.384   8.226   8.792 -0.9378  0.2908 -0.5677
  955MOL0     H28901   8.171   8.171   9.013 -2.6756 -0.3301  0.1132
  955MOL0     H28902   8.145   8.108   8.850  1.2989 -0.6018  0.6989
  955MOL0     H28903   8.047   8.325   8.914  0.5712  4.6711  1.2964
  955MOL0     H28904   8.207   8.401   8.909 -0.0507 -1.2928  2.6023
  955MOL0     H28905   8.614   8.079   8.303 -2.1613 -0.8293  0.8675
  955MOL0     H28906   8.622   8.201   8.072  0.7594 -0.1923 -3.5312
  955MOL0     H28907   8.630   8.256   7.717 -0.1366  0.5433  0.4843
  955MOL0     H28908   8.657   8.372   7.496  1.1600  0.6060  1.2190
  955MOL0     H28909   9.459   9.323   6.372  2.5630 -1.7728  1.7012
  955MOL0     H28910   9.495   9.550   6.249 -0.4218  0.1843  0.8020
  955MOL0     H28911   9.455   9.853   6.159 -0.7147  0.2973  0.8481
  955MOL0     H28912   9.328  10.021   6.019 -2.9111  0.8719  0.0992
  955MOL0     H28913   9.162  10.162   5.998 -0.4559  0.8560  0.2981
  955MOL0     H28914   9.279  10.218   5.895  1.1702 -2.4269  2.0207
  955MOL0     H28915   9.077  10.320   5.857 -2.5760 -0.0426  1.7759
  955MOL0     H28916   9.186  10.450   5.917  1.1013 -0.9945  1.0883
  955MOL0     H28917   8.991  10.314   6.103 -0.1181 -0.0328 -0.4489
  955MOL0     H28918   8.942  10.451   5.997  1.3958 -1.7852 -3.1342
  955MOL0     H28919   9.166  10.443   6.209 -0.2929  2.2412  2.3108
  955MOL0     H28920   9.120  10.586   6.118  0.5619 -0.2656  0.5889
  955MOL0     H28921   8.894  10.615   6.456  0.7278 -0.3455  0.8301
  955MOL0     H28922   9.496  10.321   6.268  0.4375 -0.5578  0.6871
  955MOL0     H28923   9.636  10.144   6.509  1.6931 -0.5708  1.1810
  955MOL0     H28924   9.767  10.149   6.397 -1.4909 -3.3272 -0.6122
  955MOL0     H28925   9.672  10.296   6.426  0.8652  0.1708  0.5262
  956MOL0     O28926   0.510   1.668   3.625 -0.0422 -0.3298 -0.3871
  956MOL0     C28927   0.486   1.756   3.708  0.3524  0.3872 -0.0410
  956MOL0     O28928   0.419   1.874   3.689  0.1728 -0.4802  0.8802
  956MOL0     C28929   0.400   1.929   3.565  0.5978  0.1036 -0.5198
  956MOL0     C28930   0.453   2.046   3.548 -0.9399  0.5809  0.2068
  956MOL0     C28931   0.421   2.117   3.430  0.1274 -0.5288 -0.0465
  956MOL0     C28932   0.340   2.066   3.331  0.8413 -0.0256  0.1493
  956MOL0     O28933   0.319   2.125   3.212 -0.1690 -0.4864  0.6938
  956MOL0     C28934   0.423   2.205   3.151  0.4345  0.5058 -0.2389
  956MOL0     C28935   0.379   2.246   3.004  0.2154 -0.2758 -0.4484
  956MOL0     C28936   0.230   2.307   3.002 -0.1031 -0.9505  0.0593
  956MOL0     C28937   0.183   2.304   2.853  0.8680  0.6230  0.0970
  956MOL0     C28938   0.260   2.402   2.766  0.5191 -0.5414  0.8973
  956MOL0     C28939   0.197   2.439   2.635 -0.1477  0.2372 -0.2437
  956MOL0     C28940   0.240   2.579   2.595 -0.0928  0.5604  0.0543
  956MOL0     C28941   0.133   2.676   2.634 -0.4637 -0.5297  0.0067
  956MOL0     N28942   0.089   2.755   2.527 -0.9910 -0.0091  0.2408
  956MOL0     C28943  -0.013   2.738   2.440  0.6970 -0.8223  0.0046
  956MOL0     C28944  -0.048   2.854   2.385 -0.0462  0.4954 -0.2044
  956MOL0     C28945  -0.172   2.859   2.297  0.5250  0.2342 -0.7624
  956MOL0     C28946  -0.161   2.958   2.173  0.0996 -0.2617 -0.2456
  956MOL0     C28947  -0.136   3.112   2.209  0.1943 -0.1504  0.5215
  956MOL0     C28948  -0.228   3.207   2.125  0.1049 -0.1596  0.3490
  956MOL0     O28949  -0.172   3.235   2.000 -0.2575 -0.7865  0.1904
  956MOL0     C28950  -0.211   3.332   1.909 -0.9954  0.3163 -0.9205
  956MOL0     C28951  -0.144   3.336   1.787  0.1454  0.3335 -0.2149
  956MOL0     C28952  -0.178   3.431   1.686 -0.4158  0.2067 -0.3979
  956MOL0     C28953  -0.267   3.527   1.716  0.3765 -0.6783  0.6132
  956MOL0     C28954  -0.309   3.634   1.614 -0.2483 -0.1730 -0.1123
  956MOL0     O28955  -0.381   3.737   1.667  0.5760  0.0151 -0.8797
  956MOL0     C28956  -0.426   3.829   1.577 -0.3466  0.2515  0.9928
  956MOL0     C28957  -0.563   3.844   1.565 -0.4558  0.1649  0.7970
  956MOL0     C28958  -0.626   3.937   1.486  0.3059  0.4772  0.4291
  956MOL0     C28959  -0.548   4.030   1.417 -0.6286 -0.9093 -0.5415
  956MOL0     O28960  -0.588   4.126   1.332 -0.0508 -0.0330  0.1666
  956MOL0     C28961  -0.655   4.086   1.208 -0.6453  0.4903 -0.8453
  956MOL0     C28962  -0.685   4.214   1.130  0.7135 -0.0474  0.3043
  956MOL0     C28963  -0.553   4.276   1.095  0.3114  0.5792 -0.3742
  956MOL0     C28964  -0.570   4.413   1.026  0.1290 -1.4232 -0.9192
  956MOL0     C28965  -0.444   4.502   1.009 -0.6592 -0.5302 -0.8460
  956MOL0     C28966  -0.325   4.444   0.943 -0.8210  0.2478 -0.3601
  956MOL0     C28967  -0.212   4.546   0.917 -0.1439 -0.5972 -0.4198
  956MOL0     C28968  -0.091   4.547   1.005  0.8396 -0.3099  0.9266
  956MOL0    Cl28969   0.036   4.674   0.968  0.1055  0.3041  0.0545
  956MOL0     C28970  -0.412   4.002   1.406 -0.0534  0.1840  0.2101
  956MOL0     C28971  -0.361   3.906   1.494 -0.2695  0.0673 -1.1446
  956MOL0     O28972  -0.273   3.633   1.498 -0.0343 -0.1923 -0.3342
  956MOL0     C28973  -0.333   3.527   1.846  0.4247  0.8980 -0.5240
  956MOL0     C28974  -0.308   3.425   1.935 -0.7190  0.0199 -0.1173
  956MOL0     N28975   0.050   2.945   2.431  0.5605 -0.8863 -0.5269
  956MOL0     N28976   0.135   2.876   2.503 -0.5960 -0.3093  1.0975
  956MOL0     C28977   0.274   1.943   3.360 -0.0864  0.1765  0.8699
  956MOL0     C28978   0.304   1.871   3.483  0.2730  0.0517 -0.6955
  956MOL0     C28979   0.547   1.735   3.845 -1.1440 -0.6134 -0.2693
  956MOL0     C28980   0.548   1.850   3.931  0.6228 -0.6006  0.5267
  956MOL0     C28981   0.594   1.844   4.057  0.7257 -0.1845 -0.7546
  956MOL0     C28982   0.652   1.735   4.108  0.0454  0.6324 -0.2840
  956MOL0     O28983   0.709   1.735   4.236  0.0906 -0.0376 -0.2038
  956MOL0     C28984   0.819   1.823   4.274 -0.1425 -0.7991  0.7933
  956MOL0     C28985   0.944   1.769   4.187  0.5125  0.2571 -0.1912
  956MOL0     C28986   1.073   1.851   4.202  0.5868  0.0271  0.8176
  956MOL0     C28987   1.183   1.769   4.274 -0.0075  0.4978 -0.0578
  956MOL0     C28988   1.156   1.772   4.422 -1.1870  0.4695  0.4991
  956MOL0     C28989   1.158   1.778   4.546  0.5911  0.5853  0.1926
  956MOL0     C28990   0.659   1.618   4.029 -1.1963  0.7143  0.4226
  956MOL0     C28991   0.605   1.612   3.897  0.7957  0.0994  0.4472
  956MOL0     C28992   0.599   1.479   3.823 -0.7023  0.2946  0.1635
  956MOL0     H28993   0.528   2.068   3.623 -1.2546  1.6786  0.2260
  956MOL0     H28994   0.479   2.206   3.410  2.6429 -2.5404 -2.4289
  956MOL0     H28995   0.441   2.295   3.211  1.9700  1.3089 -1.8564
  956MOL0     H28996   0.522   2.160   3.155  1.0594  1.9017  0.9614
  956MOL0     H28997   0.377   2.154   2.944  2.3563  1.4059 -3.3197
  956MOL0     H28998   0.461   2.307   2.965 -0.2277  0.2680 -0.5389
  956MOL0     H28999   0.220   2.411   3.034  1.6430 -0.3151 -1.3064
  956MOL0     H29000   0.168   2.246   3.069 -1.0599 -0.4660 -0.3717
  956MOL0     H29001   0.188   2.201   2.818 -2.2053 -0.0433  1.2656
  956MOL0     H29002   0.076   2.326   2.841  0.8952  1.6542  1.4452
  956MOL0     H29003   0.273   2.493   2.825  0.9943 -0.2609  0.3697
  956MOL0     H29004   0.364   2.372   2.750  1.6544  3.2533  0.0352
  956MOL0     H29005   0.236   2.370   2.560 -0.1654 -2.2780  1.9169
  956MOL0     H29006   0.088   2.430   2.637 -0.1295 -2.0455 -3.2982
  956MOL0     H29007   0.251   2.584   2.487 -0.1424 -1.9677 -0.1379
  956MOL0     H29008   0.338   2.614   2.627 -1.0337  3.1680  0.3573
  956MOL0     H29009   0.049   2.640   2.694 -0.3423 -3.0059 -1.1660
  956MOL0     H29010   0.184   2.744   2.702 -0.7890  0.3401 -0.6104
  956MOL0     H29011  -0.062   2.642   2.427  1.1336 -0.9038 -1.0754
  956MOL0     H29012  -0.193   2.758   2.260  2.6077  0.2992 -2.3627
  956MOL0     H29013  -0.258   2.893   2.355  0.9363 -2.4100  1.6507
  956MOL0     H29014  -0.085   2.914   2.107 -0.5325 -0.6590 -0.7200
  956MOL0     H29015  -0.264   2.948   2.138 -0.8499 -1.1981  2.5739
  956MOL0     H29016  -0.032   3.136   2.185 -0.3165  0.5380 -1.1405
  956MOL0     H29017  -0.137   3.138   2.316 -1.4189 -0.9462  0.7275
  956MOL0     H29018  -0.244   3.294   2.190  1.1581  0.4490 -0.1782
  956MOL0     H29019  -0.321   3.155   2.102  0.1532 -0.7865  1.5113
  956MOL0     H29020  -0.061   3.268   1.775 -0.4188 -0.3501 -0.2802
  956MOL0     H29021  -0.133   3.424   1.587 -0.8796  2.5848 -0.8331
  956MOL0     H29022  -0.632   3.779   1.617  0.1660 -3.0320 -2.0153
  956MOL0     H29023  -0.731   3.963   1.483  0.1238 -0.1542 -2.5872
  956MOL0     H29024  -0.582   4.021   1.157  0.5370  2.2842 -1.5358
  956MOL0     H29025  -0.749   4.038   1.235 -0.1898 -0.1567 -0.3580
  956MOL0     H29026  -0.741   4.187   1.039 -0.5383 -0.4166  1.1557
  956MOL0     H29027  -0.748   4.288   1.181 -0.3873 -0.1536 -0.8424
  956MOL0     H29028  -0.498   4.287   1.189 -0.1305 -1.0909  0.1190
  956MOL0     H29029  -0.490   4.213   1.031  0.7170  2.3015 -1.7488
  956MOL0     H29030  -0.641   4.475   1.080  0.5556 -1.5912 -0.1592
  956MOL0     H29031  -0.618   4.408   0.927  0.2037  2.8292 -1.3638
  956MOL0     H29032  -0.419   4.518   1.114 -1.2434 -1.0370 -0.6259
  956MOL0     H29033  -0.470   4.604   0.979 -2.8706 -0.3478  1.4535
  956MOL0     H29034  -0.276   4.363   1.000 -2.3453 -0.9967 -0.7532
  956MOL0     H29035  -0.362   4.408   0.847 -1.2870 -0.6396  0.1381
  956MOL0     H29036  -0.268   4.640   0.915 -0.0590 -0.5548 -1.2514
  956MOL0     H29037  -0.180   4.528   0.814  2.1607 -1.4968  0.3930
  956MOL0     H29038  -0.114   4.560   1.111  0.3677  0.7247  0.7062
  956MOL0     H29039  -0.050   4.448   0.980  1.8972  1.2113 -4.5455
  956MOL0     H29040  -0.347   4.057   1.339  0.4003 -1.0441 -0.4050
  956MOL0     H29041  -0.253   3.892   1.492 -0.1862  0.7249 -2.0625
  956MOL0     H29042  -0.392   3.616   1.868 -0.9532  0.2755 -1.5698
  956MOL0     H29043  -0.353   3.432   2.033 -0.7938 -0.0260 -0.1477
  956MOL0     H29044   0.211   1.908   3.280  0.2684  0.0841  0.6309
  956MOL0     H29045   0.253   1.779   3.510  0.3578  0.6315  1.6761
  956MOL0     H29046   0.507   1.944   3.894 -3.5020 -2.6815 -0.7640
  956MOL0     H29047   0.573   1.929   4.121 -6.2472 -1.5742 -0.4452
  956MOL0     H29048   0.831   1.807   4.381 -2.6314 -0.1540  1.2254
  956MOL0     H29049   0.802   1.929   4.253 -3.1857 -1.7268 -2.3341
  956MOL0     H29050   0.913   1.782   4.083  0.9441  2.8421 -0.0664
  956MOL0     H29051   0.951   1.663   4.213 -0.6822 -0.0721 -1.0836
  956MOL0     H29052   1.054   1.948   4.249  2.7223  0.4576  0.8674
  956MOL0     H29053   1.103   1.878   4.100 -0.2944  4.3571  1.5313
  956MOL0     H29054   1.171   1.674   4.221 -0.8702 -1.0963  2.7612
  956MOL0     H29055   1.289   1.793   4.268  0.4197 -1.4263 -1.6019
  956MOL0     H29056   1.160   1.788   4.653 -0.1220  0.1258  0.2580
  956MOL0     H29057   0.708   1.535   4.079 -3.0166  1.0805  2.9753
  956MOL0     H29058   0.657   1.477   3.731 -1.5614 -0.4737 -0.3790
  956MOL0     H29059   0.631   1.403   3.895 -0.6026  1.1177  1.0154
  956MOL0     H29060   0.492   1.465   3.802 -1.3546  0.5140  2.9114
  957MOL0     O29061   4.445   4.257   4.842 -0.4603 -0.5863  0.5031
  957MOL0     C29062   4.402   4.167   4.910  0.7222 -0.1298 -0.7520
  957MOL0     O29063   4.262   4.148   4.937  0.0148 -0.4807 -0.8672
  957MOL0     C29064   4.169   4.228   4.877 -0.2089 -0.5324  0.9103
  957MOL0     C29065   4.184   4.371   4.861 -0.7038  0.2907  0.3694
  957MOL0     C29066   4.088   4.449   4.793 -0.5297  0.0920 -0.9232
  957MOL0     C29067   3.979   4.383   4.741  0.7656 -0.1289 -0.2576
  957MOL0     O29068   3.882   4.448   4.664 -0.2258 -0.6445 -0.2237
  957MOL0     C29069   3.757   4.480   4.727  0.2686 -0.2770  0.3115
  957MOL0     C29070   3.773   4.588   4.830 -0.3623  0.2301 -0.0855
  957MOL0     C29071   3.843   4.716   4.777  0.1127 -0.1780  0.5600
  957MOL0     C29072   3.882   4.806   4.895  0.0309  0.4570 -0.9092
  957MOL0     C29073   3.964   4.925   4.849 -0.1562 -0.6550 -0.1615
  957MOL0     C29074   3.886   5.049   4.815 -0.4563 -0.2026  0.3637
  957MOL0     C29075   3.795   5.112   4.917  0.7277  1.2781  0.2273
  957MOL0     C29076   3.734   5.241   4.867 -0.2437 -1.5498 -0.4831
  957MOL0     N29077   3.843   5.338   4.883  0.8427  0.2890  0.0741
  957MOL0     C29078   3.903   5.390   4.779 -0.8592  0.1393  1.3808
  957MOL0     C29079   3.987   5.495   4.819 -0.9032  0.5295 -0.2712
  957MOL0     C29080   4.075   5.594   4.738  0.8744  0.1504  0.6235
  957MOL0     C29081   4.203   5.520   4.709 -0.4769 -0.3695  0.2254
  957MOL0     C29082   4.301   5.597   4.625 -0.6377 -0.0069  0.0273
  957MOL0     C29083   4.440   5.530   4.619  0.0600  0.9175  1.4470
  957MOL0     O29084   4.448   5.386   4.589 -0.1017 -0.2020 -0.4054
  957MOL0     C29085   4.523   5.328   4.686 -0.0146  0.2683 -0.6049
  957MOL0     C29086   4.661   5.322   4.665 -0.6252 -0.1380  0.2489
  957MOL0     C29087   4.759   5.259   4.755  0.6267  0.3266  0.1051
  957MOL0     C29088   4.701   5.204   4.872 -0.3176  0.3353 -0.5865
  957MOL0     C29089   4.792   5.127   4.968  0.5223  0.1033  0.5290
  957MOL0     O29090   4.734   5.077   5.077  0.5444  0.3377 -0.3013
  957MOL0     C29091   4.798   5.003   5.171  0.0860 -0.2539 -0.7132
  957MOL0     C29092   4.722   4.989   5.285 -0.3080  0.1953 -0.1139
  957MOL0     C29093   4.770   4.920   5.401 -0.1761  0.0656 -0.0365
  957MOL0     C29094   4.892   4.856   5.396 -0.5264 -0.3057  0.2425
  957MOL0     O29095   4.921   4.793   5.512 -0.5345  0.9078  0.8141
  957MOL0     C29096   5.021   4.687   5.521  0.3191 -0.9205  0.8352
  957MOL0     C29097   5.008   4.619   5.659  0.0664 -0.3789  1.1024
  957MOL0     C29098   5.080   4.484   5.653  0.1941  0.3253 -0.6355
  957MOL0     C29099   5.061   4.420   5.799  0.0250  0.3517  0.6676
  957MOL0     C29100   5.154   4.306   5.838 -1.0807  0.1737  0.0625
  957MOL0     C29101   5.109   4.220   5.964 -0.8944 -0.1922  0.0268
  957MOL0     C29102   4.992   4.133   5.920 -0.0045 -0.1245 -0.4820
  957MOL0     C29103   4.991   3.994   5.974 -0.2445  0.0376 -0.3132
  957MOL0    Cl29104   4.868   3.909   5.878  0.1160  0.1054  0.2228
  957MOL0     C29105   4.975   4.871   5.278  0.2021  0.2092  0.4700
  957MOL0     C29106   4.921   4.936   5.160 -0.0462 -0.6517  0.0210
  957MOL0     O29107   4.903   5.099   4.925 -0.2134 -0.0658 -0.4804
  957MOL0     C29108   4.559   5.215   4.902 -0.4713 -0.4343  0.6684
  957MOL0     C29109   4.467   5.274   4.802  0.0266  0.5387 -0.2696
  957MOL0     N29110   3.960   5.501   4.954 -0.7880  0.1496  0.7180
  957MOL0     N29111   3.882   5.403   4.992 -0.7636 -0.3882  0.1528
  957MOL0     C29112   3.952   4.251   4.774  0.1369  0.0607 -0.2119
  957MOL0     C29113   4.048   4.177   4.842 -0.4290  0.4522  0.1925
  957MOL0     C29114   4.491   4.054   4.953  0.4475  1.0016  0.7521
  957MOL0     C29115   4.429   3.947   5.028 -0.1651 -0.4108  0.1707
  957MOL0     C29116   4.507   3.846   5.076  0.4881 -0.5832  0.3116
  957MOL0     C29117   4.639   3.826   5.058 -0.9788 -0.1277  0.4648
  957MOL0     O29118   4.709   3.721   5.114  0.2567  0.6185 -0.3033
  957MOL0     C29119   4.677   3.597   5.060  0.1277  0.8464  0.0393
  957MOL0     C29120   4.790   3.488   5.067 -0.8229  0.2270 -0.4030
  957MOL0     C29121   4.740   3.351   5.025 -0.1429  0.1615  0.5706
  957MOL0     C29122   4.670   3.277   5.135  0.3135 -0.0613  0.1757
  957MOL0     C29123   4.632   3.142   5.105 -0.2700 -0.2957 -1.2823
  957MOL0     C29124   4.585   3.041   5.080 -0.7504  0.4880  0.3406
  957MOL0     C29125   4.706   3.938   4.993 -0.0925 -0.3030 -0.1213
  957MOL0     C29126   4.631   4.053   4.945 -0.5152  0.4788  0.0594
  957MOL0     C29127   4.701   4.164   4.868 -0.4561 -0.0562  0.8317
  957MOL0     H29128   4.262   4.428   4.911  0.5769  1.0314 -2.2869
  957MOL0     H29129   4.107   4.556   4.782  0.5189  0.1798  1.2724
  957MOL0     H29130   3.681   4.519   4.658  1.1623  2.9317  0.9693
  957MOL0     H29131   3.711   4.388   4.764 -2.5081 -1.2910 -4.7559
  957MOL0     H29132   3.840   4.550   4.909  0.4614  0.1584 -0.8031
  957MOL0     H29133   3.672   4.615   4.861 -0.6346 -0.7726 -0.0902
  957MOL0     H29134   3.784   4.763   4.698  1.0130 -1.1560 -0.7244
  957MOL0     H29135   3.931   4.693   4.716 -1.0891  1.2562 -1.8774
  957MOL0     H29136   3.799   4.836   4.961  1.4221 -1.8254  2.1373
  957MOL0     H29137   3.945   4.753   4.967 -1.8771  1.6011  1.8118
  957MOL0     H29138   4.041   4.943   4.925 -1.4573 -0.8052  1.2362
  957MOL0     H29139   4.019   4.895   4.759  1.4792  4.6568 -1.3429
  957MOL0     H29140   3.967   5.116   4.787 -0.3742 -0.6922 -0.6178
  957MOL0     H29141   3.829   5.037   4.722  1.6401  2.0471 -1.3301
  957MOL0     H29142   3.850   5.119   5.012 -1.9539  0.5548  1.9273
  957MOL0     H29143   3.716   5.040   4.934  0.3173  1.7034  0.1381
  957MOL0     H29144   3.716   5.246   4.759 -0.8541  0.2017 -0.3293
  957MOL0     H29145   3.652   5.268   4.934  1.4403  3.4670 -0.0145
  957MOL0     H29146   3.879   5.370   4.675 -3.1752 -2.1005  2.2374
  957MOL0     H29147   4.024   5.626   4.647  2.5082 -2.8186 -1.5040
  957MOL0     H29148   4.085   5.686   4.797 -1.2017 -1.3433  3.5362
  957MOL0     H29149   4.256   5.495   4.801 -0.5829 -3.8954 -0.5525
  957MOL0     H29150   4.176   5.428   4.656 -0.3163  0.2160 -0.9193
  957MOL0     H29151   4.311   5.697   4.669 -0.5840  0.1827 -0.4108
  957MOL0     H29152   4.258   5.604   4.525 -1.5422  0.0943  0.4134
  957MOL0     H29153   4.485   5.551   4.716  1.2848  0.2785  1.0435
  957MOL0     H29154   4.494   5.584   4.540  1.9605 -1.2619  1.1355
  957MOL0     H29155   4.695   5.369   4.574 -2.3734  0.2117 -0.2726
  957MOL0     H29156   4.866   5.251   4.738  0.3591 -4.3312 -0.6393
  957MOL0     H29157   4.624   5.036   5.285 -0.3405  0.1693  1.4303
  957MOL0     H29158   4.697   4.930   5.480 -0.8861  0.2089 -0.6987
  957MOL0     H29159   5.000   4.617   5.440 -2.6795  0.2821  0.4432
  957MOL0     H29160   5.123   4.725   5.510  2.0111 -4.8700  1.1340
  957MOL0     H29161   5.060   4.681   5.733  1.1188 -0.5721  0.5425
  957MOL0     H29162   4.903   4.612   5.689 -0.2935  0.1422 -0.0049
  957MOL0     H29163   5.034   4.417   5.579 -0.1682 -0.7164  0.4957
  957MOL0     H29164   5.187   4.486   5.632 -0.2002 -0.2436 -2.9799
  957MOL0     H29165   4.962   4.374   5.795  0.1927 -0.4110  3.2525
  957MOL0     H29166   5.053   4.491   5.882  0.9705 -0.6239  1.6426
  957MOL0     H29167   5.248   4.352   5.872  0.5412 -2.3060 -0.7965
  957MOL0     H29168   5.180   4.239   5.756 -0.7876 -0.9661  1.0596
  957MOL0     H29169   5.185   4.151   6.002 -1.0519  0.2819  1.2607
  957MOL0     H29170   5.086   4.287   6.047 -0.4381 -0.8478  0.6939
  957MOL0     H29171   4.965   4.135   5.814  0.7683  1.7765 -0.6861
  957MOL0     H29172   4.902   4.173   5.967  1.1523 -0.6466  2.3909
  957MOL0     H29173   5.084   3.936   5.966 -1.9373 -2.5774 -4.8398
  957MOL0     H29174   4.965   3.990   6.080 -0.1490 -0.5101 -0.3065
  957MOL0     H29175   5.075   4.828   5.285 -0.9732 -2.6030  1.6041
  957MOL0     H29176   4.982   4.922   5.071 -2.1303 -0.8991 -1.4326
  957MOL0     H29177   4.516   5.194   4.999  0.5562 -0.1310  1.2054
  957MOL0     H29178   4.366   5.305   4.825  0.3936  0.4430  1.5603
  957MOL0     H29179   3.858   4.202   4.747  0.1501 -0.1948  0.2058
  957MOL0     H29180   4.025   4.076   4.874 -0.7651  0.5812  0.3731
  957MOL0     H29181   4.322   3.944   5.046  0.1284 -1.2551  2.1026
  957MOL0     H29182   4.457   3.760   5.121  1.8539 -2.2904 -1.2777
  957MOL0     H29183   4.606   3.603   4.977 -0.4379  1.7242  0.5674
  957MOL0     H29184   4.604   3.557   5.131 -1.4900 -0.2305 -2.1114
  957MOL0     H29185   4.835   3.481   5.167  0.0931  0.6782 -0.7727
  957MOL0     H29186   4.871   3.529   5.006 -1.5269  0.7818 -0.9794
  957MOL0     H29187   4.828   3.290   4.999 -0.3362  1.2228 -3.1296
  957MOL0     H29188   4.667   3.367   4.945 -2.0119  3.8793  2.7934
  957MOL0     H29189   4.745   3.268   5.214 -1.0456 -1.8103  1.3558
  957MOL0     H29190   4.585   3.334   5.174  1.5840  1.7421  0.4414
  957MOL0     H29191   4.531   2.949   5.076 -0.5470  0.1326  3.3773
  957MOL0     H29192   4.814   3.930   4.986  0.4293  3.7689  0.3386
  957MOL0     H29193   4.687   4.269   4.896 -0.5264  0.4021 -0.8308
  957MOL0     H29194   4.805   4.133   4.878 -0.8096 -1.1579  1.2869
  957MOL0     H29195   4.675   4.152   4.763  1.7610 -2.2099  0.4374
  958MOL0     O29196   3.040   2.517   8.992 -0.1861  0.7022 -0.2726
  958MOL0     C29197   3.018   2.569   9.097 -0.1026  0.8659  0.2218
  958MOL0     O29198   2.917   2.648   9.118 -0.1338  0.2501 -0.2049
  958MOL0     C29199   2.819   2.665   9.028  0.6832 -0.6436 -1.0719
  958MOL0     C29200   2.744   2.560   8.972 -0.5477  0.4926 -0.2247
  958MOL0     C29201   2.648   2.579   8.872 -0.1579 -0.7936 -0.2502
  958MOL0     C29202   2.617   2.708   8.834 -0.2735 -0.0950 -0.3179
  958MOL0     O29203   2.517   2.733   8.743 -0.0028  0.2085  0.4613
  958MOL0     C29204   2.422   2.634   8.713  0.2077 -0.0640  1.3203
  958MOL0     C29205   2.316   2.682   8.609 -0.0081  0.6671 -0.3787
  958MOL0     C29206   2.229   2.792   8.667  0.5405 -0.9810 -1.0843
  958MOL0     C29207   2.106   2.834   8.577 -0.6646  0.3018 -0.2832
  958MOL0     C29208   2.028   2.944   8.635 -0.3341  0.5866  0.3988
  958MOL0     C29209   1.938   2.893   8.759  0.0930  0.0280 -0.2732
  958MOL0     C29210   1.789   2.930   8.733  0.0435  0.2386 -0.1083
  958MOL0     C29211   1.751   3.082   8.745  0.0967  0.6465  0.2840
  958MOL0     N29212   1.773   3.162   8.863 -0.0737  0.2897 -0.7482
  958MOL0     C29213   1.721   3.133   8.990 -0.7800 -0.0733 -0.0040
  958MOL0     C29214   1.774   3.219   9.081 -0.1923 -0.3524  0.8352
  958MOL0     C29215   1.732   3.225   9.221 -0.3499 -0.4096  0.4968
  958MOL0     C29216   1.717   3.368   9.273 -0.0674  0.6560  0.0899
  958MOL0     C29217   1.864   3.424   9.313  0.6550  0.0437  1.1724
  958MOL0     C29218   1.860   3.560   9.375  0.3105  0.3919 -0.1278
  958MOL0     O29219   1.990   3.601   9.427  0.0001 -0.7365  0.9371
  958MOL0     C29220   2.089   3.632   9.349  0.0521  0.1584 -0.2755
  958MOL0     C29221   2.211   3.684   9.404  0.0491 -0.3881 -0.0552
  958MOL0     C29222   2.318   3.725   9.316  0.2518 -0.1351 -0.2941
  958MOL0     C29223   2.307   3.707   9.179  0.1331 -1.1142  1.2082
  958MOL0     C29224   2.434   3.708   9.093  0.1017  0.3084 -0.8807
  958MOL0     O29225   2.553   3.732   9.162  0.2139 -0.8091  0.3815
  958MOL0     C29226   2.672   3.746   9.086 -0.4402  0.4783  0.1914
  958MOL0     C29227   2.781   3.692   9.152  0.9219  0.2504  0.1045
  958MOL0     C29228   2.915   3.703   9.108  0.2792 -0.6737  0.2722
  958MOL0     C29229   2.935   3.767   8.989 -0.6974 -0.7568 -1.1327
  958MOL0     O29230   3.058   3.783   8.925 -0.1398 -0.5945 -0.6087
  958MOL0     C29231   3.179   3.803   9.007  0.8549  0.6779 -0.0366
  958MOL0     C29232   3.311   3.818   8.929  0.2135 -1.0033  0.4633
  958MOL0     C29233   3.407   3.694   8.946 -0.3470  0.0961  0.8444
  958MOL0     C29234   3.526   3.723   8.861 -0.0202  0.6055 -0.4799
  958MOL0     C29235   3.607   3.602   8.870 -0.3271 -0.2989  0.7452
  958MOL0     C29236   3.713   3.618   8.765 -0.3298 -0.4268 -0.8200
  958MOL0     C29237   3.833   3.534   8.776 -0.6144  0.7928  0.8804
  958MOL0     C29238   3.900   3.507   8.642  0.3396 -0.6742  0.2998
  958MOL0    Cl29239   3.819   3.369   8.546  0.1202 -0.0186 -0.3714
  958MOL0     C29240   2.827   3.825   8.921 -0.5962 -0.6400 -0.1314
  958MOL0     C29241   2.700   3.813   8.969 -0.2484  1.0550  0.1196
  958MOL0     O29242   2.416   3.687   8.971 -1.0814  0.8069 -0.6445
  958MOL0     C29243   2.185   3.664   9.121 -0.3087 -0.0449  0.0923
  958MOL0     C29244   2.079   3.633   9.205 -0.4325 -0.3939  0.9642
  958MOL0     N29245   1.858   3.307   9.006 -0.5510 -0.1074 -0.4645
  958MOL0     N29246   1.869   3.260   8.880  0.4506 -0.5183 -0.7485
  958MOL0     C29247   2.690   2.817   8.887  0.4756 -0.1074  0.1639
  958MOL0     C29248   2.792   2.793   8.982  0.7625 -0.3064 -0.2331
  958MOL0     C29249   3.107   2.535   9.217  0.1274 -0.3356  1.1981
  958MOL0     C29250   3.041   2.531   9.339  0.1648  0.6989 -0.4742
  958MOL0     C29251   3.108   2.486   9.462  0.3948  1.8328 -0.1465
  958MOL0     C29252   3.244   2.455   9.460 -0.3404  0.2285 -0.0190
  958MOL0     O29253   3.306   2.442   9.586  0.4571 -0.3134 -0.0266
  958MOL0     C29254   3.448   2.432   9.593 -0.0536 -0.1969  0.0593
  958MOL0     C29255   3.498   2.472   9.733  0.3128 -0.7297 -0.7304
  958MOL0     C29256   3.440   2.377   9.836  0.3562  0.0825 -0.1416
  958MOL0     C29257   3.489   2.409   9.980 -0.1904  1.0340  0.4260
  958MOL0     C29258   3.597   2.317  10.024 -0.9586  0.4020 -0.6566
  958MOL0     C29259   3.684   2.244  10.064 -0.3470 -0.2856 -0.7120
  958MOL0     C29260   3.314   2.457   9.340  0.3028  0.6543  0.4269
  958MOL0     C29261   3.246   2.497   9.216 -0.4639 -0.8065 -0.6149
  958MOL0     C29262   3.326   2.519   9.089  0.5168  0.5682 -0.5481
  958MOL0     H29263   2.780   2.468   9.018 -0.1939  0.3532 -0.7709
  958MOL0     H29264   2.597   2.491   8.834  0.2606 -0.9694 -0.4092
  958MOL0     H29265   2.471   2.548   8.667 -1.6549 -0.5330  0.0846
  958MOL0     H29266   2.372   2.595   8.802  1.7620  0.2219  2.3563
  958MOL0     H29267   2.240   2.605   8.591  1.1991 -0.2254 -1.9625
  958MOL0     H29268   2.370   2.699   8.515  4.3276  2.1766  2.1127
  958MOL0     H29269   2.287   2.883   8.683  0.7618 -1.6578  3.1806
  958MOL0     H29270   2.194   2.763   8.766  1.8046  0.6984 -0.0942
  958MOL0     H29271   2.144   2.882   8.486 -2.3417  2.9580  0.3029
  958MOL0     H29272   2.049   2.741   8.564 -0.2596  0.1057 -0.7052
  958MOL0     H29273   2.084   3.034   8.661  0.1302  1.5165 -3.3180
  958MOL0     H29274   1.966   2.975   8.551  2.9122 -0.8695 -2.8091
  958MOL0     H29275   1.930   2.784   8.766 -2.1073  0.0033 -2.1578
  958MOL0     H29276   1.984   2.945   8.844  0.7601 -2.1617  0.7664
  958MOL0     H29277   1.721   2.875   8.799  0.7139 -1.8994 -1.1014
  958MOL0     H29278   1.762   2.883   8.638  3.8746 -1.6830 -0.4576
  958MOL0     H29279   1.794   3.135   8.659  2.8117  0.3722  1.3600
  958MOL0     H29280   1.644   3.088   8.724 -0.5767 -0.6419  2.9609
  958MOL0     H29281   1.655   3.049   9.007 -1.7035  0.3858 -1.2081
  958MOL0     H29282   1.632   3.181   9.211 -0.7070  0.7683 -2.1694
  958MOL0     H29283   1.802   3.164   9.279  3.2627  2.6854 -0.2112
  958MOL0     H29284   1.650   3.419   9.203 -2.7064 -1.5667  0.8177
  958MOL0     H29285   1.662   3.359   9.366  1.2007  0.2606  0.8303
  958MOL0     H29286   1.900   3.435   9.210 -2.1538  0.3216  0.1407
  958MOL0     H29287   1.936   3.364   9.369  1.9326  0.9582  0.5733
  958MOL0     H29288   1.793   3.550   9.461 -1.0009  1.3044 -1.0022
  958MOL0     H29289   1.836   3.645   9.311  2.7967  0.4091 -1.1565
  958MOL0     H29290   2.216   3.699   9.511 -1.0298 -3.0619  0.4553
  958MOL0     H29291   2.413   3.764   9.353  1.2505 -0.6963 -2.1031
  958MOL0     H29292   2.751   3.640   9.243 -1.1545  2.2801  0.6783
  958MOL0     H29293   3.001   3.661   9.160  1.8339  3.3437  1.2865
  958MOL0     H29294   3.165   3.891   9.070 -1.6374  0.5059 -0.2741
  958MOL0     H29295   3.186   3.717   9.074  1.2131 -1.6961 -2.9153
  958MOL0     H29296   3.294   3.840   8.823  0.9900  1.4928  0.7891
  958MOL0     H29297   3.358   3.909   8.967  2.1278 -2.3678  1.5552
  958MOL0     H29298   3.452   3.676   9.044 -0.6802  0.5794  1.0873
  958MOL0     H29299   3.334   3.615   8.925 -0.3363 -0.2330  1.9758
  958MOL0     H29300   3.591   3.805   8.893  2.5611 -1.4829  0.0327
  958MOL0     H29301   3.491   3.734   8.758  0.6489 -0.2082 -0.8037
  958MOL0     H29302   3.552   3.511   8.845  0.3548  0.1450 -2.9533
  958MOL0     H29303   3.650   3.599   8.971 -0.3775  0.6500  0.8091
  958MOL0     H29304   3.664   3.594   8.670 -3.9143  0.2220  0.6854
  958MOL0     H29305   3.743   3.724   8.761  1.9632 -1.0180 -4.4868
  958MOL0     H29306   3.807   3.439   8.825  3.7511 -2.1954 -1.9104
  958MOL0     H29307   3.906   3.589   8.835 -0.0376  2.0312 -0.9152
  958MOL0     H29308   3.899   3.599   8.583  0.0082 -2.2785 -2.3569
  958MOL0     H29309   4.003   3.480   8.669  0.7398  0.0156 -0.4737
  958MOL0     H29310   2.834   3.877   8.827 -3.7500 -0.5284 -0.4201
  958MOL0     H29311   2.622   3.866   8.915  0.3594  1.4860 -0.3526
  958MOL0     H29312   2.188   3.662   9.013  2.9136  1.0723  0.0656
  958MOL0     H29313   1.995   3.613   9.139  0.3992 -0.1564 -0.2050
  958MOL0     H29314   2.676   2.916   8.844 -0.1386 -1.5683 -3.3112
  958MOL0     H29315   2.857   2.875   9.012  0.6868 -0.1572 -0.4714
  958MOL0     H29316   2.933   2.534   9.348 -0.1183 -1.8923 -2.0440
  958MOL0     H29317   3.062   2.457   9.556  1.0664 -0.1517 -0.3809
  958MOL0     H29318   3.484   2.496   9.512 -0.9264  0.1709 -0.0551
  958MOL0     H29319   3.475   2.328   9.575  0.7371  0.2214 -1.3628
  958MOL0     H29320   3.485   2.577   9.762 -1.5120 -1.1128 -0.0438
  958MOL0     H29321   3.607   2.471   9.720  0.6884  5.5595 -1.0603
  958MOL0     H29322   3.471   2.276   9.805  2.4087  0.8010 -0.6120
  958MOL0     H29323   3.332   2.391   9.841  0.4057  0.1316  0.9435
  958MOL0     H29324   3.526   2.511   9.967 -5.0227  3.2715  1.7625
  958MOL0     H29325   3.415   2.413  10.061 -3.1227 -0.7389 -1.9435
  958MOL0     H29326   3.765   2.176  10.083  1.0495  0.7785 -2.4494
  958MOL0     H29327   3.417   2.426   9.333 -0.1309 -1.6830  2.7111
  958MOL0     H29328   3.292   2.600   9.023 -0.4135 -1.9021 -3.3275
  958MOL0     H29329   3.431   2.521   9.121  0.2018 -1.7482  0.8644
  958MOL0     H29330   3.313   2.431   9.026  1.9023  0.3856 -0.6004
  959MOL0     O29331   6.636   1.035   2.916  0.1373  0.2943 -0.2622
  959MOL0     C29332   6.617   0.917   2.882  1.1573 -0.6568 -0.2398
  959MOL0     O29333   6.505   0.845   2.896  0.4104 -0.2918  0.2033
  959MOL0     C29334   6.383   0.896   2.940  0.1684 -0.2925  0.3196
  959MOL0     C29335   6.332   1.025   2.917  0.3064  0.9555  0.7407
  959MOL0     C29336   6.196   1.054   2.958  0.3617 -0.7464 -0.4728
  959MOL0     C29337   6.122   0.952   3.031  0.8752 -0.5388 -0.1298
  959MOL0     O29338   6.003   0.977   3.097 -0.4655 -0.0234 -0.2890
  959MOL0     C29339   5.915   1.082   3.045 -1.1993 -0.0472 -0.0057
  959MOL0     C29340   5.810   1.098   3.156 -0.6277 -0.9996 -0.7820
  959MOL0     C29341   5.707   1.196   3.117  0.9114 -1.9752  0.6235
  959MOL0     C29342   5.761   1.349   3.110  0.0029 -0.7571  0.8149
  959MOL0     C29343   5.665   1.444   3.037  0.5521  0.0483  1.1430
  959MOL0     C29344   5.673   1.430   2.876 -1.2419  1.1004 -0.4943
  959MOL0     C29345   5.562   1.501   2.803 -0.2292  0.8164  0.5681
  959MOL0     C29346   5.564   1.461   2.647 -0.4166  0.2260  0.0966
  959MOL0     N29347   5.687   1.489   2.573  0.0281  0.0641 -0.6320
  959MOL0     C29348   5.798   1.409   2.575  0.0062  0.7361  0.8036
  959MOL0     C29349   5.870   1.440   2.468 -0.8905 -0.1045 -0.1549
  959MOL0     C29350   5.987   1.359   2.417  0.1363  0.5767  0.8908
  959MOL0     C29351   6.105   1.355   2.506 -0.1371  0.3553  0.0042
  959MOL0     C29352   6.183   1.487   2.504  0.1290 -0.6662 -0.5404
  959MOL0     C29353   6.280   1.505   2.626  0.4044 -0.1304 -0.6574
  959MOL0     O29354   6.355   1.384   2.654 -0.1598 -0.1635  0.4119
  959MOL0     C29355   6.463   1.341   2.585  0.2003  0.2069  0.4393
  959MOL0     C29356   6.518   1.417   2.482 -1.1737 -0.1309  0.8390
  959MOL0     C29357   6.621   1.362   2.404 -0.5945  0.1612 -0.3908
  959MOL0     C29358   6.681   1.242   2.442 -0.2337  0.8988  0.2417
  959MOL0     C29359   6.794   1.187   2.362 -0.2461 -0.7698  0.3952
  959MOL0     O29360   6.843   1.067   2.404 -0.2758 -0.5409  0.5302
  959MOL0     C29361   6.976   1.045   2.388  0.6241  0.0494  0.6379
  959MOL0     C29362   7.041   0.997   2.494 -0.6559  0.7170  0.6191
  959MOL0     C29363   7.179   0.977   2.482  0.2684 -0.0816  0.1806
  959MOL0     C29364   7.252   0.998   2.360 -0.1607 -0.3040  0.4683
  959MOL0     O29365   7.386   0.994   2.353 -0.5153  0.2263 -0.6155
  959MOL0     C29366   7.457   1.092   2.426 -0.9145 -0.2458 -0.5900
  959MOL0     C29367   7.571   1.010   2.485 -0.6918  0.4314 -0.3384
  959MOL0     C29368   7.662   0.982   2.367  0.0028  0.2877  0.3354
  959MOL0     C29369   7.769   0.895   2.420 -1.5414  0.3679 -0.1598
  959MOL0     C29370   7.887   0.923   2.320  0.3650  0.8776  0.2726
  959MOL0     C29371   7.982   0.809   2.321  0.5241  0.5611  0.5691
  959MOL0     C29372   8.102   0.862   2.231 -0.2450  0.7788 -0.4398
  959MOL0     C29373   8.080   0.850   2.072  0.3049  0.5720  0.2063
  959MOL0    Cl29374   8.234   0.871   1.980  0.4580 -0.4373  0.2801
  959MOL0     C29375   7.174   1.033   2.253 -0.6286  0.2378  0.3796
  959MOL0     C29376   7.040   1.054   2.262  0.3180 -0.0589  0.8135
  959MOL0     O29377   6.837   1.258   2.271  0.1089 -0.4701 -0.4842
  959MOL0     C29378   6.612   1.159   2.525  0.7716 -0.6802  0.4970
  959MOL0     C29379   6.504   1.210   2.599  0.3771  0.1919  0.1361
  959MOL0     N29380   5.825   1.552   2.402 -0.4795 -0.5303 -0.2578
  959MOL0     N29381   5.711   1.574   2.469 -0.2110  0.7722  0.0507
  959MOL0     C29382   6.182   0.824   3.057  0.4155 -0.1951 -0.2237
  959MOL0     C29383   6.312   0.801   3.009 -0.3091  0.0486  0.3669
  959MOL0     C29384   6.739   0.850   2.841  0.9904 -0.6882 -0.0161
  959MOL0     C29385   6.855   0.869   2.919 -0.4769  0.3549  0.0573
  959MOL0     C29386   6.966   0.792   2.887  0.1526 -0.9516 -0.5275
  959MOL0     C29387   6.979   0.707   2.778 -0.7443 -0.7951 -0.2200
  959MOL0     O29388   7.100   0.654   2.752  0.1632  0.0092  0.5871
  959MOL0     C29389   7.126   0.585   2.629 -0.7097  0.2712 -0.9284
  959MOL0     C29390   7.276   0.539   2.614 -0.1302 -0.1515  0.2549
  959MOL0     C29391   7.367   0.668   2.615 -0.3302 -0.6211 -0.6189
  959MOL0     C29392   7.395   0.716   2.752 -0.4177  0.4150  0.1198
  959MOL0     C29393   7.524   0.782   2.774 -0.6730  0.2988  0.2339
  959MOL0     C29394   7.631   0.843   2.790 -0.5472  0.0163  0.7030
  959MOL0     C29395   6.860   0.688   2.701 -0.6281 -0.3364  0.3422
  959MOL0     C29396   6.744   0.759   2.727  0.6665  0.2218 -0.6868
  959MOL0     C29397   6.629   0.744   2.637  0.4480  0.3064  1.0103
  959MOL0     H29398   6.390   1.103   2.867 -1.4020  1.2998 -0.8114
  959MOL0     H29399   6.177   1.161   2.950  1.2411 -0.3206  2.1551
  959MOL0     H29400   5.972   1.175   3.052  0.3905 -0.8084 -1.8507
  959MOL0     H29401   5.871   1.069   2.945 -0.9387 -0.4491 -0.0705
  959MOL0     H29402   5.842   1.124   3.257 -1.5576  0.4638 -0.8299
  959MOL0     H29403   5.758   1.002   3.158  0.6191 -1.6767  0.0313
  959MOL0     H29404   5.631   1.194   3.195  0.2086 -1.1720 -0.0232
  959MOL0     H29405   5.668   1.180   3.016  0.3941  0.8343  0.3192
  959MOL0     H29406   5.769   1.391   3.210  2.2250 -0.7923  0.6856
  959MOL0     H29407   5.857   1.357   3.059  0.3643  1.6609  1.7420
  959MOL0     H29408   5.565   1.410   3.067 -0.2747  2.7937  1.7719
  959MOL0     H29409   5.680   1.544   3.079  1.9541 -1.4575  4.7421
  959MOL0     H29410   5.773   1.460   2.840 -1.8170  1.4122 -1.9217
  959MOL0     H29411   5.660   1.326   2.845  2.6494  0.1600  0.4331
  959MOL0     H29412   5.575   1.610   2.810  0.2338  0.6856  2.3186
  959MOL0     H29413   5.466   1.470   2.847  0.7617 -0.8356  1.6774
  959MOL0     H29414   5.551   1.353   2.645  1.8686 -0.1228 -3.2625
  959MOL0     H29415   5.475   1.505   2.600 -1.0326  0.5115  1.4675
  959MOL0     H29416   5.810   1.317   2.631  3.7778 -0.7951 -2.0930
  959MOL0     H29417   5.950   1.257   2.401  0.8393  0.5148 -0.4608
  959MOL0     H29418   6.006   1.398   2.316  0.7622  1.1740  1.2320
  959MOL0     H29419   6.071   1.332   2.607  1.3524  1.3001  0.7541
  959MOL0     H29420   6.171   1.274   2.475 -0.0759 -0.5963  2.4634
  959MOL0     H29421   6.114   1.573   2.501  0.1852 -0.6185 -2.8815
  959MOL0     H29422   6.250   1.483   2.418 -0.4159 -0.9908 -0.9600
  959MOL0     H29423   6.225   1.531   2.717  2.3742 -0.7059  0.7633
  959MOL0     H29424   6.347   1.589   2.606  1.9567 -1.0616  0.4056
  959MOL0     H29425   6.471   1.514   2.466 -1.8492  0.1043  3.6537
  959MOL0     H29426   6.653   1.415   2.316  0.4714  0.5063  0.1933
  959MOL0     H29427   7.001   0.979   2.593 -1.3887  0.3921  0.2689
  959MOL0     H29428   7.227   0.953   2.575 -1.1149 -3.8202  0.1107
  959MOL0     H29429   7.489   1.176   2.363 -0.8377 -0.0541 -0.3003
  959MOL0     H29430   7.402   1.121   2.516  0.0600 -0.8342  0.2265
  959MOL0     H29431   7.621   1.067   2.564 -1.6529 -2.8433  2.8934
  959MOL0     H29432   7.542   0.910   2.519  1.8458 -0.3600 -0.3417
  959MOL0     H29433   7.609   0.939   2.282 -0.4748  0.7747  0.3795
  959MOL0     H29434   7.696   1.080   2.333 -5.6187  2.4781 -0.0013
  959MOL0     H29435   7.741   0.789   2.424 -3.9892  0.9804  2.0923
  959MOL0     H29436   7.798   0.905   2.525 -1.8245 -2.8074  0.3337
  959MOL0     H29437   7.937   1.017   2.346 -1.3016  1.5126  1.3632
  959MOL0     H29438   7.850   0.946   2.220 -0.7483 -0.5025  0.3310
  959MOL0     H29439   8.017   0.787   2.422  0.0624  0.2254  0.6615
  959MOL0     H29440   7.946   0.712   2.284  2.2132 -0.3668  1.2446
  959MOL0     H29441   8.187   0.801   2.260 -1.1434 -0.5839 -0.5807
  959MOL0     H29442   8.131   0.966   2.250  0.6792  0.6025 -0.8684
  959MOL0     H29443   8.041   0.750   2.051  0.5259  0.7460 -1.1761
  959MOL0     H29444   8.010   0.930   2.043 -1.3390 -0.9431 -0.1904
  959MOL0     H29445   7.228   1.053   2.161 -1.6549  0.3373 -0.2080
  959MOL0     H29446   6.987   1.093   2.176  0.8566  1.7456  1.2593
  959MOL0     H29447   6.625   1.056   2.556  0.2825 -1.2055 -0.9587
  959MOL0     H29448   6.447   1.155   2.674 -2.3995  3.3250  0.5490
  959MOL0     H29449   6.115   0.755   3.107 -4.0464  1.3374 -3.3718
  959MOL0     H29450   6.351   0.700   3.017 -1.7369 -0.6715 -1.2195
  959MOL0     H29451   6.847   0.932   3.007  0.2672 -0.5478  0.8005
  959MOL0     H29452   7.057   0.812   2.943  0.5134  3.7448 -2.3574
  959MOL0     H29453   7.111   0.653   2.545 -2.5237  0.5402 -0.4428
  959MOL0     H29454   7.062   0.498   2.612  1.3992 -0.9433 -3.1939
  959MOL0     H29455   7.285   0.498   2.513  0.0703  1.7102 -0.5206
  959MOL0     H29456   7.310   0.466   2.688  2.7963  1.1458  0.3140
  959MOL0     H29457   7.327   0.739   2.542 -1.3303 -0.2343  0.2807
  959MOL0     H29458   7.467   0.634   2.585  1.5642 -0.5174  4.5346
  959MOL0     H29459   7.318   0.786   2.787 -0.3090  0.6314 -0.0678
  959MOL0     H29460   7.385   0.632   2.821 -2.7120 -0.1871 -0.8258
  959MOL0     H29461   7.729   0.884   2.801 -1.0430  1.6458 -0.5802
  959MOL0     H29462   6.872   0.617   2.620 -1.1382 -3.9576  3.2080
  959MOL0     H29463   6.555   0.672   2.673 -1.8486  0.9072 -2.0680
  959MOL0     H29464   6.580   0.841   2.631  1.5400  0.8868  1.4013
  959MOL0     H29465   6.645   0.729   2.529  0.0546  2.0424  0.6850
  960MOL0     O29466   5.580   2.338   3.690 -1.3250 -0.1140 -0.5504
  960MOL0     C29467   5.505   2.379   3.603 -0.0295  0.0565 -0.1733
  960MOL0     O29468   5.489   2.508   3.566 -0.5559 -0.2123  0.4481
  960MOL0     C29469   5.536   2.614   3.632  0.5263  0.2929 -0.6674
  960MOL0     C29470   5.571   2.727   3.555  0.5205 -0.4451 -0.6962
  960MOL0     C29471   5.615   2.848   3.611 -0.7935 -0.6986  0.0169
  960MOL0     C29472   5.643   2.845   3.750  0.2072 -1.7408 -0.1236
  960MOL0     O29473   5.690   2.963   3.793  0.5479  0.4484 -0.0673
  960MOL0     C29474   5.769   2.971   3.903 -0.0847  0.0923 -0.2944
  960MOL0     C29475   5.864   3.092   3.901  0.6984 -0.2027  0.4614
  960MOL0     C29476   5.969   3.067   3.794  1.0607  0.1548  0.7073
  960MOL0     C29477   6.078   3.172   3.778 -1.3791 -0.8142  0.6494
  960MOL0     C29478   6.170   3.179   3.899  0.5955  0.7858  0.5890
  960MOL0     C29479   6.268   3.300   3.880  0.5080 -0.1366 -0.0897
  960MOL0     C29480   6.346   3.321   4.008 -0.4942  0.5252  0.2833
  960MOL0     C29481   6.461   3.425   3.970 -0.5432  0.1019 -0.1320
  960MOL0     N29482   6.576   3.413   4.057 -0.7417  0.8868  0.7224
  960MOL0     C29483   6.700   3.455   4.012  0.6631  0.9259  0.0267
  960MOL0     C29484   6.783   3.399   4.108  0.0528  0.5802 -0.2681
  960MOL0     C29485   6.929   3.398   4.104  0.0473 -0.0592 -0.7669
  960MOL0     C29486   6.989   3.432   4.237 -1.2753 -0.8260 -0.3748
  960MOL0     C29487   7.143   3.450   4.203  0.9898 -0.4960  0.7041
  960MOL0     C29488   7.217   3.458   4.344 -0.3835  0.2022 -0.2842
  960MOL0     O29489   7.192   3.590   4.406 -0.6304 -0.2523 -0.0756
  960MOL0     C29490   7.280   3.689   4.350  0.5506 -0.3924 -0.0217
  960MOL0     C29491   7.400   3.705   4.396  0.0387 -0.5544  0.0257
  960MOL0     C29492   7.486   3.808   4.347  1.3122 -0.4010 -1.2427
  960MOL0     C29493   7.448   3.896   4.250  0.8722  0.5618  0.8990
  960MOL0     C29494   7.551   3.987   4.198  0.3921  0.6548  0.6758
  960MOL0     O29495   7.684   3.959   4.221 -0.3447  0.5863 -0.0956
  960MOL0     C29496   7.777   4.055   4.208  0.7622  0.1323  0.3064
  960MOL0     C29497   7.852   4.088   4.323 -0.1842  0.3424 -0.4171
  960MOL0     C29498   7.946   4.188   4.324  0.7930 -0.1360  0.3300
  960MOL0     C29499   7.972   4.261   4.209 -1.0797 -1.4722  0.5773
  960MOL0     O29500   8.059   4.363   4.211  0.0654 -0.1535 -0.1759
  960MOL0     C29501   8.184   4.370   4.133  0.6998  0.6685  0.1248
  960MOL0     C29502   8.250   4.504   4.155  0.1081 -0.0884  1.1167
  960MOL0     C29503   8.364   4.512   4.048  0.4092  0.4692 -0.1531
  960MOL0     C29504   8.312   4.539   3.906 -0.5019 -0.1370  1.0650
  960MOL0     C29505   8.413   4.624   3.829 -0.3007  0.3518 -0.1504
  960MOL0     C29506   8.388   4.604   3.675  0.0850 -0.2344  0.4719
  960MOL0     C29507   8.441   4.721   3.588  0.3143  0.3050 -0.1490
  960MOL0     C29508   8.398   4.708   3.435  0.2323  0.4843 -0.5019
  960MOL0    Cl29509   8.503   4.802   3.329 -0.0988 -0.1497  0.3499
  960MOL0     C29510   7.905   4.225   4.086 -0.0098  0.8108 -0.8315
  960MOL0     C29511   7.798   4.130   4.091  0.7010  0.8324 -0.5635
  960MOL0     O29512   7.508   4.084   4.138  0.2692  0.0561 -0.2110
  960MOL0     C29513   7.315   3.873   4.195  0.9584  0.8412  0.1876
  960MOL0     C29514   7.230   3.776   4.254  0.4529  0.1545 -0.8610
  960MOL0     N29515   6.708   3.344   4.209  0.4353  0.6578  0.0675
  960MOL0     N29516   6.581   3.357   4.180 -0.0256 -0.4530  0.9212
  960MOL0     C29517   5.619   2.733   3.827  0.0459 -0.5224 -0.7472
  960MOL0     C29518   5.557   2.620   3.772 -0.4480 -0.5790  0.1477
  960MOL0     C29519   5.416   2.297   3.510 -0.8047  0.6653 -0.1106
  960MOL0     C29520   5.331   2.355   3.418 -0.7065  1.0873 -0.1836
  960MOL0     C29521   5.253   2.275   3.337 -0.4468  0.0438 -0.0311
  960MOL0     C29522   5.247   2.142   3.359  0.7732 -0.8644 -0.6964
  960MOL0     O29523   5.152   2.076   3.281 -0.2736  0.1172  0.2773
  960MOL0     C29524   5.165   1.941   3.259 -1.0295 -0.2747  0.4110
  960MOL0     C29525   5.042   1.900   3.185  0.3243 -0.2282  0.0360
  960MOL0     C29526   5.047   1.745   3.164 -0.5840 -0.4294  0.2043
  960MOL0     C29527   5.009   1.691   3.028  0.1071 -0.4813  0.1823
  960MOL0     C29528   5.030   1.550   3.015 -0.7490  0.1818  0.6493
  960MOL0     C29529   5.042   1.434   2.970 -0.2220  0.1945 -0.1614
  960MOL0     C29530   5.337   2.078   3.442 -0.0431 -0.6885 -0.6161
  960MOL0     C29531   5.421   2.150   3.527  0.1174  0.3073  0.8132
  960MOL0     C29532   5.503   2.069   3.626  0.6713  0.7173  0.0859
  960MOL0     H29533   5.547   2.711   3.451 -1.0095  4.0375 -1.2645
  960MOL0     H29534   5.625   2.943   3.559 -2.2099 -1.2193 -1.2806
  960MOL0     H29535   5.715   2.974   3.998  1.0926  1.0174  0.3677
  960MOL0     H29536   5.828   2.879   3.913 -4.5098 -2.8331  2.0598
  960MOL0     H29537   5.920   3.103   3.994  1.4336  3.5077 -0.2748
  960MOL0     H29538   5.798   3.176   3.880  0.5350 -0.6393 -0.8333
  960MOL0     H29539   5.904   3.052   3.707  1.4748  2.0472  0.0156
  960MOL0     H29540   6.019   2.970   3.800 -0.6660 -0.8275 -0.0107
  960MOL0     H29541   6.132   3.160   3.684 -3.6357  1.1277 -1.0127
  960MOL0     H29542   6.028   3.270   3.774 -1.5902 -0.8180  2.3651
  960MOL0     H29543   6.116   3.179   3.994 -1.1270  2.4411 -0.3405
  960MOL0     H29544   6.240   3.095   3.904  3.6915  3.1137  0.3091
  960MOL0     H29545   6.326   3.267   3.794  1.2067 -3.1762  1.3880
  960MOL0     H29546   6.211   3.391   3.859 -0.1467 -0.2188  1.2089
  960MOL0     H29547   6.398   3.230   4.041  0.5151  0.6201 -0.9502
  960MOL0     H29548   6.286   3.364   4.088 -0.8089  1.1496 -0.2837
  960MOL0     H29549   6.503   3.389   3.876 -0.3534  4.7985 -2.1342
  960MOL0     H29550   6.418   3.525   3.965  0.4237  0.5428  0.1215
  960MOL0     H29551   6.715   3.504   3.916 -3.2881  1.9191 -0.2201
  960MOL0     H29552   6.965   3.300   4.071  2.7587  0.9258 -0.9842
  960MOL0     H29553   6.965   3.466   4.026 -0.7170 -1.4023 -2.3873
  960MOL0     H29554   6.944   3.519   4.287 -0.5271 -1.9329  2.4188
  960MOL0     H29555   6.975   3.349   4.306 -2.5210  0.4829  1.0279
  960MOL0     H29556   7.158   3.541   4.144 -1.4667  0.4138  1.3488
  960MOL0     H29557   7.178   3.356   4.160 -2.0528 -1.6023  0.4326
  960MOL0     H29558   7.324   3.439   4.330 -0.7874 -1.7505 -1.1871
  960MOL0     H29559   7.177   3.383   4.413  1.6750  0.5281  1.3621
  960MOL0     H29560   7.428   3.626   4.465 -0.7143 -1.8281 -1.0805
  960MOL0     H29561   7.590   3.802   4.375  0.9328 -0.9588  0.1486
  960MOL0     H29562   7.848   4.033   4.416  0.2876  1.0927  0.0504
  960MOL0     H29563   8.011   4.204   4.409  2.6507  2.5313 -1.4374
  960MOL0     H29564   8.245   4.289   4.175 -2.6555 -0.5738  3.1166
  960MOL0     H29565   8.169   4.352   4.026  5.6604 -3.0532 -0.3282
  960MOL0     H29566   8.183   4.590   4.153 -0.0068 -0.0919 -2.4263
  960MOL0     H29567   8.287   4.516   4.257 -1.7442  0.9344  1.7195
  960MOL0     H29568   8.433   4.586   4.089 -1.3101  2.3567 -0.4862
  960MOL0     H29569   8.415   4.417   4.032 -1.4294 -0.3222 -1.7295
  960MOL0     H29570   8.218   4.596   3.900  0.3893  1.2475 -1.1092
  960MOL0     H29571   8.292   4.444   3.857 -1.8863 -0.6625  2.5577
  960MOL0     H29572   8.515   4.593   3.853 -0.5826 -1.4504 -1.0973
  960MOL0     H29573   8.404   4.724   3.871 -0.5365 -0.6469  2.3654
  960MOL0     H29574   8.432   4.508   3.644 -0.7834  0.3683 -3.0420
  960MOL0     H29575   8.282   4.588   3.656  0.4684 -0.7319 -1.5491
  960MOL0     H29576   8.550   4.721   3.595  0.4200 -0.6892 -1.3250
  960MOL0     H29577   8.400   4.810   3.636  0.5001  0.1162  0.3610
  960MOL0     H29578   8.385   4.603   3.409  0.9255  0.1987  0.2706
  960MOL0     H29579   8.291   4.733   3.431 -0.0325 -0.6137 -0.7258
  960MOL0     H29580   7.944   4.277   3.998  3.7500 -0.9278 -0.4011
  960MOL0     H29581   7.735   4.116   4.004  2.2519  2.6624 -2.0638
  960MOL0     H29582   7.284   3.944   4.120  0.1912  2.4274  1.9284
  960MOL0     H29583   7.129   3.763   4.216 -0.1081 -2.1444  1.1808
  960MOL0     H29584   5.645   2.743   3.932  1.5115  2.0899 -1.2649
  960MOL0     H29585   5.553   2.524   3.823  4.7557 -1.5625 -0.7625
  960MOL0     H29586   5.316   2.462   3.409 -1.8232  1.0087  0.5520
  960MOL0     H29587   5.181   2.320   3.269  0.5637 -2.1356 -2.7382
  960MOL0     H29588   5.176   1.879   3.348 -0.6315 -4.0086 -2.0281
  960MOL0     H29589   5.252   1.922   3.195 -0.1664 -0.0732  1.5026
  960MOL0     H29590   5.038   1.953   3.089  1.6174  0.4061  0.3060
  960MOL0     H29591   4.953   1.923   3.244  1.5383  0.4730  1.6949
  960MOL0     H29592   4.980   1.706   3.241  0.1827  4.2150  3.6775
  960MOL0     H29593   5.148   1.711   3.191 -1.1917  0.1959  3.8119
  960MOL0     H29594   4.902   1.703   3.012  0.3191  0.8767 -0.3379
  960MOL0     H29595   5.062   1.735   2.942  0.2983 -1.5679 -0.2766
  960MOL0     H29596   5.067   1.339   2.929 -3.3667 -1.0699  0.5854
  960MOL0     H29597   5.323   1.970   3.450 -2.4987 -0.4036 -0.1385
  960MOL0     H29598   5.607   2.101   3.618  0.5932  0.7867 -0.7133
  960MOL0     H29599   5.465   2.090   3.727  2.6872 -1.0355  1.2881
  960MOL0     H29600   5.490   1.963   3.602 -0.1341  0.6476  0.7977
  961MOL0     O29601   1.832   3.429   3.949  0.7755 -0.7616 -0.4935
  961MOL0     C29602   1.800   3.313   3.921  0.2605  0.2736  1.0839
  961MOL0     O29603   1.851   3.204   3.984 -0.0684  1.1722 -0.4150
  961MOL0     C29604   1.972   3.225   4.051  0.6779  0.1899  0.3377
  961MOL0     C29605   1.965   3.252   4.182 -0.1441  0.4014  0.7092
  961MOL0     C29606   2.081   3.283   4.253  0.0871  0.4742  0.0300
  961MOL0     C29607   2.205   3.284   4.189  0.4632  0.8149  0.6504
  961MOL0     O29608   2.318   3.320   4.253 -0.4071 -1.1383  0.6868
  961MOL0     C29609   2.355   3.237   4.359 -0.0488  0.3062 -0.0205
  961MOL0     C29610   2.507   3.261   4.400  0.0757  0.3851  0.1734
  961MOL0     C29611   2.608   3.158   4.359  0.3927 -0.4330  0.2259
  961MOL0     C29612   2.748   3.199   4.392 -0.4531 -0.3897  0.3406
  961MOL0     C29613   2.778   3.179   4.541 -0.2016 -0.3519  0.5991
  961MOL0     C29614   2.926   3.188   4.553 -0.0411  1.1374 -0.2621
  961MOL0     C29615   2.972   3.172   4.702 -0.1293  0.7989 -0.0185
  961MOL0     C29616   3.123   3.148   4.702  0.0418 -0.2581 -0.8524
  961MOL0     N29617   3.172   3.113   4.835 -1.2347 -0.8909  0.3587
  961MOL0     C29618   3.252   3.006   4.868  0.6642  0.0248  0.2722
  961MOL0     C29619   3.271   3.023   5.000 -0.1202  0.4258 -1.1069
  961MOL0     C29620   3.351   2.940   5.097 -0.1750 -0.2696 -0.0790
  961MOL0     C29621   3.310   2.795   5.077 -0.2722 -0.1546 -0.5591
  961MOL0     C29622   3.390   2.698   5.168 -0.5067 -0.1089 -0.7318
  961MOL0     C29623   3.525   2.668   5.118  0.7944 -0.0167 -0.5837
  961MOL0     O29624   3.629   2.761   5.154  0.1796 -0.7279 -0.0691
  961MOL0     C29625   3.697   2.767   5.272 -0.2876 -0.6802 -0.2130
  961MOL0     C29626   3.790   2.867   5.277  0.3399 -0.5773  0.4314
  961MOL0     C29627   3.876   2.876   5.391 -0.0896  1.6904 -0.2686
  961MOL0     C29628   3.883   2.777   5.498  0.3725 -0.2398  0.4865
  961MOL0     C29629   3.979   2.802   5.602 -0.3225  0.6780 -0.3098
  961MOL0     O29630   4.083   2.875   5.571 -0.9117  0.2428  1.1003
  961MOL0     C29631   4.173   2.923   5.659 -0.5625  0.2969 -1.3672
  961MOL0     C29632   4.295   2.987   5.610 -0.3877  0.3060 -0.1237
  961MOL0     C29633   4.394   3.034   5.695  0.0005  0.0731  1.0042
  961MOL0     C29634   4.366   3.042   5.832  0.8010  0.9601 -0.3758
  961MOL0     O29635   4.470   3.091   5.904 -0.0197  0.4376 -0.2561
  961MOL0     C29636   4.454   3.196   5.995  0.1606 -0.1969 -0.3964
  961MOL0     C29637   4.443   3.325   5.917 -0.7107 -0.1863 -0.3537
  961MOL0     C29638   4.426   3.442   5.996 -0.6011 -0.1385  0.4044
  961MOL0     C29639   4.282   3.460   6.056  0.5433  0.0016  0.2787
  961MOL0     C29640   4.259   3.600   6.107 -0.0874 -0.7712  0.0399
  961MOL0     C29641   4.126   3.611   6.175  0.9915 -0.5302 -0.4128
  961MOL0     C29642   4.146   3.652   6.320  0.8056 -0.9739 -0.4996
  961MOL0     C29643   4.011   3.673   6.399  0.2079 -0.5273 -0.2653
  961MOL0    Cl29644   3.907   3.779   6.302  0.3033 -0.5664 -0.1295
  961MOL0     C29645   4.248   2.993   5.887  0.1916  0.0291 -0.2946
  961MOL0     C29646   4.151   2.933   5.803 -1.0239 -0.0850 -0.6715
  961MOL0     O29647   3.974   2.729   5.702  0.5982 -0.1505  0.1956
  961MOL0     C29648   3.787   2.671   5.488  0.0611 -0.1074 -0.4921
  961MOL0     C29649   3.695   2.665   5.379  0.6451 -0.6577 -0.6817
  961MOL0     N29650   3.196   3.132   5.043 -0.2125 -0.4285  0.1834
  961MOL0     N29651   3.137   3.185   4.944  0.3126 -0.3475 -0.0574
  961MOL0     C29652   2.210   3.247   4.059 -0.2544 -0.3350  0.5658
  961MOL0     C29653   2.096   3.223   3.979 -0.0936  0.5621 -0.1953
  961MOL0     C29654   1.681   3.294   3.827 -0.1421 -0.7143 -0.6463
  961MOL0     C29655   1.605   3.185   3.865 -0.3924  0.2900 -0.5340
  961MOL0     C29656   1.488   3.153   3.794 -0.2827 -0.3470 -0.6919
  961MOL0     C29657   1.456   3.233   3.682  0.2357  0.6351  1.7172
  961MOL0     O29658   1.336   3.251   3.620  0.3418 -0.5113  0.1271
  961MOL0     C29659   1.235   3.158   3.641 -0.2360  0.5050  0.8608
  961MOL0     C29660   1.139   3.148   3.515 -0.3600 -0.9859 -0.4816
  961MOL0     C29661   1.015   3.220   3.539 -0.1417 -0.6189  0.7190
  961MOL0     C29662   0.937   3.243   3.410 -0.7060  0.5891 -0.4538
  961MOL0     C29663   0.811   3.312   3.431  0.6480  0.4178  0.7706
  961MOL0     C29664   0.717   3.388   3.455 -1.1904  0.1784 -0.1884
  961MOL0     C29665   1.545   3.324   3.636 -0.1320  0.1402 -0.4375
  961MOL0     C29666   1.670   3.354   3.705 -1.5252 -0.7059 -0.7476
  961MOL0     C29667   1.764   3.461   3.652  0.6143 -0.2435 -0.2069
  961MOL0     H29668   1.866   3.249   4.225 -1.8941  0.1666 -2.9157
  961MOL0     H29669   2.077   3.300   4.360  1.0404 -2.6641  0.6555
  961MOL0     H29670   2.301   3.272   4.448 -0.0932 -0.6279  0.3354
  961MOL0     H29671   2.329   3.130   4.362 -0.6700  0.3917  3.8452
  961MOL0     H29672   2.507   3.258   4.510  0.9304 -0.2438  0.1601
  961MOL0     H29673   2.541   3.363   4.379  1.1752  0.2049  0.9619
  961MOL0     H29674   2.609   3.159   4.249 -0.7071 -0.1473  0.2084
  961MOL0     H29675   2.590   3.056   4.395  1.3404 -0.5765  0.3365
  961MOL0     H29676   2.804   3.129   4.329 -0.4841 -0.9612  0.9431
  961MOL0     H29677   2.768   3.299   4.353  0.8194 -0.8950 -0.3624
  961MOL0     H29678   2.728   3.258   4.597  0.2107  2.6537 -2.8678
  961MOL0     H29679   2.741   3.079   4.563 -0.3219 -0.2185  1.0098
  961MOL0     H29680   2.972   3.105   4.500 -0.7947 -1.5929  3.0567
  961MOL0     H29681   2.975   3.275   4.508  2.4627  0.8556  1.7090
  961MOL0     H29682   2.920   3.089   4.752 -2.3743  0.2885 -2.9031
  961MOL0     H29683   2.954   3.262   4.760  0.6373 -0.4670  2.3297
  961MOL0     H29684   3.142   3.062   4.638  1.4940  0.3202 -1.2282
  961MOL0     H29685   3.181   3.235   4.671  0.7524 -1.1001 -1.9386
  961MOL0     H29686   3.294   2.941   4.791  1.6177  3.1131 -2.0557
  961MOL0     H29687   3.454   2.969   5.075 -1.4454  3.0419 -2.6712
  961MOL0     H29688   3.335   2.974   5.200  1.1716 -0.0816  0.0881
  961MOL0     H29689   3.206   2.786   5.110  0.1326  0.6835  1.1078
  961MOL0     H29690   3.306   2.756   4.975  0.7308  1.7067 -1.3550
  961MOL0     H29691   3.328   2.608   5.164  0.0069 -0.5970  1.4182
  961MOL0     H29692   3.390   2.747   5.266 -1.8583  0.3393 -0.9434
  961MOL0     H29693   3.506   2.644   5.013 -1.4820 -1.6215  0.1124
  961MOL0     H29694   3.557   2.570   5.156 -0.5074  0.5384  2.1841
  961MOL0     H29695   3.767   2.944   5.204 -1.4930 -2.1633 -0.7635
  961MOL0     H29696   3.928   2.972   5.392 -0.6626  2.2786 -4.9653
  961MOL0     H29697   4.300   2.989   5.501 -0.2739 -0.2504 -0.1333
  961MOL0     H29698   4.489   3.075   5.662  0.7780  0.0853  3.0963
  961MOL0     H29699   4.356   3.176   6.039 -0.7543  1.6924 -1.4504
  961MOL0     H29700   4.538   3.194   6.065  0.0920  2.2362 -0.1581
  961MOL0     H29701   4.535   3.341   5.860  0.1915  0.5332  1.2579
  961MOL0     H29702   4.355   3.308   5.854  0.6559 -1.4035 -2.0492
  961MOL0     H29703   4.507   3.455   6.068 -1.0585 -1.6894  1.2230
  961MOL0     H29704   4.440   3.514   5.915 -0.1780 -1.1077 -0.4062
  961MOL0     H29705   4.273   3.388   6.138  2.1728  0.3005  0.7592
  961MOL0     H29706   4.213   3.430   5.977  1.5042  1.5105 -1.1868
  961MOL0     H29707   4.255   3.662   6.017  1.3858  1.2500  1.2485
  961MOL0     H29708   4.336   3.631   6.180 -0.4094 -2.4253  1.1364
  961MOL0     H29709   4.059   3.674   6.115 -0.1769 -1.3640 -0.0256
  961MOL0     H29710   4.085   3.510   6.177  1.0567 -0.5543  1.5029
  961MOL0     H29711   4.216   3.736   6.319 -0.5622  0.2384 -2.6418
  961MOL0     H29712   4.196   3.568   6.369 -0.6686 -1.3229  0.4853
  961MOL0     H29713   3.965   3.574   6.408  1.0301 -0.8581  0.5575
  961MOL0     H29714   4.027   3.716   6.498 -0.6927 -3.0046  1.0422
  961MOL0     H29715   4.238   3.009   5.994  2.0604  0.2711 -0.1277
  961MOL0     H29716   4.056   2.903   5.846 -1.3885  0.1780 -1.2808
  961MOL0     H29717   3.776   2.604   5.573  1.9631  2.0553  1.6223
  961MOL0     H29718   3.640   2.572   5.365 -0.7735 -0.3544  2.1604
  961MOL0     H29719   2.303   3.255   4.003  1.0816 -3.8902  2.0023
  961MOL0     H29720   2.093   3.205   3.872 -1.4748  3.0340 -0.6410
  961MOL0     H29721   1.629   3.132   3.957 -1.1438  1.9894  0.7070
  961MOL0     H29722   1.420   3.079   3.837 -0.6892  1.9362  3.0046
  961MOL0     H29723   1.191   3.183   3.738 -0.1067 -0.8983  1.3082
  961MOL0     H29724   1.281   3.060   3.654  1.5892  1.1378 -0.4281
  961MOL0     H29725   1.108   3.043   3.521 -3.7707 -0.0292  3.7531
  961MOL0     H29726   1.199   3.176   3.428  1.9447  0.3764  1.4123
  961MOL0     H29727   1.036   3.318   3.582 -3.4012 -0.2563  1.7406
  961MOL0     H29728   0.951   3.172   3.614 -0.0024 -1.6967  0.1683
  961MOL0     H29729   0.996   3.307   3.343 -1.1674  0.3143 -1.1342
  961MOL0     H29730   0.927   3.148   3.356  0.4644  0.9662 -1.3896
  961MOL0     H29731   0.657   3.468   3.492 -1.9328 -0.2154 -0.5187
  961MOL0     H29732   1.513   3.376   3.546 -3.2537 -3.2619 -1.5231
  961MOL0     H29733   1.867   3.423   3.655  0.4329 -0.7344 -0.1217
  961MOL0     H29734   1.743   3.492   3.549  0.9721 -3.2353 -1.2644
  961MOL0     H29735   1.744   3.546   3.718 -1.4233 -1.2722  0.5888
  962MOL0     O29736   1.359   9.093   5.604  0.3945 -0.1303  0.4048
  962MOL0     C29737   1.300   8.985   5.605 -0.4576  0.0081  0.6614
  962MOL0     O29738   1.304   8.901   5.500 -0.8445 -1.1279 -0.1678
  962MOL0     C29739   1.370   8.936   5.380  0.1035  0.2132 -0.2088
  962MOL0     C29740   1.510   8.939   5.366 -0.2738 -0.0952  0.2626
  962MOL0     C29741   1.575   8.953   5.248  0.1274 -0.0133 -0.0432
  962MOL0     C29742   1.499   8.940   5.131 -0.4894  0.1441 -0.2991
  962MOL0     O29743   1.568   8.964   5.016  0.1981  0.1904 -0.3402
  962MOL0     C29744   1.487   8.980   4.896  0.5123  1.1147  0.7600
  962MOL0     C29745   1.564   8.995   4.762  1.0454  0.5311 -0.3142
  962MOL0     C29746   1.666   8.882   4.754  0.1074 -0.1358 -0.5716
  962MOL0     C29747   1.759   8.900   4.627  0.4154  1.0865 -1.2733
  962MOL0     C29748   1.887   8.814   4.633 -0.4313  0.3552  0.6091
  962MOL0     C29749   1.897   8.668   4.582  0.5620  1.0893 -0.0455
  962MOL0     C29750   1.822   8.577   4.681  1.2824 -0.5390 -0.1193
  962MOL0     C29751   1.853   8.433   4.634  0.0045 -0.4116  0.3541
  962MOL0     N29752   1.971   8.391   4.709  0.1381  0.3332 -0.4299
  962MOL0     C29753   1.983   8.347   4.838  0.6073 -0.3048 -0.0469
  962MOL0     C29754   2.116   8.341   4.871  0.5938  0.0064  0.3345
  962MOL0     C29755   2.185   8.285   4.994 -0.5467  0.8053  0.7920
  962MOL0     C29756   2.139   8.354   5.117  0.2865 -0.0330 -0.4001
  962MOL0     C29757   2.176   8.501   5.132 -0.3489 -0.7555 -0.1459
  962MOL0     C29758   2.110   8.560   5.269  0.0240  0.1502 -0.0996
  962MOL0     O29759   2.152   8.694   5.307 -1.0214 -0.4890  0.8357
  962MOL0     C29760   2.079   8.801   5.253 -0.7860  0.0965  0.0651
  962MOL0     C29761   2.105   8.924   5.309 -0.1233  0.5700 -0.5016
  962MOL0     C29762   2.045   9.037   5.265 -0.3365 -0.3536  0.4465
  962MOL0     C29763   1.961   9.034   5.157  0.3985  0.2929 -0.2624
  962MOL0     C29764   1.894   9.159   5.123  0.1188 -0.0599  0.0847
  962MOL0     O29765   1.792   9.149   5.037  0.0438  0.1244  0.6225
  962MOL0     C29766   1.731   9.270   5.004  0.7274 -0.1864 -0.2578
  962MOL0     C29767   1.789   9.368   4.925 -0.4724  0.8593 -0.8586
  962MOL0     C29768   1.728   9.492   4.902  0.3593  0.5183  1.1175
  962MOL0     C29769   1.608   9.517   4.968  0.2921 -1.2194 -0.2917
  962MOL0     O29770   1.534   9.631   4.944 -0.3077  0.7771  0.2598
  962MOL0     C29771   1.509   9.720   5.049 -0.5155 -0.1225  0.8861
  962MOL0     C29772   1.643   9.782   5.100  0.3664 -0.2594 -0.2319
  962MOL0     C29773   1.620   9.869   5.224  1.0520 -0.2538  0.3711
  962MOL0     C29774   1.731   9.971   5.260 -0.6393 -0.6472 -0.0938
  962MOL0     C29775   1.864   9.915   5.294 -1.4807 -0.5796  0.1935
  962MOL0     C29776   1.862   9.823   5.419  0.5036  0.1964  0.6074
  962MOL0     C29777   1.997   9.804   5.485 -0.1190 -0.5402 -0.2401
  962MOL0     C29778   1.992   9.687   5.587 -0.2641  0.0883  0.2918
  962MOL0    Cl29779   1.859   9.708   5.701  0.0386 -0.1915  0.5223
  962MOL0     C29780   1.546   9.414   5.039  1.0958  0.0924 -0.2361
  962MOL0     C29781   1.605   9.292   5.059 -0.0077  0.4258 -1.0443
  962MOL0     O29782   1.938   9.270   5.177 -0.8342 -0.0950  0.1187
  962MOL0     C29783   1.924   8.911   5.096 -0.8487 -0.9887 -0.0906
  962MOL0     C29784   1.988   8.788   5.150 -0.0692 -0.0111 -0.3042
  962MOL0     N29785   2.179   8.375   4.750  0.0984  0.5458 -0.2438
  962MOL0     N29786   2.097   8.401   4.657  0.3534 -0.2100  0.3414
  962MOL0     C29787   1.366   8.922   5.140 -0.1073  0.0442 -0.0544
  962MOL0     C29788   1.296   8.926   5.260 -0.8965  0.3205  0.5918
  962MOL0     C29789   1.194   8.965   5.692 -0.5276 -0.2485 -0.0676
  962MOL0     C29790   1.068   8.930   5.660 -1.0550  0.2430 -0.3656
  962MOL0     C29791   0.966   8.911   5.755 -0.0577 -0.2481 -0.1463
  962MOL0     C29792   0.998   8.916   5.889  0.2433  0.1029  0.1874
  962MOL0     O29793   0.916   8.868   5.985 -0.1319 -0.8313  0.3836
  962MOL0     C29794   0.839   8.968   6.054  0.1784 -0.2721 -0.3210
  962MOL0     C29795   0.699   8.979   5.991  0.6890 -0.3187 -0.3041
  962MOL0     C29796   0.615   8.863   6.042  0.7894  0.0944 -0.5682
  962MOL0     C29797   0.608   8.751   5.922  0.1507 -0.2733 -0.6895
  962MOL0     C29798   0.536   8.633   5.974 -0.8048 -1.3638 -0.1518
  962MOL0     C29799   0.475   8.554   6.035 -0.3982  0.1893 -0.9906
  962MOL0     C29800   1.126   8.937   5.928 -1.0671 -0.0685 -0.2142
  962MOL0     C29801   1.224   8.975   5.836  0.4621 -0.5524 -0.0053
  962MOL0     C29802   1.360   9.006   5.901  0.5407  0.4367  1.1274
  962MOL0     H29803   1.574   8.932   5.454 -0.7525 -4.4935  0.4946
  962MOL0     H29804   1.681   8.949   5.222 -0.4483  0.1014 -2.7275
  962MOL0     H29805   1.421   8.893   4.885  1.3274 -0.2670  4.8472
  962MOL0     H29806   1.414   9.061   4.908 -0.4423  0.3197  0.4245
  962MOL0     H29807   1.628   9.084   4.762  3.1026 -0.8656 -0.8508
  962MOL0     H29808   1.491   8.992   4.682  0.1554 -0.6030  0.5088
  962MOL0     H29809   1.617   8.784   4.754  0.0018 -0.0891 -1.3628
  962MOL0     H29810   1.725   8.876   4.845  2.1845  0.9485 -1.7588
  962MOL0     H29811   1.704   8.861   4.540  1.3587  1.3961 -2.0226
  962MOL0     H29812   1.779   9.006   4.606  1.6609  0.9730 -0.7159
  962MOL0     H29813   1.960   8.873   4.578  1.8601 -0.9657  2.1074
  962MOL0     H29814   1.922   8.809   4.736 -1.3146 -2.5433  0.8524
  962MOL0     H29815   1.847   8.648   4.487 -1.7682 -1.5028  1.5692
  962MOL0     H29816   2.003   8.641   4.576  0.5163  0.3149  1.8213
  962MOL0     H29817   1.714   8.594   4.677  1.1595 -1.1060  0.5195
  962MOL0     H29818   1.860   8.581   4.784 -1.5022 -0.8660  0.9983
  962MOL0     H29819   1.784   8.352   4.659  1.9526 -3.1464 -2.4072
  962MOL0     H29820   1.866   8.445   4.526  0.6975  2.7583  0.6668
  962MOL0     H29821   1.904   8.308   4.900  1.4699 -2.1365 -0.0389
  962MOL0     H29822   2.146   8.185   5.011 -2.9580  1.9170  2.3904
  962MOL0     H29823   2.292   8.275   4.970 -1.1754 -0.0464 -1.9391
  962MOL0     H29824   2.031   8.339   5.127  0.0753  2.2234  1.7988
  962MOL0     H29825   2.192   8.301   5.197  0.3136  0.8246  0.1769
  962MOL0     H29826   2.138   8.563   5.050 -0.5653 -1.3966 -0.5369
  962MOL0     H29827   2.283   8.524   5.142 -0.2584 -1.6146  1.0116
  962MOL0     H29828   2.138   8.492   5.350  0.9941  0.4519 -0.1621
  962MOL0     H29829   2.005   8.536   5.251  0.2682 -2.8730  1.8667
  962MOL0     H29830   2.177   8.930   5.390  1.9999 -1.0028 -2.1344
  962MOL0     H29831   2.065   9.130   5.319 -0.5424  0.4149 -0.7685
  962MOL0     H29832   1.882   9.348   4.874 -0.2504  0.0433 -0.1621
  962MOL0     H29833   1.771   9.564   4.833 -2.9584 -0.4222 -2.2941
  962MOL0     H29834   1.451   9.796   4.997  1.3505  0.5745 -0.2664
  962MOL0     H29835   1.463   9.674   5.137 -0.2863 -3.5005 -0.5968
  962MOL0     H29836   1.718   9.705   5.124  1.5505  0.2763 -2.0447
  962MOL0     H29837   1.681   9.833   5.012 -0.8555 -1.2349 -1.3692
  962MOL0     H29838   1.526   9.924   5.214  1.6280  1.0734  1.8204
  962MOL0     H29839   1.611   9.802   5.311  0.4442 -1.2842 -0.4677
  962MOL0     H29840   1.691  10.043   5.332  0.4433 -0.5477  0.4357
  962MOL0     H29841   1.748  10.035   5.173  0.2481 -0.2951  0.3300
  962MOL0     H29842   1.940   9.990   5.314 -1.7629 -0.1442 -0.3488
  962MOL0     H29843   1.896   9.851   5.211  2.0341  1.1452  0.0343
  962MOL0     H29844   1.775   9.838   5.483 -0.5886 -1.3153 -0.4425
  962MOL0     H29845   1.829   9.727   5.378  0.0817  0.7096 -0.2646
  962MOL0     H29846   2.027   9.898   5.532 -0.2334 -0.9227  0.6040
  962MOL0     H29847   2.083   9.769   5.427  3.4051  2.5057  2.6777
  962MOL0     H29848   1.973   9.599   5.525 -0.3275  0.5755 -0.3853
  962MOL0     H29849   2.085   9.666   5.640  0.5023 -0.3608 -1.1823
  962MOL0     H29850   1.446   9.412   5.082 -0.3656 -3.3791 -3.2813
  962MOL0     H29851   1.559   9.213   5.117  1.1211  0.8093  0.4338
  962MOL0     H29852   1.856   8.891   5.014  1.0941 -3.7855 -1.1995
  962MOL0     H29853   1.965   8.691   5.107  3.4222  0.3487 -3.6178
  962MOL0     H29854   1.306   8.904   5.051  2.1743 -0.2308 -1.6264
  962MOL0     H29855   1.189   8.909   5.258 -0.8478  0.0592 -0.7738
  962MOL0     H29856   1.038   8.907   5.558  0.1068  2.9267 -1.4119
  962MOL0     H29857   0.870   8.881   5.716 -0.1445 -2.4072  1.5345
  962MOL0     H29858   0.882   9.068   6.049 -1.2325  0.6192  2.8067
  962MOL0     H29859   0.826   8.935   6.158 -2.2250  1.7562  0.1056
  962MOL0     H29860   0.699   8.983   5.882  0.9683  1.0201 -0.2832
  962MOL0     H29861   0.655   9.077   6.016 -2.0050 -1.2621 -1.0251
  962MOL0     H29862   0.516   8.908   6.050  1.3245  1.2641 -0.4082
  962MOL0     H29863   0.633   8.821   6.142 -4.2123  2.0290  1.4599
  962MOL0     H29864   0.555   8.809   5.846 -1.9284  0.0525  0.8938
  962MOL0     H29865   0.707   8.727   5.883  0.4123  0.5666 -0.5546
  962MOL0     H29866   0.434   8.477   6.097  0.6389  0.3141 -0.1281
  962MOL0     H29867   1.158   8.921   6.030 -1.2151 -0.9108 -0.2943
  962MOL0     H29868   1.364   8.979   6.007  0.1470  2.0488  1.5717
  962MOL0     H29869   1.438   8.955   5.845  1.0479  2.1384  0.2259
  962MOL0     H29870   1.384   9.112   5.887  0.7914  0.0420 -2.0107
  963MOL0     O29871   5.303   9.055   5.463  0.3979 -0.6953 -0.2463
  963MOL0     C29872   5.351   9.042   5.572 -0.2445 -0.2522  0.6098
  963MOL0     O29873   5.469   9.104   5.619 -0.4888 -0.8022 -0.3001
  963MOL0     C29874   5.566   9.160   5.538 -0.6012  0.7141  0.0580
  963MOL0     C29875   5.591   9.138   5.400 -0.1688 -0.3701 -0.2593
  963MOL0     C29876   5.698   9.214   5.345 -0.6637 -0.1257 -0.0384
  963MOL0     C29877   5.779   9.310   5.416 -1.1545  0.9482 -0.0606
  963MOL0     O29878   5.889   9.381   5.367  0.1945 -0.4420  0.4593
  963MOL0     C29879   5.931   9.381   5.233 -0.2088 -0.0649  0.0860
  963MOL0     C29880   6.081   9.440   5.246 -1.2780  0.5426  0.5120
  963MOL0     C29881   6.170   9.376   5.369 -0.1459 -0.1990 -0.1884
  963MOL0     C29882   6.322   9.402   5.352 -0.3351  0.0281 -0.5032
  963MOL0     C29883   6.363   9.556   5.341  0.0122 -0.2777 -1.1810
  963MOL0     C29884   6.464   9.578   5.225 -0.9548 -0.4658 -0.3109
  963MOL0     C29885   6.554   9.696   5.252  0.3967 -1.0386  0.6077
  963MOL0     C29886   6.682   9.699   5.158  0.2963  1.5439 -0.5961
  963MOL0     N29887   6.791   9.782   5.212 -0.3239  0.6887 -0.6176
  963MOL0     C29888   6.790   9.925   5.231 -1.3089  0.8286  0.1538
  963MOL0     C29889   6.918   9.964   5.265  0.1447  0.2952  0.7191
  963MOL0     C29890   6.962  10.109   5.303 -0.2739  0.9180 -0.3492
  963MOL0     C29891   6.880  10.162   5.425  0.7935  0.0482  0.6054
  963MOL0     C29892   6.846  10.070   5.536 -1.0470 -0.2008 -0.1416
  963MOL0     C29893   6.971  10.028   5.605  0.1849 -0.0355  0.1143
  963MOL0     O29894   7.008  10.131   5.699  0.2117 -0.0274  0.3671
  963MOL0     C29895   7.074  10.096   5.814 -0.0946 -0.0748 -0.7403
  963MOL0     C29896   7.147   9.973   5.839 -0.1156 -0.1549  0.6471
  963MOL0     C29897   7.223   9.952   5.959  0.5619 -0.7140  0.0355
  963MOL0     C29898   7.219  10.055   6.059  0.1709  0.4042  0.3278
  963MOL0     C29899   7.292  10.029   6.185  0.2569 -1.3481 -0.1650
  963MOL0     O29900   7.263  10.125   6.282 -0.6991  0.7299 -0.1749
  963MOL0     C29901   7.339  10.157   6.386 -1.0314  0.4916  0.5574
  963MOL0     C29902   7.281  10.223   6.486  0.1148  0.0836 -1.0601
  963MOL0     C29903   7.367  10.290   6.580 -0.1250  0.1830 -0.2207
  963MOL0     C29904   7.504  10.291   6.567 -0.4968  0.6161 -0.6845
  963MOL0     O29905   7.577  10.361   6.658  0.7855 -0.6059 -0.7850
  963MOL0     C29906   7.656  10.465   6.599  0.9821  0.5482  0.3626
  963MOL0     C29907   7.805  10.433   6.625 -0.4693  0.5533 -0.5579
  963MOL0     C29908   7.888  10.554   6.603 -0.1085 -0.5643  0.9704
  963MOL0     C29909   8.037  10.518   6.609  0.5359 -0.2963 -0.4553
  963MOL0     C29910   8.134  10.641   6.627  0.8210  0.2865  0.7591
  963MOL0     C29911   8.291  10.600   6.638  0.4058  0.1094 -0.3618
  963MOL0     C29912   8.336  10.534   6.763  0.5246 -0.4412  0.6643
  963MOL0     C29913   8.320  10.622   6.884  0.2966 -0.3853 -0.0350
  963MOL0    Cl29914   8.401  10.545   7.029  0.1443  0.5805  0.5154
  963MOL0     C29915   7.569  10.205   6.465  0.1980 -0.0419 -0.8967
  963MOL0     C29916   7.486  10.142   6.380  0.5337  0.6123  0.7287
  963MOL0     O29917   7.374   9.942   6.196  0.5942 -0.5727  0.1772
  963MOL0     C29918   7.146  10.168   6.039  2.0735 -0.7488  0.6249
  963MOL0     C29919   7.078  10.195   5.916 -1.1205  0.9829  1.1686
  963MOL0     N29920   6.989   9.842   5.251 -0.7378 -0.8730  0.1648
  963MOL0     N29921   6.918   9.738   5.227  0.1396  0.5686  0.7317
  963MOL0     C29922   5.765   9.314   5.551 -0.0683  0.2079 -0.0115
  963MOL0     C29923   5.664   9.239   5.615 -0.0884 -0.0052 -0.5547
  963MOL0     C29924   5.268   8.983   5.676 -0.1133 -0.7135 -0.6541
  963MOL0     C29925   5.322   8.966   5.804 -0.5095  1.1080 -0.8724
  963MOL0     C29926   5.257   8.924   5.917  0.3991  0.4031 -0.2732
  963MOL0     C29927   5.121   8.892   5.907  0.7389  0.2759  0.3903
  963MOL0     O29928   5.037   8.841   6.000 -0.4649 -0.3602  0.3560
  963MOL0     C29929   5.093   8.802   6.126 -0.8069 -0.5131  0.7208
  963MOL0     C29930   4.976   8.766   6.232  0.2232 -0.0451 -0.4884
  963MOL0     C29931   4.878   8.887   6.266 -0.9437  0.8666  0.9141
  963MOL0     C29932   4.759   8.860   6.336  0.5317 -0.4694  0.0693
  963MOL0     C29933   4.703   8.997   6.362  0.4007  0.0156 -1.1473
  963MOL0     C29934   4.682   9.100   6.406  0.3671 -0.0896  0.6535
  963MOL0     C29935   5.061   8.912   5.784 -0.0103  0.0725  0.1438
  963MOL0     C29936   5.131   8.957   5.670 -0.3394 -0.2444  0.8351
  963MOL0     C29937   5.051   8.996   5.550  0.1669  0.3226  0.9181
  963MOL0     H29938   5.537   9.069   5.336 -2.1192 -0.3006  1.2166
  963MOL0     H29939   5.719   9.193   5.241  1.6995  2.4485 -0.1995
  963MOL0     H29940   5.924   9.281   5.188 -5.4983  0.1675 -0.3336
  963MOL0     H29941   5.864   9.444   5.173 -0.7392 -2.7771 -2.4413
  963MOL0     H29942   6.061   9.544   5.272 -1.7725  0.5292  0.2118
  963MOL0     H29943   6.147   9.435   5.159  3.0544 -0.2918  3.5409
  963MOL0     H29944   6.157   9.268   5.366  1.0820 -0.3523 -2.0887
  963MOL0     H29945   6.129   9.412   5.463  1.2203  0.7250  0.0804
  963MOL0     H29946   6.381   9.364   5.435 -0.2331 -2.6364 -1.7074
  963MOL0     H29947   6.359   9.346   5.266 -3.0991 -1.3440 -0.9018
  963MOL0     H29948   6.285   9.628   5.314  0.8969  0.7642 -0.9935
  963MOL0     H29949   6.414   9.589   5.431  1.7441 -1.4304 -1.6882
  963MOL0     H29950   6.531   9.493   5.208  0.0295  0.7219 -2.8737
  963MOL0     H29951   6.401   9.585   5.136 -3.0946 -0.8937  1.0954
  963MOL0     H29952   6.579   9.686   5.358  1.2999 -0.6753  0.4336
  963MOL0     H29953   6.493   9.785   5.235  0.9196 -0.8111 -0.0949
  963MOL0     H29954   6.720   9.597   5.155 -1.0408  1.0456 -1.3731
  963MOL0     H29955   6.654   9.726   5.056 -0.0270  2.5836 -0.2437
  963MOL0     H29956   6.705   9.992   5.225  0.1415  2.7936  0.3096
  963MOL0     H29957   7.069  10.100   5.323 -0.1290  2.7195 -0.2215
  963MOL0     H29958   6.945  10.169   5.213 -1.4732 -0.4126 -1.0590
  963MOL0     H29959   6.930  10.253   5.459 -0.3157  0.9341 -0.0797
  963MOL0     H29960   6.784  10.187   5.379  1.6723  1.5025 -0.5265
  963MOL0     H29961   6.811   9.974   5.499  3.2841 -1.5535 -1.2412
  963MOL0     H29962   6.777  10.113   5.610  1.4703 -0.4616  2.5369
  963MOL0     H29963   7.057  10.019   5.538 -1.2439  0.1521 -1.8559
  963MOL0     H29964   6.946   9.931   5.650 -3.0876  0.7360  0.2167
  963MOL0     H29965   7.130   9.887   5.775  2.1589  0.7636 -1.3221
  963MOL0     H29966   7.278   9.859   5.974 -1.2134 -1.6987  0.6833
  963MOL0     H29967   7.176  10.237   6.510  0.9466  0.5311  3.1361
  963MOL0     H29968   7.329  10.351   6.662 -0.9786 -0.3953 -0.1743
  963MOL0     H29969   7.650  10.468   6.490  2.6984 -1.4092  0.1608
  963MOL0     H29970   7.634  10.563   6.644  2.3394  0.7655  0.5894
  963MOL0     H29971   7.825  10.408   6.729  0.5872 -0.1578 -0.9145
  963MOL0     H29972   7.841  10.360   6.552  1.7209  0.0436  0.9330
  963MOL0     H29973   7.862  10.590   6.503  5.2410 -1.0856 -0.9644
  963MOL0     H29974   7.862  10.630   6.677 -0.2690 -0.4275  0.7775
  963MOL0     H29975   8.057  10.459   6.520  1.9010 -1.1096  0.3537
  963MOL0     H29976   8.051  10.454   6.696  1.3896  0.4754 -0.0102
  963MOL0     H29977   8.090  10.708   6.700 -1.6694  0.0907 -0.4665
  963MOL0     H29978   8.136  10.710   6.542  2.5898  0.0544  0.5637
  963MOL0     H29979   8.321  10.544   6.549  2.4007  0.2379  0.1797
  963MOL0     H29980   8.349  10.693   6.628 -0.0252  0.5335  0.8650
  963MOL0     H29981   8.442  10.525   6.738  1.2010  3.4023  1.6171
  963MOL0     H29982   8.288  10.436   6.776 -1.5894 -0.0670 -2.9911
  963MOL0     H29983   8.359  10.724   6.875  1.0561 -0.6017  0.7565
  963MOL0     H29984   8.212  10.626   6.903  0.4519  0.2928  0.7500
  963MOL0     H29985   7.676  10.201   6.451  0.5841  0.6408  1.4239
  963MOL0     H29986   7.542  10.104   6.295  1.4293  1.7441  0.7773
  963MOL0     H29987   7.131  10.240   6.118 -3.4597 -0.5191 -0.2020
  963MOL0     H29988   7.035  10.294   5.910  1.4588  2.1608  0.9232
  963MOL0     H29989   5.839   9.376   5.601  2.2219 -1.8232 -0.7386
  963MOL0     H29990   5.666   9.254   5.723  3.8415  0.3084 -0.5146
  963MOL0     H29991   5.428   8.986   5.820 -1.3635  4.0208  2.3383
  963MOL0     H29992   5.320   8.917   6.006  1.6014  0.5680 -1.0922
  963MOL0     H29993   5.152   8.885   6.167 -0.0528 -1.9934  2.8263
  963MOL0     H29994   5.146   8.708   6.108 -0.6436  0.1459 -3.0797
  963MOL0     H29995   5.013   8.731   6.328 -2.2489  1.6881  1.2202
  963MOL0     H29996   4.920   8.680   6.195 -1.3532  0.3127  0.9355
  963MOL0     H29997   4.854   8.921   6.165  2.3017 -2.7938 -1.3573
  963MOL0     H29998   4.932   8.963   6.324  1.0767  0.8671 -0.8526
  963MOL0     H29999   4.692   8.792   6.282 -1.3238 -0.1617  1.8494
  963MOL0     H30000   4.787   8.814   6.432  0.0533 -1.9535 -0.4702
  963MOL0     H30001   4.664   9.197   6.447 -0.4012 -0.2483  0.7127
  963MOL0     H30002   4.956   8.892   5.767  0.3446 -1.4821 -0.4220
  963MOL0     H30003   4.945   8.970   5.558  0.2108 -0.2268 -0.1678
  963MOL0     H30004   5.052   9.105   5.537 -0.9684  0.4386  1.6294
  963MOL0     H30005   5.097   8.940   5.468 -3.6618  0.2274 -1.4481
  964MOL0     O30006  11.354  11.381  10.089  1.3135  0.6147  0.4083
  964MOL0     C30007  11.238  11.416  10.097 -0.0879  0.3720  0.8202
  964MOL0     O30008  11.210  11.545  10.122  0.8411 -0.1118  0.1960
  964MOL0     C30009  11.312  11.641  10.112  0.2807 -0.2439 -0.2294
  964MOL0     C30010  11.362  11.680   9.992  1.1308 -1.2580  0.0565
  964MOL0     C30011  11.463  11.777   9.975  0.5471 -1.0093 -0.2740
  964MOL0     C30012  11.525  11.831  10.091 -0.0812  0.5901  0.3113
  964MOL0     O30013  11.630  11.925  10.092  0.1421  0.1589  0.1987
  964MOL0     C30014  11.582  12.058  10.065 -0.5705 -1.1330 -0.3224
  964MOL0     C30015  11.688  12.170  10.075 -0.2325 -0.4178  0.0968
  964MOL0     C30016  11.814  12.149   9.988 -0.5295 -0.0820  0.8560
  964MOL0     C30017  11.919  12.069  10.054 -0.4781  0.0383 -0.7855
  964MOL0     C30018  12.058  12.076   9.985 -0.4763 -0.1051  0.5280
  964MOL0     C30019  12.145  11.982  10.057 -0.5170  0.4114 -0.4051
  964MOL0     C30020  12.269  11.945   9.965 -0.2290  0.2692 -0.2248
  964MOL0     C30021  12.377  11.850  10.034  0.7325  0.8194 -1.4187
  964MOL0     N30022  12.492  11.831   9.945  0.3334 -0.1493 -0.8651
  964MOL0     C30023  12.569  11.923   9.886  0.8288  0.5421 -0.0581
  964MOL0     C30024  12.676  11.854   9.844  0.2494 -0.3983 -0.7087
  964MOL0     C30025  12.795  11.920   9.789 -0.0808  0.4629  0.8119
  964MOL0     C30026  12.865  12.034   9.870  0.3789 -0.4144  0.2166
  964MOL0     C30027  12.947  12.001   9.992 -0.0233  0.1862  0.2537
  964MOL0     C30028  12.869  11.956  10.109  0.7783 -0.0353  0.6586
  964MOL0     O30029  12.951  11.973  10.239  0.0837  0.4686  0.2609
  964MOL0     C30030  13.086  11.945  10.228  0.0637 -0.3835 -0.3601
  964MOL0     C30031  13.164  12.059  10.256 -0.0530  0.5305  0.3983
  964MOL0     C30032  13.307  12.049  10.243  0.1584 -0.2710 -0.0699
  964MOL0     C30033  13.362  11.931  10.202  0.2625  0.3914 -0.4079
  964MOL0     C30034  13.514  11.923  10.186 -0.0453 -0.3302 -0.5095
  964MOL0     O30035  13.583  12.034  10.223 -0.5908 -0.2342 -0.0630
  964MOL0     C30036  13.718  12.037  10.197  0.2659  0.0300 -0.3472
  964MOL0     C30037  13.811  11.973  10.286  0.5671 -0.0687  0.0704
  964MOL0     C30038  13.947  11.982  10.273  0.3286 -0.2702  0.5033
  964MOL0     C30039  13.997  12.045  10.155 -0.6794 -0.5364  0.6207
  964MOL0     O30040  14.132  12.047  10.149  0.2209 -0.0189  0.5035
  964MOL0     C30041  14.195  12.171  10.093 -0.4628 -0.0342 -0.5141
  964MOL0     C30042  14.343  12.176  10.080  0.0189  0.0657 -0.0233
  964MOL0     C30043  14.392  12.053   9.990  0.2906  0.5910 -0.8748
  964MOL0     C30044  14.528  12.002   9.996  0.2485 -0.2870  0.6345
  964MOL0     C30045  14.614  12.109   9.930 -0.4710  0.1726 -0.9939
  964MOL0     C30046  14.767  12.067   9.913  0.1832  0.1422  0.1766
  964MOL0     C30047  14.809  12.009   9.779  0.0272 -1.2930  0.6312
  964MOL0     C30048  14.777  11.865   9.758  0.3593 -0.7202 -0.2561
  964MOL0    Cl30049  14.786  11.833   9.580  0.2568  0.4371  0.3492
  964MOL0     C30050  13.913  12.112  10.064  0.3745  0.5147 -0.2331
  964MOL0     C30051  13.773  12.115  10.092  0.4559  0.5548 -0.3383
  964MOL0     O30052  13.559  11.826  10.121 -0.9498 -0.1591 -0.2397
  964MOL0     C30053  13.281  11.822  10.175  0.3033  0.2155  0.0073
  964MOL0     C30054  13.139  11.826  10.188 -0.0107 -0.0107  0.7514
  964MOL0     N30055  12.656  11.725   9.875  0.3735  1.1391 -0.3836
  964MOL0     N30056  12.543  11.702   9.932  0.2653 -1.0143 -0.2592
  964MOL0     C30057  11.472  11.783  10.220  0.6568 -0.9656  0.8174
  964MOL0     C30058  11.361  11.698  10.225  0.6513  0.0077  0.5814
  964MOL0     C30059  11.134  11.313  10.119 -0.8087  0.7632 -0.2531
  964MOL0     C30060  11.012  11.358  10.173 -0.6827 -0.4386  0.7678
  964MOL0     C30061  10.906  11.271  10.189  0.5350 -0.0861 -0.1675
  964MOL0     C30062  10.920  11.127  10.157  0.0101  0.0179  0.9766
  964MOL0     O30063  10.805  11.054  10.188  0.0376 -0.3274 -0.0921
  964MOL0     C30064  10.797  10.909  10.161  0.6664 -0.0997  0.0916
  964MOL0     C30065  10.647  10.872  10.143 -1.7072  0.5377  0.1050
  964MOL0     C30066  10.585  10.872  10.281 -0.7209 -0.6819 -0.9282
  964MOL0     C30067  10.448  10.813  10.295  0.3103 -0.0899 -0.5469
  964MOL0     C30068  10.431  10.674  10.271 -0.0962  0.8019  0.2669
  964MOL0     C30069  10.421  10.551  10.269  0.4649  0.0591  0.2615
  964MOL0     C30070  11.045  11.083  10.107 -0.5007 -0.3576 -0.0388
  964MOL0     C30071  11.154  11.171  10.087  0.3102 -0.1700 -0.1492
  964MOL0     C30072  11.268  11.094  10.015 -0.2970 -0.7542  0.0487
  964MOL0     H30073  11.320  11.630   9.906 -2.4130  0.6361  0.5076
  964MOL0     H30074  11.489  11.822   9.880  3.3268 -0.8780  0.4449
  964MOL0     H30075  11.537  12.056   9.965  0.0802 -0.4387 -0.6392
  964MOL0     H30076  11.506  12.065  10.144 -0.3342 -1.9704 -0.0100
  964MOL0     H30077  11.710  12.178  10.182 -1.6012 -0.2841  0.3833
  964MOL0     H30078  11.648  12.261  10.029 -0.7755 -1.6438 -1.9970
  964MOL0     H30079  11.847  12.250   9.963 -0.3331 -0.5293 -0.7513
  964MOL0     H30080  11.785  12.112   9.890  2.4935  1.0372 -0.5818
  964MOL0     H30081  11.927  12.098  10.159 -0.9135 -1.5604 -0.2846
  964MOL0     H30082  11.893  11.964  10.066  2.2127 -1.1826 -4.2205
  964MOL0     H30083  12.042  12.040   9.882  0.1378  0.4610  0.2287
  964MOL0     H30084  12.089  12.179  10.003 -2.3951  0.4868  0.7399
  964MOL0     H30085  12.171  12.022  10.155 -0.4846  4.0737 -1.7634
  964MOL0     H30086  12.081  11.895  10.071 -0.6631  0.3293 -1.4429
  964MOL0     H30087  12.311  12.043   9.941 -2.2662  0.6484 -2.6162
  964MOL0     H30088  12.241  11.901   9.869 -0.3140  2.1475 -1.1033
  964MOL0     H30089  12.412  11.910  10.119 -2.7730  1.3228 -0.1253
  964MOL0     H30090  12.318  11.766  10.071  0.2698  0.9034 -1.9491
  964MOL0     H30091  12.551  12.030   9.879  5.6264  2.0070  3.8114
  964MOL0     H30092  12.866  11.839   9.772 -0.5065  0.6975 -3.1496
  964MOL0     H30093  12.763  11.958   9.691  0.0271  1.6547  1.2202
  964MOL0     H30094  12.920  12.098   9.800 -0.4256 -1.4937 -1.4504
  964MOL0     H30095  12.780  12.095   9.902 -1.5897 -2.5387 -0.6673
  964MOL0     H30096  13.003  12.094  10.009  0.2683  0.4002 -1.6718
  964MOL0     H30097  13.010  11.922   9.950 -0.5589 -1.4980  2.4390
  964MOL0     H30098  12.834  11.853  10.093  1.4516 -0.0532 -0.9029
  964MOL0     H30099  12.774  12.009  10.120 -1.3734 -3.2562 -0.8574
  964MOL0     H30100  13.108  12.143  10.296 -0.4291 -0.8640  3.0791
  964MOL0     H30101  13.360  12.142  10.258 -2.8841  1.1521  3.5610
  964MOL0     H30102  13.786  11.919  10.377 -1.7548  1.0445  0.1687
  964MOL0     H30103  14.020  11.944  10.343  0.1967 -0.2050  0.6772
  964MOL0     H30104  14.160  12.179   9.990  0.7035 -0.2473 -0.9372
  964MOL0     H30105  14.164  12.256  10.154  0.7024 -0.3215  0.5235
  964MOL0     H30106  14.362  12.274  10.035  1.5359 -0.4926 -0.6457
  964MOL0     H30107  14.383  12.180  10.182  0.5180  1.9821 -0.2536
  964MOL0     H30108  14.317  11.979  10.020 -0.3570  1.0288 -1.3967
  964MOL0     H30109  14.382  12.076   9.884  2.1938  0.5890 -1.0830
  964MOL0     H30110  14.542  11.898   9.963 -1.4177 -0.0224 -1.0854
  964MOL0     H30111  14.562  11.989  10.099  5.1854  0.7806 -0.5594
  964MOL0     H30112  14.591  12.198   9.989 -3.1792 -0.0113 -1.6350
  964MOL0     H30113  14.573  12.125   9.829 -1.1251 -1.3653 -0.9969
  964MOL0     H30114  14.822  12.161   9.916  0.6651 -0.1321  0.0040
  964MOL0     H30115  14.788  11.994   9.992  1.4540  0.9120  0.5734
  964MOL0     H30116  14.916  12.018   9.762 -0.1423  1.0797  0.4902
  964MOL0     H30117  14.776  12.080   9.702  0.8674 -1.6072 -0.0323
  964MOL0     H30118  14.847  11.808   9.819 -0.4265 -0.3158  1.0808
  964MOL0     H30119  14.679  11.846   9.803 -0.2255  3.0600  0.4523
  964MOL0     H30120  13.960  12.172   9.987  3.9744  1.4391  2.4617
  964MOL0     H30121  13.708  12.192  10.051 -1.9215 -0.4540  1.3033
  964MOL0     H30122  13.309  11.730  10.124  0.4084  1.0587 -1.5211
  964MOL0     H30123  13.062  11.751  10.176  1.1080 -1.0068 -0.6305
  964MOL0     H30124  11.496  11.835  10.312 -2.5513  0.6482  0.8605
  964MOL0     H30125  11.312  11.671  10.318  1.6523  0.7382  1.3426
  964MOL0     H30126  10.998  11.464  10.190  4.8175  0.5473  0.8266
  964MOL0     H30127  10.811  11.305  10.228  0.6784 -2.0880  2.2254
  964MOL0     H30128  10.834  10.855  10.249 -0.9045 -2.5745 -0.6800
  964MOL0     H30129  10.862  10.872  10.082 -0.1374 -0.2475 -0.5108
  964MOL0     H30130  10.628  10.781  10.085 -1.7806  2.8544 -3.8906
  964MOL0     H30131  10.595  10.954  10.092 -0.9219  1.0089  0.0445
  964MOL0     H30132  10.571  10.974  10.318 -2.7487 -1.3043  0.1839
  964MOL0     H30133  10.649  10.823  10.354 -0.0843  1.1057 -0.2373
  964MOL0     H30134  10.409  10.828  10.397  1.6181 -1.1045  0.1225
  964MOL0     H30135  10.381  10.870  10.230 -1.4965 -1.7907 -0.2541
  964MOL0     H30136  10.435  10.446  10.277  4.0334  0.4886  1.4852
  964MOL0     H30137  11.063  10.978  10.090  1.1057 -0.3337  1.2032
  964MOL0     H30138  11.252  11.087   9.907 -2.0809 -0.9574  0.2824
  964MOL0     H30139  11.367  11.137  10.032 -0.0414 -1.0122 -0.7469
  964MOL0     H30140  11.271  10.987  10.038 -0.2553 -1.1794 -1.7720
  965MOL0     O30141   0.624  11.319   2.401  0.5767  0.3313  0.1299
  965MOL0     C30142   0.550  11.402   2.446 -0.0585  0.0320  0.0256
  965MOL0     O30143   0.476  11.495   2.372 -0.4528 -0.3035  0.0590
  965MOL0     C30144   0.485  11.472   2.246  0.2797  0.1064 -0.4581
  965MOL0     C30145   0.372  11.424   2.176  0.2789 -0.4057 -0.0595
  965MOL0     C30146   0.385  11.392   2.044 -0.4746  0.4606  0.5537
  965MOL0     C30147   0.515  11.405   1.979  0.1570 -0.7078 -0.3784
  965MOL0     O30148   0.543  11.372   1.848 -0.0094  0.1806  0.7314
  965MOL0     C30149   0.459  11.280   1.769 -0.0365  0.0529 -0.2560
  965MOL0     C30150   0.418  11.333   1.641  0.7126  0.0208 -0.3150
  965MOL0     C30151   0.315  11.457   1.643 -0.2545  0.3965  0.0038
  965MOL0     C30152   0.233  11.460   1.520 -0.1478  0.2465  0.6147
  965MOL0     C30153   0.159  11.594   1.510  0.2207 -0.6163 -0.3568
  965MOL0     C30154   0.060  11.644   1.618  0.2761 -1.0835 -0.0193
  965MOL0     C30155  -0.061  11.556   1.632  0.1294  0.1003 -0.4258
  965MOL0     C30156  -0.188  11.637   1.647  0.1093 -0.1296  0.2719
  965MOL0     N30157  -0.298  11.541   1.655 -0.4139 -0.7839  0.0612
  965MOL0     C30158  -0.414  11.546   1.582  0.7335  0.8594 -0.4535
  965MOL0     C30159  -0.495  11.450   1.644 -0.1036 -0.1468  0.3643
  965MOL0     C30160  -0.625  11.397   1.599 -0.4685  0.2318  0.5593
  965MOL0     C30161  -0.734  11.453   1.682  0.0869  0.5660  1.4426
  965MOL0     C30162  -0.720  11.599   1.728 -0.3259 -0.5594  0.6267
  965MOL0     C30163  -0.854  11.652   1.779  0.5894  0.4600  0.7473
  965MOL0     O30164  -0.885  11.582   1.899 -0.0975 -0.2546  0.4915
  965MOL0     C30165  -0.869  11.653   2.017 -1.0748  0.2553 -0.3346
  965MOL0     C30166  -0.769  11.751   2.052  0.2440 -0.2140  0.6326
  965MOL0     C30167  -0.759  11.788   2.188 -0.1009 -0.0086  0.2719
  965MOL0     C30168  -0.848  11.741   2.286  0.3942 -0.3203 -1.0180
  965MOL0     C30169  -0.841  11.792   2.422 -0.4155 -0.6150 -0.1365
  965MOL0     O30170  -0.747  11.875   2.447  0.5460 -1.0908 -0.1291
  965MOL0     C30171  -0.703  11.874   2.569 -0.3534  0.3314 -0.7263
  965MOL0     C30172  -0.722  11.985   2.642  0.0571 -0.5139  0.0378
  965MOL0     C30173  -0.679  12.000   2.771 -0.0429  0.1174  0.7001
  965MOL0     C30174  -0.603  11.891   2.831 -1.1141  0.0745  0.1746
  965MOL0     O30175  -0.538  11.921   2.950 -0.7271 -0.2964 -0.9560
  965MOL0     C30176  -0.548  11.832   3.057  0.0747  1.4401 -0.0939
  965MOL0     C30177  -0.407  11.831   3.126 -0.0997 -0.5922  0.9226
  965MOL0     C30178  -0.401  11.713   3.217  0.9717 -1.0574 -0.7202
  965MOL0     C30179  -0.261  11.687   3.285  0.1463 -0.2375  0.4151
  965MOL0     C30180  -0.260  11.552   3.358  0.4753 -0.4174 -0.2806
  965MOL0     C30181  -0.126  11.525   3.427  0.5119 -0.2787  1.5114
  965MOL0     C30182  -0.084  11.603   3.543  0.4116 -0.6055 -0.8178
  965MOL0     C30183  -0.176  11.619   3.668 -0.2580  0.0699  0.0052
  965MOL0    Cl30184  -0.282  11.761   3.652 -0.1226  0.1077  0.0275
  965MOL0     C30185  -0.584  11.771   2.764 -0.9714  0.2635 -0.0903
  965MOL0     C30186  -0.628  11.762   2.628  0.3188 -0.1234 -0.2924
  965MOL0     O30187  -0.913  11.734   2.501 -0.0620 -0.6065  0.1772
  965MOL0     C30188  -0.932  11.634   2.251  0.3064 -0.1103 -0.6466
  965MOL0     C30189  -0.952  11.602   2.112 -0.0842 -0.5371 -0.8528
  965MOL0     N30190  -0.429  11.404   1.757 -0.4697  0.0129 -0.1791
  965MOL0     N30191  -0.313  11.466   1.767 -0.8434 -0.5822 -0.9280
  965MOL0     C30192   0.615  11.469   2.056  0.0069  0.8702  0.3722
  965MOL0     C30193   0.601  11.502   2.185  0.5273 -0.0408  0.1318
  965MOL0     C30194   0.518  11.396   2.598  0.8145  0.2934 -0.3993
  965MOL0     C30195   0.558  11.277   2.663 -0.8253  0.2483  0.7917
  965MOL0     C30196   0.538  11.254   2.798  0.0073 -0.3679 -0.4805
  965MOL0     C30197   0.474  11.359   2.874 -0.1755  0.4336 -0.4776
  965MOL0     O30198   0.441  11.324   3.000 -0.5003 -0.6943 -0.6156
  965MOL0     C30199   0.378  11.417   3.087 -0.3217  1.3303 -0.3451
  965MOL0     C30200   0.379  11.371   3.231  0.2963 -0.6972 -0.3782
  965MOL0     C30201   0.293  11.459   3.324  0.0278 -0.7402 -0.1613
  965MOL0     C30202   0.333  11.455   3.472  0.4859 -0.2035 -0.0726
  965MOL0     C30203   0.283  11.568   3.551 -1.6139  0.1650 -0.0195
  965MOL0     C30204   0.271  11.658   3.634 -0.1629  0.1738  0.2773
  965MOL0     C30205   0.439  11.478   2.810  0.2448  0.3363  0.1481
  965MOL0     C30206   0.455  11.503   2.675 -0.9553 -0.4549  0.0652
  965MOL0     C30207   0.419  11.633   2.615 -0.0349  0.1250  1.4181
  965MOL0     H30208   0.275  11.412   2.224  0.9114 -0.9351  1.1199
  965MOL0     H30209   0.304  11.347   1.987 -0.4973 -0.9870  1.6768
  965MOL0     H30210   0.524  11.202   1.728 -2.5663 -1.8466 -0.8777
  965MOL0     H30211   0.391  11.228   1.837  0.4916 -2.0434 -1.2474
  965MOL0     H30212   0.372  11.252   1.585  0.8897  0.9204 -1.8258
  965MOL0     H30213   0.511  11.367   1.594  1.3003  0.0862  0.8510
  965MOL0     H30214   0.372  11.550   1.649 -0.7492  0.6163  2.0027
  965MOL0     H30215   0.254  11.445   1.733 -0.3120 -1.3899 -0.2338
  965MOL0     H30216   0.298  11.447   1.433 -0.1643 -0.0486  0.6441
  965MOL0     H30217   0.162  11.378   1.532  0.1996  0.2163  2.8905
  965MOL0     H30218   0.241  11.665   1.493  1.2578 -1.9749 -1.2265
  965MOL0     H30219   0.112  11.590   1.411 -0.3146  0.4116 -0.1642
  965MOL0     H30220   0.117  11.660   1.710  1.9945  3.3661 -1.5581
  965MOL0     H30221   0.028  11.746   1.592  1.1868 -0.6216  0.6272
  965MOL0     H30222  -0.044  11.487   1.715 -0.3686  0.3491 -0.1120
  965MOL0     H30223  -0.063  11.506   1.535  2.7593  1.5090 -1.3015
  965MOL0     H30224  -0.191  11.698   1.738 -0.2670  1.6058 -0.8479
  965MOL0     H30225  -0.198  11.710   1.565 -3.5801 -1.2040 -0.4316
  965MOL0     H30226  -0.424  11.580   1.479  0.0182 -0.2878 -0.7826
  965MOL0     H30227  -0.618  11.426   1.493  1.7473  2.3251  1.1910
  965MOL0     H30228  -0.616  11.288   1.611  0.4779  0.0391 -1.4959
  965MOL0     H30229  -0.828  11.438   1.628  1.4937  0.5754 -1.1797
  965MOL0     H30230  -0.732  11.394   1.773  2.5500 -2.6459 -0.4748
  965MOL0     H30231  -0.680  11.666   1.651 -1.3382 -0.7877 -0.1278
  965MOL0     H30232  -0.649  11.597   1.811 -1.6186 -2.2636  1.7871
  965MOL0     H30233  -0.928  11.631   1.701 -0.5350 -1.2501  2.1972
  965MOL0     H30234  -0.861  11.761   1.781 -4.3886  0.3741  0.9227
  965MOL0     H30235  -0.711  11.801   1.976 -1.3788  3.2975  1.5070
  965MOL0     H30236  -0.691  11.863   2.226 -0.4611 -0.3285  1.5918
  965MOL0     H30237  -0.782  12.061   2.593  1.1550  1.8544  2.1235
  965MOL0     H30238  -0.710  12.092   2.820 -2.1003  1.4982 -2.8225
  965MOL0     H30239  -0.627  11.854   3.129 -0.0276 -0.9750  0.6143
  965MOL0     H30240  -0.579  11.735   3.016 -1.6876  1.4311  1.1632
  965MOL0     H30241  -0.324  11.841   3.054  0.5352  2.7041  1.9302
  965MOL0     H30242  -0.391  11.922   3.184  0.3726 -0.4284  0.5490
  965MOL0     H30243  -0.478  11.713   3.295  4.2879 -1.4985  2.8537
  965MOL0     H30244  -0.439  11.625   3.165  0.5208 -1.6449  0.5632
  965MOL0     H30245  -0.219  11.760   3.355  0.5434  0.8114 -0.8841
  965MOL0     H30246  -0.186  11.693   3.207  0.8114  4.7435  1.1273
  965MOL0     H30247  -0.284  11.482   3.277 -0.8865  1.0862 -1.2439
  965MOL0     H30248  -0.333  11.563   3.439 -0.5216  0.7942 -1.3074
  965MOL0     H30249  -0.114  11.422   3.462 -0.9551 -0.7516  0.7182
  965MOL0     H30250  -0.057  11.538   3.343 -0.8330  0.0119  0.4211
  965MOL0     H30251  -0.058  11.707   3.518 -0.6891 -0.5248 -1.7119
  965MOL0     H30252   0.010  11.563   3.581  0.3599  0.7338  0.8593
  965MOL0     H30253  -0.238  11.529   3.669 -0.0394 -0.0896 -0.4470
  965MOL0     H30254  -0.116  11.627   3.760  0.2169 -1.5453 -0.1343
  965MOL0     H30255  -0.526  11.697   2.818 -0.4572  1.8250  1.6384
  965MOL0     H30256  -0.621  11.666   2.579 -2.2853  0.4820 -2.0930
  965MOL0     H30257  -0.992  11.582   2.325  0.8556 -1.2079 -0.9504
  965MOL0     H30258  -1.022  11.524   2.083 -0.7035 -0.9433  1.5050
  965MOL0     H30259   0.708  11.495   2.005 -0.4056  2.5649  0.4302
  965MOL0     H30260   0.681  11.548   2.242  0.7945 -0.8144  0.3984
  965MOL0     H30261   0.615  11.204   2.606  0.6010 -0.9899  3.5979
  965MOL0     H30262   0.569  11.153   2.820 -0.3732 -0.1466  1.1913
  965MOL0     H30263   0.277  11.429   3.049  0.3245 -0.0343 -2.7083
  965MOL0     H30264   0.429  11.514   3.086  0.4622  1.0124  1.9703
  965MOL0     H30265   0.483  11.367   3.268  1.0507  1.4117 -2.0909
  965MOL0     H30266   0.334  11.272   3.235 -1.5831  0.1161 -0.3923
  965MOL0     H30267   0.187  11.449   3.298 -0.6566  3.7514  0.0495
  965MOL0     H30268   0.313  11.562   3.294 -1.0709 -0.1097  1.1431
  965MOL0     H30269   0.307  11.354   3.503  1.2702 -0.7195 -1.0534
  965MOL0     H30270   0.441  11.468   3.478  0.3341  0.4122  2.7803
  965MOL0     H30271   0.249  11.707   3.726  1.0532 -1.4479  1.4772
  965MOL0     H30272   0.383  11.554   2.863 -0.7066 -0.0217 -0.3289
  965MOL0     H30273   0.368  11.707   2.678  0.2391  1.3556  0.2412
  965MOL0     H30274   0.508  11.685   2.578 -0.1597  1.0766  2.4154
  965MOL0     H30275   0.345  11.617   2.537 -1.1499 -1.7058  2.7575
  966MOL0     O30276   0.270   3.409   3.305  0.1580  0.2555  0.0129
  966MOL0     C30277   0.365   3.348   3.359 -0.6926 -0.6186 -0.6896
  966MOL0     O30278   0.389   3.356   3.491  0.5295  0.4967  0.2014
  966MOL0     C30279   0.300   3.431   3.568 -0.6890  0.2809  0.3382
  966MOL0     C30280   0.336   3.563   3.592  0.1677 -1.1071 -0.2376
  966MOL0     C30281   0.256   3.629   3.684  0.2545  0.0591  0.2643
  966MOL0     C30282   0.149   3.572   3.744 -0.1220  0.6855 -0.4046
  966MOL0     O30283   0.078   3.651   3.823  0.5791 -0.1600 -0.1129
  966MOL0     C30284  -0.022   3.593   3.912 -1.0346 -0.4352  0.2767
  966MOL0     C30285   0.062   3.527   4.021 -1.0791  0.0612 -0.2894
  966MOL0     C30286  -0.023   3.499   4.151  1.0413  0.3486  1.1154
  966MOL0     C30287   0.065   3.425   4.257 -0.9389  0.3443 -0.7426
  966MOL0     C30288   0.157   3.527   4.335 -0.0710 -0.3379  0.6036
  966MOL0     C30289   0.183   3.490   4.485 -1.0258  0.6186 -0.4117
  966MOL0     C30290   0.215   3.335   4.506 -0.3766 -0.1840 -0.4350
  966MOL0     C30291   0.288   3.323   4.645  0.7639  0.4865 -0.4233
  966MOL0     N30292   0.351   3.194   4.680 -0.7949  0.5899 -0.3566
  966MOL0     C30293   0.418   3.117   4.588  0.5072  0.8518 -0.7441
  966MOL0     C30294   0.448   3.006   4.665 -0.3353 -0.3459  0.6467
  966MOL0     C30295   0.502   2.884   4.611  0.2867 -0.1047  0.1544
  966MOL0     C30296   0.631   2.845   4.669 -0.3830 -0.3952  0.4136
  966MOL0     C30297   0.749   2.949   4.656  0.7864  1.0879  0.1470
  966MOL0     C30298   0.858   2.866   4.587 -0.5796  0.4789 -0.0077
  966MOL0     O30299   0.816   2.827   4.465  0.4884 -0.2551  1.3280
  966MOL0     C30300   0.880   2.732   4.385 -0.4767  0.7240 -0.2274
  966MOL0     C30301   1.012   2.673   4.421  0.9837  0.1396  0.1076
  966MOL0     C30302   1.062   2.576   4.343 -0.9012 -0.4352 -0.5255
  966MOL0     C30303   0.995   2.539   4.218 -0.1651  0.8275 -0.1607
  966MOL0     C30304   1.064   2.443   4.134 -0.5469 -0.3319 -0.3717
  966MOL0     O30305   1.175   2.380   4.184  0.8397 -0.0319  0.6294
  966MOL0     C30306   1.248   2.297   4.105 -0.7210  0.3085  0.0481
  966MOL0     C30307   1.265   2.167   4.146 -0.6068 -0.1997 -0.1086
  966MOL0     C30308   1.364   2.083   4.090  0.6753 -0.1336 -0.0967
  966MOL0     C30309   1.440   2.130   3.982  0.4916  0.5828  0.8384
  966MOL0     O30310   1.541   2.055   3.921 -0.4387  0.8417  1.1794
  966MOL0     C30311   1.544   1.913   3.937 -0.0262  0.5522  0.7997
  966MOL0     C30312   1.639   1.855   3.831  0.6334 -0.4611 -0.6246
  966MOL0     C30313   1.774   1.828   3.890 -1.0740 -0.2309  0.5850
  966MOL0     C30314   1.861   1.949   3.933 -0.5993  0.7708 -0.3918
  966MOL0     C30315   2.002   1.919   3.987 -0.0500 -0.0237  0.5191
  966MOL0     C30316   2.011   1.847   4.129  0.1628 -0.4964  0.3477
  966MOL0     C30317   2.162   1.822   4.181 -0.3667 -0.4105  0.1023
  966MOL0     C30318   2.176   1.805   4.332 -0.1137  0.4676 -0.3615
  966MOL0    Cl30319   2.109   1.649   4.362  0.0516  0.2399  0.0364
  966MOL0     C30320   1.425   2.261   3.948 -0.0439  0.0793 -0.0230
  966MOL0     C30321   1.323   2.348   4.003 -0.9606 -0.4138  0.0344
  966MOL0     O30322   1.020   2.429   4.021  0.0307  0.5322  0.6424
  966MOL0     C30323   0.873   2.595   4.182  0.3173 -1.0621  0.4660
  966MOL0     C30324   0.814   2.693   4.262 -0.3384 -0.0263 -0.4240
  966MOL0     N30325   0.417   3.031   4.799  0.3739  0.3242  0.7673
  966MOL0     N30326   0.354   3.146   4.805  0.0463 -0.1029 -0.7538
  966MOL0     C30327   0.123   3.434   3.724  0.0339 -0.6464 -0.2740
  966MOL0     C30328   0.202   3.363   3.638 -1.1491 -0.5048  0.8507
  966MOL0     C30329   0.465   3.265   3.274  0.1946  0.5741 -0.1484
  966MOL0     C30330   0.482   3.320   3.142  0.5701 -0.0396  0.7651
  966MOL0     C30331   0.574   3.253   3.056  0.0937 -0.3299  0.7272
  966MOL0     C30332   0.650   3.142   3.108  0.6787 -0.2993  0.1432
  966MOL0     O30333   0.734   3.069   3.029 -0.5853  0.5098 -0.0802
  966MOL0     C30334   0.873   3.108   3.026  0.1468 -0.2513 -0.9026
  966MOL0     C30335   0.955   2.973   3.027  0.4936  0.1828 -0.2579
  966MOL0     C30336   0.965   2.918   3.167 -0.0424  0.1376  2.0333
  966MOL0     C30337   1.030   2.783   3.181 -1.0872  0.0376 -0.0370
  966MOL0     C30338   1.069   2.738   3.315 -0.3649  0.1555  0.1478
  966MOL0     C30339   1.088   2.723   3.433  0.8014  0.9305  0.0520
  966MOL0     C30340   0.632   3.101   3.233 -0.0794  0.2533 -0.1682
  966MOL0     C30341   0.534   3.154   3.318  0.0092  0.3238 -0.1729
  966MOL0     C30342   0.519   3.088   3.458  0.1772 -0.8683 -0.2573
  966MOL0     H30343   0.422   3.620   3.557 -0.2612  0.8333  1.6473
  966MOL0     H30344   0.276   3.734   3.701 -1.1356  0.5773 -0.9850
  966MOL0     H30345  -0.089   3.662   3.964 -0.2671  0.0403  0.6629
  966MOL0     H30346  -0.082   3.516   3.863 -1.0617 -0.6300  0.6082
  966MOL0     H30347   0.140   3.599   4.049 -0.9153  0.0705 -0.7591
  966MOL0     H30348   0.111   3.434   3.990  1.5361  1.4347 -0.5351
  966MOL0     H30349  -0.111   3.439   4.126  1.7203  0.8345 -3.2010
  966MOL0     H30350  -0.066   3.592   4.188  2.4303  0.9981  1.1485
  966MOL0     H30351   0.008   3.364   4.329  0.5406 -1.0681 -0.7303
  966MOL0     H30352   0.129   3.353   4.207 -0.0848  0.8060 -0.3266
  966MOL0     H30353   0.249   3.535   4.278  1.2483  1.0948  2.7611
  966MOL0     H30354   0.108   3.625   4.330 -1.2373 -0.6920  3.3185
  966MOL0     H30355   0.263   3.545   4.537 -1.3037 -1.2405  2.1771
  966MOL0     H30356   0.099   3.523   4.547 -2.6380 -0.8082 -1.7415
  966MOL0     H30357   0.280   3.286   4.433 -1.0776 -1.5125 -0.2013
  966MOL0     H30358   0.119   3.282   4.512  2.0533 -5.0532  0.2892
  966MOL0     H30359   0.360   3.403   4.667 -0.9482  1.6368  1.3014
  966MOL0     H30360   0.213   3.344   4.721 -1.0930 -1.0985 -1.7241
  966MOL0     H30361   0.425   3.141   4.482  0.5306  2.0746 -0.4874
  966MOL0     H30362   0.436   2.802   4.639  1.3552 -0.0239  3.3725
  966MOL0     H30363   0.495   2.890   4.502  0.6178 -3.3092 -0.1374
  966MOL0     H30364   0.622   2.831   4.777 -0.5904  0.5610  0.5246
  966MOL0     H30365   0.662   2.748   4.628 -1.4059 -0.3079 -0.6126
  966MOL0     H30366   0.785   2.983   4.754 -1.6922 -2.2030  2.4342
  966MOL0     H30367   0.719   3.030   4.590 -2.3780 -1.5672 -1.9802
  966MOL0     H30368   0.877   2.779   4.651  2.5794  1.6653  0.8306
  966MOL0     H30369   0.948   2.927   4.575  0.3548 -1.0395 -1.0637
  966MOL0     H30370   1.060   2.701   4.514  2.1693  1.3059 -0.8180
  966MOL0     H30371   1.155   2.529   4.373  0.3671  0.3335 -2.9418
  966MOL0     H30372   1.206   2.132   4.230 -0.3985  2.4370  1.2145
  966MOL0     H30373   1.362   1.980   4.122  1.1300  0.9760  4.0202
  966MOL0     H30374   1.570   1.878   4.037  1.1726  0.1400  0.3656
  966MOL0     H30375   1.448   1.868   3.911 -0.1870  0.0773  2.1366
  966MOL0     H30376   1.606   1.752   3.818 -0.1929 -0.1178 -1.2888
  966MOL0     H30377   1.629   1.911   3.738 -4.6427  1.1841  0.6085
  966MOL0     H30378   1.767   1.766   3.979 -0.5840  1.6450  1.9993
  966MOL0     H30379   1.833   1.778   3.812  2.8861  3.4815  0.7995
  966MOL0     H30380   1.810   1.992   4.020  0.8570  0.6667  0.5373
  966MOL0     H30381   1.878   2.015   3.847  2.6346 -1.5999 -1.7571
  966MOL0     H30382   2.050   2.016   4.001 -0.3769 -0.1332  2.8190
  966MOL0     H30383   2.046   1.841   3.925 -2.3022 -2.4619  1.7894
  966MOL0     H30384   1.964   1.910   4.205  0.1605  1.0807 -0.9063
  966MOL0     H30385   1.965   1.748   4.135  0.2827 -0.5095  1.1692
  966MOL0     H30386   2.228   1.897   4.137 -1.8759 -0.6778 -2.8352
  966MOL0     H30387   2.182   1.727   4.132 -1.8319  0.0360 -1.4441
  966MOL0     H30388   2.283   1.802   4.353 -0.4496  0.3062  1.5134
  966MOL0     H30389   2.133   1.888   4.389  0.7312 -1.5012  3.4956
  966MOL0     H30390   1.476   2.301   3.861 -1.1860 -1.8404 -1.6685
  966MOL0     H30391   1.316   2.445   3.954  1.9905 -1.5115 -2.9611
  966MOL0     H30392   0.821   2.548   4.099  0.9001 -1.2371  0.1939
  966MOL0     H30393   0.723   2.745   4.234  1.1028  1.8767 -1.8443
  966MOL0     H30394   0.049   3.378   3.779  1.7384 -3.6127 -0.7495
  966MOL0     H30395   0.181   3.256   3.637 -1.7748 -0.3832  0.4176
  966MOL0     H30396   0.426   3.409   3.113  2.5226  0.9566 -0.1524
  966MOL0     H30397   0.582   3.286   2.953 -2.9797  0.3955  0.6434
  966MOL0     H30398   0.899   3.174   3.109  1.0144 -1.3021 -0.3075
  966MOL0     H30399   0.885   3.170   2.936 -0.6922  0.6898 -0.3900
  966MOL0     H30400   1.050   2.990   2.976 -1.1044 -1.0091 -3.9973
  966MOL0     H30401   0.901   2.910   2.956  2.6780  0.4196 -2.2606
  966MOL0     H30402   0.869   2.912   3.218  0.9140  2.2419  4.3240
  966MOL0     H30403   1.018   2.997   3.223  0.1487  2.0748 -0.6945
  966MOL0     H30404   0.963   2.705   3.143  1.5294 -0.5375 -4.1342
  966MOL0     H30405   1.122   2.781   3.122  0.4583 -1.8901  2.2966
  966MOL0     H30406   1.100   2.722   3.540  1.8799 -1.8604  0.0156
  966MOL0     H30407   0.697   3.022   3.273  0.8231  1.9928  2.0200
  966MOL0     H30408   0.591   3.134   3.526 -0.2241 -0.0609 -0.3582
  966MOL0     H30409   0.418   3.083   3.502  0.2408 -0.5582 -0.0749
  966MOL0     H30410   0.535   2.981   3.440 -2.3457 -1.1150 -1.4782
  967MOL0     O30411   3.553  11.105   8.664 -0.5691 -0.2343 -0.2958
  967MOL0     C30412   3.527  11.130   8.555 -0.9134  0.3379  0.2219
  967MOL0     O30413   3.617  11.167   8.462 -0.5127  0.3613 -0.2035
  967MOL0     C30414   3.741  11.208   8.487  0.7061 -0.7446  0.3101
  967MOL0     C30415   3.784  11.341   8.475 -0.5324  0.4174 -0.1601
  967MOL0     C30416   3.920  11.368   8.494  0.6820  0.5574  0.0327
  967MOL0     C30417   4.012  11.263   8.508 -0.4272 -0.6232 -0.9378
  967MOL0     O30418   4.140  11.314   8.529  0.8655 -0.6215  0.2455
  967MOL0     C30419   4.256  11.229   8.533  0.4019 -0.5005  0.1289
  967MOL0     C30420   4.310  11.226   8.671  0.3892 -0.3247 -0.7542
  967MOL0     C30421   4.232  11.140   8.771 -0.0216  0.4124  0.1165
  967MOL0     C30422   4.300  11.129   8.916  0.5996  1.0558  0.5681
  967MOL0     C30423   4.205  11.061   9.003  0.4962 -0.4693 -1.3627
  967MOL0     C30424   4.116  11.167   9.069  0.3053 -0.2672 -0.3255
  967MOL0     C30425   3.977  11.105   9.122  0.3397  0.3466 -0.0866
  967MOL0     C30426   3.890  11.058   9.009  0.1241 -0.6291 -0.3207
  967MOL0     N30427   3.749  11.036   9.051  0.6167  0.0292  0.2696
  967MOL0     C30428   3.637  11.094   8.989 -0.5034  1.3039  0.3481
  967MOL0     C30429   3.536  11.048   9.060  0.9223 -0.2559 -0.5370
  967MOL0     C30430   3.398  11.097   9.052  0.5353  0.4178 -0.2144
  967MOL0     C30431   3.364  11.203   9.159  0.3307 -0.1552  0.2658
  967MOL0     C30432   3.444  11.329   9.158  0.4716 -0.4190  0.4491
  967MOL0     C30433   3.397  11.440   9.257 -0.5740  0.0742  0.9867
  967MOL0     O30434   3.294  11.507   9.194  0.4408  1.1466  0.3128
  967MOL0     C30435   3.332  11.621   9.121  0.4091  0.1077 -1.1409
  967MOL0     C30436   3.367  11.618   8.985  0.4256 -0.2185  0.1904
  967MOL0     C30437   3.388  11.744   8.923 -0.0608  0.2898  0.5650
  967MOL0     C30438   3.404  11.870   8.997 -0.4808  0.3633 -0.4209
  967MOL0     C30439   3.438  11.994   8.923 -0.0434  0.3636 -0.7559
  967MOL0     O30440   3.441  12.102   9.002 -0.3065  0.5586  0.0853
  967MOL0     C30441   3.561  12.152   9.053  0.6536  0.5517 -0.1362
  967MOL0     C30442   3.696  12.118   9.007  0.3444 -0.7816  0.2526
  967MOL0     C30443   3.807  12.182   9.065  0.2276 -0.0951 -0.6197
  967MOL0     C30444   3.791  12.282   9.167  0.0800  0.2503  0.8547
  967MOL0     O30445   3.892  12.344   9.243  0.4398  0.3705 -0.0739
  967MOL0     C30446   3.927  12.467   9.180 -0.2066 -0.4233  0.3140
  967MOL0     C30447   3.946  12.570   9.289  0.3554  0.4127 -0.0697
  967MOL0     C30448   4.018  12.700   9.251 -0.1706 -0.3945  0.0882
  967MOL0     C30449   4.055  12.797   9.365  0.3568  0.3313 -0.5320
  967MOL0     C30450   4.152  12.893   9.307  0.2289 -0.9802  0.4745
  967MOL0     C30451   4.157  13.024   9.391  0.3452  0.5634  0.3284
  967MOL0     C30452   4.169  12.988   9.542  0.2269  0.1820  0.1522
  967MOL0     C30453   4.238  13.106   9.620 -0.0377 -0.3093 -1.1767
  967MOL0    Cl30454   4.137  13.250   9.619 -0.3804  0.2934  0.2653
  967MOL0     C30455   3.655  12.298   9.206 -0.4688  0.2929  0.7638
  967MOL0     C30456   3.538  12.243   9.156 -0.7412  0.4239  0.5321
  967MOL0     O30457   3.485  11.985   8.813  0.2146  0.1366 -0.0467
  967MOL0     C30458   3.371  11.862   9.136  0.0987  0.5845  1.1082
  967MOL0     C30459   3.325  11.741   9.192  0.7070 -0.4234  0.2859
  967MOL0     N30460   3.578  10.960   9.158 -0.1051  0.5042 -0.2364
  967MOL0     N30461   3.706  10.959   9.153 -0.7261  0.1689 -1.0725
  967MOL0     C30462   3.971  11.131   8.507  0.1794 -0.6234  0.1659
  967MOL0     C30463   3.829  11.106   8.499  1.0883  1.1329  0.1139
  967MOL0     C30464   3.383  11.130   8.520 -1.0209 -0.8491 -0.1398
  967MOL0     C30465   3.287  11.138   8.625  1.0190 -0.4423  0.3510
  967MOL0     C30466   3.145  11.145   8.595  0.7809 -0.1197  0.4462
  967MOL0     C30467   3.092  11.154   8.466 -0.8741  0.7460 -0.5323
  967MOL0     O30468   2.949  11.167   8.449 -0.8814  0.0769  0.0022
  967MOL0     C30469   2.895  11.181   8.315 -0.0216 -0.8567 -0.1665
  967MOL0     C30470   2.764  11.109   8.292  0.1043 -0.0558 -0.1126
  967MOL0     C30471   2.767  10.962   8.289 -0.8231  0.9254  0.2899
  967MOL0     C30472   2.814  10.893   8.151 -0.4014 -0.0195 -1.1311
  967MOL0     C30473   2.957  10.915   8.120 -0.6974  0.9198 -0.1203
  967MOL0     C30474   3.064  10.940   8.059 -0.0024  0.6392 -0.4904
  967MOL0     C30475   3.189  11.139   8.364 -0.0308  0.7285  0.6417
  967MOL0     C30476   3.333  11.127   8.388  0.3429 -0.0310  0.9037
  967MOL0     C30477   3.419  11.104   8.263  0.7196 -0.2590  0.5476
  967MOL0     H30478   3.710  11.419   8.458 -1.4471 -0.6277 -1.2020
  967MOL0     H30479   3.950  11.471   8.480 -4.2645  2.0046 -1.9618
  967MOL0     H30480   4.229  11.127   8.503 -1.1545 -0.3615  1.0077
  967MOL0     H30481   4.342  11.262   8.474 -0.1032 -0.9720 -0.8970
  967MOL0     H30482   4.332  11.322   8.719  1.2069 -1.8078  2.1148
  967MOL0     H30483   4.410  11.182   8.672  1.2930  1.6275 -0.9914
  967MOL0     H30484   4.219  11.041   8.727 -2.3110  1.0763 -0.8972
  967MOL0     H30485   4.128  11.174   8.776 -2.3221 -5.3769 -0.4060
  967MOL0     H30486   4.397  11.079   8.909  0.6257  1.2319 -0.4914
  967MOL0     H30487   4.324  11.230   8.949  0.9557  0.7069  1.4099
  967MOL0     H30488   4.142  10.989   8.950 -0.0883 -0.2924 -0.9164
  967MOL0     H30489   4.241  11.010   9.093 -1.5970 -1.3957 -0.9914
  967MOL0     H30490   4.165  11.219   9.152  0.5924 -1.6610  0.4032
  967MOL0     H30491   4.083  11.245   9.000 -1.3782  0.9036  1.6878
  967MOL0     H30492   3.933  11.184   9.183  2.1030  0.4716  1.0929
  967MOL0     H30493   3.989  11.020   9.190  2.4221  0.4365 -0.2711
  967MOL0     H30494   3.904  11.133   8.931 -3.9478  1.0920  0.3079
  967MOL0     H30495   3.913  10.962   8.962  1.0143  1.0290 -3.6188
  967MOL0     H30496   3.637  11.168   8.909 -0.7583  2.3237  1.2753
  967MOL0     H30497   3.385  11.127   8.947  0.2558  1.5548  0.1355
  967MOL0     H30498   3.327  11.013   9.056 -2.9446  3.1254  0.4706
  967MOL0     H30499   3.257  11.225   9.155  0.6510  1.3932 -2.3198
  967MOL0     H30500   3.374  11.156   9.257 -0.1806  2.0627  1.4605
  967MOL0     H30501   3.460  11.366   9.056 -0.3173 -1.0160  0.1015
  967MOL0     H30502   3.540  11.286   9.189  0.0304 -0.4409  1.8760
  967MOL0     H30503   3.482  11.504   9.282  2.7478 -1.8878 -3.8077
  967MOL0     H30504   3.361  11.401   9.352 -0.6093 -2.8411 -0.1375
  967MOL0     H30505   3.363  11.522   8.935  0.4008 -0.9713  1.5944
  967MOL0     H30506   3.374  11.757   8.816 -0.0544  0.6213  0.6021
  967MOL0     H30507   3.709  12.056   8.919  0.8889 -0.1351 -0.1312
  967MOL0     H30508   3.909  12.163   9.031  2.0207  2.7830  2.4651
  967MOL0     H30509   4.011  12.440   9.115 -0.9607 -2.4821  0.1228
  967MOL0     H30510   3.843  12.493   9.116 -0.0924 -2.4317 -0.7348
  967MOL0     H30511   3.851  12.602   9.332  0.9305  0.3393  1.3235
  967MOL0     H30512   4.011  12.537   9.371 -2.5915  1.3974  2.8498
  967MOL0     H30513   4.114  12.664   9.213 -1.2582 -0.7029 -2.6028
  967MOL0     H30514   3.957  12.755   9.179 -0.3667 -1.7031 -0.7719
  967MOL0     H30515   4.100  12.745   9.449  0.0113 -2.6294 -2.0521
  967MOL0     H30516   3.962  12.850   9.392  0.9101  2.1285 -1.9207
  967MOL0     H30517   4.127  12.930   9.207 -1.5671 -0.6362  1.0031
  967MOL0     H30518   4.251  12.848   9.302  1.5787  1.8987 -2.2335
  967MOL0     H30519   4.250  13.064   9.349 -1.7829  3.3759 -2.1313
  967MOL0     H30520   4.069  13.086   9.374 -1.3599 -1.8818 -0.4544
  967MOL0     H30521   4.215  12.890   9.558  0.0579 -0.3192 -2.0379
  967MOL0     H30522   4.062  12.979   9.565 -0.6762 -2.0015 -3.8765
  967MOL0     H30523   4.249  13.081   9.726 -0.5062 -1.5550 -1.4001
  967MOL0     H30524   4.334  13.143   9.583  0.0412  2.9179  1.7723
  967MOL0     H30525   3.651  12.358   9.297  1.4807 -1.1334  1.8622
  967MOL0     H30526   3.435  12.259   9.188 -1.5267  0.0711 -1.6694
  967MOL0     H30527   3.369  11.953   9.195 -0.5484  0.4877  1.2403
  967MOL0     H30528   3.297  11.735   9.297  0.7601 -3.7189  0.2298
  967MOL0     H30529   4.043  11.050   8.508  0.8273 -0.2192 -3.1287
  967MOL0     H30530   3.802  11.001   8.493  1.7340  0.9709 -0.0319
  967MOL0     H30531   3.313  11.115   8.728  1.8401  0.6392  0.3974
  967MOL0     H30532   3.071  11.142   8.674  1.3702  0.8567  1.0403
  967MOL0     H30533   2.959  11.140   8.237  2.8957 -0.7291  2.0144
  967MOL0     H30534   2.879  11.288   8.304 -1.8770 -0.9536  0.9750
  967MOL0     H30535   2.715  11.151   8.203  1.2911 -0.6760 -1.0852
  967MOL0     H30536   2.698  11.139   8.374 -0.9977 -2.5042 -0.0196
  967MOL0     H30537   2.668  10.919   8.309  0.7147 -2.3212  1.5934
  967MOL0     H30538   2.831  10.931   8.372  2.7120 -0.2211 -2.5717
  967MOL0     H30539   2.809  10.784   8.159 -0.5563 -0.1053 -2.1934
  967MOL0     H30540   2.746  10.927   8.072 -0.1820  0.8436 -0.9579
  967MOL0     H30541   3.159  10.961   8.015  0.1379  2.5839  0.6418
  967MOL0     H30542   3.155  11.131   8.262 -2.3574  1.1403  1.3230
  967MOL0     H30543   3.500  11.030   8.272  1.1473  0.0185 -0.7819
  967MOL0     H30544   3.355  11.074   8.180  0.8001  0.3355  0.2646
  967MOL0     H30545   3.465  11.195   8.224  2.2366 -1.2478 -0.0529
  968MOL0     O30546   5.792   7.108  10.402 -0.0516  0.2491  0.4080
  968MOL0     C30547   5.888   7.049  10.443  0.4985 -0.0528 -0.5323
  968MOL0     O30548   6.014   7.107  10.450 -0.0559  0.4563  0.3120
  968MOL0     C30549   6.039   7.223  10.384  0.4235 -0.6393 -0.2993
  968MOL0     C30550   5.968   7.340  10.409  1.1825 -0.2228  0.7411
  968MOL0     C30551   5.998   7.463  10.349  1.4058 -0.6020  0.0281
  968MOL0     C30552   6.095   7.474  10.250 -1.2111  0.2414 -0.5460
  968MOL0     O30553   6.107   7.578  10.161 -0.2589 -0.9377  0.0065
  968MOL0     C30554   6.027   7.693  10.171  0.4528 -0.5412 -0.6309
  968MOL0     C30555   6.076   7.805  10.072 -0.6796  0.1569 -1.0343
  968MOL0     C30556   6.225   7.822  10.099 -0.1391  0.3891 -0.9418
  968MOL0     C30557   6.266   7.935  10.007 -0.1935  0.2103 -0.7341
  968MOL0     C30558   6.297   7.901   9.853  0.2133  1.3086  0.3773
  968MOL0     C30559   6.278   8.013   9.752  0.6230 -0.5581 -0.4941
  968MOL0     C30560   6.327   7.997   9.605 -0.2387  0.4216  0.6367
  968MOL0     C30561   6.251   7.894   9.517 -0.1253  0.1294  0.1000
  968MOL0     N30562   6.122   7.942   9.470 -0.2670  0.2208 -0.5229
  968MOL0     C30563   6.010   7.870   9.477  0.3452 -0.3281 -0.2978
  968MOL0     C30564   5.924   7.930   9.395 -0.2329  0.4564 -0.1478
  968MOL0     C30565   5.803   7.870   9.334 -0.4169  0.8703 -0.4727
  968MOL0     C30566   5.690   7.961   9.370 -0.1177 -0.6165  0.1818
  968MOL0     C30567   5.674   7.977   9.526 -1.0239 -0.1769  0.7990
  968MOL0     C30568   5.536   8.037   9.583 -0.1052  0.3715  0.4122
  968MOL0     O30569   5.560   8.065   9.725 -0.2265 -0.2067  0.0585
  968MOL0     C30570   5.445   8.072   9.811  0.2213  0.7897  0.2405
  968MOL0     C30571   5.313   8.059   9.766 -0.3847  0.1181  0.2959
  968MOL0     C30572   5.209   8.026   9.858  0.3324  0.8908 -0.5760
  968MOL0     C30573   5.237   8.015   9.995  0.0070 -0.6236  0.0885
  968MOL0     C30574   5.147   7.973  10.095  0.6521  0.3256 -0.0687
  968MOL0     O30575   5.194   7.917  10.196  0.3244 -0.2859 -0.4383
  968MOL0     C30576   5.155   7.921  10.337  0.8276 -0.0572  0.5292
  968MOL0     C30577   5.252   7.876  10.426 -0.2614  0.1309 -0.0810
  968MOL0     C30578   5.223   7.868  10.559 -0.0887  0.5711 -0.1963
  968MOL0     C30579   5.104   7.907  10.610 -0.9043 -0.5118 -0.4111
  968MOL0     O30580   5.094   7.904  10.745  0.5335 -0.9542  0.2245
  968MOL0     C30581   4.965   7.864  10.797 -0.6853 -0.9572  0.0659
  968MOL0     C30582   4.971   7.868  10.953  0.8979 -0.0565 -0.2770
  968MOL0     C30583   5.084   7.779  11.012 -0.2347  0.3607 -0.3259
  968MOL0     C30584   5.089   7.783  11.163  0.5103  0.7684  0.2465
  968MOL0     C30585   5.225   7.744  11.225  0.8114  0.6140  0.0269
  968MOL0     C30586   5.230   7.720  11.373  0.5828  0.6528 -0.6934
  968MOL0     C30587   5.153   7.818  11.454  0.0384 -0.5980  0.3445
  968MOL0     C30588   5.206   7.810  11.597 -0.3902  0.2221  0.4384
  968MOL0    Cl30589   5.138   7.666  11.663  0.0677 -0.0324 -0.3856
  968MOL0     C30590   5.006   7.960  10.527 -0.5993 -0.9004  0.4141
  968MOL0     C30591   5.035   7.964  10.393 -0.4720  0.6491 -0.5553
  968MOL0     O30592   5.024   7.970  10.063 -0.4009 -0.4811  0.8503
  968MOL0     C30593   5.364   8.035  10.038 -0.4379 -0.1007  0.3884
  968MOL0     C30594   5.464   8.081   9.952  0.4693 -1.0021 -0.0481
  968MOL0     N30595   5.994   8.028   9.331  0.3190  0.8256 -0.5972
  968MOL0     N30596   6.111   8.036   9.373  0.7213 -0.1063  0.0992
  968MOL0     C30597   6.163   7.354  10.217 -0.4244 -0.2315  0.3719
  968MOL0     C30598   6.137   7.238  10.292 -0.6902  0.3937  0.4737
  968MOL0     C30599   5.882   6.901  10.483  0.3352 -0.8518  0.0217
  968MOL0     C30600   5.999   6.824  10.513  0.5440 -0.2621  0.3160
  968MOL0     C30601   5.990   6.693  10.552 -0.5428 -0.6249  1.0002
  968MOL0     C30602   5.872   6.631  10.581 -0.4745  0.0071  1.3068
  968MOL0     O30603   5.859   6.490  10.581 -0.7712 -0.2808 -0.3737
  968MOL0     C30604   5.959   6.401  10.632 -0.2166  0.8850  0.2145
  968MOL0     C30605   5.906   6.299  10.732  0.1866 -0.1663 -0.3669
  968MOL0     C30606   5.818   6.190  10.663 -0.3699  0.3514  0.1501
  968MOL0     C30607   5.751   6.111  10.780  1.4771  0.4180 -0.3314
  968MOL0     C30608   5.841   6.029  10.866 -0.0875 -0.0655  0.4679
  968MOL0     C30609   5.913   5.972  10.949 -0.7986 -0.3949  0.4814
  968MOL0     C30610   5.754   6.703  10.568  0.7176 -0.7427  1.0274
  968MOL0     C30611   5.759   6.836  10.511  0.7958  0.3157  0.1694
  968MOL0     C30612   5.626   6.903  10.498 -0.7615  1.2203  0.0943
  968MOL0     H30613   5.884   7.337  10.478 -0.9730 -3.4224 -1.7406
  968MOL0     H30614   5.939   7.548  10.383 -1.3206 -1.7444 -1.5630
  968MOL0     H30615   5.927   7.671  10.131  0.8239 -3.1603 -0.3080
  968MOL0     H30616   6.018   7.737  10.270  0.8325  0.6498 -1.1094
  968MOL0     H30617   6.025   7.901  10.075  1.1160  1.1308  0.1135
  968MOL0     H30618   6.068   7.759   9.973  1.8660  1.1886 -1.7886
  968MOL0     H30619   6.277   7.729  10.074 -2.4609 -1.4278  0.5138
  968MOL0     H30620   6.262   7.839  10.201 -0.0306  0.7380 -1.0406
  968MOL0     H30621   6.192   8.015  10.003 -2.0699 -1.4018  0.0827
  968MOL0     H30622   6.349   7.993  10.047  0.5131 -0.6896 -0.8418
  968MOL0     H30623   6.400   7.864   9.851  0.7877  2.6286 -3.5541
  968MOL0     H30624   6.237   7.816   9.819  2.6741  0.6676 -2.8413
  968MOL0     H30625   6.181   8.061   9.760  1.3990  1.1307 -0.7844
  968MOL0     H30626   6.341   8.093   9.792 -2.2479  1.0850  1.0593
  968MOL0     H30627   6.428   7.958   9.618  0.1277  1.7292  1.9048
  968MOL0     H30628   6.343   8.086   9.544  0.6990  0.3511  0.7610
  968MOL0     H30629   6.306   7.864   9.427 -2.9958 -2.2154 -1.0487
  968MOL0     H30630   6.236   7.798   9.568 -0.4799 -0.1051 -0.4247
  968MOL0     H30631   5.993   7.780   9.535  2.1688 -1.9898 -2.1672
  968MOL0     H30632   5.805   7.856   9.226 -1.9548  1.2934 -0.5712
  968MOL0     H30633   5.783   7.770   9.374 -2.5986  2.2218  2.1995
  968MOL0     H30634   5.695   8.058   9.320 -1.6220 -0.3415  0.5243
  968MOL0     H30635   5.611   7.899   9.329 -0.8293  0.9365 -0.8683
  968MOL0     H30636   5.759   8.044   9.543  1.0257 -0.9674 -4.4342
  968MOL0     H30637   5.690   7.883   9.581 -3.3090 -1.4739 -0.6045
  968MOL0     H30638   5.467   7.954   9.565  1.3175 -0.9272  0.7631
  968MOL0     H30639   5.505   8.119   9.518 -1.3832 -0.5543 -0.1828
  968MOL0     H30640   5.294   8.047   9.660  0.6379 -2.6545  0.3649
  968MOL0     H30641   5.111   7.992   9.825  1.4375 -2.3557 -0.9415
  968MOL0     H30642   5.354   7.855  10.393 -0.5857 -1.8228  0.0534
  968MOL0     H30643   5.296   7.834  10.631  0.9833 -0.9217 -1.8859
  968MOL0     H30644   4.883   7.932  10.772  0.1274  1.0791  2.4964
  968MOL0     H30645   4.937   7.763  10.768  0.1990 -1.7297  1.7940
  968MOL0     H30646   4.987   7.971  10.986  0.0458 -1.1471  4.2270
  968MOL0     H30647   4.873   7.839  10.991  0.8434  0.6239  0.1059
  968MOL0     H30648   5.071   7.680  10.969 -0.2783 -0.4378  1.4407
  968MOL0     H30649   5.179   7.812  10.970  0.0434  1.2439  0.9044
  968MOL0     H30650   5.012   7.714  11.200  1.6528 -2.3479 -2.7294
  968MOL0     H30651   5.057   7.880  11.203  0.8973  0.8091  0.4618
  968MOL0     H30652   5.302   7.820  11.207  1.9827 -0.1149  1.6110
  968MOL0     H30653   5.267   7.655  11.177  1.4947  2.0757 -2.2099
  968MOL0     H30654   5.191   7.620  11.394  4.0632 -1.0761 -1.6882
  968MOL0     H30655   5.333   7.707  11.408  1.3135 -0.8992 -3.2226
  968MOL0     H30656   5.045   7.801  11.446  0.4075 -2.6130 -1.2580
  968MOL0     H30657   5.172   7.915  11.408 -1.2921 -0.9753 -1.0669
  968MOL0     H30658   5.315   7.809  11.600 -0.1466 -0.7942 -3.2858
  968MOL0     H30659   5.174   7.902  11.646  2.8817  0.9820  1.3898
  968MOL0     H30660   4.912   8.003  10.562 -0.0714  1.3057 -0.6984
  968MOL0     H30661   4.964   8.023  10.336 -2.5044 -1.2524 -0.1311
  968MOL0     H30662   5.396   8.021  10.140 -1.1537 -3.4729  0.2520
  968MOL0     H30663   5.561   8.115   9.987 -0.1078  1.3578 -0.5733
  968MOL0     H30664   6.229   7.344  10.132 -1.5210 -1.3909 -0.3739
  968MOL0     H30665   6.184   7.145  10.262 -6.2422 -2.4122 -0.7378
  968MOL0     H30666   6.093   6.863  10.476  0.4765 -0.4642 -0.0818
  968MOL0     H30667   6.080   6.633  10.553  0.2413  0.3635 -2.1574
  968MOL0     H30668   6.046   6.445  10.681  1.9244 -4.5205  2.0895
  968MOL0     H30669   6.013   6.354  10.550  2.5699 -1.2606  3.0401
  968MOL0     H30670   5.852   6.356  10.809 -0.8505 -1.2656 -0.2530
  968MOL0     H30671   5.990   6.276  10.799  0.5158  1.2974 -0.2341
  968MOL0     H30672   5.877   6.120  10.603  0.1251  1.7862 -1.1066
  968MOL0     H30673   5.745   6.242  10.600  0.6928  0.8855 -0.6708
  968MOL0     H30674   5.692   6.169  10.851  0.2627 -3.1650  1.8164
  968MOL0     H30675   5.670   6.055  10.732  0.4303  0.5932  1.1577
  968MOL0     H30676   5.993   5.942  11.015 -0.0655  0.8923  0.2103
  968MOL0     H30677   5.664   6.644  10.583 -0.4698  1.1825  1.8687
  968MOL0     H30678   5.648   6.981  10.572  4.0380  0.5904 -0.3675
  968MOL0     H30679   5.602   6.942  10.399  1.0580  0.5247 -0.6572
  968MOL0     H30680   5.545   6.831  10.513 -0.4070  0.3073 -2.1013
  969MOL0     O30681   9.880  10.868   2.835 -0.0078 -0.7360 -0.5608
  969MOL0     C30682   9.928  10.979   2.867 -0.3354 -0.2770 -0.1406
  969MOL0     O30683  10.057  11.024   2.830  0.1925  0.1625  0.4257
  969MOL0     C30684  10.138  10.932   2.774 -0.5596  0.3387  0.0006
  969MOL0     C30685  10.254  10.877   2.843  1.0156  0.1721 -0.3989
  969MOL0     C30686  10.330  10.782   2.782 -0.3599  0.1057  0.1829
  969MOL0     C30687  10.297  10.724   2.667  0.3992  0.5941 -0.1738
  969MOL0     O30688  10.376  10.624   2.616  0.0337  0.3503 -0.3667
  969MOL0     C30689  10.306  10.499   2.579 -0.4106 -0.7234 -0.3324
  969MOL0     C30690  10.413  10.400   2.560  0.5556  0.1440  0.0637
  969MOL0     C30691  10.476  10.354   2.692 -0.1093 -0.3661  1.2680
  969MOL0     C30692  10.635  10.344   2.672 -0.4889  0.2282  0.4625
  969MOL0     C30693  10.697  10.286   2.797  0.5621 -0.5273 -0.0050
  969MOL0     C30694  10.847  10.299   2.791 -0.0163  0.3577  0.1484
  969MOL0     C30695  10.912  10.286   2.929 -0.1301  0.3282  0.1767
  969MOL0     C30696  11.061  10.282   2.925 -0.0085 -0.4388 -0.3585
  969MOL0     N30697  11.130  10.387   2.847  0.1677 -0.3643 -1.0542
  969MOL0     C30698  11.128  10.526   2.861 -0.6471  1.1384 -0.2340
  969MOL0     C30699  11.217  10.574   2.777  0.6277 -0.5292 -0.1201
  969MOL0     C30700  11.263  10.720   2.785 -0.0425  0.3399 -0.2958
  969MOL0     C30701  11.387  10.727   2.866  0.1928 -0.2203  0.1017
  969MOL0     C30702  11.471  10.847   2.828 -0.7365 -0.8235 -0.4227
  969MOL0     C30703  11.400  10.981   2.851  1.2757 -0.7786  0.0925
  969MOL0     O30704  11.499  11.079   2.855  0.4729  0.5006 -0.5517
  969MOL0     C30705  11.473  11.213   2.857  0.0029 -0.0325  0.7951
  969MOL0     C30706  11.578  11.297   2.859  0.0301 -0.3539 -0.0971
  969MOL0     C30707  11.559  11.434   2.856  0.4533 -0.5211 -0.1542
  969MOL0     C30708  11.433  11.489   2.840  0.2553  0.0810  0.6699
  969MOL0     C30709  11.417  11.635   2.821 -0.0249 -0.3197 -0.5820
  969MOL0     O30710  11.536  11.699   2.828 -0.2944  0.2799 -0.2956
  969MOL0     C30711  11.541  11.836   2.828  0.0779 -0.6124  0.3208
  969MOL0     C30712  11.434  11.940   2.821 -0.0219  0.3904 -0.1338
  969MOL0     C30713  11.469  12.079   2.827  0.2735  0.4594  0.0730
  969MOL0     C30714  11.604  12.116   2.827 -1.1943  0.0675 -0.2592
  969MOL0     O30715  11.643  12.253   2.838  0.0300  0.4862  0.0282
  969MOL0     C30716  11.547  12.353   2.789 -0.5262  0.1203 -0.1864
  969MOL0     C30717  11.618  12.490   2.774 -0.3322  0.9594  0.2871
  969MOL0     C30718  11.647  12.564   2.907  0.3975 -0.6255  0.4765
  969MOL0     C30719  11.784  12.519   2.976  0.3157  0.4480  0.0507
  969MOL0     C30720  11.755  12.462   3.109 -0.6096  0.2124  0.4108
  969MOL0     C30721  11.881  12.393   3.167 -0.3375 -0.1889 -0.3364
  969MOL0     C30722  11.878  12.388   3.324  0.0351 -0.4491  0.1623
  969MOL0     C30723  11.789  12.281   3.389  1.0955 -0.6954 -0.2685
  969MOL0    Cl30724  11.798  12.324   3.563 -0.0549 -0.0858  0.1168
  969MOL0     C30725  11.698  12.017   2.808  0.4466 -0.2498 -0.3766
  969MOL0     C30726  11.670  11.881   2.815  1.1368  0.1291  0.2635
  969MOL0     O30727  11.306  11.690   2.835 -0.4077  0.0728 -0.3026
  969MOL0     C30728  11.327  11.404   2.838 -0.3812  0.2584 -0.6694
  969MOL0     C30729  11.343  11.263   2.855  0.4567  0.5378 -0.0417
  969MOL0     N30730  11.269  10.463   2.719 -0.2344 -0.2554  0.1562
  969MOL0     N30731  11.208  10.351   2.747  0.5890 -0.5996 -0.4515
  969MOL0     C30732  10.180  10.775   2.595 -0.7637  0.6165 -0.2963
  969MOL0     C30733  10.102  10.872   2.655  0.4402  0.1334  0.5210
  969MOL0     C30734   9.850  11.070   2.956  0.0946  0.2118 -0.3130
  969MOL0     C30735   9.869  11.210   2.953 -0.2626 -0.3738 -0.6398
  969MOL0     C30736   9.792  11.290   3.042 -0.9100  0.4695  0.5166
  969MOL0     C30737   9.691  11.246   3.125 -0.0512  1.1539  1.0321
  969MOL0     O30738   9.623  11.336   3.203  0.1316  0.3456 -0.1179
  969MOL0     C30739   9.492  11.300   3.270  0.0892  0.3170  0.0476
  969MOL0     C30740   9.510  11.234   3.408  0.1548 -0.3297  0.3231
  969MOL0     C30741   9.516  11.328   3.522 -0.5901 -0.3565 -0.2052
  969MOL0     C30742   9.521  11.239   3.647  0.0833 -1.0107  0.0432
  969MOL0     C30743   9.581  11.308   3.761 -0.6859  0.2944 -0.2378
  969MOL0     C30744   9.632  11.373   3.850  0.3377 -0.2922 -0.2497
  969MOL0     C30745   9.674  11.106   3.127  0.0362  0.4931  0.5220
  969MOL0     C30746   9.749  11.015   3.040 -0.3429  0.2189  0.1178
  969MOL0     C30747   9.719  10.866   3.058 -0.4743 -0.2122  0.2505
  969MOL0     H30748  10.278  10.904   2.945  1.1746  2.5692 -1.0218
  969MOL0     H30749  10.425  10.756   2.825 -2.3113  0.8303  5.6901
  969MOL0     H30750  10.229  10.481   2.654 -1.1769  1.1951 -0.5976
  969MOL0     H30751  10.258  10.500   2.481 -0.3575 -5.3752 -0.6110
  969MOL0     H30752  10.494  10.450   2.506  1.2045  0.5107  1.3343
  969MOL0     H30753  10.374  10.319   2.498 -1.7111  1.1242  0.1082
  969MOL0     H30754  10.424  10.259   2.706  2.3500 -2.4320 -1.8908
  969MOL0     H30755  10.453  10.421   2.775  0.4009 -0.6952  1.6835
  969MOL0     H30756  10.650  10.297   2.574  0.2653 -0.1568  0.7549
  969MOL0     H30757  10.677  10.443   2.655  1.4545  0.2244  4.2034
  969MOL0     H30758  10.649  10.342   2.878 -3.8141 -1.3176 -1.7442
  969MOL0     H30759  10.672  10.181   2.819  1.4334 -1.2572 -2.2576
  969MOL0     H30760  10.885  10.218   2.727  0.6664  0.6959  0.1196
  969MOL0     H30761  10.874  10.400   2.760 -0.0660  0.5531  0.7249
  969MOL0     H30762  10.882  10.191   2.974  2.1829 -0.2740  0.5963
  969MOL0     H30763  10.888  10.370   2.995  0.5171 -0.0448  0.9041
  969MOL0     H30764  11.109  10.265   3.022 -1.2060 -0.9825  0.1623
  969MOL0     H30765  11.074  10.187   2.872 -1.9248 -0.5039 -0.7988
  969MOL0     H30766  11.060  10.570   2.934 -3.7503  0.3957 -2.4500
  969MOL0     H30767  11.273  10.767   2.687  1.1608  0.2688 -0.2176
  969MOL0     H30768  11.189  10.780   2.838 -0.9207 -2.2689  1.6486
  969MOL0     H30769  11.363  10.744   2.972  3.8042  0.4812  0.9135
  969MOL0     H30770  11.444  10.638   2.840 -0.0805  0.0985 -1.7243
  969MOL0     H30771  11.510  10.833   2.727 -0.9133 -2.7454 -0.2583
  969MOL0     H30772  11.558  10.842   2.895 -3.0900  1.9085  3.2495
  969MOL0     H30773  11.343  10.978   2.944  1.3315 -1.2711  0.1121
  969MOL0     H30774  11.321  10.996   2.776  0.1826  0.0092  1.3692
  969MOL0     H30775  11.681  11.266   2.875 -0.1494 -0.0212  1.9465
  969MOL0     H30776  11.647  11.495   2.875  0.7089 -1.3737  1.5567
  969MOL0     H30777  11.328  11.916   2.819 -0.0188  0.3544 -1.5549
  969MOL0     H30778  11.398  12.158   2.850  0.6367  1.4286 -1.9590
  969MOL0     H30779  11.502  12.334   2.692 -3.0387  0.8408  0.7616
  969MOL0     H30780  11.468  12.367   2.863  0.5742 -0.1220  1.0728
  969MOL0     H30781  11.715  12.487   2.722 -0.2923  0.9517  0.3616
  969MOL0     H30782  11.554  12.553   2.711 -1.3582 -2.0213 -1.8744
  969MOL0     H30783  11.652  12.667   2.870  2.5564 -0.1824  1.8602
  969MOL0     H30784  11.559  12.554   2.971 -2.0709  0.7058 -2.4649
  969MOL0     H30785  11.853  12.602   2.993  0.6034  0.1656  0.2664
  969MOL0     H30786  11.834  12.444   2.916 -0.9369 -0.9493  0.6826
  969MOL0     H30787  11.668  12.397   3.116 -1.4636  1.4119  1.6138
  969MOL0     H30788  11.734  12.539   3.185  0.4694 -0.3531  1.3284
  969MOL0     H30789  11.890  12.295   3.119  0.3590  0.7136 -2.1351
  969MOL0     H30790  11.970  12.446   3.131 -0.3492  0.8060  1.0132
  969MOL0     H30791  11.847  12.483   3.370 -1.0125 -1.3205  1.3462
  969MOL0     H30792  11.982  12.362   3.345  0.0412 -1.1910 -0.7005
  969MOL0     H30793  11.687  12.274   3.350  0.1367 -2.1552  2.2620
  969MOL0     H30794  11.835  12.182   3.377 -3.0780 -3.1320  1.4627
  969MOL0     H30795  11.806  12.034   2.812  0.7656 -1.8887 -1.4379
  969MOL0     H30796  11.747  11.808   2.838  1.4114  1.0362  2.5388
  969MOL0     H30797  11.226  11.431   2.810 -0.0747 -1.1998 -3.6248
  969MOL0     H30798  11.249  11.211   2.841  1.0322 -0.4302 -0.3580
  969MOL0     H30799  10.151  10.719   2.507  3.1117  1.1873 -2.1509
  969MOL0     H30800  10.020  10.914   2.598 -0.5506 -0.4450  1.4738
  969MOL0     H30801   9.944  11.255   2.889  3.2849  0.5235  3.6553
  969MOL0     H30802   9.798  11.398   3.030  1.8890  0.1467 -2.3957
  969MOL0     H30803   9.440  11.234   3.200  2.8908 -4.2227  1.7970
  969MOL0     H30804   9.430  11.390   3.277 -1.6996 -0.8013 -0.7173
  969MOL0     H30805   9.597  11.168   3.414  1.5874  1.2987 -1.0990
  969MOL0     H30806   9.415  11.183   3.420 -1.3989  2.1866 -0.5309
  969MOL0     H30807   9.426  11.389   3.522 -0.8799 -0.7768 -0.6282
  969MOL0     H30808   9.607  11.387   3.508 -0.2101 -1.4851 -3.6158
  969MOL0     H30809   9.421  11.203   3.671 -0.4435  1.3531  1.6974
  969MOL0     H30810   9.585  11.152   3.626 -0.5200 -1.5554  0.4373
  969MOL0     H30811   9.677  11.443   3.918 -1.5204  1.8372 -1.0539
  969MOL0     H30812   9.596  11.057   3.184 -2.3790 -0.9152 -3.5877
  969MOL0     H30813   9.669  10.822   2.972  2.0745 -3.9011  0.4505
  969MOL0     H30814   9.817  10.817   3.060  0.0395  0.7879  0.6197
  969MOL0     H30815   9.671  10.839   3.153 -2.1214  1.5745  0.0017
  970MOL0     O30816   8.543   4.012   1.631  0.2560  0.2173  0.0421
  970MOL0     C30817   8.515   4.076   1.532 -0.0186 -1.1117  1.7174
  970MOL0     O30818   8.560   4.049   1.404  0.2426  0.0561 -1.1662
  970MOL0     C30819   8.669   3.967   1.392  0.1269 -0.2751 -0.0833
  970MOL0     C30820   8.792   3.972   1.464  0.2006 -0.7004  0.4933
  970MOL0     C30821   8.901   3.891   1.432 -0.7077  0.2599  0.5780
  970MOL0     C30822   8.897   3.802   1.333 -0.0323 -0.5192  0.6770
  970MOL0     O30823   9.011   3.732   1.313 -0.4449  0.2111 -0.4031
  970MOL0     C30824   9.039   3.655   1.196 -0.9900 -0.3221  0.5887
  970MOL0     C30825   9.194   3.628   1.200 -0.5517 -0.5681  0.0296
  970MOL0     C30826   9.267   3.553   1.086 -0.2295 -0.1568 -0.0529
  970MOL0     C30827   9.207   3.412   1.076  0.3038  0.2529  0.1648
  970MOL0     C30828   9.310   3.310   1.017  0.9732 -0.1974 -0.2353
  970MOL0     C30829   9.232   3.193   0.964 -1.1247 -0.1854 -0.2228
  970MOL0     C30830   9.331   3.073   0.937  0.0158 -0.3517  0.2237
  970MOL0     C30831   9.242   2.967   0.855 -0.0754 -0.2102 -0.4266
  970MOL0     N30832   9.248   2.983   0.709 -0.5406 -0.3396 -0.2676
  970MOL0     C30833   9.290   3.091   0.640  0.2745 -0.6229  0.9943
  970MOL0     C30834   9.281   3.047   0.507 -0.8909  1.2898 -0.9011
  970MOL0     C30835   9.296   3.132   0.390 -0.0745  0.7888 -0.0645
  970MOL0     C30836   9.160   3.142   0.312 -0.5851  0.8454 -0.0064
  970MOL0     C30837   9.072   3.240   0.386  0.2631 -0.2305  0.0770
  970MOL0     C30838   9.105   3.391   0.376  0.6423 -0.3162 -0.2129
  970MOL0     O30839   9.113   3.440   0.509 -0.5007  0.4769 -0.0208
  970MOL0     C30840   9.000   3.471   0.587  0.9934  0.8731  0.5907
  970MOL0     C30841   9.008   3.475   0.727  0.2743  0.3014  0.6894
  970MOL0     C30842   8.893   3.487   0.799 -0.3214  0.0195 -1.3837
  970MOL0     C30843   8.758   3.490   0.741 -0.8335  0.0727 -0.0153
  970MOL0     C30844   8.633   3.480   0.815  0.0454  0.1766 -0.0930
  970MOL0     O30845   8.536   3.400   0.772  0.2450 -1.0257 -0.0324
  970MOL0     C30846   8.402   3.414   0.819 -0.4261 -0.1240  0.6272
  970MOL0     C30847   8.318   3.302   0.793  0.9499  1.0237 -0.1482
  970MOL0     C30848   8.190   3.294   0.836  0.9343 -0.8464 -0.3253
  970MOL0     C30849   8.131   3.411   0.900  0.4045  0.8333 -0.7663
  970MOL0     O30850   7.993   3.406   0.940 -0.2155 -0.1314  0.5361
  970MOL0     C30851   7.947   3.492   1.042 -0.9864 -0.1555  0.5164
  970MOL0     C30852   7.823   3.443   1.110  0.7466 -0.6217  0.9830
  970MOL0     C30853   7.854   3.351   1.222  0.9026  0.0449  0.5364
  970MOL0     C30854   7.855   3.200   1.188  0.7362 -0.5354 -0.1565
  970MOL0     C30855   7.938   3.116   1.279  0.0594 -0.0464  0.6239
  970MOL0     C30856   7.975   2.976   1.228 -0.3283 -0.4695 -0.3009
  970MOL0     C30857   8.005   2.870   1.343 -0.4963  0.0691 -0.0120
  970MOL0     C30858   8.020   2.730   1.285 -0.8335 -0.8804 -0.1443
  970MOL0    Cl30859   7.856   2.668   1.228 -0.1744  0.2306 -0.2172
  970MOL0     C30860   8.216   3.525   0.913  0.4714  0.1529  1.0465
  970MOL0     C30861   8.349   3.520   0.875 -0.2179 -0.3382  0.0983
  970MOL0     O30862   8.625   3.551   0.916  0.5765  0.1016 -0.0405
  970MOL0     C30863   8.755   3.492   0.602  0.7463 -0.1649 -0.8563
  970MOL0     C30864   8.870   3.484   0.530 -0.1030  0.0359 -1.3889
  970MOL0     N30865   9.243   2.914   0.509  0.0836  0.3414 -0.2776
  970MOL0     N30866   9.228   2.877   0.630 -1.0586  0.7138  0.5272
  970MOL0     C30867   8.780   3.798   1.250  0.9238  0.1294  0.1400
  970MOL0     C30868   8.663   3.876   1.283 -0.0723 -0.1766 -0.1732
  970MOL0     C30869   8.409   4.183   1.530  0.1376  0.2695  0.0125
  970MOL0     C30870   8.375   4.255   1.416 -0.2963 -0.5710 -0.2982
  970MOL0     C30871   8.288   4.359   1.414 -0.8656  0.2896 -0.0856
  970MOL0     C30872   8.213   4.394   1.520  0.6111 -0.8433 -0.3214
  970MOL0     O30873   8.138   4.512   1.511 -0.6159 -0.4188  0.0301
  970MOL0     C30874   8.185   4.617   1.592 -0.0571 -0.0841 -1.2887
  970MOL0     C30875   8.153   4.744   1.510 -0.0235  0.1246  0.1636
  970MOL0     C30876   8.216   4.741   1.367  0.9633 -0.5123  0.1125
  970MOL0     C30877   8.371   4.742   1.373 -0.4145  0.0100  0.8954
  970MOL0     C30878   8.425   4.764   1.235  0.2639 -0.3566 -0.4729
  970MOL0     C30879   8.436   4.783   1.120 -0.3297  0.6157  0.1914
  970MOL0     C30880   8.227   4.315   1.639  0.0722  0.0054  0.2008
  970MOL0     C30881   8.325   4.216   1.645 -0.0578  0.1689 -0.1017
  970MOL0     C30882   8.318   4.136   1.775  0.7202 -0.1915 -0.5081
  970MOL0     H30883   8.789   4.034   1.553  0.4833 -0.4760  0.3480
  970MOL0     H30884   8.991   3.884   1.493 -0.3535 -2.9214 -0.1229
  970MOL0     H30885   8.990   3.557   1.209 -0.2763 -0.6664  0.7195
  970MOL0     H30886   9.000   3.703   1.106 -1.7392 -1.2643  0.3886
  970MOL0     H30887   9.226   3.572   1.289 -2.2714 -2.0760 -0.2605
  970MOL0     H30888   9.230   3.731   1.201 -3.6961  0.6329  0.2634
  970MOL0     H30889   9.373   3.535   1.107  0.0226  1.0975 -0.1564
  970MOL0     H30890   9.258   3.604   0.990 -0.6410  2.0551  1.0851
  970MOL0     H30891   9.178   3.381   1.176  3.2416 -2.4180  0.3142
  970MOL0     H30892   9.119   3.412   1.011  0.8551 -0.3055 -0.5942
  970MOL0     H30893   9.371   3.350   0.935 -0.9694  0.9989 -1.1798
  970MOL0     H30894   9.367   3.279   1.105 -3.7965 -2.5094  2.4545
  970MOL0     H30895   9.149   3.165   1.029  1.3239  1.5647  4.0995
  970MOL0     H30896   9.201   3.226   0.864  0.9061  0.5796 -0.6565
  970MOL0     H30897   9.368   3.028   1.029 -1.3283 -0.8128  0.5739
  970MOL0     H30898   9.420   3.098   0.878 -1.1366 -2.1288 -2.4884
  970MOL0     H30899   9.274   2.869   0.891 -1.4010  0.2374  2.2115
  970MOL0     H30900   9.136   2.959   0.882 -0.5026 -0.5261 -2.0985
  970MOL0     H30901   9.303   3.192   0.676  0.3401 -0.3864  0.3163
  970MOL0     H30902   9.324   3.232   0.425  2.0099 -0.3098  1.6516
  970MOL0     H30903   9.371   3.094   0.321 -1.7278  2.5335 -2.9999
  970MOL0     H30904   9.174   3.169   0.207 -0.5223 -1.7837 -0.7469
  970MOL0     H30905   9.114   3.043   0.310 -0.4896  0.7970  0.1896
  970MOL0     H30906   9.053   3.214   0.490  0.2242  2.4884  0.8404
  970MOL0     H30907   8.975   3.232   0.336 -1.0502 -0.4536  2.5401
  970MOL0     H30908   9.033   3.448   0.318  0.5321  2.7068  2.6013
  970MOL0     H30909   9.204   3.406   0.331  0.6884  0.7031  0.2035
  970MOL0     H30910   9.097   3.456   0.786 -0.8130  1.2016  2.7106
  970MOL0     H30911   8.911   3.478   0.905  0.5053  1.4673 -1.3790
  970MOL0     H30912   8.357   3.208   0.753 -1.8691 -1.0510  1.5728
  970MOL0     H30913   8.146   3.197   0.812 -0.5685 -0.4163  0.5805
  970MOL0     H30914   8.023   3.516   1.117 -3.0447  1.7616  2.1409
  970MOL0     H30915   7.921   3.592   1.005  0.1001  0.5626  1.6361
  970MOL0     H30916   7.798   3.540   1.155  5.2004  0.2818  1.9247
  970MOL0     H30917   7.751   3.399   1.040  2.7949  1.5909 -2.8354
  970MOL0     H30918   7.954   3.371   1.261  0.3745  3.8093  0.3000
  970MOL0     H30919   7.777   3.368   1.299  2.4359 -0.5706  2.2693
  970MOL0     H30920   7.880   3.196   1.081 -0.6628 -1.3194 -0.4903
  970MOL0     H30921   7.754   3.159   1.198  0.6927 -0.1854  0.9841
  970MOL0     H30922   7.900   3.119   1.382  1.6671  0.2672  1.2359
  970MOL0     H30923   8.035   3.165   1.287 -0.3936  1.4090 -1.7115
  970MOL0     H30924   7.887   2.936   1.177 -1.3733  1.7840 -0.3861
  970MOL0     H30925   8.041   2.990   1.141 -0.0940  0.5208  0.0248
  970MOL0     H30926   7.925   2.866   1.417  1.9290 -1.7572  2.7273
  970MOL0     H30927   8.095   2.889   1.401 -2.2207  1.8325  2.3060
  970MOL0     H30928   8.085   2.732   1.197 -0.2286 -0.5349  0.3007
  970MOL0     H30929   8.069   2.667   1.360 -1.7848  0.6770  1.8813
  970MOL0     H30930   8.171   3.616   0.952 -0.8867  1.1509 -2.3906
  970MOL0     H30931   8.401   3.613   0.892 -1.6793  0.5489 -0.1161
  970MOL0     H30932   8.662   3.486   0.547  0.7961  1.5178 -1.1752
  970MOL0     H30933   8.854   3.506   0.425  2.4211  4.6642 -1.0680
  970MOL0     H30934   8.773   3.736   1.161 -1.2373  0.9884 -0.3648
  970MOL0     H30935   8.572   3.876   1.223 -2.4504 -0.7296  3.1835
  970MOL0     H30936   8.422   4.231   1.321  0.8694  0.7369 -0.0844
  970MOL0     H30937   8.270   4.405   1.317  0.9409  1.4054  0.0513
  970MOL0     H30938   8.294   4.619   1.595 -0.0752 -0.3553  0.1534
  970MOL0     H30939   8.146   4.619   1.694  1.7891  1.5701 -0.5537
  970MOL0     H30940   8.188   4.839   1.551 -0.4991  1.8344 -3.1299
  970MOL0     H30941   8.051   4.780   1.498  0.4829  2.5630  2.2975
  970MOL0     H30942   8.166   4.814   1.302  0.9204 -1.5072 -1.0085
  970MOL0     H30943   8.191   4.643   1.325 -0.2201  0.6899 -2.1808
  970MOL0     H30944   8.404   4.823   1.439  0.9856  0.1492  0.0841
  970MOL0     H30945   8.406   4.647   1.413 -1.2052 -0.4738  0.4648
  970MOL0     H30946   8.451   4.807   1.017 -2.0152  0.0202 -0.2284
  970MOL0     H30947   8.155   4.348   1.714 -0.6786  2.7855 -1.5588
  970MOL0     H30948   8.352   4.035   1.750  2.5995 -0.1616  1.6046
  970MOL0     H30949   8.382   4.167   1.859 -0.1342 -0.7195  0.3620
  970MOL0     H30950   8.214   4.128   1.806  0.3043  3.2185 -0.6648
  971MOL0     O30951   0.748   3.340  11.457 -0.3813  0.4580 -0.1423
  971MOL0     C30952   0.786   3.443  11.413 -0.1332  0.0204  0.2090
  971MOL0     O30953   0.821   3.550  11.495  1.0979 -0.0809  0.3014
  971MOL0     C30954   0.825   3.522  11.630  0.5519 -0.2540  0.4697
  971MOL0     C30955   0.945   3.519  11.697 -0.6945 -0.0563 -0.5835
  971MOL0     C30956   0.943   3.501  11.827 -0.6838  0.1307 -0.3010
  971MOL0     C30957   0.826   3.512  11.908 -0.6000  0.5755  0.1033
  971MOL0     O30958   0.819   3.504  12.043 -0.7245 -0.3112 -0.1651
  971MOL0     C30959   0.918   3.426  12.114  0.2395  0.4928 -1.0083
  971MOL0     C30960   0.920   3.275  12.087 -0.7766  0.1346  0.6109
  971MOL0     C30961   0.776   3.223  12.095 -0.1513  1.5697 -0.1069
  971MOL0     C30962   0.792   3.070  12.087 -0.5960  0.3118  0.4951
  971MOL0     C30963   0.659   2.990  12.077 -0.3217  0.7122 -0.6159
  971MOL0     C30964   0.683   2.835  12.079 -0.3736  0.2772  0.2436
  971MOL0     C30965   0.576   2.741  12.135  0.0595 -0.6883  0.2319
  971MOL0     C30966   0.437   2.744  12.064 -0.2407 -1.0637  0.1664
  971MOL0     N30967   0.332   2.672  12.124  0.4527  0.4254  0.5871
  971MOL0     C30968   0.311   2.536  12.120 -0.8885 -0.5310 -0.3270
  971MOL0     C30969   0.194   2.520  12.176  0.9053 -0.3874  0.5394
  971MOL0     C30970   0.115   2.390  12.163 -0.4853 -0.5437 -0.0209
  971MOL0     C30971  -0.043   2.406  12.152 -0.4127  0.7779 -0.4013
  971MOL0     C30972  -0.100   2.262  12.176 -0.0088 -0.5214  0.1284
  971MOL0     C30973  -0.125   2.188  12.041 -0.4660  0.7621 -0.1644
  971MOL0     O30974  -0.192   2.063  12.061  0.7501 -0.2468 -0.4297
  971MOL0     C30975  -0.120   1.946  12.092  0.6404  0.2685  0.2353
  971MOL0     C30976   0.019   1.938  12.120  0.3952 -0.3684 -0.3035
  971MOL0     C30977   0.082   1.819  12.157 -0.1929 -0.1724  0.5162
  971MOL0     C30978   0.015   1.696  12.153 -0.2242 -0.2832 -0.8391
  971MOL0     C30979   0.074   1.583  12.214  0.2378 -0.0440 -0.0668
  971MOL0     O30980   0.211   1.579  12.215 -0.3287 -0.6311 -0.7458
  971MOL0     C30981   0.277   1.465  12.253  0.1879 -0.5560 -0.8009
  971MOL0     C30982   0.352   1.475  12.370 -0.2755 -0.5818  0.0480
  971MOL0     C30983   0.407   1.362  12.433 -0.5126  0.3611 -0.0218
  971MOL0     C30984   0.400   1.235  12.367 -0.3169 -1.8562 -0.3572
  971MOL0     O30985   0.463   1.125  12.412 -0.8114 -0.1593  0.2684
  971MOL0     C30986   0.468   1.110  12.562  0.1180 -0.0576  1.2254
  971MOL0     C30987   0.417   0.971  12.605 -0.1072 -0.2808 -0.5399
  971MOL0     C30988   0.408   0.959  12.758  0.0660 -1.1066 -0.4984
  971MOL0     C30989   0.545   0.981  12.816 -0.8221 -0.6789  0.1647
  971MOL0     C30990   0.555   0.907  12.941  0.1467 -0.0740 -0.6154
  971MOL0     C30991   0.538   0.754  12.931 -0.5744  0.5008 -1.1324
  971MOL0     C30992   0.613   0.684  13.052  0.4147  0.2620 -0.4147
  971MOL0     C30993   0.564   0.723  13.197  0.1184  0.3299 -1.3323
  971MOL0    Cl30994   0.641   0.871  13.245 -0.0053  0.2889  0.2841
  971MOL0     C30995   0.330   1.226  12.251 -0.5097  0.0931 -0.1318
  971MOL0     C30996   0.266   1.333  12.198 -0.6484  0.8349 -0.3486
  971MOL0     O30997  -0.005   1.500  12.261 -0.6994  0.1290 -0.3868
  971MOL0     C30998  -0.123   1.699  12.123  0.0764  0.1131  0.3361
  971MOL0     C30999  -0.188   1.815  12.095 -0.1281  0.6605 -0.0930
  971MOL0     N31000   0.134   2.637  12.204 -0.3555 -0.0241 -1.0669
  971MOL0     N31001   0.222   2.723  12.171 -0.3073 -0.0954 -0.1205
  971MOL0     C31002   0.709   3.516  11.839  0.0566 -0.1648  0.7439
  971MOL0     C31003   0.705   3.528  11.698  0.4069  1.1382  0.1835
  971MOL0     C31004   0.796   3.460  11.267  1.0898  0.3423  0.1601
  971MOL0     C31005   0.777   3.598  11.211  0.3610 -0.3387  1.0359
  971MOL0     C31006   0.785   3.618  11.077 -0.4529  0.0136 -0.6809
  971MOL0     C31007   0.813   3.511  10.991 -0.1807  0.3630  0.2870
  971MOL0     O31008   0.838   3.538  10.860 -0.7727  0.3961 -0.9298
  971MOL0     C31009   0.709   3.525  10.793 -0.9815  0.7621 -0.5058
  971MOL0     C31010   0.727   3.425  10.683 -0.1912 -0.3442  0.1080
  971MOL0     C31011   0.831   3.455  10.570 -1.0335  0.6331 -0.6067
  971MOL0     C31012   0.759   3.537  10.463  0.4071 -0.1328  0.5493
  971MOL0     C31013   0.844   3.573  10.349 -0.0333  0.0195 -0.0182
  971MOL0     C31014   0.933   3.590  10.269  0.5985 -0.4397 -1.0687
  971MOL0     C31015   0.855   3.385  11.042 -0.1051 -0.1434  0.4817
  971MOL0     C31016   0.827   3.355  11.175  0.4211  0.4064 -0.3433
  971MOL0     C31017   0.859   3.211  11.211 -0.0044  0.5717  0.1311
  971MOL0     H31018   1.036   3.513  11.638  0.1127  1.0511  0.5058
  971MOL0     H31019   1.036   3.488  11.883 -0.6919  1.3028  0.0198
  971MOL0     H31020   1.011   3.482  12.100 -0.2621  1.5639 -0.1335
  971MOL0     H31021   0.885   3.443  12.216 -0.1483  3.8277 -1.5815
  971MOL0     H31022   0.991   3.220  12.148 -1.9151 -1.0110  0.9611
  971MOL0     H31023   0.957   3.266  11.985 -1.9116  1.8916 -0.0111
  971MOL0     H31024   0.720   3.256  12.007 -0.3501 -1.2162 -1.0981
  971MOL0     H31025   0.728   3.251  12.190  0.0879  2.0519 -0.1201
  971MOL0     H31026   0.862   3.041  12.008  1.3190  1.6479  1.6077
  971MOL0     H31027   0.854   3.047  12.174  1.8284 -3.3547 -1.9521
  971MOL0     H31028   0.601   3.023  12.164 -0.0280 -1.2837  0.3812
  971MOL0     H31029   0.600   3.020  11.991 -3.2245  1.5772  1.5134
  971MOL0     H31030   0.709   2.821  11.974 -0.3639  1.2452  0.1054
  971MOL0     H31031   0.772   2.830  12.142 -1.5771  0.4823  2.0352
  971MOL0     H31032   0.565   2.770  12.240 -0.2365  1.1345 -0.2777
  971MOL0     H31033   0.608   2.636  12.137 -3.0829 -1.7579  0.4559
  971MOL0     H31034   0.407   2.849  12.055  1.6657 -0.3473  1.5080
  971MOL0     H31035   0.461   2.705  11.965  1.8797  0.8058 -0.1507
  971MOL0     H31036   0.374   2.452  12.092  2.6809  1.8058  0.0398
  971MOL0     H31037   0.152   2.340  12.073  0.6982 -1.2946  0.8443
  971MOL0     H31038   0.139   2.333  12.254  1.4296  0.3513  0.0960
  971MOL0     H31039  -0.076   2.477  12.229  3.3533  2.0606  0.2270
  971MOL0     H31040  -0.062   2.443  12.051 -0.1095 -0.2348 -0.8382
  971MOL0     H31041  -0.193   2.273  12.233  0.5399 -3.3111  1.7078
  971MOL0     H31042  -0.028   2.206  12.235 -1.2040 -1.3161  0.8689
  971MOL0     H31043  -0.027   2.177  11.995 -1.1912 -1.3358 -1.3444
  971MOL0     H31044  -0.177   2.257  11.973 -0.1552  0.1161 -1.0776
  971MOL0     H31045   0.069   2.035  12.115  0.0964 -0.2322 -4.2567
  971MOL0     H31046   0.184   1.832  12.192 -1.1688 -0.6224  3.8634
  971MOL0     H31047   0.376   1.573  12.411  0.3202 -0.2652 -1.0270
  971MOL0     H31048   0.466   1.369  12.524  0.8988 -2.3850 -0.5902
  971MOL0     H31049   0.572   1.123  12.593  0.8047 -0.5650 -0.7341
  971MOL0     H31050   0.417   1.192  12.613 -2.5580 -1.4444  0.9775
  971MOL0     H31051   0.315   0.960  12.567 -0.3498  1.0102 -0.2927
  971MOL0     H31052   0.469   0.885  12.561 -0.5618 -1.6746  1.5135
  971MOL0     H31053   0.344   1.036  12.802  2.6972 -0.4147  2.4768
  971MOL0     H31054   0.361   0.863  12.780  0.1032 -0.7445  1.3591
  971MOL0     H31055   0.565   1.088  12.832  0.9394 -1.0493  0.6770
  971MOL0     H31056   0.617   0.945  12.742  1.6982  2.8216  0.6567
  971MOL0     H31057   0.489   0.945  13.020  1.6121  1.3565 -0.0178
  971MOL0     H31058   0.649   0.942  12.986 -0.9426  0.6412  1.2042
  971MOL0     H31059   0.435   0.718  12.932  0.0754 -1.5213 -0.3067
  971MOL0     H31060   0.592   0.720  12.842  1.0406  0.9390 -0.3606
  971MOL0     H31061   0.718   0.712  13.044  0.8220 -1.5467 -2.1526
  971MOL0     H31062   0.619   0.576  13.032 -1.5886  0.2013 -0.9489
  971MOL0     H31063   0.460   0.755  13.215  1.6190  5.3708 -0.0287
  971MOL0     H31064   0.584   0.641  13.267 -0.2813  1.4968  0.2159
  971MOL0     H31065   0.341   1.137  12.190 -1.1433 -1.5119  1.9472
  971MOL0     H31066   0.202   1.310  12.114  2.3994 -1.1907 -2.3274
  971MOL0     H31067  -0.184   1.609  12.123 -0.9935  0.7589 -1.7825
  971MOL0     H31068  -0.292   1.800  12.067 -0.5996 -4.7861  3.0469
  971MOL0     H31069   0.612   3.525  11.886 -1.9506  0.7508 -3.1344
  971MOL0     H31070   0.609   3.523  11.647  1.1154 -0.6431 -1.1250
  971MOL0     H31071   0.754   3.681  11.277  1.1691 -0.3933  1.3932
  971MOL0     H31072   0.776   3.715  11.030  0.8924  0.2590 -0.4720
  971MOL0     H31073   0.682   3.621  10.749 -2.4742  0.0873 -1.1287
  971MOL0     H31074   0.623   3.502  10.857  1.8860  1.8053  4.2274
  971MOL0     H31075   0.631   3.396  10.639 -0.7630 -0.7367  1.5621
  971MOL0     H31076   0.767   3.339  10.737 -0.8556  0.9946  2.8963
  971MOL0     H31077   0.865   3.359  10.531 -4.3163 -0.4359 -1.1538
  971MOL0     H31078   0.912   3.520  10.604  0.6481  2.0338 -6.2014
  971MOL0     H31079   0.673   3.484  10.422  0.0945  0.2706  0.6841
  971MOL0     H31080   0.712   3.616  10.521 -3.3756 -2.9838  1.7397
  971MOL0     H31081   1.019   3.597  10.205  1.2482  0.6955 -0.1027
  971MOL0     H31082   0.894   3.309  10.975 -0.8018 -2.3436  2.4339
  971MOL0     H31083   0.966   3.187  11.209 -0.6212 -2.4666 -0.3495
  971MOL0     H31084   0.820   3.186  11.310 -1.8577  3.0924  0.1323
  971MOL0     H31085   0.808   3.148  11.138 -0.8300  1.7138 -0.3169
  972MOL0     O31086   4.810   0.894   5.395  0.0971 -0.1575  0.4928
  972MOL0     C31087   4.691   0.875   5.363  0.6363  0.6196 -0.7217
  972MOL0     O31088   4.624   0.937   5.267  0.1124 -0.3982  0.5381
  972MOL0     C31089   4.694   1.021   5.178  0.5781  0.3730 -0.0829
  972MOL0     C31090   4.741   0.953   5.069  0.3684 -0.4466  0.4004
  972MOL0     C31091   4.808   1.024   4.972 -0.5711  0.3189  0.2088
  972MOL0     C31092   4.819   1.162   4.968 -0.3040 -0.5410 -0.6075
  972MOL0     O31093   4.881   1.225   4.858 -0.3369 -0.2541  0.2571
  972MOL0     C31094   4.980   1.331   4.873 -0.0352 -0.3472  0.5017
  972MOL0     C31095   5.121   1.277   4.863  0.6888  0.3968 -0.1595
  972MOL0     C31096   5.142   1.213   4.728  0.0248 -0.2456  0.3701
  972MOL0     C31097   5.288   1.162   4.716  0.7993  0.5859  0.1087
  972MOL0     C31098   5.309   1.130   4.569  0.1024  0.5853  0.1314
  972MOL0     C31099   5.325   1.255   4.480 -0.5862 -0.3590 -0.3153
  972MOL0     C31100   5.342   1.231   4.328  0.1472 -0.8122  0.7397
  972MOL0     C31101   5.474   1.266   4.267  0.0245 -0.1313 -0.6653
  972MOL0     N31102   5.592   1.191   4.314 -0.7347  0.3561  0.2243
  972MOL0     C31103   5.644   1.072   4.261  0.6085 -0.3891 -0.1805
  972MOL0     C31104   5.768   1.068   4.312  0.1091  0.3225 -0.5379
  972MOL0     C31105   5.872   0.956   4.294 -0.3950  0.4247  0.5219
  972MOL0     C31106   5.905   0.872   4.414  0.7512  0.3470  0.7775
  972MOL0     C31107   5.997   0.941   4.512 -0.6137 -0.8975  0.3408
  972MOL0     C31108   6.007   0.865   4.644  0.4940  0.4666  0.2585
  972MOL0     O31109   6.110   0.916   4.719 -0.4914 -0.2341 -0.1008
  972MOL0     C31110   6.087   0.935   4.850 -0.0612  0.9912  0.1759
  972MOL0     C31111   6.103   0.839   4.944  0.2110 -1.2073 -0.7333
  972MOL0     C31112   6.070   0.868   5.082  0.1074 -0.5290  0.0985
  972MOL0     C31113   6.019   0.997   5.114  0.2756  0.3428  0.0734
  972MOL0     C31114   5.966   1.021   5.249  0.5171 -0.0146 -0.1617
  972MOL0     O31115   5.966   1.150   5.297  0.2264 -0.2192  0.7213
  972MOL0     C31116   5.918   1.173   5.418  0.0514 -0.9068  0.1850
  972MOL0     C31117   5.791   1.134   5.473 -0.6687 -0.0017  0.2670
  972MOL0     C31118   5.748   1.179   5.599  0.0844  0.3060  0.6150
  972MOL0     C31119   5.821   1.267   5.670 -0.7749  1.3244  0.7294
  972MOL0     O31120   5.809   1.299   5.800 -0.0780  0.5093 -0.7526
  972MOL0     C31121   5.693   1.372   5.838  0.5789  0.5970 -0.0289
  972MOL0     C31122   5.707   1.457   5.962  0.2578  0.1905  0.7112
  972MOL0     C31123   5.647   1.385   6.085  0.7040 -0.5536 -0.1315
  972MOL0     C31124   5.693   1.426   6.223 -0.9331 -0.5066 -0.0295
  972MOL0     C31125   5.598   1.396   6.340 -0.4435 -0.1748  0.3338
  972MOL0     C31126   5.585   1.244   6.366 -0.5112 -0.0299 -0.2615
  972MOL0     C31127   5.448   1.224   6.432 -0.2627 -0.5769  0.1640
  972MOL0     C31128   5.331   1.194   6.333 -0.6851  1.0482 -0.1434
  972MOL0    Cl31129   5.300   1.318   6.206  0.3057  0.0399 -0.5284
  972MOL0     C31130   5.940   1.311   5.613  0.0643  0.5201 -0.4470
  972MOL0     C31131   5.986   1.274   5.488 -0.7846 -0.1401  0.1759
  972MOL0     O31132   5.924   0.922   5.303 -0.0725  0.0449 -0.3050
  972MOL0     C31133   5.998   1.093   5.016  1.0698 -0.3283 -0.7143
  972MOL0     C31134   6.037   1.061   4.881 -1.1674  0.5685 -1.5258
  972MOL0     N31135   5.793   1.174   4.391 -0.2139 -0.1008 -0.8864
  972MOL0     N31136   5.688   1.248   4.397  0.8379  0.3517 -0.7638
  972MOL0     C31137   4.788   1.229   5.086 -0.5279  0.7313 -0.2873
  972MOL0     C31138   4.719   1.160   5.191  0.1958  0.5974  0.0331
  972MOL0     C31139   4.628   0.757   5.422 -0.2927 -0.8427  0.1278
  972MOL0     C31140   4.503   0.717   5.362  0.1211  0.9946 -0.3999
  972MOL0     C31141   4.431   0.606   5.406  0.1817 -1.2528  0.3862
  972MOL0     C31142   4.464   0.534   5.522  0.1406  0.1961  0.4882
  972MOL0     O31143   4.389   0.426   5.559 -0.6651  0.1768 -1.0868
  972MOL0     C31144   4.375   0.323   5.459  0.1029  0.2541 -0.7476
  972MOL0     C31145   4.234   0.328   5.402 -0.0248 -0.0601 -0.2613
  972MOL0     C31146   4.115   0.334   5.494 -0.2344  0.4025  0.7135
  972MOL0     C31147   4.125   0.236   5.607 -0.3605 -0.2472 -0.1502
  972MOL0     C31148   4.148   0.092   5.582 -0.3842 -0.1272  0.5232
  972MOL0     C31149   4.172  -0.027   5.559 -0.0907  0.8592 -0.1557
  972MOL0     C31150   4.580   0.576   5.586 -0.1302 -1.2681  0.4860
  972MOL0     C31151   4.665   0.685   5.535  0.0111  0.8820  0.6852
  972MOL0     C31152   4.785   0.719   5.620  0.3820  0.6756  0.0015
  972MOL0     H31153   4.717   0.848   5.058 -0.3914 -0.2785  0.3677
  972MOL0     H31154   4.849   0.965   4.891  2.0033  0.6557  1.1693
  972MOL0     H31155   4.959   1.389   4.784 -3.4300  2.3446  2.8012
  972MOL0     H31156   4.972   1.387   4.967  0.8656  0.6433  0.0021
  972MOL0     H31157   5.140   1.201   4.940 -2.7995 -0.3105  0.1560
  972MOL0     H31158   5.193   1.358   4.877 -0.3507  1.6552 -1.7414
  972MOL0     H31159   5.107   1.273   4.643  0.0940 -3.2605 -1.9200
  972MOL0     H31160   5.087   1.119   4.719 -0.7066  0.1935  0.1528
  972MOL0     H31161   5.358   1.237   4.752  0.7419 -0.4004  2.4324
  972MOL0     H31162   5.302   1.070   4.774 -1.9710 -0.6607 -1.0267
  972MOL0     H31163   5.402   1.073   4.568  1.6373  2.9601  0.0346
  972MOL0     H31164   5.227   1.066   4.535 -0.3654  0.2875  1.7035
  972MOL0     H31165   5.236   1.318   4.491 -0.1119 -0.0835  2.6488
  972MOL0     H31166   5.404   1.320   4.520 -1.6280  1.6531 -1.3710
  972MOL0     H31167   5.265   1.286   4.274 -2.9587 -2.8027  2.8035
  972MOL0     H31168   5.321   1.126   4.303  1.5327 -0.8062 -0.5762
  972MOL0     H31169   5.465   1.263   4.158  0.5233  0.3269 -0.7261
  972MOL0     H31170   5.485   1.367   4.307  0.3079 -0.8015  1.0196
  972MOL0     H31171   5.598   0.998   4.195  0.1522  0.7915 -1.2393
  972MOL0     H31172   5.840   0.897   4.208 -0.1568  3.3833 -1.7514
  972MOL0     H31173   5.963   1.005   4.258  2.2395 -2.7262  2.3450
  972MOL0     H31174   5.813   0.836   4.462 -1.1756  4.2647  0.4686
  972MOL0     H31175   5.943   0.776   4.377 -2.0506 -1.1469  1.4230
  972MOL0     H31176   5.970   1.044   4.539  1.7368 -0.4513  1.3188
  972MOL0     H31177   6.096   0.955   4.467 -0.9183 -2.0160 -0.7067
  972MOL0     H31178   6.040   0.762   4.623  0.1526  0.6396 -1.2492
  972MOL0     H31179   5.910   0.861   4.695  1.4456 -0.0043  2.1292
  972MOL0     H31180   6.136   0.741   4.912 -0.0652 -1.1125 -1.3287
  972MOL0     H31181   6.088   0.790   5.155 -0.2632 -2.9645 -2.2308
  972MOL0     H31182   5.740   1.053   5.423 -0.9243  1.0415 -1.2227
  972MOL0     H31183   5.657   1.137   5.642 -0.0113  0.4891  0.5916
  972MOL0     H31184   5.677   1.431   5.748 -0.5814 -3.9127 -3.1166
  972MOL0     H31185   5.620   1.294   5.862  0.4955  0.6841  0.0004
  972MOL0     H31186   5.812   1.487   5.968 -0.1036  1.8164 -0.4930
  972MOL0     H31187   5.641   1.543   5.963 -0.5273 -0.3949  0.4592
  972MOL0     H31188   5.540   1.409   6.083  0.7569  0.9230  4.2438
  972MOL0     H31189   5.661   1.276   6.087 -0.8450 -0.8569 -1.9604
  972MOL0     H31190   5.688   1.535   6.228  0.0942 -0.1141 -4.1745
  972MOL0     H31191   5.798   1.396   6.235 -0.8448  0.7052  3.4949
  972MOL0     H31192   5.500   1.440   6.316  0.1059  0.9190  0.0290
  972MOL0     H31193   5.635   1.440   6.433 -1.7167  0.7130  0.4420
  972MOL0     H31194   5.589   1.188   6.272 -1.0308  0.2149 -0.4369
  972MOL0     H31195   5.673   1.215   6.423 -0.3010  1.0890 -0.0027
  972MOL0     H31196   5.428   1.310   6.497 -0.9161 -1.8105  1.6739
  972MOL0     H31197   5.449   1.145   6.507  0.5160 -0.3188  0.4370
  972MOL0     H31198   5.347   1.102   6.277 -1.0389 -0.3248  1.9280
  972MOL0     H31199   5.237   1.184   6.388 -0.0300  0.7558  0.9592
  972MOL0     H31200   5.996   1.382   5.673 -1.1579  1.2429 -0.1105
  972MOL0     H31201   6.078   1.314   5.446 -2.6374  1.3072 -2.9113
  972MOL0     H31202   5.960   1.194   5.029 -2.8775 -1.3607 -2.7304
  972MOL0     H31203   6.020   1.138   4.806  1.0594  0.1700 -2.5288
  972MOL0     H31204   4.823   1.329   5.110 -2.7907  1.1307  1.7783
  972MOL0     H31205   4.680   1.209   5.280 -0.6928  2.2860 -1.2403
  972MOL0     H31206   4.461   0.780   5.283 -0.1338 -0.9271 -1.8742
  972MOL0     H31207   4.336   0.596   5.354 -0.4931 -0.9191  1.5218
  972MOL0     H31208   4.388   0.226   5.509  1.3819 -0.1730 -1.8547
  972MOL0     H31209   4.450   0.327   5.380 -1.9803 -0.0732 -2.8272
  972MOL0     H31210   4.222   0.240   5.337  0.2268  1.4550 -2.4629
  972MOL0     H31211   4.231   0.419   5.342  0.4147  0.7234  0.8803
  972MOL0     H31212   4.025   0.323   5.432 -0.1031 -0.9402  0.7205
  972MOL0     H31213   4.103   0.434   5.537  1.4929  1.0353 -0.1845
  972MOL0     H31214   4.200   0.274   5.678  0.6939 -1.4074 -0.6001
  972MOL0     H31215   4.028   0.243   5.657 -0.0823 -1.3557  0.5932
  972MOL0     H31216   4.184  -0.132   5.538 -3.4847  0.5101 -1.0554
  972MOL0     H31217   4.620   0.521   5.670 -1.7488 -1.2495  1.2982
  972MOL0     H31218   4.795   0.649   5.703 -1.1517 -1.6965 -1.6920
  972MOL0     H31219   4.882   0.717   5.569  0.7496 -0.2207  0.7113
  972MOL0     H31220   4.771   0.819   5.661 -0.0399  0.3422  0.6806
  973MOL0     O31221   8.848   9.149   2.391 -0.3015 -0.3222 -0.3466
  973MOL0     C31222   8.904   9.054   2.329  0.6146 -0.2345 -1.4267
  973MOL0     O31223   8.886   9.020   2.201 -0.2432  0.5213  0.0742
  973MOL0     C31224   8.825   9.110   2.115 -0.0453  0.4125 -0.6704
  973MOL0     C31225   8.885   9.212   2.040 -0.2630 -0.1028 -0.1242
  973MOL0     C31226   8.814   9.292   1.948 -0.2781 -0.8603 -0.4302
  973MOL0     C31227   8.674   9.295   1.938 -1.1734  0.2297 -0.3693
  973MOL0     O31228   8.600   9.374   1.855 -0.4327  0.0033 -0.4127
  973MOL0     C31229   8.668   9.455   1.762  0.0023 -1.3095 -0.9358
  973MOL0     C31230   8.577   9.551   1.693 -1.0449  0.0008  1.0908
  973MOL0     C31231   8.657   9.632   1.591  0.1662 -0.4377  0.4649
  973MOL0     C31232   8.717   9.767   1.647 -0.3896  0.5474 -0.1608
  973MOL0     C31233   8.806   9.832   1.541 -1.2256  0.3276 -0.0793
  973MOL0     C31234   8.866   9.966   1.578  0.6384 -0.2611 -0.4706
  973MOL0     C31235   8.976  10.016   1.478 -0.2195  0.5475  0.5094
  973MOL0     C31236   9.112   9.945   1.520 -0.4021 -0.4574 -0.1248
  973MOL0     N31237   9.240  10.001   1.463  0.4212  0.0019  0.4732
  973MOL0     C31238   9.355  10.035   1.534 -0.9184  0.1342  0.3951
  973MOL0     C31239   9.438  10.098   1.441  0.0623  0.5374  0.4474
  973MOL0     C31240   9.582  10.152   1.463  0.6944  0.5649  0.1487
  973MOL0     C31241   9.650  10.152   1.602 -0.1389  0.2784 -0.3623
  973MOL0     C31242   9.795  10.180   1.593 -0.7734 -0.3033  0.2333
  973MOL0     C31243   9.870  10.157   1.731  0.2411  0.0606  0.9257
  973MOL0     O31244  10.006  10.112   1.712  0.3588  0.0375  0.0589
  973MOL0     C31245  10.036   9.981   1.743 -0.3503 -0.0202 -0.1389
  973MOL0     C31246  10.080   9.947   1.870  0.3689  0.0981 -0.7336
  973MOL0     C31247  10.087   9.810   1.914 -0.2455 -0.5174 -0.5764
  973MOL0     C31248  10.050   9.711   1.825  0.0029  0.4984 -1.2472
  973MOL0     C31249  10.054   9.571   1.870  1.5242  0.1211  0.9736
  973MOL0     O31250  10.083   9.551   2.002 -0.5289  0.0165  1.6895
  973MOL0     C31251  10.076   9.431   2.058  0.5940  0.3783 -0.6590
  973MOL0     C31252  10.157   9.399   2.157  0.6055 -0.0641 -0.3863
  973MOL0     C31253  10.143   9.281   2.228 -0.3531 -0.1973  0.2262
  973MOL0     C31254  10.036   9.195   2.215  0.4626 -0.5157 -0.3549
  973MOL0     O31255  10.023   9.083   2.281  0.2711 -0.4960  0.2294
  973MOL0     C31256  10.063   9.081   2.416  0.7254  0.1549  0.2671
  973MOL0     C31257   9.965   8.990   2.497  0.1498  0.4316  0.3114
  973MOL0     C31258   9.972   8.842   2.474  0.4674  0.2037  0.6807
  973MOL0     C31259   9.870   8.794   2.360 -0.1642  0.1246 -0.0817
  973MOL0     C31260   9.880   8.648   2.333  0.3792 -0.0700 -0.1332
  973MOL0     C31261   9.791   8.610   2.215  0.7399 -0.0004  0.5993
  973MOL0     C31262   9.769   8.459   2.182 -1.2080 -0.6520 -0.5854
  973MOL0     C31263   9.702   8.384   2.302 -0.7292 -0.7143  0.9490
  973MOL0    Cl31264   9.543   8.444   2.327  0.2096 -0.1392  0.1979
  973MOL0     C31265   9.949   9.231   2.112  0.5673 -0.0381 -0.2709
  973MOL0     C31266   9.975   9.337   2.027 -0.4016 -0.8118 -0.1568
  973MOL0     O31267  10.055   9.480   1.786 -0.1435  0.9448  0.4029
  973MOL0     C31268  10.020   9.749   1.690 -0.0591  0.7126  0.7031
  973MOL0     C31269  10.002   9.885   1.652  1.0999 -0.3139  0.0400
  973MOL0     N31270   9.374  10.091   1.319 -1.2085 -0.6282  0.7247
  973MOL0     N31271   9.260  10.038   1.324 -0.2686  0.0577 -1.4220
  973MOL0     C31272   8.617   9.188   2.015  0.7085  0.3976  0.5893
  973MOL0     C31273   8.691   9.091   2.089  0.0748  0.0443 -0.1979
  973MOL0     C31274   8.996   8.958   2.407  0.5791  0.5629 -0.4330
  973MOL0     C31275   8.997   8.820   2.373  0.3596  0.1598 -0.5827
  973MOL0     C31276   9.083   8.731   2.429 -0.5947  0.0324 -0.4883
  973MOL0     C31277   9.179   8.778   2.525 -0.1731 -1.1875 -0.2888
  973MOL0     O31278   9.237   8.682   2.595  0.3121 -0.0904  0.0930
  973MOL0     C31279   9.335   8.703   2.696  0.4436  0.2190 -0.3884
  973MOL0     C31280   9.466   8.763   2.666  0.1648 -0.2485 -0.1119
  973MOL0     C31281   9.534   8.796   2.792 -0.1981 -0.3775 -0.2019
  973MOL0     C31282   9.676   8.859   2.761 -0.7086 -0.1499 -0.1504
  973MOL0     C31283   9.760   8.870   2.875 -0.1797 -0.7138  0.3640
  973MOL0     C31284   9.819   8.900   2.971 -1.1010 -1.3319 -1.0799
  973MOL0     C31285   9.178   8.917   2.569 -1.0278  0.0192  0.3575
  973MOL0     C31286   9.085   9.006   2.503 -1.2841  0.5640 -0.2987
  973MOL0     C31287   9.104   9.153   2.529  0.0901 -0.0190  0.0641
  973MOL0     H31288   8.994   9.221   2.040 -0.2523 -0.1809 -0.7106
  973MOL0     H31289   8.878   9.362   1.896  0.6335 -1.4287 -0.1000
  973MOL0     H31290   8.750   9.508   1.810 -1.5822  1.3623 -0.9270
  973MOL0     H31291   8.709   9.383   1.691  1.8097 -1.7946  0.5501
  973MOL0     H31292   8.523   9.618   1.760 -1.7177  1.5187 -0.8525
  973MOL0     H31293   8.501   9.491   1.642 -2.2097  1.7551  0.6541
  973MOL0     H31294   8.591   9.662   1.510  0.1833  0.4703  0.7791
  973MOL0     H31295   8.730   9.567   1.541 -0.5467 -1.5315  0.8063
  973MOL0     H31296   8.638   9.842   1.660  1.4787  2.4429  1.1224
  973MOL0     H31297   8.779   9.754   1.737 -0.4175 -3.3546 -0.5436
  973MOL0     H31298   8.892   9.767   1.525  1.9985  4.5055 -1.4853
  973MOL0     H31299   8.760   9.841   1.441  0.7101  0.9539 -0.9500
  973MOL0     H31300   8.783  10.037   1.567 -0.9802 -1.7532  1.3969
  973MOL0     H31301   8.899   9.961   1.682 -1.8251  1.0672  0.4583
  973MOL0     H31302   8.989  10.125   1.474  2.4538  0.2652 -0.4887
  973MOL0     H31303   8.950   9.980   1.378  1.7213 -5.5265  1.8206
  973MOL0     H31304   9.126   9.950   1.628 -0.3059 -1.5073 -0.0789
  973MOL0     H31305   9.112   9.840   1.492  0.0248 -0.0377 -1.8318
  973MOL0     H31306   9.379  10.016   1.638  3.1389 -4.2406 -0.9538
  973MOL0     H31307   9.648  10.098   1.394 -0.8793  1.0091 -1.7924
  973MOL0     H31308   9.594  10.254   1.425  1.2313 -0.5301 -2.9171
  973MOL0     H31309   9.596  10.236   1.646 -1.2890  0.3983 -1.9103
  973MOL0     H31310   9.632  10.054   1.647 -1.0428  0.7084  0.2431
  973MOL0     H31311   9.812  10.279   1.551  0.0072 -1.3750 -2.1538
  973MOL0     H31312   9.833  10.106   1.521  1.4461  0.3526  0.6539
  973MOL0     H31313   9.813  10.088   1.795  0.3782 -1.7168 -0.7741
  973MOL0     H31314   9.872  10.247   1.794  0.6830  1.8785 -1.5604
  973MOL0     H31315  10.105  10.029   1.936 -0.2477 -0.6708  0.5065
  973MOL0     H31316  10.119   9.798   2.017  0.3607 -2.2788 -0.9353
  973MOL0     H31317  10.229   9.475   2.185  0.9427 -0.1742 -0.9300
  973MOL0     H31318  10.209   9.265   2.313  3.6371 -2.6088 -2.9466
  973MOL0     H31319  10.171   9.065   2.418  0.9201  1.1446 -0.9588
  973MOL0     H31320  10.047   9.174   2.471  2.2424 -0.1151  1.1989
  973MOL0     H31321   9.986   9.009   2.602 -0.5224 -3.5572  1.3410
  973MOL0     H31322   9.862   9.012   2.467  0.8443  0.4929 -2.2425
  973MOL0     H31323  10.072   8.806   2.446  0.4184  0.8230 -0.3381
  973MOL0     H31324   9.943   8.799   2.570 -2.6207  0.1919 -0.1708
  973MOL0     H31325   9.900   8.851   2.272  2.0088  1.3590  1.3709
  973MOL0     H31326   9.768   8.823   2.388 -0.2424  2.8507 -2.7015
  973MOL0     H31327   9.848   8.601   2.427  0.3805  0.3623  0.0843
  973MOL0     H31328   9.985   8.622   2.317  0.0330 -2.1232  0.6616
  973MOL0     H31329   9.691   8.651   2.236  0.3340 -0.6282 -0.0461
  973MOL0     H31330   9.834   8.651   2.123 -0.9371 -0.1080 -0.2897
  973MOL0     H31331   9.865   8.411   2.157 -0.5706 -0.1501  0.7955
  973MOL0     H31332   9.709   8.449   2.091 -0.4156  1.0980 -1.3376
  973MOL0     H31333   9.694   8.275   2.298  2.7394 -1.0673  1.2947
  973MOL0     H31334   9.753   8.403   2.397 -2.4062 -0.1912  1.7922
  973MOL0     H31335   9.853   9.180   2.101 -0.4475  1.5192  0.9481
  973MOL0     H31336   9.914   9.361   1.941  1.7426  0.0922 -1.5044
  973MOL0     H31337  10.010   9.668   1.619  0.2504 -2.4393  3.9829
  973MOL0     H31338   9.965   9.892   1.550  4.0390 -3.3638 -1.4251
  973MOL0     H31339   8.511   9.176   1.993  0.3551  2.2997  1.0615
  973MOL0     H31340   8.649   9.004   2.137  0.8152 -0.4889 -0.5088
  973MOL0     H31341   8.947   8.795   2.280 -0.8760 -4.6547  1.0821
  973MOL0     H31342   9.067   8.626   2.404 -0.3695 -0.0636 -0.2338
  973MOL0     H31343   9.356   8.607   2.744  2.0335  0.0779 -1.2654
  973MOL0     H31344   9.297   8.773   2.771  1.5699 -2.5731  3.0276
  973MOL0     H31345   9.442   8.861   2.622 -0.2954 -0.0262  0.6250
  973MOL0     H31346   9.521   8.692   2.604  0.9941 -1.3273  1.7689
  973MOL0     H31347   9.541   8.710   2.860 -0.1405 -0.3768 -0.2067
  973MOL0     H31348   9.480   8.873   2.848  1.5223 -0.9402  2.4098
  973MOL0     H31349   9.716   8.801   2.678 -0.0125  0.6236 -0.3687
  973MOL0     H31350   9.666   8.961   2.721  1.6575  0.9240  1.6893
  973MOL0     H31351   9.857   8.931   3.066  0.6487 -0.8985 -1.8870
  973MOL0     H31352   9.236   8.951   2.654  3.9811 -1.6203 -2.0035
  973MOL0     H31353   9.031   9.200   2.595 -1.1268 -0.1623 -1.1347
  973MOL0     H31354   9.199   9.177   2.578  0.7702  0.1693 -1.2717
  973MOL0     H31355   9.082   9.196   2.430 -1.7553  2.4477  1.4243
  974MOL0     O31356  10.087   7.543   5.076  0.3979  0.2295  0.2572
  974MOL0     C31357  10.206   7.547   5.060  0.2952  0.4887  0.0793
  974MOL0     O31358  10.274   7.639   4.987 -0.7193 -0.2940 -0.6484
  974MOL0     C31359  10.216   7.743   4.922 -1.1729  0.3182  0.0223
  974MOL0     C31360  10.097   7.735   4.838 -0.1510  0.3622  0.9478
  974MOL0     C31361  10.037   7.848   4.777 -0.4354 -0.2310 -0.6818
  974MOL0     C31362  10.094   7.971   4.788  0.9246 -0.3878 -0.1200
  974MOL0     O31363  10.028   8.075   4.728  0.1815  0.6395  0.2556
  974MOL0     C31364  10.106   8.203   4.732  0.9069  1.3249  0.3047
  974MOL0     C31365  10.052   8.311   4.636 -0.4774 -0.4397  0.2201
  974MOL0     C31366  10.114   8.326   4.492  0.7719  0.3617 -0.2767
  974MOL0     C31367  10.258   8.366   4.483 -0.6301  0.5236  0.3500
  974MOL0     C31368  10.291   8.420   4.342  0.4440  0.5975  0.0719
  974MOL0     C31369  10.292   8.305   4.237  0.1684  0.7780 -0.1769
  974MOL0     C31370  10.346   8.341   4.098 -0.7192 -0.0624 -0.0855
  974MOL0     C31371  10.362   8.217   4.004  0.0152 -0.2578 -0.2481
  974MOL0     N31372  10.437   8.249   3.880  0.2409 -0.5176  0.7377
  974MOL0     C31373  10.430   8.366   3.810 -0.4958 -0.8912 -0.0423
  974MOL0     C31374  10.491   8.345   3.695 -1.2426 -0.4995 -0.1272
  974MOL0     C31375  10.541   8.437   3.590 -0.7697 -0.0641  0.8921
  974MOL0     C31376  10.471   8.571   3.590  0.1605 -0.4407 -0.3061
  974MOL0     C31377  10.511   8.652   3.466  0.1723  0.6334 -0.4569
  974MOL0     C31378  10.468   8.793   3.463 -0.0699 -0.4516  0.0748
  974MOL0     O31379  10.514   8.858   3.581  0.5856 -0.4415  0.4036
  974MOL0     C31380  10.438   8.962   3.629 -0.5262 -0.9049  0.6468
  974MOL0     C31381  10.502   9.089   3.644 -0.5089  0.6827 -0.2512
  974MOL0     C31382  10.433   9.191   3.711 -0.7948  0.6504 -0.5767
  974MOL0     C31383  10.311   9.176   3.760 -0.0288 -0.5362  0.5066
  974MOL0     C31384  10.227   9.294   3.816  0.4779 -0.0977 -0.4367
  974MOL0     O31385  10.293   9.412   3.854  0.0725  0.4294 -0.5224
  974MOL0     C31386  10.226   9.512   3.913 -0.2518 -0.5619  0.2851
  974MOL0     C31387  10.163   9.491   4.036  0.2448  0.5956  0.3519
  974MOL0     C31388  10.102   9.601   4.103  0.2004 -0.3208 -0.6259
  974MOL0     C31389  10.104   9.731   4.057 -1.0893 -0.3748 -1.3490
  974MOL0     O31390  10.034   9.836   4.113 -0.2618 -0.2525  0.0638
  974MOL0     C31391  10.016   9.831   4.252 -0.2431  0.7292  0.1999
  974MOL0     C31392  10.151   9.815   4.329  0.4068 -0.1343 -0.6582
  974MOL0     C31393  10.241   9.930   4.323 -0.3429 -0.3838 -0.2310
  974MOL0     C31394  10.322   9.952   4.191  0.4025 -0.2377 -0.2762
  974MOL0     C31395  10.424  10.069   4.200  0.4144 -0.0527 -0.3567
  974MOL0     C31396  10.360  10.213   4.205 -0.5784 -0.1673  0.3245
  974MOL0     C31397  10.356  10.249   4.353  0.3456 -1.3577  0.5431
  974MOL0     C31398  10.300  10.385   4.383 -0.3218  0.4890 -0.1258
  974MOL0    Cl31399  10.125  10.402   4.329  0.2713 -0.0514 -0.7329
  974MOL0     C31400  10.176   9.749   3.939  0.8158  0.8377  1.2249
  974MOL0     C31401  10.240   9.642   3.872  0.5619  0.1379  0.3176
  974MOL0     O31402  10.113   9.265   3.845 -0.2113  0.7330  0.1736
  974MOL0     C31403  10.232   9.066   3.724  0.2563 -0.5010  1.2101
  974MOL0     C31404  10.302   8.960   3.673 -0.0741  1.0165 -0.0790
  974MOL0     N31405  10.526   8.215   3.687 -0.6818  0.0346 -0.1644
  974MOL0     N31406  10.482   8.161   3.793  0.4149 -0.0920 -0.1097
  974MOL0     C31407  10.209   7.981   4.872 -0.8231  0.4376  0.5194
  974MOL0     C31408  10.269   7.869   4.935  0.4916  1.0424  0.5495
  974MOL0     C31409  10.276   7.421   5.098  0.3678 -0.2449  0.3770
  974MOL0     C31410  10.227   7.291   5.059  0.1208 -0.1060 -0.8300
  974MOL0     C31411  10.281   7.179   5.114 -0.0459  0.0176  0.2939
  974MOL0     C31412  10.398   7.180   5.197 -0.1589 -0.4183 -0.1559
  974MOL0     O31413  10.469   7.064   5.225 -0.1547  0.1214 -0.4943
  974MOL0     C31414  10.374   6.962   5.278  0.0161  0.3374  0.4398
  974MOL0     C31415  10.479   6.848   5.299 -0.4704  0.2399  0.1108
  974MOL0     C31416  10.539   6.876   5.437  0.3548  0.4276 -0.1397
  974MOL0     C31417  10.653   6.778   5.461 -0.3036 -0.6507  1.0988
  974MOL0     C31418  10.689   6.765   5.602  0.3557  0.1916 -1.0043
  974MOL0     C31419  10.701   6.783   5.721  0.1539  0.4988  0.4080
  974MOL0     C31420  10.455   7.317   5.217  0.3511  0.6317 -0.4494
  974MOL0     C31421  10.393   7.432   5.173  0.0755 -0.5114  0.6303
  974MOL0     C31422  10.464   7.561   5.218  0.4956  0.1071  0.3580
  974MOL0     H31423  10.055   7.638   4.813  1.3623  0.6594 -3.7125
  974MOL0     H31424   9.950   7.830   4.716 -1.6825 -2.8304  1.6420
  974MOL0     H31425  10.085   8.232   4.836 -0.8713 -0.5992  0.5340
  974MOL0     H31426  10.211   8.191   4.704  0.2497  1.2779 -2.3242
  974MOL0     H31427  10.060   8.404   4.693 -3.4106 -1.8072  3.1724
  974MOL0     H31428   9.948   8.283   4.615 -0.2075 -0.4563 -1.1594
  974MOL0     H31429  10.053   8.405   4.449 -3.8675 -2.4566  0.4904
  974MOL0     H31430  10.084   8.241   4.430 -1.2362  0.6073  0.3019
  974MOL0     H31431  10.270   8.455   4.546  0.9933  1.9067 -1.7476
  974MOL0     H31432  10.319   8.280   4.511 -1.5523 -0.6231 -1.0417
  974MOL0     H31433  10.214   8.492   4.314 -1.1423  0.1130  2.8097
  974MOL0     H31434  10.389   8.468   4.351  0.4297  0.6052  0.1980
  974MOL0     H31435  10.356   8.225   4.275 -2.1392 -0.6977  0.8145
  974MOL0     H31436  10.194   8.262   4.216  0.0085  1.5243 -0.9909
  974MOL0     H31437  10.447   8.381   4.109 -0.5459 -0.5795  0.2351
  974MOL0     H31438  10.284   8.421   4.058 -0.1625  0.3734 -0.0867
  974MOL0     H31439  10.424   8.148   4.062  0.0723  0.9648  1.2023
  974MOL0     H31440  10.270   8.169   3.970  1.2910 -0.8723 -3.1598
  974MOL0     H31441  10.399   8.461   3.854 -3.3302 -1.0236 -1.5332
  974MOL0     H31442  10.647   8.465   3.602 -0.3091 -0.3000 -1.9585
  974MOL0     H31443  10.524   8.397   3.490  0.1589  1.7579 -0.0498
  974MOL0     H31444  10.363   8.559   3.593  0.2606 -1.1391  1.6728
  974MOL0     H31445  10.504   8.614   3.685  2.6311 -2.1210 -0.3102
  974MOL0     H31446  10.483   8.593   3.379  0.3889 -2.5318  1.4485
  974MOL0     H31447  10.620   8.657   3.468  0.5451 -3.6982  0.6725
  974MOL0     H31448  10.359   8.794   3.467 -0.1791  1.2780 -1.7853
  974MOL0     H31449  10.505   8.838   3.370  1.2216  2.3061  1.7829
  974MOL0     H31450  10.603   9.101   3.606 -1.0693  1.0092 -1.7288
  974MOL0     H31451  10.484   9.287   3.718 -2.1800  1.3472  0.4355
  974MOL0     H31452  10.157   9.394   4.086  2.5564 -1.2582 -2.6016
  974MOL0     H31453  10.063   9.568   4.199  3.5509  0.0729  1.0052
  974MOL0     H31454   9.973   9.927   4.284  2.1399  2.0101 -0.2083
  974MOL0     H31455   9.954   9.748   4.288 -2.4653  2.6940  1.2560
  974MOL0     H31456  10.130   9.808   4.436 -0.0862 -1.9820 -0.8223
  974MOL0     H31457  10.205   9.724   4.300  0.7832 -0.9093  2.2209
  974MOL0     H31458  10.179  10.019   4.338 -0.0875 -0.2405 -0.0072
  974MOL0     H31459  10.309   9.937   4.409 -1.9408 -1.1241  1.1518
  974MOL0     H31460  10.254   9.953   4.105 -0.9116 -1.5666  0.6927
  974MOL0     H31461  10.385   9.863   4.183 -1.1907 -1.3836 -0.7114
  974MOL0     H31462  10.490  10.064   4.113  0.8468 -0.7388 -0.0028
  974MOL0     H31463  10.483  10.069   4.293 -1.1226  2.5910  0.7198
  974MOL0     H31464  10.428  10.280   4.151  1.3291 -0.9193  1.6927
  974MOL0     H31465  10.266  10.220   4.150  0.5851  0.4145 -1.7122
  974MOL0     H31466  10.459  10.251   4.388  1.2111 -0.6286 -1.8310
  974MOL0     H31467  10.300  10.180   4.416 -2.9505  2.1828  1.9073
  974MOL0     H31468  10.316  10.408   4.488 -0.7184 -1.2790  0.3648
  974MOL0     H31469  10.361  10.459   4.331 -1.3273  0.8790 -0.7812
  974MOL0     H31470  10.177   9.849   3.898 -1.6946 -0.2429 -1.8849
  974MOL0     H31471  10.304   9.666   3.787  0.2858  4.8278  1.1643
  974MOL0     H31472  10.125   9.060   3.743 -0.6024  0.5654 -2.5441
  974MOL0     H31473  10.245   8.868   3.661 -1.3008  0.9468  4.4450
  974MOL0     H31474  10.249   8.075   4.907  0.7228  0.0349 -0.1049
  974MOL0     H31475  10.343   7.894   5.010  0.0324  0.0868  1.3403
  974MOL0     H31476  10.135   7.292   5.002 -2.0427  0.8731  2.4267
  974MOL0     H31477  10.236   7.084   5.089  2.5385 -2.3453  3.6676
  974MOL0     H31478  10.303   6.922   5.205 -1.3903  2.6673  0.4478
  974MOL0     H31479  10.321   7.001   5.365 -1.9487  1.7794 -1.3116
  974MOL0     H31480  10.557   6.841   5.222  0.2379 -0.4522  0.8703
  974MOL0     H31481  10.437   6.748   5.297  0.9182 -0.4502 -3.6240
  974MOL0     H31482  10.460   6.865   5.512  0.2722  0.4857 -0.2188
  974MOL0     H31483  10.576   6.979   5.442  1.8746 -0.1163  4.3976
  974MOL0     H31484  10.616   6.681   5.428 -3.3649 -0.0216  2.2954
  974MOL0     H31485  10.743   6.801   5.404 -1.2840  1.2565  0.2136
  974MOL0     H31486  10.705   6.788   5.828 -3.2201 -1.6334  0.8005
  974MOL0     H31487  10.544   7.343   5.273  1.4660 -0.4355 -1.6536
  974MOL0     H31488  10.508   7.622   5.138 -0.9727  2.4231  1.2075
  974MOL0     H31489  10.393   7.635   5.257  1.5006  0.5436  1.4089
  974MOL0     H31490  10.540   7.544   5.295  0.8059  0.9229  0.2405
  975MOL0     O31491   2.638   3.703   1.312 -0.1854  0.3030  0.0780
  975MOL0     C31492   2.629   3.761   1.207  0.1793 -0.3740 -0.4837
  975MOL0     O31493   2.612   3.897   1.187 -0.2279  0.1521  0.5561
  975MOL0     C31494   2.617   3.983   1.295 -0.4459 -0.9805  0.8944
  975MOL0     C31495   2.691   4.094   1.275  0.5393  0.4293 -0.1451
  975MOL0     C31496   2.690   4.197   1.368  0.0128 -0.3401 -0.0981
  975MOL0     C31497   2.623   4.188   1.483 -0.0477 -0.0355 -0.6014
  975MOL0     O31498   2.639   4.270   1.590  0.1717 -0.4132  0.4858
  975MOL0     C31499   2.676   4.213   1.716 -0.0665  0.0431 -0.4886
  975MOL0     C31500   2.742   4.328   1.796 -0.3416  0.0387 -0.4574
  975MOL0     C31501   2.736   4.306   1.948  0.0872  0.2819  0.3749
  975MOL0     C31502   2.776   4.439   2.021  0.3419 -0.4818  0.7599
  975MOL0     C31503   2.658   4.543   2.028  0.1460 -0.4028 -0.3430
  975MOL0     C31504   2.691   4.648   2.132  0.1991  0.6361 -0.1315
  975MOL0     C31505   2.712   4.592   2.275  0.1105  0.2367  0.0067
  975MOL0     C31506   2.621   4.648   2.378 -0.3447 -0.2281  0.4793
  975MOL0     N31507   2.662   4.783   2.423 -0.5231 -0.6488 -0.5568
  975MOL0     C31508   2.760   4.862   2.359 -0.8254 -0.5680 -0.6056
  975MOL0     C31509   2.801   4.955   2.453 -0.2413  0.2198  0.1797
  975MOL0     C31510   2.920   5.049   2.430 -0.8879 -0.6398 -0.4433
  975MOL0     C31511   3.052   5.007   2.493 -0.4051 -0.1660 -0.3419
  975MOL0     C31512   3.037   4.999   2.639  0.0611 -0.5510 -0.2697
  975MOL0     C31513   3.028   5.137   2.701  0.5679  0.5992  0.4687
  975MOL0     O31514   3.017   5.124   2.838  0.6389  0.7511  0.3708
  975MOL0     C31515   2.962   5.222   2.914  0.4480  0.1869 -0.1398
  975MOL0     C31516   2.898   5.344   2.881  0.5760  0.4170  0.1120
  975MOL0     C31517   2.849   5.426   2.985 -0.9033 -0.4933 -0.0223
  975MOL0     C31518   2.871   5.401   3.120  0.0378 -0.4351  0.0283
  975MOL0     C31519   2.822   5.500   3.228 -0.5433 -0.5084 -0.1058
  975MOL0     O31520   2.816   5.460   3.359  0.7846  0.5636  0.2404
  975MOL0     C31521   2.772   5.547   3.451  0.2651 -0.5244  0.7669
  975MOL0     C31522   2.857   5.637   3.505 -0.4636  0.5755 -1.0646
  975MOL0     C31523   2.803   5.739   3.585  0.3341  0.1151  0.0622
  975MOL0     C31524   2.669   5.753   3.598 -0.1589  0.5974  0.6805
  975MOL0     O31525   2.619   5.848   3.677  0.0565 -0.0665  0.0908
  975MOL0     C31526   2.488   5.861   3.723  0.8107 -0.0490 -0.2661
  975MOL0     C31527   2.491   5.991   3.806 -0.0005 -0.2225  0.6165
  975MOL0     C31528   2.361   6.014   3.885 -0.5773 -0.8287  0.4553
  975MOL0     C31529   2.370   5.933   4.024  0.7697 -0.6533  0.8146
  975MOL0     C31530   2.385   6.023   4.149  0.9316 -0.1291  0.4464
  975MOL0     C31531   2.509   6.115   4.166 -0.3390 -0.6277 -0.3073
  975MOL0     C31532   2.541   6.129   4.313 -0.5159 -0.0562  0.4109
  975MOL0     C31533   2.647   6.249   4.325  0.5049 -0.0667  0.6817
  975MOL0    Cl31534   2.814   6.208   4.290 -0.0307 -0.2355  0.2527
  975MOL0     C31535   2.577   5.651   3.538 -0.1507 -1.1371  0.0671
  975MOL0     C31536   2.638   5.550   3.475 -0.1328  0.3766 -0.3096
  975MOL0     O31537   2.811   5.616   3.189  0.0475  0.0049 -0.0684
  975MOL0     C31538   2.919   5.277   3.156 -0.8366  0.1125 -0.2063
  975MOL0     C31539   2.970   5.199   3.049  0.1674  1.0445  0.1763
  975MOL0     N31540   2.728   4.928   2.569  0.0259  0.3573  0.0563
  975MOL0     N31541   2.648   4.830   2.552  0.1576  0.0126  0.6466
  975MOL0     C31542   2.553   4.075   1.510  0.2797  0.2939  0.7681
  975MOL0     C31543   2.555   3.970   1.416  0.3824 -0.1105 -0.1698
  975MOL0     C31544   2.611   3.671   1.092  0.1506 -0.3939  0.3759
  975MOL0     C31545   2.681   3.549   1.093  0.2022  0.5676  0.2307
  975MOL0     C31546   2.695   3.458   0.983 -0.3629 -0.8290  1.1798
  975MOL0     C31547   2.634   3.495   0.867 -0.3288  0.2767  0.1605
  975MOL0     O31548   2.670   3.414   0.760 -1.1373  0.2736  0.3968
  975MOL0     C31549   2.648   3.456   0.623 -0.1563  0.8481  0.2535
  975MOL0     C31550   2.765   3.420   0.528 -0.5508 -0.6141 -0.8535
  975MOL0     C31551   2.790   3.269   0.529  0.3079  0.0072  0.3550
  975MOL0     C31552   2.916   3.239   0.451  0.0088 -0.4707 -0.2532
  975MOL0     C31553   2.978   3.111   0.484 -0.4018  0.0230 -0.9019
  975MOL0     C31554   3.034   3.009   0.508 -0.7158 -0.3840  0.0372
  975MOL0     C31555   2.537   3.604   0.861 -0.1026  0.1448 -0.6274
  975MOL0     C31556   2.529   3.693   0.975 -1.0384 -0.8322 -0.6103
  975MOL0     C31557   2.427   3.802   0.975 -0.6844 -0.3083 -0.1264
  975MOL0     H31558   2.752   4.092   1.185 -0.7288 -0.3364 -1.0270
  975MOL0     H31559   2.753   4.283   1.350 -0.7855 -0.2906 -3.5694
  975MOL0     H31560   2.581   4.178   1.757  0.2014 -1.0166 -0.7189
  975MOL0     H31561   2.742   4.127   1.699  1.2563  0.5459  1.7023
  975MOL0     H31562   2.672   4.411   1.780 -1.5325 -0.9985 -0.7651
  975MOL0     H31563   2.843   4.342   1.757 -0.9370  2.2346 -1.3442
  975MOL0     H31564   2.807   4.226   1.970 -0.1063 -0.8951 -2.7453
  975MOL0     H31565   2.635   4.274   1.977 -0.7678  0.5592 -2.0829
  975MOL0     H31566   2.811   4.407   2.119 -0.7100 -0.2532  1.2279
  975MOL0     H31567   2.859   4.489   1.970  1.2499 -3.9429 -1.5253
  975MOL0     H31568   2.640   4.608   1.941  0.7435 -1.5550 -1.3666
  975MOL0     H31569   2.566   4.489   2.054  0.9530 -2.1364 -0.9400
  975MOL0     H31570   2.774   4.707   2.092 -0.4510  1.6832  0.0302
  975MOL0     H31571   2.609   4.721   2.127  1.4492  2.0311 -1.0873
  975MOL0     H31572   2.819   4.598   2.293  0.1297 -0.2620  0.0790
  975MOL0     H31573   2.679   4.487   2.274  2.4426 -0.7347  4.1152
  975MOL0     H31574   2.516   4.654   2.347 -0.3767 -1.6916  0.2235
  975MOL0     H31575   2.626   4.583   2.465  1.3275 -0.4994  0.2155
  975MOL0     H31576   2.793   4.865   2.256 -0.0197  2.9606 -0.3487
  975MOL0     H31577   2.930   5.049   2.321  0.9320  0.3688 -0.3233
  975MOL0     H31578   2.887   5.151   2.453  0.4951 -0.4256  0.7605
  975MOL0     H31579   3.092   4.914   2.450 -1.0564  0.4366 -2.3477
  975MOL0     H31580   3.125   5.088   2.488 -0.7643  0.2552  0.8558
  975MOL0     H31581   3.124   4.958   2.692 -1.9347  0.3322  4.2255
  975MOL0     H31582   2.956   4.934   2.676 -0.9443  0.6766 -0.2541
  975MOL0     H31583   2.933   5.176   2.663  0.2362  1.0259  1.6885
  975MOL0     H31584   3.114   5.198   2.671 -0.2777  2.0970  1.0003
  975MOL0     H31585   2.889   5.364   2.775  0.3436 -1.3675 -0.2317
  975MOL0     H31586   2.806   5.519   2.951 -0.7861  0.0047  1.1483
  975MOL0     H31587   2.964   5.616   3.497 -0.4194  0.4637 -0.2694
  975MOL0     H31588   2.864   5.803   3.648 -2.5623  0.3035  2.9523
  975MOL0     H31589   2.425   5.869   3.633  1.8652 -2.3246 -1.2927
  975MOL0     H31590   2.444   5.773   3.770  0.6044 -0.9574 -2.0586
  975MOL0     H31591   2.568   5.993   3.884 -0.2297  1.1885  0.8440
  975MOL0     H31592   2.509   6.077   3.741  0.5317 -1.0055 -0.3016
  975MOL0     H31593   2.333   6.119   3.899 -0.8675 -0.9869  1.1178
  975MOL0     H31594   2.275   5.985   3.824 -1.4515 -1.3382  1.8811
  975MOL0     H31595   2.452   5.863   4.009  0.1648 -1.4979  1.3833
  975MOL0     H31596   2.279   5.874   4.036 -1.0002  1.7027 -0.2285
  975MOL0     H31597   2.384   5.958   4.237 -0.4926 -1.3386 -0.4240
  975MOL0     H31598   2.310   6.102   4.146 -0.0035 -1.0051  0.0785
  975MOL0     H31599   2.594   6.065   4.119  0.7084  1.9128 -1.2824
  975MOL0     H31600   2.488   6.213   4.121 -1.7326 -0.0863  1.3612
  975MOL0     H31601   2.589   6.038   4.351 -1.3271 -1.6901 -2.1583
  975MOL0     H31602   2.453   6.142   4.376  0.3524  1.3379  1.3840
  975MOL0     H31603   2.616   6.324   4.251 -0.0343 -1.1528 -0.2217
  975MOL0     H31604   2.647   6.311   4.415  3.0566 -1.1933  1.5389
  975MOL0     H31605   2.469   5.651   3.542 -0.1519  0.8873  1.2470
  975MOL0     H31606   2.565   5.490   3.423 -0.1326  1.8417 -2.1258
  975MOL0     H31607   2.926   5.247   3.260 -2.4073  0.4236  0.0095
  975MOL0     H31608   3.014   5.103   3.072 -1.1684  0.4034  0.1440
  975MOL0     H31609   2.498   4.049   1.600 -1.2955  3.6572  0.9359
  975MOL0     H31610   2.499   3.880   1.439 -1.0098 -0.2423 -3.5014
  975MOL0     H31611   2.734   3.525   1.184  0.0785 -0.7370 -0.0292
  975MOL0     H31612   2.759   3.371   0.993  0.7789 -0.0451  0.7939
  975MOL0     H31613   2.631   3.564   0.611  1.3452  0.8332 -3.7950
  975MOL0     H31614   2.556   3.413   0.584  0.2630  0.2824 -0.1330
  975MOL0     H31615   2.850   3.475   0.569 -0.9606 -1.8913  1.9900
  975MOL0     H31616   2.744   3.464   0.431  0.1234  1.4725 -0.0994
  975MOL0     H31617   2.706   3.218   0.480  1.7538  0.0500 -2.3750
  975MOL0     H31618   2.803   3.231   0.631  1.9434  1.3879  0.6999
  975MOL0     H31619   2.888   3.254   0.347 -0.6740  0.1302  0.0065
  975MOL0     H31620   3.002   3.299   0.480 -1.3531  1.3142  0.2764
  975MOL0     H31621   3.077   2.913   0.529  3.2131  1.0505 -0.5995
  975MOL0     H31622   2.477   3.622   0.772 -2.6734 -3.3758  0.1670
  975MOL0     H31623   2.491   3.887   0.948  1.1843 -0.8179  2.3602
  975MOL0     H31624   2.344   3.788   0.906  0.7240 -0.9880 -1.7610
  975MOL0     H31625   2.393   3.830   1.075 -0.9948  2.8007 -0.9834
  976MOL0     O31626  10.563   3.372   4.811  1.5283 -0.0834  0.2557
  976MOL0     C31627  10.665   3.330   4.771  0.0534 -0.1006 -0.3071
  976MOL0     O31628  10.772   3.400   4.727  0.6452 -0.9946 -0.1479
  976MOL0     C31629  10.771   3.542   4.731  0.5551  1.2161  0.1604
  976MOL0     C31630  10.770   3.605   4.859 -0.1170 -0.7937  0.9515
  976MOL0     C31631  10.745   3.752   4.860  0.1533  0.9275  0.1198
  976MOL0     C31632  10.718   3.825   4.738  0.4547 -0.4335  0.4378
  976MOL0     O31633  10.729   3.964   4.734  0.2444  0.0120  0.7398
  976MOL0     C31634  10.604   4.025   4.776  0.1700  0.5837 -0.0652
  976MOL0     C31635  10.591   4.157   4.717 -1.0241 -0.3493 -0.1320
  976MOL0     C31636  10.465   4.230   4.747 -1.1491  0.1245  0.2383
  976MOL0     C31637  10.450   4.366   4.674  0.3188 -0.2821  0.1791
  976MOL0     C31638  10.549   4.480   4.705  0.0606  0.4914 -0.2046
  976MOL0     C31639  10.517   4.610   4.622 -1.0106  0.3719  0.2640
  976MOL0     C31640  10.542   4.599   4.474 -0.2556  0.3159 -0.3316
  976MOL0     C31641  10.522   4.733   4.404 -0.1147 -0.4014 -0.8192
  976MOL0     N31642  10.385   4.783   4.413  0.7253 -0.6105 -0.4770
  976MOL0     C31643  10.276   4.730   4.349  0.8029 -0.2802  0.9413
  976MOL0     C31644  10.180   4.818   4.382  0.9242 -0.3280  0.3240
  976MOL0     C31645  10.032   4.803   4.326  0.0207  0.4058 -0.1944
  976MOL0     C31646   9.989   4.931   4.254  0.7859  0.0232 -0.3674
  976MOL0     C31647   9.847   4.913   4.186  0.6930 -0.5512  0.5672
  976MOL0     C31648   9.796   5.050   4.144 -0.3692 -0.0147  0.0340
  976MOL0     O31649   9.672   5.034   4.078 -0.7556 -0.6864 -0.5553
  976MOL0     C31650   9.626   5.161   4.029  1.1787  0.7611 -0.1811
  976MOL0     C31651   9.672   5.291   4.054 -0.4036 -0.6258  0.6933
  976MOL0     C31652   9.595   5.403   4.014 -0.4227 -0.4039 -0.6534
  976MOL0     C31653   9.486   5.386   3.934 -0.0259  0.0326  0.6373
  976MOL0     C31654   9.418   5.500   3.871  0.0970 -0.3277  0.1023
  976MOL0     O31655   9.281   5.483   3.856 -0.7619  0.4057  0.3427
  976MOL0     C31656   9.207   5.598   3.815 -1.1457 -0.0175 -0.1673
  976MOL0     C31657   9.196   5.617   3.684  0.7275  1.3113  0.2225
  976MOL0     C31658   9.124   5.728   3.634  0.8375  0.3718 -0.0164
  976MOL0     C31659   9.068   5.825   3.725 -0.3214 -0.2015  0.8247
  976MOL0     O31660   9.000   5.927   3.658  0.1334  0.1424 -0.3481
  976MOL0     C31661   8.877   5.960   3.718 -0.6872  0.4476 -0.0113
  976MOL0     C31662   8.816   6.070   3.635  0.2443 -0.5118  0.0079
  976MOL0     C31663   8.704   6.001   3.545  0.0341 -1.2087 -0.0948
  976MOL0     C31664   8.645   6.113   3.453 -0.7714 -0.5011 -0.1580
  976MOL0     C31665   8.533   6.072   3.353 -0.7849 -0.3716  0.0256
  976MOL0     C31666   8.436   6.186   3.304 -0.0242 -0.5922 -0.8858
  976MOL0     C31667   8.320   6.125   3.230  0.2685  1.3870  0.2451
  976MOL0     C31668   8.219   6.209   3.158 -0.6542 -0.1816  0.6037
  976MOL0    Cl31669   8.181   6.355   3.254 -0.0111  0.6774 -0.2316
  976MOL0     C31670   9.072   5.799   3.863 -0.4729  0.2007 -0.3889
  976MOL0     C31671   9.147   5.688   3.906 -0.6081 -0.0349 -0.0302
  976MOL0     O31672   9.473   5.606   3.858  0.3569 -0.3142  0.0261
  976MOL0     C31673   9.434   5.253   3.912  0.9012  1.2546 -0.1891
  976MOL0     C31674   9.503   5.149   3.957  0.5919 -0.6996  0.1996
  976MOL0     N31675  10.224   4.907   4.478  0.8047  0.5254  0.4957
  976MOL0     N31676  10.341   4.886   4.496  0.1698 -0.4185 -0.9266
  976MOL0     C31677  10.732   3.749   4.611 -0.6380 -0.5188 -0.7431
  976MOL0     C31678  10.753   3.614   4.608 -0.0881 -1.1036 -0.3024
  976MOL0     C31679  10.696   3.180   4.793  0.1289  1.1987 -0.5470
  976MOL0     C31680  10.827   3.143   4.823  0.1274 -0.4491 -0.4889
  976MOL0     C31681  10.878   3.013   4.834  0.6267 -0.6020  0.4515
  976MOL0     C31682  10.791   2.906   4.794 -0.0801 -0.3669 -0.0616
  976MOL0     O31683  10.819   2.769   4.810  0.4299  0.7517  0.4650
  976MOL0     C31684  10.954   2.737   4.854  0.0466 -0.0800 -0.5776
  976MOL0     C31685  10.957   2.580   4.883 -0.0818  0.8354  0.3457
  976MOL0     C31686  11.095   2.532   4.946  0.4638 -0.4528  0.9646
  976MOL0     C31687  11.133   2.382   4.927 -0.3749 -0.2378 -0.1216
  976MOL0     C31688  11.178   2.349   4.797 -1.3533  0.2133  0.5165
  976MOL0     C31689  11.214   2.315   4.681  0.6579 -0.8188 -0.2810
  976MOL0     C31690  10.660   2.942   4.762 -0.2309  0.5633 -0.0074
  976MOL0     C31691  10.614   3.072   4.755  0.5134  0.2236  0.8879
  976MOL0     C31692  10.472   3.091   4.709 -0.3420  0.2753 -0.2146
  976MOL0     H31693  10.771   3.550   4.952 -0.5186 -0.2006  1.3122
  976MOL0     H31694  10.760   3.807   4.953  0.2349  3.3850 -1.2620
  976MOL0     H31695  10.512   3.975   4.745  0.1427  0.5378  0.0913
  976MOL0     H31696  10.609   4.032   4.885  0.2234  0.7967 -0.0806
  976MOL0     H31697  10.586   4.154   4.608 -0.1631  2.2835 -0.3102
  976MOL0     H31698  10.674   4.221   4.748 -2.1588  1.1156 -0.0541
  976MOL0     H31699  10.449   4.250   4.853  1.2310 -0.8418  0.8413
  976MOL0     H31700  10.383   4.162   4.724  0.6304 -1.3882 -2.1518
  976MOL0     H31701  10.460   4.349   4.566 -1.0933  1.5601 -0.2896
  976MOL0     H31702  10.347   4.394   4.698 -0.0160 -1.2787 -0.0282
  976MOL0     H31703  10.539   4.511   4.809 -2.1226  3.1185 -1.0477
  976MOL0     H31704  10.650   4.442   4.689 -0.1829 -3.0272  4.5335
  976MOL0     H31705  10.421   4.653   4.653 -0.9657 -0.7489  2.1448
  976MOL0     H31706  10.600   4.678   4.642  1.7773 -1.7774 -2.9349
  976MOL0     H31707  10.472   4.528   4.428 -0.3489  1.1229 -1.4853
  976MOL0     H31708  10.648   4.575   4.459 -0.4350 -1.3329  0.8034
  976MOL0     H31709  10.594   4.802   4.449  3.0544 -3.7325 -0.3226
  976MOL0     H31710  10.544   4.719   4.298  0.2367  2.4763 -1.1957
  976MOL0     H31711  10.257   4.631   4.308 -3.6155 -0.7911  3.5864
  976MOL0     H31712  10.027   4.714   4.264  1.1728 -0.7588  1.2916
  976MOL0     H31713   9.962   4.775   4.406  0.6748 -2.0788 -0.4182
  976MOL0     H31714  10.001   5.015   4.323  2.0480 -1.0309  0.7411
  976MOL0     H31715  10.062   4.961   4.179 -2.0472 -1.3203 -3.9452
  976MOL0     H31716   9.776   4.862   4.252  1.0834 -2.8630 -0.6863
  976MOL0     H31717   9.860   4.854   4.094 -0.5790 -1.9353  1.2309
  976MOL0     H31718   9.863   5.105   4.078 -1.8680  1.0848 -0.6403
  976MOL0     H31719   9.778   5.113   4.232 -0.9355 -1.1329  0.7522
  976MOL0     H31720   9.766   5.305   4.107  0.4051  2.1969 -1.2468
  976MOL0     H31721   9.643   5.500   4.025 -2.9544  0.6880  2.1543
  976MOL0     H31722   9.239   5.538   3.624 -0.9869 -1.9938  2.9746
  976MOL0     H31723   9.109   5.745   3.528  0.9483  2.2964  0.2369
  976MOL0     H31724   8.825   5.865   3.729 -0.1714  0.3049  1.4144
  976MOL0     H31725   8.887   5.985   3.824 -2.1212 -1.3898  0.6060
  976MOL0     H31726   8.769   6.156   3.684  1.3311  2.0555 -3.1112
  976MOL0     H31727   8.888   6.123   3.573 -0.7129  2.4355  1.2381
  976MOL0     H31728   8.748   5.917   3.491 -0.0650 -0.9754 -0.5456
  976MOL0     H31729   8.624   5.962   3.608 -1.5530  0.1075 -1.2131
  976MOL0     H31730   8.726   6.157   3.395  0.6923 -1.3237  1.1791
  976MOL0     H31731   8.604   6.190   3.519 -2.3387  0.2529 -1.9211
  976MOL0     H31732   8.486   5.986   3.400 -0.1555 -1.5041 -1.3366
  976MOL0     H31733   8.582   6.032   3.263 -1.7447  0.6637 -1.0004
  976MOL0     H31734   8.395   6.250   3.383  2.4182 -0.4867  0.4195
  976MOL0     H31735   8.487   6.249   3.231  0.2499 -2.1472 -2.0983
  976MOL0     H31736   8.254   6.080   3.305 -0.9233  2.5622 -0.0799
  976MOL0     H31737   8.356   6.052   3.157 -0.7668  1.8685 -0.7724
  976MOL0     H31738   8.257   6.246   3.062 -2.2952 -0.2283 -0.1038
  976MOL0     H31739   8.125   6.157   3.137 -0.3373 -1.7649  2.7862
  976MOL0     H31740   9.028   5.869   3.933 -2.9019 -2.6042  1.1123
  976MOL0     H31741   9.173   5.676   4.010  0.7626 -0.2501 -0.3824
  976MOL0     H31742   9.350   5.229   3.847  1.0051 -2.8136  0.8743
  976MOL0     H31743   9.474   5.048   3.928  0.7680 -0.7013  0.0196
  976MOL0     H31744  10.729   3.809   4.520 -1.2662  0.1907 -0.2642
  976MOL0     H31745  10.761   3.557   4.516 -1.1134 -1.3843 -0.2357
  976MOL0     H31746  10.897   3.220   4.854 -1.4069  1.1259 -0.7991
  976MOL0     H31747  10.980   3.012   4.872  1.1435  3.8987 -0.3022
  976MOL0     H31748  10.969   2.789   4.949 -2.4707 -0.8357  0.3159
  976MOL0     H31749  11.033   2.768   4.786 -0.6663  1.2579 -0.8366
  976MOL0     H31750  10.922   2.530   4.792 -2.3943  1.6872  0.6877
  976MOL0     H31751  10.883   2.548   4.957  0.3350  0.4231  0.5883
  976MOL0     H31752  11.087   2.560   5.052  1.0054 -1.2859  1.2424
  976MOL0     H31753  11.175   2.590   4.901 -0.6309 -0.5734 -1.2558
  976MOL0     H31754  11.201   2.354   5.008 -1.2148 -0.3703  0.5541
  976MOL0     H31755  11.061   2.304   4.953  0.5078 -0.8099  0.6861
  976MOL0     H31756  11.227   2.288   4.578  2.4621 -1.6523  0.1179
  976MOL0     H31757  10.590   2.863   4.739 -0.8443  1.1165 -0.0680
  976MOL0     H31758  10.468   3.144   4.613 -1.0686  0.0048 -0.3393
  976MOL0     H31759  10.423   2.994   4.692  1.4922 -0.8578  0.6355
  976MOL0     H31760  10.406   3.148   4.774 -0.0521  2.7595 -1.9388
  977MOL0     O31761   9.831   2.543   4.401  0.1374 -0.1229  0.2207
  977MOL0     C31762   9.743   2.466   4.437 -0.1109 -0.5966  0.1392
  977MOL0     O31763   9.753   2.335   4.480 -0.1765 -1.3612 -0.1934
  977MOL0     C31764   9.881   2.274   4.485  1.1324 -0.0260  0.4375
  977MOL0     C31765  10.002   2.336   4.506 -0.0164 -0.0329 -0.1833
  977MOL0     C31766  10.110   2.258   4.517 -0.5270 -0.3890 -0.7030
  977MOL0     C31767  10.093   2.117   4.525 -0.1406 -0.7085  0.3465
  977MOL0     O31768  10.206   2.038   4.529 -1.0565  0.0333 -0.2861
  977MOL0     C31769  10.209   1.981   4.661 -0.4988 -0.7237 -0.3539
  977MOL0     C31770  10.342   2.001   4.734  0.1366  0.6929  0.2610
  977MOL0     C31771  10.376   2.141   4.770 -0.0460 -0.1192  0.2115
  977MOL0     C31772  10.501   2.152   4.862  0.3813  0.2396 -0.3451
  977MOL0     C31773  10.567   2.293   4.848  0.9658 -0.0444  0.2950
  977MOL0     C31774  10.495   2.392   4.932 -0.3238 -0.5162 -0.2948
  977MOL0     C31775  10.537   2.538   4.882  0.0079  0.8823 -0.1188
  977MOL0     C31776  10.462   2.582   4.759  0.0800 -0.3822  0.8321
  977MOL0     N31777  10.336   2.643   4.793  0.0260  0.2184  0.3953
  977MOL0     C31778  10.218   2.564   4.804 -0.6392  0.2408  0.3146
  977MOL0     C31779  10.126   2.654   4.847  0.6421 -0.8527  0.6379
  977MOL0     C31780   9.975   2.635   4.889  0.3680  1.4739  0.0893
  977MOL0     C31781   9.905   2.552   4.778  0.3774 -0.0821 -0.1142
  977MOL0     C31782   9.750   2.551   4.782 -0.6465 -0.3869  0.4154
  977MOL0     C31783   9.705   2.521   4.922 -0.4412  0.1274 -0.1721
  977MOL0     O31784   9.561   2.524   4.939  0.3044  0.6803  0.4206
  977MOL0     C31785   9.484   2.423   4.888 -0.7322 -0.3786  0.3650
  977MOL0     C31786   9.540   2.309   4.824 -0.6535 -0.1126 -0.2677
  977MOL0     C31787   9.456   2.211   4.764 -0.0954 -0.1916  0.0106
  977MOL0     C31788   9.318   2.226   4.780 -0.1722  0.5243  0.1025
  977MOL0     C31789   9.231   2.119   4.720 -0.6926  0.3554  0.6208
  977MOL0     O31790   9.298   2.017   4.666  0.1670  0.2268  0.2346
  977MOL0     C31791   9.236   1.913   4.598 -0.1991  0.1495  0.8505
  977MOL0     C31792   9.264   1.892   4.464  0.1677 -0.1086 -0.1115
  977MOL0     C31793   9.210   1.787   4.392 -0.3895 -0.3545 -0.3116
  977MOL0     C31794   9.131   1.688   4.454  0.1448  0.0700  0.0870
  977MOL0     O31795   9.082   1.575   4.405 -0.0351 -0.4288 -0.0906
  977MOL0     C31796   9.089   1.549   4.264  0.3459  0.3990 -0.2926
  977MOL0     C31797   8.976   1.470   4.209  1.1210  0.3204 -0.5179
  977MOL0     C31798   9.005   1.318   4.220 -0.0153  0.2198  0.1656
  977MOL0     C31799   8.886   1.237   4.170  0.5002  0.5235  0.4244
  977MOL0     C31800   8.901   1.081   4.181 -0.2898 -0.0271  0.7051
  977MOL0     C31801   8.778   1.011   4.138  1.1669 -0.5120  0.5547
  977MOL0     C31802   8.793   0.861   4.095  0.2637  0.3738  0.2036
  977MOL0     C31803   8.858   0.846   3.963 -0.3065  0.1398  0.0438
  977MOL0    Cl31804   8.766   0.924   3.831 -0.1292 -0.0395  0.3200
  977MOL0     C31805   9.097   1.712   4.590  0.1616  0.2599  0.3631
  977MOL0     C31806   9.154   1.822   4.659 -0.2940  0.0183 -0.1539
  977MOL0     O31807   9.110   2.131   4.726  0.9775 -0.1919 -0.0564
  977MOL0     C31808   9.261   2.343   4.842 -0.3437  0.0580 -0.4891
  977MOL0     C31809   9.348   2.442   4.891  0.3721  0.1421  0.2300
  977MOL0     N31810  10.195   2.772   4.868  0.0054  0.0047 -0.7984
  977MOL0     N31811  10.316   2.764   4.848 -0.0022  0.1663 -0.0136
  977MOL0     C31812   9.965   2.053   4.502  0.2230  0.8880  0.0724
  977MOL0     C31813   9.858   2.137   4.482  0.0170 -0.7268 -0.9027
  977MOL0     C31814   9.602   2.516   4.451  0.2292 -0.8641 -0.5383
  977MOL0     C31815   9.492   2.424   4.484  0.3243  0.1580  0.2352
  977MOL0     C31816   9.369   2.469   4.509  0.0162 -0.2949 -0.6967
  977MOL0     C31817   9.331   2.604   4.503 -0.5572  0.0750 -0.6226
  977MOL0     O31818   9.204   2.661   4.532 -1.3169 -0.1793  1.1713
  977MOL0     C31819   9.101   2.582   4.604  0.4657 -0.1170 -0.3210
  977MOL0     C31820   9.004   2.682   4.668 -0.4437  0.2401 -0.2122
  977MOL0     C31821   8.890   2.620   4.746  0.1449  0.3333 -0.4550
  977MOL0     C31822   8.762   2.707   4.746  0.1348  1.1275 -0.3644
  977MOL0     C31823   8.696   2.723   4.616  0.5382 -0.6153 -0.5082
  977MOL0     C31824   8.633   2.735   4.507 -0.4077 -0.1228 -0.3635
  977MOL0     C31825   9.433   2.689   4.465  0.1432  0.2150 -0.8855
  977MOL0     C31826   9.568   2.653   4.445  0.7431 -0.0231 -0.4771
  977MOL0     C31827   9.654   2.762   4.402 -0.0061 -0.2175  0.2741
  977MOL0     H31828   9.996   2.444   4.513 -1.6883 -0.1331  0.6904
  977MOL0     H31829  10.208   2.303   4.530 -1.3537  1.2858  0.1285
  977MOL0     H31830  10.134   2.030   4.724  1.2385  3.8507 -1.4426
  977MOL0     H31831  10.176   1.877   4.657 -3.4154 -0.3926  4.8722
  977MOL0     H31832  10.427   1.978   4.671 -1.2022 -0.6831 -1.1334
  977MOL0     H31833  10.342   1.931   4.818  1.5255  1.0785  0.6032
  977MOL0     H31834  10.288   2.187   4.815 -0.9392 -1.9468  0.4248
  977MOL0     H31835  10.393   2.179   4.669  2.6529 -1.0670  0.2148
  977MOL0     H31836  10.489   2.119   4.965 -2.2059 -2.3495 -1.3094
  977MOL0     H31837  10.566   2.073   4.824 -1.1469 -1.7814  0.9912
  977MOL0     H31838  10.668   2.292   4.889  1.9584  0.9381 -1.9863
  977MOL0     H31839  10.583   2.319   4.743  2.5802 -1.6917  0.0942
  977MOL0     H31840  10.386   2.386   4.930 -0.5964  2.6988 -0.3609
  977MOL0     H31841  10.521   2.359   5.033 -0.0029  0.0891 -0.1736
  977MOL0     H31842  10.645   2.540   4.869  0.2278 -0.3251  1.2406
  977MOL0     H31843  10.502   2.603   4.963 -1.0829  0.5249 -0.2819
  977MOL0     H31844  10.527   2.658   4.715  4.0826 -3.7387  0.2222
  977MOL0     H31845  10.449   2.510   4.677 -2.5789  1.5606 -0.5753
  977MOL0     H31846  10.207   2.460   4.775  1.0470  1.2758 -5.2032
  977MOL0     H31847   9.965   2.586   4.986 -3.0453 -0.5650 -1.0853
  977MOL0     H31848   9.924   2.732   4.899 -0.0839  1.6251 -2.8296
  977MOL0     H31849   9.929   2.601   4.684 -2.4943 -0.4691 -1.1732
  977MOL0     H31850   9.942   2.449   4.773 -0.5900 -0.6290  2.4078
  977MOL0     H31851   9.714   2.477   4.711  1.7934 -2.7869  1.4912
  977MOL0     H31852   9.709   2.651   4.767 -0.7127  0.0637  3.0543
  977MOL0     H31853   9.745   2.594   4.993  0.0311  0.4973 -0.8114
  977MOL0     H31854   9.748   2.426   4.954 -1.3820 -0.4952 -0.7013
  977MOL0     H31855   9.644   2.301   4.795 -0.3679  1.7249  0.1627
  977MOL0     H31856   9.499   2.138   4.697  0.2368  0.6032 -0.6575
  977MOL0     H31857   9.321   1.962   4.404 -0.0352 -1.5162 -2.0257
  977MOL0     H31858   9.241   1.772   4.289 -1.3643  1.0526 -0.8344
  977MOL0     H31859   9.089   1.637   4.199 -0.0073 -0.7275 -1.8808
  977MOL0     H31860   9.189   1.511   4.244  0.7716  2.3946 -2.3830
  977MOL0     H31861   8.880   1.493   4.257  0.2495 -2.4929 -0.7238
  977MOL0     H31862   8.975   1.491   4.102 -3.4514  1.8888 -0.3941
  977MOL0     H31863   9.093   1.285   4.163  0.7048  1.2743  0.6243
  977MOL0     H31864   9.026   1.292   4.323 -1.0738  2.2364  0.9539
  977MOL0     H31865   8.866   1.256   4.064 -1.5053 -0.1972  0.6264
  977MOL0     H31866   8.795   1.266   4.223 -2.2733 -2.3340 -2.3090
  977MOL0     H31867   8.936   1.051   4.281 -0.5554  0.2833  0.8938
  977MOL0     H31868   8.979   1.052   4.110 -2.4771  0.9842 -2.2996
  977MOL0     H31869   8.713   1.019   4.225  0.0207 -0.6863 -0.2639
  977MOL0     H31870   8.730   1.059   4.052  1.0921 -2.7202 -0.7091
  977MOL0     H31871   8.687   0.834   4.096 -0.0921  1.4863  3.3521
  977MOL0     H31872   8.848   0.802   4.169  4.3405  2.0496 -1.2042
  977MOL0     H31873   8.959   0.887   3.956 -0.4331  0.7209  1.2258
  977MOL0     H31874   8.861   0.739   3.941  1.5409  0.2774 -0.5340
  977MOL0     H31875   9.036   1.634   4.634  0.2551 -2.7999 -4.2714
  977MOL0     H31876   9.123   1.837   4.762 -2.1885 -0.2521 -0.6459
  977MOL0     H31877   9.156   2.365   4.856 -0.1335 -0.2937  2.0992
  977MOL0     H31878   9.301   2.529   4.937 -0.0671 -0.5354  1.0788
  977MOL0     H31879   9.951   1.945   4.498  3.2302  0.4115 -3.2584
  977MOL0     H31880   9.760   2.092   4.470  0.2726 -1.8616  0.9755
  977MOL0     H31881   9.513   2.318   4.485  4.6076  0.8289  0.4341
  977MOL0     H31882   9.296   2.406   4.559  1.7830 -0.4468  1.8813
  977MOL0     H31883   9.139   2.511   4.677 -0.7992 -2.9649 -2.2417
  977MOL0     H31884   9.042   2.521   4.535 -0.6314  0.7414 -0.1681
  977MOL0     H31885   8.977   2.738   4.578 -0.2819  0.1690 -0.3050
  977MOL0     H31886   9.063   2.747   4.733  0.2659 -0.2813 -0.3227
  977MOL0     H31887   8.933   2.611   4.847  3.3599 -0.9147 -1.7994
  977MOL0     H31888   8.859   2.519   4.718 -0.6338  0.2985  0.4914
  977MOL0     H31889   8.682   2.648   4.792  0.4135 -1.1760 -2.6101
  977MOL0     H31890   8.782   2.795   4.807  1.0348 -0.9763  2.6267
  977MOL0     H31891   8.577   2.740   4.416  4.4360 -3.6356 -4.0430
  977MOL0     H31892   9.408   2.792   4.442  0.7548  0.4741 -0.4210
  977MOL0     H31893   9.612   2.861   4.422  0.4378 -0.5242  3.0775
  977MOL0     H31894   9.752   2.761   4.449 -0.4141 -2.9776  1.2327
  977MOL0     H31895   9.659   2.750   4.293  1.3314  2.3246 -0.0273
  978MOL0     O31896   3.183   4.500   2.430 -0.0651  0.4381 -0.8056
  978MOL0     C31897   3.060   4.496   2.454 -0.6676 -0.0300 -1.5691
  978MOL0     O31898   2.966   4.432   2.382 -0.0254  0.6412 -0.3683
  978MOL0     C31899   3.010   4.356   2.285 -0.3165  0.0198  1.0874
  978MOL0     C31900   2.989   4.218   2.291 -0.3404 -0.2480  0.6346
  978MOL0     C31901   3.036   4.131   2.189  0.9181 -0.5974 -0.9986
  978MOL0     C31902   3.120   4.175   2.087 -0.6165 -0.0600 -0.2117
  978MOL0     O31903   3.158   4.100   1.982  0.1425 -0.0098 -0.0960
  978MOL0     C31904   3.169   3.956   2.005  0.4198  0.1733  0.6349
  978MOL0     C31905   3.248   3.891   1.882  0.3067  0.5894 -0.0879
  978MOL0     C31906   3.246   3.734   1.896 -0.3458 -0.7699 -0.0015
  978MOL0     C31907   3.311   3.682   1.766 -0.6086  0.4340 -0.4810
  978MOL0     C31908   3.306   3.531   1.756  0.0514  0.5180 -0.0219
  978MOL0     C31909   3.432   3.490   1.672 -0.1213 -0.6997  0.6525
  978MOL0     C31910   3.437   3.343   1.601  0.9202 -0.5380 -0.5532
  978MOL0     C31911   3.326   3.324   1.501 -0.4312 -0.5230 -0.6066
  978MOL0     N31912   3.360   3.385   1.373  0.5101  0.6398 -0.0093
  978MOL0     C31913   3.346   3.517   1.346  0.2262  0.2234 -0.0841
  978MOL0     C31914   3.379   3.528   1.211  0.2407 -0.7357 -0.6898
  978MOL0     C31915   3.393   3.655   1.137 -0.5878 -0.8507 -0.1162
  978MOL0     C31916   3.504   3.741   1.202  0.4788  0.3371 -0.7523
  978MOL0     C31917   3.552   3.853   1.103 -0.6172 -0.1401 -0.4144
  978MOL0     C31918   3.467   3.974   1.099 -0.3368 -0.2074 -0.0261
  978MOL0     O31919   3.522   4.060   1.002 -0.1607 -0.1041 -0.1177
  978MOL0     C31920   3.465   4.058   0.873  0.7319  0.9652  0.0110
  978MOL0     C31921   3.386   3.962   0.811 -0.0899  0.3780 -0.2134
  978MOL0     C31922   3.332   3.987   0.684 -0.3133  0.0056 -0.5965
  978MOL0     C31923   3.356   4.103   0.614 -0.6739  0.3749 -1.0478
  978MOL0     C31924   3.307   4.121   0.478  0.6730  0.7308 -1.0951
  978MOL0     O31925   3.217   4.026   0.433 -0.0866 -0.1160  0.9219
  978MOL0     C31926   3.173   4.047   0.296  0.9365  1.7729 -0.0461
  978MOL0     C31927   3.070   4.138   0.281 -0.0672 -0.7434  0.2812
  978MOL0     C31928   3.034   4.176   0.150  0.9431 -1.2986 -0.4490
  978MOL0     C31929   3.098   4.115   0.041  0.2128  0.6412 -0.7025
  978MOL0     O31930   3.065   4.136  -0.088 -0.0270  0.6310  0.4235
  978MOL0     C31931   3.009   4.268  -0.131 -0.1515  0.8839  0.1841
  978MOL0     C31932   3.065   4.297  -0.274 -0.4210 -0.8188  0.8078
  978MOL0     C31933   3.017   4.433  -0.340  0.3172 -0.0795  0.2518
  978MOL0     C31934   2.884   4.405  -0.417  0.4158  0.1704  0.2322
  978MOL0     C31935   2.804   4.534  -0.446  0.3510 -0.7063 -0.5539
  978MOL0     C31936   2.739   4.534  -0.586 -0.1624 -0.5353  1.0400
  978MOL0     C31937   2.852   4.552  -0.690 -0.9374 -0.2708 -0.8436
  978MOL0     C31938   2.828   4.450  -0.801 -0.0370  0.0898 -0.0471
  978MOL0    Cl31939   2.671   4.490  -0.880  0.2434 -0.2781 -0.3366
  978MOL0     C31940   3.197   4.023   0.069  0.2428  0.0021 -0.0457
  978MOL0     C31941   3.239   3.986   0.196  0.2744 -0.4137 -0.7983
  978MOL0     O31942   3.337   4.217   0.421  0.4194  0.4216 -0.8315
  978MOL0     C31943   3.415   4.207   0.688  0.4642 -0.4902  0.7301
  978MOL0     C31944   3.474   4.187   0.812  0.1761  0.5120  0.1818
  978MOL0     N31945   3.399   3.399   1.164  0.4398 -0.9879  0.6445
  978MOL0     N31946   3.396   3.322   1.259  0.8068  0.5156 -0.7414
  978MOL0     C31947   3.151   4.315   2.089 -0.1601  0.0291  0.6499
  978MOL0     C31948   3.094   4.401   2.184 -0.2652  0.5038  1.4579
  978MOL0     C31949   3.006   4.557   2.580  0.2840 -1.5422 -0.7742
  978MOL0     C31950   2.866   4.539   2.615 -0.0878  1.1152  0.0989
  978MOL0     C31951   2.803   4.599   2.720 -0.3465  0.2098  0.4081
  978MOL0     C31952   2.887   4.666   2.816  0.1008 -0.8824 -0.5271
  978MOL0     O31953   2.827   4.718   2.932  0.0727 -0.1284  0.2592
  978MOL0     C31954   2.881   4.831   2.983  0.3143 -0.2209  0.3001
  978MOL0     C31955   2.760   4.920   3.035  0.2186  0.4137  1.0372
  978MOL0     C31956   2.670   4.956   2.915  0.2334 -0.8709 -0.5415
  978MOL0     C31957   2.597   5.095   2.914  0.5968  0.5244  0.3186
  978MOL0     C31958   2.542   5.122   3.050 -0.3620  0.0342  0.4501
  978MOL0     C31959   2.493   5.181   3.147  0.2904 -0.4244 -0.1241
  978MOL0     C31960   3.018   4.683   2.789 -0.6110 -0.1665 -0.7880
  978MOL0     C31961   3.077   4.640   2.671  0.6770  1.4695 -0.0164
  978MOL0     C31962   3.226   4.663   2.643 -0.6543 -0.5120 -0.2115
  978MOL0     H31963   2.945   4.172   2.379 -1.9100  2.1207  1.1998
  978MOL0     H31964   3.007   4.027   2.201  0.8071 -0.3871  1.0022
  978MOL0     H31965   3.229   3.937   2.095 -0.2166 -1.9735  0.6776
  978MOL0     H31966   3.069   3.912   2.013 -0.4495  1.9867  0.1871
  978MOL0     H31967   3.344   3.942   1.875 -0.1922  1.7658  1.1149
  978MOL0     H31968   3.189   3.901   1.790 -0.3087 -0.4085  0.1775
  978MOL0     H31969   3.141   3.706   1.888 -0.3203 -0.2582 -3.1327
  978MOL0     H31970   3.297   3.711   1.990 -0.7579  0.3728  0.5189
  978MOL0     H31971   3.248   3.717   1.685 -1.5485  1.7134  0.7577
  978MOL0     H31972   3.412   3.724   1.755 -2.2535  4.6077 -1.3320
  978MOL0     H31973   3.306   3.475   1.850 -0.6727 -2.5215 -1.6845
  978MOL0     H31974   3.222   3.494   1.696  1.0425 -1.1525 -0.4456
  978MOL0     H31975   3.441   3.562   1.591 -1.3106 -0.3871  0.7891
  978MOL0     H31976   3.522   3.500   1.733 -0.7096 -0.9243  1.5777
  978MOL0     H31977   3.434   3.269   1.681  1.3931  2.6391  2.6629
  978MOL0     H31978   3.532   3.321   1.552  1.1857  0.5150 -0.5463
  978MOL0     H31979   3.320   3.224   1.455  0.4098  0.4878 -3.1223
  978MOL0     H31980   3.234   3.343   1.556  1.3690  0.1789  2.3658
  978MOL0     H31981   3.304   3.597   1.406 -2.2972 -1.5785  0.7324
  978MOL0     H31982   3.412   3.637   1.031  2.5348  1.7655 -0.1336
  978MOL0     H31983   3.297   3.703   1.161  1.1137  0.5707  5.0838
  978MOL0     H31984   3.462   3.787   1.292  0.8423 -0.1825 -0.3128
  978MOL0     H31985   3.585   3.675   1.235 -0.6288 -1.9138 -2.2237
  978MOL0     H31986   3.571   3.805   1.006 -3.1507  1.3851 -1.7694
  978MOL0     H31987   3.647   3.890   1.142 -1.0578  0.7372 -0.1447
  978MOL0     H31988   3.461   4.020   1.198  2.2303  1.7000 -0.6581
  978MOL0     H31989   3.369   3.939   1.065 -0.5191 -1.1303  1.3306
  978MOL0     H31990   3.359   3.868   0.858 -3.0153  0.7150 -1.0215
  978MOL0     H31991   3.273   3.913   0.631 -0.8990  0.5336 -0.6894
  978MOL0     H31992   3.030   4.178   0.373  0.0602  1.1642 -0.4347
  978MOL0     H31993   2.957   4.251   0.137  3.9880  2.1824  0.2576
  978MOL0     H31994   2.900   4.260  -0.128 -0.1395  0.9465  1.2830
  978MOL0     H31995   3.039   4.358  -0.077 -3.1697  3.5159 -2.1404
  978MOL0     H31996   3.174   4.292  -0.275 -0.3701  0.1650  0.7693
  978MOL0     H31997   3.029   4.215  -0.337  2.4420 -2.3131  0.9471
  978MOL0     H31998   2.999   4.516  -0.271 -3.0594 -1.0301  0.6894
  978MOL0     H31999   3.089   4.473  -0.411  0.0616 -2.0812 -1.2428
  978MOL0     H32000   2.821   4.334  -0.362 -0.3375 -1.3380 -2.3898
  978MOL0     H32001   2.925   4.345  -0.499  0.8126  0.0815  0.4949
  978MOL0     H32002   2.868   4.620  -0.425  0.1062 -1.2436  2.8765
  978MOL0     H32003   2.720   4.543  -0.376 -1.2126 -1.7325 -2.2172
  978MOL0     H32004   2.683   4.440  -0.585 -0.8512 -0.1449  2.1805
  978MOL0     H32005   2.677   4.624  -0.597  0.4554 -0.3243 -1.2046
  978MOL0     H32006   2.948   4.534  -0.641 -0.8490  2.9558  0.3859
  978MOL0     H32007   2.857   4.656  -0.723  0.1672  0.3332  1.0631
  978MOL0     H32008   2.900   4.442  -0.883 -0.0512 -1.2891  0.0407
  978MOL0     H32009   2.817   4.345  -0.770  0.9838 -1.6635 -4.7404
  978MOL0     H32010   3.250   3.988  -0.019  1.5526  0.0076  0.7189
  978MOL0     H32011   3.320   3.920   0.227  0.4470 -0.0478 -0.4529
  978MOL0     H32012   3.425   4.305   0.643  0.1845  0.0173  1.7612
  978MOL0     H32013   3.519   4.271   0.864  0.5498 -1.1116  2.6743
  978MOL0     H32014   3.224   4.350   2.017 -2.7005  1.8714 -1.2300
  978MOL0     H32015   3.124   4.505   2.181 -2.1110  1.0453  0.1873
  978MOL0     H32016   2.800   4.474   2.559 -1.6925  0.3867  2.6293
  978MOL0     H32017   2.695   4.596   2.725 -0.6125  2.9140 -1.4664
  978MOL0     H32018   2.935   4.889   2.907  4.5762 -3.2270  0.6920
  978MOL0     H32019   2.935   4.803   3.074 -1.6140 -1.3795  1.1493
  978MOL0     H32020   2.802   5.009   3.083 -0.2451  1.1416  0.1087
  978MOL0     H32021   2.701   4.855   3.100 -0.0908  1.5331  1.9152
  978MOL0     H32022   2.592   4.881   2.908 -0.1150 -0.5339 -0.3087
  978MOL0     H32023   2.725   4.947   2.821  0.4108  0.2903 -0.5732
  978MOL0     H32024   2.669   5.176   2.901 -1.5003  2.1902 -1.8715
  978MOL0     H32025   2.520   5.102   2.837  0.3554 -1.2931  0.3485
  978MOL0     H32026   2.443   5.238   3.222 -4.4509 -2.1381 -1.6094
  978MOL0     H32027   3.084   4.716   2.868  0.8247 -0.5468 -1.7917
  978MOL0     H32028   3.275   4.566   2.627 -2.8916 -1.6618 -0.4159
  978MOL0     H32029   3.241   4.737   2.563 -0.9656 -0.0880  0.1164
  978MOL0     H32030   3.264   4.700   2.739 -0.3701  0.6253 -0.7517
  979MOL0     O32031  11.195  10.326   3.308 -0.5304 -0.1884 -0.2781
  979MOL0     C32032  11.126  10.304   3.413  0.2505 -0.5576 -0.1301
  979MOL0     O32033  11.179  10.254   3.517  0.8389  0.1958 -0.4380
  979MOL0     C32034  11.309  10.207   3.506  0.0200 -0.2317  0.1777
  979MOL0     C32035  11.318  10.067   3.526  0.4682  0.9372 -0.4257
  979MOL0     C32036  11.438  10.002   3.512  1.1302  0.2168 -0.2866
  979MOL0     C32037  11.557  10.072   3.493  0.1209  0.2788  0.1926
  979MOL0     O32038  11.664   9.988   3.493 -0.7237 -0.4043 -0.4225
  979MOL0     C32039  11.795  10.029   3.520  0.1125 -0.6872 -1.2512
  979MOL0     C32040  11.901   9.941   3.458 -0.7215  0.2818 -0.0832
  979MOL0     C32041  11.856   9.867   3.329 -0.0542  1.3768 -0.0475
  979MOL0     C32042  11.973   9.808   3.250 -0.3753 -0.4201 -0.0596
  979MOL0     C32043  12.016   9.678   3.322  1.0595 -0.2673  0.4556
  979MOL0     C32044  12.127   9.597   3.251 -0.2639  0.0380  0.4410
  979MOL0     C32045  12.172   9.481   3.352 -0.0607 -0.0165 -0.1591
  979MOL0     C32046  12.283   9.395   3.286  0.1137 -0.2108 -0.0860
  979MOL0     N32047  12.246   9.259   3.251  0.8516  1.2904 -0.5362
  979MOL0     C32048  12.183   9.223   3.129 -0.2530  0.0103 -0.0747
  979MOL0     C32049  12.157   9.093   3.151 -0.1179  0.5378  0.8198
  979MOL0     C32050  12.054   9.019   3.073 -0.8240 -0.1332 -0.3810
  979MOL0     C32051  11.917   9.045   3.138  0.0330  0.5083 -0.9809
  979MOL0     C32052  11.849   9.179   3.103  0.0385  0.5126 -0.0400
  979MOL0     C32053  11.728   9.219   3.190 -0.0483 -0.0890 -1.4855
  979MOL0     O32054  11.708   9.356   3.152 -0.1110 -0.0560 -0.5592
  979MOL0     C32055  11.621   9.434   3.216  0.7106 -0.8847  0.0402
  979MOL0     C32056  11.537   9.391   3.325 -0.4719 -0.5968  0.5123
  979MOL0     C32057  11.456   9.489   3.375 -0.1959 -0.2775 -0.1705
  979MOL0     C32058  11.434   9.614   3.316 -1.2378 -0.0899 -0.3198
  979MOL0     C32059  11.322   9.694   3.359 -0.2100  1.2049  0.2344
  979MOL0     O32060  11.288   9.797   3.279  0.5233  0.2009  0.5165
  979MOL0     C32061  11.163   9.848   3.269  0.2376 -0.2183 -0.3891
  979MOL0     C32062  11.046   9.761   3.296 -0.0187 -0.3195  0.5776
  979MOL0     C32063  10.917   9.815   3.281  0.0080  0.1501 -0.3537
  979MOL0     C32064  10.901   9.943   3.239 -0.3027 -0.1161 -0.1117
  979MOL0     O32065  10.780   9.996   3.213 -0.5021  0.3426 -0.3547
  979MOL0     C32066  10.702  10.013   3.325 -1.4122 -0.5963 -0.5050
  979MOL0     C32067  10.593  10.116   3.291 -0.7423  0.4155  0.3763
  979MOL0     C32068  10.625  10.216   3.182 -0.2000 -0.0439 -0.0074
  979MOL0     C32069  10.524  10.330   3.186  0.3559 -0.9312  0.9491
  979MOL0     C32070  10.412  10.304   3.080 -0.8043 -0.0378 -1.3080
  979MOL0     C32071  10.277  10.364   3.126 -0.1864  0.0097 -0.9659
  979MOL0     C32072  10.270  10.521   3.117 -0.2994 -0.4045 -0.3536
  979MOL0     C32073  10.165  10.577   3.216 -0.5366  0.4364  0.7761
  979MOL0    Cl32074  10.197  10.751   3.206  0.4040  0.5434  0.6491
  979MOL0     C32075  11.011  10.032   3.223 -0.5788 -0.0651 -0.5536
  979MOL0     C32076  11.143   9.981   3.240  0.3851  0.0936  1.1485
  979MOL0     O32077  11.264   9.655   3.456 -0.2356  0.2426 -0.7039
  979MOL0     C32078  11.511   9.650   3.202  0.2153 -0.1287  0.1796
  979MOL0     C32079  11.609   9.561   3.153  0.3084 -0.0032 -0.1032
  979MOL0     N32080  12.212   9.045   3.268  0.1378  0.2610 -0.4579
  979MOL0     N32081  12.261   9.146   3.326 -0.5400  0.4425 -0.6392
  979MOL0     C32082  11.552  10.214   3.479 -0.0938  0.0319  0.0064
  979MOL0     C32083  11.425  10.283   3.490 -0.1026  0.1520 -0.0551
  979MOL0     C32084  10.984  10.353   3.430 -0.6316  0.9348 -0.5188
  979MOL0     C32085  10.898  10.274   3.508  0.4557  0.0063 -0.0824
  979MOL0     C32086  10.771  10.314   3.544  0.7795 -0.6113 -0.2902
  979MOL0     C32087  10.705  10.425   3.485 -0.0270 -0.5247 -0.6928
  979MOL0     O32088  10.579  10.460   3.524  0.7017  0.2883  0.8490
  979MOL0     C32089  10.535  10.587   3.474  0.2958 -0.0272 -0.4739
  979MOL0     C32090  10.406  10.639   3.523 -0.3584  0.0187  0.5134
  979MOL0     C32091  10.389  10.638   3.674  1.0921 -0.9992 -0.0396
  979MOL0     C32092  10.254  10.697   3.732 -0.7189 -0.4898  0.5278
  979MOL0     C32093  10.211  10.609   3.840 -0.9949  0.0811 -0.0242
  979MOL0     C32094  10.170  10.542   3.935 -1.1169  0.1263  0.1931
  979MOL0     C32095  10.790  10.501   3.396  0.2944 -0.2922  0.2722
  979MOL0     C32096  10.926  10.466   3.364  0.3378  0.2671  0.4647
  979MOL0     C32097  10.994  10.530   3.241  0.1393  0.0563  0.2526
  979MOL0     H32098  11.235  10.000   3.544  2.1633 -1.8645 -2.3297
  979MOL0     H32099  11.439   9.893   3.518  3.4043  0.0133 -2.6232
  979MOL0     H32100  11.822  10.128   3.483 -1.3920 -1.3399 -4.3721
  979MOL0     H32101  11.812  10.034   3.628  0.6438 -2.6260 -1.2107
  979MOL0     H32102  11.938   9.861   3.524  0.8397 -0.6455 -1.9756
  979MOL0     H32103  11.980  10.012   3.432 -1.3392  2.1507  2.7124
  979MOL0     H32104  11.794   9.934   3.269 -0.1132  0.8171 -0.6317
  979MOL0     H32105  11.781   9.789   3.347 -1.5462  2.3102 -1.8808
  979MOL0     H32106  11.948   9.770   3.151 -0.4205  0.4945 -0.4058
  979MOL0     H32107  12.055   9.880   3.247 -1.8915  1.5859  2.4230
  979MOL0     H32108  12.043   9.703   3.425  0.4418 -1.3417  0.8867
  979MOL0     H32109  11.926   9.616   3.326 -0.2389  1.3809 -1.1457
  979MOL0     H32110  12.103   9.564   3.150  1.0884 -0.7634  0.3556
  979MOL0     H32111  12.211   9.666   3.241 -2.3479  2.4765 -1.1521
  979MOL0     H32112  12.084   9.424   3.383  0.4192 -1.8484 -1.9818
  979MOL0     H32113  12.210   9.527   3.444  1.1627 -0.0541 -0.6211
  979MOL0     H32114  12.309   9.451   3.196  1.9641 -1.2599 -0.2707
  979MOL0     H32115  12.379   9.399   3.338  0.8241  2.1578 -1.4214
  979MOL0     H32116  12.136   9.278   3.048 -0.4339 -2.2955 -1.6099
  979MOL0     H32117  12.073   9.058   2.972  4.8263  3.1259  1.4571
  979MOL0     H32118  12.075   8.912   3.062 -0.7391 -0.1799  0.2233
  979MOL0     H32119  11.858   8.957   3.111  1.7185 -0.8197 -0.5165
  979MOL0     H32120  11.924   9.042   3.247  3.5815  1.6257 -1.0394
  979MOL0     H32121  11.818   9.170   2.998 -3.8073  0.4504  0.9546
  979MOL0     H32122  11.930   9.251   3.089 -1.0311  1.3439 -2.4591
  979MOL0     H32123  11.760   9.209   3.294 -2.6698 -2.5652 -0.7902
  979MOL0     H32124  11.646   9.147   3.195  2.7136 -3.4671 -1.1509
  979MOL0     H32125  11.529   9.288   3.360  1.6227 -1.3028 -0.9544
  979MOL0     H32126  11.389   9.471   3.459 -0.7405  2.1327 -0.0037
  979MOL0     H32127  11.060   9.654   3.311  0.0179 -0.4595 -0.3860
  979MOL0     H32128  10.832   9.749   3.285  0.7864 -1.0963 -2.5960
  979MOL0     H32129  10.657   9.920   3.360 -0.2112 -1.1107 -0.2543
  979MOL0     H32130  10.777  10.050   3.396 -1.9203  1.1500 -0.8263
  979MOL0     H32131  10.502  10.058   3.273 -0.2825 -0.0302 -0.5573
  979MOL0     H32132  10.581  10.171   3.385  1.9096 -0.7043  1.4783
  979MOL0     H32133  10.720  10.270   3.188  0.1776 -0.6718 -0.2381
  979MOL0     H32134  10.617  10.152   3.093 -0.7054  0.9038 -0.6663
  979MOL0     H32135  10.572  10.425   3.162 -1.6661 -0.3820 -1.3352
  979MOL0     H32136  10.485  10.333   3.289 -0.0911 -2.1041  0.8311
  979MOL0     H32137  10.390  10.197   3.091 -0.7735  0.1149  0.4882
  979MOL0     H32138  10.438  10.329   2.977 -1.0083 -2.0537 -1.9056
  979MOL0     H32139  10.200  10.321   3.062  2.3096 -4.0669 -1.6349
  979MOL0     H32140  10.273  10.338   3.233  4.1662 -1.2120 -0.8971
  979MOL0     H32141  10.253  10.536   3.010 -1.3636  1.1716  0.0041
  979MOL0     H32142  10.363  10.573   3.143 -1.6845  2.6595 -1.1119
  979MOL0     H32143  10.067  10.546   3.182  0.3127 -3.4825  1.4776
  979MOL0     H32144  10.183  10.546   3.319 -0.8728  3.4243  1.8501
  979MOL0     H32145  10.994  10.138   3.206 -0.6547  0.2716  1.3551
  979MOL0     H32146  11.215  10.059   3.218 -0.4448  0.6244  0.2010
  979MOL0     H32147  11.491   9.743   3.150  0.5327  0.2906  0.7837
  979MOL0     H32148  11.674   9.585   3.069 -2.6135  0.3631 -2.4076
  979MOL0     H32149  11.644  10.269   3.463  0.1284 -1.1040 -3.1970
  979MOL0     H32150  11.419  10.391   3.482 -1.9074  0.0598 -0.2976
  979MOL0     H32151  10.925  10.186   3.565 -1.5060 -0.6279 -0.0414
  979MOL0     H32152  10.728  10.251   3.621  0.9392  0.4884  0.7290
  979MOL0     H32153  10.527  10.594   3.365 -1.0831 -0.5322 -0.4231
  979MOL0     H32154  10.612  10.658   3.506 -1.7161  1.8834  0.4095
  979MOL0     H32155  10.329  10.571   3.484 -1.0244  0.0523  1.6909
  979MOL0     H32156  10.396  10.744   3.495 -1.6636  0.3642  2.0776
  979MOL0     H32157  10.468  10.706   3.707 -2.3538  2.2320  2.3833
  979MOL0     H32158  10.395  10.534   3.707 -0.2118 -0.3581  2.4869
  979MOL0     H32159  10.275  10.794   3.778 -0.4422  0.7179 -1.9689
  979MOL0     H32160  10.177  10.712   3.655 -1.1062  3.6679  1.4841
  979MOL0     H32161  10.144  10.487   4.023 -0.6756 -1.2809 -0.5240
  979MOL0     H32162  10.747  10.581   3.336 -1.2002  1.3341  3.3071
  979MOL0     H32163  11.015  10.456   3.163 -2.5374  0.1619 -0.6758
  979MOL0     H32164  10.927  10.609   3.206  0.0592  1.2325  2.8516
  979MOL0     H32165  11.093  10.566   3.272  0.1852  0.0119  0.1571
  980MOL0     O32166   9.451   2.987   3.882  0.3632  0.3073 -0.0395
  980MOL0     C32167   9.375   2.914   3.947  0.1258 -1.0160  0.5301
  980MOL0     O32168   9.321   2.945   4.070 -0.4021  0.6903 -0.2258
  980MOL0     C32169   9.384   3.027   4.163 -0.0190  1.4256 -0.7700
  980MOL0     C32170   9.512   3.084   4.150 -0.1219  0.2001  1.1342
  980MOL0     C32171   9.573   3.159   4.256 -0.5032  1.3263  0.1218
  980MOL0     C32172   9.509   3.175   4.375 -0.3407  0.5767  0.3505
  980MOL0     O32173   9.555   3.262   4.475  0.5336  0.3789 -0.5152
  980MOL0     C32174   9.474   3.313   4.568 -0.5513 -0.9509  0.2847
  980MOL0     C32175   9.546   3.419   4.638 -0.5910 -0.2010 -0.9264
  980MOL0     C32176   9.469   3.487   4.753 -0.0146  0.2047 -0.8778
  980MOL0     C32177   9.430   3.390   4.866 -0.1595  0.9527 -0.3031
  980MOL0     C32178   9.544   3.358   4.970  0.5271 -0.1788 -0.5360
  980MOL0     C32179   9.490   3.291   5.091 -0.2971 -0.2602  1.6398
  980MOL0     C32180   9.380   3.358   5.179 -0.6361 -0.3941 -0.8434
  980MOL0     C32181   9.397   3.507   5.207 -0.0808  1.1857 -0.6873
  980MOL0     N32182   9.277   3.554   5.270  0.3146 -0.6319  0.2156
  980MOL0     C32183   9.211   3.498   5.378 -0.0730  0.7179  0.1857
  980MOL0     C32184   9.111   3.592   5.393  0.2775 -0.0585 -0.0717
  980MOL0     C32185   8.992   3.586   5.489 -0.7954 -0.2868  0.1458
  980MOL0     C32186   8.864   3.640   5.424 -0.2177  0.6073 -0.4009
  980MOL0     C32187   8.740   3.643   5.529 -0.5998  0.2013 -0.5009
  980MOL0     C32188   8.627   3.546   5.496 -0.4374 -0.2226  0.2723
  980MOL0     O32189   8.554   3.575   5.376 -0.1392 -0.3350  0.1431
  980MOL0     C32190   8.438   3.512   5.361  1.4362 -0.0626 -1.2515
  980MOL0     C32191   8.329   3.575   5.307 -0.0449 -0.3462 -0.4666
  980MOL0     C32192   8.203   3.507   5.293 -0.4569 -0.4696  0.8532
  980MOL0     C32193   8.189   3.378   5.351  1.2070  0.3921 -0.0747
  980MOL0     C32194   8.056   3.311   5.369  0.3689 -0.1253  0.1826
  980MOL0     O32195   7.952   3.375   5.303  0.6736  0.0141  0.1803
  980MOL0     C32196   7.825   3.358   5.336 -0.2270  0.2782  0.1582
  980MOL0     C32197   7.773   3.297   5.453  0.5048 -0.3295 -0.9307
  980MOL0     C32198   7.639   3.295   5.485  0.6445 -1.0912  0.5403
  980MOL0     C32199   7.553   3.354   5.383  0.0866 -0.1984 -0.4450
  980MOL0     O32200   7.421   3.329   5.383  0.1242  0.2961  0.4556
  980MOL0     C32201   7.377   3.216   5.459  1.0773 -0.8137 -0.3888
  980MOL0     C32202   7.221   3.206   5.460 -0.4689  0.1855 -0.2853
  980MOL0     C32203   7.161   3.334   5.524 -1.0569 -0.1319  0.4924
  980MOL0     C32204   7.011   3.348   5.478  0.3860  0.2224 -0.3556
  980MOL0     C32205   6.947   3.472   5.551 -0.2017 -0.4935  0.4443
  980MOL0     C32206   6.938   3.469   5.711 -0.1983 -0.6303 -0.0785
  980MOL0     C32207   6.839   3.358   5.759  0.2026 -0.0139 -0.0314
  980MOL0     C32208   6.806   3.358   5.908 -0.6782  0.4655  0.2256
  980MOL0    Cl32209   6.955   3.290   6.005  0.2872 -0.6513 -0.6100
  980MOL0     C32210   7.601   3.422   5.274  0.0011  0.4239 -0.5268
  980MOL0     C32211   7.733   3.423   5.254  0.2143  0.2618 -0.7878
  980MOL0     O32212   8.052   3.207   5.431 -0.9844 -0.4730  0.2032
  980MOL0     C32213   8.295   3.312   5.399  0.3713  0.8555  1.1924
  980MOL0     C32214   8.418   3.380   5.407 -1.2407  0.8113 -0.6348
  980MOL0     N32215   9.108   3.674   5.286  0.2021 -0.2568 -0.0691
  980MOL0     N32216   9.207   3.660   5.221 -0.7096  0.5350 -0.4570
  980MOL0     C32217   9.387   3.119   4.396 -0.2362  0.1813  0.2198
  980MOL0     C32218   9.325   3.049   4.290  0.4945 -0.5583  0.6678
  980MOL0     C32219   9.338   2.785   3.888 -1.2633 -0.5073  0.6925
  980MOL0     C32220   9.284   2.773   3.757  0.5079  0.1205 -0.2073
  980MOL0     C32221   9.250   2.649   3.705 -0.5494  0.3314  0.7461
  980MOL0     C32222   9.257   2.536   3.785 -0.4546 -0.3065 -0.3058
  980MOL0     O32223   9.214   2.413   3.748  0.1653  0.9935  0.4167
  980MOL0     C32224   9.073   2.375   3.773 -0.2430 -0.7468 -0.3188
  980MOL0     C32225   9.040   2.343   3.924 -0.2702  0.6027  1.2186
  980MOL0     C32226   9.123   2.225   3.983 -0.3132  0.5615  0.3283
  980MOL0     C32227   9.102   2.185   4.125 -0.0249 -0.5827  0.4670
  980MOL0     C32228   9.131   2.304   4.211  0.3545  0.2845  0.8900
  980MOL0     C32229   9.158   2.403   4.274  1.2455  0.0458  0.6343
  980MOL0     C32230   9.317   2.541   3.916  1.1126 -0.4150  0.2304
  980MOL0     C32231   9.350   2.661   3.964 -1.3332 -0.5659 -0.8111
  980MOL0     C32232   9.425   2.664   4.093  0.5947  0.0381 -0.7645
  980MOL0     H32233   9.564   3.087   4.054  0.4541  2.0259  1.4708
  980MOL0     H32234   9.670   3.207   4.248  0.2873 -0.2809 -0.4500
  980MOL0     H32235   9.387   3.361   4.524  1.4447  1.3289 -1.4808
  980MOL0     H32236   9.444   3.233   4.637 -0.5258  0.0693  1.5087
  980MOL0     H32237   9.556   3.506   4.573 -1.7876  0.4736 -0.2381
  980MOL0     H32238   9.647   3.389   4.670 -0.3338  0.9081 -0.6740
  980MOL0     H32239   9.378   3.527   4.707 -0.9060 -2.2743 -1.4352
  980MOL0     H32240   9.526   3.570   4.795 -0.4968  0.6638 -1.1248
  980MOL0     H32241   9.348   3.437   4.921 -2.3434 -2.1017 -0.6546
  980MOL0     H32242   9.385   3.299   4.824  0.0186  0.7066  0.0298
  980MOL0     H32243   9.618   3.298   4.917  0.5576  0.0697 -0.7809
  980MOL0     H32244   9.600   3.446   5.004 -2.1508  1.0761  0.9821
  980MOL0     H32245   9.457   3.191   5.063  1.9314 -0.9309  1.2118
  980MOL0     H32246   9.584   3.273   5.144  1.9461 -0.6161 -2.0455
  980MOL0     H32247   9.391   3.297   5.269 -0.6179 -0.6724 -1.0332
  980MOL0     H32248   9.277   3.338   5.149 -1.4729 -1.6062  2.4214
  980MOL0     H32249   9.481   3.532   5.273  2.0317 -2.3548 -1.7658
  980MOL0     H32250   9.412   3.561   5.113 -0.5318 -0.5419 -1.7968
  980MOL0     H32251   9.239   3.403   5.422  1.4264 -0.3240 -2.8175
  980MOL0     H32252   8.963   3.487   5.523 -1.1714  0.6367  2.7505
  980MOL0     H32253   9.027   3.640   5.578 -0.9139 -2.0030  1.2758
  980MOL0     H32254   8.878   3.741   5.386  2.2500 -0.5413 -2.9051
  980MOL0     H32255   8.848   3.574   5.338  3.4820 -2.7408  1.1458
  980MOL0     H32256   8.696   3.743   5.534 -0.7469  0.3158 -2.8486
  980MOL0     H32257   8.774   3.609   5.627 -3.1393 -4.6229 -1.0153
  980MOL0     H32258   8.560   3.545   5.582  0.0774  0.0434  0.6884
  980MOL0     H32259   8.678   3.450   5.495 -0.7297 -0.3733 -1.4254
  980MOL0     H32260   8.339   3.681   5.286 -3.8566  0.4832  1.1958
  980MOL0     H32261   8.114   3.550   5.248 -2.5105 -1.3736  3.6969
  980MOL0     H32262   7.847   3.254   5.520  0.1352 -1.3908 -1.1693
  980MOL0     H32263   7.619   3.239   5.576  1.2658 -2.2516 -0.0111
  980MOL0     H32264   7.423   3.123   5.423  0.8338  0.0342 -3.0571
  980MOL0     H32265   7.398   3.236   5.564 -1.0051  1.4290 -0.3055
  980MOL0     H32266   7.184   3.202   5.358 -1.2151  2.7667 -0.1907
  980MOL0     H32267   7.187   3.119   5.518 -4.5019  0.4863 -1.8884
  980MOL0     H32268   7.172   3.346   5.632  0.4789 -0.2794  0.3718
  980MOL0     H32269   7.219   3.422   5.496  0.9353 -2.2292 -2.5674
  980MOL0     H32270   6.960   3.258   5.514 -0.2042  0.2886 -0.9978
  980MOL0     H32271   6.999   3.361   5.370  0.1213  0.9010 -0.2465
  980MOL0     H32272   6.849   3.488   5.505  1.8275  1.9378 -3.6918
  980MOL0     H32273   7.020   3.550   5.528  1.2422 -1.7197  0.7823
  980MOL0     H32274   7.034   3.439   5.752 -1.2425 -2.6138  1.0807
  980MOL0     H32275   6.909   3.566   5.752 -0.0431 -0.5072 -0.2574
  980MOL0     H32276   6.866   3.260   5.719  0.3665 -0.2604  0.6666
  980MOL0     H32277   6.748   3.376   5.699  0.9643  1.6985 -0.7512
  980MOL0     H32278   6.790   3.462   5.938  3.4289  1.7027 -1.2507
  980MOL0     H32279   6.716   3.298   5.923 -0.1374 -0.7276 -1.0655
  980MOL0     H32280   7.541   3.456   5.191  2.1268  1.0353 -1.8821
  980MOL0     H32281   7.781   3.486   5.179 -1.2030 -0.0505 -2.0126
  980MOL0     H32282   8.301   3.209   5.432  2.3113  0.2589 -0.7936
  980MOL0     H32283   8.493   3.319   5.456 -1.7268  1.7662  1.4340
  980MOL0     H32284   9.342   3.117   4.495  0.6911  1.5367  0.6971
  980MOL0     H32285   9.235   2.992   4.314  1.0227 -0.8848  1.9475
  980MOL0     H32286   9.258   2.862   3.699  2.2812  0.9786  0.2677
  980MOL0     H32287   9.219   2.632   3.602  0.9320 -0.4145  0.3991
  980MOL0     H32288   9.056   2.277   3.728  0.2783 -0.8068 -0.3943
  980MOL0     H32289   9.008   2.453   3.732 -1.5985 -0.5346  2.0908
  980MOL0     H32290   8.932   2.328   3.934 -0.3731  1.6667  1.8058
  980MOL0     H32291   9.054   2.432   3.985  2.6234 -0.1328  1.7991
  980MOL0     H32292   9.229   2.240   3.966 -0.1232 -0.2739  0.7027
  980MOL0     H32293   9.105   2.132   3.928  3.1726 -0.7406  1.1389
  980MOL0     H32294   8.999   2.155   4.149  0.0004 -1.4743 -0.4520
  980MOL0     H32295   9.174   2.105   4.142 -0.1207 -0.9441 -0.7398
  980MOL0     H32296   9.193   2.494   4.317 -0.5042  1.4591 -0.7306
  980MOL0     H32297   9.326   2.460   3.988  0.5534 -1.9600 -1.3719
  980MOL0     H32298   9.358   2.702   4.171 -0.7946 -0.3776 -1.7165
  980MOL0     H32299   9.468   2.570   4.129 -1.2319 -0.1942  1.0302
  980MOL0     H32300   9.499   2.744   4.094 -0.9192  1.4958 -1.0283
  981MOL0     O32301  10.935   6.231  10.046 -0.2681  0.3941  0.1224
  981MOL0     C32302  10.892   6.200   9.938  1.1020  0.2101  0.1635
  981MOL0     O32303  10.813   6.086   9.906  0.0329  0.0528 -0.6582
  981MOL0     C32304  10.818   5.987  10.005 -0.5557 -0.4373 -0.2752
  981MOL0     C32305  10.880   5.861   9.988 -0.7047 -0.1405  0.6753
  981MOL0     C32306  10.869   5.759  10.081  0.1470 -0.3622 -0.8427
  981MOL0     C32307  10.798   5.776  10.205  0.8690  0.6337 -0.2925
  981MOL0     O32308  10.796   5.665  10.280 -0.2542 -0.0509 -0.0162
  981MOL0     C32309  10.702   5.658  10.391 -0.3804  1.0217  1.0351
  981MOL0     C32310  10.765   5.675  10.528 -0.1239  0.0927 -0.0246
  981MOL0     C32311  10.668   5.659  10.645  0.5854 -1.0250 -0.1159
  981MOL0     C32312  10.745   5.688  10.763 -0.6778 -0.0825 -0.5935
  981MOL0     C32313  10.657   5.703  10.885  0.1508 -0.5430 -0.2681
  981MOL0     C32314  10.594   5.570  10.947  0.2094  0.1513 -0.3996
  981MOL0     C32315  10.716   5.495  11.008  0.3204 -0.7568  0.5222
  981MOL0     C32316  10.682   5.366  11.078 -0.1697  0.6459 -0.4751
  981MOL0     N32317  10.596   5.369  11.200  0.9778 -0.2314 -0.1424
  981MOL0     C32318  10.573   5.478  11.287 -0.0747 -0.6922 -0.1607
  981MOL0     C32319  10.517   5.425  11.398 -1.4427 -0.2735  0.4914
  981MOL0     C32320  10.477   5.508  11.517  0.1988  0.3136  0.6881
  981MOL0     C32321  10.338   5.472  11.569  0.1402  0.2508  0.9231
  981MOL0     C32322  10.295   5.576  11.671  0.6989 -0.4938 -0.7762
  981MOL0     C32323  10.164   5.545  11.740 -0.0295  0.1217  0.3999
  981MOL0     O32324  10.181   5.424  11.825 -0.1481 -0.0020 -0.9674
  981MOL0     C32325  10.079   5.397  11.909  0.2798 -0.2204  0.6957
  981MOL0     C32326  10.023   5.269  11.902  1.1194  0.5573 -0.7057
  981MOL0     C32327   9.934   5.219  12.002  0.7205 -1.0747  0.0005
  981MOL0     C32328   9.890   5.300  12.102 -1.3029  0.5855 -0.0461
  981MOL0     C32329   9.785   5.259  12.206  0.0154 -0.1431 -0.7107
  981MOL0     O32330   9.755   5.349  12.303  0.6457 -0.1943  1.1434
  981MOL0     C32331   9.697   5.284  12.409  0.5040 -0.5441  0.1732
  981MOL0     C32332   9.557   5.266  12.425 -0.4308 -0.3883  1.1344
  981MOL0     C32333   9.509   5.187  12.528  0.4598 -0.4907 -0.1565
  981MOL0     C32334   9.589   5.134  12.627  0.0047  0.2124  0.0349
  981MOL0     O32335   9.561   5.058  12.736 -0.8108 -0.2498  0.6541
  981MOL0     C32336   9.432   5.048  12.795  0.3445 -1.0629  0.5101
  981MOL0     C32337   9.437   5.089  12.940  0.1023 -0.4132  0.9529
  981MOL0     C32338   9.305   5.071  13.014 -0.0664  0.5653 -0.7226
  981MOL0     C32339   9.201   5.170  12.983  0.1654 -0.2815  0.7768
  981MOL0     C32340   9.069   5.118  13.035  0.3232 -0.1144 -0.0439
  981MOL0     C32341   9.057   5.119  13.182  0.0153  0.3326  0.7376
  981MOL0     C32342   8.915   5.126  13.238  0.3453  0.2424 -0.4443
  981MOL0     C32343   8.927   5.099  13.386 -0.2895  0.5094  0.5266
  981MOL0    Cl32344   8.768   5.110  13.466  0.6646  0.0917 -0.2251
  981MOL0     C32345   9.728   5.150  12.604  0.6217  0.0834 -1.1995
  981MOL0     C32346   9.779   5.230  12.502  0.2670 -0.2910 -0.3630
  981MOL0     O32347   9.738   5.144  12.190 -0.0092 -0.1603  0.0586
  981MOL0     C32348   9.945   5.430  12.106  0.1235  0.1056  0.6996
  981MOL0     C32349  10.035   5.473  12.016  0.9260  0.5196  0.2422
  981MOL0     N32350  10.494   5.287  11.373 -0.0471 -0.0167  0.0225
  981MOL0     N32351  10.550   5.257  11.264 -0.4861 -0.4544 -0.3333
  981MOL0     C32352  10.727   5.889  10.211 -1.3124  0.0511 -0.3956
  981MOL0     C32353  10.738   5.988  10.120  0.8438  0.2012  0.8207
  981MOL0     C32354  10.929   6.286   9.824 -0.1577 -0.1815 -0.1157
  981MOL0     C32355  10.941   6.219   9.699 -1.4558  0.2151 -0.2470
  981MOL0     C32356  11.019   6.285   9.600  0.2409  0.9775  0.2242
  981MOL0     C32357  11.055   6.421   9.609 -0.1585 -0.1307  1.0613
  981MOL0     O32358  11.115   6.484   9.497  0.0495  0.5794  0.0247
  981MOL0     C32359  11.192   6.609   9.500  0.5044 -0.5613  0.5153
  981MOL0     C32360  11.323   6.603   9.566  0.2294 -0.3790  0.1081
  981MOL0     C32361  11.425   6.509   9.497  0.4935  0.1941  0.0029
  981MOL0     C32362  11.565   6.533   9.540  0.1638 -0.4705  0.2446
  981MOL0     C32363  11.586   6.506   9.686 -0.7375 -0.1012  0.1562
  981MOL0     C32364  11.605   6.463   9.796  0.5466 -0.0254 -0.9916
  981MOL0     C32365  11.038   6.485   9.725  0.3886 -0.6775 -0.0470
  981MOL0     C32366  10.976   6.422   9.836  0.9801  0.0435  1.0037
  981MOL0     C32367  10.948   6.502   9.960 -0.8117 -0.7375 -0.2025
  981MOL0     H32368  10.928   5.835   9.894  0.5771 -0.6006  1.4444
  981MOL0     H32369  10.911   5.663  10.050 -0.3557  0.2449 -3.7139
  981MOL0     H32370  10.616   5.725  10.387  1.3645  3.3185 -0.2542
  981MOL0     H32371  10.668   5.554  10.390  0.9227  0.4493  4.1936
  981MOL0     H32372  10.797   5.780  10.522  2.0629 -0.5239  0.1746
  981MOL0     H32373  10.849   5.613  10.557 -0.5548  1.2527  4.5300
  981MOL0     H32374  10.642   5.553  10.655 -1.2762 -0.4436  2.1531
  981MOL0     H32375  10.578   5.720  10.641 -0.5482 -2.2854  2.9851
  981MOL0     H32376  10.820   5.611  10.782  1.8963  0.8687 -5.3987
  981MOL0     H32377  10.806   5.778  10.753  0.2942 -0.1673  3.0721
  981MOL0     H32378  10.711   5.760  10.960  1.0016 -2.9023  0.9985
  981MOL0     H32379  10.578   5.768  10.845 -0.8407 -2.3904 -1.4718
  981MOL0     H32380  10.528   5.599  11.030  0.5135 -0.2138 -0.0277
  981MOL0     H32381  10.537   5.510  10.876  1.0037  0.3087 -1.1851
  981MOL0     H32382  10.764   5.560  11.082 -1.7676  0.1364  1.1844
  981MOL0     H32383  10.785   5.467  10.928 -0.3240  1.1889 -0.7869
  981MOL0     H32384  10.615   5.303  11.018  1.0097 -2.2199  1.0319
  981MOL0     H32385  10.773   5.309  11.096 -0.9421 -1.1785 -2.0264
  981MOL0     H32386  10.604   5.581  11.271  0.3251 -0.6806  0.6194
  981MOL0     H32387  10.534   5.481  11.606  0.6876 -1.0892 -0.0369
  981MOL0     H32388  10.489   5.612  11.485 -0.7554  1.2538  3.1204
  981MOL0     H32389  10.263   5.478  11.490 -1.2076  2.9675  2.2297
  981MOL0     H32390  10.331   5.376  11.620 -2.4951 -1.1137 -1.6881
  981MOL0     H32391  10.283   5.672  11.622  2.0841 -0.0975 -0.3901
  981MOL0     H32392  10.367   5.591  11.752 -2.2592 -0.1997  1.9795
  981MOL0     H32393  10.085   5.551  11.665 -0.9030  1.3484  1.3610
  981MOL0     H32394  10.141   5.635  11.799 -0.9296  2.7691 -3.6034
  981MOL0     H32395  10.041   5.201  11.820  1.3801 -3.5217  2.3917
  981MOL0     H32396   9.888   5.123  11.982 -2.6815  0.0555  1.5951
  981MOL0     H32397   9.489   5.318  12.358  1.9216  3.5319  1.4826
  981MOL0     H32398   9.401   5.181  12.537  0.1257  1.0209 -2.2599
  981MOL0     H32399   9.357   5.115  12.751  1.2078 -0.3878  0.0395
  981MOL0     H32400   9.400   4.944  12.786  0.7011 -0.9997 -2.4676
  981MOL0     H32401   9.521   5.036  12.986  1.4894  1.2798  0.5100
  981MOL0     H32402   9.465   5.195  12.944  1.1197 -0.6915  1.5377
  981MOL0     H32403   9.271   4.970  12.989  1.6698 -0.5955  1.2445
  981MOL0     H32404   9.323   5.060  13.122  1.8110 -3.6196 -1.2509
  981MOL0     H32405   9.194   5.182  12.875  1.8730 -0.5685  0.6062
  981MOL0     H32406   9.224   5.267  13.028 -1.3365  0.1979  0.5536
  981MOL0     H32407   9.037   5.020  12.999 -0.2618 -0.3986  1.2053
  981MOL0     H32408   8.987   5.183  13.002 -1.6270 -1.9204  1.0527
  981MOL0     H32409   9.114   5.030  13.211  0.4612 -1.7638 -5.2432
  981MOL0     H32410   9.099   5.209  13.229 -1.6189 -0.1345  3.2556
  981MOL0     H32411   8.856   5.056  13.178 -0.9342  3.1389 -2.8040
  981MOL0     H32412   8.879   5.228  13.224 -3.5899 -1.0530 -1.0421
  981MOL0     H32413   8.966   4.999  13.405  0.1064  0.2706 -1.3701
  981MOL0     H32414   8.997   5.168  13.432  0.9699 -1.0782  1.0736
  981MOL0     H32415   9.789   5.100  12.679  1.0805  0.3671 -1.3799
  981MOL0     H32416   9.882   5.262  12.492 -0.7040  2.8146 -1.6656
  981MOL0     H32417   9.914   5.504  12.179  3.7678  1.6102  0.9065
  981MOL0     H32418  10.088   5.567  12.013  1.8345 -0.0107 -0.8863
  981MOL0     H32419  10.660   5.906  10.294 -1.4825  0.5751 -0.6308
  981MOL0     H32420  10.666   6.070  10.125  2.3177  2.0243 -3.3627
  981MOL0     H32421  10.904   6.118   9.681 -0.1484 -0.0114 -1.8222
  981MOL0     H32422  11.056   6.232   9.512  1.7380  1.5964  0.4352
  981MOL0     H32423  11.126   6.683   9.548 -0.7212 -0.4532 -1.2557
  981MOL0     H32424  11.209   6.647   9.399 -0.5702  2.9087  1.5020
  981MOL0     H32425  11.302   6.556   9.662  0.1323 -2.4001 -0.8353
  981MOL0     H32426  11.362   6.703   9.586 -2.2526  0.8430 -0.6890
  981MOL0     H32427  11.424   6.523   9.388 -1.4738 -0.7725 -0.1459
  981MOL0     H32428  11.396   6.406   9.516  1.9493 -0.3331 -0.5208
  981MOL0     H32429  11.644   6.474   9.494  0.5265  1.8463 -2.3403
  981MOL0     H32430  11.592   6.636   9.515 -0.7561  0.1942  1.8254
  981MOL0     H32431  11.611   6.440   9.901 -0.8622  2.3264 -0.3241
  981MOL0     H32432  11.078   6.585   9.744 -0.3296 -0.3980  0.0096
  981MOL0     H32433  11.031   6.473  10.025 -1.6336 -2.2423  0.2220
  981MOL0     H32434  10.961   6.610   9.947  1.2283 -0.6092  2.1783
  981MOL0     H32435  10.856   6.478  10.014  0.0326  0.8240  2.0734
  982MOL0     O32436   9.443   8.817   3.318 -0.4882 -0.2291  0.3246
  982MOL0     C32437   9.461   8.801   3.195 -0.0584 -1.0355  0.4086
  982MOL0     O32438   9.484   8.893   3.105  0.6086 -0.2007 -0.0787
  982MOL0     C32439   9.533   9.013   3.140 -0.8682  0.2318 -0.2493
  982MOL0     C32440   9.547   9.097   3.023  0.3579  0.0288  0.5886
  982MOL0     C32441   9.600   9.229   3.032  0.0100  0.4101  0.3174
  982MOL0     C32442   9.640   9.285   3.156 -1.1607  0.5713 -0.7693
  982MOL0     O32443   9.681   9.418   3.171  0.9341  0.1465 -0.1176
  982MOL0     C32444   9.779   9.462   3.070 -0.2503 -0.7240 -1.0713
  982MOL0     C32445   9.914   9.436   3.131 -0.2081 -1.0872 -0.7125
  982MOL0     C32446   9.937   9.531   3.257 -0.1237 -0.0140  0.9145
  982MOL0     C32447  10.089   9.539   3.280 -0.3026 -0.7272 -0.0767
  982MOL0     C32448  10.168   9.405   3.264 -0.3791 -0.6793  0.3527
  982MOL0     C32449  10.128   9.304   3.365  0.6055  0.2957  0.7861
  982MOL0     C32450  10.188   9.170   3.318  0.4183  0.0301 -0.0015
  982MOL0     C32451  10.124   9.118   3.186  0.1118 -0.0988  0.3174
  982MOL0     N32452  10.143   8.972   3.187  0.1654  1.0950  0.2378
  982MOL0     C32453  10.062   8.869   3.225 -0.2744 -0.5240 -0.4059
  982MOL0     C32454  10.121   8.753   3.193 -0.6275 -0.2384 -0.2027
  982MOL0     C32455  10.065   8.617   3.238 -0.1855 -0.8983  0.6714
  982MOL0     C32456  10.135   8.555   3.360 -0.3102 -0.0586 -0.1304
  982MOL0     C32457  10.058   8.440   3.428 -0.0410 -1.3928  0.1157
  982MOL0     C32458  10.000   8.331   3.335  0.2340  0.3741  0.1530
  982MOL0     O32459   9.916   8.236   3.413 -0.2372  0.8981  0.6927
  982MOL0     C32460   9.983   8.139   3.491 -0.0836 -1.0749  0.6738
  982MOL0     C32461  10.127   8.134   3.510  0.0034 -1.0611 -0.9962
  982MOL0     C32462  10.170   8.029   3.596 -0.1289  0.1853  0.0565
  982MOL0     C32463  10.085   7.939   3.666  1.0039  1.0007  0.3483
  982MOL0     C32464  10.137   7.826   3.748  0.3580  1.0489  0.3356
  982MOL0     O32465  10.054   7.718   3.767 -0.0309  0.4660 -0.1327
  982MOL0     C32466  10.122   7.618   3.827  0.0880  0.4771 -0.3304
  982MOL0     C32467  10.221   7.534   3.759  0.3611  0.0505 -1.6109
  982MOL0     C32468  10.264   7.420   3.821  0.0856 -0.0671 -0.2753
  982MOL0     C32469  10.214   7.379   3.945 -0.1624  0.3548 -0.0584
  982MOL0     O32470  10.278   7.273   4.011 -0.4277 -0.2036  0.3976
  982MOL0     C32471  10.213   7.204   4.113 -0.7566 -0.2153 -0.5875
  982MOL0     C32472  10.289   7.068   4.129 -0.0924  0.8665  0.8233
  982MOL0     C32473  10.415   7.078   4.205  0.7516  0.1103 -0.8496
  982MOL0     C32474  10.404   7.155   4.339 -0.2937 -0.3183  0.9572
  982MOL0     C32475  10.532   7.157   4.429  0.4598 -0.5294  0.2028
  982MOL0     C32476  10.562   7.029   4.521 -0.0741  0.3519  1.0220
  982MOL0     C32477  10.686   7.046   4.615 -0.2369  0.0491  0.3932
  982MOL0     C32478  10.801   6.953   4.580 -0.0258 -0.0558 -0.4704
  982MOL0    Cl32479  10.945   6.987   4.687 -0.1874 -0.2886 -0.0794
  982MOL0     C32480  10.114   7.455   4.002 -0.5249  0.5039  0.6617
  982MOL0     C32481  10.068   7.568   3.942 -0.7165  0.4262 -0.1258
  982MOL0     O32482  10.251   7.830   3.769  0.3277  0.2009  0.3001
  982MOL0     C32483   9.944   7.963   3.662 -0.8455 -0.9551 -0.0889
  982MOL0     C32484   9.899   8.054   3.564  0.4076  0.3850 -0.5581
  982MOL0     N32485  10.242   8.782   3.148 -0.6622 -0.1439 -0.0871
  982MOL0     N32486  10.255   8.917   3.140 -0.4895  0.4499  0.0096
  982MOL0     C32487   9.628   9.209   3.270 -0.4538  0.0248 -0.7366
  982MOL0     C32488   9.586   9.075   3.262  0.6346  0.0104 -0.5990
  982MOL0     C32489   9.421   8.678   3.146  0.2816  0.9647  0.7543
  982MOL0     C32490   9.284   8.645   3.163 -0.0508  0.0242 -0.0653
  982MOL0     C32491   9.229   8.520   3.142  0.1328 -0.2835 -0.5209
  982MOL0     C32492   9.313   8.423   3.083 -0.1192  0.2365  0.0451
  982MOL0     O32493   9.267   8.303   3.058  0.4129  0.4369  0.0205
  982MOL0     C32494   9.162   8.254   3.139 -0.0280  0.7721 -0.0040
  982MOL0     C32495   9.119   8.105   3.121  0.0912 -0.9513 -0.9728
  982MOL0     C32496   9.152   8.023   3.254 -0.5055  0.5812  0.2967
  982MOL0     C32497   9.054   8.072   3.359 -0.1050 -0.4139  0.7752
  982MOL0     C32498   8.920   8.019   3.330 -0.1980 -0.6061  0.4726
  982MOL0     C32499   8.807   7.967   3.329 -0.6345 -0.3053  0.0160
  982MOL0     C32500   9.452   8.445   3.056 -0.1380 -0.4605  0.6454
  982MOL0     C32501   9.509   8.571   3.099 -0.6257 -0.1644  0.2907
  982MOL0     C32502   9.671   8.590   3.106 -0.3358  0.3314 -0.4824
  982MOL0     H32503   9.522   9.059   2.925  1.4702  1.6196 -0.3457
  982MOL0     H32504   9.597   9.290   2.942  2.7235 -0.7862 -0.6911
  982MOL0     H32505   9.776   9.394   2.984  1.9763 -0.9934 -0.9851
  982MOL0     H32506   9.758   9.565   3.042 -1.4528 -0.8349 -0.6588
  982MOL0     H32507   9.991   9.456   3.056  1.1378 -0.3626  0.8124
  982MOL0     H32508   9.921   9.335   3.173 -1.7594 -0.2238  1.7875
  982MOL0     H32509   9.894   9.493   3.350  0.5748 -0.9053  0.8828
  982MOL0     H32510   9.887   9.627   3.241  0.0574 -0.1865 -0.8955
  982MOL0     H32511  10.131   9.603   3.202 -0.7784  0.3384  0.5121
  982MOL0     H32512  10.110   9.579   3.380 -1.7667  0.4080 -0.1874
  982MOL0     H32513  10.161   9.366   3.162 -4.0882  0.1029  0.1571
  982MOL0     H32514  10.272   9.433   3.286 -1.2349  1.6091  1.9879
  982MOL0     H32515  10.158   9.330   3.467 -0.3940  1.1408  0.8776
  982MOL0     H32516  10.019   9.299   3.373  0.6674 -0.8981  1.0648
  982MOL0     H32517  10.175   9.093   3.395  0.4918 -1.0120 -1.0032
  982MOL0     H32518  10.297   9.162   3.312  0.2617 -1.6940 -1.4709
  982MOL0     H32519  10.018   9.143   3.177  0.1599 -0.5062 -2.2718
  982MOL0     H32520  10.161   9.160   3.092  1.6807  0.8365  1.3244
  982MOL0     H32521   9.961   8.884   3.263 -0.2001 -0.6967 -0.1400
  982MOL0     H32522   9.958   8.629   3.259 -0.3684 -3.1829  1.3209
  982MOL0     H32523  10.063   8.541   3.160 -1.4691  0.4890 -0.7156
  982MOL0     H32524  10.227   8.503   3.333  0.6766  0.5632  1.8728
  982MOL0     H32525  10.134   8.635   3.434  3.9484  0.3161 -0.2726
  982MOL0     H32526   9.974   8.483   3.484  1.2494 -0.5948  1.5146
  982MOL0     H32527  10.129   8.402   3.501 -0.1462  0.2188  1.1165
  982MOL0     H32528  10.085   8.278   3.293  1.8319 -0.4675  3.9696
  982MOL0     H32529   9.947   8.378   3.252 -1.1485 -1.4455 -0.0414
  982MOL0     H32530  10.194   8.208   3.468 -1.2854  0.6019 -0.2234
  982MOL0     H32531  10.275   8.002   3.586 -0.7092 -1.9625 -0.7115
  982MOL0     H32532  10.277   7.571   3.673  2.8809 -1.4865 -0.7570
  982MOL0     H32533  10.340   7.353   3.784 -1.6198 -0.9810 -2.3427
  982MOL0     H32534  10.215   7.259   4.207 -0.0225  0.7001 -1.1209
  982MOL0     H32535  10.112   7.193   4.071 -0.1505 -0.4141 -2.0631
  982MOL0     H32536  10.228   6.994   4.181  2.7896 -1.7047  0.8237
  982MOL0     H32537  10.311   7.034   4.027 -3.3671  1.9808 -0.3753
  982MOL0     H32538  10.459   6.985   4.242 -0.4297  1.0207  3.3639
  982MOL0     H32539  10.492   7.124   4.142  2.2996 -1.4046 -0.1684
  982MOL0     H32540  10.317   7.117   4.393 -0.5764 -2.3469 -0.7911
  982MOL0     H32541  10.395   7.261   4.314 -0.7405 -0.0319  2.2265
  982MOL0     H32542  10.523   7.246   4.491  0.8032  0.7038 -1.4524
  982MOL0     H32543  10.617   7.167   4.361 -1.3996 -0.9084 -2.3153
  982MOL0     H32544  10.470   7.005   4.576 -0.3738  0.1556  0.4459
  982MOL0     H32545  10.584   6.941   4.460  2.1722 -0.5915  3.0435
  982MOL0     H32546  10.652   7.023   4.716  0.6672  1.8004  1.1373
  982MOL0     H32547  10.732   7.145   4.604 -0.7682  0.2257 -0.2530
  982MOL0     H32548  10.770   6.849   4.584 -0.1948  0.0335  1.4836
  982MOL0     H32549  10.824   6.980   4.477  0.3617 -0.0673 -0.3888
  982MOL0     H32550  10.079   7.428   4.101  3.5452  1.3198  2.5169
  982MOL0     H32551   9.985   7.617   3.992 -1.8922 -3.2633  1.8681
  982MOL0     H32552   9.884   7.902   3.729 -2.6481  0.2130 -0.5571
  982MOL0     H32553   9.792   8.072   3.554 -0.0228  2.3355  4.4522
  982MOL0     H32554   9.661   9.251   3.365  1.9562  0.0498 -1.5076
  982MOL0     H32555   9.565   9.023   3.355 -0.7995  1.9305  0.2226
  982MOL0     H32556   9.219   8.723   3.201  2.4651  2.0789  0.3510
  982MOL0     H32557   9.123   8.503   3.154 -0.2668 -2.0739 -4.7662
  982MOL0     H32558   9.063   8.300   3.128 -1.2182 -1.7344 -0.4538
  982MOL0     H32559   9.193   8.278   3.241 -0.3858 -0.7119  0.4765
  982MOL0     H32560   9.170   8.060   3.035  0.4173 -1.5088 -0.4974
  982MOL0     H32561   9.012   8.103   3.101 -0.1296 -1.0168  0.1575
  982MOL0     H32562   9.255   8.042   3.286  0.7914  0.3341 -3.2770
  982MOL0     H32563   9.151   7.914   3.241  1.7317  0.8686 -4.9636
  982MOL0     H32564   9.081   8.035   3.458 -0.5185  1.0573  1.4642
  982MOL0     H32565   9.058   8.181   3.361 -0.7070 -0.3773  0.4331
  982MOL0     H32566   8.719   7.907   3.323 -1.4688  0.9513 -0.6635
  982MOL0     H32567   9.507   8.358   3.021  1.5127  0.4641  0.8232
  982MOL0     H32568   9.706   8.577   3.004  2.2261 -1.9594  0.5662
  982MOL0     H32569   9.719   8.682   3.142 -0.6867  1.2388 -2.2302
  982MOL0     H32570   9.717   8.504   3.154  0.1411  0.9924  0.2844
  983MOL0     O32571   2.918  10.575   9.918 -0.6192 -0.0879 -0.1842
  983MOL0     C32572   3.028  10.555   9.879 -0.4674 -0.1354  0.9898
  983MOL0     O32573   3.065  10.443   9.797  0.5354  0.1116 -0.3513
  983MOL0     C32574   2.979  10.336   9.784 -0.2267 -0.0676  0.7409
  983MOL0     C32575   2.941  10.284   9.662  1.1950  0.6263 -0.1729
  983MOL0     C32576   2.855  10.174   9.652  0.0895  0.0912 -1.1214
  983MOL0     C32577   2.794  10.118   9.771 -0.3986 -0.7804 -0.9887
  983MOL0     O32578   2.702  10.022   9.752  0.8508 -0.6420 -0.2503
  983MOL0     C32579   2.648   9.961   9.883  0.3079 -0.6432  0.1290
  983MOL0     C32580   2.541   9.862   9.859  1.0130  1.1329 -0.6573
  983MOL0     C32581   2.418   9.933   9.796  0.1688 -0.2337 -0.5081
  983MOL0     C32582   2.346  10.036   9.885  0.0640  0.4914  0.5608
  983MOL0     C32583   2.208  10.076   9.822 -0.8098  0.4724  0.0142
  983MOL0     C32584   2.121  10.160   9.905  0.5972  0.2979  0.7163
  983MOL0     C32585   1.994  10.191   9.828  0.7251 -0.8572 -0.1742
  983MOL0     C32586   1.906  10.298   9.898 -0.7431 -0.2571 -0.1871
  983MOL0     N32587   1.941  10.438   9.898 -0.2009  0.1880  0.0344
  983MOL0     C32588   2.035  10.497   9.818  0.1204  0.6526 -0.1961
  983MOL0     C32589   2.021  10.628   9.834 -0.0794  0.6626 -0.7722
  983MOL0     C32590   2.098  10.725   9.737  0.4471  0.2907 -0.8941
  983MOL0     C32591   2.089  10.867   9.794  0.1107  0.4476  0.2174
  983MOL0     C32592   2.207  10.947   9.747  0.0099 -0.5103  0.0593
  983MOL0     C32593   2.187  11.093   9.808 -0.6427 -0.6728  0.0770
  983MOL0     O32594   2.310  11.159   9.772 -0.2641 -0.0385 -0.1994
  983MOL0     C32595   2.419  11.160   9.856 -1.4656 -0.8114  0.1612
  983MOL0     C32596   2.518  11.258   9.835  0.2590 -0.7340  0.7813
  983MOL0     C32597   2.633  11.266   9.914 -0.2396 -0.1549 -0.1030
  983MOL0     C32598   2.648  11.165  10.023  0.7932 -0.0516  0.4463
  983MOL0     C32599   2.756  11.168  10.108  0.4288 -0.4344 -0.0814
  983MOL0     O32600   2.845  11.276  10.081 -0.2342 -0.3488 -0.2493
  983MOL0     C32601   2.959  11.285  10.155  0.4574 -0.9779 -0.4946
  983MOL0     C32602   2.962  11.269  10.295 -0.9412  0.4100  0.2811
  983MOL0     C32603   3.087  11.288  10.363  0.5513 -0.8150 -0.2709
  983MOL0     C32604   3.194  11.332  10.290  0.0961 -0.3540 -1.2209
  983MOL0     O32605   3.308  11.341  10.379 -0.6909 -1.3234  0.3393
  983MOL0     C32606   3.440  11.387  10.330 -0.6542  0.2352 -0.4753
  983MOL0     C32607   3.542  11.418  10.450 -0.1725 -0.3831  0.5791
  983MOL0     C32608   3.516  11.538  10.538 -0.3184  0.0346 -0.1471
  983MOL0     C32609   3.529  11.506  10.683 -0.0740 -1.3319 -0.1554
  983MOL0     C32610   3.533  11.635  10.766 -0.6701 -0.1854  0.1139
  983MOL0     C32611   3.408  11.729  10.764 -0.5437 -0.3289 -0.0268
  983MOL0     C32612   3.281  11.668  10.820  1.2380 -0.0129 -0.0595
  983MOL0     C32613   3.166  11.777  10.838  0.7352 -0.3292  0.0705
  983MOL0    Cl32614   3.205  11.886  10.975 -0.0749  0.0594 -0.0543
  983MOL0     C32615   3.186  11.355  10.152  0.7749 -0.2499  0.4627
  983MOL0     C32616   3.068  11.335  10.081  0.5027  0.2293 -0.7272
  983MOL0     O32617   2.784  11.068  10.167 -0.5186 -0.1795 -0.4288
  983MOL0     C32618   2.542  11.074  10.050 -0.9262  0.1934  0.0312
  983MOL0     C32619   2.432  11.067   9.963  0.5881 -0.5063 -0.0331
  983MOL0     N32620   1.931  10.644   9.928 -0.2249 -0.5351 -0.1257
  983MOL0     N32621   1.881  10.531   9.967  0.6782 -0.2254 -0.4148
  983MOL0     C32622   2.840  10.169   9.893 -1.7570 -0.7560  0.1249
  983MOL0     C32623   2.928  10.277   9.901  0.4399  0.2272  0.3790
  983MOL0     C32624   3.136  10.652   9.901 -0.1524  0.0425 -0.1929
  983MOL0     C32625   3.264  10.616   9.849 -0.7861 -0.0816 -0.5539
  983MOL0     C32626   3.377  10.697   9.880  0.1838  0.3792  0.9814
  983MOL0     C32627   3.372  10.807   9.955  0.5386 -0.8702  0.4751
  983MOL0     O32628   3.491  10.878   9.978  0.0128  0.7722  0.1382
  983MOL0     C32629   3.487  11.009  10.033 -1.1589 -0.2332  0.5895
  983MOL0     C32630   3.633  11.071  10.039  0.3556 -0.0935 -1.1096
  983MOL0     C32631   3.738  11.024   9.940  1.3483 -0.1022 -0.9757
  983MOL0     C32632   3.736  11.116   9.815 -0.0257  0.1945  0.0646
  983MOL0     C32633   3.829  11.229   9.831  0.4025  0.0463  0.7340
  983MOL0     C32634   3.898  11.325   9.839 -0.5089  0.0117 -0.4669
  983MOL0     C32635   3.248  10.840  10.010 -0.7953  0.5033 -0.3590
  983MOL0     C32636   3.134  10.766   9.986  0.3542  0.1810 -0.1291
  983MOL0     C32637   3.015  10.825  10.069  0.3831  0.4750  0.2579
  983MOL0     H32638   2.971  10.338   9.573  1.8468  1.5239  0.5751
  983MOL0     H32639   2.828  10.136   9.554  0.9205 -1.9065 -0.6186
  983MOL0     H32640   2.726   9.916   9.945  0.7037 -1.3725 -0.8554
  983MOL0     H32641   2.600  10.043   9.937  0.1218  1.4107 -2.8890
  983MOL0     H32642   2.523   9.806   9.951  1.3002  0.9915 -0.6869
  983MOL0     H32643   2.577   9.784   9.791  1.9598 -1.7788  2.8924
  983MOL0     H32644   2.347   9.853   9.772 -1.1840  0.6145  0.4730
  983MOL0     H32645   2.450   9.981   9.703  2.2712 -1.0205 -0.2368
  983MOL0     H32646   2.317   9.979   9.973  3.8621 -3.1912 -0.2491
  983MOL0     H32647   2.412  10.121   9.905 -1.7372  2.5891 -1.7694
  983MOL0     H32648   2.223  10.130   9.728  0.3813 -0.9351 -0.6555
  983MOL0     H32649   2.159   9.981   9.798 -2.4141  0.9395  1.3060
  983MOL0     H32650   2.082  10.106   9.992 -1.9851  1.0888  0.1626
  983MOL0     H32651   2.170  10.253   9.932 -2.5772  1.6381  2.3930
  983MOL0     H32652   1.934  10.103   9.803 -0.6898  0.3518 -1.2412
  983MOL0     H32653   2.023  10.239   9.734  0.4788  4.3461  2.0678
  983MOL0     H32654   1.804  10.295   9.858 -0.6087  1.9921 -0.8374
  983MOL0     H32655   1.897  10.272  10.003  0.8339 -0.4459 -0.0760
  983MOL0     H32656   2.123  10.454   9.771  0.2373  1.0235 -0.3181
  983MOL0     H32657   2.203  10.697   9.751 -0.6786 -3.0297  2.8116
  983MOL0     H32658   2.054  10.724   9.637  0.2877  1.3246 -0.8476
  983MOL0     H32659   2.001  10.924   9.764  0.0808  1.2127  1.6624
  983MOL0     H32660   2.102  10.866   9.903 -0.9749 -1.2581  0.3737
  983MOL0     H32661   2.203  10.952   9.638 -1.8179  4.3039  0.1208
  983MOL0     H32662   2.299  10.904   9.787  0.4873  0.8016  0.3987
  983MOL0     H32663   2.179  11.097   9.917 -3.8859 -0.0113 -0.0945
  983MOL0     H32664   2.105  11.151   9.766 -2.4244 -2.8556  0.3098
  983MOL0     H32665   2.507  11.331   9.755  1.6874 -0.7966  0.5043
  983MOL0     H32666   2.708  11.343   9.907  1.4657 -1.6238  0.9879
  983MOL0     H32667   2.891  11.227  10.366  1.4794 -1.9318  1.5204
  983MOL0     H32668   3.098  11.282  10.471 -0.0831  1.8702  0.0109
  983MOL0     H32669   3.500  11.316  10.273  1.9501  1.8414  0.0666
  983MOL0     H32670   3.437  11.469  10.258 -0.0435  1.2754  0.6329
  983MOL0     H32671   3.529  11.325  10.506  2.5497 -0.2508  1.5675
  983MOL0     H32672   3.648  11.418  10.423  0.6174  1.7066  3.2572
  983MOL0     H32673   3.594  11.607  10.504  0.8373 -0.9721  0.3730
  983MOL0     H32674   3.422  11.581  10.504 -0.4995  0.2979  0.6769
  983MOL0     H32675   3.620  11.449  10.702 -0.3702 -1.6338  0.3658
  983MOL0     H32676   3.433  11.458  10.704  0.0406 -1.6581 -0.3702
  983MOL0     H32677   3.611  11.703  10.731 -2.1509  0.3913 -2.2782
  983MOL0     H32678   3.550  11.609  10.871  0.5603 -0.4928 -0.1466
  983MOL0     H32679   3.434  11.816  10.825 -0.6313 -1.1207  1.1741
  983MOL0     H32680   3.384  11.752  10.660  0.5874  2.7925  0.3047
  983MOL0     H32681   3.293  11.619  10.917 -4.0553  1.0245  1.4759
  983MOL0     H32682   3.246  11.600  10.741  1.1847  1.2426 -1.1436
  983MOL0     H32683   3.144  11.831  10.746  0.3793 -0.0319  0.3305
  983MOL0     H32684   3.073  11.735  10.878  0.9087  2.3153  3.8244
  983MOL0     H32685   3.271  11.401  10.103 -0.1553  1.7991  0.6577
  983MOL0     H32686   3.068  11.361   9.975 -2.5194  0.6236 -0.7260
  983MOL0     H32687   2.557  11.006  10.133  0.3791 -1.9072 -1.7968
  983MOL0     H32688   2.353  10.999   9.991  0.1599  0.3397  0.8990
  983MOL0     H32689   2.823  10.105   9.979  2.7639 -5.3438 -1.8854
  983MOL0     H32690   2.950  10.310  10.002  2.5904 -1.7970  0.6658
  983MOL0     H32691   3.285  10.535   9.780 -0.3826  1.3797 -2.2219
  983MOL0     H32692   3.478  10.679   9.842 -0.2623 -0.4955  0.1493
  983MOL0     H32693   3.443  11.022  10.132 -0.2804 -2.6947  1.3667
  983MOL0     H32694   3.426  11.064   9.960 -1.4675 -2.3268 -0.8372
  983MOL0     H32695   3.666  11.029  10.134 -1.9746 -0.7425 -0.5193
  983MOL0     H32696   3.630  11.180  10.053  1.4229 -0.4278  2.8905
  983MOL0     H32697   3.723  10.922   9.901 -0.7071 -0.5220  0.7051
  983MOL0     H32698   3.837  11.024   9.987  0.4457  0.1800  1.0240
  983MOL0     H32699   3.776  11.064   9.728  3.6228 -0.6352  2.0248
  983MOL0     H32700   3.638  11.157   9.789 -0.7106 -2.3975 -1.8509
  983MOL0     H32701   3.953  11.416   9.850 -3.7874  2.2366 -0.9735
  983MOL0     H32702   3.240  10.934  10.064 -0.1513  1.3824 -1.7470
  983MOL0     H32703   2.934  10.753  10.058 -0.4122  1.2580  0.8838
  983MOL0     H32704   3.037  10.834  10.176  0.6185 -0.1998  0.2745
  983MOL0     H32705   2.978  10.921  10.031  0.5815  0.8327  0.9545
  984MOL0     O32706   3.934   2.506   9.790 -0.9599 -0.2680 -0.1834
  984MOL0     C32707   3.956   2.385   9.813 -0.6927 -0.0105  0.1922
  984MOL0     O32708   3.905   2.279   9.745 -0.0097  0.1581 -0.0833
  984MOL0     C32709   3.818   2.276   9.638  0.2980 -0.4062  0.1209
  984MOL0     C32710   3.824   2.372   9.533  0.4420  0.2176 -0.1720
  984MOL0     C32711   3.739   2.361   9.423 -0.3583  0.0901 -1.1005
  984MOL0     C32712   3.659   2.248   9.408 -0.3213  0.4144  0.2336
  984MOL0     O32713   3.584   2.240   9.294  0.5638 -0.3380 -0.2938
  984MOL0     C32714   3.641   2.156   9.190  0.1130 -0.3260 -0.9429
  984MOL0     C32715   3.531   2.050   9.165  0.7376  0.2243  0.2236
  984MOL0     C32716   3.535   1.953   9.040 -0.0532 -0.1827 -0.4338
  984MOL0     C32717   3.494   2.029   8.917 -0.5288  0.0849  1.4382
  984MOL0     C32718   3.460   1.941   8.795  0.5413  1.2008 -0.8270
  984MOL0     C32719   3.373   2.010   8.689  0.2914  0.6018  0.2043
  984MOL0     C32720   3.409   1.966   8.546 -0.0855 -0.4684  0.2527
  984MOL0     C32721   3.345   2.050   8.424 -0.1489  0.0539 -0.4012
  984MOL0     N32722   3.229   1.976   8.364  0.0380 -0.9092  0.6075
  984MOL0     C32723   3.114   1.932   8.424 -0.1202  0.3782  0.7411
  984MOL0     C32724   3.034   1.886   8.317  0.3757  0.1347 -0.5675
  984MOL0     C32725   2.915   1.797   8.321  0.0813 -1.0796 -0.0997
  984MOL0     C32726   2.807   1.846   8.426 -0.2256 -0.4047 -0.9323
  984MOL0     C32727   2.693   1.743   8.421 -0.1291  0.6418 -0.5098
  984MOL0     C32728   2.599   1.756   8.536  0.5416 -0.0619 -0.7782
  984MOL0     O32729   2.653   1.676   8.649 -0.7147  1.2677  0.7851
  984MOL0     C32730   2.585   1.565   8.703  1.3514 -0.3768 -0.5098
  984MOL0     C32731   2.650   1.447   8.737 -0.0183 -0.2446  0.9381
  984MOL0     C32732   2.580   1.351   8.811 -0.4263  0.2506  0.4129
  984MOL0     C32733   2.450   1.362   8.857  0.6951 -0.3263 -0.9169
  984MOL0     C32734   2.379   1.260   8.930  0.3513  0.2123 -0.4335
  984MOL0     O32735   2.450   1.145   8.970 -0.1170 -0.1238 -0.0691
  984MOL0     C32736   2.416   1.060   9.079  0.2578 -1.5848  0.2475
  984MOL0     C32737   2.336   1.096   9.195  0.5147 -0.8180  0.1518
  984MOL0     C32738   2.318   1.012   9.299  0.4715  1.1772  0.3194
  984MOL0     C32739   2.356   0.879   9.293 -0.3493 -1.2414 -0.0526
  984MOL0     O32740   2.314   0.806   9.400 -0.7797 -0.3043 -0.2033
  984MOL0     C32741   2.347   0.680   9.397 -0.3108 -0.5330  0.2151
  984MOL0     C32742   2.355   0.610   9.537 -0.3158 -0.2950 -0.9663
  984MOL0     C32743   2.214   0.604   9.590  0.0755 -0.4298 -0.3632
  984MOL0     C32744   2.206   0.553   9.737 -0.1363 -0.3003  0.7026
  984MOL0     C32745   2.059   0.585   9.791  1.1594  0.2001  0.4465
  984MOL0     C32746   1.950   0.497   9.721 -0.9659 -0.0862  0.6079
  984MOL0     C32747   1.809   0.523   9.786  0.0569 -0.2919  0.2608
  984MOL0     C32748   1.714   0.437   9.717  0.6572 -0.5476  0.4646
  984MOL0    Cl32749   1.723   0.266   9.784  0.6659 -0.6907 -0.0833
  984MOL0     C32750   2.438   0.841   9.184  0.4163 -0.1538 -0.2599
  984MOL0     C32751   2.475   0.930   9.076  0.2868  0.0838  0.7039
  984MOL0     O32752   2.269   1.285   8.964  0.3811  0.4263 -0.0908
  984MOL0     C32753   2.395   1.489   8.845 -0.9047  0.8329  0.0089
  984MOL0     C32754   2.456   1.585   8.766 -0.7882  0.4864 -0.4269
  984MOL0     N32755   3.108   1.918   8.207  0.1617  0.6139 -0.7995
  984MOL0     N32756   3.211   1.978   8.229  0.8796  0.2372 -0.4892
  984MOL0     C32757   3.660   2.150   9.512 -0.2796  0.2340 -0.3315
  984MOL0     C32758   3.733   2.166   9.628 -0.8901  0.2179  0.7988
  984MOL0     C32759   4.072   2.348   9.906 -0.1758  0.6648  0.5606
  984MOL0     C32760   4.047   2.343  10.041  1.6967  0.0819 -0.0351
  984MOL0     C32761   4.135   2.285  10.129 -0.8159 -1.0849 -0.3219
  984MOL0     C32762   4.257   2.231  10.097  0.8153  1.0261 -0.2921
  984MOL0     O32763   4.316   2.166  10.198 -0.3577 -0.1277 -0.3252
  984MOL0     C32764   4.380   2.047  10.158  0.1685  0.8306 -0.2669
  984MOL0     C32765   4.534   2.052  10.146 -0.3653  0.2756  0.3913
  984MOL0     C32766   4.600   2.160  10.064  0.0080  0.2172  0.0850
  984MOL0     C32767   4.755   2.149  10.062 -0.7102  0.5889  0.0120
  984MOL0     C32768   4.809   2.193  10.198  1.1218  0.1350  0.3274
  984MOL0     C32769   4.849   2.254  10.289 -0.9437  0.7781 -0.6362
  984MOL0     C32770   4.288   2.237   9.963  0.1963  0.3440  1.0275
  984MOL0     C32771   4.202   2.302   9.865  0.5768  0.4089 -0.0298
  984MOL0     C32772   4.252   2.307   9.726  0.2986  0.7141  0.3558
  984MOL0     H32773   3.883   2.462   9.546 -0.3524  0.8783 -1.0095
  984MOL0     H32774   3.751   2.437   9.347 -0.0916 -0.1750 -1.3259
  984MOL0     H32775   3.669   2.215   9.102 -1.5335  1.6596 -0.2120
  984MOL0     H32776   3.730   2.099   9.220  0.2019 -0.5978 -1.7115
  984MOL0     H32777   3.431   2.094   9.165  1.8898  3.1381 -0.4993
  984MOL0     H32778   3.527   1.987   9.254 -1.6650 -0.1835 -0.1160
  984MOL0     H32779   3.456   1.878   9.051  2.0078 -2.4302 -0.2160
  984MOL0     H32780   3.630   1.901   9.033 -0.3069 -1.3481  3.0790
  984MOL0     H32781   3.398   2.074   8.943 -0.5712  0.8862  0.0329
  984MOL0     H32782   3.562   2.114   8.904 -1.4919  0.4675 -2.7610
  984MOL0     H32783   3.553   1.899   8.754 -0.6556 -0.7016 -1.7622
  984MOL0     H32784   3.400   1.853   8.819 -0.9349  2.1959 -0.7538
  984MOL0     H32785   3.266   1.992   8.705  0.4191 -0.6189 -0.2454
  984MOL0     H32786   3.386   2.118   8.698 -0.3032  0.8399 -1.3706
  984MOL0     H32787   3.394   1.861   8.521  0.7224 -0.5901  0.2211
  984MOL0     H32788   3.518   1.978   8.552 -0.2783  0.7261  3.6852
  984MOL0     H32789   3.303   2.141   8.469  4.7028  2.5183 -0.2439
  984MOL0     H32790   3.423   2.068   8.350  0.0315 -3.3240 -1.1816
  984MOL0     H32791   3.095   1.917   8.530  1.6497 -0.5638  0.9592
  984MOL0     H32792   2.865   1.805   8.224  1.0931  1.2777 -0.5137
  984MOL0     H32793   2.945   1.693   8.337 -0.3832 -1.3491 -0.9313
  984MOL0     H32794   2.850   1.857   8.526 -1.5516 -0.6558 -0.3013
  984MOL0     H32795   2.764   1.939   8.388  0.6701  0.2053 -0.4814
  984MOL0     H32796   2.738   1.643   8.413 -1.3021  0.1946 -2.1716
  984MOL0     H32797   2.629   1.757   8.333  1.6754 -2.3067 -2.4714
  984MOL0     H32798   2.504   1.709   8.508  1.1757 -3.2949  1.7630
  984MOL0     H32799   2.582   1.861   8.559  0.6476 -0.2743  0.3753
  984MOL0     H32800   2.752   1.429   8.704 -0.1228 -2.1360  1.4959
  984MOL0     H32801   2.628   1.254   8.824 -0.6509  0.3937  2.5739
  984MOL0     H32802   2.298   1.198   9.200  1.7207 -0.2566 -1.1782
  984MOL0     H32803   2.265   1.042   9.389  0.1681 -2.9874  1.7383
  984MOL0     H32804   2.266   0.636   9.339  1.0993 -2.5279 -0.3599
  984MOL0     H32805   2.446   0.665   9.353 -0.0535  0.6671  0.3546
  984MOL0     H32806   2.398   0.510   9.522  2.1004  0.5051 -0.0053
  984MOL0     H32807   2.419   0.661   9.611 -0.8936 -1.8949  0.7193
  984MOL0     H32808   2.166   0.701   9.572 -1.0007 -0.8875 -0.0664
  984MOL0     H32809   2.164   0.530   9.528  0.5405 -1.8586  0.9096
  984MOL0     H32810   2.270   0.606   9.808 -0.7967 -2.2407  2.8709
  984MOL0     H32811   2.236   0.448   9.739 -0.6780 -0.4815 -0.0214
  984MOL0     H32812   2.026   0.689   9.789  2.5335  0.6503  0.5786
  984MOL0     H32813   2.072   0.557   9.896  1.0926 -0.7741  0.2039
  984MOL0     H32814   1.956   0.517   9.614 -0.6687 -4.7353 -0.4368
  984MOL0     H32815   1.995   0.399   9.734 -0.0110  0.2005 -0.4088
  984MOL0     H32816   1.795   0.631   9.778  1.5815  0.1298  2.5306
  984MOL0     H32817   1.804   0.494   9.891  2.2345  0.2050  0.5329
  984MOL0     H32818   1.608   0.458   9.732  0.0810 -2.8893  0.0834
  984MOL0     H32819   1.738   0.442   9.611  1.1072  0.1150  0.5953
  984MOL0     H32820   2.479   0.741   9.180 -0.1206 -0.4872  1.6820
  984MOL0     H32821   2.532   0.894   8.992 -1.6311 -0.8288 -0.2787
  984MOL0     H32822   2.300   1.521   8.887  0.7924  3.0589  2.4416
  984MOL0     H32823   2.415   1.685   8.772 -0.3863  0.5767  2.1258
  984MOL0     H32824   3.590   2.067   9.509  1.1937 -1.0580 -0.3262
  984MOL0     H32825   3.729   2.088   9.703 -1.9015 -0.0773  0.4478
  984MOL0     H32826   3.953   2.382  10.079  0.6578  0.3327 -2.6019
  984MOL0     H32827   4.107   2.284  10.233  1.4121 -0.8658  0.3414
  984MOL0     H32828   4.343   2.006  10.063  0.4673  1.3093 -0.5937
  984MOL0     H32829   4.360   1.985  10.246 -0.2883  3.2266  1.4173
  984MOL0     H32830   4.566   1.955  10.108 -0.3388  1.3315 -2.5171
  984MOL0     H32831   4.572   2.063  10.248  0.1858  0.3962  0.1716
  984MOL0     H32832   4.575   2.263  10.091 -1.9222 -0.3241  0.5721
  984MOL0     H32833   4.567   2.148   9.960 -2.2991 -0.3306  0.8081
  984MOL0     H32834   4.798   2.053  10.032  4.0309  3.4848 -4.0189
  984MOL0     H32835   4.786   2.212   9.978 -3.4976 -0.4184 -1.9149
  984MOL0     H32836   4.876   2.304  10.380  1.9384  2.9152 -2.5209
  984MOL0     H32837   4.381   2.202   9.921 -0.5458 -2.0146  1.2171
  984MOL0     H32838   4.221   2.217   9.671  2.3230 -0.0590  0.4009
  984MOL0     H32839   4.215   2.399   9.680  0.7309  2.0939  2.6569
  984MOL0     H32840   4.361   2.299   9.722  0.3326  1.0112  0.6478
  985MOL0     O32841   3.883   1.622   1.880 -0.4596 -0.3387  0.1626
  985MOL0     C32842   3.970   1.697   1.919  0.0650 -0.0496 -0.3163
  985MOL0     O32843   4.068   1.659   2.005 -0.1223 -0.1913  0.4682
  985MOL0     C32844   4.096   1.529   2.021  0.7029  0.0921 -0.0900
  985MOL0     C32845   4.105   1.424   1.927  0.5077  0.3225 -1.0773
  985MOL0     C32846   4.146   1.292   1.958  0.4694 -0.5664 -0.4232
  985MOL0     C32847   4.170   1.263   2.096 -0.4128  0.5611  0.4346
  985MOL0     O32848   4.202   1.136   2.143  0.0845  0.1048  0.0671
  985MOL0     C32849   4.237   1.027   2.060 -0.5241  0.2743  0.2530
  985MOL0     C32850   4.113   0.965   1.979 -0.7766  0.2643  0.2736
  985MOL0     C32851   4.147   0.885   1.858  1.1550  0.5533  0.0365
  985MOL0     C32852   4.023   0.829   1.785  0.6598 -0.5626 -0.1726
  985MOL0     C32853   4.060   0.709   1.692  1.0764 -0.8828 -0.5466
  985MOL0     C32854   4.127   0.757   1.559 -0.3487 -0.5741  0.1251
  985MOL0     C32855   4.155   0.634   1.472  0.5803 -0.9921  0.6826
  985MOL0     C32856   4.293   0.568   1.504  0.9415  0.1353 -0.3051
  985MOL0     N32857   4.322   0.493   1.385 -0.9984  0.1904  0.8917
  985MOL0     C32858   4.229   0.411   1.324 -0.2764  0.8625  0.6411
  985MOL0     C32859   4.298   0.347   1.228 -0.0897  0.3493 -0.1121
  985MOL0     C32860   4.249   0.238   1.146 -0.0204  0.2456  0.6708
  985MOL0     C32861   4.343   0.121   1.146  0.0420 -0.0157 -0.4694
  985MOL0     C32862   4.383   0.075   1.292 -0.3962  0.2324  0.4824
  985MOL0     C32863   4.270  -0.013   1.344  1.1148  0.4186 -0.1246
  985MOL0     O32864   4.149   0.060   1.373  0.6265  0.0812  0.4341
  985MOL0     C32865   4.044  -0.003   1.443  0.0806  1.4670 -0.3466
  985MOL0     C32866   4.045  -0.126   1.510 -0.1922 -0.6586 -0.6832
  985MOL0     C32867   3.943  -0.174   1.585 -0.5142 -0.2262 -0.3405
  985MOL0     C32868   3.830  -0.106   1.604  1.9556  0.0669  0.1282
  985MOL0     C32869   3.720  -0.164   1.692 -0.2161 -0.2979  0.8752
  985MOL0     O32870   3.730  -0.302   1.727  0.5094  0.5239 -0.1213
  985MOL0     C32871   3.621  -0.349   1.802  0.3614 -0.3651  0.4528
  985MOL0     C32872   3.652  -0.408   1.927 -0.1813  0.0066 -0.4073
  985MOL0     C32873   3.554  -0.485   1.997  0.1028 -0.0663 -0.3228
  985MOL0     C32874   3.421  -0.499   1.945  0.5368 -0.7787  0.4055
  985MOL0     O32875   3.314  -0.537   2.026 -0.4097 -0.4451 -0.3803
  985MOL0     C32876   3.340  -0.606   2.147 -0.9383 -0.3326  0.2107
  985MOL0     C32877   3.199  -0.647   2.197 -0.9769 -0.1505 -0.0067
  985MOL0     C32878   3.138  -0.768   2.135 -0.2632  0.0915  0.0294
  985MOL0     C32879   3.000  -0.805   2.200  0.5791 -0.5746  0.7418
  985MOL0     C32880   2.926  -0.917   2.128  0.2684  0.5359  0.2012
  985MOL0     C32881   2.800  -0.938   2.212 -1.3063 -0.5401 -0.5576
  985MOL0     C32882   2.719  -1.051   2.155  0.6022  0.3851  0.7179
  985MOL0     C32883   2.595  -1.066   2.233 -0.2323  1.4492  0.1986
  985MOL0    Cl32884   2.620  -1.143   2.399 -0.3521 -0.2510 -0.3115
  985MOL0     C32885   3.394  -0.438   1.819  0.6411 -0.2204  0.1187
  985MOL0     C32886   3.489  -0.355   1.755  0.1986  0.3166 -0.7425
  985MOL0     O32887   3.617  -0.098   1.708  0.6482  0.1421 -0.6331
  985MOL0     C32888   3.824   0.022   1.535  0.0396  0.0518 -0.4993
  985MOL0     C32889   3.927   0.072   1.458 -0.1112  1.2149 -0.1762
  985MOL0     N32890   4.434   0.383   1.229  0.0987 -1.0285 -0.4012
  985MOL0     N32891   4.450   0.466   1.327  1.0664 -0.0738 -1.1702
  985MOL0     C32892   4.145   1.363   2.197  1.1817 -0.0289 -0.3953
  985MOL0     C32893   4.121   1.501   2.158  0.4676  0.1473  0.5760
  985MOL0     C32894   3.959   1.832   1.899  0.6605  0.0300 -0.2109
  985MOL0     C32895   4.033   1.927   1.975  0.6526 -0.9509  0.0559
  985MOL0     C32896   4.004   2.064   1.975 -0.9413  0.3321 -0.1848
  985MOL0     C32897   3.920   2.123   1.877  0.2345 -0.0283 -0.5680
  985MOL0     O32898   3.894   2.261   1.867  0.0023  0.0695  0.1765
  985MOL0     C32899   3.975   2.361   1.926  0.8999 -0.3152  0.0992
  985MOL0     C32900   3.940   2.396   2.072 -0.9316 -0.0419 -0.4684
  985MOL0     C32901   3.802   2.465   2.095  0.5427 -0.7344 -0.1485
  985MOL0     C32902   3.757   2.566   1.990 -0.1370  0.2327  0.5356
  985MOL0     C32903   3.841   2.685   2.005  0.9438 -0.3373  0.2194
  985MOL0     C32904   3.907   2.789   2.025  0.1868 -0.4583  0.6817
  985MOL0     C32905   3.856   2.034   1.788  0.0829  0.1680 -0.3063
  985MOL0     C32906   3.874   1.893   1.790 -0.1337  0.2586 -0.3319
  985MOL0     C32907   3.797   1.816   1.684 -0.6993  1.4092  0.0491
  985MOL0     H32908   4.082   1.453   1.825  1.0816  0.3335 -1.2038
  985MOL0     H32909   4.159   1.221   1.877 -0.3128  1.2045 -2.1839
  985MOL0     H32910   4.325   1.045   1.996 -0.6789  1.1246  0.2606
  985MOL0     H32911   4.268   0.956   2.137  2.3796  1.7383  0.5678
  985MOL0     H32912   4.053   1.050   1.945  0.3467  1.1232  0.3550
  985MOL0     H32913   4.063   0.896   2.047  1.2420 -0.4074  1.1496
  985MOL0     H32914   4.203   0.798   1.893  1.2808  0.6433  0.0578
  985MOL0     H32915   4.205   0.949   1.791  0.2943  0.9182 -0.3799
  985MOL0     H32916   3.944   0.802   1.856  2.2669  0.2375  2.0122
  985MOL0     H32917   3.980   0.908   1.723  2.8608 -0.4798 -1.7097
  985MOL0     H32918   4.119   0.638   1.751  0.4798 -2.6017 -1.9495
  985MOL0     H32919   3.968   0.660   1.658  0.6998 -0.2324 -0.5084
  985MOL0     H32920   4.063   0.833   1.515 -0.5250 -0.4213  0.6314
  985MOL0     H32921   4.219   0.810   1.583 -2.0012  2.5579 -0.0038
  985MOL0     H32922   4.148   0.669   1.369  0.1677 -1.6756  0.4743
  985MOL0     H32923   4.081   0.559   1.502  1.2205  0.1093  5.9586
  985MOL0     H32924   4.374   0.636   1.530  0.4961 -0.1860  2.0860
  985MOL0     H32925   4.286   0.508   1.595  2.3297 -0.0469 -0.3085
  985MOL0     H32926   4.122   0.401   1.342 -0.6087 -0.3827 -1.7112
  985MOL0     H32927   4.147   0.212   1.178  0.1833  0.0693  1.1858
  985MOL0     H32928   4.243   0.269   1.041  1.9196  0.7591  0.6878
  985MOL0     H32929   4.285   0.043   1.095 -0.6512 -1.0692  1.7820
  985MOL0     H32930   4.437   0.149   1.098  0.9067  2.9836  2.5898
  985MOL0     H32931   4.399   0.157   1.362 -1.7863  1.6865 -0.8302
  985MOL0     H32932   4.473   0.014   1.277 -0.0687 -0.3632  4.0452
  985MOL0     H32933   4.306  -0.072   1.428 -2.4451 -2.7648 -0.5535
  985MOL0     H32934   4.249  -0.085   1.264 -0.6065  3.7404 -2.9412
  985MOL0     H32935   4.133  -0.189   1.499  2.2440  1.8535  2.3124
  985MOL0     H32936   3.955  -0.265   1.643 -1.1634  1.4069  2.5623
  985MOL0     H32937   3.756  -0.395   1.955 -0.5411  3.2101 -0.1973
  985MOL0     H32938   3.576  -0.521   2.097 -0.8394  1.3910  0.4563
  985MOL0     H32939   3.398  -0.694   2.119  1.4234  1.3285 -0.4747
  985MOL0     H32940   3.403  -0.552   2.218 -0.2932 -3.9229  2.6341
  985MOL0     H32941   3.215  -0.663   2.304  2.2503 -0.7408 -0.4756
  985MOL0     H32942   3.136  -0.559   2.185  0.5056  0.6728 -2.7217
  985MOL0     H32943   3.128  -0.745   2.029  0.7623  0.4191 -0.0112
  985MOL0     H32944   3.219  -0.841   2.149 -0.7931 -0.6741 -0.8243
  985MOL0     H32945   2.937  -0.717   2.187 -2.2000 -2.4576  0.5313
  985MOL0     H32946   3.011  -0.835   2.305  0.9134 -1.6203  0.4239
  985MOL0     H32947   2.980  -1.009   2.104  0.0098 -0.0020  1.5959
  985MOL0     H32948   2.887  -0.886   2.031  0.5259  2.6768  0.7206
  985MOL0     H32949   2.837  -0.970   2.310 -0.1172  0.6819 -0.5863
  985MOL0     H32950   2.734  -0.851   2.212  1.2416  1.5144  0.0960
  985MOL0     H32951   2.762  -1.152   2.155 -2.8744 -1.6443 -5.9067
  985MOL0     H32952   2.705  -1.027   2.050  2.0694  0.5566  0.5313
  985MOL0     H32953   2.552  -0.966   2.246 -2.5538  0.5597 -0.1380
  985MOL0     H32954   2.526  -1.125   2.171  1.3713 -0.3063 -0.0128
  985MOL0     H32955   3.292  -0.435   1.782  0.4266 -4.8645 -0.2645
  985MOL0     H32956   3.447  -0.297   1.674 -1.5094  0.5059  0.2482
  985MOL0     H32957   3.736   0.085   1.542 -1.8934 -2.3256 -1.6107
  985MOL0     H32958   3.909   0.158   1.395  1.4792  0.1586 -2.2020
  985MOL0     H32959   4.176   1.340   2.298  0.1224 -0.3678 -0.1362
  985MOL0     H32960   4.114   1.570   2.242  1.7313  0.4165  0.4848
  985MOL0     H32961   4.100   1.888   2.051  2.3952 -2.2585 -2.0256
  985MOL0     H32962   4.056   2.136   2.038  0.3922  1.5903 -2.5477
  985MOL0     H32963   3.967   2.445   1.856 -1.6291 -1.7432 -1.5160
  985MOL0     H32964   4.081   2.338   1.929  1.1278  0.7999  1.3269
  985MOL0     H32965   4.024   2.456   2.107  0.1768 -1.6605 -0.2620
  985MOL0     H32966   3.941   2.308   2.136  0.6031  1.8242  2.2690
  985MOL0     H32967   3.805   2.522   2.188 -1.4923 -0.0745 -0.4280
  985MOL0     H32968   3.728   2.385   2.106  2.7727 -2.6064  2.6398
  985MOL0     H32969   3.766   2.534   1.886  3.7571  0.1337  0.7535
  985MOL0     H32970   3.653   2.590   2.014  0.5532  2.0342  2.0234
  985MOL0     H32971   3.981   2.868   2.028 -2.0416  1.8090 -0.1488
  985MOL0     H32972   3.792   2.074   1.711  0.4392  5.3780  1.7187
  985MOL0     H32973   3.735   1.735   1.722  1.7103 -0.6367 -0.0396
  985MOL0     H32974   3.739   1.881   1.618 -1.7100  1.5086  1.0142
  985MOL0     H32975   3.866   1.761   1.619 -1.3094 -1.1527  1.4692
  986MOL0     O32976  10.860  11.246   5.551  0.3506  0.6905 -0.9270
  986MOL0     C32977  10.885  11.219   5.668 -0.1395  0.1188 -0.1239
  986MOL0     O32978  11.001  11.250   5.739  0.5955  0.7169 -0.0726
  986MOL0     C32979  11.056  11.379   5.714 -0.2517  0.9639 -0.3839
  986MOL0     C32980  11.004  11.485   5.633 -0.1391 -0.0525  0.1308
  986MOL0     C32981  11.070  11.607   5.627 -0.0850 -0.2178  0.8250
  986MOL0     C32982  11.184  11.640   5.695  0.2567  0.0702 -0.7897
  986MOL0     O32983  11.248  11.759   5.696 -0.2493 -0.3315 -0.2447
  986MOL0     C32984  11.281  11.823   5.822  0.8347  0.6956  0.6741
  986MOL0     C32985  11.292  11.975   5.803 -0.7026 -0.4129 -0.4809
  986MOL0     C32986  11.153  12.035   5.833  0.5602 -0.1567  0.4981
  986MOL0     C32987  11.145  12.176   5.791 -0.3989 -0.2163  0.3353
  986MOL0     C32988  11.001  12.244   5.815  0.3267  0.3915 -0.1831
  986MOL0     C32989  10.918  12.234   5.689  0.2606  0.8784  0.0221
  986MOL0     C32990  10.775  12.277   5.724 -0.0063 -0.0752 -0.3085
  986MOL0     C32991  10.710  12.162   5.808  0.5607  0.0011  0.3455
  986MOL0     N32992  10.564  12.192   5.829 -0.3368  0.1835  0.3850
  986MOL0     C32993  10.467  12.160   5.740 -0.6231 -0.5020  0.4335
  986MOL0     C32994  10.352  12.208   5.803  0.5769 -0.1189  0.1018
  986MOL0     C32995  10.211  12.189   5.757  0.2564  0.5230  0.3230
  986MOL0     C32996  10.157  12.044   5.779 -0.2517 -0.2869  0.1525
  986MOL0     C32997   9.999  12.038   5.754  0.1981 -0.0387 -0.0011
  986MOL0     C32998   9.929  12.161   5.805 -0.8072  0.0814  0.9474
  986MOL0     O32999   9.785  12.166   5.807 -0.2014 -0.0444  0.5181
  986MOL0     C33000   9.728  12.290   5.856 -1.0115  0.3077  0.1816
  986MOL0     C33001   9.797  12.416   5.865  1.0807 -0.6813  0.0567
  986MOL0     C33002   9.722  12.534   5.896 -0.0986 -0.3484 -0.2310
  986MOL0     C33003   9.587  12.531   5.917 -0.9682 -0.3229 -0.2130
  986MOL0     C33004   9.521  12.663   5.936 -0.7832 -0.0021 -0.8865
  986MOL0     O33005   9.582  12.774   5.887  0.4765 -0.2518  0.0152
  986MOL0     C33006   9.521  12.895   5.902  1.0797 -0.6353 -0.0025
  986MOL0     C33007   9.455  12.950   5.790 -0.3506 -0.1079 -0.1206
  986MOL0     C33008   9.395  13.073   5.793  0.6372  0.6162 -0.1403
  986MOL0     C33009   9.396  13.146   5.914 -0.6852  0.1513 -0.5578
  986MOL0     O33010   9.327  13.265   5.929 -0.2842 -0.4315  1.4288
  986MOL0     C33011   9.272  13.325   5.815 -0.1300 -0.2212  0.6781
  986MOL0     C33012   9.169  13.439   5.867 -0.3633  0.0669 -0.0091
  986MOL0     C33013   9.044  13.386   5.952 -0.0447 -0.2862  0.4559
  986MOL0     C33014   8.926  13.474   5.892 -0.3239 -1.2586  0.4310
  986MOL0     C33015   8.799  13.444   5.975 -0.0802 -0.0364  0.1583
  986MOL0     C33016   8.704  13.559   5.951 -0.8698 -0.3048 -0.1664
  986MOL0     C33017   8.574  13.522   6.017  0.3618 -1.1936 -0.2231
  986MOL0     C33018   8.460  13.619   5.988  0.7852  0.3650 -0.2034
  986MOL0    Cl33019   8.491  13.789   6.046 -0.0646 -0.3377  0.3389
  986MOL0     C33020   9.438  13.080   6.034  0.3358  1.1345 -0.6048
  986MOL0     C33021   9.500  12.952   6.031  0.0754 -0.1008  0.0056
  986MOL0     O33022   9.404  12.650   5.979 -0.6339  0.1725 -0.1804
  986MOL0     C33023   9.527  12.410   5.925  0.2153  1.3682  0.2826
  986MOL0     C33024   9.601  12.291   5.893 -0.1576  0.4691 -0.9944
  986MOL0     N33025  10.386  12.271   5.920 -0.0863  0.2880 -0.5849
  986MOL0     N33026  10.522  12.256   5.934  0.6738 -0.0052  0.7652
  986MOL0     C33027  11.245  11.523   5.763  0.7611  0.8050  0.2792
  986MOL0     C33028  11.178  11.397   5.775 -0.9704 -0.0084 -0.5048
  986MOL0     C33029  10.804  11.118   5.738  0.1644 -0.2243 -0.4079
  986MOL0     C33030  10.867  11.038   5.844  0.3936  0.4708  0.5077
  986MOL0     C33031  10.792  10.973   5.933 -0.1665  0.0508  0.5982
  986MOL0     C33032  10.657  10.949   5.924  0.5055 -1.1683 -1.0478
  986MOL0     O33033  10.592  10.856   6.008 -0.1026 -0.0997 -1.1698
  986MOL0     C33034  10.451  10.874   6.011 -0.1885  0.3455 -0.7819
  986MOL0     C33035  10.374  10.761   5.934 -0.3195 -0.6762 -0.9755
  986MOL0     C33036  10.399  10.618   5.984 -0.4497  0.8559 -0.1804
  986MOL0     C33037  10.366  10.597   6.131  0.9347  0.4586 -0.0723
  986MOL0     C33038  10.224  10.638   6.155 -0.0168 -0.1533 -0.3373
  986MOL0     C33039  10.112  10.675   6.184  0.5471 -0.1862 -1.0578
  986MOL0     C33040  10.599  11.006   5.809 -0.2097  0.5228  0.3419
  986MOL0     C33041  10.669  11.091   5.725 -0.2154 -0.1754  0.6111
  986MOL0     C33042  10.591  11.164   5.611 -0.1001  0.5431  0.3219
  986MOL0     H33043  10.916  11.466   5.572 -0.1066 -1.4284  0.4837
  986MOL0     H33044  11.042  11.682   5.553 -0.4003  0.2630  1.4168
  986MOL0     H33045  11.210  11.802   5.903  2.2637 -0.5349  1.6680
  986MOL0     H33046  11.381  11.787   5.848  0.4956 -0.9777 -0.2328
  986MOL0     H33047  11.332  11.992   5.703 -0.5830 -1.8510 -0.7102
  986MOL0     H33048  11.365  12.012   5.875 -3.5782 -0.0184  2.4435
  986MOL0     H33049  11.120  12.029   5.937  0.9881  0.4555  0.6723
  986MOL0     H33050  11.085  11.985   5.762 -0.1562  1.1747  0.2023
  986MOL0     H33051  11.224  12.224   5.850 -1.8321  1.2793  1.1420
  986MOL0     H33052  11.169  12.182   5.685 -0.3725  0.6455  0.3776
  986MOL0     H33053  10.954  12.197   5.902 -1.3410  0.8293 -0.8234
  986MOL0     H33054  11.012  12.350   5.838 -0.5617  0.1833  1.3164
  986MOL0     H33055  10.963  12.292   5.609  2.9266 -2.4796 -1.1436
  986MOL0     H33056  10.919  12.130   5.655 -1.0628  1.4875 -2.0615
  986MOL0     H33057  10.710  12.298   5.639 -0.6087  1.1926  0.4312
  986MOL0     H33058  10.783  12.371   5.780 -0.4718  2.1218 -3.6593
  986MOL0     H33059  10.728  12.064   5.765  0.7255  0.7610 -1.4216
  986MOL0     H33060  10.767  12.155   5.901  2.3822 -0.3666 -0.7481
  986MOL0     H33061  10.476  12.108   5.645 -1.6790 -2.7662  1.4902
  986MOL0     H33062  10.164  12.264   5.822 -1.3471 -0.8719  0.8527
  986MOL0     H33063  10.215  12.214   5.651  0.2014  0.4873  0.3126
  986MOL0     H33064  10.189  11.972   5.703 -1.2350 -2.0888  1.3722
  986MOL0     H33065  10.188  12.018   5.880  3.0480  2.8727  0.1622
  986MOL0     H33066   9.959  11.949   5.805  0.4546  1.1468  2.4291
  986MOL0     H33067   9.962  12.019   5.653 -0.7158 -0.1267  0.3343
  986MOL0     H33068   9.955  12.244   5.739 -0.2768 -1.4119 -0.7949
  986MOL0     H33069   9.966  12.179   5.907 -0.8087 -2.6298  1.5062
  986MOL0     H33070   9.895  12.426   5.820  0.1539 -0.9989 -2.1580
  986MOL0     H33071   9.768  12.631   5.882  0.2598 -0.7487 -2.2386
  986MOL0     H33072   9.467  12.883   5.705 -1.7947 -1.5999  0.8111
  986MOL0     H33073   9.360  13.114   5.699 -1.5909 -0.7651  0.0156
  986MOL0     H33074   9.358  13.371   5.766 -0.1423 -0.6413  0.2526
  986MOL0     H33075   9.218  13.253   5.752 -0.2389  1.4138 -1.2168
  986MOL0     H33076   9.234  13.503   5.926  0.0100  1.4970 -1.8848
  986MOL0     H33077   9.133  13.488   5.776 -0.1952 -0.1200 -0.1801
  986MOL0     H33078   9.026  13.279   5.939  0.3334 -0.3064  0.0467
  986MOL0     H33079   9.069  13.402   6.057  2.5294  3.7515 -0.5443
  986MOL0     H33080   8.908  13.447   5.787  0.1016  2.3356 -0.6744
  986MOL0     H33081   8.950  13.580   5.885 -0.0939 -1.3761 -1.0295
  986MOL0     H33082   8.809  13.444   6.084 -2.1501 -1.2375  0.4086
  986MOL0     H33083   8.758  13.348   5.941  3.2268 -0.3575 -3.5997
  986MOL0     H33084   8.749  13.651   5.991 -1.2699  0.3659 -1.2200
  986MOL0     H33085   8.698  13.577   5.843  4.1020  1.5440 -0.4372
  986MOL0     H33086   8.604  13.537   6.121  0.6310 -0.7170 -0.3654
  986MOL0     H33087   8.539  13.419   6.009 -1.7590 -0.5963  0.6757
  986MOL0     H33088   8.441  13.630   5.881  0.4741  0.5708 -0.1265
  986MOL0     H33089   8.371  13.584   6.041  2.0950 -0.1642  1.7569
  986MOL0     H33090   9.416  13.126   6.130 -1.9451 -2.0063  0.5295
  986MOL0     H33091   9.543  12.918   6.125 -0.9989  0.6824  0.7991
  986MOL0     H33092   9.423  12.387   5.944  0.6847 -1.1697  0.1168
  986MOL0     H33093   9.548  12.196   5.892  2.9974 -1.5673  1.6079
  986MOL0     H33094  11.337  11.549   5.815  1.5826 -0.1356 -0.6673
  986MOL0     H33095  11.226  11.325   5.841  0.4663  0.9097 -0.5067
  986MOL0     H33096  10.973  11.036   5.867  0.4702  0.3461  0.1527
  986MOL0     H33097  10.842  10.917   6.012 -0.0719 -0.1386  0.4045
  986MOL0     H33098  10.412  10.972   5.981 -0.6124  0.9899  1.7084
  986MOL0     H33099  10.427  10.875   6.117  0.9664 -2.2423 -0.4186
  986MOL0     H33100  10.407  10.774   5.831  1.5363 -1.6976 -0.5562
  986MOL0     H33101  10.267  10.782   5.939 -0.7869 -2.9719  1.8894
  986MOL0     H33102  10.502  10.593   5.957 -1.2042  0.0738 -2.6155
  986MOL0     H33103  10.338  10.545   5.929 -0.1839 -0.9272  1.7410
  986MOL0     H33104  10.373  10.492   6.159 -2.0163  0.7049  2.0744
  986MOL0     H33105  10.440  10.657   6.186  1.1316 -0.8663  1.1838
  986MOL0     H33106  10.015  10.702   6.221  2.1317  4.3320  0.5209
  986MOL0     H33107  10.495  10.992   5.779 -0.1074  0.1246  0.1723
  986MOL0     H33108  10.483  11.146   5.618 -0.1275  0.8918  0.8974
  986MOL0     H33109  10.616  11.269   5.598 -1.9113  1.1629  1.4093
  986MOL0     H33110  10.616  11.101   5.525 -0.6098  1.1372 -0.2746
  987MOL0     O33111  10.569   1.099   3.487  0.0482 -0.6171  0.2351
  987MOL0     C33112  10.492   1.067   3.395  0.1739  0.4910 -0.1075
  987MOL0     O33113  10.424   0.948   3.380 -0.1817  0.7875  0.3958
  987MOL0     C33114  10.411   0.882   3.493  0.7644 -0.0563 -0.3301
  987MOL0     C33115  10.506   0.781   3.522  0.0125  0.2276  0.1206
  987MOL0     C33116  10.490   0.678   3.618 -0.1006  0.5569  0.2603
  987MOL0     C33117  10.365   0.687   3.695  0.5845 -0.7021 -0.3337
  987MOL0     O33118  10.329   0.591   3.795 -0.1786 -0.0111 -0.1893
  987MOL0     C33119  10.411   0.466   3.811 -0.3398 -0.5886 -0.3476
  987MOL0     C33120  10.332   0.363   3.895  0.0977  0.1098  0.5485
  987MOL0     C33121  10.326   0.396   4.049  1.0001  0.3430  0.5775
  987MOL0     C33122  10.242   0.298   4.128  0.2887  0.7361  0.7529
  987MOL0     C33123  10.227   0.353   4.271  0.0145 -0.1400 -0.7161
  987MOL0     C33124  10.171   0.243   4.362 -0.2038 -0.1333  0.1483
  987MOL0     C33125  10.160   0.291   4.514  0.6295  0.0445 -0.0086
  987MOL0     C33126  10.277   0.250   4.598  0.1630  0.4662 -1.8206
  987MOL0     N33127  10.254   0.287   4.746  0.4957  0.8256  0.1463
  987MOL0     C33128  10.260   0.415   4.800 -0.3957  0.8942 -0.8072
  987MOL0     C33129  10.232   0.391   4.930  0.3819  0.0552 -0.7967
  987MOL0     C33130  10.218   0.480   5.046 -0.6988 -0.7767  0.2456
  987MOL0     C33131  10.321   0.450   5.152 -1.0843 -0.2673  0.4991
  987MOL0     C33132  10.281   0.408   5.297 -0.2316 -0.1626 -0.6332
  987MOL0     C33133  10.229   0.515   5.397  0.3334  0.0748  0.7830
  987MOL0     O33134  10.341   0.614   5.419  0.1396  0.3936  0.2994
  987MOL0     C33135  10.341   0.729   5.351 -0.3520  0.3702 -0.5547
  987MOL0     C33136  10.469   0.774   5.330 -0.9866  0.7316 -0.7890
  987MOL0     C33137  10.498   0.869   5.241 -0.1523 -0.0767  0.0984
  987MOL0     C33138  10.400   0.923   5.151  0.1745 -0.8095  0.1628
  987MOL0     C33139  10.429   1.031   5.054  0.4649 -0.1461 -0.1728
  987MOL0     O33140  10.547   1.100   5.056 -0.1936 -0.2440  0.6534
  987MOL0     C33141  10.569   1.236   5.018  0.2360 -0.2191 -0.2798
  987MOL0     C33142  10.464   1.328   4.995  0.2159 -1.2286 -0.7328
  987MOL0     C33143  10.498   1.455   4.932 -0.0861  0.3064  1.2115
  987MOL0     C33144  10.631   1.482   4.888  0.5469  0.2556  0.2687
  987MOL0     O33145  10.659   1.589   4.805  0.2208 -1.3261  1.3298
  987MOL0     C33146  10.613   1.728   4.835 -1.2261  0.3945  0.7076
  987MOL0     C33147  10.658   1.785   4.973  0.2601  0.2290 -0.0871
  987MOL0     C33148  10.564   1.765   5.088  0.3977 -0.4569  0.2084
  987MOL0     C33149  10.596   1.877   5.194  0.3226 -0.5056 -0.1941
  987MOL0     C33150  10.478   1.880   5.295 -0.4265 -0.7768 -0.1461
  987MOL0     C33151  10.498   1.995   5.398 -0.3471 -0.5579  0.0234
  987MOL0     C33152  10.417   1.993   5.530  0.3429  0.9249  0.5047
  987MOL0     C33153  10.473   2.092   5.632  0.4848 -0.6640 -0.6714
  987MOL0    Cl33154  10.578   1.994   5.736 -0.1689 -0.1109 -0.0027
  987MOL0     C33155  10.732   1.387   4.922  0.1497 -0.0530 -0.3859
  987MOL0     C33156  10.706   1.272   4.993  0.1964  0.5460 -0.7713
  987MOL0     O33157  10.332   1.068   4.984 -0.2752 -0.5637  0.3374
  987MOL0     C33158  10.265   0.880   5.165  0.5800 -0.2251 -0.4547
  987MOL0     C33159  10.245   0.771   5.258 -0.0662 -0.5125 -0.3909
  987MOL0     N33160  10.219   0.257   4.950 -0.7386 -0.7114  0.5606
  987MOL0     N33161  10.235   0.197   4.837  0.8908  1.3864 -0.1408
  987MOL0     C33162  10.275   0.792   3.670 -0.1009  0.3038 -0.1503
  987MOL0     C33163  10.294   0.887   3.575 -0.4506 -0.4162  0.0388
  987MOL0     C33164  10.462   1.156   3.286  1.3267 -0.0223  0.8910
  987MOL0     C33165  10.552   1.173   3.180  0.0922  0.3269 -0.3227
  987MOL0     C33166  10.516   1.244   3.067 -0.7212 -0.6064 -0.1409
  987MOL0     C33167  10.390   1.306   3.050 -0.2970 -0.4765 -0.1609
  987MOL0     O33168  10.341   1.377   2.942 -0.2297  0.2708  0.2667
  987MOL0     C33169  10.430   1.389   2.825  0.8378 -0.0470 -0.3033
  987MOL0     C33170  10.537   1.503   2.833  0.5585 -0.3150 -0.1680
  987MOL0     C33171  10.456   1.632   2.792 -0.3968  0.3953 -0.3225
  987MOL0     C33172  10.406   1.713   2.914 -0.4229  0.5919 -0.2584
  987MOL0     C33173  10.517   1.779   2.983  0.7473  0.8698 -0.4204
  987MOL0     C33174  10.597   1.857   3.035  0.4699  0.0809 -0.4484
  987MOL0     C33175  10.291   1.292   3.153 -0.0810  1.1980  0.7384
  987MOL0     C33176  10.334   1.219   3.271 -0.7326  0.3422 -0.2835
  987MOL0     C33177  10.222   1.206   3.381 -0.0790  0.4080  0.8028
  987MOL0     H33178  10.590   0.761   3.456 -0.0237  2.3768 -0.6839
  987MOL0     H33179  10.560   0.596   3.610 -1.5866 -0.7470  0.1460
  987MOL0     H33180  10.424   0.423   3.712 -1.5008  1.3154 -1.3926
  987MOL0     H33181  10.512   0.480   3.850  1.7814 -0.6120 -5.1390
  987MOL0     H33182  10.395   0.274   3.889  2.4013  1.6228  0.7658
  987MOL0     H33183  10.239   0.347   3.841  0.8866 -1.3531 -0.4634
  987MOL0     H33184  10.281   0.494   4.064 -2.1950 -1.3602  3.7379
  987MOL0     H33185  10.427   0.385   4.090  0.1006 -0.4721  2.7262
  987MOL0     H33186  10.141   0.295   4.088  1.4902 -0.1806 -2.4443
  987MOL0     H33187  10.292   0.201   4.122 -0.4617  0.4346 -2.8516
  987MOL0     H33188  10.321   0.375   4.323 -0.6905 -1.1263  1.0487
  987MOL0     H33189  10.164   0.441   4.256 -0.1087 -0.6121 -3.6179
  987MOL0     H33190  10.068   0.223   4.331 -0.2740 -0.9551  0.8629
  987MOL0     H33191  10.230   0.151   4.357 -0.6041 -0.3942  0.2033
  987MOL0     H33192  10.076   0.236   4.557  0.9884 -1.6327 -1.3620
  987MOL0     H33193  10.149   0.400   4.523  0.7480  0.1751 -1.2874
  987MOL0     H33194  10.295   0.142   4.589  2.2401  0.5835  0.1446
  987MOL0     H33195  10.374   0.292   4.571  0.3830  2.7505  1.9002
  987MOL0     H33196  10.277   0.505   4.742 -1.7189  0.3318 -2.1310
  987MOL0     H33197  10.238   0.584   5.018 -0.0991 -0.4575  1.7161
  987MOL0     H33198  10.117   0.481   5.088  0.1149 -1.2717  2.3665
  987MOL0     H33199  10.396   0.387   5.102  1.3855  1.6963  1.4745
  987MOL0     H33200  10.371   0.547   5.152  1.3747 -1.4239 -1.5457
  987MOL0     H33201  10.368   0.362   5.344 -0.8479  0.7954  1.5909
  987MOL0     H33202  10.208   0.330   5.272 -0.0724 -0.7904  0.7705
  987MOL0     H33203  10.210   0.463   5.492  0.5457  1.2787  1.4982
  987MOL0     H33204  10.134   0.559   5.365  0.8528  1.7615  1.4936
  987MOL0     H33205  10.550   0.736   5.392 -2.9996 -2.7335 -0.0096
  987MOL0     H33206  10.600   0.907   5.236 -0.3589  0.3244 -2.5285
  987MOL0     H33207  10.363   1.301   5.023  0.5346 -2.0331 -0.3006
  987MOL0     H33208  10.415   1.510   4.890 -1.1877 -3.2337 -1.8784
  987MOL0     H33209  10.641   1.804   4.762 -0.1791 -1.8631 -1.3730
  987MOL0     H33210  10.503   1.726   4.829 -1.1386  0.7728 -2.3422
  987MOL0     H33211  10.759   1.750   4.994  0.5589  1.9945  1.6478
  987MOL0     H33212  10.678   1.891   4.956 -0.3040  0.4572  0.6243
  987MOL0     H33213  10.459   1.778   5.060  0.7527  1.5100 -0.3499
  987MOL0     H33214  10.579   1.667   5.134  0.0672 -0.6723 -0.1325
  987MOL0     H33215  10.617   1.971   5.142 -0.6042 -0.1146  0.1204
  987MOL0     H33216  10.687   1.868   5.254  1.0784  1.0230 -1.0575
  987MOL0     H33217  10.466   1.794   5.362  0.7084  0.4830  1.7763
  987MOL0     H33218  10.387   1.891   5.237 -1.3341 -3.8122  0.4825
  987MOL0     H33219  10.602   1.997   5.431 -0.1022  0.6806 -0.7748
  987MOL0     H33220  10.471   2.086   5.345  2.1855  0.6894  0.7042
  987MOL0     H33221  10.401   1.895   5.576 -1.0689  1.7128  1.7595
  987MOL0     H33222  10.314   2.024   5.509 -1.1026 -2.8712  1.1761
  987MOL0     H33223  10.525   2.179   5.590 -1.1113  1.5148  1.5541
  987MOL0     H33224  10.391   2.121   5.699  1.8121  0.8312  0.3843
  987MOL0     H33225  10.829   1.430   4.900 -1.1864  3.4767 -0.0558
  987MOL0     H33226  10.782   1.198   5.015 -1.4029 -0.7379  0.7305
  987MOL0     H33227  10.183   0.934   5.117  0.4619  0.7869  0.8441
  987MOL0     H33228  10.143   0.733   5.264  0.3491 -2.0176 -2.0864
  987MOL0     H33229  10.176   0.794   3.716 -0.2963  0.6476 -0.5752
  987MOL0     H33230  10.223   0.967   3.556  0.0590  0.2966  1.0027
  987MOL0     H33231  10.654   1.139   3.193  0.6532  2.0889  0.1259
  987MOL0     H33232  10.592   1.237   2.990  0.6129  0.7099  0.9954
  987MOL0     H33233  10.369   1.399   2.736  0.3921  1.4963  0.1393
  987MOL0     H33234  10.468   1.286   2.820  0.4337 -0.3174  1.4869
  987MOL0     H33235  10.617   1.489   2.759  2.8324  0.7729  1.9560
  987MOL0     H33236  10.583   1.512   2.931  2.6506 -0.2167 -1.0951
  987MOL0     H33237  10.378   1.611   2.719  1.0183 -0.9519 -1.5445
  987MOL0     H33238  10.522   1.701   2.738  0.6260 -1.1770 -1.1780
  987MOL0     H33239  10.334   1.784   2.872 -1.1143 -0.3863 -0.7648
  987MOL0     H33240  10.363   1.645   2.988  3.2992 -2.7873 -0.8732
  987MOL0     H33241  10.669   1.930   3.067  1.9966 -1.5303 -0.0784
  987MOL0     H33242  10.194   1.339   3.138 -1.0319 -1.0049 -0.4387
  987MOL0     H33243  10.259   1.244   3.476 -0.7444  3.6954 -0.0949
  987MOL0     H33244  10.136   1.267   3.352 -0.0750  0.1587  0.2428
  987MOL0     H33245  10.191   1.104   3.403  2.2372 -0.8513 -1.2045
  988MOL0     O33246   0.112   9.202   2.758  0.0293  0.8870 -0.8231
  988MOL0     C33247   0.024   9.148   2.692  0.2074 -0.3423  0.4607
  988MOL0     O33248   0.006   9.016   2.675 -0.2687 -0.2348 -0.7942
  988MOL0     C33249   0.112   8.939   2.717  0.5616 -0.0825  0.4289
  988MOL0     C33250   0.227   8.939   2.633  0.3513 -0.3168 -0.4991
  988MOL0     C33251   0.342   8.874   2.678 -0.6578 -0.2091  0.0175
  988MOL0     C33252   0.345   8.799   2.795  0.3753  0.7443 -0.5648
  988MOL0     O33253   0.458   8.747   2.848 -0.6455  0.9369  0.9663
  988MOL0     C33254   0.563   8.717   2.751  0.1532 -0.3725  0.4432
  988MOL0     C33255   0.666   8.624   2.822  0.4380 -0.4457 -0.5330
  988MOL0     C33256   0.689   8.499   2.732 -0.2985  0.5212 -0.3523
  988MOL0     C33257   0.807   8.412   2.793 -0.5285 -0.0681  0.2474
  988MOL0     C33258   0.860   8.314   2.681 -0.1766 -0.2150 -0.2934
  988MOL0     C33259   0.972   8.222   2.727  0.4294 -0.8973  0.0591
  988MOL0     C33260   1.010   8.131   2.617  0.7363  0.2254  0.7359
  988MOL0     C33261   1.096   8.019   2.676 -0.2372  0.2098 -0.6852
  988MOL0     N33262   1.166   7.944   2.573 -0.5860  0.1008  0.3530
  988MOL0     C33263   1.117   7.900   2.453  0.3230  0.5708  0.5100
  988MOL0     C33264   1.233   7.868   2.379  0.2953 -0.2354 -0.0875
  988MOL0     C33265   1.258   7.820   2.238 -0.1051 -0.2624 -0.1390
  988MOL0     C33266   1.301   7.938   2.140 -0.3812 -0.5994  0.4993
  988MOL0     C33267   1.203   8.054   2.123 -0.4095  0.9541 -0.0544
  988MOL0     C33268   1.078   8.008   2.044 -0.4452  0.5922  0.0835
  988MOL0     O33269   1.021   8.121   1.994  0.7252  0.2488 -0.3947
  988MOL0     C33270   0.943   8.197   2.077 -0.0376  0.0397 -0.1544
  988MOL0     C33271   0.914   8.178   2.214  0.3668  0.3305  0.2409
  988MOL0     C33272   0.816   8.259   2.276  0.7086 -0.3530  0.1975
  988MOL0     C33273   0.762   8.370   2.212 -1.2026  0.0082  0.2550
  988MOL0     C33274   0.661   8.444   2.269 -0.5757  0.1965 -0.1784
  988MOL0     O33275   0.621   8.544   2.188  0.2339 -0.6142  0.2550
  988MOL0     C33276   0.526   8.624   2.236 -0.3039 -0.1458  0.1675
  988MOL0     C33277   0.550   8.759   2.220  0.1445  0.0490  0.0907
  988MOL0     C33278   0.444   8.845   2.258 -0.2528 -1.1008  0.0782
  988MOL0     C33279   0.316   8.798   2.295  0.0269  0.9603  0.6329
  988MOL0     O33280   0.205   8.873   2.320  0.1729 -0.0759  0.1472
  988MOL0     C33281   0.163   8.958   2.210 -0.0197  0.1222 -0.3801
  988MOL0     C33282   0.016   8.972   2.212  0.4163 -0.3896  0.1212
  988MOL0     C33283  -0.051   9.074   2.108 -0.6659  0.0898 -0.2969
  988MOL0     C33284  -0.199   9.107   2.144 -0.7596  0.5692 -0.0890
  988MOL0     C33285  -0.277   9.168   2.039 -0.4903  0.1519  0.1694
  988MOL0     C33286  -0.252   9.321   2.037 -0.1524 -0.4020 -0.1923
  988MOL0     C33287  -0.337   9.394   1.924 -0.0265  0.0630  0.3062
  988MOL0     C33288  -0.314   9.546   1.951 -0.0429  0.2890  0.7591
  988MOL0    Cl33289  -0.408   9.602   2.096  0.1165 -0.3459  0.1085
  988MOL0     C33290   0.305   8.664   2.330  0.7136 -0.7114  0.0026
  988MOL0     C33291   0.407   8.577   2.291 -0.3470  0.6081 -0.3820
  988MOL0     O33292   0.631   8.433   2.385 -0.0628  0.3298 -0.7707
  988MOL0     C33293   0.805   8.398   2.079 -0.6762  0.3004  1.1643
  988MOL0     C33294   0.892   8.304   2.008  0.2309 -0.2113  0.1976
  988MOL0     N33295   1.343   7.895   2.464 -0.5448  0.6147 -0.3630
  988MOL0     N33296   1.302   7.945   2.576  0.6497 -0.3636  0.5053
  988MOL0     C33297   0.236   8.800   2.883  0.3747 -0.0256  0.1676
  988MOL0     C33298   0.120   8.874   2.847 -0.2443 -0.5397  0.1984
  988MOL0     C33299  -0.073   9.234   2.621  0.0253 -0.3160  0.4068
  988MOL0     C33300  -0.176   9.168   2.546 -0.5148 -0.4359 -0.5650
  988MOL0     C33301  -0.274   9.246   2.489 -0.3399 -0.1823  0.9588
  988MOL0     C33302  -0.294   9.388   2.506  0.2752  0.3398  0.0954
  988MOL0     O33303  -0.401   9.445   2.445  0.3311 -0.6405 -0.2101
  988MOL0     C33304  -0.424   9.583   2.465 -0.5207  0.4735  0.2020
  988MOL0     C33305  -0.578   9.606   2.443 -0.6213 -0.1059  0.1162
  988MOL0     C33306  -0.614   9.737   2.517 -0.9813  0.6280 -0.3038
  988MOL0     C33307  -0.665   9.704   2.666 -0.9670 -0.0720  0.6529
  988MOL0     C33308  -0.662   9.814   2.759  0.4008 -0.1860  0.3430
  988MOL0     C33309  -0.654   9.898   2.847  0.0213  1.3090  0.2237
  988MOL0     C33310  -0.195   9.444   2.579  0.0801 -0.4151 -0.1421
  988MOL0     C33311  -0.079   9.382   2.625 -0.3115  0.5108  0.2744
  988MOL0     C33312   0.024   9.478   2.690 -0.4194  1.2724 -1.0252
  988MOL0     H33313   0.225   9.004   2.546  2.6941  3.6481  2.0516
  988MOL0     H33314   0.427   8.864   2.612  0.9034 -0.5541  1.9709
  988MOL0     H33315   0.519   8.665   2.664  1.1838 -2.5246  1.1254
  988MOL0     H33316   0.615   8.811   2.730  0.7362 -0.8122 -0.1504
  988MOL0     H33317   0.635   8.597   2.924 -4.1831  2.0325 -1.0283
  988MOL0     H33318   0.751   8.693   2.833 -0.7497  0.8119  1.2984
  988MOL0     H33319   0.721   8.547   2.639  0.8011  1.8957  0.6808
  988MOL0     H33320   0.600   8.439   2.715  0.2591 -1.2135  2.2834
  988MOL0     H33321   0.893   8.469   2.828 -1.3349 -0.2923  2.8179
  988MOL0     H33322   0.770   8.351   2.876  1.0114 -2.8169 -0.9291
  988MOL0     H33323   0.780   8.242   2.662  1.1370 -1.8118  0.0607
  988MOL0     H33324   0.890   8.372   2.593 -1.3981  1.4986  0.3663
  988MOL0     H33325   1.056   8.288   2.747 -0.3970  0.1010  0.3152
  988MOL0     H33326   0.934   8.160   2.810  0.7557 -1.4895 -0.2278
  988MOL0     H33327   1.068   8.184   2.541  0.4769 -1.0581 -0.4033
  988MOL0     H33328   0.916   8.096   2.571 -1.3096  3.7249  1.8732
  988MOL0     H33329   1.179   8.067   2.728 -1.1156  1.2797 -0.2407
  988MOL0     H33330   1.047   7.966   2.758  0.5367  0.9475  0.2750
  988MOL0     H33331   1.011   7.891   2.433  0.4200 -1.1982  0.6387
  988MOL0     H33332   1.338   7.746   2.236 -0.3475 -0.5161 -0.4955
  988MOL0     H33333   1.174   7.756   2.206 -0.4281 -0.1315  0.4181
  988MOL0     H33334   1.392   7.982   2.182 -1.3711 -0.7562  2.9617
  988MOL0     H33335   1.309   7.891   2.042  0.9872 -2.2125  1.3348
  988MOL0     H33336   1.251   8.125   2.054  2.3665 -0.9674 -0.2378
  988MOL0     H33337   1.173   8.105   2.215 -0.8982 -1.1724  1.0223
  988MOL0     H33338   1.018   7.959   2.121  1.6738  1.7916  2.6499
  988MOL0     H33339   1.097   7.936   1.964  1.1071 -3.8502  3.9530
  988MOL0     H33340   0.955   8.088   2.259  1.0727  1.9623  3.0855
  988MOL0     H33341   0.803   8.242   2.383  1.6012 -0.1570  0.3425
  988MOL0     H33342   0.644   8.802   2.186  0.1064  1.8809  2.0293
  988MOL0     H33343   0.473   8.949   2.255 -0.3967 -1.0466  0.4314
  988MOL0     H33344   0.203   9.058   2.226 -0.7165  0.0966  1.7255
  988MOL0     H33345   0.198   8.916   2.115  0.9377  0.4352 -0.1772
  988MOL0     H33346  -0.036   8.876   2.200  0.6339 -0.2739 -2.1320
  988MOL0     H33347  -0.007   8.996   2.316 -1.0233  0.3863 -0.3456
  988MOL0     H33348   0.006   9.167   2.102  0.8306 -0.8634 -1.4030
  988MOL0     H33349  -0.046   9.027   2.009  0.0366  0.1253 -0.2820
  988MOL0     H33350  -0.209   9.166   2.236  2.9396 -0.9754  1.5019
  988MOL0     H33351  -0.252   9.014   2.169 -1.0731  0.4421 -1.1797
  988MOL0     H33352  -0.379   9.133   2.059 -0.6324  0.3046 -0.2886
  988MOL0     H33353  -0.244   9.126   1.944  2.1447 -1.2076  1.5650
  988MOL0     H33354  -0.288   9.372   2.126 -0.6322 -2.6212  0.9615
  988MOL0     H33355  -0.144   9.329   2.023 -0.0706 -1.3232 -0.1888
  988MOL0     H33356  -0.442   9.362   1.927  0.5477 -2.3551 -1.8829
  988MOL0     H33357  -0.294   9.373   1.825  0.6248  0.5348  0.4851
  988MOL0     H33358  -0.209   9.570   1.970  0.5901 -0.7982 -1.0115
  988MOL0     H33359  -0.352   9.598   1.863 -1.0365 -3.5687 -1.3533
  988MOL0     H33360   0.206   8.634   2.364  0.1743  3.2669  2.6432
  988MOL0     H33361   0.410   8.470   2.304  0.5682  0.7294  0.5512
  988MOL0     H33362   0.763   8.473   2.013 -0.4987 -2.9039 -3.0706
  988MOL0     H33363   0.920   8.318   1.904  1.3594 -1.8891  0.2438
  988MOL0     H33364   0.237   8.744   2.976  3.7750  0.7277  0.7367
  988MOL0     H33365   0.033   8.884   2.911 -1.6914 -1.5094 -1.5144
  988MOL0     H33366  -0.175   9.061   2.529 -1.4323 -0.6373  0.5376
  988MOL0     H33367  -0.367   9.198   2.460  0.3545 -2.5986  2.4199
  988MOL0     H33368  -0.375   9.640   2.386 -2.8874  1.1378 -0.8988
  988MOL0     H33369  -0.391   9.612   2.565 -3.7964  2.0948  0.9452
  988MOL0     H33370  -0.646   9.531   2.485 -1.6326  1.3026  1.1300
  988MOL0     H33371  -0.608   9.594   2.339 -1.3568  1.7207  0.0906
  988MOL0     H33372  -0.687   9.794   2.459  1.4607  3.5110 -0.7978
  988MOL0     H33373  -0.530   9.807   2.517 -0.4684  0.0490 -1.6542
  988MOL0     H33374  -0.768   9.671   2.654 -2.5096  4.1381  0.5926
  988MOL0     H33375  -0.612   9.617   2.707  2.4193  1.1274 -0.8106
  988MOL0     H33376  -0.662   9.971   2.926 -2.6588  0.6708  0.6097
  988MOL0     H33377  -0.203   9.552   2.586 -1.2288 -0.5760  1.4916
  988MOL0     H33378   0.007   9.492   2.797 -1.1451  2.2975 -1.2578
  988MOL0     H33379   0.126   9.442   2.677 -0.6426  1.0485 -2.3190
  988MOL0     H33380   0.012   9.574   2.638  0.3601  2.4282  0.8353
  989MOL0     O33381   1.402   8.005   8.293 -0.4389 -0.7400 -0.0320
  989MOL0     C33382   1.470   7.907   8.320  0.1970 -0.8899  1.1365
  989MOL0     O33383   1.515   7.821   8.229 -0.4949  0.2646 -0.5858
  989MOL0     C33384   1.533   7.878   8.106 -0.2398  0.1116  0.6139
  989MOL0     C33385   1.664   7.913   8.068  0.7297  0.2753  0.2160
  989MOL0     C33386   1.683   7.972   7.937  0.4647  0.8055  0.1087
  989MOL0     C33387   1.568   7.983   7.848  0.0654  0.5823  0.8832
  989MOL0     O33388   1.562   8.025   7.719 -0.5147 -0.0860  0.4361
  989MOL0     C33389   1.656   8.131   7.689  0.0285  0.7028 -0.7421
  989MOL0     C33390   1.760   8.088   7.583 -0.8736  0.7346 -0.5531
  989MOL0     C33391   1.837   8.199   7.516  0.2708 -0.6510  0.5445
  989MOL0     C33392   1.944   8.268   7.599 -1.1296  0.4694  0.2163
  989MOL0     C33393   1.997   8.398   7.528 -0.4769 -0.1153 -0.0531
  989MOL0     C33394   1.899   8.514   7.532  1.2148 -0.0943  0.3342
  989MOL0     C33395   1.871   8.576   7.662 -1.2068 -0.1581  0.4373
  989MOL0     C33396   1.992   8.601   7.756 -0.1718 -1.0158  0.5505
  989MOL0     N33397   1.939   8.653   7.879 -0.3075  0.0010  0.6228
  989MOL0     C33398   1.892   8.579   7.983  0.1684 -0.1622  0.2882
  989MOL0     C33399   1.858   8.670   8.078 -0.7447 -0.7131 -0.0069
  989MOL0     C33400   1.799   8.641   8.217 -0.9540 -0.2297  1.4429
  989MOL0     C33401   1.897   8.683   8.328  0.6073  0.0214 -0.2171
  989MOL0     C33402   1.961   8.558   8.385  0.0957 -0.1590 -1.6057
  989MOL0     C33403   2.040   8.464   8.295  0.0699 -0.1895  0.0768
  989MOL0     O33404   2.157   8.542   8.272 -0.2713  0.2807  1.0034
  989MOL0     C33405   2.220   8.534   8.145  1.0552  0.2960 -0.0853
  989MOL0     C33406   2.252   8.415   8.076 -0.4458 -0.5728  0.0740
  989MOL0     C33407   2.310   8.405   7.956  0.1156  0.1718 -0.2043
  989MOL0     C33408   2.334   8.526   7.883  0.5177  0.5916 -0.2186
  989MOL0     C33409   2.380   8.510   7.739 -0.4427 -0.2067 -0.3197
  989MOL0     O33410   2.467   8.412   7.716 -0.6570  0.3974  0.1221
  989MOL0     C33411   2.485   8.350   7.602  0.5173  0.4413 -0.1171
  989MOL0     C33412   2.374   8.339   7.511 -1.0225  0.2231 -0.4488
  989MOL0     C33413   2.401   8.283   7.388  0.1200  0.8650  0.2484
  989MOL0     C33414   2.529   8.245   7.343  0.2043 -0.4723 -1.0393
  989MOL0     O33415   2.557   8.205   7.224 -0.1023  0.2995 -0.1888
  989MOL0     C33416   2.462   8.189   7.115 -0.3072  0.0264 -0.1076
  989MOL0     C33417   2.538   8.138   6.994 -0.6903  0.0087  0.1320
  989MOL0     C33418   2.436   8.088   6.900  0.1784 -0.4049  1.3332
  989MOL0     C33419   2.517   8.044   6.780 -0.5571 -0.0285  0.8128
  989MOL0     C33420   2.429   7.993   6.662 -0.3943 -0.8771 -0.3069
  989MOL0     C33421   2.482   7.875   6.572  0.0296 -0.1769  0.3900
  989MOL0     C33422   2.498   7.745   6.644 -1.1830 -0.2404 -0.0917
  989MOL0     C33423   2.501   7.632   6.538 -0.4256 -0.5211 -0.5562
  989MOL0    Cl33424   2.330   7.600   6.504 -0.0399  0.2606 -0.3443
  989MOL0     C33425   2.637   8.238   7.435  1.7392 -0.1165  0.3312
  989MOL0     C33426   2.608   8.281   7.568 -0.0355 -0.3273  1.1572
  989MOL0     O33427   2.335   8.588   7.654 -0.5616  0.4068 -0.8967
  989MOL0     C33428   2.299   8.647   7.939  0.6270 -0.0865 -0.1993
  989MOL0     C33429   2.240   8.648   8.070  0.1123 -0.1213  0.0823
  989MOL0     N33430   1.885   8.805   8.036 -0.2225  0.0156  0.1796
  989MOL0     N33431   1.927   8.783   7.920  0.7996 -0.6678 -0.1787
  989MOL0     C33432   1.443   7.951   7.896 -0.0919  0.0086 -0.5083
  989MOL0     C33433   1.424   7.890   8.022 -0.5824  0.1844  0.3647
  989MOL0     C33434   1.481   7.873   8.461  0.4904 -0.8833 -0.0506
  989MOL0     C33435   1.383   7.923   8.551  0.3799 -0.1813 -0.4267
  989MOL0     C33436   1.394   7.893   8.685 -0.4033 -0.2706 -0.1396
  989MOL0     C33437   1.493   7.812   8.740 -0.4077  0.3673  0.4941
  989MOL0     O33438   1.510   7.783   8.877 -0.4056 -0.5325 -0.1232
  989MOL0     C33439   1.492   7.881   8.978  0.1672  0.0625  0.4986
  989MOL0     C33440   1.389   7.844   9.090 -0.7126 -0.0587 -0.2261
  989MOL0     C33441   1.463   7.735   9.175 -0.2199  0.1841 -0.1606
  989MOL0     C33442   1.430   7.589   9.126  0.2006  0.7081 -0.1731
  989MOL0     C33443   1.522   7.503   9.195  0.5194 -0.1225 -0.5624
  989MOL0     C33444   1.597   7.439   9.260 -0.4593  0.5054  0.6420
  989MOL0     C33445   1.585   7.759   8.652  1.0485 -0.4190 -0.0045
  989MOL0     C33446   1.581   7.786   8.515  0.4042  0.3220 -1.4541
  989MOL0     C33447   1.693   7.727   8.419  0.1826  0.1864  0.1795
  989MOL0     H33448   1.752   7.898   8.129  1.6881  1.6166 -0.7564
  989MOL0     H33449   1.781   8.004   7.902  0.8287 -1.3603 -0.9853
  989MOL0     H33450   1.614   8.220   7.641  0.5934  0.2013 -2.2443
  989MOL0     H33451   1.705   8.172   7.777  0.8446  0.7464 -1.2077
  989MOL0     H33452   1.703   8.045   7.500 -0.4493 -2.3670  0.6392
  989MOL0     H33453   1.821   8.009   7.628 -3.4185 -0.2655  1.3524
  989MOL0     H33454   1.761   8.273   7.491 -2.0577 -3.0562  0.1023
  989MOL0     H33455   1.878   8.175   7.417  0.8027  2.4332 -0.0876
  989MOL0     H33456   1.905   8.278   7.700  1.7201 -1.8315  1.6967
  989MOL0     H33457   2.015   8.184   7.604 -0.7139  0.5715 -2.3597
  989MOL0     H33458   2.089   8.416   7.585  0.3258 -2.2940 -0.5857
  989MOL0     H33459   2.020   8.369   7.426 -1.2662  3.1047 -1.2800
  989MOL0     H33460   1.928   8.600   7.469  0.0009  1.4880  1.8381
  989MOL0     H33461   1.805   8.484   7.485  0.2384  4.9495 -1.5738
  989MOL0     H33462   1.795   8.509   7.704 -2.2866 -0.1955 -1.4693
  989MOL0     H33463   1.826   8.672   7.636 -1.5680  0.1842  2.1423
  989MOL0     H33464   2.050   8.511   7.776  1.4798  0.6251  3.9545
  989MOL0     H33465   2.054   8.678   7.710  0.5017 -1.5550  0.5378
  989MOL0     H33466   1.890   8.470   7.991  0.6786 -0.0941  1.7115
  989MOL0     H33467   1.704   8.695   8.212 -1.1360 -0.6632 -0.8416
  989MOL0     H33468   1.774   8.534   8.213 -3.7867  0.3815 -0.1322
  989MOL0     H33469   1.984   8.741   8.295  2.7157 -2.0343  1.2969
  989MOL0     H33470   1.845   8.738   8.407 -0.7297 -2.2959  0.6245
  989MOL0     H33471   1.899   8.499   8.453  4.8028 -0.4438  3.0546
  989MOL0     H33472   2.035   8.589   8.460 -0.5826  0.9782 -1.3677
  989MOL0     H33473   1.984   8.428   8.208  2.4823  0.0075 -1.6658
  989MOL0     H33474   2.066   8.374   8.351 -0.1768 -1.5748 -1.9177
  989MOL0     H33475   2.237   8.323   8.132 -2.1955 -1.0546 -1.0997
  989MOL0     H33476   2.332   8.307   7.914  0.4518 -0.0718  0.5312
  989MOL0     H33477   2.276   8.380   7.533 -0.9639  0.8251 -1.2557
  989MOL0     H33478   2.326   8.296   7.311  0.1506  0.5899  0.1684
  989MOL0     H33479   2.383   8.119   7.145  0.2542 -1.9512 -2.8324
  989MOL0     H33480   2.415   8.287   7.098 -0.0335  0.3599  1.0040
  989MOL0     H33481   2.601   8.214   6.947  4.0652 -2.9388  1.1617
  989MOL0     H33482   2.605   8.057   7.022 -0.1915 -0.7719 -2.9734
  989MOL0     H33483   2.377   8.000   6.927  0.5030 -0.9115  0.4278
  989MOL0     H33484   2.364   8.167   6.875 -1.3096 -2.4136 -1.2824
  989MOL0     H33485   2.602   7.983   6.810  1.4334  0.8065 -2.6256
  989MOL0     H33486   2.564   8.134   6.740  0.6135 -1.0574 -0.1940
  989MOL0     H33487   2.397   8.075   6.597 -2.8439 -2.6294 -1.4767
  989MOL0     H33488   2.336   7.952   6.701 -1.6412 -1.7793 -3.8504
  989MOL0     H33489   2.412   7.860   6.489  3.2333  0.0979 -2.6047
  989MOL0     H33490   2.577   7.908   6.529 -0.7122 -0.0329 -1.2470
  989MOL0     H33491   2.405   7.723   6.699 -1.2047 -1.6119 -0.6574
  989MOL0     H33492   2.579   7.729   6.716 -2.7843 -2.6127  1.3342
  989MOL0     H33493   2.556   7.653   6.446 -2.8323 -0.0970 -1.9721
  989MOL0     H33494   2.550   7.542   6.577 -2.9767 -1.8883 -0.2338
  989MOL0     H33495   2.732   8.192   7.409  2.1196 -0.0088  1.5006
  989MOL0     H33496   2.692   8.281   7.636  1.6610 -0.2471 -0.8298
  989MOL0     H33497   2.317   8.737   7.881 -3.4592  0.8814 -0.2617
  989MOL0     H33498   2.225   8.742   8.122 -2.4182  0.2174 -1.1061
  989MOL0     H33499   1.358   7.961   7.829 -0.6200  0.3305  0.1995
  989MOL0     H33500   1.318   7.865   8.029 -0.6127 -0.5098 -1.8033
  989MOL0     H33501   1.298   7.982   8.519  0.8732 -0.2201 -1.8906
  989MOL0     H33502   1.317   7.936   8.748 -1.3034 -3.9872  1.5551
  989MOL0     H33503   1.456   7.973   8.930 -0.2760 -0.2017  0.3162
  989MOL0     H33504   1.594   7.892   9.016 -0.1280  0.3392  1.2374
  989MOL0     H33505   1.292   7.806   9.058 -1.1320 -0.6094  1.6016
  989MOL0     H33506   1.381   7.933   9.153 -0.4115  1.9492 -2.8395
  989MOL0     H33507   1.428   7.745   9.278  1.2644  2.4141  0.1965
  989MOL0     H33508   1.570   7.758   9.176  0.2075 -1.6541 -0.8328
  989MOL0     H33509   1.333   7.547   9.153  1.2043 -1.1509  0.7914
  989MOL0     H33510   1.464   7.579   9.022  1.3013  3.9375 -0.2320
  989MOL0     H33511   1.671   7.375   9.303  1.5894  1.3268 -1.4406
  989MOL0     H33512   1.665   7.699   8.694  2.1967 -0.7073 -2.4138
  989MOL0     H33513   1.751   7.808   8.374 -0.0719 -0.0294 -0.5581
  989MOL0     H33514   1.753   7.668   8.488 -2.2437 -1.4676  1.0048
  989MOL0     H33515   1.662   7.653   8.344  4.2238 -2.5134  0.8580
  990MOL0     O33516   0.320   3.555  10.220 -0.1349 -0.1075 -0.5975
  990MOL0     C33517   0.225   3.559  10.141 -0.0662  0.0570 -0.4344
  990MOL0     O33518   0.097   3.577  10.176 -0.1636  0.1567 -0.2051
  990MOL0     C33519   0.075   3.655  10.291 -0.3683  0.2382 -0.5239
  990MOL0     C33520   0.090   3.789  10.283  0.1395  0.2166  0.0082
  990MOL0     C33521   0.053   3.885  10.380  0.3446  0.0342 -0.1299
  990MOL0     C33522   0.002   3.824  10.500 -0.2600 -0.7384  0.2912
  990MOL0     O33523  -0.025   3.906  10.607 -0.0718  1.1561  0.1501
  990MOL0     C33524   0.081   3.892  10.711 -0.0200 -0.2501  0.7186
  990MOL0     C33525   0.010   3.843  10.843 -0.3720 -0.4167 -0.0247
  990MOL0     C33526  -0.067   3.953  10.920 -0.7462  0.9158 -1.4813
  990MOL0     C33527   0.039   4.048  10.986  0.2473 -0.2557  0.1540
  990MOL0     C33528   0.047   4.019  11.135  0.2450 -0.0773  0.3229
  990MOL0     C33529   0.135   4.124  11.192 -0.6733  0.2343 -0.0937
  990MOL0     C33530   0.162   4.087  11.337  0.3463  0.5155 -0.5256
  990MOL0     C33531   0.243   4.195  11.402 -0.2544 -0.5890 -0.3008
  990MOL0     N33532   0.238   4.178  11.542 -0.0579  0.4178 -0.1875
  990MOL0     C33533   0.123   4.189  11.616 -0.0637 -0.4919  0.1706
  990MOL0     C33534   0.158   4.180  11.750  0.3989 -0.5334  0.2335
  990MOL0     C33535   0.071   4.212  11.872 -0.0498  0.6343 -0.1696
  990MOL0     C33536   0.153   4.305  11.958 -0.4497 -0.0006  0.3954
  990MOL0     C33537   0.082   4.344  12.090 -0.0925  0.3957 -0.4966
  990MOL0     C33538   0.174   4.410  12.191 -0.6315  0.6714 -0.1085
  990MOL0     O33539   0.296   4.339  12.226  0.4069  0.0069 -0.3974
  990MOL0     C33540   0.293   4.244  12.323 -0.2322 -0.3014 -0.4237
  990MOL0     C33541   0.185   4.211  12.415 -0.3230  0.5101  1.0873
  990MOL0     C33542   0.195   4.109  12.507  0.2216  0.4840  0.7132
  990MOL0     C33543   0.311   4.032  12.520 -0.1177 -0.6112  0.2927
  990MOL0     C33544   0.324   3.936  12.628  0.1932 -0.0404  0.5873
  990MOL0     O33545   0.219   3.915  12.722 -0.5568 -0.0070  0.1304
  990MOL0     C33546   0.240   3.839  12.834 -0.2710  0.6834 -0.6727
  990MOL0     C33547   0.323   3.893  12.930 -0.5777 -0.1534 -0.2956
  990MOL0     C33548   0.343   3.824  13.054  0.3413 -0.2448  1.0072
  990MOL0     C33549   0.288   3.698  13.075 -0.1920 -0.0778 -0.3668
  990MOL0     O33550   0.313   3.650  13.204  0.6243 -0.3623  0.3856
  990MOL0     C33551   0.208   3.567  13.249  0.4331  0.9846  0.0726
  990MOL0     C33552   0.229   3.554  13.404 -1.1212  0.1870  0.3040
  990MOL0     C33553   0.131   3.469  13.482  0.2161  1.4741 -0.2713
  990MOL0     C33554   0.151   3.312  13.464 -0.2787 -0.1778  0.2619
  990MOL0     C33555   0.267   3.241  13.538  0.3963  0.1170  0.0924
  990MOL0     C33556   0.240   3.086  13.511 -0.6860 -1.3892  0.3439
  990MOL0     C33557   0.327   2.997  13.587  0.3739 -0.5026 -0.4622
  990MOL0     C33558   0.358   2.857  13.532  0.6573  0.4318 -0.3643
  990MOL0    Cl33559   0.478   2.786  13.631 -0.4695  0.0232  0.3702
  990MOL0     C33560   0.211   3.640  12.983  0.7566 -0.5228 -0.0522
  990MOL0     C33561   0.180   3.711  12.861  0.2821 -0.8025  0.9297
  990MOL0     O33562   0.431   3.871  12.637  0.4851  0.2295 -0.7843
  990MOL0     C33563   0.418   4.068  12.432 -0.6992  0.6108 -1.0191
  990MOL0     C33564   0.408   4.177  12.341 -0.3606  0.5824 -0.2784
  990MOL0     N33565   0.288   4.152  11.742  0.7036 -0.3253 -0.4302
  990MOL0     N33566   0.339   4.156  11.619  1.5292 -0.2615  0.4596
  990MOL0     C33567  -0.009   3.689  10.512  1.9811  0.0535  0.7713
  990MOL0     C33568   0.009   3.610  10.406 -0.5923  0.7966  0.1152
  990MOL0     C33569   0.256   3.514  10.003 -0.6228 -0.0553 -0.7359
  990MOL0     C33570   0.179   3.410   9.951 -0.0422  0.4668  0.3653
  990MOL0     C33571   0.182   3.372   9.819 -0.1603 -0.8262  0.1066
  990MOL0     C33572   0.284   3.427   9.732  0.6990 -0.7544  0.3517
  990MOL0     O33573   0.301   3.407   9.592 -0.0794  0.2301 -0.7988
  990MOL0     C33574   0.184   3.356   9.523  0.1154 -0.6027 -0.0403
  990MOL0     C33575   0.221   3.360   9.383  0.2843 -0.4685  0.1018
  990MOL0     C33576   0.105   3.369   9.280  0.4929 -0.0533  0.5889
  990MOL0     C33577   0.128   3.466   9.163  0.6079  0.5233 -0.3714
  990MOL0     C33578   0.143   3.608   9.202 -1.4523 -0.4664  0.5706
  990MOL0     C33579   0.139   3.727   9.225  0.5044 -0.0355 -0.5974
  990MOL0     C33580   0.379   3.517   9.795 -0.5714 -0.3747  0.3059
  990MOL0     C33581   0.362   3.569   9.924  1.4244 -0.5210  0.2516
  990MOL0     C33582   0.458   3.662   9.979 -0.4927  0.0902 -0.9143
  990MOL0     H33583   0.144   3.836  10.201  1.8947  1.6248  1.8800
  990MOL0     H33584   0.068   3.993  10.375  1.3740 -0.1483 -1.4653
  990MOL0     H33585   0.161   3.827  10.675  0.7603  1.3884 -0.6389
  990MOL0     H33586   0.130   3.989  10.723  0.3650  0.0255 -2.3448
  990MOL0     H33587   0.083   3.790  10.905 -2.3670  0.1512  3.0241
  990MOL0     H33588  -0.057   3.758  10.828 -1.1506  0.0055  0.9284
  990MOL0     H33589  -0.134   3.901  10.989 -1.8306  1.8450 -1.7991
  990MOL0     H33590  -0.144   4.005  10.863 -0.9835  0.7712 -1.2918
  990MOL0     H33591   0.138   4.045  10.939 -1.2466 -0.5707 -3.2698
  990MOL0     H33592  -0.001   4.149  10.976  1.9560  0.2253 -3.1198
  990MOL0     H33593  -0.054   4.007  11.177 -0.7758 -0.9731 -2.2332
  990MOL0     H33594   0.082   3.916  11.143 -2.0824 -0.8974  0.7511
  990MOL0     H33595   0.230   4.126  11.138 -0.6455 -6.7270 -1.1549
  990MOL0     H33596   0.083   4.220  11.182  1.2238  1.2075 -1.2477
  990MOL0     H33597   0.217   3.992  11.331  2.6795  1.5008  2.7086
  990MOL0     H33598   0.066   4.089  11.389  0.5231 -2.1958  0.0840
  990MOL0     H33599   0.349   4.175  11.385  0.4772  2.6435 -0.1259
  990MOL0     H33600   0.212   4.296  11.375 -1.7199 -0.5533  1.3248
  990MOL0     H33601   0.027   4.219  11.576  0.9073  3.6786  0.5320
  990MOL0     H33602  -0.018   4.267  11.839 -0.1423  1.1982  0.9937
  990MOL0     H33603   0.034   4.131  11.935 -2.0243  0.2002 -1.7935
  990MOL0     H33604   0.248   4.258  11.986 -1.0465 -0.7387  1.2611
  990MOL0     H33605   0.172   4.395  11.899 -2.7358 -0.1503 -0.7084
  990MOL0     H33606   0.031   4.259  12.136  2.0625 -0.4177  0.5288
  990MOL0     H33607   0.007   4.421  12.070  1.5382  2.0763 -0.4169
  990MOL0     H33608   0.116   4.424  12.282 -0.2357 -0.2765  0.3037
  990MOL0     H33609   0.216   4.502  12.150  0.6174  0.6710  1.0960
  990MOL0     H33610   0.088   4.260  12.415  0.2343  1.6777 -0.5505
  990MOL0     H33611   0.110   4.080  12.568  0.6854 -0.8432  0.7620
  990MOL0     H33612   0.372   3.990  12.925  1.6799 -1.2217 -0.2071
  990MOL0     H33613   0.408   3.866  13.130  3.3902  1.7923 -2.3952
  990MOL0     H33614   0.110   3.616  13.241 -0.5425 -0.9064 -0.1303
  990MOL0     H33615   0.209   3.470  13.198  0.4252  0.6791  0.6474
  990MOL0     H33616   0.328   3.507  13.406 -1.0966  0.1651 -0.7473
  990MOL0     H33617   0.234   3.647  13.462  0.3891  0.5282 -0.3252
  990MOL0     H33618   0.141   3.482  13.590  0.1390  0.8851 -0.1894
  990MOL0     H33619   0.027   3.494  13.458  0.0181  0.3263 -0.6689
  990MOL0     H33620   0.151   3.284  13.359 -0.9409 -0.1726  0.2609
  990MOL0     H33621   0.060   3.263  13.499 -0.4882 -1.9799 -2.5182
  990MOL0     H33622   0.243   3.273  13.639 -1.2023  3.7346 -1.2365
  990MOL0     H33623   0.361   3.283  13.500  0.4452  0.5425  0.6782
  990MOL0     H33624   0.135   3.076  13.542 -1.5674  2.5735 -0.7776
  990MOL0     H33625   0.257   3.057  13.407  2.1635 -2.4529  1.0196
  990MOL0     H33626   0.304   2.992  13.694  1.1688 -0.4832 -0.2838
  990MOL0     H33627   0.426   3.043  13.589 -0.9405  2.4713  1.0775
  990MOL0     H33628   0.265   2.807  13.558  1.7276 -0.1873  2.6433
  990MOL0     H33629   0.369   2.857  13.423 -0.1610  0.0548 -0.4576
  990MOL0     H33630   0.162   3.544  12.998 -1.4716  0.1609 -2.3416
  990MOL0     H33631   0.106   3.658  12.801  0.9124 -1.0708  0.3783
  990MOL0     H33632   0.513   4.018  12.446 -1.7304 -0.8728  1.4424
  990MOL0     H33633   0.500   4.197  12.287  0.8581  0.7398  1.7530
  990MOL0     H33634  -0.047   3.639  10.601 -3.0557 -1.1136 -1.6983
  990MOL0     H33635  -0.008   3.503  10.411 -1.4528  0.7562 -2.3822
  990MOL0     H33636   0.101   3.353  10.002  0.8669  1.1239  2.5958
  990MOL0     H33637   0.121   3.287   9.792 -0.1016 -0.4616 -1.2623
  990MOL0     H33638   0.089   3.407   9.542  0.9341  0.3144  1.9720
  990MOL0     H33639   0.159   3.254   9.552 -4.2689 -0.1597 -1.5555
  990MOL0     H33640   0.275   3.267   9.363 -0.2580 -0.6767 -0.4423
  990MOL0     H33641   0.296   3.438   9.370 -2.6788  3.4425  3.6914
  990MOL0     H33642   0.009   3.402   9.322 -0.8794 -0.5625 -1.9213
  990MOL0     H33643   0.103   3.268   9.239 -1.1773 -0.1625  0.8729
  990MOL0     H33644   0.215   3.440   9.102  1.1942 -1.8273  1.3358
  990MOL0     H33645   0.050   3.450   9.088  0.3829 -0.7146  0.1002
  990MOL0     H33646   0.132   3.832   9.247  2.5848  0.2658 -1.1708
  990MOL0     H33647   0.461   3.550   9.732 -0.3387 -3.1614 -1.0030
  990MOL0     H33648   0.537   3.682   9.906 -1.0276  1.1078 -1.2314
  990MOL0     H33649   0.413   3.761   9.993  0.2463  0.7864 -3.0655
  990MOL0     H33650   0.504   3.636  10.075 -0.4517  0.0439 -0.9462
  991MOL0     O33651   6.282   1.905   2.543  0.0514 -0.0797  0.4822
  991MOL0     C33652   6.402   1.928   2.541 -0.1155 -0.5061  0.1196
  991MOL0     O33653   6.458   2.013   2.624 -0.1121  0.3743 -0.3533
  991MOL0     C33654   6.395   2.045   2.744 -0.4282  0.0597 -0.1629
  991MOL0     C33655   6.402   2.172   2.788  0.5067 -0.9061 -0.3232
  991MOL0     C33656   6.339   2.203   2.910 -0.7325 -0.1206 -0.3053
  991MOL0     C33657   6.273   2.116   3.002  0.8740  0.0068 -0.6734
  991MOL0     O33658   6.206   2.158   3.113 -0.0209 -0.0070  0.0092
  991MOL0     C33659   6.275   2.128   3.231 -0.8240 -0.5277  0.1854
  991MOL0     C33660   6.187   2.167   3.358  0.0139  0.0738  1.3049
  991MOL0     C33661   6.237   2.113   3.492  0.3994  0.1811  0.6441
  991MOL0     C33662   6.330   2.209   3.558 -0.5369  1.0716  0.7054
  991MOL0     C33663   6.379   2.149   3.683 -0.5527  0.1935 -0.3787
  991MOL0     C33664   6.449   2.266   3.752  0.5827 -0.2542  0.0554
  991MOL0     C33665   6.533   2.222   3.865  0.2251 -0.4681 -1.1601
  991MOL0     C33666   6.529   2.299   3.998 -0.6566 -0.0994 -0.1918
  991MOL0     N33667   6.395   2.304   4.060 -0.1482 -1.0562  0.6081
  991MOL0     C33668   6.322   2.191   4.088 -0.1476 -0.0013  0.6993
  991MOL0     C33669   6.194   2.241   4.092 -0.4865 -0.0193 -0.7512
  991MOL0     C33670   6.073   2.149   4.098 -0.1452 -0.2719 -0.5618
  991MOL0     C33671   6.014   2.135   3.958  0.3818 -0.9912  0.0535
  991MOL0     C33672   5.938   1.999   3.950 -0.2783  0.4356 -0.4980
  991MOL0     C33673   5.848   1.982   3.831  0.1110 -0.3876  0.6362
  991MOL0     O33674   5.774   1.862   3.847  0.5899 -0.2554  0.0706
  991MOL0     C33675   5.812   1.762   3.758  0.4037  0.0543  0.3777
  991MOL0     C33676   5.788   1.776   3.613  0.0931 -0.3351 -0.6914
  991MOL0     C33677   5.835   1.688   3.523  0.5129 -0.1804 -0.0259
  991MOL0     C33678   5.904   1.577   3.565 -0.5669 -0.5885 -0.7765
  991MOL0     C33679   5.969   1.479   3.481  0.1459 -0.6656  0.5545
  991MOL0     O33680   5.987   1.352   3.527 -0.9651  0.2505 -0.1297
  991MOL0     C33681   6.091   1.266   3.491  0.2990 -0.6860  0.1768
  991MOL0     C33682   6.166   1.190   3.593 -0.9940 -0.3336  0.2352
  991MOL0     C33683   6.272   1.111   3.550 -0.4108  0.3127  0.2528
  991MOL0     C33684   6.305   1.091   3.415 -0.7670  0.8527 -0.1076
  991MOL0     O33685   6.410   1.007   3.380 -0.0918 -0.5728  0.1477
  991MOL0     C33686   6.498   1.052   3.277 -0.1388  0.0229  0.1757
  991MOL0     C33687   6.648   1.027   3.294  1.1264  0.4762 -0.1847
  991MOL0     C33688   6.715   1.105   3.405  0.4475  1.1255  1.1396
  991MOL0     C33689   6.850   1.167   3.362  0.8123 -0.3190 -0.0307
  991MOL0     C33690   6.939   1.233   3.474  0.7351  0.5453  0.7176
  991MOL0     C33691   6.862   1.341   3.561 -0.4992  0.1522 -0.1732
  991MOL0     C33692   6.938   1.434   3.650 -0.2399  0.0715 -1.2069
  991MOL0     C33693   7.019   1.376   3.771 -0.2432 -0.1606  0.7392
  991MOL0    Cl33694   6.906   1.316   3.896 -0.4289  0.1949  0.3305
  991MOL0     C33695   6.220   1.152   3.325 -0.5482  0.7730 -0.2023
  991MOL0     C33696   6.120   1.242   3.360  0.1537  1.3378 -0.4080
  991MOL0     O33697   6.002   1.522   3.371 -0.0393 -0.2556 -0.5754
  991MOL0     C33698   5.932   1.566   3.714  0.0731  0.7315 -0.0060
  991MOL0     C33699   5.887   1.651   3.804  0.5559 -0.1823 -0.3269
  991MOL0     N33700   6.200   2.381   4.093  0.2271 -0.2145 -0.3647
  991MOL0     N33701   6.322   2.417   4.068  0.6193  0.2400 -0.7291
  991MOL0     C33702   6.284   1.986   2.956  0.9657  0.5674 -0.1722
  991MOL0     C33703   6.341   1.946   2.829 -0.2505 -0.3108 -0.4131
  991MOL0     C33704   6.478   1.889   2.424 -0.0639  0.5060  0.4439
  991MOL0     C33705   6.444   1.928   2.298  0.4933  0.0237 -0.7699
  991MOL0     C33706   6.518   1.879   2.187 -0.8779 -0.8147  0.6689
  991MOL0     C33707   6.633   1.803   2.196 -0.1216  0.0791 -0.6757
  991MOL0     O33708   6.695   1.760   2.080  0.6438  0.2668  0.1607
  991MOL0     C33709   6.792   1.650   2.085 -0.1045 -0.8489  0.6289
  991MOL0     C33710   6.901   1.684   1.977 -0.6118  0.3342  0.2701
  991MOL0     C33711   6.976   1.828   1.998  0.4294  1.5063  0.3574
  991MOL0     C33712   7.077   1.857   1.885 -0.2291  0.6483 -0.7938
  991MOL0     C33713   6.999   1.852   1.760  0.0032 -0.1673 -0.7530
  991MOL0     C33714   6.924   1.849   1.668 -0.2466 -0.4969  0.2231
  991MOL0     C33715   6.670   1.778   2.332  0.5853 -0.4424  0.1462
  991MOL0     C33716   6.600   1.819   2.440  0.7138  0.0189  0.4855
  991MOL0     C33717   6.663   1.786   2.571 -0.8150 -0.5759 -0.3655
  991MOL0     H33718   6.446   2.258   2.739 -0.1420  0.4018  1.2847
  991MOL0     H33719   6.343   2.310   2.925  2.9484  0.0039 -1.0259
  991MOL0     H33720   6.300   2.021   3.231  0.2194 -0.4283 -3.0590
  991MOL0     H33721   6.369   2.182   3.244 -0.3927 -0.8847 -1.2098
  991MOL0     H33722   6.089   2.121   3.344 -1.6889  4.0861 -1.8439
  991MOL0     H33723   6.177   2.276   3.358 -0.8241  0.1664 -2.6212
  991MOL0     H33724   6.283   2.015   3.474 -0.7863 -0.5036  1.1707
  991MOL0     H33725   6.151   2.093   3.557  1.1513 -2.4814  0.9524
  991MOL0     H33726   6.422   2.219   3.499 -1.7293  1.4738 -1.1612
  991MOL0     H33727   6.279   2.306   3.559  0.6364  1.7197  0.8393
  991MOL0     H33728   6.301   2.102   3.745  0.0326 -3.0597 -1.8940
  991MOL0     H33729   6.448   2.065   3.667  2.8512  1.8211  3.8930
  991MOL0     H33730   6.514   2.322   3.684 -0.6935  0.2648 -0.7704
  991MOL0     H33731   6.378   2.340   3.791  1.0830  2.0493 -3.0568
  991MOL0     H33732   6.634   2.237   3.826 -0.2928  1.4444 -1.8462
  991MOL0     H33733   6.522   2.116   3.892 -1.6104  0.8293  4.7641
  991MOL0     H33734   6.600   2.263   4.073 -1.3027 -2.1038 -0.4662
  991MOL0     H33735   6.577   2.394   3.974 -0.4469 -0.5801 -1.7582
  991MOL0     H33736   6.358   2.089   4.091 -0.4628 -0.0855  2.3041
  991MOL0     H33737   6.100   2.050   4.136 -1.5333 -0.1313  0.8929
  991MOL0     H33738   5.993   2.182   4.164  0.1450  1.2864 -0.9332
  991MOL0     H33739   5.951   2.221   3.934  2.6401  0.9628  0.6995
  991MOL0     H33740   6.099   2.132   3.888 -0.0841 -3.0422 -0.5011
  991MOL0     H33741   5.890   1.980   4.047 -0.6717 -2.0598 -1.1044
  991MOL0     H33742   6.023   1.931   3.945 -0.7251 -0.0456 -2.8649
  991MOL0     H33743   5.914   1.983   3.743  3.0090  2.1573  2.6600
  991MOL0     H33744   5.789   2.071   3.808  1.2673 -0.0813 -1.4314
  991MOL0     H33745   5.735   1.865   3.581 -1.3474 -1.6896 -2.2470
  991MOL0     H33746   5.855   1.698   3.417 -2.2185 -1.7118 -0.7854
  991MOL0     H33747   6.139   1.192   3.698 -1.0540  1.1237  0.2101
  991MOL0     H33748   6.335   1.045   3.609  0.3426  0.3901 -0.4446
  991MOL0     H33749   6.475   1.008   3.179 -1.3994  1.2059 -0.0952
  991MOL0     H33750   6.497   1.161   3.271  2.9185  0.0839 -0.4437
  991MOL0     H33751   6.668   0.927   3.335 -0.7343  0.2061  0.1619
  991MOL0     H33752   6.693   1.051   3.197 -1.7819  2.8154 -1.1130
  991MOL0     H33753   6.640   1.180   3.431 -2.0297 -0.8796  0.2386
  991MOL0     H33754   6.738   1.034   3.485  0.2902 -1.2802 -0.8348
  991MOL0     H33755   6.817   1.252   3.302 -2.1906  0.6105  2.6682
  991MOL0     H33756   6.913   1.100   3.302  4.4280  1.5500  1.3521
  991MOL0     H33757   7.020   1.292   3.429  1.4981 -0.2316  1.0291
  991MOL0     H33758   6.989   1.146   3.516  0.1483 -2.2673 -3.7741
  991MOL0     H33759   6.811   1.398   3.483 -3.1357 -1.3084  0.3767
  991MOL0     H33760   6.777   1.301   3.617 -1.0249  1.3774 -0.0412
  991MOL0     H33761   6.875   1.510   3.698  0.2249  0.1397 -0.6903
  991MOL0     H33762   7.006   1.488   3.583  2.4990  0.1056  1.3719
  991MOL0     H33763   7.080   1.291   3.739 -0.4840 -0.1706  0.3006
  991MOL0     H33764   7.087   1.455   3.804 -1.1688  1.3258 -0.7201
  991MOL0     H33765   6.244   1.145   3.219  0.3376 -4.4988  0.0791
  991MOL0     H33766   6.067   1.297   3.283 -1.0692  1.1634  0.2825
  991MOL0     H33767   5.997   1.482   3.739 -1.9896 -0.8038  0.4930
  991MOL0     H33768   5.919   1.641   3.907  3.8630 -0.0497 -1.2457
  991MOL0     H33769   6.248   1.901   3.013  3.5507 -0.3156  0.2843
  991MOL0     H33770   6.358   1.841   2.803 -0.8155 -0.4935 -0.0669
  991MOL0     H33771   6.359   1.994   2.281 -0.3614 -1.2903 -1.8596
  991MOL0     H33772   6.492   1.887   2.082  6.1573 -2.1797 -1.7644
  991MOL0     H33773   6.744   1.552   2.070  2.2896 -1.8651 -0.8916
  991MOL0     H33774   6.829   1.643   2.188 -5.5785 -1.2772  2.9419
  991MOL0     H33775   6.847   1.677   1.883 -1.1351  0.7968  0.5279
  991MOL0     H33776   6.966   1.596   1.964 -0.0239  0.9032 -0.8012
  991MOL0     H33777   7.033   1.802   2.088  0.6849  2.3071  0.4296
  991MOL0     H33778   6.893   1.899   2.007 -1.9570 -0.7494 -2.0370
  991MOL0     H33779   7.127   1.954   1.892 -0.9696  0.9124  2.6779
  991MOL0     H33780   7.157   1.783   1.896 -0.7374  0.3325  1.1828
  991MOL0     H33781   6.845   1.860   1.596 -1.1624  1.3822  1.4019
  991MOL0     H33782   6.767   1.730   2.338  0.8483  0.0439 -0.2489
  991MOL0     H33783   6.725   1.875   2.589 -0.7526 -0.5504 -0.7106
  991MOL0     H33784   6.579   1.773   2.639 -1.0551  0.0967 -0.5267
  991MOL0     H33785   6.738   1.707   2.579 -0.2877  0.0889  2.1479
  992MOL0     O33786   6.100   5.362   0.088  0.0350 -0.4971 -0.4885
  992MOL0     C33787   6.100   5.318  -0.026  0.0293  0.4954 -1.4410
  992MOL0     O33788   6.182   5.362  -0.133 -0.8438  1.1072 -0.4535
  992MOL0     C33789   6.287   5.446  -0.116  0.1432 -0.5890 -0.5743
  992MOL0     C33790   6.331   5.509  -0.226 -0.5543  0.1571  1.2415
  992MOL0     C33791   6.450   5.595  -0.223 -0.1024  0.6325 -0.3055
  992MOL0     C33792   6.514   5.622  -0.093 -0.2359  0.5891  0.1597
  992MOL0     O33793   6.627   5.702  -0.074 -0.1939 -0.4548 -0.9032
  992MOL0     C33794   6.693   5.762  -0.184  0.7015 -0.5800  0.5844
  992MOL0     C33795   6.831   5.801  -0.128  0.5880 -0.5036  0.4272
  992MOL0     C33796   6.816   5.935  -0.051 -0.6876  0.0346 -0.4286
  992MOL0     C33797   6.954   5.994  -0.012  0.0428  0.9388  0.0562
  992MOL0     C33798   6.941   6.142   0.029 -0.3305  0.4014 -0.0549
  992MOL0     C33799   7.066   6.200   0.100 -0.4514  0.1367  0.0243
  992MOL0     C33800   7.202   6.139   0.063  0.4465  0.0381  0.1285
  992MOL0     C33801   7.308   6.220   0.143 -0.8195  0.0063  0.2840
  992MOL0     N33802   7.403   6.297   0.058  0.0852  0.2968  0.1659
  992MOL0     C33803   7.532   6.316   0.100  0.1095 -0.0113 -0.1402
  992MOL0     C33804   7.590   6.376  -0.006 -0.3223 -0.2389 -0.6850
  992MOL0     C33805   7.742   6.412  -0.006  0.0827  0.2175 -0.4058
  992MOL0     C33806   7.757   6.553   0.049 -0.1459 -0.2182 -0.0869
  992MOL0     C33807   7.898   6.603   0.042  0.1917  0.6903  1.0367
  992MOL0     C33808   8.000   6.542   0.144  0.5072  0.0926  0.9304
  992MOL0     O33809   8.126   6.618   0.147  0.3898 -0.0396 -0.1962
  992MOL0     C33810   8.232   6.545   0.108 -0.6388 -0.5261  0.0430
  992MOL0     C33811   8.285   6.440   0.183  0.2214  0.8762 -0.4690
  992MOL0     C33812   8.381   6.358   0.125  0.0903  0.5550  0.8400
  992MOL0     C33813   8.434   6.375  -0.004  0.2245  0.2467  0.5748
  992MOL0     C33814   8.538   6.296  -0.058 -0.3385 -0.8556 -0.2079
  992MOL0     O33815   8.513   6.248  -0.177 -0.7030 -0.9511  0.1358
  992MOL0     C33816   8.606   6.156  -0.223  0.9671 -0.4341  0.2170
  992MOL0     C33817   8.726   6.193  -0.282  0.3137 -0.8322  0.3155
  992MOL0     C33818   8.813   6.100  -0.341 -0.3740 -0.0941  0.9471
  992MOL0     C33819   8.781   5.963  -0.340 -0.2278 -1.0631  0.0341
  992MOL0     O33820   8.847   5.860  -0.402 -0.3394 -0.4560  0.9294
  992MOL0     C33821   8.989   5.865  -0.383  1.0780  0.0378  0.7748
  992MOL0     C33822   9.022   5.721  -0.394  0.2618  1.0254  0.9990
  992MOL0     C33823   9.068   5.669  -0.253 -0.1048 -0.2048  0.1431
  992MOL0     C33824   9.085   5.519  -0.245 -0.5445 -0.2550  0.3439
  992MOL0     C33825   9.155   5.471  -0.116  0.1813 -0.2606  0.5955
  992MOL0     C33826   9.168   5.316  -0.114 -0.5469 -0.3493 -0.0787
  992MOL0     C33827   9.222   5.250  -0.249  0.8455 -0.6010  0.2793
  992MOL0     C33828   9.351   5.311  -0.300  0.7737 -0.4765 -0.5205
  992MOL0    Cl33829   9.387   5.220  -0.451  0.1069 -0.4121  0.3181
  992MOL0     C33830   8.661   5.935  -0.297 -0.0828  0.9950 -0.8138
  992MOL0     C33831   8.572   6.023  -0.241  0.3513  0.2896 -0.8658
  992MOL0     O33832   8.645   6.294  -0.001  0.5153  0.3869  0.3095
  992MOL0     C33833   8.370   6.475  -0.082  0.5304  0.5602 -0.2140
  992MOL0     C33834   8.271   6.559  -0.024  0.0814  0.7291  0.5720
  992MOL0     N33835   7.485   6.421  -0.096 -0.6141 -0.0445 -0.2001
  992MOL0     N33836   7.370   6.373  -0.056 -0.6121  0.1613 -0.5102
  992MOL0     C33837   6.461   5.557   0.017 -0.8030  0.4312 -0.4418
  992MOL0     C33838   6.345   5.471   0.011 -0.0206 -1.4511 -0.1367
  992MOL0     C33839   6.000   5.210  -0.061  0.6806 -0.3348  0.1431
  992MOL0     C33840   6.018   5.143  -0.182 -0.4205 -0.0413  0.4941
  992MOL0     C33841   5.924   5.037  -0.213  0.8704 -0.0164 -0.4277
  992MOL0     C33842   5.808   5.003  -0.140  0.1236 -0.7543  0.4711
  992MOL0     O33843   5.702   4.921  -0.168  0.2287 -0.1943  1.1156
  992MOL0     C33844   5.705   4.854  -0.298 -0.5195 -0.8681 -0.3128
  992MOL0     C33845   5.578   4.772  -0.306 -0.0712 -0.0766  0.1842
  992MOL0     C33846   5.590   4.656  -0.203 -0.2041 -0.1154 -0.7544
  992MOL0     C33847   5.442   4.606  -0.186  0.0530  0.6092 -0.4548
  992MOL0     C33848   5.441   4.488  -0.101  0.5074 -0.2919 -0.2011
  992MOL0     C33849   5.410   4.389  -0.036 -0.8835 -0.4168 -0.0795
  992MOL0     C33850   5.799   5.071  -0.018  0.2734  0.6799 -0.0133
  992MOL0     C33851   5.884   5.179   0.018  0.1786  0.1663 -0.0925
  992MOL0     C33852   5.846   5.246   0.148  0.3442  0.2066  0.0835
  992MOL0     H33853   6.284   5.481  -0.319 -0.3812 -0.3282  1.2944
  992MOL0     H33854   6.475   5.655  -0.310  1.6225 -0.0842 -0.3373
  992MOL0     H33855   6.695   5.684  -0.261 -1.1187 -1.0311  0.9472
  992MOL0     H33856   6.621   5.840  -0.209 -0.0108 -1.2639  0.4732
  992MOL0     H33857   6.898   5.816  -0.213 -0.9730  1.7983 -0.4821
  992MOL0     H33858   6.867   5.722  -0.062 -2.7169 -1.0566  1.8004
  992MOL0     H33859   6.751   5.919   0.036 -0.1773  0.8425  0.1211
  992MOL0     H33860   6.756   6.007  -0.108 -1.9831 -0.1343  0.6636
  992MOL0     H33861   6.988   5.937   0.075 -2.5776 -0.8079  0.0578
  992MOL0     H33862   7.020   6.000  -0.099 -1.9333  0.6034 -1.5297
  992MOL0     H33863   6.925   6.205  -0.059 -3.4770 -3.4889 -2.6242
  992MOL0     H33864   6.851   6.149   0.090  0.5692  1.2970  1.2207
  992MOL0     H33865   7.067   6.309   0.085  1.8134  0.2280  0.4698
  992MOL0     H33866   7.038   6.186   0.204  0.4401 -0.3738  0.2043
  992MOL0     H33867   7.202   6.155  -0.046 -3.4069 -0.2742 -0.0333
  992MOL0     H33868   7.216   6.032   0.078 -4.2301 -1.0661 -1.8201
  992MOL0     H33869   7.266   6.281   0.224  1.2276 -0.3871  1.7306
  992MOL0     H33870   7.367   6.140   0.190  0.8613  0.3942 -1.0902
  992MOL0     H33871   7.583   6.283   0.191 -0.7333  0.7721  0.6300
  992MOL0     H33872   7.786   6.330   0.053  0.3167 -1.5667 -2.8686
  992MOL0     H33873   7.781   6.402  -0.108 -0.1005  0.0487 -0.4610
  992MOL0     H33874   7.691   6.629   0.006  1.2312  2.9409  2.9177
  992MOL0     H33875   7.714   6.554   0.149  0.4576  2.9460  0.2333
  992MOL0     H33876   7.916   6.708   0.070  4.0766 -0.0115  1.7741
  992MOL0     H33877   7.944   6.586  -0.055 -2.6376  0.2400 -0.3050
  992MOL0     H33878   8.015   6.441   0.106  1.5958 -0.0141  1.6037
  992MOL0     H33879   7.961   6.533   0.245  1.0184 -2.7331  0.9630
  992MOL0     H33880   8.254   6.415   0.283 -1.4572 -0.2546 -1.2276
  992MOL0     H33881   8.411   6.267   0.176  1.0214  0.1469 -0.3805
  992MOL0     H33882   8.750   6.299  -0.280 -0.6031 -0.5686 -1.0489
  992MOL0     H33883   8.893   6.150  -0.395 -1.8390  1.4710  0.1368
  992MOL0     H33884   9.040   5.912  -0.468 -1.0687 -1.9554 -1.7719
  992MOL0     H33885   9.019   5.907  -0.286  2.4953 -2.5372  1.5260
  992MOL0     H33886   8.939   5.663  -0.436  1.2837  0.8337 -0.8711
  992MOL0     H33887   9.112   5.702  -0.454  0.1891 -2.1456  1.6889
  992MOL0     H33888   9.155   5.725  -0.218  0.2852  0.9398 -2.4716
  992MOL0     H33889   8.994   5.694  -0.176  0.7516 -0.1801  0.9839
  992MOL0     H33890   9.135   5.489  -0.338 -5.0408 -2.2315 -1.7288
  992MOL0     H33891   8.991   5.465  -0.256 -0.2814 -0.7168  0.3218
  992MOL0     H33892   9.119   5.512  -0.021  1.1061  0.9401  0.4492
  992MOL0     H33893   9.256   5.512  -0.125  0.9665 -2.3589 -1.2337
  992MOL0     H33894   9.245   5.302  -0.037 -0.4904  2.4873  0.5078
  992MOL0     H33895   9.071   5.282  -0.080 -1.7346  2.0751 -0.7793
  992MOL0     H33896   9.146   5.242  -0.328  2.4913 -2.0789 -1.2525
  992MOL0     H33897   9.253   5.150  -0.221  1.0660  0.4632  4.4363
  992MOL0     H33898   9.341   5.418  -0.323  1.1759 -0.0374  1.2082
  992MOL0     H33899   9.435   5.296  -0.232  1.7811  1.7428 -1.1518
  992MOL0     H33900   8.639   5.831  -0.318 -1.0815  1.0779 -0.2582
  992MOL0     H33901   8.474   5.983  -0.214 -2.1116  3.9494 -3.3964
  992MOL0     H33902   8.390   6.482  -0.189 -4.5737  0.2668 -1.4349
  992MOL0     H33903   8.214   6.618  -0.095  1.0161 -0.2216 -1.0354
  992MOL0     H33904   6.513   5.565   0.111 -1.3847 -0.6773 -0.0151
  992MOL0     H33905   6.315   5.428   0.106 -1.6265  2.3141  1.2662
  992MOL0     H33906   6.092   5.170  -0.256 -2.5945  0.0273 -1.7745
  992MOL0     H33907   5.933   4.998  -0.314  2.0855  2.0352 -1.1706
  992MOL0     H33908   5.793   4.793  -0.317 -1.4343 -2.0779 -0.7418
  992MOL0     H33909   5.711   4.917  -0.388  1.1825 -1.4930 -0.6736
  992MOL0     H33910   5.583   4.724  -0.404 -1.7628  1.3403 -0.6533
  992MOL0     H33911   5.492   4.838  -0.294  2.0783  3.2712 -1.3674
  992MOL0     H33912   5.638   4.689  -0.110 -2.6875  1.7709 -0.0264
  992MOL0     H33913   5.655   4.575  -0.238  0.7146  0.3281 -0.1277
  992MOL0     H33914   5.394   4.689  -0.132  0.0234 -0.2931  0.9625
  992MOL0     H33915   5.392   4.585  -0.281  2.0470 -1.1415 -1.1889
  992MOL0     H33916   5.403   4.300   0.023 -2.2562  0.0216  0.4516
  992MOL0     H33917   5.706   5.061   0.037 -1.9395  0.1712 -3.5470
  992MOL0     H33918   5.931   5.226   0.214  2.0343 -0.3874 -2.1480
  992MOL0     H33919   5.832   5.353   0.130 -0.1600 -0.0646 -1.2076
  992MOL0     H33920   5.756   5.205   0.194  1.7062  0.8359  3.6410
  993MOL0     O33921   7.142   4.353  10.145 -0.8540 -0.5120  0.0382
  993MOL0     C33922   7.099   4.273  10.067  0.2811  0.6212 -0.6303
  993MOL0     O33923   6.969   4.241  10.044 -0.3187  0.2846  1.0699
  993MOL0     C33924   6.860   4.270  10.130 -0.6102  0.7051 -0.9360
  993MOL0     C33925   6.853   4.203  10.260  0.5536 -0.7617  0.6918
  993MOL0     C33926   6.745   4.225  10.342  0.6752 -0.3163 -0.2952
  993MOL0     C33927   6.634   4.312  10.307 -0.0182  0.1508 -0.2761
  993MOL0     O33928   6.530   4.319  10.397 -0.4118  0.4029  0.7523
  993MOL0     C33929   6.572   4.385  10.519  0.2810  0.0593 -0.2486
  993MOL0     C33930   6.455   4.399  10.615 -0.2837 -0.0031 -0.1998
  993MOL0     C33931   6.343   4.486  10.560  0.6813 -0.0510  0.6102
  993MOL0     C33932   6.211   4.482  10.647  0.6754 -0.4196 -0.3026
  993MOL0     C33933   6.107   4.587  10.607 -0.5641  0.0559  1.7073
  993MOL0     C33934   5.961   4.542  10.645 -0.9012  0.2323 -0.0094
  993MOL0     C33935   5.843   4.637  10.603 -0.1935 -0.0446 -0.2888
  993MOL0     C33936   5.800   4.727  10.718 -0.6139  0.4307 -0.3369
  993MOL0     N33937   5.687   4.804  10.686  0.6924 -0.3385 -0.7577
  993MOL0     C33938   5.673   4.893  10.586  0.3367 -0.0396 -0.2803
  993MOL0     C33939   5.550   4.946  10.606  0.6017  0.0556 -0.2082
  993MOL0     C33940   5.467   5.051  10.529 -0.3493  0.1614 -0.4088
  993MOL0     C33941   5.550   5.117  10.418  0.2181  0.4614  0.2452
  993MOL0     C33942   5.479   5.248  10.377 -0.7035  0.0149  0.2885
  993MOL0     C33943   5.563   5.357  10.321 -0.2241 -0.5704 -0.3578
  993MOL0     O33944   5.482   5.465  10.283 -0.4577 -0.7188 -0.1148
  993MOL0     C33945   5.380   5.442  10.188  0.2530  0.2464 -0.7021
  993MOL0     C33946   5.253   5.490  10.209  0.3095  0.0957 -0.2528
  993MOL0     C33947   5.144   5.454  10.131 -0.8308  0.5285  0.2986
  993MOL0     C33948   5.163   5.375  10.011 -0.3048 -0.4502  0.0044
  993MOL0     C33949   5.055   5.332   9.924 -0.1038 -0.0012  0.5943
  993MOL0     O33950   5.077   5.280   9.801  0.0541 -0.1659  0.1056
  993MOL0     C33951   4.988   5.219   9.725 -0.2503  0.7548 -0.1770
  993MOL0     C33952   4.895   5.289   9.646  0.6191  0.2576 -0.9490
  993MOL0     C33953   4.835   5.212   9.543 -0.4508  0.7666 -0.3124
  993MOL0     C33954   4.865   5.071   9.524  0.5289  0.6452 -0.3081
  993MOL0     O33955   4.816   5.007   9.409  0.2531  0.4803 -0.0310
  993MOL0     C33956   4.808   4.863   9.404 -0.8329 -0.0361  0.6080
  993MOL0     C33957   4.733   4.793   9.280 -0.0050  0.2418  0.0480
  993MOL0     C33958   4.580   4.804   9.285 -0.4369  0.8419 -0.3093
  993MOL0     C33959   4.517   4.735   9.167 -0.4066 -0.0999  0.8721
  993MOL0     C33960   4.365   4.738   9.173  0.1890  0.1175  0.7547
  993MOL0     C33961   4.308   4.639   9.062 -0.0146 -0.9667 -0.3886
  993MOL0     C33962   4.322   4.703   8.926  0.8385  0.1618  0.3215
  993MOL0     C33963   4.259   4.616   8.816  0.1590 -0.6284 -0.0074
  993MOL0    Cl33964   4.320   4.448   8.805  0.4840 -0.2992  0.0034
  993MOL0     C33965   4.946   5.003   9.613 -0.0541  0.2082  0.0865
  993MOL0     C33966   5.002   5.083   9.712 -0.3468 -0.5952  0.3200
  993MOL0     O33967   4.945   5.356   9.973 -0.1007  0.0241 -0.4778
  993MOL0     C33968   5.294   5.334   9.985  0.2955  0.7386  0.7149
  993MOL0     C33969   5.396   5.371  10.072  0.7095  0.4032 -0.0056
  993MOL0     N33970   5.488   4.887  10.719  0.5912 -0.5936  0.5705
  993MOL0     N33971   5.581   4.813  10.764  0.2315 -0.2849 -0.3241
  993MOL0     C33972   6.642   4.374  10.190  0.0323 -0.4306  0.9043
  993MOL0     C33973   6.748   4.352  10.096 -0.4814 -0.1600 -0.3379
  993MOL0     C33974   7.201   4.200   9.983  0.5356  0.0298  0.4797
  993MOL0     C33975   7.323   4.162  10.045 -0.4480 -0.5308 -1.2718
  993MOL0     C33976   7.406   4.072   9.977  0.1832  0.2235  0.7464
  993MOL0     C33977   7.382   4.039   9.841 -0.4204  0.7332 -0.4180
  993MOL0     O33978   7.462   3.970   9.760  0.2943  0.4034  0.1616
  993MOL0     C33979   7.543   3.860   9.804 -0.6209  0.2464 -0.3117
  993MOL0     C33980   7.522   3.730   9.727 -1.1018  0.1864  0.4091
  993MOL0     C33981   7.571   3.730   9.578 -0.0164  0.2115 -0.8167
  993MOL0     C33982   7.599   3.603   9.514  0.5260  0.8652 -0.4077
  993MOL0     C33983   7.487   3.509   9.500 -0.0057  0.0798 -0.3122
  993MOL0     C33984   7.391   3.437   9.503 -0.4036 -0.1642  0.3572
  993MOL0     C33985   7.275   4.096   9.781  0.2668  0.0001  0.2927
  993MOL0     C33986   7.181   4.175   9.844 -0.5282 -0.0739 -0.2649
  993MOL0     C33987   7.066   4.212   9.759  0.9303  0.0794 -0.4426
  993MOL0     H33988   6.938   4.144  10.293  1.3503  0.0759  0.1860
  993MOL0     H33989   6.740   4.173  10.437 -2.2276 -1.2679 -0.8630
  993MOL0     H33990   6.643   4.324  10.576  0.2851  0.9706  0.7442
  993MOL0     H33991   6.616   4.482  10.494  2.0022 -0.8222 -0.8064
  993MOL0     H33992   6.502   4.441  10.704  1.9550 -0.9101 -0.8561
  993MOL0     H33993   6.416   4.297  10.629  0.0975 -0.1503 -0.1912
  993MOL0     H33994   6.301   4.441  10.470 -0.2923 -0.6813  1.3608
  993MOL0     H33995   6.379   4.587  10.539  1.9896 -0.3071  1.4741
  993MOL0     H33996   6.170   4.381  10.637  1.4919 -0.7092 -0.7396
  993MOL0     H33997   6.232   4.499  10.753  1.6177  2.9142 -0.9124
  993MOL0     H33998   6.148   4.679  10.649  0.9076  0.3998 -0.3290
  993MOL0     H33999   6.094   4.588  10.499 -1.6040 -1.9188  1.7638
  993MOL0     H34000   5.937   4.443  10.603  0.2531 -0.9799  2.0123
  993MOL0     H34001   5.959   4.533  10.754  1.8440  0.5162  0.1366
  993MOL0     H34002   5.755   4.579  10.573 -1.7369  1.4201  1.1728
  993MOL0     H34003   5.879   4.693  10.516  1.0313 -0.3409  0.0005
  993MOL0     H34004   5.780   4.664  10.806  1.7543 -0.4037 -0.3121
  993MOL0     H34005   5.885   4.793  10.735 -1.6996  2.0548 -1.0098
  993MOL0     H34006   5.749   4.920  10.512 -1.1840  1.1966 -1.4624
  993MOL0     H34007   5.374   5.008  10.491 -0.3111 -0.2685 -0.0196
  993MOL0     H34008   5.438   5.124  10.605 -1.6784  2.4479 -2.9004
  993MOL0     H34009   5.649   5.144  10.456  0.6772 -2.3287  1.2799
  993MOL0     H34010   5.578   5.040  10.346  3.1305 -0.8418  2.5393
  993MOL0     H34011   5.445   5.294  10.470 -1.7857 -0.2495  0.0315
  993MOL0     H34012   5.398   5.220  10.309  0.7793  0.0537 -1.5670
  993MOL0     H34013   5.618   5.317  10.235  1.0043  0.8815 -0.2835
  993MOL0     H34014   5.633   5.396  10.396 -1.5153  2.5457 -0.6698
  993MOL0     H34015   5.247   5.546  10.302  1.3002 -0.0588 -0.0772
  993MOL0     H34016   5.041   5.476  10.158 -0.9589  1.2104 -0.6786
  993MOL0     H34017   4.891   5.398   9.654 -0.9392  0.2610 -1.4391
  993MOL0     H34018   4.785   5.274   9.469  3.1781  0.9094 -2.9417
  993MOL0     H34019   4.907   4.819   9.398 -0.4279  0.9694 -0.5438
  993MOL0     H34020   4.756   4.831   9.495 -3.5419  0.3838 -0.6705
  993MOL0     H34021   4.777   4.830   9.188  1.0601  2.1360  1.2551
  993MOL0     H34022   4.766   4.690   9.297  4.4689  1.8898  3.8017
  993MOL0     H34023   4.553   4.759   9.381 -0.7695  1.0419 -0.3042
  993MOL0     H34024   4.561   4.912   9.295  1.6240  1.1133  1.1818
  993MOL0     H34025   4.561   4.635   9.177  1.4917  0.8280  2.4987
  993MOL0     H34026   4.540   4.777   9.069 -0.9084 -0.5704  0.5449
  993MOL0     H34027   4.322   4.839   9.176  0.2083  0.3073 -2.3470
  993MOL0     H34028   4.335   4.680   9.261 -3.2774 -1.7146 -1.4132
  993MOL0     H34029   4.374   4.552   9.068  1.0381 -0.0730  2.7592
  993MOL0     H34030   4.206   4.604   9.083 -0.9491  0.4900 -2.1965
  993MOL0     H34031   4.427   4.721   8.903  1.1091 -1.0114  0.5882
  993MOL0     H34032   4.280   4.804   8.928  0.9348  0.2006  1.7846
  993MOL0     H34033   4.150   4.615   8.832  0.1853 -1.7454  0.1753
  993MOL0     H34034   4.271   4.674   8.724 -1.3934 -0.3924 -0.0890
  993MOL0     H34035   4.968   4.897   9.613  2.4575  0.5782  2.9711
  993MOL0     H34036   5.085   5.041   9.769 -0.0019 -1.4604 -0.7671
  993MOL0     H34037   5.311   5.282   9.891 -3.1843  1.8509 -0.6945
  993MOL0     H34038   5.492   5.354  10.024  0.9107  0.1301  0.4833
  993MOL0     H34039   6.555   4.434  10.163 -0.0940 -0.8420  0.3788
  993MOL0     H34040   6.739   4.395   9.997  0.1457 -3.3292 -1.9055
  993MOL0     H34041   7.337   4.200  10.146 -2.6232  2.3782 -1.9465
  993MOL0     H34042   7.495   4.022  10.013  0.0703 -1.3792 -1.0114
  993MOL0     H34043   7.518   3.846   9.910  2.2633  2.6673  0.8472
  993MOL0     H34044   7.646   3.896   9.815  0.6710 -1.7548 -4.1196
  993MOL0     H34045   7.418   3.698   9.738 -0.1699 -2.9271  1.1546
  993MOL0     H34046   7.580   3.652   9.777  1.3774  1.5341 -0.2050
  993MOL0     H34047   7.664   3.787   9.588 -1.9531  3.3627  0.6658
  993MOL0     H34048   7.502   3.794   9.522 -0.8750 -1.9413 -2.3663
  993MOL0     H34049   7.634   3.617   9.411  2.5425 -0.3415  0.0429
  993MOL0     H34050   7.687   3.550   9.554 -0.0489  0.6579  0.6102
  993MOL0     H34051   7.314   3.365   9.520 -0.0530 -0.4523  0.7701
  993MOL0     H34052   7.244   4.066   9.681  0.2976  1.3246 -0.1399
  993MOL0     H34053   6.975   4.153   9.775  1.4367 -0.9112 -1.1329
  993MOL0     H34054   7.036   4.315   9.783 -4.1010 -1.3343  0.5046
  993MOL0     H34055   7.079   4.199   9.651 -1.1492  1.4719 -0.9365
  994MOL0     O34056   8.336   1.144   8.185  0.3359 -0.2154  0.2631
  994MOL0     C34057   8.341   1.119   8.303 -0.5027 -0.3963 -0.1508
  994MOL0     O34058   8.445   1.064   8.371 -0.8030  0.6847  0.4498
  994MOL0     C34059   8.571   1.055   8.315 -0.1159  0.8682  0.9201
  994MOL0     C34060   8.663   0.966   8.389  0.0481 -0.4927  0.3597
  994MOL0     C34061   8.799   0.961   8.350 -0.4066  0.0408 -0.7031
  994MOL0     C34062   8.845   1.031   8.237 -0.7298  0.0310  0.1969
  994MOL0     O34063   8.981   1.019   8.204  0.6962  0.5369  0.3552
  994MOL0     C34064   9.038   1.118   8.122 -1.3520  0.1906  0.8680
  994MOL0     C34065   9.187   1.167   8.163  0.1220 -0.0346  1.1075
  994MOL0     C34066   9.203   1.213   8.311 -0.1919  0.1085  0.4969
  994MOL0     C34067   9.212   1.101   8.407  0.9565 -0.6254 -0.5127
  994MOL0     C34068   9.207   1.143   8.547 -0.0850  0.2989  0.2111
  994MOL0     C34069   9.249   1.026   8.645 -0.1207 -0.0438 -0.7440
  994MOL0     C34070   9.220   1.058   8.790  0.0483 -0.4059 -0.1494
  994MOL0     C34071   9.279   1.190   8.854 -0.2335 -0.7262  0.6740
  994MOL0     N34072   9.431   1.183   8.859  0.0135  0.5157 -0.3732
  994MOL0     C34073   9.497   1.233   8.968 -0.1335 -0.4699 -0.3056
  994MOL0     C34074   9.618   1.201   8.941 -0.5778  0.5081  0.2999
  994MOL0     C34075   9.732   1.233   9.024  0.2089  0.0030 -0.1562
  994MOL0     C34076   9.749   1.119   9.120 -0.4825 -0.2683 -0.5868
  994MOL0     C34077   9.648   1.130   9.236  0.9777  0.2697 -0.0849
  994MOL0     C34078   9.723   1.159   9.369 -0.5239  0.3215 -0.4073
  994MOL0     O34079   9.806   1.037   9.402  0.1474 -0.4569 -0.4943
  994MOL0     C34080   9.854   1.010   9.527  0.2651  0.3211 -0.0871
  994MOL0     C34081   9.830   1.092   9.634 -0.5325 -0.2423  0.3227
  994MOL0     C34082   9.860   1.053   9.766  0.0807  0.2431 -0.3703
  994MOL0     C34083   9.916   0.929   9.789  0.4321  0.9828  0.1871
  994MOL0     C34084   9.912   0.878   9.933  0.0637 -0.2854 -0.1846
  994MOL0     O34085   9.914   0.743   9.948 -0.3784 -0.1914 -0.1134
  994MOL0     C34086   9.926   0.694  10.075  0.2926 -0.3275  0.4601
  994MOL0     C34087  10.040   0.615  10.107  0.1582 -0.6332  0.7956
  994MOL0     C34088  10.043   0.556  10.236 -0.3545 -0.2077  0.3796
  994MOL0     C34089   9.947   0.578  10.339 -0.4658  0.4282  0.6015
  994MOL0     O34090   9.965   0.516  10.459 -0.0611 -0.6323  0.3497
  994MOL0     C34091   9.911   0.580  10.574 -0.0536 -1.0123  0.1252
  994MOL0     C34092   9.934   0.503  10.708 -1.3446  0.0658  0.8068
  994MOL0     C34093   9.855   0.370  10.711  0.4220 -0.0117 -0.0693
  994MOL0     C34094   9.875   0.309  10.853  0.2876 -0.0343 -0.4605
  994MOL0     C34095   9.813   0.166  10.859 -0.3978 -0.0010  0.6136
  994MOL0     C34096   9.796   0.100  10.996 -0.2658  0.3773  0.6042
  994MOL0     C34097   9.748  -0.044  10.978  0.5891 -1.2317  0.2008
  994MOL0     C34098   9.717  -0.082  11.124 -0.0863 -0.3884 -0.3064
  994MOL0    Cl34099   9.664  -0.249  11.146  0.4058 -0.0721  0.1334
  994MOL0     C34100   9.837   0.656  10.297  0.7602  0.6621 -0.1597
  994MOL0     C34101   9.832   0.717  10.171 -0.3121 -0.8722 -0.2603
  994MOL0     O34102   9.898   0.956  10.026 -0.0162 -0.4051  0.3793
  994MOL0     C34103   9.960   0.854   9.675  0.5686 -0.5481 -1.1074
  994MOL0     C34104   9.932   0.896   9.546  0.1433 -0.2682 -1.0676
  994MOL0     N34105   9.631   1.132   8.824  0.0714  0.7751 -0.3711
  994MOL0     N34106   9.509   1.130   8.769  0.6171 -0.0576  0.5975
  994MOL0     C34107   8.756   1.113   8.169  0.9321  0.3707  1.0191
  994MOL0     C34108   8.617   1.126   8.202 -0.4475 -1.0760  0.4379
  994MOL0     C34109   8.218   1.149   8.378 -0.0367  0.5176 -0.3109
  994MOL0     C34110   8.224   1.092   8.508 -0.8384 -0.1482 -0.6145
  994MOL0     C34111   8.110   1.083   8.594  0.7609 -0.2639 -0.0212
  994MOL0     C34112   7.986   1.139   8.551 -0.0542 -0.0060 -0.1889
  994MOL0     O34113   7.860   1.123   8.615  0.7357 -0.2006  0.7352
  994MOL0     C34114   7.853   1.088   8.754 -0.1308 -0.1957  0.3755
  994MOL0     C34115   7.727   1.163   8.814  0.3364  0.2250 -0.5542
  994MOL0     C34116   7.744   1.173   8.964  0.0850 -0.6179 -0.1999
  994MOL0     C34117   7.633   1.256   9.032  0.5687  0.1022 -0.6560
  994MOL0     C34118   7.648   1.259   9.175 -0.3491  0.1176 -0.3243
  994MOL0     C34119   7.666   1.257   9.294  0.2710 -0.2677 -0.3337
  994MOL0     C34120   7.996   1.220   8.433 -0.4282 -0.1464 -0.4669
  994MOL0     C34121   8.100   1.213   8.343  0.6376  0.7457  0.9252
  994MOL0     C34122   8.082   1.282   8.210  0.3579  0.1025 -0.3072
  994MOL0     H34123   8.646   0.903   8.476 -1.9718  0.1830  0.5153
  994MOL0     H34124   8.867   0.889   8.395 -0.8953  0.4930  0.8211
  994MOL0     H34125   9.054   1.075   8.023  0.6764 -1.2817  1.7492
  994MOL0     H34126   8.986   1.214   8.120  0.2676  1.1680 -2.5901
  994MOL0     H34127   9.213   1.256   8.104 -1.6369 -1.0580 -1.4048
  994MOL0     H34128   9.264   1.091   8.144 -0.8997 -0.5990 -1.1638
  994MOL0     H34129   9.110   1.264   8.342 -1.9459 -2.5300 -0.1190
  994MOL0     H34130   9.282   1.288   8.304 -1.0653  1.1573  1.2831
  994MOL0     H34131   9.126   1.034   8.410  1.2839 -1.0757  2.6802
  994MOL0     H34132   9.312   1.057   8.402  1.0842 -0.7069  1.7109
  994MOL0     H34133   9.272   1.230   8.555  1.2011 -0.5064 -1.0415
  994MOL0     H34134   9.104   1.175   8.567 -1.3841 -2.4286 -1.4442
  994MOL0     H34135   9.182   0.947   8.611 -1.0949  1.5388 -2.7534
  994MOL0     H34136   9.348   0.991   8.613 -0.8434 -0.2677 -2.8996
  994MOL0     H34137   9.261   0.976   8.850  0.9775  1.0544  1.2794
  994MOL0     H34138   9.112   1.067   8.797  0.1656 -0.1691  1.7724
  994MOL0     H34139   9.255   1.273   8.786  2.4517 -1.4579 -1.3428
  994MOL0     H34140   9.236   1.205   8.953  0.3040 -4.9282  1.7458
  994MOL0     H34141   9.455   1.287   9.053  4.4382  0.9053  1.3507
  994MOL0     H34142   9.825   1.235   8.967  0.6760  1.3770  0.6165
  994MOL0     H34143   9.719   1.328   9.078 -2.9918 -0.5265  0.2423
  994MOL0     H34144   9.737   1.023   9.069  3.3099  0.1041 -2.5456
  994MOL0     H34145   9.848   1.118   9.167 -1.3260 -2.0278  1.3085
  994MOL0     H34146   9.596   1.035   9.245  1.1145 -0.0876 -2.5354
  994MOL0     H34147   9.567   1.204   9.235 -0.3548 -1.1422  0.2751
  994MOL0     H34148   9.645   1.185   9.442  1.0611  0.2601  1.4020
  994MOL0     H34149   9.782   1.251   9.364  0.5752 -0.3089  0.4673
  994MOL0     H34150   9.793   1.192   9.617 -0.5790 -0.5313 -1.5624
  994MOL0     H34151   9.845   1.125   9.846 -0.6051 -0.5865  0.2714
  994MOL0     H34152  10.132   0.589  10.056  1.8380  1.7019  2.4260
  994MOL0     H34153  10.135   0.501  10.253 -0.3518 -0.7316 -1.1111
  994MOL0     H34154   9.948   0.682  10.584  1.8824 -0.7510 -5.7718
  994MOL0     H34155   9.804   0.577  10.551  0.0778 -3.1521 -0.4450
  994MOL0     H34156  10.042   0.498  10.724 -1.1076 -0.7736 -0.9271
  994MOL0     H34157   9.895   0.566  10.789 -0.3890  4.5080 -1.8217
  994MOL0     H34158   9.754   0.388  10.673  1.2011  2.5289 -1.1223
  994MOL0     H34159   9.897   0.299  10.639 -0.9593 -2.4878  1.3911
  994MOL0     H34160   9.817   0.361  10.929  2.7910 -1.3379  2.5756
  994MOL0     H34161   9.979   0.304  10.889  0.3084  1.2805 -0.2879
  994MOL0     H34162   9.872   0.095  10.800 -0.2152  0.0272  0.7597
  994MOL0     H34163   9.715   0.160  10.811  0.2249  3.5480 -1.4578
  994MOL0     H34164   9.893   0.098  11.047 -0.6369 -0.6919  1.3073
  994MOL0     H34165   9.725   0.161  11.052  1.8879  1.9959  1.7492
  994MOL0     H34166   9.821  -0.104  10.924  3.4179  0.3831  1.9939
  994MOL0     H34167   9.656  -0.040  10.919  0.5518 -0.4058  0.3022
  994MOL0     H34168   9.813  -0.073  11.176 -0.4004  0.0002  0.2083
  994MOL0     H34169   9.646  -0.009  11.164 -1.8703 -1.0792 -2.0706
  994MOL0     H34170   9.745   0.672  10.351 -1.2393 -0.2457 -3.0737
  994MOL0     H34171   9.754   0.787  10.143 -0.4553 -0.6478  0.6704
  994MOL0     H34172  10.011   0.758   9.672 -0.2319 -0.9638 -1.7536
  994MOL0     H34173   9.973   0.848   9.457 -0.1161  1.2317 -2.0479
  994MOL0     H34174   8.778   1.150   8.070 -2.0317 -1.2914 -0.3995
  994MOL0     H34175   8.553   1.194   8.146 -1.0407 -1.9642  0.0136
  994MOL0     H34176   8.314   1.040   8.540  0.7471  1.4515 -2.2386
  994MOL0     H34177   8.117   1.010   8.674  0.4624 -1.4457 -1.0276
  994MOL0     H34178   7.938   1.119   8.816 -2.4919  0.8377  3.3593
  994MOL0     H34179   7.853   0.980   8.770  4.3959 -0.9345 -2.7270
  994MOL0     H34180   7.645   1.095   8.790  1.2329 -0.5110 -1.6385
  994MOL0     H34181   7.717   1.262   8.769 -2.0410 -0.2524 -1.2153
  994MOL0     H34182   7.840   1.221   8.986 -0.4324 -0.3323  1.6305
  994MOL0     H34183   7.746   1.067   8.987 -5.2813 -0.3037  3.7533
  994MOL0     H34184   7.630   1.364   9.011 -1.8990  0.5609  1.5196
  994MOL0     H34185   7.533   1.219   9.007  0.6019 -0.5493  0.1532
  994MOL0     H34186   7.686   1.260   9.400  0.0902 -0.2325 -0.3018
  994MOL0     H34187   7.898   1.264   8.416 -1.4705 -2.1195  0.1831
  994MOL0     H34188   8.174   1.331   8.178  0.0301  1.1147  0.2720
  994MOL0     H34189   8.063   1.208   8.132  0.5897  3.1707 -3.5081
  994MOL0     H34190   8.016   1.368   8.214  0.0589 -0.1257 -0.3132
  995MOL0     O34191   1.831   9.213   9.190  0.4304 -0.6212 -0.0011
  995MOL0     C34192   1.755   9.310   9.171 -0.9016 -0.2160 -0.5244
  995MOL0     O34193   1.618   9.314   9.149 -0.1517  0.1645  0.4659
  995MOL0     C34194   1.559   9.194   9.159  0.2882 -0.5003  0.9371
  995MOL0     C34195   1.578   9.086   9.067  0.0080 -1.1025  0.3696
  995MOL0     C34196   1.504   8.961   9.084  0.7787 -0.4331 -0.0918
  995MOL0     C34197   1.402   8.965   9.179 -0.4547 -0.5158 -0.0115
  995MOL0     O34198   1.332   8.852   9.211  0.0842 -0.3998  0.1319
  995MOL0     C34199   1.306   8.767   9.090  0.4148  0.2390 -0.2575
  995MOL0     C34200   1.177   8.671   9.097  0.2257  0.5298  0.2036
  995MOL0     C34201   1.225   8.546   9.176  0.5752 -0.7967  0.1645
  995MOL0     C34202   1.118   8.440   9.192 -0.9976 -0.3547  0.3180
  995MOL0     C34203   1.161   8.322   9.280 -0.3023 -0.2372  0.8120
  995MOL0     C34204   1.068   8.295   9.401 -0.3154 -0.7898 -0.2621
  995MOL0     C34205   1.147   8.196   9.496 -0.5860  0.2639  0.0540
  995MOL0     C34206   1.051   8.129   9.604 -0.5646  0.3806  0.0507
  995MOL0     N34207   0.998   8.229   9.708  0.5800 -0.5158  0.2767
  995MOL0     C34208   1.081   8.313   9.780 -0.2613  0.8993 -0.7227
  995MOL0     C34209   1.004   8.390   9.856  0.1120 -0.0059 -0.0576
  995MOL0     C34210   1.056   8.475   9.966  0.3687 -0.1647  0.8907
  995MOL0     C34211   1.140   8.588   9.909 -0.1148  0.2817  0.5700
  995MOL0     C34212   1.191   8.668  10.029  1.3161 -0.6262  0.2213
  995MOL0     C34213   1.201   8.825   9.991 -1.0024  0.4640  0.8403
  995MOL0     O34214   1.073   8.887   9.960 -0.1430  0.6015  0.2451
  995MOL0     C34215   0.993   8.937  10.064 -0.3071  0.0066  0.1180
  995MOL0     C34216   0.857   8.957  10.028  0.1745 -0.0624  0.3046
  995MOL0     C34217   0.759   9.005  10.119  0.5519  0.1057  0.1426
  995MOL0     C34218   0.802   9.030  10.258 -0.3446  0.2967  0.7680
  995MOL0     C34219   0.706   9.077  10.359  0.4719 -0.0194 -0.4068
  995MOL0     O34220   0.591   9.150  10.322 -0.6872  0.6770  1.1467
  995MOL0     C34221   0.502   9.194  10.413 -0.1907 -0.3332 -0.1468
  995MOL0     C34222   0.372   9.168  10.392  0.4532  1.3571  0.0607
  995MOL0     C34223   0.269   9.220  10.472  0.2513  0.5174 -1.1457
  995MOL0     C34224   0.306   9.289  10.595 -0.2481  0.3863  0.1677
  995MOL0     O34225   0.205   9.342  10.674 -0.7369 -0.5964  0.2470
  995MOL0     C34226   0.108   9.254  10.741 -0.6740 -0.9261 -0.6056
  995MOL0     C34227   0.130   9.259  10.896 -0.3452 -0.3458  0.0440
  995MOL0     C34228   0.072   9.125  10.964  0.0710 -0.0778  0.4269
  995MOL0     C34229   0.092   9.122  11.122  0.2899  0.5333 -0.4626
  995MOL0     C34230   0.007   9.022  11.203  0.1565  0.5870 -0.2547
  995MOL0     C34231   0.068   8.978  11.336 -0.0895  0.4496 -0.5510
  995MOL0     C34232   0.114   9.098  11.423  0.0283  0.3360  0.0442
  995MOL0     C34233   0.143   9.063  11.566 -0.0731 -0.3752 -0.2655
  995MOL0    Cl34234   0.017   8.973  11.641  0.2536 -0.4872  0.1573
  995MOL0     C34235   0.442   9.324  10.608 -0.9201 -0.1736  0.3026
  995MOL0     C34236   0.549   9.279  10.524 -0.4042 -0.6518 -0.6088
  995MOL0     O34237   0.732   9.069  10.478  0.5034  0.9766  0.7385
  995MOL0     C34238   0.934   9.014  10.289 -0.0436 -0.0052  0.5013
  995MOL0     C34239   1.032   8.983  10.188 -1.3175  0.3786 -0.5572
  995MOL0     N34240   0.872   8.363   9.831  0.5309 -0.0602 -0.1425
  995MOL0     N34241   0.864   8.262   9.738 -0.8537 -1.0488 -0.4005
  995MOL0     C34242   1.375   9.083   9.255 -0.5492 -0.0482  0.1791
  995MOL0     C34243   1.463   9.193   9.250 -0.5691  1.1773 -0.5724
  995MOL0     C34244   1.805   9.439   9.205  1.1708 -0.6808 -0.2253
  995MOL0     C34245   1.749   9.507   9.307  0.7961  0.6105  0.4295
  995MOL0     C34246   1.802   9.625   9.355  0.0560  0.3258  0.8010
  995MOL0     C34247   1.908   9.684   9.291 -0.6907  1.1372  0.2637
  995MOL0     O34248   1.962   9.808   9.322 -0.6217  0.3030  0.1187
  995MOL0     C34249   1.934   9.868   9.449 -0.3949 -0.0492  0.0961
  995MOL0     C34250   2.048   9.960   9.486 -0.7052 -0.7664 -0.4096
  995MOL0     C34251   2.172   9.885   9.526 -0.3047 -0.9303 -0.4057
  995MOL0     C34252   2.245   9.812   9.419  0.4024 -0.2318  0.5790
  995MOL0     C34253   2.383   9.780   9.455 -0.2962 -0.6297  0.8565
  995MOL0     C34254   2.500   9.744   9.482  0.8391 -0.4564 -0.7437
  995MOL0     C34255   1.963   9.621   9.181 -0.3144 -0.2179 -0.5821
  995MOL0     C34256   1.910   9.504   9.139  0.4699 -0.1839 -1.0839
  995MOL0     C34257   1.962   9.445   9.014 -0.4168  0.1515  0.8902
  995MOL0     H34258   1.636   9.088   8.975 -1.0500  1.3130 -0.3277
  995MOL0     H34259   1.522   8.871   9.025 -0.7493 -0.1244 -1.0734
  995MOL0     H34260   1.299   8.828   8.999 -2.8963  0.5644  0.0844
  995MOL0     H34261   1.391   8.704   9.061 -1.1826 -3.6061  2.5752
  995MOL0     H34262   1.164   8.646   8.991  1.5299  1.3153 -0.1727
  995MOL0     H34263   1.092   8.723   9.142  1.6381  3.7049 -0.5222
  995MOL0     H34264   1.265   8.572   9.275  1.2146 -1.4343  0.0806
  995MOL0     H34265   1.304   8.498   9.119  1.8268 -0.8869  1.8700
  995MOL0     H34266   1.023   8.485   9.219 -1.9080 -0.7823 -1.8996
  995MOL0     H34267   1.086   8.394   9.098 -0.9926 -1.1633  0.6999
  995MOL0     H34268   1.171   8.243   9.205  0.3537  0.6310 -0.0401
  995MOL0     H34269   1.263   8.337   9.317  0.3962  1.9050 -1.7254
  995MOL0     H34270   1.036   8.387   9.450 -1.8689  1.2943 -4.6827
  995MOL0     H34271   0.974   8.255   9.364 -0.1934 -2.8547  1.4679
  995MOL0     H34272   1.233   8.238   9.547 -1.5515  0.0629  1.9247
  995MOL0     H34273   1.179   8.118   9.426  1.8137  1.0320  0.2215
  995MOL0     H34274   0.981   8.064   9.552  2.1971 -4.7773  2.1139
  995MOL0     H34275   1.101   8.052   9.663 -2.0626 -1.3606 -0.8638
  995MOL0     H34276   1.189   8.304   9.786 -0.4810 -2.9079  0.1142
  995MOL0     H34277   0.969   8.511  10.022  0.5655 -1.8884  2.3537
  995MOL0     H34278   1.112   8.402  10.024  0.5487 -1.4472 -0.7999
  995MOL0     H34279   1.226   8.551   9.852  0.5605 -0.1536  1.8365
  995MOL0     H34280   1.086   8.650   9.837  0.9986 -0.3891 -0.8927
  995MOL0     H34281   1.286   8.620  10.055  0.6852 -2.0455 -0.0026
  995MOL0     H34282   1.118   8.655  10.109 -2.5168  0.9281 -2.6991
  995MOL0     H34283   1.271   8.837   9.907 -1.6133 -1.0348  0.0864
  995MOL0     H34284   1.247   8.871  10.079  1.2561 -1.5759  0.8426
  995MOL0     H34285   0.814   8.943   9.929 -0.4336  0.7419  0.4409
  995MOL0     H34286   0.659   9.033  10.086  1.7503  2.3590 -1.8441
  995MOL0     H34287   0.341   9.105  10.310 -1.4395  0.8942  1.0786
  995MOL0     H34288   0.166   9.200  10.445  1.2009  0.1928 -5.1742
  995MOL0     H34289   0.008   9.295  10.725 -0.3337 -0.6340 -2.1858
  995MOL0     H34290   0.120   9.152  10.703  1.6573 -0.8335 -0.2740
  995MOL0     H34291   0.238   9.267  10.915 -0.5839  0.3991  1.1293
  995MOL0     H34292   0.082   9.348  10.936  0.1766 -0.6005  1.2913
  995MOL0     H34293  -0.030   9.113  10.926 -0.7605  1.2565  2.1200
  995MOL0     H34294   0.116   9.031  10.928 -1.2718 -0.3869 -0.4594
  995MOL0     H34295   0.060   9.219  11.163  0.5141  0.4804 -0.1580
  995MOL0     H34296   0.194   9.099  11.155 -0.4091  2.2473  3.5695
  995MOL0     H34297  -0.006   8.930  11.145  0.3753 -0.6544  1.5649
  995MOL0     H34298  -0.094   9.062  11.219 -0.6267 -0.6836 -1.7188
  995MOL0     H34299  -0.003   8.914  11.390 -1.9621  0.1579 -3.1467
  995MOL0     H34300   0.146   8.904  11.318  0.6999  1.5429 -1.7920
  995MOL0     H34301   0.037   9.176  11.416  0.6729  0.9092 -0.8878
  995MOL0     H34302   0.210   9.136  11.387 -0.2843  1.4557  0.3344
  995MOL0     H34303   0.227   8.993  11.570  0.5512  0.2053 -2.1701
  995MOL0     H34304   0.174   9.155  11.615  0.2721 -0.9563  0.6407
  995MOL0     H34305   0.472   9.388  10.691  1.0166  2.0547 -1.9538
  995MOL0     H34306   0.655   9.301  10.528 -1.0683  3.2030 -0.2178
  995MOL0     H34307   0.954   9.036  10.394  0.6613  0.7633  0.2087
  995MOL0     H34308   1.132   8.970  10.230 -1.4291 -3.9465 -1.0915
  995MOL0     H34309   1.293   9.082   9.326 -0.9375 -1.2867 -0.2599
  995MOL0     H34310   1.441   9.275   9.318 -0.6475  0.5044  0.2350
  995MOL0     H34311   1.657   9.471   9.352  1.7943 -4.1425 -0.7102
  995MOL0     H34312   1.769   9.665   9.450 -1.9862 -0.3961  0.4540
  995MOL0     H34313   1.923   9.799   9.534  0.8308  3.2930  3.2557
  995MOL0     H34314   1.842   9.927   9.443 -0.5935 -0.4946 -1.5218
  995MOL0     H34315   2.028  10.030   9.567 -2.3540 -0.1430 -1.3044
  995MOL0     H34316   2.081  10.021   9.401 -0.8100 -0.3335 -0.1407
  995MOL0     H34317   2.156   9.803   9.597 -1.2486 -3.1559 -3.0061
  995MOL0     H34318   2.242   9.959   9.565 -3.8225  3.3026 -1.3530
  995MOL0     H34319   2.187   9.726   9.386 -1.4863  1.3155 -0.3462
  995MOL0     H34320   2.251   9.863   9.322  3.1222 -3.3244 -1.0895
  995MOL0     H34321   2.599   9.710   9.502  1.8617  0.6057 -3.4727
  995MOL0     H34322   2.042   9.660   9.117  0.9952 -0.3583  0.9091
  995MOL0     H34323   1.963   9.511   8.927 -2.4948 -1.2217 -0.2349
  995MOL0     H34324   2.063   9.405   9.029  0.1201  0.8714 -0.6280
  995MOL0     H34325   1.899   9.362   8.981 -3.4006  2.7150 -0.2619
  996MOL0     O34326   3.142   1.895   7.163  0.3115  0.4678 -0.1325
  996MOL0     C34327   3.064   1.976   7.223 -0.7498  0.2633  0.3011
  996MOL0     O34328   2.972   1.926   7.313  0.1669 -0.2782  0.7010
  996MOL0     C34329   2.933   1.792   7.301 -0.1536 -1.0594 -0.1672
  996MOL0     C34330   2.902   1.730   7.177  0.4814 -0.5958 -0.5689
  996MOL0     C34331   2.864   1.603   7.160 -0.2283 -0.8527 -0.8825
  996MOL0     C34332   2.867   1.515   7.268  0.3701  0.3897 -0.2617
  996MOL0     O34333   2.813   1.380   7.248  0.1655 -0.3726 -0.2736
  996MOL0     C34334   2.765   1.316   7.364 -0.7831 -0.4736  0.4827
  996MOL0     C34335   2.627   1.385   7.402  0.1938  0.5918  0.8870
  996MOL0     C34336   2.575   1.294   7.522 -0.0904 -0.5995  0.1551
  996MOL0     C34337   2.633   1.323   7.663  0.1086 -0.2058  0.0397
  996MOL0     C34338   2.628   1.194   7.748  0.3707 -0.5396  0.0928
  996MOL0     C34339   2.710   1.206   7.877 -0.2267 -0.2242 -0.4569
  996MOL0     C34340   2.712   1.073   7.962  0.3454  0.1050 -0.1292
  996MOL0     C34341   2.573   1.056   8.027  0.6900  0.1690 -0.2815
  996MOL0     N34342   2.546   0.924   8.101 -0.1025  0.2402 -0.3711
  996MOL0     C34343   2.633   0.868   8.196  0.3286  0.0828 -0.4064
  996MOL0     C34344   2.567   0.753   8.237  0.0152  0.1042  0.1309
  996MOL0     C34345   2.622   0.667   8.342  0.5007  0.5803  0.8547
  996MOL0     C34346   2.641   0.735   8.474 -0.2015 -0.1933 -0.4596
  996MOL0     C34347   2.656   0.640   8.589  0.6376 -0.6147  0.0758
  996MOL0     C34348   2.613   0.721   8.711 -0.2622 -0.2186 -1.1849
  996MOL0     O34349   2.670   0.657   8.822 -0.1111 -0.6872  0.7871
  996MOL0     C34350   2.601   0.560   8.897  0.0364 -0.5285  0.2491
  996MOL0     C34351   2.658   0.550   9.025  0.1380 -0.0300  0.2267
  996MOL0     C34352   2.600   0.475   9.126 -0.2041 -0.1861 -0.1793
  996MOL0     C34353   2.479   0.412   9.106 -0.0949  1.3724 -0.8003
  996MOL0     C34354   2.410   0.327   9.212  0.9784 -0.3838  0.1394
  996MOL0     O34355   2.308   0.244   9.171  0.4689  0.1437  1.1398
  996MOL0     C34356   2.228   0.180   9.256  0.2839  0.3235  0.1013
  996MOL0     C34357   2.266   0.049   9.299  1.1055  0.4777  0.2523
  996MOL0     C34358   2.203  -0.001   9.413 -0.3130 -0.2534 -0.0313
  996MOL0     C34359   2.095   0.063   9.470 -0.3648 -0.6839 -0.7364
  996MOL0     O34360   2.037  -0.002   9.568 -0.7526  0.4078 -0.0395
  996MOL0     C34361   2.081   0.046   9.700 -0.0599  0.4991  0.2066
  996MOL0     C34362   2.195   0.156   9.723 -0.5149  0.4918 -0.6787
  996MOL0     C34363   2.339   0.118   9.688  0.2594  0.2767  0.2258
  996MOL0     C34364   2.441   0.176   9.797  0.2815 -0.1068  0.1216
  996MOL0     C34365   2.591   0.161   9.763  0.6667 -0.4232 -0.0747
  996MOL0     C34366   2.674   0.244   9.856  0.3632 -0.4695 -0.0490
  996MOL0     C34367   2.824   0.242   9.834  0.2632  0.5998  0.1434
  996MOL0     C34368   2.887   0.101   9.874  0.2616  1.0025 -0.3892
  996MOL0    Cl34369   3.049   0.089   9.798  0.1499 -0.5753 -0.2803
  996MOL0     C34370   2.063   0.196   9.436  0.4460  0.3469 -0.1257
  996MOL0     C34371   2.124   0.247   9.318 -0.2458 -0.3065  0.0336
  996MOL0     O34372   2.448   0.332   9.327 -0.1207 -0.1273 -0.5111
  996MOL0     C34373   2.420   0.417   8.974  0.0265  0.2719  0.2319
  996MOL0     C34374   2.481   0.493   8.870 -0.5131 -0.0047  0.2032
  996MOL0     N34375   2.441   0.746   8.170 -0.0995  0.4810  0.7872
  996MOL0     N34376   2.438   0.845   8.084 -0.4866  0.6032  0.2631
  996MOL0     C34377   2.912   1.562   7.392  0.2409  0.3965 -0.0849
  996MOL0     C34378   2.936   1.701   7.404  0.1431  0.1370 -0.9149
  996MOL0     C34379   3.093   2.123   7.203 -0.6364 -0.8034 -0.3092
  996MOL0     C34380   3.003   2.207   7.277 -1.2140 -0.1406 -0.4796
  996MOL0     C34381   3.027   2.350   7.278  0.0759  0.6240  0.0805
  996MOL0     C34382   3.132   2.400   7.198  0.6308 -0.7782  0.0022
  996MOL0     O34383   3.158   2.537   7.174 -0.4718  0.0609 -0.5193
  996MOL0     C34384   3.066   2.643   7.214  0.2732 -0.4488  0.6561
  996MOL0     C34385   3.116   2.735   7.328  0.8831 -0.3966  0.3121
  996MOL0     C34386   3.261   2.794   7.301  0.5111 -0.0846  0.4977
  996MOL0     C34387   3.316   2.881   7.415 -0.0718  0.1900 -0.3178
  996MOL0     C34388   3.395   2.996   7.370  0.5664  1.1989 -0.2652
  996MOL0     C34389   3.443   3.105   7.335 -0.3461 -0.0169  0.9436
  996MOL0     C34390   3.196   2.314   7.117 -0.4822  0.3985 -1.0387
  996MOL0     C34391   3.185   2.174   7.106 -1.0699 -0.5787 -0.0617
  996MOL0     C34392   3.259   2.095   6.993 -0.0677 -0.1468  0.6624
  996MOL0     H34393   2.876   1.790   7.090  0.8064 -0.0941 -0.3242
  996MOL0     H34394   2.851   1.567   7.058 -1.2471  1.1939 -1.5209
  996MOL0     H34395   2.752   1.211   7.333 -2.7333 -0.7201  1.8741
  996MOL0     H34396   2.838   1.322   7.445 -0.5974 -1.0483  0.3618
  996MOL0     H34397   2.552   1.367   7.324 -0.3966  2.3330  1.0084
  996MOL0     H34398   2.625   1.492   7.423 -4.9793  1.8515 -3.6016
  996MOL0     H34399   2.596   1.190   7.495  0.6937 -0.4322  0.1000
  996MOL0     H34400   2.466   1.305   7.529 -0.1600  0.2771 -1.7128
  996MOL0     H34401   2.741   1.344   7.667  0.1955 -0.8241  1.9808
  996MOL0     H34402   2.591   1.417   7.700 -0.7019  0.2612 -1.9826
  996MOL0     H34403   2.522   1.181   7.773 -0.1463  1.5056 -0.8078
  996MOL0     H34404   2.666   1.107   7.694  2.8210  0.1163  0.6053
  996MOL0     H34405   2.815   1.232   7.863 -0.5262  0.5236 -1.4105
  996MOL0     H34406   2.673   1.295   7.930  3.7521  1.6514 -0.5151
  996MOL0     H34407   2.780   1.088   8.046 -0.7661  0.7470  0.6843
  996MOL0     H34408   2.741   0.987   7.901 -2.5032  0.9293 -2.9560
  996MOL0     H34409   2.549   1.135   8.099 -2.5487 -0.1041 -0.8891
  996MOL0     H34410   2.493   1.058   7.953  2.4902 -1.0785 -2.3556
  996MOL0     H34411   2.730   0.905   8.228 -0.0075 -0.5299  1.4569
  996MOL0     H34412   2.548   0.589   8.362  1.5110 -0.3776  0.9650
  996MOL0     H34413   2.713   0.621   8.303  0.4743  0.7794  0.5513
  996MOL0     H34414   2.735   0.791   8.479 -0.7975  0.7220  1.7381
  996MOL0     H34415   2.546   0.789   8.480 -0.5353 -0.8976  1.3080
  996MOL0     H34416   2.763   0.623   8.600  0.3986 -2.3228 -0.0329
  996MOL0     H34417   2.590   0.556   8.568 -0.1340 -0.2717  1.0168
  996MOL0     H34418   2.504   0.715   8.719 -0.2010  0.2784  0.4543
  996MOL0     H34419   2.662   0.819   8.706  2.3125 -0.6467  5.3049
  996MOL0     H34420   2.749   0.609   9.038  0.1368  0.3839 -1.3694
  996MOL0     H34421   2.647   0.476   9.223 -1.4311  0.6342  0.4333
  996MOL0     H34422   2.345  -0.000   9.243 -0.2892  0.7600 -2.0899
  996MOL0     H34423   2.237  -0.090   9.464 -2.3488 -1.4193 -0.5995
  996MOL0     H34424   1.994   0.091   9.748 -0.7528 -2.1291  1.5671
  996MOL0     H34425   2.092  -0.038   9.768  1.0931  2.3222  2.3941
  996MOL0     H34426   2.179   0.249   9.668 -1.9404  2.4681  2.7500
  996MOL0     H34427   2.198   0.186   9.828  0.8205  4.1192 -1.6156
  996MOL0     H34428   2.359   0.010   9.680 -0.1628  0.2406 -0.3444
  996MOL0     H34429   2.360   0.164   9.591  3.0299 -0.4177  0.3981
  996MOL0     H34430   2.401   0.143   9.894  2.7293 -1.5113  0.7260
  996MOL0     H34431   2.441   0.285   9.800 -0.1788 -0.0814 -0.6236
  996MOL0     H34432   2.614   0.197   9.662 -0.8446  0.9835  0.0418
  996MOL0     H34433   2.617   0.055   9.768  1.2056 -0.4569 -2.4035
  996MOL0     H34434   2.642   0.348   9.844  0.8767  0.1807  3.2770
  996MOL0     H34435   2.647   0.217   9.959  1.1540  2.0409  0.8956
  996MOL0     H34436   2.869   0.320   9.896 -0.8928  0.0902  1.7019
  996MOL0     H34437   2.831   0.261   9.727 -0.4538 -0.0212 -0.0207
  996MOL0     H34438   2.900   0.077   9.980 -2.3908 -0.7976 -0.3699
  996MOL0     H34439   2.822   0.020   9.839  1.3549  0.9461 -2.4166
  996MOL0     H34440   2.004   0.239   9.516 -0.8713  0.4427 -1.1277
  996MOL0     H34441   2.097   0.342   9.274  1.0327 -1.0613 -2.5187
  996MOL0     H34442   2.329   0.360   8.958  0.0796  0.4089 -0.5780
  996MOL0     H34443   2.437   0.493   8.771  0.6501 -1.7795 -0.3581
  996MOL0     H34444   2.892   1.513   7.487 -2.0785 -2.1769 -1.7357
  996MOL0     H34445   2.950   1.732   7.507 -0.1092  0.9650 -1.1207
  996MOL0     H34446   2.930   2.165   7.346 -1.7069 -0.8330 -1.3986
  996MOL0     H34447   2.968   2.413   7.343  1.2953  2.2153 -0.2893
  996MOL0     H34448   2.961   2.621   7.234  0.0917  0.2422  0.5079
  996MOL0     H34449   3.048   2.718   7.136  1.0471  0.3387  1.2202
  996MOL0     H34450   3.116   2.682   7.424 -1.0765 -0.8664  0.0876
  996MOL0     H34451   3.039   2.810   7.350 -2.1713 -3.5488  1.4320
  996MOL0     H34452   3.274   2.853   7.209  1.8128 -1.2820 -0.1244
  996MOL0     H34453   3.322   2.706   7.276 -1.7389 -1.4135 -0.7265
  996MOL0     H34454   3.231   2.914   7.474 -0.8216  0.4151 -1.4827
  996MOL0     H34455   3.375   2.815   7.479 -1.3755 -0.8225 -0.1296
  996MOL0     H34456   3.484   3.194   7.293  0.4633 -1.5325 -1.6875
  996MOL0     H34457   3.274   2.357   7.056  2.2645  0.6825  2.3402
  996MOL0     H34458   3.356   2.068   7.036  0.3476 -0.6581 -0.5432
  996MOL0     H34459   3.209   2.005   6.957  0.3136 -0.3397  0.6048
  996MOL0     H34460   3.276   2.155   6.903  0.7448 -1.5876 -0.1823
  997MOL0     O34461   7.792   2.131   3.289 -0.8129 -0.0885 -0.2010
  997MOL0     C34462   7.674   2.087   3.318 -0.3545  0.4673 -0.6924
  997MOL0     O34463   7.583   2.159   3.382  0.4214 -0.1892 -0.7077
  997MOL0     C34464   7.630   2.271   3.441  0.0690 -0.1332 -0.5398
  997MOL0     C34465   7.687   2.263   3.572  0.3391  0.5810  1.5034
  997MOL0     C34466   7.736   2.378   3.638 -0.0551 -0.3809 -0.6206
  997MOL0     C34467   7.723   2.502   3.583 -0.2520 -0.0093  0.0412
  997MOL0     O34468   7.782   2.609   3.652  0.5571 -0.0084 -0.9079
  997MOL0     C34469   7.751   2.742   3.622 -0.2872  0.0006 -0.3466
  997MOL0     C34470   7.805   2.834   3.727 -0.4695 -0.0922  0.2717
  997MOL0     C34471   7.700   2.889   3.826  0.3447  0.4972 -0.0752
  997MOL0     C34472   7.756   3.005   3.920 -0.6649 -0.0710  0.3604
  997MOL0     C34473   7.646   3.081   4.008 -0.1090 -0.5171 -1.1469
  997MOL0     C34474   7.643   3.058   4.158  0.3111 -0.6135 -0.4500
  997MOL0     C34475   7.555   3.156   4.223 -0.3855  0.4832  0.1484
  997MOL0     C34476   7.503   3.111   4.361  0.7657 -0.6911  0.3554
  997MOL0     N34477   7.395   3.007   4.362  0.5742 -0.8198  0.1840
  997MOL0     C34478   7.258   3.034   4.364 -0.2218 -0.1518  0.8427
  997MOL0     C34479   7.190   2.918   4.377 -0.5778  0.2301 -0.2900
  997MOL0     C34480   7.044   2.887   4.408  0.4017 -0.1758  0.1117
  997MOL0     C34481   6.969   2.846   4.282  0.2184 -0.3182 -0.2466
  997MOL0     C34482   7.028   2.729   4.205  0.8279 -0.4223 -0.3186
  997MOL0     C34483   6.921   2.701   4.092 -0.0518  0.1591 -0.0819
  997MOL0     O34484   6.956   2.573   4.034  0.1787 -0.1776 -0.2029
  997MOL0     C34485   6.888   2.529   3.932 -0.6761  0.4579 -0.6183
  997MOL0     C34486   6.953   2.423   3.868 -0.1667  0.5244 -0.1510
  997MOL0     C34487   6.912   2.375   3.751 -0.5714 -0.1056 -0.2882
  997MOL0     C34488   6.806   2.441   3.684 -0.2430  0.8119  0.3525
  997MOL0     C34489   6.769   2.394   3.547  0.1280  0.4725 -0.2113
  997MOL0     O34490   6.667   2.479   3.496 -0.0846  0.1921  0.0474
  997MOL0     C34491   6.648   2.476   3.361 -0.5434  0.1345 -0.4002
  997MOL0     C34492   6.528   2.453   3.299 -0.2425 -0.1407 -0.2273
  997MOL0     C34493   6.505   2.464   3.163 -0.0488  0.4239 -0.0117
  997MOL0     C34494   6.614   2.506   3.083  0.4147 -0.4177  0.6533
  997MOL0     O34495   6.586   2.498   2.946  0.4756 -0.1069  0.1046
  997MOL0     C34496   6.651   2.595   2.862  0.0242  0.1484 -0.9986
  997MOL0     C34497   6.570   2.598   2.733  0.0081  0.4254 -0.4488
  997MOL0     C34498   6.661   2.668   2.634 -0.5404  0.8078 -0.3503
  997MOL0     C34499   6.659   2.613   2.493  0.2005  0.1363 -0.0548
  997MOL0     C34500   6.759   2.684   2.392 -0.8196 -0.0291  0.5356
  997MOL0     C34501   6.709   2.821   2.333 -1.0103 -0.0814  0.1173
  997MOL0     C34502   6.845   2.908   2.323 -0.3673  0.1531 -0.5365
  997MOL0     C34503   6.825   3.038   2.245 -0.1651  1.2403 -0.0062
  997MOL0    Cl34504   6.674   3.139   2.282  0.5668  0.0298 -0.3230
  997MOL0     C34505   6.734   2.502   3.135  0.0514 -0.3032 -0.2642
  997MOL0     C34506   6.758   2.506   3.278 -0.4617 -0.2544  0.3591
  997MOL0     O34507   6.823   2.301   3.495 -0.2368  0.9492  0.6129
  997MOL0     C34508   6.747   2.544   3.747  0.4996 -0.0478 -0.1382
  997MOL0     C34509   6.781   2.589   3.867  0.6711 -0.6700 -0.1219
  997MOL0     N34510   7.294   2.827   4.388  1.1785  0.4510 -0.1481
  997MOL0     N34511   7.413   2.871   4.365  0.4557 -0.3627 -0.6272
  997MOL0     C34512   7.672   2.511   3.448 -0.7121  0.5911 -0.4880
  997MOL0     C34513   7.633   2.393   3.382  0.4042 -0.4244  0.4712
  997MOL0     C34514   7.635   1.948   3.274 -0.5977 -0.9163 -1.1451
  997MOL0     C34515   7.495   1.919   3.279 -0.5760  0.2217  0.0380
  997MOL0     C34516   7.457   1.792   3.236  0.1260 -0.7038 -0.0138
  997MOL0     C34517   7.542   1.694   3.187  0.4063 -0.4212 -0.5692
  997MOL0     O34518   7.506   1.566   3.152 -0.1994  0.2502  0.7714
  997MOL0     C34519   7.382   1.499   3.198 -0.8091 -0.5161 -0.2671
  997MOL0     C34520   7.412   1.396   3.302  0.0333 -0.0353  0.0405
  997MOL0     C34521   7.281   1.361   3.379  0.5030 -0.2890  0.2028
  997MOL0     C34522   7.305   1.270   3.499  0.6019  0.5050 -0.3391
  997MOL0     C34523   7.360   1.137   3.451  0.6399  0.5047  0.6300
  997MOL0     C34524   7.417   1.038   3.415 -0.5928 -0.2525 -0.0382
  997MOL0     C34525   7.677   1.732   3.175  0.1675  0.0471 -0.0484
  997MOL0     C34526   7.727   1.848   3.230  0.1213  0.5008  0.2313
  997MOL0     C34527   7.879   1.865   3.239  1.0039  0.0327  0.0393
  997MOL0     H34528   7.673   2.172   3.629 -4.6475 -0.1391 -0.3307
  997MOL0     H34529   7.779   2.367   3.737  2.4449  2.8463 -1.1926
  997MOL0     H34530   7.798   2.774   3.529  0.6109 -1.1680 -0.3158
  997MOL0     H34531   7.643   2.758   3.611 -0.4544  0.3536  1.5134
  997MOL0     H34532   7.862   2.919   3.689 -3.4188  0.9508 -2.1995
  997MOL0     H34533   7.888   2.779   3.772  1.8828  1.1370 -2.3088
  997MOL0     H34534   7.674   2.802   3.887  1.3515  1.7791  2.3029
  997MOL0     H34535   7.610   2.914   3.769 -0.3828  0.7879  1.1704
  997MOL0     H34536   7.847   2.970   3.971  1.7703 -0.3943 -3.7933
  997MOL0     H34537   7.797   3.077   3.849 -1.0513  0.1141  0.3273
  997MOL0     H34538   7.686   3.183   4.004  1.8105 -1.2592 -2.5121
  997MOL0     H34539   7.551   3.075   3.955 -0.8937 -1.8177  0.3324
  997MOL0     H34540   7.605   2.958   4.180  0.4953 -0.4887  0.5035
  997MOL0     H34541   7.742   3.069   4.204  1.1544  0.3305 -2.3754
  997MOL0     H34542   7.470   3.194   4.164 -0.0397  1.4028  0.2237
  997MOL0     H34543   7.609   3.246   4.252  1.5104 -0.3579 -0.6368
  997MOL0     H34544   7.588   3.059   4.407  1.4130  1.4004  1.6636
  997MOL0     H34545   7.489   3.204   4.417  6.2397 -0.0605  1.2625
  997MOL0     H34546   7.218   3.135   4.354 -1.1866 -0.7661 -3.2111
  997MOL0     H34547   7.044   2.813   4.489 -3.7168  0.2817  0.7427
  997MOL0     H34548   6.994   2.976   4.447 -2.7454 -0.5711 -2.6047
  997MOL0     H34549   6.868   2.825   4.317  0.0710  0.0271 -0.4575
  997MOL0     H34550   6.949   2.931   4.216 -1.3407 -0.4300  0.0516
  997MOL0     H34551   7.025   2.640   4.268 -0.9128 -2.3274 -2.8769
  997MOL0     H34552   7.132   2.740   4.175  0.9644 -3.7559 -1.4141
  997MOL0     H34553   6.914   2.766   4.004 -3.5094  1.1297  0.7819
  997MOL0     H34554   6.819   2.691   4.128  0.2065  1.9764  1.3054
  997MOL0     H34555   7.038   2.377   3.918  0.3491  0.5931 -0.9520
  997MOL0     H34556   6.953   2.284   3.709 -0.3834  0.4671 -1.3646
  997MOL0     H34557   6.452   2.435   3.374  1.2076  0.7425  1.5360
  997MOL0     H34558   6.409   2.449   3.114  0.0907  0.4899 -0.3089
  997MOL0     H34559   6.646   2.692   2.912 -1.6984 -0.5044  0.2009
  997MOL0     H34560   6.753   2.563   2.837 -0.0903 -0.5169 -0.6542
  997MOL0     H34561   6.556   2.492   2.713  3.2529 -0.4653  1.1626
  997MOL0     H34562   6.482   2.659   2.755 -0.0633 -0.0914  0.7580
  997MOL0     H34563   6.630   2.772   2.619  0.5459  0.9694 -1.6377
  997MOL0     H34564   6.761   2.679   2.677 -0.8916 -2.6274  1.7238
  997MOL0     H34565   6.566   2.601   2.436  1.0721 -0.7312 -1.3799
  997MOL0     H34566   6.698   2.511   2.506  2.4787  0.7579 -1.3220
  997MOL0     H34567   6.781   2.624   2.303  1.6028 -0.8581  1.6067
  997MOL0     H34568   6.851   2.707   2.447 -0.5269  1.2479 -0.4384
  997MOL0     H34569   6.670   2.813   2.231  0.1140 -2.4168 -0.2045
  997MOL0     H34570   6.655   2.875   2.411  1.4300  0.7375  1.3371
  997MOL0     H34571   6.925   2.851   2.276 -0.6986 -2.0738  1.4168
  997MOL0     H34572   6.874   2.939   2.424 -1.6853  1.5938 -0.5404
  997MOL0     H34573   6.919   3.090   2.265  0.6939 -0.3819  0.3130
  997MOL0     H34574   6.816   3.011   2.139  1.8510  2.1018 -0.4585
  997MOL0     H34575   6.819   2.500   3.068  0.9373  1.7840  0.7150
  997MOL0     H34576   6.863   2.504   3.303  1.0987 -2.2089 -4.9877
  997MOL0     H34577   6.675   2.599   3.686  2.7570 -3.4391 -6.9667
  997MOL0     H34578   6.725   2.673   3.906 -1.0304 -1.1579 -1.4224
  997MOL0     H34579   7.671   2.611   3.408 -2.9285  0.6668 -0.3573
  997MOL0     H34580   7.587   2.410   3.286 -0.6561  0.0853  1.0478
  997MOL0     H34581   7.427   1.989   3.326 -1.8926  0.5756 -2.2383
  997MOL0     H34582   7.349   1.792   3.239  0.0284  2.7790  0.8002
  997MOL0     H34583   7.328   1.447   3.119 -2.8118  1.0344 -0.0146
  997MOL0     H34584   7.316   1.575   3.241  0.1218  0.4806 -0.5362
  997MOL0     H34585   7.485   1.426   3.378  2.7482  0.3879 -2.5873
  997MOL0     H34586   7.466   1.308   3.266 -2.5481 -1.4505 -0.6111
  997MOL0     H34587   7.200   1.335   3.312 -1.9118 -0.5643  3.0111
  997MOL0     H34588   7.242   1.450   3.430 -3.7379 -1.2171 -1.0898
  997MOL0     H34589   7.384   1.314   3.561 -0.2744  0.7474  0.6345
  997MOL0     H34590   7.217   1.260   3.564  0.7285  2.7062  0.2426
  997MOL0     H34591   7.484   0.956   3.404  0.6156  0.7902 -0.6191
  997MOL0     H34592   7.743   1.661   3.126  1.5443  0.0675  1.6856
  997MOL0     H34593   7.915   1.886   3.138 -3.5565  3.4392 -1.2221
  997MOL0     H34594   7.902   1.940   3.315 -2.2098 -0.3365  1.5367
  997MOL0     H34595   7.930   1.780   3.286  1.4744  0.4990  0.3745
  998MOL0     O34596   4.074   8.953   5.525  0.1284 -0.3724  0.0506
  998MOL0     C34597   4.098   8.831   5.539 -1.2140  0.1345 -0.6602
  998MOL0     O34598   4.227   8.782   5.528  0.3861  0.9469 -0.9538
  998MOL0     C34599   4.329   8.858   5.495 -0.5775 -0.0093 -0.1705
  998MOL0     C34600   4.329   8.926   5.373  0.1313  0.2424  0.0632
  998MOL0     C34601   4.445   8.997   5.329  0.5343 -0.6131  0.0056
  998MOL0     C34602   4.560   8.998   5.408  0.2339  0.2580 -0.0855
  998MOL0     O34603   4.677   9.061   5.366  0.2614  0.0567 -0.4093
  998MOL0     C34604   4.667   9.200   5.313 -0.3609 -0.0774  0.4148
  998MOL0     C34605   4.598   9.290   5.403  0.1015 -0.5469  0.1448
  998MOL0     C34606   4.571   9.433   5.335  0.0901  0.7237  0.0843
  998MOL0     C34607   4.474   9.415   5.220 -0.6798 -0.2401 -0.7409
  998MOL0     C34608   4.430   9.554   5.172 -0.4023 -0.0797  0.3148
  998MOL0     C34609   4.316   9.540   5.069 -0.0180  0.0208  0.7480
  998MOL0     C34610   4.288   9.667   4.987  0.7658 -0.5276 -1.1086
  998MOL0     C34611   4.230   9.775   5.073 -0.3236  0.6894 -0.2267
  998MOL0     N34612   4.090   9.746   5.121 -0.5367  0.7545 -0.7544
  998MOL0     C34613   3.988   9.717   5.045 -0.1241  0.6645 -0.2922
  998MOL0     C34614   3.876   9.718   5.123  0.3826 -1.1315  0.0218
  998MOL0     C34615   3.735   9.718   5.084 -0.6013 -0.4602 -1.1620
  998MOL0     C34616   3.684   9.571   5.099  0.5804  0.4484 -0.3884
  998MOL0     C34617   3.713   9.496   4.972  0.7925 -0.0003  1.4039
  998MOL0     C34618   3.666   9.348   4.963  0.0289 -0.4835  0.0778
  998MOL0     O34619   3.520   9.340   4.949 -0.0906  0.1919 -0.6001
  998MOL0     C34620   3.476   9.211   4.932  0.4613  0.1528  1.5115
  998MOL0     C34621   3.350   9.207   4.870 -0.2719 -0.7676 -0.7115
  998MOL0     C34622   3.299   9.081   4.855  0.5656 -0.2299  0.7152
  998MOL0     C34623   3.365   8.960   4.884 -0.1086 -0.1919 -0.2814
  998MOL0     C34624   3.304   8.831   4.855 -0.0537 -0.6476 -0.4802
  998MOL0     O34625   3.345   8.735   4.930  0.5021  0.0293  1.0267
  998MOL0     C34626   3.297   8.611   4.900 -0.2849  0.5012 -0.1481
  998MOL0     C34627   3.173   8.564   4.927  0.6200 -0.0839 -0.5766
  998MOL0     C34628   3.137   8.433   4.894 -0.0987 -0.4905 -0.3540
  998MOL0     C34629   3.237   8.352   4.851  0.0175  0.2973 -0.6848
  998MOL0     O34630   3.214   8.220   4.835 -0.1968  0.9535 -0.1965
  998MOL0     C34631   3.117   8.196   4.722  1.0887 -0.2041 -0.1123
  998MOL0     C34632   3.024   8.078   4.750 -0.0108  0.6504 -0.0952
  998MOL0     C34633   3.077   7.941   4.710 -0.3532 -0.5493 -0.4343
  998MOL0     C34634   2.972   7.831   4.740 -0.3021 -0.5693 -0.0754
  998MOL0     C34635   2.987   7.706   4.656  0.4928  0.6678 -0.7244
  998MOL0     C34636   2.856   7.618   4.641  1.1931  0.2873 -0.4974
  998MOL0     C34637   2.839   7.541   4.768 -0.3245 -1.0303 -0.0631
  998MOL0     C34638   2.695   7.504   4.800 -0.2730  0.0901  0.2527
  998MOL0    Cl34639   2.631   7.412   4.651 -0.1239  0.0952 -0.0413
  998MOL0     C34640   3.366   8.394   4.829 -0.4304  0.3878 -0.2558
  998MOL0     C34641   3.399   8.524   4.856 -0.5068  0.1692 -0.7257
  998MOL0     O34642   3.225   8.817   4.763  0.1628  0.1931  0.5613
  998MOL0     C34643   3.492   8.963   4.936 -0.2467 -0.0876 -0.0510
  998MOL0     C34644   3.541   9.088   4.972  0.8869 -0.3154  0.3630
  998MOL0     N34645   3.917   9.754   5.251  0.7692  0.3608  0.4744
  998MOL0     N34646   4.039   9.772   5.243  0.3843 -0.1930  0.4518
  998MOL0     C34647   4.555   8.934   5.531 -0.5742  0.6092  1.3891
  998MOL0     C34648   4.442   8.863   5.575  0.1527 -0.0355 -0.0513
  998MOL0     C34649   4.000   8.726   5.547 -0.3777  0.2395  0.6381
  998MOL0     C34650   4.022   8.598   5.493 -0.2630  0.3812  0.6167
  998MOL0     C34651   3.927   8.495   5.504  0.0834  0.6054  0.7187
  998MOL0     C34652   3.807   8.521   5.576  0.0421  0.1889  0.1029
  998MOL0     O34653   3.712   8.431   5.607  0.2229 -0.1039  0.3210
  998MOL0     C34654   3.707   8.296   5.541 -0.4113 -0.4988 -0.2224
  998MOL0     C34655   3.573   8.236   5.547 -0.5830  0.7837  0.5309
  998MOL0     C34656   3.543   8.170   5.681 -0.3992 -1.0387 -0.8081
  998MOL0     C34657   3.411   8.096   5.679  0.4600 -0.1017  0.6641
  998MOL0     C34658   3.332   8.096   5.797 -0.3058 -0.4492  0.0467
  998MOL0     C34659   3.270   8.105   5.900 -0.4042 -0.4668 -0.5071
  998MOL0     C34660   3.783   8.646   5.633  0.7514  0.0847 -0.5110
  998MOL0     C34661   3.874   8.753   5.614 -0.3836  1.2844  0.6225
  998MOL0     C34662   3.833   8.886   5.670  0.1344  0.2272 -0.8541
  998MOL0     H34663   4.241   8.928   5.310 -0.7463 -0.4707  1.2088
  998MOL0     H34664   4.451   9.049   5.234  0.9644  1.2201  0.9867
  998MOL0     H34665   4.765   9.248   5.311 -2.0141  3.6300  0.0130
  998MOL0     H34666   4.621   9.202   5.214 -2.6003  1.1936  1.4147
  998MOL0     H34667   4.661   9.306   5.490  0.6878 -0.8755 -0.2158
  998MOL0     H34668   4.506   9.240   5.436  1.2410 -1.0410  2.7699
  998MOL0     H34669   4.660   9.484   5.297 -1.5178  3.9679  0.3453
  998MOL0     H34670   4.531   9.504   5.408  1.0180  2.5589 -1.1105
  998MOL0     H34671   4.525   9.363   5.138 -1.2510 -0.5477 -0.9069
  998MOL0     H34672   4.392   9.350   5.250 -0.4072 -1.2146 -1.9972
  998MOL0     H34673   4.400   9.612   5.260  2.1620 -0.1614  1.3343
  998MOL0     H34674   4.514   9.603   5.122  0.4452 -1.7619  0.0164
  998MOL0     H34675   4.328   9.454   5.003 -1.0904  0.2032  0.2844
  998MOL0     H34676   4.216   9.512   5.105 -0.1500  0.2518  0.5729
  998MOL0     H34677   4.218   9.632   4.911 -0.6295 -1.2056  0.4574
  998MOL0     H34678   4.369   9.713   4.930  0.0241  0.8028 -1.1248
  998MOL0     H34679   4.297   9.795   5.157 -1.3937 -0.6170  0.9810
  998MOL0     H34680   4.237   9.864   5.010  2.5588  2.2149  2.0351
  998MOL0     H34681   3.991   9.713   4.937 -2.3832 -0.6827 -0.3626
  998MOL0     H34682   3.679   9.787   5.148  0.7940 -1.0502  0.8051
  998MOL0     H34683   3.709   9.741   4.980  0.9878 -2.7144 -2.1515
  998MOL0     H34684   3.736   9.512   5.175  2.0901  3.7286  1.3812
  998MOL0     H34685   3.576   9.564   5.116  0.5269  1.9488  0.0926
  998MOL0     H34686   3.821   9.503   4.959  0.6381  0.2184  0.1749
  998MOL0     H34687   3.671   9.552   4.888  2.0828  1.2130  1.5254
  998MOL0     H34688   3.712   9.290   5.044 -1.7286  0.2323  1.6527
  998MOL0     H34689   3.713   9.316   4.870 -0.2225  2.5413 -1.1923
  998MOL0     H34690   3.309   9.302   4.836  0.9159  0.4295  1.0142
  998MOL0     H34691   3.196   9.078   4.822  0.8263  1.7757 -0.4739
  998MOL0     H34692   3.096   8.624   4.975 -0.5711 -1.5658 -0.5564
  998MOL0     H34693   3.037   8.396   4.915  0.2561 -0.2806  2.0148
  998MOL0     H34694   3.052   8.283   4.710  1.3936 -0.3333 -3.6264
  998MOL0     H34695   3.177   8.188   4.631  2.1470  0.7231  0.4833
  998MOL0     H34696   3.015   8.077   4.859  1.1125 -0.9371  0.0249
  998MOL0     H34697   2.924   8.091   4.708 -0.1060 -0.6807 -0.3265
  998MOL0     H34698   3.110   7.941   4.605  1.3602 -0.3312  0.0802
  998MOL0     H34699   3.173   7.930   4.762  0.2918  5.2621  0.2924
  998MOL0     H34700   2.872   7.869   4.718 -0.7865 -1.8766 -0.2077
  998MOL0     H34701   2.972   7.797   4.844 -1.8333  0.9439  0.4531
  998MOL0     H34702   3.067   7.642   4.694 -4.1446 -4.2326  2.1137
  998MOL0     H34703   3.020   7.740   4.557 -1.8194  0.7807 -1.5140
  998MOL0     H34704   2.770   7.678   4.611  0.9113  2.3030  3.6096
  998MOL0     H34705   2.884   7.548   4.561  0.9981 -0.2687 -0.0846
  998MOL0     H34706   2.863   7.607   4.852 -0.0039  2.1726 -2.4876
  998MOL0     H34707   2.907   7.456   4.771 -0.2757 -1.0104 -0.4954
  998MOL0     H34708   2.701   7.446   4.893  0.4616 -2.1004 -1.0858
  998MOL0     H34709   2.638   7.597   4.811 -1.8681 -0.6797 -1.1444
  998MOL0     H34710   3.436   8.322   4.788  0.9034  1.7664 -0.5208
  998MOL0     H34711   3.493   8.576   4.841 -0.2204  0.3020  1.2334
  998MOL0     H34712   3.545   8.870   4.953 -0.5470  0.1949  2.7800
  998MOL0     H34713   3.626   9.105   5.037 -0.8664  0.1983  2.6572
  998MOL0     H34714   4.642   8.936   5.596  1.8265  2.5550 -1.6217
  998MOL0     H34715   4.444   8.814   5.672 -0.0885 -2.1615 -1.0625
  998MOL0     H34716   4.117   8.570   5.449 -0.1368  1.4196  0.1960
  998MOL0     H34717   3.945   8.393   5.472  4.3015  0.6316  2.3581
  998MOL0     H34718   3.786   8.238   5.589  0.2157  1.7259  1.6465
  998MOL0     H34719   3.745   8.326   5.442 -4.0758  1.7108 -1.1487
  998MOL0     H34720   3.587   8.151   5.480 -0.1342  1.5169 -0.3193
  998MOL0     H34721   3.496   8.304   5.510  0.1307  0.3910 -1.7935
  998MOL0     H34722   3.547   8.238   5.767 -0.3923 -0.9574 -0.8723
  998MOL0     H34723   3.625   8.099   5.695  1.7595  1.0217 -2.1671
  998MOL0     H34724   3.344   8.141   5.605  2.1163  0.1064 -0.7499
  998MOL0     H34725   3.430   7.997   5.638 -1.5086  0.5621 -2.1455
  998MOL0     H34726   3.206   8.115   5.986 -0.4227 -3.5075 -0.0744
  998MOL0     H34727   3.689   8.650   5.687 -1.4320 -1.9727 -3.7784
  998MOL0     H34728   3.818   8.963   5.594  0.0998  1.7441  0.6369
  998MOL0     H34729   3.737   8.870   5.721  1.4210 -1.9802  1.1057
  998MOL0     H34730   3.908   8.917   5.744 -1.7143  0.4260  1.0619
  999MOL0     O34731  10.958   9.895  10.839  0.7790 -0.0465  0.5475
  999MOL0     C34732  10.977   9.876  10.961 -0.1400  0.1347  0.0754
  999MOL0     O34733  11.006   9.979  11.050 -0.1756  0.0047  0.5412
  999MOL0     C34734  10.995  10.117  11.025 -0.0483  0.0421 -0.0965
  999MOL0     C34735  11.051  10.195  11.125 -0.2103 -0.2544  1.3973
  999MOL0     C34736  11.036  10.331  11.126  0.1431 -0.2299  0.4905
  999MOL0     C34737  10.959  10.398  11.022 -0.5899  0.3614  0.1611
  999MOL0     O34738  10.942  10.534  11.018  0.5541  0.7591  0.2014
  999MOL0     C34739  11.063  10.612  10.990  0.3437 -0.4254 -0.4163
  999MOL0     C34740  11.005  10.759  10.997 -0.2786 -0.1177  0.3146
  999MOL0     C34741  11.122  10.859  10.963  0.2107  0.5963  0.6476
  999MOL0     C34742  11.066  11.001  10.949 -0.1906 -0.0649  0.6617
  999MOL0     C34743  11.168  11.117  10.925  0.1048 -0.1352  0.5134
  999MOL0     C34744  11.100  11.256  10.885 -0.3776  0.3235  0.0874
  999MOL0     C34745  11.206  11.362  10.881 -0.2431  0.0014  0.0325
  999MOL0     C34746  11.268  11.389  10.744 -0.0157 -0.3004  0.2774
  999MOL0     N34747  11.343  11.517  10.750  0.1937  0.0456 -0.1127
  999MOL0     C34748  11.459  11.537  10.814  0.2370 -0.2981  0.3816
  999MOL0     C34749  11.483  11.668  10.807  1.5615  0.0572  0.2855
  999MOL0     C34750  11.602  11.746  10.856  0.3530  0.2512 -0.0024
  999MOL0     C34751  11.630  11.770  11.002  0.1307  0.8519 -0.1585
  999MOL0     C34752  11.545  11.869  11.081  0.2289 -0.0022  0.3024
  999MOL0     C34753  11.395  11.838  11.068  0.6077 -1.0654 -0.1746
  999MOL0     O34754  11.317  11.939  11.137  0.2744  0.3895  0.4255
  999MOL0     C34755  11.285  12.059  11.075  0.1802  0.8411  0.4615
  999MOL0     C34756  11.280  12.096  10.938  0.4648  0.4045 -0.1221
  999MOL0     C34757  11.243  12.228  10.894 -0.2035  0.0980 -0.5820
  999MOL0     C34758  11.228  12.330  10.994  0.0421 -0.2547 -0.1136
  999MOL0     C34759  11.200  12.475  10.970  1.0215 -0.6015  0.3817
  999MOL0     O34760  11.218  12.532  10.842 -1.3371 -0.1803  0.4919
  999MOL0     C34761  11.233  12.669  10.837  0.6045 -0.1084  0.5410
  999MOL0     C34762  11.152  12.755  10.764  0.6766  0.0247 -0.2164
  999MOL0     C34763  11.179  12.894  10.751  0.7031  0.4812  0.2785
  999MOL0     C34764  11.299  12.949  10.809  0.8408 -0.4097 -0.2509
  999MOL0     O34765  11.345  13.082  10.789  0.2552 -0.2641 -1.0942
  999MOL0     C34766  11.241  13.177  10.743  0.0181 -0.4061 -0.2654
  999MOL0     C34767  11.275  13.321  10.753  0.3380 -0.1764  0.4917
  999MOL0     C34768  11.395  13.358  10.662  0.1955 -0.1538  0.2694
  999MOL0     C34769  11.417  13.516  10.656 -1.0180 -0.3005  0.3437
  999MOL0     C34770  11.552  13.553  10.713  0.0070  0.7826 -1.1044
  999MOL0     C34771  11.592  13.701  10.714  0.0243  0.2806  0.6628
  999MOL0     C34772  11.517  13.780  10.814  0.3973 -0.3139 -0.0454
  999MOL0     C34773  11.558  13.937  10.814  0.6097 -0.3790 -0.8616
  999MOL0    Cl34774  11.499  14.010  10.954 -0.3776 -0.2821 -0.3087
  999MOL0     C34775  11.377  12.863  10.885  0.0092  0.2271 -0.1722
  999MOL0     C34776  11.351  12.727  10.878  0.5458 -0.4248 -0.6331
  999MOL0     O34777  11.166  12.545  11.069 -0.8849 -0.1004 -0.1899
  999MOL0     C34778  11.224  12.283  11.129  0.4121  0.2892  0.5517
  999MOL0     C34779  11.243  12.152  11.164 -0.0896  0.0728  0.3398
  999MOL0     N34780  11.380  11.718  10.725  0.1664 -0.7424 -0.2645
  999MOL0     N34781  11.295  11.631  10.691  0.3574  0.1175 -0.6533
  999MOL0     C34782  10.893  10.318  10.926  0.0611 -0.5375 -0.0960
  999MOL0     C34783  10.924  10.178  10.923 -0.1090 -0.0979  0.3048
  999MOL0     C34784  10.953   9.740  11.017  0.0733 -0.0042 -0.4969
  999MOL0     C34785  10.887   9.647  10.933  0.0956  0.1471 -0.3316
  999MOL0     C34786  10.864   9.514  10.979 -0.0412  0.1809  0.3431
  999MOL0     C34787  10.893   9.471  11.103 -0.0189  0.7906  0.6494
  999MOL0     O34788  10.880   9.345  11.157  0.6408 -0.3446  0.0258
  999MOL0     C34789  10.913   9.236  11.066  0.8073 -0.7339 -0.3740
  999MOL0     C34790  10.883   9.096  11.128 -0.1284 -0.2384 -0.5086
  999MOL0     C34791  10.742   9.028  11.115  0.0932  0.3990 -0.0760
  999MOL0     C34792  10.760   8.890  11.173  0.0477  0.0375 -0.4272
  999MOL0     C34793  10.631   8.819  11.164 -0.4739  0.0067 -0.0578
  999MOL0     C34794  10.521   8.781  11.146 -0.0778 -0.2090 -0.0256
  999MOL0     C34795  10.944   9.565  11.191  0.8085  0.7055  0.7525
  999MOL0     C34796  10.975   9.697  11.154 -0.2400 -0.0995  0.3960
  999MOL0     C34797  11.040   9.785  11.263 -0.8783  0.2573  0.5044
  999MOL0     H34798  11.104  10.133  11.197 -1.6424 -3.5779 -0.2009
  999MOL0     H34799  11.074  10.391  11.208 -1.6555 -1.0529  2.0094
  999MOL0     H34800  11.135  10.605  11.071 -0.0503  1.7084  0.1876
  999MOL0     H34801  11.112  10.592  10.894  1.1762  2.1334 -0.6171
  999MOL0     H34802  10.963  10.769  11.097 -0.9303 -1.1510  0.1496
  999MOL0     H34803  10.924  10.770  10.924 -1.4386 -2.4932  1.1511
  999MOL0     H34804  11.163  10.823  10.869  1.9077 -2.8870  2.5269
  999MOL0     H34805  11.202  10.866  11.038  3.5660  1.6587 -2.7590
  999MOL0     H34806  11.000  11.000  10.862  2.0846  0.8500 -1.1703
  999MOL0     H34807  11.001  11.028  11.032 -2.3935  3.1084 -1.8654
  999MOL0     H34808  11.234  11.127  11.011  0.3351  1.5331  0.1708
  999MOL0     H34809  11.233  11.089  10.841 -0.6663  1.3871 -0.6392
  999MOL0     H34810  11.038  11.240  10.796  0.4686 -1.1607 -0.2860
  999MOL0     H34811  11.034  11.283  10.968  1.9161  0.3213  2.0176
  999MOL0     H34812  11.286  11.328  10.947 -0.5265 -0.2553  0.2427
  999MOL0     H34813  11.160  11.456  10.915  3.1794  1.5882  0.7429
  999MOL0     H34814  11.331  11.305  10.714 -1.9756 -1.5315 -0.6248
  999MOL0     H34815  11.186  11.398  10.672  0.9665 -1.2033 -1.0059
  999MOL0     H34816  11.525  11.464  10.860  0.8869  0.7370  1.1192
  999MOL0     H34817  11.690  11.695  10.817  2.4139  1.8637  2.2628
  999MOL0     H34818  11.602  11.843  10.806  0.9450 -0.4020 -1.3116
  999MOL0     H34819  11.620  11.672  11.050  2.1184  0.5952 -0.1849
  999MOL0     H34820  11.734  11.806  11.008 -0.3097  1.9248  2.1581
  999MOL0     H34821  11.564  11.969  11.042  2.6668  0.1654  1.6931
  999MOL0     H34822  11.567  11.874  11.188 -0.8775  2.3923  0.4606
  999MOL0     H34823  11.368  11.747  11.123  1.6718 -3.4644 -3.3298
  999MOL0     H34824  11.358  11.831  10.966  1.7698  2.5195 -0.9872
  999MOL0     H34825  11.309  12.027  10.860  0.7150 -0.3215  0.5981
  999MOL0     H34826  11.243  12.258  10.789 -4.6739 -1.8245 -1.3418
  999MOL0     H34827  11.061  12.703  10.738 -3.1117  3.1534  4.7303
  999MOL0     H34828  11.118  12.961  10.692  0.7248 -1.1178 -1.6596
  999MOL0     H34829  11.206  13.156  10.642  0.3425 -1.6535 -0.1325
  999MOL0     H34830  11.157  13.168  10.813  0.7822  0.4436  0.7949
  999MOL0     H34831  11.192  13.384  10.718  0.0768  0.6405  2.4512
  999MOL0     H34832  11.296  13.337  10.859 -1.2630  2.5626  0.5022
  999MOL0     H34833  11.483  13.310  10.706 -1.1788 -1.4242  1.7788
  999MOL0     H34834  11.390  13.301  10.568 -2.5353  0.7538 -0.2363
  999MOL0     H34835  11.339  13.569  10.712  2.5768  5.2764  0.9122
  999MOL0     H34836  11.415  13.554  10.553  0.7161  1.1962  0.8026
  999MOL0     H34837  11.626  13.482  10.675  1.2497  1.7098 -0.4875
  999MOL0     H34838  11.545  13.520  10.816 -1.0032  1.8499 -0.8113
  999MOL0     H34839  11.700  13.695  10.731 -0.0143  2.0462  1.9391
  999MOL0     H34840  11.564  13.743  10.618  3.2589  1.9794  0.3110
  999MOL0     H34841  11.531  13.740  10.915 -4.8634  0.2440  1.1901
  999MOL0     H34842  11.410  13.766  10.798  0.1145  2.1625 -0.7038
  999MOL0     H34843  11.667  13.950  10.811  1.3896 -1.7505  5.5815
  999MOL0     H34844  11.509  13.985  10.729 -0.1134  1.4919  0.5542
  999MOL0     H34845  11.464  12.910  10.930 -1.2963  0.8919  1.8167
  999MOL0     H34846  11.423  12.666  10.932  2.7601  1.6079 -1.1496
  999MOL0     H34847  11.206  12.347  11.215 -2.1574  0.4699 -0.0189
  999MOL0     H34848  11.222  12.130  11.269 -0.3844 -3.0019 -0.2803
  999MOL0     H34849  10.836  10.365  10.847 -1.2708 -0.1578  1.0570
  999MOL0     H34850  10.871  10.133  10.840 -1.5297  3.7787 -1.1343
  999MOL0     H34851  10.870   9.669  10.828  3.3757 -2.4087 -1.5472
  999MOL0     H34852  10.811   9.446  10.913  1.5864  0.2537 -1.1101
  999MOL0     H34853  11.014   9.243  11.026  0.3230  4.0643 -1.4309
  999MOL0     H34854  10.848   9.237  10.978  0.7698 -0.7885 -0.3472
  999MOL0     H34855  10.907   9.120  11.232 -1.9004  4.3111 -0.9180
  999MOL0     H34856  10.960   9.034  11.081 -0.2714  0.9929 -2.4699
  999MOL0     H34857  10.705   9.015  11.013  0.0723  0.1889 -0.0416
  999MOL0     H34858  10.670   9.082  11.176  0.8142  2.5350 -1.0072
  999MOL0     H34859  10.833   8.838  11.110 -0.9950 -0.8375 -0.9658
  999MOL0     H34860  10.793   8.899  11.276  1.5496  1.8317 -1.0003
  999MOL0     H34861  10.418   8.751  11.143 -0.6691  1.6192  0.2939
  999MOL0     H34862  10.942   9.537  11.296 -2.1652 -0.2102  0.5614
  999MOL0     H34863  11.145   9.797  11.237 -0.8519  0.5227  0.7378
  999MOL0     H34864  10.997   9.884  11.278  0.6244  0.7930  1.4477
  999MOL0     H34865  11.037   9.733  11.360  1.4235  1.1406  1.1193
 1000MOL0     O34866   3.548  10.412  11.083 -0.9691  1.1298 -0.5880
 1000MOL0     C34867   3.598  10.370  11.187 -1.0165 -0.5258  0.7893
 1000MOL0     O34868   3.519  10.321  11.296  0.2581  0.3873 -0.2772
 1000MOL0     C34869   3.381  10.323  11.290 -0.2539 -0.5565  0.1470
 1000MOL0     C34870   3.320  10.215  11.357 -0.1126 -0.0062  0.3349
 1000MOL0     C34871   3.178  10.197  11.359 -0.4036 -1.0459 -0.2391
 1000MOL0     C34872   3.107  10.317  11.348  0.0332  0.2018  0.1250
 1000MOL0     O34873   2.976  10.313  11.379 -0.2101 -0.9655  0.2365
 1000MOL0     C34874   2.923  10.418  11.463  0.2177 -0.4545 -0.0017
 1000MOL0     C34875   2.832  10.499  11.380 -0.2339  0.6052  0.2129
 1000MOL0     C34876   2.737  10.585  11.471 -0.1027  0.6542 -0.1050
 1000MOL0     C34877   2.597  10.603  11.406  0.0834  1.4509  0.0393
 1000MOL0     C34878   2.494  10.657  11.508  0.5361 -0.5355  0.4157
 1000MOL0     C34879   2.359  10.686  11.439 -0.4736  0.8428 -0.2775
 1000MOL0     C34880   2.237  10.708  11.532 -0.5415 -0.1576 -0.1772
 1000MOL0     C34881   2.237  10.844  11.605  0.0411 -0.5394  0.2019
 1000MOL0     N34882   2.108  10.879  11.672 -0.9432 -0.7254  0.4929
 1000MOL0     C34883   2.064  10.826  11.792  0.3619  1.0092  1.4284
 1000MOL0     C34884   1.960  10.914  11.827  0.1433  0.1637  0.4225
 1000MOL0     C34885   1.885  10.917  11.954 -0.3142  0.9315 -0.5833
 1000MOL0     C34886   1.743  10.871  11.923 -0.1902  0.2325  0.0794
 1000MOL0     C34887   1.652  10.886  12.044 -0.9339  0.2762  1.1839
 1000MOL0     C34888   1.555  10.767  12.048  0.6118 -1.1212  0.0376
 1000MOL0     O34889   1.479  10.748  11.931  0.2752 -0.2269  0.6690
 1000MOL0     C34890   1.414  10.630  11.894  0.1845  0.2451 -0.5402
 1000MOL0     C34891   1.482  10.511  11.875  0.2204 -0.3406 -0.6382
 1000MOL0     C34892   1.419  10.398  11.847  0.4449 -0.2455 -0.0677
 1000MOL0     C34893   1.279  10.385  11.850  0.7023  0.5007 -1.4355
 1000MOL0     C34894   1.228  10.248  11.839 -0.1161 -0.6693  0.0031
 1000MOL0     O34895   1.309  10.154  11.893  0.4612  0.0749 -0.5844
 1000MOL0     C34896   1.264  10.029  11.914 -0.7164 -0.1609  0.5442
 1000MOL0     C34897   1.183   9.990  12.017  0.2328 -0.0183 -0.2889
 1000MOL0     C34898   1.156   9.855  12.032  0.2699 -0.7346 -0.3594
 1000MOL0     C34899   1.199   9.757  11.937 -0.1854 -0.3122  0.3593
 1000MOL0     O34900   1.152   9.627  11.945 -0.1500  1.0374 -0.1648
 1000MOL0     C34901   1.256   9.525  11.947 -0.6175  0.1508 -0.4596
 1000MOL0     C34902   1.276   9.459  12.090  0.3321  0.0936 -0.4584
 1000MOL0     C34903   1.150   9.380  12.149  0.1603 -0.0790  0.3273
 1000MOL0     C34904   1.178   9.322  12.291 -0.0601  0.5950 -0.0656
 1000MOL0     C34905   1.057   9.232  12.345 -0.4721  0.6159 -0.4414
 1000MOL0     C34906   1.114   9.115  12.427 -0.7839 -0.8361 -0.0176
 1000MOL0     C34907   1.177   9.168  12.560 -0.1954 -0.2904 -0.5168
 1000MOL0     C34908   1.258   9.064  12.632 -0.3990  0.3412 -0.3375
 1000MOL0    Cl34909   1.168   8.920  12.676  0.5779 -0.1362 -0.2029
 1000MOL0     C34910   1.294   9.797  11.845  0.0353 -0.0685  1.5866
 1000MOL0     C34911   1.327   9.932  11.838 -1.5994  0.6158 -0.4111
 1000MOL0     O34912   1.127  10.228  11.775  0.1783  0.3427  0.1270
 1000MOL0     C34913   1.209  10.504  11.890 -0.4746  0.4702  1.2183
 1000MOL0     C34914   1.273  10.626  11.889 -0.1744 -0.7787 -0.4719
 1000MOL0     N34915   1.953  11.014  11.735 -0.8717  0.3073  0.4183
 1000MOL0     N34916   2.038  10.987  11.639 -0.8926 -0.2814  0.0366
 1000MOL0     C34917   3.165  10.430  11.291 -0.5835 -0.9218 -0.0431
 1000MOL0     C34918   3.301  10.439  11.260  0.4159 -0.5537 -0.1046
 1000MOL0     C34919   3.748  10.377  11.203 -0.4055  0.5476  0.4552
 1000MOL0     C34920   3.807  10.305  11.313  0.3142 -0.7454  0.9162
 1000MOL0     C34921   3.940  10.290  11.328 -0.2280  0.0642 -0.4310
 1000MOL0     C34922   4.031  10.348  11.234  0.6050  0.3829  0.2715
 1000MOL0     O34923   4.164  10.338  11.249 -0.4434  0.2722 -0.9767
 1000MOL0     C34924   4.209  10.200  11.260 -0.0015 -1.1552  0.0274
 1000MOL0     C34925   4.180  10.101  11.150  0.3182 -0.3544  0.4965
 1000MOL0     C34926   4.239  10.162  11.022 -1.4857  0.9515 -0.0299
 1000MOL0     C34927   4.226  10.055  10.912 -0.5165 -0.7686  0.0607
 1000MOL0     C34928   4.323   9.947  10.930 -0.2247 -0.3366 -0.0741
 1000MOL0     C34929   4.392   9.848  10.940  0.2428  0.2439 -0.2220
 1000MOL0     C34930   3.979  10.409  11.116  0.1825  0.2756 -0.0412
 1000MOL0     C34931   3.840  10.434  11.106  0.1489  0.1388  0.6694
 1000MOL0     C34932   3.793  10.530  11.009  0.0274  0.1226 -0.6550
 1000MOL0     H34933   3.386  10.138  11.397 -2.3484 -1.4674  1.4132
 1000MOL0     H34934   3.135  10.105  11.398  1.6959 -3.3639 -2.9855
 1000MOL0     H34935   2.876  10.354  11.538 -0.4127 -0.2460 -0.2131
 1000MOL0     H34936   2.993  10.486  11.513  1.0895 -1.6606  0.4788
 1000MOL0     H34937   2.775  10.431  11.316 -1.5608  2.3008 -0.4484
 1000MOL0     H34938   2.884  10.569  11.314  2.1595 -3.4727 -2.7348
 1000MOL0     H34939   2.776  10.682  11.501 -0.8085  0.1979  2.5257
 1000MOL0     H34940   2.726  10.520  11.558 -2.6918 -0.0092 -0.8204
 1000MOL0     H34941   2.604  10.670  11.320 -1.1234  0.6307 -0.7275
 1000MOL0     H34942   2.562  10.515  11.352 -1.5425  2.5428 -0.7817
 1000MOL0     H34943   2.476  10.593  11.595 -2.6691 -1.9203 -1.0991
 1000MOL0     H34944   2.525  10.759  11.530 -0.6513  0.1084 -0.7711
 1000MOL0     H34945   2.371  10.767  11.366  0.3118  0.3800 -0.6777
 1000MOL0     H34946   2.344  10.598  11.377 -0.9028  0.1190  0.8199
 1000MOL0     H34947   2.228  10.632  11.610  1.1531  2.1858  2.5228
 1000MOL0     H34948   2.146  10.705  11.472 -2.7487  2.4920  2.7198
 1000MOL0     H34949   2.309  10.836  11.687 -1.7468  2.0216  2.2171
 1000MOL0     H34950   2.266  10.920  11.531  3.9857 -1.6610  0.4076
 1000MOL0     H34951   2.096  10.735  11.841  0.4972  0.0034 -0.4826
 1000MOL0     H34952   1.918  10.838  12.021 -2.0561  1.8010  1.3873
 1000MOL0     H34953   1.902  11.011  12.007 -0.1811 -1.2124  3.5192
 1000MOL0     H34954   1.701  10.922  11.836 -0.8602 -1.1448 -0.4197
 1000MOL0     H34955   1.748  10.764  11.905  0.4854  0.3493 -0.4665
 1000MOL0     H34956   1.596  10.980  12.045 -0.7389  0.3921  1.4232
 1000MOL0     H34957   1.718  10.869  12.130  1.4806 -3.0677 -1.0479
 1000MOL0     H34958   1.480  10.797  12.123  1.9035  0.6352  0.6997
 1000MOL0     H34959   1.611  10.678  12.077  0.8608 -0.4643  1.6717
 1000MOL0     H34960   1.590  10.510  11.885  0.0603 -1.1171  1.5017
 1000MOL0     H34961   1.480  10.310  11.833  1.6374  0.6593 -0.7509
 1000MOL0     H34962   1.136  10.062  12.083  0.5481 -1.0267  1.0933
 1000MOL0     H34963   1.093   9.835  12.118  1.4220  1.8520  1.2153
 1000MOL0     H34964   1.236   9.449  11.871  3.4722 -1.1810 -0.4508
 1000MOL0     H34965   1.354   9.556  11.912 -0.7908  1.2279 -0.0262
 1000MOL0     H34966   1.352   9.384  12.066 -2.1643 -2.4867 -0.8026
 1000MOL0     H34967   1.300   9.535  12.164 -2.8789  0.3434  0.4748
 1000MOL0     H34968   1.070   9.452  12.162  0.0103 -0.7640  4.9457
 1000MOL0     H34969   1.127   9.297  12.081 -1.3550 -0.2901  1.0660
 1000MOL0     H34970   1.201   9.399  12.366 -3.5831  0.5924  1.2078
 1000MOL0     H34971   1.276   9.274  12.287 -0.1133  0.5070 -0.2915
 1000MOL0     H34972   0.988   9.201  12.267 -2.6171 -1.0308  1.9481
 1000MOL0     H34973   1.000   9.304  12.404 -2.2400  0.3968 -1.8168
 1000MOL0     H34974   1.036   9.042  12.450  2.7154 -4.1734  2.6843
 1000MOL0     H34975   1.200   9.067  12.379 -0.8550 -0.2527 -0.7516
 1000MOL0     H34976   1.099   9.211  12.624 -1.8373 -0.2065 -2.4598
 1000MOL0     H34977   1.238   9.253  12.530  0.0126 -0.4430 -0.5290
 1000MOL0     H34978   1.339   9.025  12.570 -0.2642  1.1925 -0.7157
 1000MOL0     H34979   1.309   9.105  12.720  1.1107 -1.7024 -0.1962
 1000MOL0     H34980   1.333   9.722  11.777 -1.1593  1.3611 -0.8009
 1000MOL0     H34981   1.397   9.967  11.764 -2.2324  1.6580 -0.5344
 1000MOL0     H34982   1.101  10.498  11.888 -0.4000 -2.7004 -1.2548
 1000MOL0     H34983   1.219  10.720  11.898 -1.2755 -1.0193 -3.4131
 1000MOL0     H34984   3.109  10.522  11.281 -2.5625 -1.5940  3.1404
 1000MOL0     H34985   3.330  10.542  11.244 -2.7874  0.3353 -0.8270
 1000MOL0     H34986   3.734  10.266  11.384 -1.6211 -2.8802 -2.0359
 1000MOL0     H34987   3.979  10.242  11.417  1.9908  3.7261  0.8197
 1000MOL0     H34988   4.167  10.167  11.355  0.1882 -1.2254  0.0881
 1000MOL0     H34989   4.317  10.201  11.280 -0.1918  3.4184  2.1644
 1000MOL0     H34990   4.072  10.112  11.138  0.2119 -0.7093  1.0759
 1000MOL0     H34991   4.218  10.002  11.175  4.4913 -0.2594 -3.9901
 1000MOL0     H34992   4.345  10.177  11.046 -0.6295 -2.1776 -1.3012
 1000MOL0     H34993   4.186  10.253  10.994 -0.0641  1.4847 -1.1361
 1000MOL0     H34994   4.127  10.008  10.918 -0.3131 -1.1248  0.8400
 1000MOL0     H34995   4.234  10.110  10.818 -0.4961  2.9403  2.0472
 1000MOL0     H34996   4.445   9.756  10.939 -1.9568 -1.0933 -1.2109
 1000MOL0     H34997   4.058  10.459  11.060  0.4469  0.2248  0.2799
 1000MOL0     H34998   3.880  10.582  10.969 -0.7366  1.8116 -0.1821
 1000MOL0     H34999   3.744  10.479  10.925 -0.1736  2.6517 -2.1731
 1000MOL0     H35000   3.732  10.599  11.067 -0.7774 -1.9165  1.0818
 1001MOL0     O35001   8.910   2.621   3.882  0.1943  0.1596  0.5191
 1001MOL0     C35002   8.818   2.697   3.851  0.4859  1.2531  0.4652
 1001MOL0     O35003   8.740   2.690   3.729  1.0610  0.0435  0.1861
 1001MOL0     C35004   8.784   2.607   3.636  0.4572  0.0509 -0.3720
 1001MOL0     C35005   8.877   2.651   3.545 -0.6175  0.5679  1.7611
 1001MOL0     C35006   8.939   2.565   3.461 -0.3818  0.1894  0.4041
 1001MOL0     C35007   8.896   2.431   3.454 -1.3216  0.1962 -0.3042
 1001MOL0     O35008   8.957   2.346   3.365  0.0616 -0.0125 -0.6109
 1001MOL0     C35009   9.100   2.352   3.357  0.5522 -0.3117 -0.1540
 1001MOL0     C35010   9.143   2.222   3.305 -0.6019  0.2018  0.3057
 1001MOL0     C35011   9.297   2.222   3.261 -0.5943 -0.5629  0.3050
 1001MOL0     C35012   9.346   2.090   3.188  0.9478  0.2219  1.1011
 1001MOL0     C35013   9.483   2.106   3.152 -0.8745 -0.5674 -0.0106
 1001MOL0     C35014   9.538   1.985   3.068  0.9243 -0.1486  0.1836
 1001MOL0     C35015   9.578   1.870   3.152  0.9890 -0.2845 -0.8534
 1001MOL0     C35016   9.644   1.758   3.077  1.2350 -0.4250 -0.2834
 1001MOL0     N35017   9.690   1.660   3.177  0.5755  0.3498  0.4064
 1001MOL0     C35018   9.593   1.600   3.267 -0.9654 -1.1074 -0.5200
 1001MOL0     C35019   9.672   1.536   3.363 -0.2626 -0.2995  0.3390
 1001MOL0     C35020   9.635   1.470   3.489 -0.3545  0.0065 -0.1580
 1001MOL0     C35021   9.705   1.545   3.604 -0.7496  0.1812 -0.2363
 1001MOL0     C35022   9.656   1.692   3.631  0.7090 -0.3789  0.4873
 1001MOL0     C35023   9.679   1.716   3.785  0.8157  0.0378  0.8972
 1001MOL0     O35024   9.597   1.631   3.858 -0.3350  0.2620 -0.1260
 1001MOL0     C35025   9.465   1.673   3.874  0.1122  0.2944  0.7402
 1001MOL0     C35026   9.419   1.804   3.882 -0.5109  0.3454  0.3328
 1001MOL0     C35027   9.285   1.826   3.892  0.1476 -0.5166 -0.2324
 1001MOL0     C35028   9.192   1.721   3.901  0.3348 -0.0108  0.0090
 1001MOL0     C35029   9.043   1.754   3.890 -0.5624 -0.8454 -0.4346
 1001MOL0     O35030   9.005   1.884   3.868  0.4292 -0.2554  0.6693
 1001MOL0     C35031   8.880   1.914   3.911  0.2598  0.8999 -0.3212
 1001MOL0     C35032   8.838   1.881   4.039 -0.0151  0.0777  0.5899
 1001MOL0     C35033   8.714   1.922   4.097  0.3759  0.0002 -0.7955
 1001MOL0     C35034   8.620   1.976   4.011 -0.1050  0.0385  0.5272
 1001MOL0     O35035   8.500   2.008   4.052  0.5024  0.2610 -0.1764
 1001MOL0     C35036   8.431   1.943   4.160 -0.7806  0.8906  0.2284
 1001MOL0     C35037   8.301   2.020   4.189  0.7106 -0.0966  0.4149
 1001MOL0     C35038   8.200   1.922   4.250  0.1542  0.3190 -0.0355
 1001MOL0     C35039   8.251   1.891   4.390 -0.0216  0.0654 -0.9506
 1001MOL0     C35040   8.141   1.812   4.458 -0.5733  0.1746 -0.0384
 1001MOL0     C35041   8.184   1.696   4.545  0.5971  0.8004 -0.4064
 1001MOL0     C35042   8.215   1.702   4.693  0.8153 -0.3009  0.1935
 1001MOL0     C35043   8.094   1.765   4.778 -0.0048  0.8618  0.2453
 1001MOL0    Cl35044   8.128   1.944   4.812  0.2810 -0.2683  0.2560
 1001MOL0     C35045   8.663   2.004   3.878 -0.0086 -0.5181  0.1941
 1001MOL0     C35046   8.790   1.969   3.822  0.3102  0.0095  0.5454
 1001MOL0     O35047   8.977   1.666   3.928  0.0051 -0.1726 -0.3198
 1001MOL0     C35048   9.228   1.589   3.903  0.2391  0.2519  0.8501
 1001MOL0     C35049   9.365   1.569   3.887 -0.8051  0.1172 -1.1763
 1001MOL0     N35050   9.807   1.564   3.327  0.3908  0.1419  0.6294
 1001MOL0     N35051   9.813   1.647   3.225 -0.3598  0.0119  0.5711
 1001MOL0     C35052   8.805   2.388   3.556 -0.3949  0.8584 -0.1413
 1001MOL0     C35053   8.747   2.480   3.646  0.4498  0.5660 -0.6365
 1001MOL0     C35054   8.769   2.803   3.939 -0.2342  0.1506 -0.7803
 1001MOL0     C35055   8.654   2.864   3.902 -0.0659 -0.9275 -0.6828
 1001MOL0     C35056   8.585   2.954   3.990 -0.4917  0.5990  0.1273
 1001MOL0     C35057   8.645   3.002   4.105 -0.5246 -0.2060 -0.1573
 1001MOL0     O35058   8.584   3.098   4.183 -0.3173 -0.7682 -0.1217
 1001MOL0     C35059   8.656   3.171   4.288  0.7114  0.5037 -0.6752
 1001MOL0     C35060   8.664   3.101   4.429 -0.0913  0.5220  0.1629
 1001MOL0     C35061   8.805   3.092   4.495  1.1300 -0.2269  0.2447
 1001MOL0     C35062   8.838   3.227   4.550 -0.4627  0.1368 -0.6211
 1001MOL0     C35063   8.930   3.207   4.659  0.1427  0.7816 -0.9238
 1001MOL0     C35064   8.999   3.180   4.755  0.2023 -0.3540 -0.5529
 1001MOL0     C35065   8.772   2.957   4.127 -0.0806 -0.4901  0.0556
 1001MOL0     C35066   8.829   2.849   4.057  0.5077  0.3705  0.1350
 1001MOL0     C35067   8.947   2.785   4.111  0.5336 -0.9988 -0.5342
 1001MOL0     H35068   8.918   2.752   3.550 -2.1031  1.6216 -2.6768
 1001MOL0     H35069   9.002   2.605   3.383 -1.7373  1.2658 -0.1880
 1001MOL0     H35070   9.131   2.430   3.286  0.6011 -1.0920 -1.0180
 1001MOL0     H35071   9.158   2.377   3.446  1.3543  0.3266 -0.8369
 1001MOL0     H35072   9.082   2.201   3.217 -2.4589  3.2766  0.7280
 1001MOL0     H35073   9.133   2.143   3.381 -1.1229 -2.1695 -2.0955
 1001MOL0     H35074   9.356   2.245   3.350 -2.3606  0.9445  1.1752
 1001MOL0     H35075   9.304   2.303   3.188 -1.9096 -0.7828 -0.0954
 1001MOL0     H35076   9.324   2.003   3.251  0.8683 -0.3889  0.2513
 1001MOL0     H35077   9.292   2.080   3.094  0.7599 -1.2935  1.3427
 1001MOL0     H35078   9.478   2.193   3.086 -1.3660 -1.8644 -1.7474
 1001MOL0     H35079   9.553   2.118   3.235 -0.2515 -1.7817 -0.3366
 1001MOL0     H35080   9.463   1.962   2.992 -1.0412  0.3236  1.8884
 1001MOL0     H35081   9.626   2.024   3.016 -0.5207  2.6632 -0.4055
 1001MOL0     H35082   9.488   1.836   3.205  0.7032  1.4990 -0.1288
 1001MOL0     H35083   9.651   1.899   3.227 -0.9002  0.9237  0.6286
 1001MOL0     H35084   9.583   1.712   2.999 -4.1970  0.8548  2.6932
 1001MOL0     H35085   9.731   1.790   3.020 -0.0629  1.5533 -1.2756
 1001MOL0     H35086   9.485   1.586   3.271 -1.3387  1.4675  0.2058
 1001MOL0     H35087   9.530   1.473   3.520  0.5050 -2.7633  3.9245
 1001MOL0     H35088   9.668   1.366   3.497  1.0904  0.2808 -1.9436
 1001MOL0     H35089   9.681   1.487   3.693 -2.7230  1.3460  0.0549
 1001MOL0     H35090   9.812   1.546   3.584 -1.0722  2.0906 -2.3877
 1001MOL0     H35091   9.549   1.698   3.609 -0.5521  0.7251  5.6129
 1001MOL0     H35092   9.714   1.769   3.580 -1.4488  1.0725  0.0944
 1001MOL0     H35093   9.670   1.825   3.791  2.6705  0.1835  2.4523
 1001MOL0     H35094   9.782   1.685   3.808  0.1293 -2.8734  0.4330
 1001MOL0     H35095   9.490   1.885   3.895  0.7815 -0.7034 -0.0144
 1001MOL0     H35096   9.258   1.931   3.902  2.3510 -0.1065  3.3108
 1001MOL0     H35097   8.913   1.836   4.102  1.1619  0.3213 -0.5991
 1001MOL0     H35098   8.695   1.904   4.202 -5.4692  0.0125 -1.5035
 1001MOL0     H35099   8.407   1.841   4.129 -0.7315  1.4073 -1.6168
 1001MOL0     H35100   8.504   1.943   4.242 -0.7754 -0.7783  0.2450
 1001MOL0     H35101   8.312   2.108   4.253  2.4549 -0.7834  1.1427
 1001MOL0     H35102   8.248   2.055   4.100  1.0082 -0.1524  0.2155
 1001MOL0     H35103   8.099   1.964   4.250 -0.3663 -0.6656  3.3531
 1001MOL0     H35104   8.189   1.829   4.192 -4.3734  2.2657 -2.7900
 1001MOL0     H35105   8.282   1.983   4.440  0.6494 -0.6344 -0.0270
 1001MOL0     H35106   8.341   1.829   4.394 -0.6824 -0.8704  0.3950
 1001MOL0     H35107   8.071   1.774   4.384  1.0415  2.3163 -2.8405
 1001MOL0     H35108   8.081   1.877   4.521 -0.6562  0.7328 -0.6882
 1001MOL0     H35109   8.105   1.622   4.528  3.9831 -3.0860 -0.7998
 1001MOL0     H35110   8.274   1.658   4.496 -0.6341 -2.8707 -0.1547
 1001MOL0     H35111   8.301   1.766   4.714  2.6187 -2.8092  0.9245
 1001MOL0     H35112   8.249   1.609   4.739  3.0713 -0.3796 -1.4707
 1001MOL0     H35113   8.006   1.755   4.714 -0.1659  2.9757  0.0572
 1001MOL0     H35114   8.090   1.704   4.868  1.6556  0.1878 -0.0907
 1001MOL0     H35115   8.592   2.040   3.804  0.8175 -1.4126 -1.0792
 1001MOL0     H35116   8.820   1.989   3.720  3.1100  1.7097  1.5956
 1001MOL0     H35117   9.172   1.498   3.921  0.0474  0.0155 -0.7870
 1001MOL0     H35118   9.397   1.467   3.871 -1.8177 -0.0876 -2.1103
 1001MOL0     H35119   8.782   2.282   3.560  2.7331  0.0811  0.4661
 1001MOL0     H35120   8.677   2.450   3.723 -1.8112  1.1016 -2.3742
 1001MOL0     H35121   8.605   2.853   3.806  1.3974 -0.4070 -1.5171
 1001MOL0     H35122   8.496   3.002   3.949 -0.0276  1.5752  0.2416
 1001MOL0     H35123   8.598   3.258   4.320  1.4342  0.1249  1.8788
 1001MOL0     H35124   8.754   3.207   4.257 -0.1284  1.3685 -2.4861
 1001MOL0     H35125   8.633   2.997   4.418 -0.3290  0.4508  1.3634
 1001MOL0     H35126   8.600   3.142   4.508  0.0192 -2.3103  1.8819
 1001MOL0     H35127   8.878   3.052   4.424  0.3766 -2.9408  0.8757
 1001MOL0     H35128   8.803   3.017   4.575  0.1891 -1.3060 -0.7452
 1001MOL0     H35129   8.888   3.277   4.466  2.4176 -0.5012  0.5747
 1001MOL0     H35130   8.764   3.289   4.602  1.7445  2.0509  0.4475
 1001MOL0     H35131   9.057   3.144   4.837  0.0491  0.8308  0.1031
 1001MOL0     H35132   8.827   3.003   4.208 -1.6165 -1.0231  1.4618
 1001MOL0     H35133   9.034   2.780   4.045  1.0422 -2.1717  0.2002
 1001MOL0     H35134   8.975   2.836   4.203  0.1010 -1.0088 -0.3943
 1001MOL0     H35135   8.913   2.681   4.121 -0.2117 -0.8454 -1.3027
 1002MOL0     O35136  11.409   1.962   2.685 -0.7255  0.3308 -0.0488
 1002MOL0     C35137  11.491   2.022   2.623 -0.4381  0.5126 -0.2651
 1002MOL0     O35138  11.475   2.137   2.552 -0.7799 -0.0546 -0.0519
 1002MOL0     C35139  11.358   2.187   2.508 -0.6276  0.0202 -0.5367
 1002MOL0     C35140  11.239   2.105   2.485  0.3237 -0.0122 -0.4049
 1002MOL0     C35141  11.119   2.169   2.461  0.2159  0.1390 -0.3966
 1002MOL0     C35142  11.110   2.312   2.445  0.4894  0.6971  1.3236
 1002MOL0     O35143  11.005   2.386   2.389 -0.7768 -0.0328 -0.3364
 1002MOL0     C35144  10.878   2.341   2.417  0.6058 -1.1036  0.3120
 1002MOL0     C35145  10.780   2.433   2.354 -0.4092 -0.2190 -0.5183
 1002MOL0     C35146  10.808   2.484   2.219  0.3565  0.5640  0.5408
 1002MOL0     C35147  10.901   2.608   2.205  0.5489 -0.7471 -0.1675
 1002MOL0     C35148  10.840   2.744   2.260  0.0034 -0.6395 -0.0814
 1002MOL0     C35149  10.740   2.822   2.169 -0.6563 -0.1280  0.0078
 1002MOL0     C35150  10.796   2.860   2.037 -0.2065  0.5664  0.1123
 1002MOL0     C35151  10.707   2.951   1.962  0.5192 -0.6597  0.2965
 1002MOL0     N35152  10.732   3.094   1.986 -0.2821 -0.1137  0.3166
 1002MOL0     C35153  10.643   3.188   2.052 -0.0006 -0.4123  0.2906
 1002MOL0     C35154  10.718   3.304   2.051  0.5776  0.0639 -0.4757
 1002MOL0     C35155  10.678   3.436   2.122  0.0808  0.0211 -0.8896
 1002MOL0     C35156  10.613   3.405   2.254 -0.7032 -0.1445  0.8752
 1002MOL0     C35157  10.719   3.430   2.368  0.4795  0.0103 -0.3113
 1002MOL0     C35158  10.848   3.352   2.379 -0.0945  0.3926 -0.5367
 1002MOL0     O35159  10.828   3.210   2.392  0.8979  0.2661 -0.0740
 1002MOL0     C35160  10.898   3.154   2.497 -0.3985 -1.0206 -0.4555
 1002MOL0     C35161  11.013   3.085   2.471 -0.6729 -0.4823 -0.0171
 1002MOL0     C35162  11.088   3.020   2.571 -0.0041 -1.5720  0.7004
 1002MOL0     C35163  11.050   3.027   2.701 -0.4967 -0.0179 -0.2970
 1002MOL0     C35164  11.122   2.952   2.801  0.0174 -0.2712  0.1328
 1002MOL0     O35165  11.207   2.855   2.771 -0.4988  0.9547 -0.3009
 1002MOL0     C35166  11.291   2.790   2.860  0.2458 -0.0817  0.1146
 1002MOL0     C35167  11.250   2.677   2.932 -1.0083 -1.3129 -0.5562
 1002MOL0     C35168  11.342   2.601   3.007  0.9155 -0.4769 -0.4723
 1002MOL0     C35169  11.465   2.665   3.045 -0.1007 -0.2841  0.8278
 1002MOL0     O35170  11.568   2.611   3.122  1.5424 -0.0723 -0.5344
 1002MOL0     C35171  11.514   2.521   3.223  0.2545  0.3396 -0.3630
 1002MOL0     C35172  11.619   2.517   3.337 -0.2654  0.9951  1.5359
 1002MOL0     C35173  11.574   2.449   3.463  0.1849  0.7291 -0.0335
 1002MOL0     C35174  11.566   2.294   3.466  0.3396 -0.9538  0.2811
 1002MOL0     C35175  11.506   2.250   3.603 -0.5200  0.1165  0.6561
 1002MOL0     C35176  11.607   2.298   3.715  0.2829 -0.4113 -0.1751
 1002MOL0     C35177  11.571   2.223   3.840 -0.1707 -0.3162 -0.6672
 1002MOL0     C35178  11.625   2.082   3.850  0.5282 -0.8206  0.1652
 1002MOL0    Cl35179  11.544   1.969   3.978  0.4135  0.5038  0.7439
 1002MOL0     C35180  11.491   2.791   2.985  0.6348 -0.5163  0.7435
 1002MOL0     C35181  11.410   2.849   2.882 -0.3556  0.0839 -0.5001
 1002MOL0     O35182  11.103   2.987   2.918  0.4488 -0.0525  0.8942
 1002MOL0     C35183  10.928   3.093   2.731 -0.4465 -0.2324  0.3116
 1002MOL0     C35184  10.862   3.163   2.631  0.2653 -0.3134 -0.1657
 1002MOL0     N35185  10.834   3.291   1.969 -0.7132  0.4411 -0.3348
 1002MOL0     N35186  10.837   3.163   1.943 -0.4682  0.1916  0.7012
 1002MOL0     C35187  11.234   2.388   2.438 -0.3479 -0.4785 -0.3887
 1002MOL0     C35188  11.356   2.319   2.471 -0.1355 -0.7080 -0.0147
 1002MOL0     C35189  11.631   1.966   2.629 -0.4474 -0.1913 -0.6713
 1002MOL0     C35190  11.710   1.970   2.515 -0.1256 -0.1161 -0.8529
 1002MOL0     C35191  11.841   1.921   2.516 -0.2452  0.1933  0.2657
 1002MOL0     C35192  11.898   1.867   2.634 -0.0938  0.0522  0.3312
 1002MOL0     O35193  12.025   1.815   2.617  0.2911  0.2765 -1.2754
 1002MOL0     C35194  12.077   1.716   2.710 -0.4309  0.1548 -0.4777
 1002MOL0     C35195  12.198   1.657   2.645 -0.3958  0.5637 -0.0191
 1002MOL0     C35196  12.221   1.522   2.727  0.0098 -0.1485  0.3359
 1002MOL0     C35197  12.356   1.460   2.674  0.2431 -0.4834 -0.8813
 1002MOL0     C35198  12.365   1.320   2.730 -0.6580 -1.0762  0.1400
 1002MOL0     C35199  12.377   1.207   2.778 -0.1764 -0.1114  1.0137
 1002MOL0     C35200  11.811   1.846   2.737 -0.7042  0.2432 -0.2172
 1002MOL0     C35201  11.682   1.903   2.742 -0.0399 -0.3526 -0.0203
 1002MOL0     C35202  11.628   1.916   2.886 -0.0988 -0.0184  0.0250
 1002MOL0     H35203  11.247   1.997   2.499  0.5157 -0.0084 -0.4881
 1002MOL0     H35204  11.026   2.113   2.457  0.5034 -0.3372 -0.4593
 1002MOL0     H35205  10.863   2.239   2.379  0.5251 -0.5802 -1.1027
 1002MOL0     H35206  10.853   2.343   2.524  0.7919  3.0893  0.4206
 1002MOL0     H35207  10.769   2.506   2.435 -0.2198 -1.4062  0.6145
 1002MOL0     H35208  10.687   2.375   2.344  1.3540 -3.5181  0.7152
 1002MOL0     H35209  10.711   2.494   2.170  0.2183 -1.7238  0.2287
 1002MOL0     H35210  10.867   2.411   2.163  0.2916  1.3221 -0.5237
 1002MOL0     H35211  10.994   2.590   2.259  0.8950  1.3141  0.0033
 1002MOL0     H35212  10.927   2.610   2.099  4.8331 -2.5407  0.6526
 1002MOL0     H35213  10.783   2.724   2.351  0.9134  0.4945  0.7655
 1002MOL0     H35214  10.924   2.810   2.283  0.5190 -0.2029 -2.8685
 1002MOL0     H35215  10.649   2.761   2.161 -1.6950  0.9621  2.2561
 1002MOL0     H35216  10.717   2.914   2.225  1.0983 -2.1075  4.4995
 1002MOL0     H35217  10.820   2.773   1.976 -0.3883  0.6627 -0.0931
 1002MOL0     H35218  10.896   2.903   2.050 -0.4987  1.0768  0.7458
 1002MOL0     H35219  10.715   2.924   1.857 -1.7236  0.1209 -0.1388
 1002MOL0     H35220  10.601   2.924   1.975 -0.8296  2.4022 -2.8285
 1002MOL0     H35221  10.548   3.177   2.103 -2.9073  1.1833 -4.1767
 1002MOL0     H35222  10.763   3.503   2.139 -0.8173  0.4691  2.4968
 1002MOL0     H35223  10.611   3.497   2.061 -0.8715  0.4907  0.5922
 1002MOL0     H35224  10.521   3.458   2.280 -0.3757  0.9230 -0.0453
 1002MOL0     H35225  10.587   3.299   2.265  2.9185 -1.4064 -1.2055
 1002MOL0     H35226  10.663   3.411   2.460  1.2594 -0.1961  0.1286
 1002MOL0     H35227  10.733   3.538   2.377 -2.0891  0.2826  1.4430
 1002MOL0     H35228  10.912   3.394   2.456  0.0487 -1.1129  0.2118
 1002MOL0     H35229  10.906   3.355   2.286  0.1924 -0.7411 -0.4069
 1002MOL0     H35230  11.042   3.088   2.367 -0.6142 -1.7174 -0.0471
 1002MOL0     H35231  11.167   2.952   2.541  0.4509  0.1098 -2.2673
 1002MOL0     H35232  11.150   2.636   2.921 -1.8793  0.5049  0.3121
 1002MOL0     H35233  11.311   2.508   3.054  1.3554 -1.3579 -1.8625
 1002MOL0     H35234  11.422   2.562   3.266 -0.8562  0.4146 -2.6247
 1002MOL0     H35235  11.507   2.415   3.196  2.1525  0.6698 -2.5080
 1002MOL0     H35236  11.703   2.465   3.291  0.1452  3.6210 -0.9218
 1002MOL0     H35237  11.653   2.619   3.356  0.9780  0.7199  0.8446
 1002MOL0     H35238  11.644   2.486   3.538  3.1297 -0.4560 -2.0462
 1002MOL0     H35239  11.472   2.483   3.483  0.0082  2.9103 -3.6959
 1002MOL0     H35240  11.668   2.256   3.450  0.8743 -0.3525  2.0789
 1002MOL0     H35241  11.510   2.261   3.378 -3.0049  2.4970  0.8637
 1002MOL0     H35242  11.495   2.142   3.590  0.8398 -0.1608  1.5511
 1002MOL0     H35243  11.407   2.294   3.621 -1.1613 -0.7469 -0.5903
 1002MOL0     H35244  11.712   2.273   3.699 -0.3324 -2.1262 -1.9945
 1002MOL0     H35245  11.608   2.405   3.739 -0.8233 -0.6918  1.2388
 1002MOL0     H35246  11.464   2.240   3.852  0.2600  1.9980  0.3592
 1002MOL0     H35247  11.631   2.262   3.922 -1.7343  0.4736  0.1339
 1002MOL0     H35248  11.599   2.044   3.750 -0.1354  0.6465 -0.2488
 1002MOL0     H35249  11.734   2.085   3.856  0.4504 -0.6825  1.7219
 1002MOL0     H35250  11.586   2.831   3.019 -0.0713 -0.3817  2.7026
 1002MOL0     H35251  11.434   2.942   2.832  0.9858  0.1767  0.2588
 1002MOL0     H35252  10.915   3.112   2.837  1.3564 -0.7223  0.6563
 1002MOL0     H35253  10.766   3.211   2.649  0.2105 -0.7732  0.8655
 1002MOL0     H35254  11.224   2.495   2.423 -0.9611 -0.8296 -2.9696
 1002MOL0     H35255  11.447   2.378   2.467 -1.0828  0.7486 -1.2051
 1002MOL0     H35256  11.666   1.992   2.418  1.0673 -2.3078 -1.9687
 1002MOL0     H35257  11.894   1.923   2.422 -2.5356  0.4066 -1.0950
 1002MOL0     H35258  12.009   1.638   2.744  0.4529 -0.0819  0.8168
 1002MOL0     H35259  12.114   1.777   2.793 -3.4726  0.3526  0.8421
 1002MOL0     H35260  12.292   1.713   2.637 -0.6255  1.1331  1.1170
 1002MOL0     H35261  12.170   1.644   2.540  1.0419  2.2006 -0.6647
 1002MOL0     H35262  12.143   1.460   2.681  0.5889 -0.9366  0.4009
 1002MOL0     H35263  12.225   1.538   2.835  2.6614 -3.3149  0.8529
 1002MOL0     H35264  12.357   1.451   2.565  0.4022 -0.8698 -0.8508
 1002MOL0     H35265  12.447   1.514   2.699  1.2048 -1.3586 -2.3185
 1002MOL0     H35266  12.378   1.108   2.819  1.4646 -1.8450 -2.7628
 1002MOL0     H35267  11.843   1.787   2.823 -0.5549 -0.9479 -1.0745
 1002MOL0     H35268  11.574   2.008   2.910 -1.4043 -0.6805 -0.2569
 1002MOL0     H35269  11.554   1.839   2.910 -0.7084  0.0246 -1.5681
 1002MOL0     H35270  11.714   1.913   2.953 -1.5981  0.4423  2.0751
 1003MOL0     O35271   4.946   5.244   0.562  0.3986  0.2123 -0.0193
 1003MOL0     C35272   5.009   5.165   0.635 -1.2856 -0.4508  0.0604
 1003MOL0     O35273   5.022   5.186   0.772 -0.6895 -0.0409 -0.6807
 1003MOL0     C35274   4.978   5.295   0.843  0.2985 -1.0877  0.6309
 1003MOL0     C35275   4.842   5.335   0.846 -0.3997  0.5822  0.1192
 1003MOL0     C35276   4.796   5.435   0.938 -0.9680  0.3150 -0.0426
 1003MOL0     C35277   4.881   5.487   1.037  0.2660  0.7294 -0.6511
 1003MOL0     O35278   4.836   5.574   1.139 -0.4441 -0.1874 -0.2524
 1003MOL0     C35279   4.699   5.571   1.172  1.3538  0.0092 -0.5575
 1003MOL0     C35280   4.615   5.663   1.073 -1.5095 -0.2766 -0.3608
 1003MOL0     C35281   4.471   5.635   1.093  0.3408  0.4512  0.0858
 1003MOL0     C35282   4.384   5.697   0.989 -0.4712 -0.6875 -0.5119
 1003MOL0     C35283   4.239   5.711   1.016 -0.0290 -0.7367  0.2387
 1003MOL0     C35284   4.159   5.778   0.898 -0.4471  0.0195 -0.5790
 1003MOL0     C35285   4.009   5.780   0.939 -0.0210 -0.0717 -0.4541
 1003MOL0     C35286   3.976   5.894   1.032 -1.0576  0.1501  0.3426
 1003MOL0     N35287   3.850   5.948   0.998  0.4456 -0.2805 -0.6942
 1003MOL0     C35288   3.729   5.882   1.025 -0.2708 -0.5151  0.1245
 1003MOL0     C35289   3.641   5.947   0.951  0.6304  0.6105  0.5372
 1003MOL0     C35290   3.500   5.906   0.934  0.3573  1.0545  0.0469
 1003MOL0     C35291   3.464   5.906   0.783 -0.7831 -0.4255  0.7286
 1003MOL0     C35292   3.550   5.811   0.696 -0.1738 -0.6010 -0.6227
 1003MOL0     C35293   3.541   5.857   0.553 -0.8141 -0.4960  0.4212
 1003MOL0     O35294   3.409   5.861   0.502 -0.3803  0.5825  0.2992
 1003MOL0     C35295   3.375   5.968   0.427  1.0663 -0.5515  0.7406
 1003MOL0     C35296   3.453   6.031   0.328 -0.7153  0.3294 -0.6246
 1003MOL0     C35297   3.402   6.123   0.244  0.0270  0.4825  0.4867
 1003MOL0     C35298   3.266   6.157   0.256  0.5217  0.1350  0.1518
 1003MOL0     C35299   3.207   6.233   0.145 -0.1426 -1.0481 -0.4607
 1003MOL0     O35300   3.285   6.308   0.066  0.4277 -0.1167  0.0934
 1003MOL0     C35301   3.222   6.355  -0.045  0.0020 -0.0989  0.1709
 1003MOL0     C35302   3.248   6.298  -0.172 -0.3191 -0.5022 -0.8997
 1003MOL0     C35303   3.191   6.345  -0.289 -0.0638 -0.5914  0.5812
 1003MOL0     C35304   3.123   6.464  -0.287  0.4373  0.3301 -0.0392
 1003MOL0     O35305   3.087   6.531  -0.403 -0.0895 -0.2105 -0.0283
 1003MOL0     C35306   2.971   6.619  -0.409 -0.0607  0.0011 -0.3100
 1003MOL0     C35307   2.943   6.633  -0.556 -0.1030  0.0306  0.8402
 1003MOL0     C35308   2.814   6.711  -0.578 -0.6216 -0.3098  0.7036
 1003MOL0     C35309   2.792   6.773  -0.720  0.2360  1.1868 -0.8926
 1003MOL0     C35310   2.661   6.842  -0.734  0.3928 -0.3438  0.4886
 1003MOL0     C35311   2.615   6.839  -0.879 -0.0108  0.4921 -0.2797
 1003MOL0     C35312   2.710   6.898  -0.977  0.1885 -0.0975 -0.0122
 1003MOL0     C35313   2.637   6.892  -1.118 -0.1473 -0.4803 -0.7806
 1003MOL0    Cl35314   2.559   7.057  -1.136  0.3615 -0.0461 -0.4734
 1003MOL0     C35315   3.106   6.531  -0.161  0.8291 -0.6338  0.9503
 1003MOL0     C35316   3.152   6.478  -0.041 -0.0585 -0.7117  0.4566
 1003MOL0     O35317   3.085   6.220   0.126  0.2882 -0.2320 -0.7764
 1003MOL0     C35318   3.183   6.093   0.344  0.4370  0.3318 -0.6488
 1003MOL0     C35319   3.233   6.002   0.433 -0.9060  0.3039  0.4179
 1003MOL0     N35320   3.708   6.037   0.875 -0.1746  0.5721  0.3914
 1003MOL0     N35321   3.833   6.052   0.904  0.7049  0.4193 -0.5291
 1003MOL0     C35322   5.018   5.447   1.033  0.0118 -0.3698  0.5552
 1003MOL0     C35323   5.063   5.357   0.934 -0.6714  0.3048  0.1731
 1003MOL0     C35324   5.088   5.041   0.582  1.0030  0.0600  0.6570
 1003MOL0     C35325   5.195   4.994   0.658 -0.0010 -0.0256  0.1066
 1003MOL0     C35326   5.271   4.889   0.606 -0.1385  0.2528 -0.1133
 1003MOL0     C35327   5.232   4.823   0.495  0.4601 -0.4984  0.2554
 1003MOL0     O35328   5.300   4.706   0.470  0.2068  0.6118  0.5138
 1003MOL0     C35329   5.290   4.629   0.345 -0.0064  0.2449 -0.1262
 1003MOL0     C35330   5.319   4.700   0.205 -0.7152 -0.0016 -0.5674
 1003MOL0     C35331   5.457   4.758   0.207 -0.2181 -0.2176 -0.7126
 1003MOL0     C35332   5.577   4.655   0.210 -0.1518  0.8431  0.2030
 1003MOL0     C35333   5.710   4.717   0.189  0.7978 -0.2850  0.6600
 1003MOL0     C35334   5.804   4.773   0.148 -0.2835  0.4527 -0.5422
 1003MOL0     C35335   5.119   4.860   0.429 -0.0338 -0.0728  0.2408
 1003MOL0     C35336   5.050   4.979   0.458  0.3079 -0.7548 -0.6083
 1003MOL0     C35337   4.933   5.020   0.372 -0.1162  0.1745 -0.3668
 1003MOL0     H35338   4.780   5.279   0.776 -1.4361  1.9416 -0.0951
 1003MOL0     H35339   4.691   5.460   0.944 -0.2117  3.7114  1.2425
 1003MOL0     H35340   4.666   5.467   1.169  0.5700  0.1674  1.0873
 1003MOL0     H35341   4.688   5.599   1.277  2.9167 -0.8014 -0.1523
 1003MOL0     H35342   4.637   5.655   0.966 -2.1956  0.5554 -0.5721
 1003MOL0     H35343   4.635   5.769   1.091  0.1422 -0.6167 -0.0234
 1003MOL0     H35344   4.442   5.673   1.192  0.6628 -2.5064  1.4345
 1003MOL0     H35345   4.459   5.527   1.087  1.5992  0.3243 -0.2520
 1003MOL0     H35346   4.418   5.800   0.978 -0.8630 -0.4375  0.5068
 1003MOL0     H35347   4.396   5.656   0.888 -1.6956  0.6949 -1.2697
 1003MOL0     H35348   4.190   5.615   1.035 -0.6502 -0.8898 -1.8475
 1003MOL0     H35349   4.229   5.770   1.108  0.3625  0.3067 -0.3713
 1003MOL0     H35350   4.193   5.880   0.877 -0.3731 -0.1239 -1.1620
 1003MOL0     H35351   4.173   5.722   0.805 -2.1878 -2.4675  0.5503
 1003MOL0     H35352   3.989   5.679   0.976 -0.6391  0.4027  0.5362
 1003MOL0     H35353   3.953   5.799   0.847 -0.6874  0.4732  0.0562
 1003MOL0     H35354   3.974   5.851   1.133  1.0761  2.7669  1.6286
 1003MOL0     H35355   4.054   5.970   1.024  3.0598 -3.7071 -0.2177
 1003MOL0     H35356   3.710   5.783   1.066 -0.4361 -0.7251 -0.4425
 1003MOL0     H35357   3.492   5.805   0.976  2.5460  0.3071 -1.1498
 1003MOL0     H35358   3.436   5.966   0.999 -3.7391 -1.9084 -0.8664
 1003MOL0     H35359   3.356   5.889   0.781 -0.9368 -0.1842  3.5997
 1003MOL0     H35360   3.487   6.006   0.745  1.3959 -0.9377  0.5305
 1003MOL0     H35361   3.499   5.714   0.705 -2.9435  0.9370  3.5931
 1003MOL0     H35362   3.653   5.799   0.730  0.5048 -1.5493 -2.8461
 1003MOL0     H35363   3.599   5.785   0.495  0.8843  0.1113  1.3089
 1003MOL0     H35364   3.595   5.951   0.542 -2.3099  0.3857  0.3987
 1003MOL0     H35365   3.551   5.985   0.315 -0.2310  1.4175 -0.9971
 1003MOL0     H35366   3.468   6.178   0.177 -1.9453 -1.1581 -3.1191
 1003MOL0     H35367   3.299   6.204  -0.187 -1.8263 -1.9159  1.9665
 1003MOL0     H35368   3.199   6.300  -0.388  1.2076 -2.6152  1.5285
 1003MOL0     H35369   2.880   6.578  -0.364 -0.1474  1.2562  0.7206
 1003MOL0     H35370   2.992   6.714  -0.359  0.6962 -0.9323  1.2534
 1003MOL0     H35371   3.021   6.699  -0.596  1.0943 -2.0338 -0.4224
 1003MOL0     H35372   2.951   6.537  -0.608  1.4476  1.3721 -1.6436
 1003MOL0     H35373   2.728   6.647  -0.560 -0.2926 -0.9588 -0.0110
 1003MOL0     H35374   2.808   6.793  -0.506  0.6141 -0.0739  0.5709
 1003MOL0     H35375   2.796   6.689  -0.790  1.7061  1.6774 -1.4274
 1003MOL0     H35376   2.868   6.844  -0.752  2.3995 -1.2783 -1.5957
 1003MOL0     H35377   2.684   6.940  -0.690  0.3336 -2.1086  4.9031
 1003MOL0     H35378   2.588   6.808  -0.660  0.7351 -1.7567  0.2040
 1003MOL0     H35379   2.610   6.731  -0.898 -1.6336  0.0316  2.3004
 1003MOL0     H35380   2.512   6.872  -0.894 -1.2536 -2.1174  1.6423
 1003MOL0     H35381   2.801   6.841  -0.997  2.7033  2.4339  3.0892
 1003MOL0     H35382   2.725   6.997  -0.932 -1.9190 -0.6897  2.1783
 1003MOL0     H35383   2.707   6.882  -1.202  1.1869  2.6935 -0.2044
 1003MOL0     H35384   2.563   6.811  -1.123  1.6793 -2.2021 -1.2488
 1003MOL0     H35385   3.067   6.632  -0.153 -0.5712 -1.0840  0.1481
 1003MOL0     H35386   3.125   6.537   0.047  0.1736 -0.0136  0.0661
 1003MOL0     H35387   3.075   6.105   0.344  0.5902  2.0798  0.3525
 1003MOL0     H35388   3.170   5.943   0.499  0.0185  1.8186  2.8136
 1003MOL0     H35389   5.096   5.489   1.095  2.4037 -4.5403  0.7499
 1003MOL0     H35390   5.160   5.308   0.935 -1.0557 -0.4968 -0.3550
 1003MOL0     H35391   5.235   5.066   0.729  0.2770  1.3728 -1.4084
 1003MOL0     H35392   5.358   4.857   0.663 -0.5681  4.2167  3.2747
 1003MOL0     H35393   5.198   4.572   0.329 -0.7912  1.5330 -0.3238
 1003MOL0     H35394   5.362   4.547   0.356 -0.0055  0.0270 -1.6018
 1003MOL0     H35395   5.251   4.784   0.191  4.1930  4.1563 -2.3520
 1003MOL0     H35396   5.319   4.625   0.125 -1.3245 -0.2541 -0.3412
 1003MOL0     H35397   5.468   4.834   0.285  2.1817 -1.3808  0.1549
 1003MOL0     H35398   5.459   4.820   0.116 -0.2822  1.1114  0.1663
 1003MOL0     H35399   5.575   4.593   0.300 -0.7427 -2.1942 -1.7083
 1003MOL0     H35400   5.575   4.574   0.135 -1.3906  0.4685  0.6117
 1003MOL0     H35401   5.895   4.828   0.132 -1.1522  1.5176 -2.0966
 1003MOL0     H35402   5.069   4.783   0.371 -1.5822  0.6939  0.4990
 1003MOL0     H35403   4.841   4.992   0.425  0.8155  1.2446  1.9624
 1003MOL0     H35404   4.940   5.128   0.357  3.4982  0.1061  0.0204
 1003MOL0     H35405   4.944   4.966   0.278  1.3045 -1.3529  0.6171
 1004MOL0     O35406   2.918   9.429   4.429 -0.0850  0.1691 -0.0338
 1004MOL0     C35407   2.853   9.421   4.328 -0.9565 -0.4080 -0.6125
 1004MOL0     O35408   2.820   9.304   4.256 -0.6549  0.0330  0.5218
 1004MOL0     C35409   2.876   9.189   4.296 -0.4480 -0.2269  0.2277
 1004MOL0     C35410   2.789   9.094   4.349 -0.4826 -0.0142 -0.3050
 1004MOL0     C35411   2.844   8.966   4.382  0.2165  0.5467  0.5507
 1004MOL0     C35412   2.989   8.937   4.363 -0.0993 -0.1918 -0.1404
 1004MOL0     O35413   3.058   8.815   4.388 -0.0524  0.1655  0.8085
 1004MOL0     C35414   2.971   8.707   4.412 -0.1865  0.0066 -0.4728
 1004MOL0     C35415   2.954   8.697   4.562  0.1497  0.5635 -0.2422
 1004MOL0     C35416   2.860   8.579   4.595 -0.3177 -0.2819  0.5917
 1004MOL0     C35417   2.712   8.627   4.557 -0.2070  0.5957  0.6449
 1004MOL0     C35418   2.623   8.622   4.689 -0.0948 -0.0148  0.7666
 1004MOL0     C35419   2.476   8.660   4.651  0.4061 -0.2575 -0.6201
 1004MOL0     C35420   2.375   8.627   4.771 -0.3022  0.2989  0.1706
 1004MOL0     C35421   2.233   8.682   4.730 -0.4306  0.5014 -0.1475
 1004MOL0     N35422   2.215   8.830   4.735 -0.0450 -1.0049  0.2031
 1004MOL0     C35423   2.153   8.909   4.830  0.0606 -0.0620  0.2297
 1004MOL0     C35424   2.169   9.041   4.779  0.2818  0.2257  0.7610
 1004MOL0     C35425   2.120   9.176   4.827  0.0904  0.8483 -0.2359
 1004MOL0     C35426   2.196   9.207   4.950 -0.4837  0.5215  0.0919
 1004MOL0     C35427   2.352   9.205   4.922 -0.9881  0.4466 -0.1695
 1004MOL0     C35428   2.443   9.245   5.036  0.8866  1.3856 -1.0472
 1004MOL0     O35429   2.419   9.153   5.141 -0.7709  0.2992  0.0203
 1004MOL0     C35430   2.473   9.030   5.141 -0.1330  1.1898 -0.5110
 1004MOL0     C35431   2.428   8.947   5.246  0.1118  2.1160 -0.2444
 1004MOL0     C35432   2.464   8.815   5.257  0.1466 -0.2092 -0.4218
 1004MOL0     C35433   2.541   8.758   5.149 -0.1423  0.3531 -0.0460
 1004MOL0     C35434   2.591   8.612   5.148 -0.4331  0.0484 -0.8308
 1004MOL0     O35435   2.641   8.556   5.039  0.6230  0.1094  0.2998
 1004MOL0     C35436   2.651   8.420   5.047 -0.4378  0.2925  0.4693
 1004MOL0     C35437   2.547   8.332   5.038 -0.6239  0.2291  0.7571
 1004MOL0     C35438   2.557   8.198   5.039  0.3370 -0.9169 -0.3926
 1004MOL0     C35439   2.690   8.146   5.054 -0.1561  0.0844  0.4872
 1004MOL0     O35440   2.721   8.012   5.068 -0.6684  0.4138 -0.5240
 1004MOL0     C35441   2.721   7.973   5.206 -0.3444  0.2419  0.9160
 1004MOL0     C35442   2.764   7.826   5.208 -0.0171  0.4595  0.3044
 1004MOL0     C35443   2.925   7.823   5.222 -0.0844  0.4866 -0.1522
 1004MOL0     C35444   2.976   7.676   5.263 -0.3571  0.7349  0.0256
 1004MOL0     C35445   3.001   7.568   5.157  0.1466 -0.2891  0.3560
 1004MOL0     C35446   3.023   7.436   5.218  0.8004  0.6850 -0.6734
 1004MOL0     C35447   2.886   7.366   5.235  0.0483 -0.1885 -0.6434
 1004MOL0     C35448   2.831   7.299   5.106  0.4945 -0.5402  0.6822
 1004MOL0    Cl35449   2.712   7.172   5.165  0.3989  0.0623  0.4389
 1004MOL0     C35450   2.798   8.237   5.072  0.0316 -0.0472 -0.2997
 1004MOL0     C35451   2.777   8.370   5.072  0.5717  0.2380 -0.2188
 1004MOL0     O35452   2.587   8.558   5.260  0.4739 -0.1171  0.5542
 1004MOL0     C35453   2.578   8.839   5.046  0.4107  0.0104  1.1893
 1004MOL0     C35454   2.546   8.973   5.043 -0.1396 -0.7735 -0.2188
 1004MOL0     N35455   2.228   9.031   4.653  0.2917 -0.6903  0.5403
 1004MOL0     N35456   2.240   8.910   4.623  0.2879 -0.3734 -1.1523
 1004MOL0     C35457   3.066   9.045   4.320 -1.1369  0.4581 -0.4804
 1004MOL0     C35458   3.015   9.166   4.284  1.3007  0.1052 -0.0418
 1004MOL0     C35459   2.795   9.549   4.283  0.2748  0.7321  0.4370
 1004MOL0     C35460   2.699   9.545   4.173 -0.8314  0.3459  0.4125
 1004MOL0     C35461   2.627   9.664   4.140 -0.9930  0.2022 -0.7703
 1004MOL0     C35462   2.658   9.788   4.198 -0.5212  0.3836  0.7786
 1004MOL0     O35463   2.603   9.902   4.151 -0.3329  0.2657 -0.2593
 1004MOL0     C35464   2.508   9.961   4.237 -0.5927 -0.9655  0.7935
 1004MOL0     C35465   2.375   9.886   4.215  0.1543 -0.8817 -0.0525
 1004MOL0     C35466   2.260   9.925   4.311  1.5231  0.2110  0.0051
 1004MOL0     C35467   2.111   9.877   4.281 -0.4339 -0.1993 -0.2746
 1004MOL0     C35468   2.034   9.850   4.403 -0.2408 -0.0277 -0.3686
 1004MOL0     C35469   1.992   9.819   4.512 -0.3233  0.5544  0.4854
 1004MOL0     C35470   2.751   9.797   4.304  0.0184  0.6259 -0.4922
 1004MOL0     C35471   2.817   9.677   4.341 -0.4218 -0.8391 -0.3495
 1004MOL0     C35472   2.936   9.710   4.435 -0.0680 -0.2464 -0.4469
 1004MOL0     H35473   2.682   9.107   4.364 -0.2040  0.4330  1.5308
 1004MOL0     H35474   2.776   8.896   4.431  1.8308 -1.0891  0.5664
 1004MOL0     H35475   2.869   8.718   4.374  0.2915 -0.0551 -1.8189
 1004MOL0     H35476   3.010   8.616   4.364 -1.2304 -1.4525  1.2755
 1004MOL0     H35477   2.930   8.797   4.600  2.8662  2.0310 -2.0660
 1004MOL0     H35478   3.050   8.664   4.603  0.1479 -0.0064 -0.6852
 1004MOL0     H35479   2.877   8.570   4.702  2.7159 -5.0779  0.0350
 1004MOL0     H35480   2.895   8.483   4.555 -1.0573  0.7077 -2.7443
 1004MOL0     H35481   2.714   8.727   4.511  0.0632  1.0391  1.5932
 1004MOL0     H35482   2.667   8.547   4.497  2.1528 -2.8299  3.0943
 1004MOL0     H35483   2.641   8.522   4.729 -0.6940  0.2686  1.7822
 1004MOL0     H35484   2.659   8.695   4.762 -2.5744 -0.0395  2.1409
 1004MOL0     H35485   2.472   8.764   4.619  4.0918  0.6201  1.1890
 1004MOL0     H35486   2.440   8.594   4.572 -1.7282  0.8318 -0.6245
 1004MOL0     H35487   2.411   8.674   4.863 -2.9956 -0.8616  1.9358
 1004MOL0     H35488   2.378   8.518   4.778 -0.9637  0.0768 -2.0835
 1004MOL0     H35489   2.198   8.645   4.633  0.7018 -0.8504 -0.0675
 1004MOL0     H35490   2.162   8.639   4.801  0.6104 -4.9760 -1.9237
 1004MOL0     H35491   2.116   8.868   4.924  1.0188 -1.3417  0.0760
 1004MOL0     H35492   2.122   9.251   4.748 -0.9342  1.2769  0.1299
 1004MOL0     H35493   2.014   9.169   4.852  0.0230 -0.2088 -0.7395
 1004MOL0     H35494   2.160   9.300   4.995 -1.2235 -0.4104  1.5141
 1004MOL0     H35495   2.169   9.128   5.021 -0.1991  2.7399  2.8399
 1004MOL0     H35496   2.376   9.273   4.839 -0.6327 -1.5048 -1.7471
 1004MOL0     H35497   2.382   9.108   4.883 -0.0831 -0.9377  3.5808
 1004MOL0     H35498   2.421   9.350   5.057  2.2973  1.6341 -0.6995
 1004MOL0     H35499   2.550   9.247   5.013  1.5900  2.4570  1.8519
 1004MOL0     H35500   2.378   8.988   5.334  1.5674  1.3446  0.9844
 1004MOL0     H35501   2.440   8.752   5.342  0.2293  0.3712  0.0373
 1004MOL0     H35502   2.451   8.383   5.037 -0.3204  1.2805  4.9240
 1004MOL0     H35503   2.464   8.146   5.053 -0.0754 -0.2547 -0.6056
 1004MOL0     H35504   2.793   8.032   5.263  3.4640 -4.0349  1.0976
 1004MOL0     H35505   2.617   7.981   5.237 -0.1299 -0.0913  1.7446
 1004MOL0     H35506   2.718   7.774   5.293 -1.5224 -2.0932 -1.9124
 1004MOL0     H35507   2.727   7.775   5.119  1.9612 -3.4793  1.5138
 1004MOL0     H35508   2.971   7.866   5.133  0.8028  0.6884  0.3972
 1004MOL0     H35509   2.963   7.884   5.305 -3.6812  2.1312  0.4701
 1004MOL0     H35510   2.908   7.624   5.330 -2.3304 -4.7881 -5.2844
 1004MOL0     H35511   3.070   7.703   5.312 -0.4548  0.7149  0.2204
 1004MOL0     H35512   3.095   7.599   5.110  0.1261 -1.6737 -0.6972
 1004MOL0     H35513   2.917   7.568   5.087  0.2361  3.5172  0.0311
 1004MOL0     H35514   3.076   7.374   5.145  0.5224  1.3731 -1.4751
 1004MOL0     H35515   3.083   7.441   5.309 -1.2248  0.5174  0.7373
 1004MOL0     H35516   2.805   7.434   5.264 -0.9065  0.8481 -5.0826
 1004MOL0     H35517   2.890   7.286   5.310 -1.9975  1.1066  0.9652
 1004MOL0     H35518   2.779   7.380   5.054  0.3050 -1.2625 -0.2721
 1004MOL0     H35519   2.912   7.254   5.048 -0.5233  0.4025 -1.5714
 1004MOL0     H35520   2.896   8.199   5.099 -0.2663  1.2850  3.1370
 1004MOL0     H35521   2.844   8.453   5.095  2.0291 -0.8376 -0.4585
 1004MOL0     H35522   2.638   8.806   4.962  0.5027 -2.1645  2.0453
 1004MOL0     H35523   2.578   9.034   4.959 -2.2344  0.7055 -0.0018
 1004MOL0     H35524   3.172   9.037   4.303 -1.1222 -1.0104  0.0779
 1004MOL0     H35525   3.076   9.249   4.249  0.6234 -0.1320 -1.9005
 1004MOL0     H35526   2.693   9.450   4.121 -0.0677  0.5621 -0.0942
 1004MOL0     H35527   2.565   9.664   4.051  0.3341 -0.6735 -1.7362
 1004MOL0     H35528   2.506  10.066   4.209 -1.7771 -0.6615  1.9453
 1004MOL0     H35529   2.523   9.964   4.345 -1.7194  1.8547  0.9353
 1004MOL0     H35530   2.391   9.778   4.216 -0.4437 -0.9708  0.3638
 1004MOL0     H35531   2.335   9.906   4.115 -3.7064 -0.5096  1.3957
 1004MOL0     H35532   2.255  10.033   4.327  0.6554  0.4816 -1.7648
 1004MOL0     H35533   2.289   9.885   4.408  0.2318  1.9875  1.1778
 1004MOL0     H35534   2.058   9.962   4.238  0.5385 -0.1434 -1.4203
 1004MOL0     H35535   2.104   9.788   4.218 -4.3709 -0.4885  0.3463
 1004MOL0     H35536   1.944   9.782   4.600  0.8206 -1.1738  0.4297
 1004MOL0     H35537   2.781   9.895   4.339 -2.0655  1.1413 -0.0126
 1004MOL0     H35538   2.927   9.657   4.530 -0.2702  5.8469  3.4657
 1004MOL0     H35539   3.028   9.673   4.390 -1.8054 -1.8268 -2.9993
 1004MOL0     H35540   2.929   9.818   4.448 -1.6432 -0.3073 -0.5400
 1005MOL0     O35541   9.083   9.954   3.000 -0.2447 -0.4411  0.4070
 1005MOL0     C35542   8.982   9.893   3.045 -0.9079 -0.4953 -0.5013
 1005MOL0     O35543   8.976   9.823   3.165 -0.4621  1.0011 -0.5372
 1005MOL0     C35544   9.041   9.877   3.272  0.0246 -0.2101 -0.5241
 1005MOL0     C35545   9.095   9.793   3.361  0.0271  0.5266 -0.9089
 1005MOL0     C35546   9.163   9.839   3.473 -0.3349 -0.2118 -1.6490
 1005MOL0     C35547   9.176   9.981   3.499  0.0789 -0.7321 -0.0624
 1005MOL0     O35548   9.227  10.027   3.616 -0.0992  0.3796  1.0358
 1005MOL0     C35549   9.140  10.036   3.731  0.1226 -0.3544 -0.1219
 1005MOL0     C35550   9.074   9.903   3.778  0.0390 -0.3356 -0.4805
 1005MOL0     C35551   8.939   9.866   3.721 -0.9042 -0.3028 -0.2710
 1005MOL0     C35552   8.904   9.727   3.753  0.3006 -0.2726 -0.3916
 1005MOL0     C35553   8.761   9.699   3.692  0.2546  0.3743  0.7310
 1005MOL0     C35554   8.718   9.565   3.729  0.4475  0.1459  0.1907
 1005MOL0     C35555   8.589   9.542   3.651  0.4016 -0.0691  0.4657
 1005MOL0     C35556   8.529   9.398   3.677  0.3816  0.8384 -0.8318
 1005MOL0     N35557   8.411   9.375   3.594  0.1064  0.4808  0.0567
 1005MOL0     C35558   8.305   9.452   3.585  0.0402 -0.7548 -0.2850
 1005MOL0     C35559   8.231   9.402   3.484  0.8546  0.4590  1.0604
 1005MOL0     C35560   8.086   9.420   3.452 -0.3159  0.0166 -0.0636
 1005MOL0     C35561   8.033   9.567   3.481  0.5688  0.4379  0.1145
 1005MOL0     C35562   7.886   9.582   3.444 -0.3855 -0.7450 -0.3089
 1005MOL0     C35563   7.843   9.736   3.445  1.6577 -0.3910  0.5215
 1005MOL0     O35564   7.878   9.786   3.575  0.1619 -0.2893  0.7088
 1005MOL0     C35565   7.793   9.875   3.626 -0.0052  0.4793 -0.2512
 1005MOL0     C35566   7.661   9.829   3.644  0.2981 -0.0953  0.7332
 1005MOL0     C35567   7.566   9.905   3.716 -0.4444 -0.4102  0.3483
 1005MOL0     C35568   7.604  10.024   3.767 -1.1522 -0.1132 -1.1047
 1005MOL0     C35569   7.519  10.109   3.854  0.3458  0.0289  0.2438
 1005MOL0     O35570   7.560  10.240   3.860 -0.1143 -0.0329 -0.4188
 1005MOL0     C35571   7.484  10.315   3.952 -0.2503 -0.8118  0.0218
 1005MOL0     C35572   7.360  10.369   3.910  0.3978  0.4229  0.2443
 1005MOL0     C35573   7.283  10.465   3.982  0.5621 -0.2855 -0.6881
 1005MOL0     C35574   7.330  10.506   4.111 -0.5855 -0.7543 -0.6501
 1005MOL0     O35575   7.271  10.602   4.179  0.6076 -0.5920 -0.4687
 1005MOL0     C35576   7.319  10.731   4.130 -0.0851  0.2812 -0.0688
 1005MOL0     C35577   7.267  10.853   4.208  0.6859  0.9462 -0.4273
 1005MOL0     C35578   7.111  10.871   4.202  0.2243 -0.0482  0.8326
 1005MOL0     C35579   7.067  10.996   4.280  0.2160 -0.1685  0.3576
 1005MOL0     C35580   6.909  11.000   4.266  1.0236  0.7381  0.4608
 1005MOL0     C35581   6.831  11.117   4.304  0.1303  0.3418  0.4459
 1005MOL0     C35582   6.678  11.077   4.308 -0.4063 -0.3689  0.1538
 1005MOL0     C35583   6.597  11.194   4.357  0.4800 -0.5391  0.3915
 1005MOL0    Cl35584   6.426  11.149   4.376  0.4289  0.1904 -0.2369
 1005MOL0     C35585   7.450  10.453   4.151 -0.9630  0.1521 -0.2568
 1005MOL0     C35586   7.529  10.361   4.069  0.2669 -0.1210 -0.6228
 1005MOL0     O35587   7.413  10.077   3.900 -0.2325 -0.0440  0.5315
 1005MOL0     C35588   7.740  10.069   3.757 -0.4450  0.2423 -0.6017
 1005MOL0     C35589   7.833   9.991   3.688  0.9387  0.0825 -0.0671
 1005MOL0     N35590   8.299   9.296   3.432  0.7974  0.1081 -0.2110
 1005MOL0     N35591   8.409   9.289   3.493  0.2201  1.1224  0.2013
 1005MOL0     C35592   9.113  10.063   3.403 -0.3497  0.0097 -0.7467
 1005MOL0     C35593   9.048  10.018   3.294 -0.1576 -0.8616  0.4396
 1005MOL0     C35594   8.861   9.877   2.955  1.0479 -0.5631  0.6536
 1005MOL0     C35595   8.770   9.773   2.980 -0.7741  0.3642 -0.1807
 1005MOL0     C35596   8.659   9.751   2.903 -0.9259  0.0539 -0.3252
 1005MOL0     C35597   8.634   9.829   2.791 -0.1034  0.2753 -0.6836
 1005MOL0     O35598   8.517   9.814   2.716  0.2757 -0.1269 -0.6240
 1005MOL0     C35599   8.412   9.712   2.743  0.1187 -0.3789  0.1054
 1005MOL0     C35600   8.275   9.752   2.688 -0.6958 -0.9175  0.1721
 1005MOL0     C35601   8.207   9.884   2.725  0.5020  0.3905 -1.0739
 1005MOL0     C35602   8.074   9.904   2.641  0.9336 -0.0342 -0.1532
 1005MOL0     C35603   8.108   9.954   2.508  0.5034 -0.8951 -0.8609
 1005MOL0     C35604   8.135   9.971   2.392 -0.8245  0.1590  0.1474
 1005MOL0     C35605   8.716   9.935   2.764 -0.2929  0.0689  0.6324
 1005MOL0     C35606   8.822   9.964   2.852  0.7126  0.6953  0.2723
 1005MOL0     C35607   8.890  10.095   2.832  0.0656  0.7043  0.2027
 1005MOL0     H35608   9.080   9.686   3.354 -1.6578  0.5257  1.5806
 1005MOL0     H35609   9.206   9.768   3.543  0.0216 -0.2889 -1.9472
 1005MOL0     H35610   9.193  10.082   3.815  2.1203  0.4606 -1.7443
 1005MOL0     H35611   9.068  10.113   3.704  3.1873  2.6445 -0.3946
 1005MOL0     H35612   9.068   9.913   3.886  1.3120 -0.4947 -0.3706
 1005MOL0     H35613   9.146   9.824   3.753  2.7214  1.6386  0.4515
 1005MOL0     H35614   8.942   9.878   3.612 -0.5889  1.2926 -0.1035
 1005MOL0     H35615   8.865   9.940   3.752 -0.7043  0.2815 -1.1584
 1005MOL0     H35616   8.973   9.653   3.712  1.4765 -0.0170  1.0571
 1005MOL0     H35617   8.897   9.719   3.862 -0.1313 -1.5051 -0.4942
 1005MOL0     H35618   8.692   9.775   3.730  0.5869  1.2451 -0.3287
 1005MOL0     H35619   8.762   9.720   3.584 -2.3276 -1.3204  0.2821
 1005MOL0     H35620   8.788   9.484   3.707 -0.0069 -1.7002  4.5143
 1005MOL0     H35621   8.693   9.566   3.835 -1.4388 -0.5361 -0.2088
 1005MOL0     H35622   8.607   9.552   3.543 -1.5751 -2.0651 -0.1465
 1005MOL0     H35623   8.528   9.624   3.690  0.3681 -0.5399  1.4241
 1005MOL0     H35624   8.608   9.329   3.647 -0.1522  0.2829 -0.9899
 1005MOL0     H35625   8.498   9.374   3.779  0.3752  2.5337 -0.3966
 1005MOL0     H35626   8.270   9.532   3.649 -0.1039  0.5321 -1.8998
 1005MOL0     H35627   8.079   9.394   3.346  1.8584  0.4053 -0.3411
 1005MOL0     H35628   8.030   9.341   3.503  1.9714 -1.7554 -0.1631
 1005MOL0     H35629   8.055   9.597   3.584  0.7600  0.7944 -0.0274
 1005MOL0     H35630   8.081   9.636   3.411 -0.3773 -1.3670 -2.4985
 1005MOL0     H35631   7.829   9.524   3.517  2.5355 -0.2557  2.5700
 1005MOL0     H35632   7.873   9.542   3.343 -2.4114  1.6653 -1.1139
 1005MOL0     H35633   7.737   9.751   3.422  1.7460 -1.5027 -0.7528
 1005MOL0     H35634   7.889   9.783   3.357 -1.1151  3.3628  0.8679
 1005MOL0     H35635   7.637   9.730   3.609  0.5771  0.4009 -0.9685
 1005MOL0     H35636   7.467   9.864   3.732  0.4562 -2.1925  1.7449
 1005MOL0     H35637   7.336  10.344   3.807  1.0621  2.8066 -0.5465
 1005MOL0     H35638   7.192  10.504   3.938  1.7444  2.6564 -0.7443
 1005MOL0     H35639   7.428  10.736   4.134 -0.0409  0.9980 -1.6679
 1005MOL0     H35640   7.285  10.736   4.027  0.0333 -5.0426 -0.6159
 1005MOL0     H35641   7.281  10.828   4.313  0.1186 -1.4862 -0.8770
 1005MOL0     H35642   7.316  10.943   4.169 -0.5323  0.9573 -2.0571
 1005MOL0     H35643   7.084  10.872   4.096 -2.7216 -0.2134  1.4924
 1005MOL0     H35644   7.055  10.787   4.244  0.5340 -1.9140 -2.1530
 1005MOL0     H35645   7.109  11.084   4.229  1.1041  0.3764  1.9664
 1005MOL0     H35646   7.104  11.005   4.382  0.8384 -0.1907  0.1362
 1005MOL0     H35647   6.868  10.919   4.327 -0.9881 -0.4382 -2.2662
 1005MOL0     H35648   6.892  10.973   4.162  3.4532 -0.4928  0.3019
 1005MOL0     H35649   6.856  11.169   4.397  1.4660  3.3045 -1.4192
 1005MOL0     H35650   6.844  11.199   4.233  1.0865 -0.5609 -0.4572
 1005MOL0     H35651   6.656  10.990   4.370  0.9401  1.2870  3.1592
 1005MOL0     H35652   6.644  11.052   4.207 -1.1913 -1.9273  0.7740
 1005MOL0     H35653   6.628  11.223   4.458 -0.9899  1.5470  0.3175
 1005MOL0     H35654   6.604  11.279   4.288 -0.7068  3.5992  4.7901
 1005MOL0     H35655   7.497  10.486   4.244  0.5128 -1.9759 -0.1772
 1005MOL0     H35656   7.629  10.332   4.100  0.4734 -1.2978 -2.2886
 1005MOL0     H35657   7.779  10.159   3.804  1.0730 -0.0155 -1.3369
 1005MOL0     H35658   7.928  10.042   3.673  1.1198 -0.6640 -1.6778
 1005MOL0     H35659   9.121  10.170   3.419  1.6867 -0.4653  2.2429
 1005MOL0     H35660   8.998  10.083   3.222  2.7327 -0.7564 -1.6762
 1005MOL0     H35661   8.776   9.702   3.061 -0.6409 -0.8807 -1.2478
 1005MOL0     H35662   8.612   9.655   2.921  4.2309 -2.8924 -0.6656
 1005MOL0     H35663   8.386   9.682   2.845 -5.4886 -0.5913 -1.0671
 1005MOL0     H35664   8.446   9.618   2.699  2.5764  1.5058 -2.3869
 1005MOL0     H35665   8.206   9.669   2.707 -4.4295  1.9752  0.5505
 1005MOL0     H35666   8.298   9.762   2.581  2.7244  0.7848  0.9277
 1005MOL0     H35667   8.276   9.969   2.723  0.5612  0.4937  1.3609
 1005MOL0     H35668   8.172   9.872   2.829  1.8801  1.7371 -0.4123
 1005MOL0     H35669   8.022   9.808   2.635  3.1874 -1.3571  0.1442
 1005MOL0     H35670   8.013   9.985   2.680  2.2207  1.5908 -1.3569
 1005MOL0     H35671   8.149   9.999   2.289  0.1844 -0.4642  0.1000
 1005MOL0     H35672   8.697   9.994   2.675 -1.5869  1.0448  1.5321
 1005MOL0     H35673   8.841  10.167   2.767 -0.3819  0.3226  0.1101
 1005MOL0     H35674   8.915  10.149   2.924  0.1625  2.6912 -0.9464
 1005MOL0     H35675   8.975  10.067   2.769 -1.0545 -4.7344  0.6121
 1006MOL0     O35676   5.168   6.560   6.569 -0.2183  0.6657  0.4941
 1006MOL0     C35677   5.194   6.666   6.635 -0.7924  0.5388 -0.1207
 1006MOL0     O35678   5.119   6.773   6.643  0.1826 -0.8345 -0.1830
 1006MOL0     C35679   5.021   6.788   6.550 -0.6164  0.1802  0.6254
 1006MOL0     C35680   5.035   6.868   6.436 -0.9265  1.0603 -0.3777
 1006MOL0     C35681   4.939   6.870   6.334 -0.2247 -0.2078 -0.6139
 1006MOL0     C35682   4.823   6.790   6.355  1.7987  0.4858 -0.3393
 1006MOL0     O35683   4.721   6.778   6.258  0.4306  0.5270 -0.3343
 1006MOL0     C35684   4.578   6.767   6.287 -0.3371  0.4769 -0.3616
 1006MOL0     C35685   4.533   6.614   6.269  0.4786  0.6384 -0.2623
 1006MOL0     C35686   4.513   6.581   6.120  0.5924  0.9347 -1.1038
 1006MOL0     C35687   4.548   6.423   6.091 -0.5742 -1.1261  0.1525
 1006MOL0     C35688   4.475   6.374   5.965  0.0246 -0.1821  1.0125
 1006MOL0     C35689   4.517   6.451   5.836 -0.3552  0.8239  0.2430
 1006MOL0     C35690   4.505   6.360   5.716 -0.2294  0.3969 -0.4414
 1006MOL0     C35691   4.629   6.370   5.615 -0.7598  0.5167 -0.6147
 1006MOL0     N35692   4.661   6.494   5.548  0.1306 -0.0189 -0.1797
 1006MOL0     C35693   4.596   6.612   5.561 -0.0395 -0.8245  0.2656
 1006MOL0     C35694   4.679   6.702   5.490  0.5232  0.3394  0.7474
 1006MOL0     C35695   4.634   6.839   5.448  0.0102 -0.7644 -0.1131
 1006MOL0     C35696   4.753   6.945   5.432  0.6515  0.6003 -0.6251
 1006MOL0     C35697   4.697   7.086   5.411 -0.2219 -0.7670  0.1058
 1006MOL0     C35698   4.813   7.195   5.420  0.7128  0.4019  0.4640
 1006MOL0     O35699   4.833   7.247   5.549  0.6476  0.2005 -0.3910
 1006MOL0     C35700   4.720   7.326   5.594 -0.1452 -0.8277 -0.9208
 1006MOL0     C35701   4.705   7.346   5.724 -0.5290  0.2376  0.1051
 1006MOL0     C35702   4.599   7.411   5.786 -0.2732  0.3138 -0.5377
 1006MOL0     C35703   4.481   7.451   5.713  0.2751  0.5645 -0.3512
 1006MOL0     C35704   4.349   7.482   5.778 -0.9692 -0.2924  0.2701
 1006MOL0     O35705   4.352   7.440   5.903 -0.5060 -0.0015 -0.2601
 1006MOL0     C35706   4.238   7.410   5.972  0.0279 -0.1877  0.8512
 1006MOL0     C35707   4.124   7.361   5.909 -0.1205  0.0285  0.0620
 1006MOL0     C35708   4.015   7.321   5.979  0.1791 -0.0676  0.1853
 1006MOL0     C35709   3.999   7.356   6.118 -0.4337  0.3141 -0.1375
 1006MOL0     O35710   3.888   7.350   6.205 -0.2474  0.5094 -0.2242
 1006MOL0     C35711   3.750   7.381   6.149 -0.6221 -0.1887 -0.1074
 1006MOL0     C35712   3.738   7.522   6.115  0.3010 -0.0353  0.0520
 1006MOL0     C35713   3.603   7.565   6.050  0.3326 -0.6121 -0.1686
 1006MOL0     C35714   3.634   7.681   5.953 -0.1536  0.4839  0.6270
 1006MOL0     C35715   3.511   7.736   5.896 -0.5822  0.4372 -0.6308
 1006MOL0     C35716   3.442   7.654   5.782 -0.2835  0.6776 -0.9348
 1006MOL0     C35717   3.295   7.715   5.766  0.1323 -0.5226  0.1055
 1006MOL0     C35718   3.212   7.655   5.651  0.1081 -0.0961  0.9394
 1006MOL0    Cl35719   3.069   7.755   5.600  0.1003 -0.1206  0.4857
 1006MOL0     C35720   4.119   7.403   6.170 -0.2580 -0.0815  0.3560
 1006MOL0     C35721   4.238   7.408   6.105 -0.2797  0.0765 -1.4441
 1006MOL0     O35722   4.260   7.531   5.719  0.6385 -0.7167  0.3481
 1006MOL0     C35723   4.492   7.432   5.576  0.6187  0.6835  0.0246
 1006MOL0     C35724   4.603   7.366   5.522  0.9141  0.7399 -0.5692
 1006MOL0     N35725   4.793   6.628   5.454  0.0452 -0.3965 -0.9882
 1006MOL0     N35726   4.788   6.511   5.494  1.2947  0.7546  0.2522
 1006MOL0     C35727   4.803   6.722   6.474 -1.6930  0.2416 -0.3613
 1006MOL0     C35728   4.901   6.713   6.573 -0.0871  1.4400  1.6050
 1006MOL0     C35729   5.324   6.665   6.713 -0.0938  0.4972  0.1853
 1006MOL0     C35730   5.361   6.548   6.783  0.3024 -0.2359 -0.2642
 1006MOL0     C35731   5.484   6.546   6.862  0.3649 -0.2129  0.6773
 1006MOL0     C35732   5.560   6.652   6.880  0.6607 -0.0844  1.1544
 1006MOL0     O35733   5.667   6.652   6.962  0.0613 -0.0347  0.3992
 1006MOL0     C35734   5.731   6.527   7.005 -0.4375  0.4979  0.5033
 1006MOL0     C35735   5.864   6.543   7.075  0.6768 -0.9578 -0.5907
 1006MOL0     C35736   5.967   6.599   6.978 -0.2793  0.4844  0.1270
 1006MOL0     C35737   6.110   6.587   7.036 -0.3417 -0.5331 -0.1001
 1006MOL0     C35738   6.145   6.446   7.069  0.2456 -0.6332 -0.6853
 1006MOL0     C35739   6.177   6.331   7.095 -0.2329 -0.0095  0.1627
 1006MOL0     C35740   5.519   6.766   6.805  0.2072  0.1921 -0.4634
 1006MOL0     C35741   5.410   6.780   6.717  1.0269  0.4797  0.7729
 1006MOL0     C35742   5.398   6.905   6.628 -0.3027  0.9265 -0.2958
 1006MOL0     H35743   5.129   6.912   6.403  0.7207 -1.5293  0.4909
 1006MOL0     H35744   4.959   6.928   6.244  0.1886  0.6829  0.0394
 1006MOL0     H35745   4.553   6.775   6.393 -0.0383 -1.2740 -0.1308
 1006MOL0     H35746   4.518   6.834   6.224 -0.1942 -0.2486 -1.2799
 1006MOL0     H35747   4.439   6.596   6.322  0.7430 -1.3580 -0.3997
 1006MOL0     H35748   4.616   6.555   6.308 -0.0526 -1.6557 -2.3611
 1006MOL0     H35749   4.567   6.655   6.060  0.6583  2.6961  1.0080
 1006MOL0     H35750   4.408   6.594   6.094  0.5337  2.0403 -0.3521
 1006MOL0     H35751   4.656   6.409   6.091 -0.6692 -2.0505 -1.1483
 1006MOL0     H35752   4.509   6.360   6.172  1.3608 -1.5429  0.8039
 1006MOL0     H35753   4.477   6.264   5.956 -1.9893 -0.1612 -0.3056
 1006MOL0     H35754   4.370   6.400   5.983  0.2198  1.0136  0.4498
 1006MOL0     H35755   4.463   6.543   5.811  1.9009  1.5730 -2.4638
 1006MOL0     H35756   4.623   6.478   5.836 -0.1465  0.1866 -1.8607
 1006MOL0     H35757   4.414   6.385   5.659 -0.5713  1.4859  0.5302
 1006MOL0     H35758   4.504   6.257   5.752 -0.9225  0.7678  0.6440
 1006MOL0     H35759   4.718   6.335   5.668  0.0389  2.3542 -0.6697
 1006MOL0     H35760   4.604   6.297   5.537  3.2781 -2.6389  0.7134
 1006MOL0     H35761   4.494   6.639   5.584  0.2682 -1.1861  2.2355
 1006MOL0     H35762   4.573   6.827   5.359 -0.4278 -3.2697  0.4519
 1006MOL0     H35763   4.563   6.872   5.525 -2.2991 -3.8096 -0.7638
 1006MOL0     H35764   4.797   6.941   5.532  0.7716  1.0545 -0.6601
 1006MOL0     H35765   4.811   6.898   5.352 -0.8094 -1.6350 -0.4686
 1006MOL0     H35766   4.622   7.107   5.487 -2.3455 -0.7666 -1.8956
 1006MOL0     H35767   4.649   7.090   5.313 -1.3122 -1.6780  0.5762
 1006MOL0     H35768   4.795   7.275   5.348 -2.9013  0.4377  1.1991
 1006MOL0     H35769   4.912   7.152   5.402  1.1213  0.6071  2.0308
 1006MOL0     H35770   4.780   7.298   5.785  0.8421  1.2398 -0.7198
 1006MOL0     H35771   4.605   7.414   5.894  0.5452  1.4417 -0.5998
 1006MOL0     H35772   4.113   7.345   5.802 -0.3168 -1.6014  0.3084
 1006MOL0     H35773   3.938   7.269   5.923  1.2053 -0.9731 -0.3989
 1006MOL0     H35774   3.741   7.324   6.056  0.6042 -1.5372  0.5618
 1006MOL0     H35775   3.677   7.346   6.223 -1.9399  0.8458 -0.8680
 1006MOL0     H35776   3.768   7.584   6.201 -3.0779 -1.3797  2.4039
 1006MOL0     H35777   3.816   7.551   6.044  1.6111 -1.4522  0.8571
 1006MOL0     H35778   3.556   7.477   6.004 -3.3354  1.4054 -0.6181
 1006MOL0     H35779   3.525   7.597   6.120 -0.3829 -1.1864 -0.6975
 1006MOL0     H35780   3.706   7.639   5.882 -1.8930 -5.9229  1.9503
 1006MOL0     H35781   3.676   7.754   6.023  1.8090 -2.0175  2.2280
 1006MOL0     H35782   3.535   7.835   5.855 -0.7978  0.7629  0.0083
 1006MOL0     H35783   3.443   7.754   5.980  0.8401 -1.4965  1.0111
 1006MOL0     H35784   3.498   7.660   5.688  0.5709 -0.7814 -0.5495
 1006MOL0     H35785   3.434   7.549   5.810  2.0153  0.2718 -1.5672
 1006MOL0     H35786   3.302   7.816   5.724  2.0160 -0.6589  0.0233
 1006MOL0     H35787   3.246   7.716   5.863  1.2229 -0.7161  0.6693
 1006MOL0     H35788   3.283   7.655   5.567 -1.3119  1.1692 -0.3234
 1006MOL0     H35789   3.181   7.552   5.673 -0.2387 -0.1958  0.0403
 1006MOL0     H35790   4.125   7.416   6.278  0.7025 -3.1980  0.7988
 1006MOL0     H35791   4.337   7.428   6.144 -0.0356 -1.2906 -1.3286
 1006MOL0     H35792   4.417   7.466   5.506  0.7324 -0.1305 -0.5167
 1006MOL0     H35793   4.590   7.340   5.418 -2.0755  0.6692 -0.2545
 1006MOL0     H35794   4.710   6.671   6.498 -0.4884 -1.0130  2.1171
 1006MOL0     H35795   4.874   6.647   6.655  2.4389 -2.7742 -0.5671
 1006MOL0     H35796   5.299   6.460   6.771 -0.1414  0.1363 -0.7865
 1006MOL0     H35797   5.507   6.455   6.915  1.8810 -0.0250  0.4144
 1006MOL0     H35798   5.750   6.465   6.917  1.7637  3.7505 -1.5346
 1006MOL0     H35799   5.679   6.466   7.080  0.4368 -1.7947 -0.6822
 1006MOL0     H35800   5.887   6.439   7.100 -1.1087 -1.9087 -2.6306
 1006MOL0     H35801   5.841   6.616   7.154  0.3766  0.4263 -1.9108
 1006MOL0     H35802   5.965   6.706   6.954 -0.5963  1.1108  2.6624
 1006MOL0     H35803   5.953   6.536   6.890 -0.4214 -0.3608  0.7367
 1006MOL0     H35804   6.187   6.623   6.966 -0.6373  0.2083 -0.0495
 1006MOL0     H35805   6.137   6.638   7.129  2.7749 -0.9168 -0.6532
 1006MOL0     H35806   6.195   6.225   7.089  1.9107  0.2962  0.2995
 1006MOL0     H35807   5.579   6.857   6.811  1.4808 -0.6385 -0.0556
 1006MOL0     H35808   5.318   6.904   6.553  0.3551  2.5569 -1.0712
 1006MOL0     H35809   5.372   6.988   6.694 -1.5254  1.7467 -1.7461
 1006MOL0     H35810   5.497   6.914   6.581 -0.3724  0.0531 -0.6272
 1007MOL0     O35811   7.618   5.901   9.649 -0.3898  0.6258  0.7351
 1007MOL0     C35812   7.711   5.967   9.603 -0.5363  0.1438  0.7345
 1007MOL0     O35813   7.729   6.103   9.612 -0.1852  0.3283  0.2546
 1007MOL0     C35814   7.636   6.173   9.683  0.0825  0.4841  0.8683
 1007MOL0     C35815   7.563   6.271   9.611 -0.2322 -0.3828  0.0755
 1007MOL0     C35816   7.470   6.360   9.681  0.3552 -0.4171 -0.0141
 1007MOL0     C35817   7.448   6.335   9.820 -1.2745 -1.1595 -0.3518
 1007MOL0     O35818   7.350   6.400   9.887  0.2009  0.3820  0.4452
 1007MOL0     C35819   7.314   6.532   9.858 -0.2709 -0.4048  1.0795
 1007MOL0     C35820   7.200   6.563   9.951 -0.2744 -0.0348  0.0413
 1007MOL0     C35821   7.177   6.718   9.996 -0.2262  0.7902 -0.1666
 1007MOL0     C35822   7.301   6.792  10.055  0.4178  0.3350 -0.2969
 1007MOL0     C35823   7.368   6.718  10.177  0.1222 -1.0539 -0.1738
 1007MOL0     C35824   7.289   6.749  10.305 -0.0067 -0.0790  0.1701
 1007MOL0     C35825   7.257   6.616  10.392 -0.7484 -0.3455  0.5194
 1007MOL0     C35826   7.135   6.541  10.349 -0.7720 -0.9304 -0.6324
 1007MOL0     N35827   7.077   6.441  10.443  0.2952  0.4527 -0.5396
 1007MOL0     C35828   7.141   6.356  10.528 -0.0335  0.3958  0.0289
 1007MOL0     C35829   7.036   6.301  10.593  0.5826 -1.3846 -0.5514
 1007MOL0     C35830   7.065   6.215  10.712 -0.4945 -0.4477 -0.4157
 1007MOL0     C35831   7.087   6.067  10.680  1.0881  0.9112  1.2450
 1007MOL0     C35832   7.056   5.980  10.794  0.4036 -0.3226  0.0413
 1007MOL0     C35833   7.152   6.002  10.913  0.0567 -0.0658 -0.6366
 1007MOL0     O35834   7.118   5.896  11.005  0.0722 -0.4537  0.6753
 1007MOL0     C35835   7.183   5.869  11.122  0.1097 -0.9349 -0.4104
 1007MOL0     C35836   7.251   5.969  11.185  0.8337 -0.1992  0.4556
 1007MOL0     C35837   7.319   5.938  11.299 -0.1573  0.5885  0.0862
 1007MOL0     C35838   7.321   5.810  11.363  1.0110 -0.4365  1.1574
 1007MOL0     C35839   7.387   5.786  11.498  0.1303  0.1477 -0.4531
 1007MOL0     O35840   7.387   5.665  11.564  0.0116 -1.1043 -0.3451
 1007MOL0     C35841   7.472   5.656  11.674  1.2378  0.0698 -0.0719
 1007MOL0     C35842   7.416   5.656  11.796  0.0849  1.0039  0.0598
 1007MOL0     C35843   7.492   5.659  11.920 -0.2148  1.0874  0.0191
 1007MOL0     C35844   7.630   5.660  11.910  0.4989 -0.4438  1.0051
 1007MOL0     O35845   7.700   5.663  12.027  0.1644 -0.1818 -0.1346
 1007MOL0     C35846   7.808   5.755  12.048 -0.0073  0.9775 -0.1536
 1007MOL0     C35847   7.778   5.842  12.171 -0.2696 -0.1902 -0.2903
 1007MOL0     C35848   7.882   5.955  12.181  0.9179 -1.0744  0.7277
 1007MOL0     C35849   7.874   6.064  12.295  0.2475 -0.1110 -0.1449
 1007MOL0     C35850   7.997   6.141  12.303  0.4009 -0.3307 -0.4308
 1007MOL0     C35851   8.029   6.224  12.177  0.5913  0.4764  0.2375
 1007MOL0     C35852   8.129   6.334  12.209  0.1583 -0.0799 -0.1126
 1007MOL0     C35853   8.183   6.392  12.084  0.4948 -0.0004 -0.1933
 1007MOL0    Cl35854   8.059   6.475  11.983 -0.0960 -0.0576 -0.2771
 1007MOL0     C35855   7.692   5.654  11.785  0.5167  0.0531  0.2884
 1007MOL0     C35856   7.612   5.647  11.666  0.0091  0.2775  0.0158
 1007MOL0     O35857   7.444   5.889  11.543 -0.0625  0.2730 -0.6347
 1007MOL0     C35858   7.249   5.711  11.293  0.0108 -0.1527  1.3289
 1007MOL0     C35859   7.177   5.743  11.172 -0.1389 -0.2119 -0.3172
 1007MOL0     N35860   6.919   6.341  10.543 -0.5419  1.1172  0.1563
 1007MOL0     N35861   6.942   6.420  10.447  0.0238 -0.2062  0.5330
 1007MOL0     C35862   7.530   6.241   9.895  0.5130 -0.4233 -0.2081
 1007MOL0     C35863   7.621   6.160   9.823  0.5035  0.2281  0.3272
 1007MOL0     C35864   7.817   5.889   9.533 -0.8094 -0.2205  0.6197
 1007MOL0     C35865   7.915   5.963   9.466  0.1898  0.1028 -0.1266
 1007MOL0     C35866   8.016   5.914   9.384  0.4837 -0.1927 -0.3294
 1007MOL0     C35867   8.012   5.774   9.353 -0.3486  0.1889 -0.3052
 1007MOL0     O35868   8.089   5.711   9.255 -0.0562 -0.2367  0.8093
 1007MOL0     C35869   8.222   5.759   9.217  0.8196  0.1072 -0.7470
 1007MOL0     C35870   8.332   5.650   9.206  0.0263  0.0936 -0.1927
 1007MOL0     C35871   8.273   5.520   9.153 -0.0429  0.7612  0.6107
 1007MOL0     C35872   8.389   5.435   9.108  0.0079  0.3619 -0.5250
 1007MOL0     C35873   8.347   5.306   9.063  0.7531  0.8065 -0.1267
 1007MOL0     C35874   8.337   5.185   9.038 -0.8714  0.0898 -0.2323
 1007MOL0     C35875   7.923   5.698   9.429  0.2273  0.8963  0.0453
 1007MOL0     C35876   7.833   5.750   9.521 -0.2176 -0.3736 -0.4263
 1007MOL0     C35877   7.758   5.656   9.599 -0.4538  0.7341 -0.0471
 1007MOL0     H35878   7.579   6.279   9.504  4.3342  2.7283  0.7339
 1007MOL0     H35879   7.399   6.417   9.622  1.7316  0.2122 -1.1269
 1007MOL0     H35880   7.399   6.595   9.886 -0.5927  0.1539  0.8338
 1007MOL0     H35881   7.269   6.550   9.760 -3.0689 -1.1396  2.1234
 1007MOL0     H35882   7.191   6.494  10.035  0.1279 -0.6994 -0.4533
 1007MOL0     H35883   7.107   6.544   9.898 -0.1637  0.2139 -0.2457
 1007MOL0     H35884   7.093   6.715  10.065 -1.9109 -0.3944 -2.1262
 1007MOL0     H35885   7.137   6.766   9.906 -2.4386 -1.2078 -0.3629
 1007MOL0     H35886   7.382   6.806   9.983  2.0732 -0.7789  1.2468
 1007MOL0     H35887   7.262   6.890  10.083 -0.6178 -0.1609  0.0335
 1007MOL0     H35888   7.386   6.612  10.157  0.6782 -1.2359  1.1579
 1007MOL0     H35889   7.470   6.756  10.191  0.5295 -2.5412  1.2664
 1007MOL0     H35890   7.362   6.811  10.359  0.0346  0.5144 -0.5441
 1007MOL0     H35891   7.194   6.803  10.291 -1.0589 -1.9062  0.0267
 1007MOL0     H35892   7.242   6.643  10.497 -0.0967 -2.0251  1.0639
 1007MOL0     H35893   7.349   6.559  10.380  0.2743  1.4385 -0.5528
 1007MOL0     H35894   7.046   6.598  10.322 -0.6668  0.4983  1.8150
 1007MOL0     H35895   7.162   6.493  10.254  0.9255 -3.3880  0.9692
 1007MOL0     H35896   7.248   6.345  10.543  0.7498  1.5638 -3.6343
 1007MOL0     H35897   7.148   6.256  10.771  0.2331 -1.7951 -0.4609
 1007MOL0     H35898   6.976   6.231  10.773  1.5471  1.5642  2.2524
 1007MOL0     H35899   7.021   6.037  10.598 -0.0252  1.9282  1.7405
 1007MOL0     H35900   7.184   6.048  10.634  0.7788 -0.4808  1.1179
 1007MOL0     H35901   7.066   5.879  10.752 -1.3977 -0.3462 -0.4134
 1007MOL0     H35902   6.960   5.995  10.844  0.6987 -0.2193  0.5835
 1007MOL0     H35903   7.153   6.098  10.965  2.6911 -1.2262  1.7363
 1007MOL0     H35904   7.250   5.989  10.866 -0.2584  3.3395 -2.6261
 1007MOL0     H35905   7.240   6.072  11.153 -1.0219 -0.6023 -0.3233
 1007MOL0     H35906   7.398   6.001  11.340 -0.5262  2.1585 -1.4892
 1007MOL0     H35907   7.307   5.654  11.796  0.0023 -2.8646 -0.8039
 1007MOL0     H35908   7.440   5.661  12.016  4.1252 -1.2336  2.7435
 1007MOL0     H35909   7.909   5.714  12.054 -1.3541 -2.5045  2.0962
 1007MOL0     H35910   7.828   5.817  11.961  1.2953  3.2300  1.6376
 1007MOL0     H35911   7.680   5.890  12.167  0.8904  2.4129  0.4873
 1007MOL0     H35912   7.792   5.792  12.268  1.3720  1.3324  0.3088
 1007MOL0     H35913   7.980   5.907  12.188  0.3311 -2.3202  0.7127
 1007MOL0     H35914   7.878   6.010  12.087  2.3438 -1.3946  0.4533
 1007MOL0     H35915   7.868   6.004  12.386  1.1229 -0.5044 -0.3273
 1007MOL0     H35916   7.803   6.145  12.280  2.8017  2.0902 -1.2925
 1007MOL0     H35917   8.083   6.072  12.310  0.1160 -0.5568  1.9648
 1007MOL0     H35918   7.993   6.206  12.391  0.8024  0.5999 -1.0911
 1007MOL0     H35919   8.066   6.160  12.097 -1.8798  0.9278 -1.3708
 1007MOL0     H35920   7.935   6.271  12.145 -0.3444 -1.1754  0.4470
 1007MOL0     H35921   8.209   6.294  12.271 -0.0461 -1.3065 -0.6307
 1007MOL0     H35922   8.082   6.409  12.275  0.1761 -1.0356  1.0202
 1007MOL0     H35923   8.256   6.469  12.109  0.7452 -0.0083 -0.8692
 1007MOL0     H35924   8.250   6.331  12.023  3.0811  1.8987  0.5540
 1007MOL0     H35925   7.799   5.638  11.792  0.1106 -3.0740  0.9928
 1007MOL0     H35926   7.659   5.629  11.570  2.2028  5.5315 -0.2390
 1007MOL0     H35927   7.242   5.615  11.343 -2.5769 -1.3643 -1.1038
 1007MOL0     H35928   7.134   5.671  11.103  0.9770 -0.9401 -0.2806
 1007MOL0     H35929   7.506   6.217   9.998 -2.5019 -0.7266 -0.8621
 1007MOL0     H35930   7.675   6.078   9.869 -0.9023 -1.7406 -1.3859
 1007MOL0     H35931   7.904   6.069   9.484  0.7768  0.2876 -0.8346
 1007MOL0     H35932   8.085   5.968   9.320  1.1172 -1.6170 -0.8874
 1007MOL0     H35933   8.259   5.826   9.295  6.0066 -0.4497 -2.3600
 1007MOL0     H35934   8.213   5.807   9.120  2.8141  0.1723 -0.9376
 1007MOL0     H35935   8.384   5.642   9.302 -0.4665  0.3196  0.0950
 1007MOL0     H35936   8.413   5.690   9.144  0.6811  3.1617  2.3626
 1007MOL0     H35937   8.214   5.537   9.063  2.4623 -1.0120 -1.5171
 1007MOL0     H35938   8.208   5.476   9.229 -0.3390  0.5091  0.2100
 1007MOL0     H35939   8.442   5.490   9.030  0.6385  0.9445  0.2980
 1007MOL0     H35940   8.460   5.409   9.188 -0.9053  1.1165  0.5723
 1007MOL0     H35941   8.312   5.083   9.016  3.1243 -1.1330  0.1324
 1007MOL0     H35942   7.945   5.593   9.412  1.0159  1.4207 -2.8240
 1007MOL0     H35943   7.817   5.565   9.612  1.5019  2.1351  1.5461
 1007MOL0     H35944   7.733   5.691   9.700 -0.8557 -0.4976  0.2881
 1007MOL0     H35945   7.665   5.633   9.546  0.3053  0.6855 -1.3931
 1008MOL0     O35946   2.451   8.297   2.825  0.8222 -0.3203 -0.3858
 1008MOL0     C35947   2.335   8.320   2.869 -0.5602 -1.1990 -0.3772
 1008MOL0     O35948   2.319   8.368   2.997 -0.3090 -0.1464 -0.4947
 1008MOL0     C35949   2.413   8.406   3.094  0.5943  0.1677 -0.5817
 1008MOL0     C35950   2.363   8.464   3.215 -0.0385  0.0932  0.0995
 1008MOL0     C35951   2.450   8.497   3.318 -0.0656 -0.5279  1.5665
 1008MOL0     C35952   2.589   8.477   3.303  0.0082 -1.1222 -0.6342
 1008MOL0     O35953   2.680   8.499   3.401  0.4975  0.5175 -0.1789
 1008MOL0     C35954   2.653   8.630   3.467  0.7511 -0.8762  0.1176
 1008MOL0     C35955   2.773   8.710   3.516 -0.4433  0.3462  0.0478
 1008MOL0     C35956   2.859   8.784   3.406 -0.2319 -0.1409 -0.0124
 1008MOL0     C35957   2.925   8.690   3.318  0.2674  0.5291  0.5196
 1008MOL0     C35958   3.016   8.751   3.206  0.0034  0.4338  0.0427
 1008MOL0     C35959   3.164   8.780   3.259  0.5077 -0.0930 -0.2785
 1008MOL0     C35960   3.255   8.849   3.160  0.2081  1.0362  0.2362
 1008MOL0     C35961   3.402   8.843   3.199 -0.4749  0.0769  1.2635
 1008MOL0     N35962   3.478   8.924   3.108 -0.3316 -0.1026 -0.4395
 1008MOL0     C35963   3.474   9.059   3.093  0.7353  0.4542 -0.7178
 1008MOL0     C35964   3.562   9.073   2.993  0.2757  0.7295 -0.2505
 1008MOL0     C35965   3.604   9.194   2.931 -0.8579 -0.5046  0.0987
 1008MOL0     C35966   3.624   9.308   3.022 -1.0593 -0.1431 -0.0500
 1008MOL0     C35967   3.690   9.429   2.934  0.8578 -0.0969  0.4462
 1008MOL0     C35968   3.763   9.531   3.025  0.1843 -1.1194  0.0750
 1008MOL0     O35969   3.669   9.631   3.074  0.0598  1.5148  0.0500
 1008MOL0     C35970   3.633   9.744   2.999 -0.1209  0.7996 -0.3515
 1008MOL0     C35971   3.680   9.778   2.876  0.7319 -0.8686 -0.1568
 1008MOL0     C35972   3.660   9.899   2.818  0.4215  0.0338 -0.8539
 1008MOL0     C35973   3.561   9.984   2.871 -0.7498 -0.1472  0.1073
 1008MOL0     C35974   3.520  10.088   2.786  0.4311  0.3613  0.4455
 1008MOL0     O35975   3.461  10.188   2.847 -0.9619 -0.1443  0.4745
 1008MOL0     C35976   3.381  10.275   2.777  0.8542 -0.5358 -0.1206
 1008MOL0     C35977   3.245  10.256   2.765  0.3170 -0.6083 -0.0662
 1008MOL0     C35978   3.160  10.354   2.709 -0.6305  0.8330 -0.3668
 1008MOL0     C35979   3.220  10.465   2.643 -0.1927  0.3588 -0.1328
 1008MOL0     O35980   3.145  10.545   2.569  0.2327  0.6706  0.2158
 1008MOL0     C35981   3.058  10.628   2.649  0.8062  0.1863  0.7466
 1008MOL0     C35982   2.910  10.589   2.614  0.4351 -0.0102 -0.0058
 1008MOL0     C35983   2.814  10.680   2.694  0.6209 -0.2179 -0.6769
 1008MOL0     C35984   2.684  10.658   2.626 -0.2297  0.0162 -0.3966
 1008MOL0     C35985   2.576  10.707   2.713 -0.2127 -0.8566  0.3113
 1008MOL0     C35986   2.444  10.737   2.628 -0.0463  0.3398  0.6357
 1008MOL0     C35987   2.322  10.769   2.723  0.0354 -0.0344 -0.6732
 1008MOL0     C35988   2.198  10.772   2.641  0.7558  0.4853  0.2753
 1008MOL0    Cl35989   2.049  10.734   2.750 -0.1001  0.3722 -0.2164
 1008MOL0     C35990   3.355  10.467   2.635  0.2516  0.1455 -0.0260
 1008MOL0     C35991   3.443  10.378   2.705  0.1969  0.3461  0.3956
 1008MOL0     O35992   3.519  10.066   2.663 -0.8379 -0.0180 -0.9214
 1008MOL0     C35993   3.494   9.948   2.988  0.0697  1.4832  0.2177
 1008MOL0     C35994   3.534   9.835   3.050 -0.3725 -0.7569 -1.0049
 1008MOL0     N35995   3.599   8.957   2.935  0.1408 -0.6232 -1.0845
 1008MOL0     N35996   3.540   8.871   2.997  0.1167  0.4872 -0.1835
 1008MOL0     C35997   2.638   8.418   3.184 -0.3468 -0.3739  0.0333
 1008MOL0     C35998   2.554   8.387   3.081  0.8838 -0.8229  0.8106
 1008MOL0     C35999   2.209   8.313   2.780 -0.0162 -0.3792  0.3801
 1008MOL0     C36000   2.088   8.363   2.831  0.0116  1.0744  0.5825
 1008MOL0     C36001   1.964   8.341   2.769 -1.0280  0.3731 -0.2510
 1008MOL0     C36002   1.957   8.286   2.643  1.4366 -0.0039 -1.1606
 1008MOL0     O36003   1.843   8.270   2.561  0.6618 -0.0468 -0.0767
 1008MOL0     C36004   1.718   8.283   2.624  0.2019  0.4186  0.0179
 1008MOL0     C36005   1.611   8.225   2.546  1.0573 -0.8695 -0.4115
 1008MOL0     C36006   1.600   8.292   2.409  0.8709  0.2899  0.1564
 1008MOL0     C36007   1.460   8.262   2.346  0.0976  0.4728 -0.4886
 1008MOL0     C36008   1.445   8.340   2.220  0.3562 -0.3295 -0.5291
 1008MOL0     C36009   1.432   8.396   2.112  0.2099  0.1165  0.6826
 1008MOL0     C36010   2.071   8.267   2.577 -0.7989 -0.4973 -0.2636
 1008MOL0     C36011   2.193   8.264   2.647 -0.4152 -0.6285 -0.1633
 1008MOL0     C36012   2.307   8.207   2.570 -0.1440 -0.4879  1.2557
 1008MOL0     H36013   2.256   8.483   3.215 -0.0980 -0.2318  0.1174
 1008MOL0     H36014   2.400   8.546   3.401 -2.8770  2.9556 -1.7873
 1008MOL0     H36015   2.605   8.692   3.391 -2.8362 -3.5155 -0.0349
 1008MOL0     H36016   2.581   8.623   3.548  1.6570  2.1692  1.3129
 1008MOL0     H36017   2.832   8.645   3.581  2.6443  1.8831 -1.0299
 1008MOL0     H36018   2.734   8.789   3.581 -0.7363 -0.4452  0.8569
 1008MOL0     H36019   2.933   8.848   3.457 -2.6322  1.4124  1.7332
 1008MOL0     H36020   2.791   8.849   3.350 -0.4483 -0.9314 -0.6740
 1008MOL0     H36021   2.995   8.620   3.367  0.0189 -0.8164 -0.9520
 1008MOL0     H36022   2.849   8.626   3.271  1.7116  0.6742 -2.2346
 1008MOL0     H36023   3.019   8.678   3.124  0.7910 -2.8376  2.7589
 1008MOL0     H36024   2.973   8.844   3.168  0.3402  0.8777  0.7353
 1008MOL0     H36025   3.159   8.853   3.341 -1.1884 -0.5094  0.0179
 1008MOL0     H36026   3.205   8.685   3.295  1.1796 -0.5232 -2.0616
 1008MOL0     H36027   3.215   8.951   3.153 -0.9075  0.5769 -0.4333
 1008MOL0     H36028   3.241   8.809   3.059 -1.2279 -0.2549  0.8990
 1008MOL0     H36029   3.422   8.878   3.301  3.0620 -1.2774  1.1609
 1008MOL0     H36030   3.422   8.736   3.186  0.4531  0.5153 -1.7245
 1008MOL0     H36031   3.435   9.136   3.159  2.5466  2.3133 -1.7044
 1008MOL0     H36032   3.697   9.173   2.876 -3.0927 -0.8850 -3.9197
 1008MOL0     H36033   3.529   9.227   2.859 -0.1392 -2.9771 -1.9674
 1008MOL0     H36034   3.524   9.338   3.056 -2.1165 -0.2693 -2.7552
 1008MOL0     H36035   3.692   9.277   3.102 -2.5033  1.6831  2.0310
 1008MOL0     H36036   3.604   9.488   2.902  0.7697  1.4228  3.1875
 1008MOL0     H36037   3.758   9.391   2.857  0.8919 -0.5737  0.7047
 1008MOL0     H36038   3.836   9.586   2.965 -1.3913  0.5789 -0.4093
 1008MOL0     H36039   3.816   9.490   3.111  1.7766  2.0368  0.7643
 1008MOL0     H36040   3.750   9.713   2.822  1.0490  0.9177 -2.0378
 1008MOL0     H36041   3.709   9.902   2.722  1.5284 -4.4724 -0.6857
 1008MOL0     H36042   3.202  10.176   2.826 -0.7087  0.9529  1.3664
 1008MOL0     H36043   3.052  10.343   2.708 -0.7947  2.1992  0.0419
 1008MOL0     H36044   3.083  10.624   2.756  2.0816 -0.6737  0.4343
 1008MOL0     H36045   3.066  10.736   2.630 -0.7354  0.0667 -0.7466
 1008MOL0     H36046   2.896  10.608   2.508  2.1027 -0.9202 -0.4296
 1008MOL0     H36047   2.901  10.480   2.625  2.8139 -0.7482 -3.6079
 1008MOL0     H36048   2.802  10.640   2.795 -1.0913  2.3952  0.2577
 1008MOL0     H36049   2.842  10.786   2.700 -1.4033  0.2755  1.8526
 1008MOL0     H36050   2.659  10.553   2.610 -3.1192  0.5902 -0.2566
 1008MOL0     H36051   2.688  10.709   2.529 -3.5615 -1.8275 -1.6907
 1008MOL0     H36052   2.602  10.795   2.773 -2.9772  0.6359 -0.4857
 1008MOL0     H36053   2.571  10.624   2.784  1.1688 -0.9356  0.3427
 1008MOL0     H36054   2.477  10.820   2.564 -1.4590  0.2689 -0.2209
 1008MOL0     H36055   2.428  10.652   2.562  0.8340 -0.7763  1.8119
 1008MOL0     H36056   2.331  10.862   2.780 -2.1098  0.6856 -1.4063
 1008MOL0     H36057   2.319  10.688   2.797 -0.4796  0.0419 -0.6064
 1008MOL0     H36058   2.166  10.862   2.589 -0.7649 -0.0028  0.3195
 1008MOL0     H36059   2.201  10.691   2.567  2.3622 -0.4268  1.2585
 1008MOL0     H36060   3.405  10.548   2.583 -0.3288  0.7763  0.3817
 1008MOL0     H36061   3.548  10.378   2.679 -0.3825  2.7163 -2.6227
 1008MOL0     H36062   3.408  10.005   3.026  0.1265 -0.0522  2.9210
 1008MOL0     H36063   3.488   9.819   3.147  2.4778  1.3781  0.8837
 1008MOL0     H36064   2.744   8.407   3.163 -0.0334  1.5829  0.3603
 1008MOL0     H36065   2.590   8.352   2.985 -0.7672 -1.4172  0.3726
 1008MOL0     H36066   2.095   8.395   2.935  2.1207  2.3816  0.1153
 1008MOL0     H36067   1.877   8.378   2.821 -2.7681 -1.7092 -1.5110
 1008MOL0     H36068   1.700   8.388   2.651  0.4538  0.2185  1.0154
 1008MOL0     H36069   1.716   8.214   2.709 -3.4283 -3.5167 -2.8639
 1008MOL0     H36070   1.519   8.250   2.600  0.4362  2.2019 -2.6503
 1008MOL0     H36071   1.610   8.116   2.545  0.0887 -1.0125  2.9106
 1008MOL0     H36072   1.676   8.250   2.342  1.1782  0.6563  0.2750
 1008MOL0     H36073   1.604   8.401   2.413 -3.4556  0.5904  1.5970
 1008MOL0     H36074   1.452   8.155   2.328 -0.5193  0.1448  1.4843
 1008MOL0     H36075   1.391   8.289   2.427  1.8039  0.3902  1.0751
 1008MOL0     H36076   1.427   8.441   2.015  0.2989 -1.7329 -0.2220
 1008MOL0     H36077   2.078   8.233   2.474  0.6797 -2.4058  0.4003
 1008MOL0     H36078   2.352   8.129   2.632 -0.5955  0.6487  3.0783
 1008MOL0     H36079   2.283   8.174   2.468  0.8808  1.9178  0.1520
 1008MOL0     H36080   2.376   8.290   2.554  0.6307 -1.4935 -1.1123
 1009MOL0     O36081   3.834   4.800   5.266  0.6241 -0.5154  0.0080
 1009MOL0     C36082   3.914   4.710   5.238 -0.0426 -0.5165 -0.4239
 1009MOL0     O36083   4.049   4.733   5.231 -0.2904  0.1426  0.0811
 1009MOL0     C36084   4.105   4.862   5.240  0.5805  0.7777 -0.5961
 1009MOL0     C36085   4.212   4.893   5.149 -0.2628  0.8534 -0.1511
 1009MOL0     C36086   4.265   5.024   5.158 -0.3711 -0.6009 -0.1637
 1009MOL0     C36087   4.211   5.121   5.244 -0.6680 -0.3730 -0.1695
 1009MOL0     O36088   4.285   5.239   5.262 -0.1271 -0.6460  0.7403
 1009MOL0     C36089   4.221   5.359   5.213  0.0036 -0.1795 -0.6435
 1009MOL0     C36090   4.149   5.436   5.325  0.2432 -0.2034 -0.2976
 1009MOL0     C36091   4.236   5.488   5.444 -0.3613  0.2597 -0.7054
 1009MOL0     C36092   4.138   5.528   5.554  0.1465 -0.3645 -0.2729
 1009MOL0     C36093   4.197   5.574   5.687 -0.7711 -0.3431 -0.0298
 1009MOL0     C36094   4.095   5.669   5.764  0.2951 -0.0874  0.6609
 1009MOL0     C36095   4.148   5.720   5.899 -0.1618  0.4058  0.0776
 1009MOL0     C36096   4.036   5.798   5.975 -0.2118  0.5085 -0.4908
 1009MOL0     N36097   4.016   5.929   5.913  0.6239  0.1464  0.5847
 1009MOL0     C36098   3.896   5.971   5.865 -0.8838  0.4483 -0.0228
 1009MOL0     C36099   3.918   6.096   5.809  0.2444  0.4728  0.4578
 1009MOL0     C36100   3.836   6.172   5.709 -0.5409 -0.4038 -0.6725
 1009MOL0     C36101   3.799   6.078   5.595 -0.5352  0.0755 -0.2015
 1009MOL0     C36102   3.920   6.067   5.502 -0.0258 -0.6525 -0.1155
 1009MOL0     C36103   3.939   6.190   5.406  0.7305 -0.4644  1.0701
 1009MOL0     O36104   3.826   6.198   5.311  0.0318 -0.4843  0.3994
 1009MOL0     C36105   3.805   6.325   5.253  0.6025  0.2659  0.7090
 1009MOL0     C36106   3.870   6.442   5.291 -0.2470 -0.7331  0.7797
 1009MOL0     C36107   3.838   6.565   5.236  0.3702 -0.5213 -0.6499
 1009MOL0     C36108   3.745   6.576   5.134 -0.6571  0.4789 -0.1610
 1009MOL0     C36109   3.709   6.704   5.064 -1.0666 -1.0050 -0.5005
 1009MOL0     O36110   3.779   6.811   5.112  0.2565 -0.1097 -0.2244
 1009MOL0     C36111   3.763   6.934   5.052 -0.2017  0.1802 -0.9803
 1009MOL0     C36112   3.633   6.983   5.066  0.4953 -0.3724 -0.6716
 1009MOL0     C36113   3.609   7.118   5.053 -0.1583  0.0084 -0.4755
 1009MOL0     C36114   3.702   7.217   5.020  0.1136  0.3389 -0.6019
 1009MOL0     O36115   3.675   7.347   4.992 -0.4070 -0.2498 -0.6677
 1009MOL0     C36116   3.761   7.461   5.014 -1.1382 -0.7248 -0.7326
 1009MOL0     C36117   3.814   7.464   5.155 -0.7117 -1.0473 -0.3629
 1009MOL0     C36118   3.897   7.585   5.172  0.2182  0.5597 -0.4602
 1009MOL0     C36119   3.993   7.559   5.299 -0.2803 -0.2521 -0.6044
 1009MOL0     C36120   4.100   7.664   5.309 -1.0135  0.0864 -0.0188
 1009MOL0     C36121   4.052   7.809   5.317  0.4874  0.1652  0.7175
 1009MOL0     C36122   3.946   7.823   5.436 -0.8051  0.2916  0.1054
 1009MOL0     C36123   3.959   7.957   5.498  0.4084 -0.8069 -0.8000
 1009MOL0    Cl36124   3.919   8.087   5.373 -0.4362 -0.2483  0.4328
 1009MOL0     C36125   3.834   7.165   5.009  0.8676 -0.6774 -0.1013
 1009MOL0     C36126   3.866   7.031   5.036 -0.4740  0.1099  0.1329
 1009MOL0     O36127   3.637   6.701   4.966  0.0342  0.4390 -1.2852
 1009MOL0     C36128   3.676   6.458   5.088 -0.4524 -0.6123  1.1345
 1009MOL0     C36129   3.701   6.334   5.147  0.0116 -0.3667 -0.6787
 1009MOL0     N36130   4.050   6.131   5.839 -0.3198 -0.6667 -1.0081
 1009MOL0     N36131   4.100   6.029   5.907 -0.8647 -0.0931  0.4727
 1009MOL0     C36132   4.103   5.094   5.326  0.4607  1.1733  0.6078
 1009MOL0     C36133   4.054   4.961   5.331  1.3829  0.0671  0.5664
 1009MOL0     C36134   3.870   4.570   5.216  0.0998  0.4747  0.2547
 1009MOL0     C36135   3.968   4.465   5.212 -0.3671 -0.6267  0.6468
 1009MOL0     C36136   3.926   4.331   5.208  0.3869 -0.2407 -0.0536
 1009MOL0     C36137   3.798   4.295   5.221  1.1537 -0.1268 -0.0655
 1009MOL0     O36138   3.738   4.170   5.232 -0.0021  0.8797  1.0231
 1009MOL0     C36139   3.818   4.057   5.197 -0.0343  0.4058 -0.3228
 1009MOL0     C36140   3.715   3.953   5.139 -0.0861 -0.0632 -0.6670
 1009MOL0     C36141   3.663   4.003   4.994 -0.4722  0.0043 -0.4212
 1009MOL0     C36142   3.538   3.916   4.969 -1.5313 -0.4588 -0.7463
 1009MOL0     C36143   3.477   3.957   4.842  0.0288  0.9336 -0.3138
 1009MOL0     C36144   3.413   3.990   4.740 -1.1122  0.4130 -0.3056
 1009MOL0     C36145   3.703   4.395   5.224 -0.3253 -0.1015 -0.1483
 1009MOL0     C36146   3.734   4.530   5.207  0.2427 -0.6851  0.6723
 1009MOL0     C36147   3.619   4.632   5.204 -0.9004 -0.9053 -0.5658
 1009MOL0     H36148   4.259   4.820   5.084  1.0118  2.0539 -0.6078
 1009MOL0     H36149   4.359   5.054   5.114 -0.7156 -0.6905 -0.9844
 1009MOL0     H36150   4.306   5.413   5.168 -0.8412  0.9942 -0.8766
 1009MOL0     H36151   4.161   5.327   5.128  1.4967 -0.2191 -1.7374
 1009MOL0     H36152   4.067   5.372   5.358  2.4225 -3.1352 -0.1599
 1009MOL0     H36153   4.112   5.532   5.287  2.3389  0.7192 -0.1560
 1009MOL0     H36154   4.292   5.578   5.418  0.8616 -0.4350 -0.5277
 1009MOL0     H36155   4.300   5.403   5.469 -0.7584  0.8196  2.7027
 1009MOL0     H36156   4.081   5.612   5.514  0.5309 -0.3869 -0.8737
 1009MOL0     H36157   4.059   5.455   5.573 -0.0117 -0.7554 -2.2436
 1009MOL0     H36158   4.227   5.481   5.735 -0.4130 -1.0387 -1.5457
 1009MOL0     H36159   4.294   5.617   5.661 -0.9152 -1.0391 -1.8556
 1009MOL0     H36160   4.090   5.753   5.694  0.8861  0.6346  1.4688
 1009MOL0     H36161   3.999   5.617   5.763  0.5495 -0.6913 -2.4064
 1009MOL0     H36162   4.235   5.785   5.891 -0.4285  0.8068  0.4522
 1009MOL0     H36163   4.177   5.634   5.961  0.3654  0.4651 -0.0823
 1009MOL0     H36164   3.941   5.745   5.979 -0.5625  1.1045 -0.9336
 1009MOL0     H36165   4.066   5.796   6.081 -0.1545 -0.1828 -0.5156
 1009MOL0     H36166   3.807   5.914   5.843  0.2083 -1.2058 -0.3269
 1009MOL0     H36167   3.741   6.190   5.759 -0.4829 -0.8192 -0.4064
 1009MOL0     H36168   3.882   6.268   5.683  1.2372 -0.6090  1.3918
 1009MOL0     H36169   3.759   5.981   5.625 -1.6865  1.0505  1.5572
 1009MOL0     H36170   3.721   6.129   5.538 -1.4539  2.4159  2.8781
 1009MOL0     H36171   3.901   5.986   5.431 -1.8138  0.3744 -0.8660
 1009MOL0     H36172   4.010   6.048   5.562 -0.1730 -0.3249  0.2163
 1009MOL0     H36173   4.037   6.178   5.359  0.6880 -2.1501  1.3633
 1009MOL0     H36174   3.954   6.278   5.470  0.3630  0.8616 -0.5800
 1009MOL0     H36175   3.965   6.449   5.344 -0.7025 -0.8262  1.6353
 1009MOL0     H36176   3.898   6.651   5.263  1.0211 -1.7964  2.3657
 1009MOL0     H36177   3.558   6.908   5.087 -0.7711  0.7902 -0.9307
 1009MOL0     H36178   3.506   7.149   5.069 -0.2775 -0.7857  0.3589
 1009MOL0     H36179   3.848   7.441   4.952 -0.7738 -0.5032 -0.2946
 1009MOL0     H36180   3.701   7.550   4.993 -1.6401 -0.8785 -0.0236
 1009MOL0     H36181   3.733   7.468   5.229 -0.1364  1.0937  0.2262
 1009MOL0     H36182   3.880   7.379   5.175 -0.1569 -0.9453 -1.6846
 1009MOL0     H36183   3.950   7.593   5.077  1.7363  2.7281  0.4785
 1009MOL0     H36184   3.850   7.683   5.185 -0.7243  0.0509  0.1266
 1009MOL0     H36185   4.044   7.461   5.302  0.5339  0.1581  2.1202
 1009MOL0     H36186   3.934   7.554   5.391  1.0281 -2.6962  0.2027
 1009MOL0     H36187   4.155   7.658   5.214 -0.2361 -1.6172  0.4949
 1009MOL0     H36188   4.160   7.631   5.394 -0.4024 -3.2246 -1.5879
 1009MOL0     H36189   4.132   7.878   5.345 -0.3782  0.9731  1.2736
 1009MOL0     H36190   4.011   7.840   5.220 -1.4152 -1.3301  0.9781
 1009MOL0     H36191   3.982   7.755   5.514 -0.0481  2.1228  1.4183
 1009MOL0     H36192   3.851   7.800   5.388 -0.2601 -3.3128  0.4280
 1009MOL0     H36193   3.904   7.984   5.588  1.3717 -2.4165  0.3208
 1009MOL0     H36194   4.062   7.955   5.534  0.5569  1.5155 -0.9676
 1009MOL0     H36195   3.922   7.222   4.979  1.2244 -1.0195  0.2783
 1009MOL0     H36196   3.966   6.994   5.020 -0.4794 -0.9721  2.2683
 1009MOL0     H36197   3.605   6.456   5.007 -0.1573  1.6153  0.7553
 1009MOL0     H36198   3.657   6.241   5.113  2.3286 -2.7129  2.1548
 1009MOL0     H36199   4.056   5.163   5.395 -2.0102 -0.5023  0.7001
 1009MOL0     H36200   3.975   4.952   5.405  2.3465  0.1785  1.6442
 1009MOL0     H36201   4.073   4.493   5.219 -1.2931  2.9939  3.7229
 1009MOL0     H36202   4.002   4.255   5.190  1.8534  1.6754 -2.6446
 1009MOL0     H36203   3.879   4.011   5.276  0.1771  1.9427  0.4323
 1009MOL0     H36204   3.881   4.076   5.110  0.8644  0.7082  0.3801
 1009MOL0     H36205   3.637   3.931   5.212 -0.0425 -0.0167 -0.6070
 1009MOL0     H36206   3.751   3.851   5.119  1.6919  0.5266 -0.6460
 1009MOL0     H36207   3.740   3.977   4.921  1.7501  1.9804  1.0573
 1009MOL0     H36208   3.642   4.110   5.006 -0.0187 -0.1612  3.1331
 1009MOL0     H36209   3.572   3.812   4.959  0.3604  0.0861 -0.2328
 1009MOL0     H36210   3.472   3.930   5.055 -0.5941 -0.1973 -0.0614
 1009MOL0     H36211   3.371   4.036   4.653 -0.4205 -1.1318 -1.5098
 1009MOL0     H36212   3.597   4.373   5.217 -0.7461  2.0891 -1.3417
 1009MOL0     H36213   3.580   4.670   5.299 -0.7495  0.8190 -1.1596
 1009MOL0     H36214   3.652   4.723   5.154  0.7986 -1.9308 -1.4028
 1009MOL0     H36215   3.529   4.593   5.155 -1.5626  1.3294 -1.2073
 1010MOL0     O36216   2.684   3.579   3.837  0.8207 -0.9273  0.5796
 1010MOL0     C36217   2.577   3.537   3.882 -0.1194  1.1944 -0.0316
 1010MOL0     O36218   2.558   3.408   3.925 -0.1657  0.1827 -0.2562
 1010MOL0     C36219   2.654   3.309   3.949 -1.0548  0.7120 -0.3114
 1010MOL0     C36220   2.790   3.326   3.925 -0.8653 -0.2523  0.1824
 1010MOL0     C36221   2.878   3.216   3.918  0.1604  0.1806 -0.7809
 1010MOL0     C36222   2.830   3.084   3.949  0.5434 -0.2035 -0.1942
 1010MOL0     O36223   2.910   2.981   3.949 -0.5919 -0.3473  0.3810
 1010MOL0     C36224   2.942   2.924   3.821 -0.5489  0.0638 -0.6272
 1010MOL0     C36225   3.064   2.833   3.822  0.0750 -0.0111 -0.0105
 1010MOL0     C36226   3.182   2.909   3.886  0.2388  0.7112  0.2725
 1010MOL0     C36227   3.301   2.824   3.920  0.9712  0.5474  0.5315
 1010MOL0     C36228   3.380   2.893   4.040 -1.9088 -0.2355  0.4062
 1010MOL0     C36229   3.504   2.806   4.085 -0.0971 -0.9790 -0.7673
 1010MOL0     C36230   3.560   2.852   4.223  0.3698  0.5649 -0.7418
 1010MOL0     C36231   3.712   2.843   4.231  0.0342  0.6954  0.0495
 1010MOL0     N36232   3.756   2.703   4.214  0.2950 -0.0571  0.3040
 1010MOL0     C36233   3.704   2.590   4.285  0.6861 -0.2904  0.3128
 1010MOL0     C36234   3.768   2.476   4.231  0.0356 -1.0022 -0.0210
 1010MOL0     C36235   3.743   2.338   4.289 -0.2744 -0.3968  0.2144
 1010MOL0     C36236   3.732   2.228   4.182  0.8132  1.0102 -0.0248
 1010MOL0     C36237   3.817   2.099   4.212  0.6026  0.0917  0.0629
 1010MOL0     C36238   3.807   1.986   4.103 -0.4622  0.0280 -0.2800
 1010MOL0     O36239   3.899   1.875   4.127 -0.4468  0.3553 -0.0757
 1010MOL0     C36240   3.851   1.757   4.169  0.1995  0.5659 -0.0550
 1010MOL0     C36241   3.945   1.667   4.207 -0.1485 -0.0753 -0.9051
 1010MOL0     C36242   3.899   1.539   4.258 -0.2602  0.5339 -0.3502
 1010MOL0     C36243   3.768   1.494   4.262  0.2120 -0.3161  0.6053
 1010MOL0     C36244   3.740   1.357   4.304  0.1985 -0.1767  0.1659
 1010MOL0     O36245   3.610   1.310   4.283  0.9540 -0.4663  0.4997
 1010MOL0     C36246   3.583   1.181   4.318 -0.5194 -0.0211 -0.5393
 1010MOL0     C36247   3.464   1.149   4.371  0.4028  0.3498  0.0825
 1010MOL0     C36248   3.421   1.009   4.378 -0.1136 -0.1119  0.3718
 1010MOL0     C36249   3.496   0.908   4.326 -2.3369 -0.0972 -0.1205
 1010MOL0     O36250   3.441   0.780   4.326  0.8539  0.9392  0.2350
 1010MOL0     C36251   3.537   0.673   4.299  0.0587 -0.2775 -0.5193
 1010MOL0     C36252   3.457   0.534   4.309 -0.2799  0.1333 -0.1825
 1010MOL0     C36253   3.376   0.516   4.175  0.0623  0.0490 -0.2051
 1010MOL0     C36254   3.354   0.365   4.145  0.1556  0.1674 -0.4232
 1010MOL0     C36255   3.251   0.353   4.028  1.1961 -0.1642 -0.1953
 1010MOL0     C36256   3.247   0.207   3.973 -0.7180  0.0422  0.3507
 1010MOL0     C36257   3.329   0.197   3.849 -0.8972  0.8997 -0.6857
 1010MOL0     C36258   3.254   0.124   3.731 -0.2070 -0.1339 -0.5107
 1010MOL0    Cl36259   3.377   0.081   3.611 -0.0627  0.2086  0.3615
 1010MOL0     C36260   3.623   0.945   4.280  0.8297  0.7724 -0.3539
 1010MOL0     C36261   3.661   1.076   4.263 -0.1604 -0.4375 -0.0843
 1010MOL0     O36262   3.839   1.287   4.335 -0.1703 -0.3366 -0.3434
 1010MOL0     C36263   3.679   1.589   4.220 -0.0855  0.0016  0.4389
 1010MOL0     C36264   3.718   1.716   4.176 -0.2846 -0.3322  0.9996
 1010MOL0     N36265   3.865   2.531   4.145 -0.6091 -0.1312 -0.0165
 1010MOL0     N36266   3.852   2.659   4.128  0.0397  0.3896  0.7397
 1010MOL0     C36267   2.689   3.070   3.969  0.3065 -0.5480  0.4572
 1010MOL0     C36268   2.599   3.178   3.959  0.5365  0.9838 -0.7269
 1010MOL0     C36269   2.457   3.625   3.896  0.4888 -0.6696  1.0686
 1010MOL0     C36270   2.330   3.577   3.915  0.8696  0.3810 -0.3208
 1010MOL0     C36271   2.219   3.660   3.940  0.7803 -0.1258  0.7576
 1010MOL0     C36272   2.235   3.799   3.929 -0.0274  0.7986  1.0360
 1010MOL0     O36273   2.137   3.893   3.943 -0.2039  0.7127  0.3659
 1010MOL0     C36274   2.021   3.859   4.006 -0.7348  1.0338 -0.9061
 1010MOL0     C36275   1.919   3.813   3.902  0.0450 -0.1559  0.7116
 1010MOL0     C36276   1.779   3.839   3.944  1.3635 -0.2799 -0.1743
 1010MOL0     C36277   1.664   3.749   3.874  0.3247 -0.6573 -0.4261
 1010MOL0     C36278   1.540   3.810   3.906 -0.2374 -0.2209 -0.5453
 1010MOL0     C36279   1.433   3.857   3.934  0.0977 -0.4309  0.3045
 1010MOL0     C36280   2.359   3.856   3.892  0.9278 -0.1992  0.1089
 1010MOL0     C36281   2.473   3.768   3.880  0.3061 -0.0791  0.4552
 1010MOL0     C36282   2.608   3.844   3.877  0.0610  0.1279 -0.6242
 1010MOL0     H36283   2.838   3.419   3.898  0.9143 -1.2866 -0.4451
 1010MOL0     H36284   2.981   3.244   3.897  0.1504 -0.9596 -2.5854
 1010MOL0     H36285   2.861   2.863   3.780 -2.6636  0.9039  1.9775
 1010MOL0     H36286   2.970   2.994   3.741 -0.3974 -0.1166 -0.7330
 1010MOL0     H36287   3.096   2.798   3.724  0.2405 -0.8064  0.3167
 1010MOL0     H36288   3.043   2.741   3.878 -0.6209  1.2237  1.8558
 1010MOL0     H36289   3.136   2.959   3.971 -0.9873  0.3689 -0.1684
 1010MOL0     H36290   3.220   2.992   3.826  1.2047  0.3289  0.3392
 1010MOL0     H36291   3.261   2.724   3.942 -2.6160  1.4131 -1.2084
 1010MOL0     H36292   3.367   2.814   3.833 -0.8996 -1.1457 -0.7804
 1010MOL0     H36293   3.418   2.993   4.017  1.3628 -0.1362  4.8840
 1010MOL0     H36294   3.318   2.906   4.129  1.3224  2.7796  2.4777
 1010MOL0     H36295   3.474   2.702   4.101  0.2237 -0.7865  1.5106
 1010MOL0     H36296   3.584   2.828   4.014  0.5537  0.2359  0.2834
 1010MOL0     H36297   3.508   2.790   4.296 -1.0594  0.1054 -2.0822
 1010MOL0     H36298   3.532   2.955   4.248  2.8614  0.8648  1.1837
 1010MOL0     H36299   3.748   2.904   4.147 -0.0949 -0.9604 -1.2565
 1010MOL0     H36300   3.753   2.879   4.326 -1.3019  1.3023  0.4263
 1010MOL0     H36301   3.631   2.603   4.364  1.3523  1.5569  0.6520
 1010MOL0     H36302   3.829   2.320   4.355 -0.7742  1.3713  1.4106
 1010MOL0     H36303   3.652   2.338   4.349 -0.1400  1.2171  0.4532
 1010MOL0     H36304   3.625   2.207   4.170  1.1514 -0.8826 -0.1255
 1010MOL0     H36305   3.775   2.270   4.091  1.6853 -0.5578 -0.3716
 1010MOL0     H36306   3.792   2.057   4.310  0.0713  0.2941  0.0182
 1010MOL0     H36307   3.921   2.132   4.208  0.3948  0.6755 -3.3397
 1010MOL0     H36308   3.850   2.032   4.013 -2.2441 -0.4438 -1.4175
 1010MOL0     H36309   3.705   1.955   4.078 -1.2957  1.8162  0.7713
 1010MOL0     H36310   4.053   1.677   4.205  0.0710 -1.6548 -4.5285
 1010MOL0     H36311   3.974   1.466   4.287 -1.5378 -1.6940 -2.2539
 1010MOL0     H36312   3.388   1.223   4.394 -2.5128 -2.2382 -0.6252
 1010MOL0     H36313   3.320   0.987   4.409 -1.0290  0.9505 -1.6579
 1010MOL0     H36314   3.582   0.685   4.200 -0.6349 -0.7209 -0.8994
 1010MOL0     H36315   3.619   0.678   4.371 -0.1261 -0.9253 -0.2533
 1010MOL0     H36316   3.541   0.464   4.308 -0.6860 -0.4509 -3.0724
 1010MOL0     H36317   3.390   0.532   4.395  1.5660  3.0397  1.4858
 1010MOL0     H36318   3.281   0.569   4.169  0.5562  1.2822  1.9315
 1010MOL0     H36319   3.432   0.557   4.090 -2.5906 -2.6305 -3.5654
 1010MOL0     H36320   3.319   0.308   4.231 -2.0008 -1.8215 -2.4797
 1010MOL0     H36321   3.450   0.321   4.117 -0.1035 -1.2447  0.8117
 1010MOL0     H36322   3.282   0.421   3.948  1.8987 -1.5938 -1.1770
 1010MOL0     H36323   3.151   0.372   4.068  1.1333 -0.2158 -0.3262
 1010MOL0     H36324   3.279   0.131   4.045  1.1985  1.1807  0.7729
 1010MOL0     H36325   3.142   0.198   3.942 -0.8508  3.5402 -0.5914
 1010MOL0     H36326   3.410   0.130   3.878 -2.9460 -1.5461 -0.1530
 1010MOL0     H36327   3.368   0.285   3.799  2.8516 -1.2805 -1.9791
 1010MOL0     H36328   3.197   0.039   3.769  0.2094 -0.2806 -0.2074
 1010MOL0     H36329   3.187   0.202   3.693  0.1842 -0.4926 -1.9997
 1010MOL0     H36330   3.692   0.866   4.253 -0.5622  0.0072 -1.8273
 1010MOL0     H36331   3.756   1.102   4.218  0.2014 -1.7624 -0.1333
 1010MOL0     H36332   3.573   1.565   4.227  0.1164 -0.5332  1.9793
 1010MOL0     H36333   3.642   1.785   4.140 -0.7048 -1.2850 -0.0041
 1010MOL0     H36334   2.656   2.968   3.985 -0.6746 -0.0850  1.5060
 1010MOL0     H36335   2.493   3.159   3.969  0.4162  1.1794 -1.5196
 1010MOL0     H36336   2.316   3.470   3.909 -2.4217  0.7657 -1.1208
 1010MOL0     H36337   2.120   3.617   3.956 -0.2165  1.1479 -1.5243
 1010MOL0     H36338   1.989   3.954   4.050  0.2609  2.1811 -2.5456
 1010MOL0     H36339   2.033   3.791   4.090 -1.1569  2.2985  0.2180
 1010MOL0     H36340   1.929   3.706   3.880  2.0973  0.4240 -1.6114
 1010MOL0     H36341   1.934   3.855   3.802  3.2199 -0.6200  0.8968
 1010MOL0     H36342   1.750   3.942   3.922 -0.6040 -0.7496  0.0231
 1010MOL0     H36343   1.769   3.823   4.052 -0.7291 -0.3272 -0.3254
 1010MOL0     H36344   1.664   3.756   3.765 -1.1361 -0.6856 -0.4443
 1010MOL0     H36345   1.670   3.646   3.910 -1.8776 -0.5561  0.3770
 1010MOL0     H36346   1.341   3.897   3.971  1.6764  2.8096  1.2061
 1010MOL0     H36347   2.365   3.964   3.893  1.8183 -0.2324 -0.2765
 1010MOL0     H36348   2.678   3.797   3.946  0.9481  0.8416 -1.0142
 1010MOL0     H36349   2.642   3.845   3.773 -0.5320 -3.4488 -0.9506
 1010MOL0     H36350   2.595   3.946   3.916 -0.3541 -0.9871  2.3423
 1011MOL0     O36351   1.059   3.113   1.529  0.0322  0.6053 -0.3381
 1011MOL0     C36352   1.068   3.063   1.639 -0.0527 -0.2336  0.1780
 1011MOL0     O36353   1.042   2.930   1.667  0.2025 -0.2727 -0.3320
 1011MOL0     C36354   0.984   2.862   1.569  0.4910  0.0093  0.4562
 1011MOL0     C36355   0.863   2.895   1.507 -0.4408 -0.1154  1.2342
 1011MOL0     C36356   0.815   2.826   1.408  0.0827  0.2312 -0.6817
 1011MOL0     C36357   0.861   2.698   1.378 -0.2238  0.1784  0.3388
 1011MOL0     O36358   0.816   2.612   1.284  0.7767 -0.2052  0.1258
 1011MOL0     C36359   0.674   2.589   1.276 -0.8165 -0.4865 -1.1737
 1011MOL0     C36360   0.627   2.465   1.216  0.1239 -0.9508 -0.1022
 1011MOL0     C36361   0.474   2.436   1.253 -0.1647 -0.9824  0.8746
 1011MOL0     C36362   0.370   2.523   1.167 -0.4881 -0.3037 -0.5848
 1011MOL0     C36363   0.236   2.454   1.149 -0.8228  0.2016 -0.1457
 1011MOL0     C36364   0.126   2.466   1.262 -0.7440  1.1265 -0.6112
 1011MOL0     C36365   0.001   2.406   1.216  0.5695  0.3979  0.8017
 1011MOL0     C36366  -0.078   2.472   1.093  0.3199  0.5971 -0.1039
 1011MOL0     N36367  -0.211   2.411   1.096  0.1917 -0.3516  0.2779
 1011MOL0     C36368  -0.325   2.455   1.164  0.3811 -0.2952 -0.1555
 1011MOL0     C36369  -0.412   2.358   1.142  0.9320  0.2614  0.1560
 1011MOL0     C36370  -0.545   2.343   1.216  0.7702  0.9098  0.2849
 1011MOL0     C36371  -0.657   2.289   1.124  0.5721 -0.9325  0.2334
 1011MOL0     C36372  -0.787   2.335   1.190 -0.4573  0.1988  0.0205
 1011MOL0     C36373  -0.902   2.251   1.128 -0.3590  0.1599 -0.1122
 1011MOL0     O36374  -0.953   2.317   1.009 -0.0905  0.0748 -0.0065
 1011MOL0     C36375  -1.061   2.260   0.954  0.3974 -0.0600 -0.1789
 1011MOL0     C36376  -1.090   2.294   0.825  0.1207 -0.1989 -0.5004
 1011MOL0     C36377  -1.213   2.257   0.756 -1.0575 -0.2183  0.4814
 1011MOL0     C36378  -1.297   2.155   0.819  0.0579 -0.1773 -0.3846
 1011MOL0     C36379  -1.422   2.120   0.762 -0.3791  0.3896 -0.4268
 1011MOL0     O36380  -1.467   2.188   0.656 -0.0968  0.0905 -0.0515
 1011MOL0     C36381  -1.592   2.160   0.594 -1.0974  0.3135 -0.0586
 1011MOL0     C36382  -1.590   2.158   0.451 -0.1899 -0.5515 -0.2466
 1011MOL0     C36383  -1.709   2.142   0.372  0.2106  1.2836 -0.7605
 1011MOL0     C36384  -1.831   2.118   0.443  0.6582 -0.6143 -0.8622
 1011MOL0     O36385  -1.939   2.122   0.361 -0.3474  0.1364 -0.5422
 1011MOL0     C36386  -2.062   2.172   0.417  0.2193  0.0685 -0.7870
 1011MOL0     C36387  -2.149   2.173   0.300  0.5943  0.6386 -0.1998
 1011MOL0     C36388  -2.296   2.199   0.333  0.1730 -0.9807 -0.0296
 1011MOL0     C36389  -2.376   2.070   0.337  0.3544  0.4030 -0.5960
 1011MOL0     C36390  -2.525   2.095   0.373  0.7983 -0.1872 -0.1300
 1011MOL0     C36391  -2.616   1.965   0.352  0.7378  1.0834 -0.0365
 1011MOL0     C36392  -2.767   1.991   0.388 -0.1010  0.3540 -0.3184
 1011MOL0     C36393  -2.878   1.882   0.366  0.2273 -1.0744 -0.3386
 1011MOL0    Cl36394  -2.852   1.752   0.486  0.3317  0.1232  0.0468
 1011MOL0     C36395  -1.826   2.118   0.578  0.2723  0.0168  0.4184
 1011MOL0     C36396  -1.711   2.130   0.653 -0.4242  0.5809 -0.4530
 1011MOL0     O36397  -1.476   2.036   0.829 -0.3663 -0.7941 -0.4250
 1011MOL0     C36398  -1.248   2.108   0.938  0.2024  0.5633 -0.0707
 1011MOL0     C36399  -1.137   2.151   1.004  0.2056  1.1585 -0.4361
 1011MOL0     N36400  -0.355   2.256   1.075 -0.0729 -0.6794  0.1275
 1011MOL0     N36401  -0.233   2.290   1.045  0.1339  0.3951  0.0740
 1011MOL0     C36402   0.973   2.649   1.450 -0.2314 -0.1839 -0.5130
 1011MOL0     C36403   1.038   2.738   1.532  0.9592 -0.2835 -0.1983
 1011MOL0     C36404   1.121   3.142   1.750 -0.2874 -0.1498  0.7758
 1011MOL0     C36405   1.200   3.077   1.852 -0.2211 -0.5517  0.4383
 1011MOL0     C36406   1.244   3.137   1.964 -0.1654 -0.3194  0.1134
 1011MOL0     C36407   1.230   3.273   1.976 -0.2040 -0.2665  0.4136
 1011MOL0     O36408   1.264   3.330   2.101  0.2927 -0.3613 -0.2452
 1011MOL0     C36409   1.413   3.351   2.118  0.1486 -0.0035 -0.0696
 1011MOL0     C36410   1.453   3.496   2.092  0.3684 -0.6598  1.0128
 1011MOL0     C36411   1.365   3.592   2.172 -0.0569 -0.7000  0.1535
 1011MOL0     C36412   1.413   3.738   2.166  0.4631 -0.4137  0.8353
 1011MOL0     C36413   1.533   3.752   2.248  0.1716 -0.3524  0.6418
 1011MOL0     C36414   1.630   3.762   2.315 -0.0712 -0.0982 -0.2654
 1011MOL0     C36415   1.169   3.346   1.871  0.2073  0.0983  0.6819
 1011MOL0     C36416   1.117   3.285   1.762  0.5654  1.3408 -0.3276
 1011MOL0     C36417   1.041   3.373   1.671  0.3412 -0.0356  0.1815
 1011MOL0     H36418   0.824   2.990   1.543  1.8709  0.5987  1.9951
 1011MOL0     H36419   0.725   2.854   1.354 -0.3595 -1.2907 -0.7614
 1011MOL0     H36420   0.635   2.602   1.377 -0.5912  7.6673 -1.4962
 1011MOL0     H36421   0.634   2.677   1.225  2.4139  2.3654  0.8029
 1011MOL0     H36422   0.691   2.385   1.254 -1.4045 -1.6175  1.1870
 1011MOL0     H36423   0.634   2.470   1.107 -2.8128  3.4889 -0.3551
 1011MOL0     H36424   0.457   2.455   1.359 -0.9431  4.3170  0.1057
 1011MOL0     H36425   0.466   2.327   1.250  0.8281 -1.0701  1.0040
 1011MOL0     H36426   0.350   2.619   1.216 -0.2054  0.8461 -2.6057
 1011MOL0     H36427   0.420   2.556   1.075  2.1000  5.3457  2.3481
 1011MOL0     H36428   0.183   2.499   1.065 -2.4005 -1.1685  0.0707
 1011MOL0     H36429   0.270   2.352   1.128  0.3592  0.3120  1.0756
 1011MOL0     H36430   0.160   2.418   1.354  1.3975 -1.0370 -2.4141
 1011MOL0     H36431   0.118   2.574   1.282 -0.7204  0.9703  0.2952
 1011MOL0     H36432  -0.075   2.422   1.293 -1.0564  1.4718 -0.9476
 1011MOL0     H36433   0.013   2.298   1.205 -3.5726  0.0149 -2.6291
 1011MOL0     H36434  -0.081   2.581   1.097  1.4039  0.6108  0.7059
 1011MOL0     H36435  -0.036   2.431   1.001  0.0924  0.3403 -0.0970
 1011MOL0     H36436  -0.350   2.549   1.212 -0.0476 -1.0912  1.2458
 1011MOL0     H36437  -0.529   2.280   1.304  0.6861 -0.5993 -0.7335
 1011MOL0     H36438  -0.584   2.441   1.245 -2.7269  0.4003 -2.0859
 1011MOL0     H36439  -0.654   2.324   1.021 -0.4377  0.0899  0.5266
 1011MOL0     H36440  -0.649   2.180   1.132  1.1252 -0.8874  0.2919
 1011MOL0     H36441  -0.808   2.437   1.158 -1.3661 -0.5054 -1.7857
 1011MOL0     H36442  -0.786   2.320   1.298 -0.2265 -3.4629 -0.3468
 1011MOL0     H36443  -0.982   2.257   1.202  0.2037  1.3138  0.4279
 1011MOL0     H36444  -0.891   2.145   1.106 -1.3859 -0.5658  2.5094
 1011MOL0     H36445  -1.024   2.367   0.781 -0.8672 -0.3091 -2.2795
 1011MOL0     H36446  -1.235   2.313   0.666  2.2837  4.2774  2.1050
 1011MOL0     H36447  -1.496   2.164   0.396 -0.4429 -1.3249 -0.7801
 1011MOL0     H36448  -1.705   2.142   0.263  1.1550  2.0861 -0.7421
 1011MOL0     H36449  -2.110   2.112   0.494  0.6151 -1.2441 -1.5387
 1011MOL0     H36450  -2.042   2.276   0.445 -1.0279  0.6125 -1.7921
 1011MOL0     H36451  -2.116   2.255   0.235  1.1888 -0.5746 -1.4785
 1011MOL0     H36452  -2.141   2.075   0.252  0.7134  0.8955 -0.7107
 1011MOL0     H36453  -2.305   2.254   0.427 -1.5738 -1.6046  0.2043
 1011MOL0     H36454  -2.356   2.258   0.263  0.8122  1.3103  1.2374
 1011MOL0     H36455  -2.335   1.993   0.402 -0.7775 -3.3935 -3.9236
 1011MOL0     H36456  -2.362   2.035   0.234 -1.2285  1.6812 -1.2946
 1011MOL0     H36457  -2.562   2.168   0.302  0.0185 -1.8233 -1.4873
 1011MOL0     H36458  -2.525   2.129   0.477  0.1909 -3.3074  1.0107
 1011MOL0     H36459  -2.603   1.936   0.248  2.7603 -2.1393  0.9448
 1011MOL0     H36460  -2.576   1.884   0.414  0.8330  1.1249 -0.0435
 1011MOL0     H36461  -2.788   2.064   0.310 -1.9379  0.9953  0.7187
 1011MOL0     H36462  -2.775   2.038   0.487 -2.8014  1.7148 -1.0764
 1011MOL0     H36463  -2.972   1.935   0.384  0.6954 -0.2791 -0.2283
 1011MOL0     H36464  -2.883   1.835   0.267  0.2826  2.0245 -1.9326
 1011MOL0     H36465  -1.918   2.101   0.634  1.8642 -0.8653  2.9621
 1011MOL0     H36466  -1.717   2.132   0.761  1.3759  2.1749 -0.3168
 1011MOL0     H36467  -1.289   2.013   0.971  1.3758  0.1866  0.3519
 1011MOL0     H36468  -1.103   2.097   1.092 -2.5323  1.0939  0.6565
 1011MOL0     H36469   1.012   2.548   1.442 -0.2978 -0.4121  1.5030
 1011MOL0     H36470   1.129   2.704   1.579  1.0546  1.8453  1.2694
 1011MOL0     H36471   1.216   2.970   1.844  1.8276 -0.5495  3.1769
 1011MOL0     H36472   1.286   3.067   2.036 -0.6450 -4.7234 -3.4345
 1011MOL0     H36473   1.461   3.296   2.037 -1.0420  0.7821 -1.3510
 1011MOL0     H36474   1.453   3.307   2.210 -1.3798 -0.1119  0.5829
 1011MOL0     H36475   1.442   3.511   1.984  0.1116  0.5561  1.1977
 1011MOL0     H36476   1.561   3.513   2.098  0.2114  1.8923 -1.4724
 1011MOL0     H36477   1.377   3.564   2.277  2.5177  0.1769  0.1832
 1011MOL0     H36478   1.264   3.592   2.132  0.3878 -0.7369 -1.0013
 1011MOL0     H36479   1.437   3.761   2.061 -0.4241 -0.5394  0.6006
 1011MOL0     H36480   1.330   3.807   2.185 -0.7480 -0.2936 -3.6502
 1011MOL0     H36481   1.713   3.759   2.382 -0.6958  2.1379  0.7194
 1011MOL0     H36482   1.152   3.452   1.886 -2.8099 -0.2341  0.2570
 1011MOL0     H36483   1.092   3.398   1.577  0.1514  0.9381  0.3193
 1011MOL0     H36484   0.948   3.328   1.635  2.3623 -3.2611 -1.4086
 1011MOL0     H36485   1.014   3.467   1.720 -1.7926  0.0669 -1.0308
 1012MOL0     O36486   7.598   3.622   0.777  0.3256  0.3541  0.1733
 1012MOL0     C36487   7.575   3.640   0.654 -0.1986  0.8240  0.0962
 1012MOL0     O36488   7.505   3.745   0.603  0.1336  0.3547 -0.1675
 1012MOL0     C36489   7.465   3.845   0.680 -0.1098 -0.4491 -0.3205
 1012MOL0     C36490   7.516   3.908   0.795  0.6774  0.5458 -0.0930
 1012MOL0     C36491   7.469   4.030   0.851  0.3504  0.3254  0.1245
 1012MOL0     C36492   7.356   4.093   0.802 -0.2008  0.2004  0.3325
 1012MOL0     O36493   7.288   4.197   0.854  0.0959  0.1718 -0.4109
 1012MOL0     C36494   7.307   4.214   0.993  0.0538 -0.5919 -0.1316
 1012MOL0     C36495   7.191   4.272   1.083 -1.0872  0.4919 -0.0450
 1012MOL0     C36496   7.159   4.418   1.044  0.0542  0.4207  0.8917
 1012MOL0     C36497   7.029   4.458   1.111 -0.1808  0.4498  0.0643
 1012MOL0     C36498   7.035   4.610   1.130 -0.1881 -0.0316 -0.2372
 1012MOL0     C36499   6.905   4.680   1.139  0.3079 -0.3180  0.2302
 1012MOL0     C36500   6.932   4.832   1.156 -1.0858  0.1423  0.1257
 1012MOL0     C36501   6.812   4.916   1.167 -0.7464  0.1241  0.7057
 1012MOL0     N36502   6.767   4.934   1.311  1.1994 -0.2921  0.5253
 1012MOL0     C36503   6.758   5.060   1.377  0.1173  0.9440  0.9259
 1012MOL0     C36504   6.725   5.030   1.498  1.6717  0.3659 -1.0428
 1012MOL0     C36505   6.717   5.119   1.618 -0.2943 -0.0381 -0.2381
 1012MOL0     C36506   6.644   5.245   1.605 -0.5636 -0.5651 -1.2783
 1012MOL0     C36507   6.701   5.351   1.502  0.0768  0.3461  0.0565
 1012MOL0     C36508   6.640   5.495   1.513 -0.0650 -1.2616 -0.3584
 1012MOL0     O36509   6.729   5.576   1.597  0.0638  0.6547  0.2563
 1012MOL0     C36510   6.840   5.648   1.554  0.0103  0.5384 -0.0046
 1012MOL0     C36511   6.883   5.755   1.626  0.2558 -0.0615 -0.4492
 1012MOL0     C36512   6.988   5.836   1.584  0.3961 -0.9313 -0.9467
 1012MOL0     C36513   7.062   5.802   1.470  0.6521 -0.6184 -1.0096
 1012MOL0     C36514   7.192   5.872   1.442 -0.6822  0.7570 -0.7427
 1012MOL0     O36515   7.254   5.840   1.327 -0.3220 -0.0914 -0.1819
 1012MOL0     C36516   7.380   5.895   1.299  0.1075 -0.4896 -0.7618
 1012MOL0     C36517   7.398   5.979   1.193  0.2693  0.0644 -1.2121
 1012MOL0     C36518   7.532   6.013   1.153  0.0326  0.2368 -0.1630
 1012MOL0     C36519   7.645   5.963   1.218 -0.4453  0.4057 -1.1712
 1012MOL0     O36520   7.766   5.985   1.165  0.0706 -0.9580  0.9917
 1012MOL0     C36521   7.891   5.929   1.214 -0.0484 -0.9160  0.0766
 1012MOL0     C36522   7.891   5.772   1.213 -1.2109  0.4079  0.1844
 1012MOL0     C36523   7.878   5.719   1.071  0.0069  1.1154  0.3507
 1012MOL0     C36524   7.898   5.568   1.067  0.7316 -0.1429 -0.1769
 1012MOL0     C36525   7.917   5.527   0.924  0.0410  0.4312 -0.8849
 1012MOL0     C36526   7.938   5.370   0.923  0.5898  0.1574  0.4667
 1012MOL0     C36527   7.955   5.323   0.782 -0.7822  0.4858 -0.3623
 1012MOL0     C36528   7.921   5.177   0.777  0.1565  0.8088  0.1093
 1012MOL0    Cl36529   7.933   5.122   0.602 -0.1991  0.2558 -0.1147
 1012MOL0     C36530   7.621   5.917   1.349 -0.2305  0.0095 -0.0724
 1012MOL0     C36531   7.495   5.883   1.391  0.4617 -0.1983 -0.2630
 1012MOL0     O36532   7.218   5.952   1.532 -0.7567  0.0644 -0.0466
 1012MOL0     C36533   7.017   5.699   1.392  0.4383  0.1018 -0.5327
 1012MOL0     C36534   6.910   5.617   1.434 -0.0543 -1.3606  0.9671
 1012MOL0     N36535   6.700   4.894   1.507  0.7461 -0.3118  0.1312
 1012MOL0     N36536   6.723   4.836   1.394 -0.3617 -0.4041  0.6192
 1012MOL0     C36537   7.301   4.038   0.689 -0.1715  0.2547  0.2119
 1012MOL0     C36538   7.351   3.917   0.629 -0.8446  0.2011 -0.4881
 1012MOL0     C36539   7.612   3.532   0.552 -0.1633 -1.0466  0.5239
 1012MOL0     C36540   7.556   3.544   0.417  0.3066  0.5534 -0.1001
 1012MOL0     C36541   7.577   3.440   0.328  0.1288  0.2770  0.7113
 1012MOL0     C36542   7.655   3.331   0.360  1.3275 -0.1877  0.2843
 1012MOL0     O36543   7.663   3.234   0.262  0.1754  0.2506 -0.4481
 1012MOL0     C36544   7.778   3.143   0.276  0.0414 -0.1575  0.9051
 1012MOL0     C36545   7.832   3.073   0.152 -0.2986  0.1720 -0.2852
 1012MOL0     C36546   7.951   2.978   0.183 -0.1664  0.8386 -0.4171
 1012MOL0     C36547   7.924   2.829   0.173 -0.4342 -0.2063  0.0619
 1012MOL0     C36548   7.884   2.792   0.036 -0.6697 -0.3310 -0.2950
 1012MOL0     C36549   7.854   2.767  -0.081 -0.8606 -0.4814 -1.6631
 1012MOL0     C36550   7.715   3.329   0.483  0.4747  0.1453  0.1186
 1012MOL0     C36551   7.697   3.429   0.576  0.8590 -0.2866 -1.6342
 1012MOL0     C36552   7.795   3.417   0.700  0.1234 -0.5733 -1.2313
 1012MOL0     H36553   7.601   3.870   0.849  0.2550  1.8039  1.5166
 1012MOL0     H36554   7.528   4.056   0.939  2.0610  0.6693 -1.0722
 1012MOL0     H36555   7.328   4.116   1.038  0.3274 -1.6764 -2.4905
 1012MOL0     H36556   7.391   4.282   1.008  0.3080 -1.3675  2.5677
 1012MOL0     H36557   7.222   4.272   1.188  0.2997  1.8380 -0.4148
 1012MOL0     H36558   7.106   4.203   1.079  0.6114 -2.2210  3.8616
 1012MOL0     H36559   7.156   4.425   0.935 -2.1353  0.3733  0.9065
 1012MOL0     H36560   7.244   4.484   1.063 -0.3883  1.0980  0.5578
 1012MOL0     H36561   6.943   4.439   1.046  2.1939 -0.4506 -3.0995
 1012MOL0     H36562   7.018   4.398   1.202 -0.6322 -0.0759 -0.3210
 1012MOL0     H36563   7.092   4.632   1.221 -0.0333 -2.0454  0.2143
 1012MOL0     H36564   7.089   4.650   1.044 -1.2473 -0.6741 -1.2276
 1012MOL0     H36565   6.842   4.651   1.055  0.7147  1.0308 -0.5717
 1012MOL0     H36566   6.856   4.640   1.228 -0.9489 -2.3360 -1.2811
 1012MOL0     H36567   6.980   4.865   1.063 -0.9869 -1.7693 -0.5434
 1012MOL0     H36568   6.993   4.846   1.245  2.5967 -1.4118 -1.9304
 1012MOL0     H36569   6.834   5.017   1.131 -0.3168 -1.4280 -4.0853
 1012MOL0     H36570   6.736   4.871   1.103 -0.3290 -2.1008  1.6908
 1012MOL0     H36571   6.783   5.153   1.326 -0.1881  0.3183 -0.3995
 1012MOL0     H36572   6.680   5.056   1.699 -1.1154  1.0446  0.2426
 1012MOL0     H36573   6.822   5.139   1.642  0.0806 -1.3202 -0.6764
 1012MOL0     H36574   6.546   5.214   1.566 -0.6078 -1.1262 -0.7454
 1012MOL0     H36575   6.638   5.292   1.703 -2.5411  0.6245 -1.9089
 1012MOL0     H36576   6.674   5.309   1.405  1.3391  1.3662 -0.7830
 1012MOL0     H36577   6.810   5.361   1.498  0.0051  1.1124 -3.6935
 1012MOL0     H36578   6.537   5.500   1.548 -1.3688  2.7821 -3.9334
 1012MOL0     H36579   6.626   5.541   1.415  0.7768  0.2803  0.2095
 1012MOL0     H36580   6.840   5.767   1.725 -0.0660 -2.7524 -0.1905
 1012MOL0     H36581   7.015   5.921   1.647  0.5953 -0.4381 -1.6903
 1012MOL0     H36582   7.321   6.011   1.123  0.8260  1.6625 -1.1408
 1012MOL0     H36583   7.552   6.088   1.077  1.3990 -0.2893 -0.3450
 1012MOL0     H36584   7.966   5.959   1.141  0.1268 -1.3750  0.0629
 1012MOL0     H36585   7.914   5.981   1.307  1.7181  1.7300 -1.7233
 1012MOL0     H36586   7.975   5.730   1.270 -1.3410 -0.1959 -0.0543
 1012MOL0     H36587   7.807   5.730   1.269 -0.2133 -1.6622  0.2531
 1012MOL0     H36588   7.782   5.748   1.028 -1.5511 -1.5610  1.7500
 1012MOL0     H36589   7.951   5.764   1.003  2.1790 -0.9116  1.2239
 1012MOL0     H36590   7.805   5.522   1.103  2.1435 -0.6016  3.2675
 1012MOL0     H36591   7.981   5.534   1.129  2.4707 -2.4638 -3.4667
 1012MOL0     H36592   8.017   5.564   0.902  0.0851  0.8926  0.0328
 1012MOL0     H36593   7.841   5.571   0.858 -1.2057  1.2439  1.0219
 1012MOL0     H36594   8.029   5.347   0.980  2.0727  1.9048 -1.0851
 1012MOL0     H36595   7.849   5.323   0.966  0.6714  1.3344  2.0238
 1012MOL0     H36596   8.061   5.326   0.752 -0.9425  2.1220 -0.8709
 1012MOL0     H36597   7.895   5.383   0.712  0.7257  2.3447 -0.1543
 1012MOL0     H36598   7.985   5.122   0.847 -1.7436 -1.9337 -0.1389
 1012MOL0     H36599   7.819   5.154   0.808  0.8730  0.4857  2.3918
 1012MOL0     H36600   7.708   5.903   1.413  1.5468  2.4897 -1.7330
 1012MOL0     H36601   7.471   5.827   1.480 -2.0497  1.4530  0.1848
 1012MOL0     H36602   7.062   5.677   1.296 -0.2221 -0.4387 -0.7292
 1012MOL0     H36603   6.894   5.529   1.374 -1.0469 -0.5457 -0.0138
 1012MOL0     H36604   7.223   4.090   0.635 -0.5280 -0.7250 -0.2437
 1012MOL0     H36605   7.314   3.870   0.539  2.4042 -1.7478 -0.9787
 1012MOL0     H36606   7.511   3.638   0.385 -5.4821 -2.2221 -1.3915
 1012MOL0     H36607   7.553   3.440   0.222  1.0754  0.1674  0.4888
 1012MOL0     H36608   7.757   3.077   0.361 -0.7260  0.1100  0.9325
 1012MOL0     H36609   7.864   3.197   0.318  0.0546 -1.4601  2.6798
 1012MOL0     H36610   7.870   3.153   0.088 -0.5063  0.5960  0.1123
 1012MOL0     H36611   7.753   3.020   0.098 -0.5631  0.5238 -0.2501
 1012MOL0     H36612   7.992   2.999   0.282  0.9486 -1.1309 -0.3860
 1012MOL0     H36613   8.031   2.992   0.110 -1.0050 -0.2478 -1.6056
 1012MOL0     H36614   8.020   2.783   0.198  0.2446  2.3207  2.6775
 1012MOL0     H36615   7.843   2.787   0.233 -2.4663  1.2195 -1.4853
 1012MOL0     H36616   7.832   2.752  -0.184 -0.2985 -1.2937 -1.6726
 1012MOL0     H36617   7.771   3.243   0.515  0.2653 -0.4392 -1.0296
 1012MOL0     H36618   7.872   3.494   0.697 -0.5290  0.0826 -1.4021
 1012MOL0     H36619   7.739   3.420   0.794 -0.1622 -3.0013 -1.2469
 1012MOL0     H36620   7.848   3.321   0.702  0.9253 -0.2888  3.6592
 1013MOL0     O36621   3.564   9.336   3.972 -0.7625 -0.0166 -0.4198
 1013MOL0     C36622   3.686   9.349   3.994  0.2456 -1.2551 -0.9456
 1013MOL0     O36623   3.755   9.468   3.971 -0.3668 -0.5639  0.0292
 1013MOL0     C36624   3.678   9.574   3.941 -0.3455 -0.0485 -0.1667
 1013MOL0     C36625   3.622   9.660   4.044 -0.1161  0.0896 -0.2494
 1013MOL0     C36626   3.555   9.777   4.012  0.5471 -0.2373 -0.3138
 1013MOL0     C36627   3.561   9.823   3.883  0.5257  0.0925  0.1740
 1013MOL0     O36628   3.512   9.944   3.847  0.5609  0.3278  0.1603
 1013MOL0     C36629   3.444  10.018   3.945 -0.2413 -0.1993 -0.7671
 1013MOL0     C36630   3.377  10.136   3.880  0.1070 -0.9392 -0.7671
 1013MOL0     C36631   3.247  10.103   3.802 -0.4193  0.3240  0.1218
 1013MOL0     C36632   3.189  10.234   3.752 -0.4687  0.1192 -1.0759
 1013MOL0     C36633   3.062  10.210   3.685  0.5937  0.2203  0.5493
 1013MOL0     C36634   3.004  10.347   3.656  0.7870 -0.8618  0.1079
 1013MOL0     C36635   2.878  10.334   3.575  1.0288 -0.2828 -0.1880
 1013MOL0     C36636   2.909  10.290   3.435  0.1543 -0.6622  0.2917
 1013MOL0     N36637   2.793  10.261   3.356  0.3081 -0.6119 -0.0050
 1013MOL0     C36638   2.761  10.137   3.304 -1.0322  0.2104 -0.0024
 1013MOL0     C36639   2.668  10.156   3.215 -0.4579 -0.6765 -0.6463
 1013MOL0     C36640   2.645  10.042   3.131  0.2377  0.0596 -0.1131
 1013MOL0     C36641   2.598   9.917   3.203 -0.2030  0.0233  0.4351
 1013MOL0     C36642   2.467   9.936   3.281  0.1140  0.1648 -0.2090
 1013MOL0     C36643   2.388   9.810   3.326 -1.1947 -0.1888 -0.0864
 1013MOL0     O36644   2.365   9.715   3.226 -0.2159  0.1565 -0.3972
 1013MOL0     C36645   2.281   9.606   3.241  0.0956  0.5026 -0.4805
 1013MOL0     C36646   2.226   9.570   3.363 -0.4656  0.5522  0.5957
 1013MOL0     C36647   2.148   9.456   3.384 -0.7241  0.1420  0.1989
 1013MOL0     C36648   2.120   9.374   3.270  0.8298 -0.0447  0.4378
 1013MOL0     C36649   2.059   9.247   3.283 -0.1906  1.4803  0.0518
 1013MOL0     O36650   2.014   9.224   3.411  0.3947  0.8243  0.4094
 1013MOL0     C36651   1.936   9.107   3.422 -0.3621 -0.4134 -0.3341
 1013MOL0     C36652   1.999   9.000   3.478  0.0416  0.3760 -0.1195
 1013MOL0     C36653   1.924   8.885   3.516 -0.2386 -0.0135 -0.1080
 1013MOL0     C36654   1.783   8.875   3.492  0.2002 -0.4702 -0.5092
 1013MOL0     O36655   1.726   8.771   3.548 -0.1015  0.0266  0.8731
 1013MOL0     C36656   1.582   8.770   3.557  0.7575  0.5167 -0.4383
 1013MOL0     C36657   1.528   8.667   3.652 -0.9880  0.3564 -0.3881
 1013MOL0     C36658   1.374   8.633   3.645 -0.7404 -0.4995 -0.3118
 1013MOL0     C36659   1.291   8.762   3.628 -1.0577  0.4529 -0.2357
 1013MOL0     C36660   1.142   8.728   3.608  0.1787 -0.0963  0.2074
 1013MOL0     C36661   1.050   8.854   3.609  0.4059  1.0831  0.6662
 1013MOL0     C36662   1.070   8.958   3.496  0.3833  0.7825 -0.1641
 1013MOL0     C36663   1.025   9.094   3.534 -0.1930 -0.9513  0.0789
 1013MOL0    Cl36664   1.143   9.166   3.659  0.1932  0.1094  0.1628
 1013MOL0     C36665   1.723   8.989   3.431  0.3080  0.2513 -0.5234
 1013MOL0     C36666   1.796   9.102   3.392  0.7867 -0.1458 -0.7779
 1013MOL0     O36667   2.047   9.174   3.189  0.1839  0.2235  0.3637
 1013MOL0     C36668   2.177   9.408   3.141 -0.4101  0.5660 -0.1189
 1013MOL0     C36669   2.256   9.518   3.132 -0.4357  0.7025 -0.0109
 1013MOL0     N36670   2.620  10.284   3.229  0.6426  0.3378 -0.1632
 1013MOL0     N36671   2.704  10.347   3.303  0.6400 -0.3941  0.1141
 1013MOL0     C36672   3.615   9.745   3.781  0.4486  0.1842  0.5405
 1013MOL0     C36673   3.675   9.621   3.805  0.1051  0.1075 -0.2246
 1013MOL0     C36674   3.768   9.237   4.043  1.0217 -0.5371 -0.3219
 1013MOL0     C36675   3.911   9.237   4.019  0.0683  0.6537  0.4693
 1013MOL0     C36676   3.990   9.133   4.068 -0.0199  0.7510  0.1474
 1013MOL0     C36677   3.918   9.025   4.140 -0.6080 -0.5494  0.7563
 1013MOL0     O36678   3.989   8.906   4.148  0.1402 -0.8076 -0.0221
 1013MOL0     C36679   3.962   8.809   4.255 -0.2647  0.5769  0.8597
 1013MOL0     C36680   4.066   8.698   4.239  0.3477  0.6976  0.1431
 1013MOL0     C36681   4.044   8.605   4.120  0.0475 -0.0322 -0.3290
 1013MOL0     C36682   3.933   8.499   4.153 -0.4562 -0.2450 -0.1885
 1013MOL0     C36683   3.925   8.416   4.032 -0.2778 -0.2004  0.4695
 1013MOL0     C36684   3.921   8.334   3.942  0.9838  0.3288  0.3820
 1013MOL0     C36685   3.787   9.045   4.180  1.0841  1.1327  0.2900
 1013MOL0     C36686   3.711   9.148   4.132  0.2397  0.0016  0.5643
 1013MOL0     C36687   3.563   9.161   4.181 -0.1292 -0.6097  0.2920
 1013MOL0     H36688   3.617   9.625   4.146  2.9659  1.6305  0.5409
 1013MOL0     H36689   3.523   9.838   4.095  2.0733  0.6143 -0.3122
 1013MOL0     H36690   3.369   9.966   4.005 -0.5614 -1.5270 -2.2684
 1013MOL0     H36691   3.521  10.052   4.014 -0.7082 -0.2162 -0.2247
 1013MOL0     H36692   3.445  10.181   3.807  0.8746  1.8541  1.5268
 1013MOL0     H36693   3.357  10.205   3.962  2.5145  0.6278 -1.3884
 1013MOL0     H36694   3.180  10.064   3.880  1.8965 -2.1131  1.0413
 1013MOL0     H36695   3.269  10.042   3.714  1.3430  0.3042  0.5553
 1013MOL0     H36696   3.171  10.305   3.833 -1.2165 -0.2094 -0.9495
 1013MOL0     H36697   3.266  10.286   3.694 -2.1222  3.0986 -0.7503
 1013MOL0     H36698   3.069  10.143   3.599  1.9530 -0.9282  1.4959
 1013MOL0     H36699   2.990  10.153   3.744  2.7064 -2.9125  0.3341
 1013MOL0     H36700   2.986  10.398   3.751 -3.8589  0.2915 -1.1424
 1013MOL0     H36701   3.068  10.411   3.594  0.4923  2.3830  2.8915
 1013MOL0     H36702   2.815  10.423   3.577  2.4691  0.7653  0.0903
 1013MOL0     H36703   2.816  10.253   3.615 -1.3048  0.4877 -2.0080
 1013MOL0     H36704   2.971  10.361   3.379 -0.5695 -1.4282 -1.5689
 1013MOL0     H36705   2.953  10.190   3.440 -2.3958 -1.9496 -0.8126
 1013MOL0     H36706   2.809  10.043   3.328  0.1667  1.2471  1.9440
 1013MOL0     H36707   2.574  10.075   3.055  1.1939  0.7148 -0.7370
 1013MOL0     H36708   2.737  10.017   3.078  0.7775  1.5341  0.0837
 1013MOL0     H36709   2.565   9.858   3.116 -3.1546  1.8450  0.1824
 1013MOL0     H36710   2.667   9.849   3.254 -1.5253 -0.5875  1.4791
 1013MOL0     H36711   2.395   9.991   3.221  1.3439  2.5412  0.3616
 1013MOL0     H36712   2.481  10.000   3.369 -0.8750  0.0192  0.0639
 1013MOL0     H36713   2.285   9.824   3.359 -1.5026 -2.2852 -0.0479
 1013MOL0     H36714   2.450   9.762   3.402  1.7942  2.3960 -0.6683
 1013MOL0     H36715   2.235   9.624   3.456  0.5187  0.4604  0.5658
 1013MOL0     H36716   2.112   9.440   3.485  1.0914 -0.2218  0.8309
 1013MOL0     H36717   2.103   9.012   3.503  0.4734 -2.4419 -0.1948
 1013MOL0     H36718   1.976   8.797   3.554 -0.9694  0.0578  1.1064
 1013MOL0     H36719   1.539   8.862   3.598 -0.9365 -1.0793  1.6154
 1013MOL0     H36720   1.549   8.762   3.453  4.6577 -2.5664 -1.6816
 1013MOL0     H36721   1.578   8.573   3.629 -1.0129  0.5050 -1.0519
 1013MOL0     H36722   1.553   8.701   3.753  1.1023 -0.5139 -0.5696
 1013MOL0     H36723   1.355   8.560   3.566  0.4020 -2.4392  1.1150
 1013MOL0     H36724   1.350   8.591   3.744 -1.0700 -1.4201 -0.7770
 1013MOL0     H36725   1.322   8.793   3.528 -1.9761 -1.6875 -1.2519
 1013MOL0     H36726   1.302   8.823   3.718 -1.5908 -1.2860  1.0562
 1013MOL0     H36727   1.117   8.668   3.695  0.0246  1.9191  1.6168
 1013MOL0     H36728   1.125   8.679   3.511 -0.0772 -3.4432  1.8068
 1013MOL0     H36729   0.944   8.826   3.611  0.3787  1.2455  1.9771
 1013MOL0     H36730   1.071   8.894   3.709 -0.3044 -0.6033  1.5299
 1013MOL0     H36731   1.015   8.938   3.404  2.1074  0.1033 -1.1104
 1013MOL0     H36732   1.176   8.958   3.467  0.5358  1.0036  0.3706
 1013MOL0     H36733   1.033   9.166   3.451  0.6127  2.5295  2.9266
 1013MOL0     H36734   0.930   9.078   3.585  0.2788 -0.6549  1.0670
 1013MOL0     H36735   1.615   8.985   3.414  0.4892  1.6120 -2.2255
 1013MOL0     H36736   1.761   9.185   3.332 -1.4320 -1.3752 -1.2974
 1013MOL0     H36737   2.181   9.341   3.056  1.1620  2.2462 -1.4592
 1013MOL0     H36738   2.312   9.542   3.043 -1.1936  3.4356  0.1537
 1013MOL0     H36739   3.608   9.789   3.682  0.1782 -1.4922 -0.2362
 1013MOL0     H36740   3.736   9.552   3.746  2.3251  0.4949  1.4820
 1013MOL0     H36741   3.958   9.311   3.955  0.1075  1.1270  1.0342
 1013MOL0     H36742   4.094   9.122   4.039  0.0074  0.2564  0.4229
 1013MOL0     H36743   3.865   8.762   4.236 -0.1192 -1.3223  4.0798
 1013MOL0     H36744   3.946   8.843   4.358 -2.8959  3.1783 -0.2525
 1013MOL0     H36745   4.076   8.638   4.330  0.5694 -0.3799 -0.5774
 1013MOL0     H36746   4.153   8.759   4.213 -0.5086  2.0374  0.2922
 1013MOL0     H36747   4.137   8.551   4.102  0.2141  0.4769 -1.0201
 1013MOL0     H36748   4.014   8.659   4.029 -0.0410 -0.3644 -0.5002
 1013MOL0     H36749   3.971   8.445   4.240 -2.1055 -0.3737  0.4802
 1013MOL0     H36750   3.835   8.543   4.169 -0.6723 -1.1480  1.0575
 1013MOL0     H36751   3.926   8.251   3.874  1.7158 -0.4977  1.4169
 1013MOL0     H36752   3.744   8.973   4.248  2.2252  1.0351  0.9368
 1013MOL0     H36753   3.552   9.260   4.227 -0.7711 -1.4140  1.9345
 1013MOL0     H36754   3.503   9.142   4.092  1.2341  0.4542 -0.9029
 1013MOL0     H36755   3.524   9.088   4.253 -0.4738 -2.4696 -1.6765
 1014MOL0     O36756   6.579   9.780  10.988 -0.0239  0.1976 -0.4025
 1014MOL0     C36757   6.685   9.747  11.044 -1.0299 -0.6618 -0.4411
 1014MOL0     O36758   6.785   9.838  11.073  0.6492 -0.0561 -0.0791
 1014MOL0     C36759   6.783   9.952  10.997  0.0141 -0.3661 -0.2429
 1014MOL0     C36760   6.817   9.948  10.856 -1.0063  0.5940 -0.6846
 1014MOL0     C36761   6.813  10.069  10.783  0.2682  0.6676 -0.1011
 1014MOL0     C36762   6.760  10.191  10.837 -0.7822 -0.2566 -0.6576
 1014MOL0     O36763   6.744  10.305  10.760 -0.0608 -0.2356 -0.5328
 1014MOL0     C36764   6.638  10.396  10.798 -0.6507  0.5874 -0.0460
 1014MOL0     C36765   6.610  10.498  10.698  0.0486  0.0449 -1.0598
 1014MOL0     C36766   6.564  10.434  10.566  0.0285  1.2110 -0.7498
 1014MOL0     C36767   6.529  10.534  10.454  0.6922 -1.0820  0.5742
 1014MOL0     C36768   6.537  10.490  10.308  1.2694 -0.6451 -1.0791
 1014MOL0     C36769   6.680  10.443  10.265  0.1608  0.1302  0.2356
 1014MOL0     C36770   6.692  10.339  10.153  0.3856  0.1131 -0.6372
 1014MOL0     C36771   6.813  10.261  10.165 -0.4610 -0.1887  0.1093
 1014MOL0     N36772   6.787  10.148  10.257  0.6325 -0.2069 -0.7451
 1014MOL0     C36773   6.727  10.033  10.223  0.2735  0.4705  0.4835
 1014MOL0     C36774   6.711   9.968  10.339  0.0830  0.1286  0.2132
 1014MOL0     C36775   6.634   9.845  10.361  0.1435 -0.3897 -1.2163
 1014MOL0     C36776   6.576   9.836  10.499 -0.4635  0.0331 -1.1054
 1014MOL0     C36777   6.452   9.910  10.547  0.4635  0.1426 -0.0298
 1014MOL0     C36778   6.482  10.061  10.580 -0.1825 -1.1513  0.5105
 1014MOL0     O36779   6.370  10.128  10.639 -0.7310 -0.8127 -0.1144
 1014MOL0     C36780   6.345  10.104  10.777 -0.3970  0.8775  0.3267
 1014MOL0     C36781   6.435  10.064  10.877  0.9474 -0.1507  0.0409
 1014MOL0     C36782   6.391  10.050  11.007  0.7657  0.1609 -0.7572
 1014MOL0     C36783   6.266  10.089  11.046  0.4248  0.8764  0.4895
 1014MOL0     C36784   6.213  10.086  11.178  0.6612 -0.3531 -0.2722
 1014MOL0     O36785   6.310  10.096  11.283  0.1864  0.2231 -0.0727
 1014MOL0     C36786   6.253  10.109  11.403  1.4451  0.4363 -0.4395
 1014MOL0     C36787   6.147  10.203  11.440  0.4347  0.5795  0.1160
 1014MOL0     C36788   6.098  10.207  11.569  0.1157 -0.3645  0.1788
 1014MOL0     C36789   6.139  10.122  11.667  0.4993 -0.3569  0.2810
 1014MOL0     O36790   6.083  10.138  11.793 -0.7664  0.8749 -0.1202
 1014MOL0     C36791   6.131  10.070  11.906 -0.6671  0.2515 -0.8100
 1014MOL0     C36792   6.062  10.142  12.026 -0.1167 -1.0797  0.1759
 1014MOL0     C36793   6.160  10.245  12.091 -0.1218  0.3350 -0.2425
 1014MOL0     C36794   6.157  10.245  12.243  0.6868  0.0204 -0.1323
 1014MOL0     C36795   6.213  10.126  12.316 -0.9603  0.3440 -0.3070
 1014MOL0     C36796   6.366  10.094  12.301 -0.7581  0.7532  0.0239
 1014MOL0     C36797   6.409   9.972  12.383  0.3074  0.3407 -0.5628
 1014MOL0     C36798   6.558   9.955  12.379  0.0778  0.5255 -0.3770
 1014MOL0    Cl36799   6.622   9.811  12.457  0.0648 -0.0044 -0.1039
 1014MOL0     C36800   6.251  10.045  11.643 -0.0341  0.0090  0.1059
 1014MOL0     C36801   6.298  10.030  11.507 -0.0638  0.8139 -0.5360
 1014MOL0     O36802   6.088  10.068  11.193 -0.8965  0.2618 -0.5209
 1014MOL0     C36803   6.177  10.123  10.941  0.2407 -0.4801 -0.1333
 1014MOL0     C36804   6.216  10.134  10.811  0.7051 -0.6278  0.5297
 1014MOL0     N36805   6.775  10.045  10.439  0.4017 -0.4235 -0.6445
 1014MOL0     N36806   6.823  10.147  10.385  0.0719 -0.8698 -0.1192
 1014MOL0     C36807   6.727  10.187  10.976  0.3599 -0.0522  0.1198
 1014MOL0     C36808   6.746  10.074  11.054  0.3304 -0.2928  0.5048
 1014MOL0     C36809   6.696   9.607  11.088 -1.1592  0.2342 -0.9026
 1014MOL0     C36810   6.819   9.570  11.144 -0.5356  0.5902 -0.2979
 1014MOL0     C36811   6.835   9.440  11.187 -0.2949 -0.4613 -0.7404
 1014MOL0     C36812   6.739   9.339  11.178 -0.4580 -0.0168  0.0327
 1014MOL0     O36813   6.744   9.198  11.207 -0.4061  0.4289  0.0689
 1014MOL0     C36814   6.878   9.138  11.208  0.4185 -0.2331 -0.3711
 1014MOL0     C36815   6.874   9.016  11.303  0.0513  0.1858 -0.4637
 1014MOL0     C36816   6.779   8.910  11.252 -0.4791 -0.5793 -0.4679
 1014MOL0     C36817   6.803   8.781  11.328  0.1822  0.6510  0.1882
 1014MOL0     C36818   6.918   8.708  11.276  0.2973 -0.6864  1.2212
 1014MOL0     C36819   7.000   8.646  11.210 -0.1149  0.2426 -0.0230
 1014MOL0     C36820   6.620   9.386  11.130 -0.3336  0.1472 -0.2672
 1014MOL0     C36821   6.595   9.513  11.082  0.6909  0.4068 -0.6669
 1014MOL0     C36822   6.467   9.535  11.012  0.4893 -0.3753  0.8509
 1014MOL0     H36823   6.856   9.857  10.812  2.0971  1.6388 -0.3444
 1014MOL0     H36824   6.834  10.049  10.679  0.2801  1.2474 -0.2154
 1014MOL0     H36825   6.547  10.340  10.819 -1.0287  1.8062  1.8594
 1014MOL0     H36826   6.658  10.447  10.893 -0.2653  1.3219 -0.5109
 1014MOL0     H36827   6.702  10.555  10.679 -0.5521  1.7456  0.7355
 1014MOL0     H36828   6.534  10.564  10.740 -1.2825 -2.4598  0.7703
 1014MOL0     H36829   6.470  10.387  10.597  1.3376  0.5453  2.6419
 1014MOL0     H36830   6.621  10.351  10.523 -4.9408 -1.3470 -3.2714
 1014MOL0     H36831   6.423  10.562  10.454  1.1883  1.5401 -2.8990
 1014MOL0     H36832   6.586  10.627  10.466 -2.2370  0.6628  2.3135
 1014MOL0     H36833   6.484  10.394  10.297  0.1422  0.0326 -1.7855
 1014MOL0     H36834   6.481  10.553  10.238 -1.4993 -0.7715  0.8383
 1014MOL0     H36835   6.734  10.531  10.229  1.4501 -0.6780  0.1313
 1014MOL0     H36836   6.738  10.409  10.351  2.0458  1.5620 -0.3823
 1014MOL0     H36837   6.703  10.389  10.056 -2.1944  0.9550 -0.5917
 1014MOL0     H36838   6.604  10.274  10.149  0.8936 -0.5522 -1.1240
 1014MOL0     H36839   6.840  10.229  10.064  1.0612  1.4186 -0.0191
 1014MOL0     H36840   6.903  10.313  10.198 -0.3551  1.6844 -2.8305
 1014MOL0     H36841   6.697   9.998  10.125  0.4432 -3.0269  1.5602
 1014MOL0     H36842   6.556   9.830  10.286  0.5649 -0.2542 -1.6931
 1014MOL0     H36843   6.702   9.761  10.346 -0.5218 -1.5446  1.6281
 1014MOL0     H36844   6.546   9.731  10.511  0.7194 -0.2942 -0.8623
 1014MOL0     H36845   6.658   9.852  10.570  0.6994 -3.7436 -1.3711
 1014MOL0     H36846   6.412   9.857  10.633 -0.2736  0.9647  0.1345
 1014MOL0     H36847   6.375   9.905  10.469 -0.7854 -0.7354  1.2172
 1014MOL0     H36848   6.498  10.117  10.487  2.8920 -0.8940  1.0971
 1014MOL0     H36849   6.575  10.074  10.637  1.1913 -4.5741 -0.6255
 1014MOL0     H36850   6.535  10.028  10.856  0.6964 -1.9731  1.7215
 1014MOL0     H36851   6.457  10.019  11.087 -0.1353  0.9442  0.3301
 1014MOL0     H36852   6.110  10.280  11.374 -3.1282  1.7495  3.1408
 1014MOL0     H36853   6.032  10.288  11.595  0.1232 -0.4794  0.5575
 1014MOL0     H36854   6.106   9.964  11.896  1.6482 -0.3405 -0.9107
 1014MOL0     H36855   6.239  10.089  11.914 -0.3703  0.6296 -4.1979
 1014MOL0     H36856   5.972  10.195  11.995  0.6551 -0.3461 -0.8907
 1014MOL0     H36857   6.034  10.061  12.094  2.7651 -1.3462  1.1877
 1014MOL0     H36858   6.260  10.212  12.062  0.3366  0.9596  0.5655
 1014MOL0     H36859   6.134  10.340  12.043 -1.2293  0.1474 -0.0383
 1014MOL0     H36860   6.057  10.272  12.276  0.7671 -1.6361  1.6553
 1014MOL0     H36861   6.217  10.335  12.260 -0.6550  0.9139 -0.0097
 1014MOL0     H36862   6.164  10.036  12.279 -1.8015  0.3751  0.6732
 1014MOL0     H36863   6.188  10.136  12.422  0.5657 -1.8407  0.3283
 1014MOL0     H36864   6.379  10.069  12.196  0.0030 -0.7379  0.4379
 1014MOL0     H36865   6.432  10.179  12.326  0.0105 -0.7481  3.8759
 1014MOL0     H36866   6.364   9.886  12.332 -1.7302  1.1506 -0.2456
 1014MOL0     H36867   6.391   9.980  12.491 -0.6407  1.2030 -0.7672
 1014MOL0     H36868   6.577   9.937  12.273 -0.5262  3.8863 -1.2041
 1014MOL0     H36869   6.628  10.035  12.405  0.6599  0.6113 -2.0755
 1014MOL0     H36870   6.296   9.979  11.717 -1.0104 -1.8707 -0.9078
 1014MOL0     H36871   6.378   9.956  11.503 -0.9596 -0.4114  1.9167
 1014MOL0     H36872   6.075  10.147  10.969  0.7045 -0.9899  2.2253
 1014MOL0     H36873   6.151  10.163  10.730 -0.4076 -1.3966  1.1260
 1014MOL0     H36874   6.681  10.270  11.028 -0.8929 -3.0622  4.3884
 1014MOL0     H36875   6.708  10.071  11.155 -1.3255 -0.8356 -0.1075
 1014MOL0     H36876   6.902   9.639  11.156  0.4103 -0.4672 -0.4773
 1014MOL0     H36877   6.937   9.408  11.211  0.8203  3.5010  0.5555
 1014MOL0     H36878   6.953   9.200  11.257 -1.6142  0.9328  1.3653
 1014MOL0     H36879   6.917   9.105  11.110  2.5655 -3.0573  1.2489
 1014MOL0     H36880   6.828   9.044  11.398  1.1199  1.0383 -0.1824
 1014MOL0     H36881   6.978   8.988  11.320  0.7052  1.4957 -2.0387
 1014MOL0     H36882   6.799   8.899  11.145 -3.9579 -1.1962 -1.1729
 1014MOL0     H36883   6.677   8.948  11.261 -0.4600 -0.7498  0.5596
 1014MOL0     H36884   6.802   8.798  11.436  1.9263  0.9450  0.1771
 1014MOL0     H36885   6.723   8.711  11.302  2.0921 -0.8189 -2.2177
 1014MOL0     H36886   7.075   8.586  11.165  2.5907  1.0021  3.0961
 1014MOL0     H36887   6.535   9.319  11.126 -0.4430  0.2548  0.2156
 1014MOL0     H36888   6.400   9.449  11.011 -0.0190 -0.0001 -0.8156
 1014MOL0     H36889   6.406   9.620  11.044  0.5946  1.5997 -3.4595
 1014MOL0     H36890   6.480   9.552  10.904  1.2678  0.6362  1.0893
 1015MOL0     O36891   3.627   5.650  10.291  0.3469  0.2323  0.4679
 1015MOL0     C36892   3.597   5.750  10.232 -0.9373  0.2304  0.4569
 1015MOL0     O36893   3.482   5.773  10.158 -0.1459 -0.3956  0.2884
 1015MOL0     C36894   3.392   5.678  10.111 -0.3977 -0.7871 -0.2510
 1015MOL0     C36895   3.415   5.545  10.085 -0.9490 -1.1346  1.1503
 1015MOL0     C36896   3.321   5.454  10.033  0.4152  1.1279 -0.0207
 1015MOL0     C36897   3.192   5.503  10.014 -0.2869 -0.0605 -0.0622
 1015MOL0     O36898   3.096   5.412   9.976 -1.2815 -0.4135 -0.1694
 1015MOL0     C36899   2.970   5.418  10.038  0.4869 -0.7076 -0.0997
 1015MOL0     C36900   2.918   5.275  10.050 -0.0785 -0.1095 -1.2621
 1015MOL0     C36901   2.842   5.230   9.925  0.3612  0.3648 -0.9190
 1015MOL0     C36902   2.795   5.086   9.931  0.2568 -0.0228 -0.8085
 1015MOL0     C36903   2.665   5.052   9.853  1.1365 -0.9314 -0.8864
 1015MOL0     C36904   2.690   5.048   9.712 -0.0496  0.4214 -0.6884
 1015MOL0     C36905   2.563   5.016   9.632 -0.8609  0.8441 -0.1296
 1015MOL0     C36906   2.474   5.139   9.581  0.0271 -0.0962 -1.2140
 1015MOL0     N36907   2.412   5.199   9.695 -0.3699  0.3557  1.1106
 1015MOL0     C36908   2.338   5.138   9.796 -0.4566  0.3482 -0.1867
 1015MOL0     C36909   2.280   5.244   9.848 -0.2946 -0.5457 -0.5841
 1015MOL0     C36910   2.172   5.227   9.956  0.9292  0.3958  0.7933
 1015MOL0     C36911   2.047   5.302   9.916 -0.3437  0.4641  0.4352
 1015MOL0     C36912   1.928   5.252   9.995 -0.9387 -0.2086 -0.8939
 1015MOL0     C36913   1.792   5.294   9.951  0.0996  0.1861 -0.0229
 1015MOL0     O36914   1.683   5.215  10.001  0.2667  0.3718  0.8481
 1015MOL0     C36915   1.606   5.268  10.115 -0.2348  0.5539 -0.6284
 1015MOL0     C36916   1.493   5.194  10.146  0.4112 -0.1557  0.0342
 1015MOL0     C36917   1.390   5.248  10.227 -0.5865  0.3805 -0.6315
 1015MOL0     C36918   1.416   5.365  10.306 -0.4991  0.2378 -0.0394
 1015MOL0     C36919   1.321   5.406  10.414  0.0859 -0.2256  0.8867
 1015MOL0     O36920   1.319   5.533  10.455 -0.1960  0.1355  0.8729
 1015MOL0     C36921   1.233   5.587  10.548  0.8823 -0.7133 -0.0832
 1015MOL0     C36922   1.127   5.527  10.626  0.2530 -0.1669  0.3411
 1015MOL0     C36923   1.041   5.614  10.705 -0.0579 -0.9314 -0.1763
 1015MOL0     C36924   1.050   5.752  10.717 -0.4829  0.1542  0.5296
 1015MOL0     O36925   0.955   5.823  10.791  0.2114  0.3665  0.5982
 1015MOL0     C36926   0.949   5.968  10.794 -0.6149  0.0241  1.4501
 1015MOL0     C36927   0.852   6.015  10.689 -0.4605 -0.3029 -0.4128
 1015MOL0     C36928   0.810   6.165  10.704  0.3812 -0.5999  0.4694
 1015MOL0     C36929   0.911   6.263  10.764  0.4539 -0.5459 -0.2245
 1015MOL0     C36930   0.888   6.410  10.719  0.6240  1.0932 -0.5732
 1015MOL0     C36931   0.774   6.471  10.797  0.3070 -0.2944  0.6537
 1015MOL0     C36932   0.706   6.594  10.729  0.0072 -0.2202 -0.7640
 1015MOL0     C36933   0.599   6.664  10.815  0.4928 -0.1222 -1.3566
 1015MOL0    Cl36934   0.533   6.795  10.718  0.0761  0.1226 -0.6307
 1015MOL0     C36935   1.159   5.811  10.641 -0.3171  1.6322  0.3915
 1015MOL0     C36936   1.238   5.729  10.564 -0.6240 -0.4701  0.3924
 1015MOL0     O36937   1.236   5.325  10.437  0.0588  0.3372 -0.2249
 1015MOL0     C36938   1.538   5.427  10.291 -0.9069 -0.8173 -0.5314
 1015MOL0     C36939   1.630   5.385  10.191  0.1114  0.7066 -0.7412
 1015MOL0     N36940   2.316   5.364   9.790  0.2107  0.4450 -0.2417
 1015MOL0     N36941   2.413   5.337   9.707  0.9997 -0.0893  0.2512
 1015MOL0     C36942   3.167   5.642  10.022  0.3295  0.1814  0.8318
 1015MOL0     C36943   3.264   5.725  10.079  1.3524 -0.0379  0.1634
 1015MOL0     C36944   3.705   5.862  10.242  0.1278  0.2815 -0.2615
 1015MOL0     C36945   3.684   5.977  10.169 -1.1522  0.1091  0.6172
 1015MOL0     C36946   3.777   6.082  10.170 -0.4657 -0.2317  0.1966
 1015MOL0     C36947   3.876   6.088  10.264 -0.3091  0.6429  0.0713
 1015MOL0     O36948   3.966   6.193  10.268  1.0321  0.1014  0.4685
 1015MOL0     C36949   4.091   6.154  10.218 -0.0232  0.5810 -0.7240
 1015MOL0     C36950   4.169   6.273  10.175  0.1217  0.1568 -0.1134
 1015MOL0     C36951   4.138   6.318  10.024  0.3175 -0.2120  0.0489
 1015MOL0     C36952   4.233   6.276   9.913  0.1057  0.6081 -0.1579
 1015MOL0     C36953   4.236   6.368   9.799 -0.8168  0.4058 -0.2609
 1015MOL0     C36954   4.223   6.449   9.706 -0.2009  0.2786 -0.3071
 1015MOL0     C36955   3.897   5.977  10.338  0.2502 -0.2725  0.6041
 1015MOL0     C36956   3.816   5.863  10.327  0.3805  0.3958 -0.6471
 1015MOL0     C36957   3.867   5.746  10.413 -0.1654  0.2780  0.1049
 1015MOL0     H36958   3.512   5.512  10.122 -0.1682  0.3694  0.5490
 1015MOL0     H36959   3.339   5.347  10.028  0.9641  0.8241  4.4007
 1015MOL0     H36960   2.962   5.461  10.139 -0.7956  2.0360 -1.2906
 1015MOL0     H36961   2.900   5.466   9.970 -0.7568 -1.0783  0.8921
 1015MOL0     H36962   2.853   5.265  10.137 -4.1879  3.3164 -3.5803
 1015MOL0     H36963   3.001   5.205  10.062  0.0218  0.1903 -0.1434
 1015MOL0     H36964   2.902   5.258   9.838 -1.8479 -1.7171 -3.2745
 1015MOL0     H36965   2.763   5.305   9.911  2.8955  3.6660  0.7578
 1015MOL0     H36966   2.867   5.024   9.877 -2.1932 -1.4440 -2.6837
 1015MOL0     H36967   2.787   5.057  10.036 -0.8301  5.4459  0.9446
 1015MOL0     H36968   2.627   4.958   9.894  0.3809  0.0295  0.7468
 1015MOL0     H36969   2.589   5.124   9.884  0.6660 -0.9768 -1.8927
 1015MOL0     H36970   2.719   5.148   9.679  1.3568  0.4675  0.5952
 1015MOL0     H36971   2.770   4.979   9.685 -0.9949 -1.3445  0.8152
 1015MOL0     H36972   2.497   4.954   9.693 -2.6405  3.0975  0.3644
 1015MOL0     H36973   2.591   4.952   9.547 -0.2541 -0.9548  1.3454
 1015MOL0     H36974   2.536   5.202   9.518 -1.4610 -0.5724 -3.2640
 1015MOL0     H36975   2.396   5.104   9.513 -0.6180 -1.9875  0.3829
 1015MOL0     H36976   2.334   5.043   9.847  1.6597  1.0290  1.4062
 1015MOL0     H36977   2.139   5.123   9.969 -2.2631  1.0129 -1.0927
 1015MOL0     H36978   2.203   5.266  10.054 -3.3104  3.7266  1.1190
 1015MOL0     H36979   2.057   5.411   9.925 -3.5467  0.9097 -0.0810
 1015MOL0     H36980   2.026   5.272   9.813  2.2294 -0.5475  0.1412
 1015MOL0     H36981   1.942   5.274  10.101  0.1921 -2.0967 -0.6184
 1015MOL0     H36982   1.932   5.144   9.984 -1.1223 -0.0163 -3.6581
 1015MOL0     H36983   1.784   5.289   9.842  1.5474 -0.6874 -0.1124
 1015MOL0     H36984   1.774   5.402   9.962 -1.5204 -0.1324  0.7391
 1015MOL0     H36985   1.466   5.100  10.098 -1.4578  0.3026  0.0855
 1015MOL0     H36986   1.296   5.199  10.250 -0.1887 -1.0779 -1.9421
 1015MOL0     H36987   1.106   5.422  10.614  0.2522 -0.3090  1.5035
 1015MOL0     H36988   0.956   5.569  10.756  0.3222 -1.3297  0.1146
 1015MOL0     H36989   0.936   5.998  10.899  0.4927 -1.4912  2.0659
 1015MOL0     H36990   1.049   6.007  10.770 -1.1314 -0.2199 -1.4047
 1015MOL0     H36991   0.890   5.999  10.588  1.6745 -1.3969  0.4981
 1015MOL0     H36992   0.755   5.966  10.684 -1.3697  1.4496 -0.8124
 1015MOL0     H36993   0.790   6.199  10.602 -0.6827  2.8088  1.6698
 1015MOL0     H36994   0.717   6.169  10.760 -2.6391  0.7254 -4.0545
 1015MOL0     H36995   1.007   6.235  10.721 -0.0695 -1.5214 -0.7852
 1015MOL0     H36996   0.925   6.260  10.873 -2.4693  1.1625  0.3312
 1015MOL0     H36997   0.860   6.409  10.613 -1.6523  0.5458 -0.0192
 1015MOL0     H36998   0.980   6.468  10.731 -0.0833  2.4182 -1.2828
 1015MOL0     H36999   0.693   6.398  10.814  0.5096 -0.1692  2.3118
 1015MOL0     H37000   0.799   6.505  10.897  1.7764 -0.4480  0.3580
 1015MOL0     H37001   0.663   6.565  10.633 -0.7342  0.0439 -0.5190
 1015MOL0     H37002   0.793   6.659  10.720  0.1071 -0.2701 -0.2000
 1015MOL0     H37003   0.523   6.603  10.864  2.3101 -0.3408  1.4597
 1015MOL0     H37004   0.652   6.712  10.898  0.9976 -0.2625 -1.5902
 1015MOL0     H37005   1.178   5.917  10.639 -0.3713  1.6535  0.9384
 1015MOL0     H37006   1.308   5.785  10.503 -0.2599 -1.8060 -0.4840
 1015MOL0     H37007   1.566   5.518  10.344 -1.5528 -1.0926  0.3073
 1015MOL0     H37008   1.723   5.435  10.166  2.3653 -2.4137  0.7807
 1015MOL0     H37009   3.070   5.682   9.996  1.0670  1.4586 -0.0744
 1015MOL0     H37010   3.221   5.823  10.099 -1.5281 -1.5088  1.9384
 1015MOL0     H37011   3.595   5.983  10.108  0.6592  2.4391 -2.0645
 1015MOL0     H37012   3.776   6.164  10.099 -1.4240  1.6232  2.2544
 1015MOL0     H37013   4.066   6.095  10.130 -1.1691 -1.7162  1.0128
 1015MOL0     H37014   4.141   6.094  10.295  1.1520  3.2909  0.7716
 1015MOL0     H37015   4.272   6.237  10.180  0.5950  1.5971  1.6308
 1015MOL0     H37016   4.157   6.348  10.254  0.2349 -0.5718  0.6124
 1015MOL0     H37017   4.152   6.427  10.029  1.1011 -0.3118  0.2631
 1015MOL0     H37018   4.033   6.304   9.997  0.4827  3.4528 -3.5383
 1015MOL0     H37019   4.337   6.273   9.947 -0.7877 -2.8239  2.9062
 1015MOL0     H37020   4.207   6.178   9.873  0.5203  1.2373 -2.0597
 1015MOL0     H37021   4.205   6.531   9.639  0.7635  0.6159 -0.1765
 1015MOL0     H37022   3.973   5.990  10.415 -1.6561  3.5759  2.1371
 1015MOL0     H37023   3.793   5.708  10.484  0.5639  1.4729  1.5605
 1015MOL0     H37024   3.916   5.665  10.358  1.4229  0.4453  1.1846
 1015MOL0     H37025   3.943   5.791  10.478  1.0833  3.5206 -3.2623
 1016MOL0     O37026   6.442   2.265   6.030  0.9133  0.9310  0.3978
 1016MOL0     C37027   6.350   2.298   6.104 -0.1389  1.0852  1.0124
 1016MOL0     O37028   6.354   2.288   6.240  0.7082  0.1406 -0.2979
 1016MOL0     C37029   6.448   2.252   6.330 -0.5726  0.0271 -0.8021
 1016MOL0     C37030   6.580   2.205   6.301  0.2252  0.3419  0.4113
 1016MOL0     C37031   6.673   2.213   6.403 -0.3595 -0.3719 -0.1730
 1016MOL0     C37032   6.648   2.238   6.532  0.6529 -0.4283 -0.3952
 1016MOL0     O37033   6.749   2.226   6.629  0.7202  0.2204 -0.1336
 1016MOL0     C37034   6.718   2.165   6.750  1.0758 -0.2641 -0.2400
 1016MOL0     C37035   6.834   2.074   6.787  0.8350 -0.7504  0.3031
 1016MOL0     C37036   6.820   2.028   6.928  0.0422  0.2582 -0.1611
 1016MOL0     C37037   6.936   1.924   6.956  0.2947 -0.1660  0.1915
 1016MOL0     C37038   6.930   1.883   7.099 -0.0796  0.4116  0.1520
 1016MOL0     C37039   7.008   1.762   7.112  0.3960  0.4729 -0.6393
 1016MOL0     C37040   7.005   1.719   7.263  0.0244 -0.3076 -0.0082
 1016MOL0     C37041   7.068   1.815   7.361 -1.0076 -0.8906 -0.3592
 1016MOL0     N37042   7.162   1.760   7.455  0.3633  0.8807 -0.2023
 1016MOL0     C37043   7.135   1.660   7.547 -0.7496 -1.2542  0.7655
 1016MOL0     C37044   7.253   1.630   7.610 -0.1520 -0.2600  0.2676
 1016MOL0     C37045   7.276   1.534   7.715 -0.0321  0.4077  0.4996
 1016MOL0     C37046   7.190   1.583   7.830  0.4830  0.2130  0.0318
 1016MOL0     C37047   7.146   1.466   7.915  0.2009  0.4464  0.8572
 1016MOL0     C37048   7.065   1.522   8.026  0.3073 -0.0359  0.2927
 1016MOL0     O37049   7.141   1.592   8.121 -0.2854  0.3917 -0.1783
 1016MOL0     C37050   7.089   1.609   8.243 -0.0060 -0.3668 -1.1692
 1016MOL0     C37051   6.959   1.585   8.285  0.7100 -0.0288 -1.2834
 1016MOL0     C37052   6.933   1.610   8.430 -0.0435 -0.9148 -0.1767
 1016MOL0     C37053   7.030   1.652   8.519 -0.3743 -0.1755 -0.9281
 1016MOL0     C37054   6.998   1.675   8.671  0.0072  0.0611 -0.1773
 1016MOL0     O37055   6.888   1.609   8.719 -1.5401  0.3489  0.4076
 1016MOL0     C37056   6.837   1.658   8.841  0.0014 -0.2271  0.2444
 1016MOL0     C37057   6.761   1.772   8.845  0.7622  0.5624 -0.1581
 1016MOL0     C37058   6.706   1.828   8.961  0.0927  0.2552 -0.5819
 1016MOL0     C37059   6.735   1.764   9.086 -0.0100 -0.2263  0.6455
 1016MOL0     O37060   6.691   1.812   9.207  0.1664 -0.1671  1.0162
 1016MOL0     C37061   6.563   1.876   9.211  0.1735 -0.7091  0.0785
 1016MOL0     C37062   6.522   1.880   9.363  0.5735  0.5262 -0.0193
 1016MOL0     C37063   6.615   1.966   9.449 -0.1633  0.5962 -1.0100
 1016MOL0     C37064   6.615   2.113   9.425  0.2598  0.7103 -0.7759
 1016MOL0     C37065   6.701   2.179   9.529 -0.4283  0.0389 -0.0494
 1016MOL0     C37066   6.695   2.328   9.516 -0.1878  0.0502 -0.2994
 1016MOL0     C37067   6.808   2.406   9.593 -0.2002  0.1685  0.1063
 1016MOL0     C37068   6.764   2.561   9.597 -0.5101 -0.1660  0.1100
 1016MOL0    Cl37069   6.909   2.659   9.636 -0.5183  0.0065 -0.4233
 1016MOL0     C37070   6.817   1.651   9.082 -0.5919 -0.5058 -0.0192
 1016MOL0     C37071   6.868   1.599   8.962  0.3441  0.8144 -0.3929
 1016MOL0     O37072   7.070   1.742   8.739  0.5009  0.3573  0.1182
 1016MOL0     C37073   7.157   1.679   8.477  0.6130 -0.3968  0.2240
 1016MOL0     C37074   7.190   1.654   8.340 -0.1490  0.5033  0.4389
 1016MOL0     N37075   7.354   1.693   7.536  0.6321 -0.3753 -0.6560
 1016MOL0     N37076   7.291   1.778   7.449 -0.2036  0.7767 -0.8011
 1016MOL0     C37077   6.514   2.275   6.562 -0.3644  0.1318 -0.3902
 1016MOL0     C37078   6.417   2.273   6.468 -0.2039 -0.3253  0.7489
 1016MOL0     C37079   6.225   2.342   6.032  0.1512  1.4917  0.7722
 1016MOL0     C37080   6.240   2.457   5.958 -0.1054  0.5287 -0.3103
 1016MOL0     C37081   6.140   2.524   5.897  0.6814 -0.2766  0.7382
 1016MOL0     C37082   6.011   2.480   5.900  0.0925 -0.1408 -0.3948
 1016MOL0     O37083   5.906   2.543   5.839 -0.0802 -0.0237 -0.1057
 1016MOL0     C37084   5.946   2.660   5.757  0.3897  0.6417  0.2228
 1016MOL0     C37085   5.810   2.734   5.723 -0.4458 -0.5865 -0.4582
 1016MOL0     C37086   5.830   2.880   5.674  0.9654 -0.2165  0.7618
 1016MOL0     C37087   5.933   2.916   5.558  0.3337  0.9852  0.7657
 1016MOL0     C37088   5.919   2.854   5.423 -0.0818  0.5406  0.1628
 1016MOL0     C37089   5.906   2.813   5.309  0.2522  0.0598  0.5213
 1016MOL0     C37090   6.002   2.366   5.984 -0.9871 -0.9305  1.1553
 1016MOL0     C37091   6.093   2.296   6.050  1.0760  0.3937 -0.0125
 1016MOL0     C37092   6.068   2.171   6.127  0.0465  0.5156  0.0220
 1016MOL0     H37093   6.608   2.171   6.202 -0.8080  2.6228 -0.7502
 1016MOL0     H37094   6.764   2.159   6.377 -0.3894 -0.9547  0.8567
 1016MOL0     H37095   6.699   2.244   6.824  0.3625 -1.2783  0.6805
 1016MOL0     H37096   6.621   2.115   6.750  0.5814  0.6440  0.9965
 1016MOL0     H37097   6.930   2.120   6.763  0.0827 -0.3332 -2.1655
 1016MOL0     H37098   6.840   1.987   6.721 -0.0628 -1.0329  0.5703
 1016MOL0     H37099   6.723   1.981   6.944 -0.2946  0.9537 -0.1681
 1016MOL0     H37100   6.833   2.114   6.994 -0.1099 -0.8871  1.4076
 1016MOL0     H37101   6.923   1.844   6.882 -2.2513  0.8347 -0.5716
 1016MOL0     H37102   7.031   1.975   6.938  0.1494  0.3282  0.7959
 1016MOL0     H37103   6.971   1.964   7.159 -1.3100  3.0684 -2.3852
 1016MOL0     H37104   6.827   1.863   7.129 -0.2755 -0.1936 -0.8642
 1016MOL0     H37105   6.957   1.686   7.053 -0.6629 -1.0597  2.0469
 1016MOL0     H37106   7.115   1.774   7.091  0.7719  3.6079  2.0740
 1016MOL0     H37107   7.059   1.625   7.259 -1.8842 -1.6755  2.9026
 1016MOL0     H37108   6.906   1.694   7.304  0.9108 -1.2418  1.6722
 1016MOL0     H37109   7.121   1.886   7.297 -0.1124 -3.6557 -2.9345
 1016MOL0     H37110   6.984   1.853   7.420 -1.4338  0.5372 -1.8142
 1016MOL0     H37111   7.039   1.611   7.564  0.0528 -3.4428 -0.6076
 1016MOL0     H37112   7.237   1.433   7.698  1.9193 -0.3859  0.4936
 1016MOL0     H37113   7.383   1.525   7.737 -0.1879 -3.9807  0.4015
 1016MOL0     H37114   7.258   1.644   7.890  2.0554 -1.4847  0.0608
 1016MOL0     H37115   7.104   1.645   7.804 -1.5110 -1.9773  0.9704
 1016MOL0     H37116   7.229   1.399   7.941 -0.7098 -2.9583 -3.7644
 1016MOL0     H37117   7.078   1.401   7.860 -2.3578  1.3838  2.7162
 1016MOL0     H37118   7.017   1.439   8.080  1.3735 -1.5638 -1.0243
 1016MOL0     H37119   6.981   1.581   7.988 -0.2943 -0.3020  1.1632
 1016MOL0     H37120   6.871   1.548   8.233 -0.7080  1.5151 -0.1029
 1016MOL0     H37121   6.835   1.586   8.469 -0.7382  0.0771 -1.2227
 1016MOL0     H37122   6.723   1.815   8.753 -3.6725 -1.1383  0.6583
 1016MOL0     H37123   6.659   1.926   8.961  1.1618  0.7996  0.3046
 1016MOL0     H37124   6.577   1.975   9.168  2.5240 -1.5359 -1.2291
 1016MOL0     H37125   6.480   1.837   9.152 -1.4126 -0.5087  2.0752
 1016MOL0     H37126   6.427   1.933   9.372  1.3580  1.8443  0.7406
 1016MOL0     H37127   6.509   1.779   9.402  0.5248  1.4024  2.3742
 1016MOL0     H37128   6.592   1.948   9.554 -0.5878 -2.4874 -1.5361
 1016MOL0     H37129   6.718   1.931   9.436  0.3692  0.6127  2.3305
 1016MOL0     H37130   6.518   2.161   9.434 -0.7123 -1.1469 -0.7887
 1016MOL0     H37131   6.646   2.125   9.321 -2.9654 -1.3465 -2.1340
 1016MOL0     H37132   6.804   2.141   9.526 -1.3376 -2.7931  0.9246
 1016MOL0     H37133   6.667   2.146   9.628  0.5203 -0.9556 -0.0357
 1016MOL0     H37134   6.705   2.351   9.409  2.1787 -3.1313 -0.9222
 1016MOL0     H37135   6.596   2.360   9.549  0.9994  1.8905  1.6733
 1016MOL0     H37136   6.910   2.398   9.554  0.1578  0.6311  0.9305
 1016MOL0     H37137   6.804   2.373   9.697 -1.2982 -1.8988 -0.5399
 1016MOL0     H37138   6.715   2.585   9.502 -0.5188  0.6994  0.3249
 1016MOL0     H37139   6.690   2.560   9.677 -1.4265 -0.5102 -0.7289
 1016MOL0     H37140   6.845   1.611   9.179  0.5101  0.1251 -0.0561
 1016MOL0     H37141   6.934   1.513   8.974 -0.1273  0.3189 -1.1968
 1016MOL0     H37142   7.226   1.737   8.538  0.9420 -0.8660  0.3002
 1016MOL0     H37143   7.292   1.658   8.303 -0.1714 -2.4298 -0.1866
 1016MOL0     H37144   6.486   2.299   6.664 -2.1243  0.4788 -0.9192
 1016MOL0     H37145   6.317   2.312   6.485  0.0493  0.4546  0.4871
 1016MOL0     H37146   6.339   2.502   5.952 -0.8942  2.3526 -0.1354
 1016MOL0     H37147   6.167   2.609   5.835 -0.3381  0.6630  1.5384
 1016MOL0     H37148   5.992   2.621   5.667 -0.6978 -0.6572  0.2034
 1016MOL0     H37149   6.009   2.735   5.807  0.4015 -0.3057  1.6896
 1016MOL0     H37150   5.753   2.733   5.816  0.6142  0.0929  0.2169
 1016MOL0     H37151   5.768   2.679   5.638  4.1454 -0.7194 -2.9604
 1016MOL0     H37152   5.861   2.940   5.760  0.2426  0.0322  0.8498
 1016MOL0     H37153   5.729   2.910   5.645  0.4402 -0.8045  1.9056
 1016MOL0     H37154   5.929   3.024   5.538  2.0017  0.5479 -2.5614
 1016MOL0     H37155   6.028   2.885   5.603 -0.2693 -2.1910  0.0767
 1016MOL0     H37156   5.891   2.754   5.220 -0.0227  2.2698 -0.9734
 1016MOL0     H37157   5.897   2.351   6.010 -1.9228  1.0991 -1.0287
 1016MOL0     H37158   5.964   2.169   6.161  0.3809 -4.3666  1.5290
 1016MOL0     H37159   6.079   2.081   6.066  2.6182  1.1911 -0.6216
 1016MOL0     H37160   6.133   2.164   6.215 -1.8717 -0.7523  1.4212
 1017MOL0     O37161   1.835   2.001   1.703 -0.0689 -0.5478  0.1764
 1017MOL0     C37162   1.713   2.007   1.706 -0.2449 -0.9075 -0.8365
 1017MOL0     O37163   1.641   2.098   1.779  0.0881 -0.7265 -0.4057
 1017MOL0     C37164   1.694   2.179   1.878  0.9220  0.2516 -0.3626
 1017MOL0     C37165   1.806   2.146   1.959  0.3350  0.4070 -0.1155
 1017MOL0     C37166   1.838   2.228   2.063  0.5430 -0.6983 -0.4682
 1017MOL0     C37167   1.776   2.347   2.098  0.0295  0.7222 -0.1857
 1017MOL0     O37168   1.821   2.408   2.212  0.8495 -0.6544 -0.0766
 1017MOL0     C37169   1.750   2.536   2.248  0.0468 -0.2755  0.6033
 1017MOL0     C37170   1.811   2.590   2.373  0.1701 -0.3589 -0.6783
 1017MOL0     C37171   1.770   2.512   2.493  1.0664  0.1646  0.5511
 1017MOL0     C37172   1.846   2.569   2.616  0.3195  0.2139 -0.4439
 1017MOL0     C37173   1.989   2.528   2.632 -0.5741 -0.4968  0.3006
 1017MOL0     C37174   2.028   2.559   2.781  0.6810  0.3007  0.4919
 1017MOL0     C37175   2.178   2.516   2.804 -0.5498 -0.0191 -0.9436
 1017MOL0     C37176   2.287   2.601   2.734 -1.3363  0.1172  0.9520
 1017MOL0     N37177   2.272   2.743   2.760  1.2443  0.0690 -0.2103
 1017MOL0     C37178   2.218   2.835   2.674  0.1520 -1.1067 -0.4539
 1017MOL0     C37179   2.216   2.946   2.750 -0.5040  0.4639 -0.2594
 1017MOL0     C37180   2.176   3.073   2.698 -0.2541  0.0149 -0.2892
 1017MOL0     C37181   2.264   3.196   2.744 -0.4716  0.4813  0.6960
 1017MOL0     C37182   2.173   3.331   2.723  0.2249 -0.4882 -0.1562
 1017MOL0     C37183   2.252   3.456   2.768 -0.1160  0.1675  0.1241
 1017MOL0     O37184   2.172   3.569   2.764 -0.3392  0.1223  0.0070
 1017MOL0     C37185   2.220   3.689   2.815  1.2092 -0.5691 -0.0289
 1017MOL0     C37186   2.128   3.792   2.783 -0.8261 -0.2620 -0.1980
 1017MOL0     C37187   2.150   3.917   2.833  0.6251 -0.4034 -0.4336
 1017MOL0     C37188   2.252   3.945   2.921 -0.6455 -0.2348  0.6682
 1017MOL0     C37189   2.261   4.080   2.987 -0.9257  0.4922 -0.0169
 1017MOL0     O37190   2.332   4.083   3.106 -0.5702 -0.1164  1.1249
 1017MOL0     C37191   2.352   4.213   3.154  0.3811 -0.3752 -0.2190
 1017MOL0     C37192   2.242   4.279   3.217 -0.0482 -0.0835  0.5265
 1017MOL0     C37193   2.253   4.413   3.256  0.2786 -0.5481  0.3497
 1017MOL0     C37194   2.377   4.485   3.248  0.2729  0.1141 -0.7195
 1017MOL0     O37195   2.399   4.609   3.299  0.0186 -0.0157 -0.3210
 1017MOL0     C37196   2.500   4.615   3.400  0.9343  0.0452  0.3949
 1017MOL0     C37197   2.535   4.772   3.407 -0.3678 -0.7894 -0.4885
 1017MOL0     C37198   2.673   4.784   3.468  0.4657 -0.1179 -1.1410
 1017MOL0     C37199   2.792   4.710   3.403 -0.0671  0.1818  0.0142
 1017MOL0     C37200   2.924   4.759   3.471  0.4351 -0.5707 -0.3683
 1017MOL0     C37201   3.043   4.666   3.441 -0.3487  0.5771  0.4280
 1017MOL0     C37202   3.076   4.679   3.294  0.6178  0.3741  0.6570
 1017MOL0     C37203   3.194   4.599   3.257  0.0075  0.5508  0.2798
 1017MOL0    Cl37204   3.200   4.627   3.088 -0.2130 -0.2415  0.0607
 1017MOL0     C37205   2.484   4.420   3.172  0.0731  0.3098 -0.2557
 1017MOL0     C37206   2.474   4.289   3.126 -0.5745  0.5312  0.3001
 1017MOL0     O37207   2.200   4.174   2.928 -0.1068  0.2539 -0.4211
 1017MOL0     C37208   2.343   3.839   2.948  0.0099  0.0624  0.0017
 1017MOL0     C37209   2.340   3.712   2.892 -0.4296 -0.0040  0.1477
 1017MOL0     N37210   2.251   2.919   2.884  0.1657  0.1413 -0.4059
 1017MOL0     N37211   2.271   2.792   2.889  0.6780 -0.4971  0.0047
 1017MOL0     C37212   1.655   2.365   2.022  0.0288 -0.7718  0.2289
 1017MOL0     C37213   1.612   2.287   1.908  0.6200 -0.5926 -0.2063
 1017MOL0     C37214   1.634   1.898   1.644 -0.4870 -0.4013  0.2951
 1017MOL0     C37215   1.557   1.932   1.534 -0.2470  0.6927  0.0909
 1017MOL0     C37216   1.484   1.830   1.459 -0.0372 -0.5993  0.1915
 1017MOL0     C37217   1.469   1.709   1.516 -0.2887  0.2209 -0.1478
 1017MOL0     O37218   1.376   1.631   1.447  0.6196 -0.2882  0.2541
 1017MOL0     C37219   1.282   1.571   1.529 -0.2362  0.3060 -0.4841
 1017MOL0     C37220   1.186   1.493   1.434 -1.1817 -0.2280 -0.0437
 1017MOL0     C37221   1.077   1.579   1.369 -0.6812  0.4300  0.0823
 1017MOL0     C37222   1.129   1.689   1.280 -0.3204  0.0941 -0.0819
 1017MOL0     C37223   1.005   1.738   1.205 -0.9376 -0.3164 -1.0095
 1017MOL0     C37224   0.894   1.764   1.150 -0.9769  1.0887 -0.9271
 1017MOL0     C37225   1.542   1.671   1.630  0.6902 -0.2565 -0.4956
 1017MOL0     C37226   1.630   1.767   1.693 -0.0162  0.7043 -0.4994
 1017MOL0     C37227   1.728   1.713   1.797 -0.7093 -0.6004  0.1687
 1017MOL0     H37228   1.872   2.061   1.944 -0.3321 -0.9353  3.5389
 1017MOL0     H37229   1.918   2.200   2.131 -0.0630  0.1290  0.6396
 1017MOL0     H37230   1.768   2.605   2.165  0.0235  1.9534  2.3510
 1017MOL0     H37231   1.642   2.532   2.262 -0.2685  1.9435 -0.7764
 1017MOL0     H37232   1.774   2.691   2.390  1.4904 -0.4005  3.4494
 1017MOL0     H37233   1.920   2.592   2.360  0.1160  1.0211 -1.0570
 1017MOL0     H37234   1.800   2.408   2.474  2.5635  0.8550 -1.1126
 1017MOL0     H37235   1.662   2.523   2.507  1.5160  1.7914  3.5474
 1017MOL0     H37236   1.835   2.678   2.616  0.3202  0.2488 -2.4192
 1017MOL0     H37237   1.794   2.530   2.705  1.0338 -0.9852 -0.5364
 1017MOL0     H37238   1.996   2.421   2.611  1.7977 -0.2659 -0.3566
 1017MOL0     H37239   2.052   2.587   2.565 -1.1769 -1.2254 -0.9406
 1017MOL0     H37240   2.010   2.661   2.816 -0.6777  0.5594 -0.8878
 1017MOL0     H37241   1.959   2.505   2.847 -0.6432  1.5560  0.1865
 1017MOL0     H37242   2.184   2.410   2.777 -3.2721 -0.7550  0.9518
 1017MOL0     H37243   2.192   2.523   2.912  2.0956  1.4644 -1.2733
 1017MOL0     H37244   2.390   2.574   2.757 -0.8025  1.6012  0.4321
 1017MOL0     H37245   2.278   2.585   2.626  4.4279 -0.2721  0.2192
 1017MOL0     H37246   2.209   2.823   2.567 -1.3740  0.7444 -0.5922
 1017MOL0     H37247   2.172   3.063   2.589  1.5295 -0.4366 -0.3493
 1017MOL0     H37248   2.071   3.088   2.726 -0.6626  1.3097 -2.3555
 1017MOL0     H37249   2.296   3.191   2.848 -0.9186  3.2353  1.0473
 1017MOL0     H37250   2.362   3.206   2.697  0.4268  0.6195  2.5306
 1017MOL0     H37251   2.077   3.330   2.776 -0.5303  1.3167 -1.4188
 1017MOL0     H37252   2.150   3.336   2.617 -0.2624  0.9364  0.0002
 1017MOL0     H37253   2.343   3.462   2.707 -0.2895  1.8691 -0.0060
 1017MOL0     H37254   2.294   3.443   2.868 -1.7406 -3.1406  0.5491
 1017MOL0     H37255   2.049   3.772   2.710  0.4572  2.3621 -2.5093
 1017MOL0     H37256   2.082   3.994   2.798 -0.0736 -0.3127  1.0203
 1017MOL0     H37257   2.146   4.231   3.230 -0.6767  0.8147 -0.6468
 1017MOL0     H37258   2.174   4.470   3.306  0.7691  1.3051 -0.8858
 1017MOL0     H37259   2.450   4.570   3.487 -0.6886 -0.7122 -0.8639
 1017MOL0     H37260   2.590   4.555   3.380 -0.2914 -1.7385 -0.0604
 1017MOL0     H37261   2.541   4.815   3.306  0.0810 -2.1457 -1.0632
 1017MOL0     H37262   2.461   4.831   3.462  0.0286 -0.6693 -0.0795
 1017MOL0     H37263   2.698   4.888   3.490  1.5495 -0.6277  0.1566
 1017MOL0     H37264   2.656   4.740   3.567 -1.6616 -3.2070 -2.6934
 1017MOL0     H37265   2.795   4.742   3.298  4.6939 -0.2418 -0.2278
 1017MOL0     H37266   2.793   4.601   3.408  0.8856  0.1031 -1.3794
 1017MOL0     H37267   2.896   4.758   3.576  0.3253  1.2778 -0.3495
 1017MOL0     H37268   2.941   4.866   3.454  2.2555 -0.5112  1.5110
 1017MOL0     H37269   3.123   4.698   3.508  0.3689  0.5081 -0.3743
 1017MOL0     H37270   3.026   4.562   3.468  0.9289 -0.1164 -1.1986
 1017MOL0     H37271   3.086   4.782   3.261 -0.7838  0.8525  1.6195
 1017MOL0     H37272   2.989   4.656   3.232 -0.0706  2.0574  0.9633
 1017MOL0     H37273   3.285   4.631   3.308  0.1265 -1.6571  1.6185
 1017MOL0     H37274   3.188   4.492   3.280  3.0849  0.4178  0.8433
 1017MOL0     H37275   2.567   4.487   3.153 -2.0868  2.8225 -1.5657
 1017MOL0     H37276   2.553   4.247   3.064 -0.2197 -0.7149  1.5386
 1017MOL0     H37277   2.424   3.862   3.016 -0.3879  0.0807  0.4723
 1017MOL0     H37278   2.411   3.633   2.912 -0.5748 -0.1505  0.0889
 1017MOL0     H37279   1.584   2.445   2.038 -2.0727 -2.7998  1.7874
 1017MOL0     H37280   1.521   2.323   1.862  1.6386  2.7849  0.1313
 1017MOL0     H37281   1.554   2.030   1.488 -4.8322  1.2193  1.0676
 1017MOL0     H37282   1.430   1.857   1.369 -0.3819 -1.9129 -0.0062
 1017MOL0     H37283   1.216   1.642   1.579 -0.8674 -0.2659 -0.5055
 1017MOL0     H37284   1.324   1.499   1.599  2.4414 -0.3836 -2.5925
 1017MOL0     H37285   1.121   1.420   1.484 -0.5778 -1.6295 -1.2185
 1017MOL0     H37286   1.239   1.429   1.363 -1.0268  1.4297 -1.4689
 1017MOL0     H37287   1.028   1.624   1.456 -0.5653  1.4805 -0.3873
 1017MOL0     H37288   1.016   1.510   1.310 -0.9787  1.4387 -0.8046
 1017MOL0     H37289   1.173   1.773   1.334  0.6412 -1.1163  1.0789
 1017MOL0     H37290   1.196   1.646   1.205 -0.0100 -1.2797  0.9345
 1017MOL0     H37291   0.807   1.782   1.090 -3.4360  1.6621  2.4888
 1017MOL0     H37292   1.549   1.572   1.674  4.1499  0.3239  0.5895
 1017MOL0     H37293   1.798   1.664   1.729  1.3713  1.3167  0.7985
 1017MOL0     H37294   1.794   1.792   1.835 -0.2018 -0.0938 -1.6700
 1017MOL0     H37295   1.676   1.647   1.868 -0.7925  0.2093  0.8750
 1018MOL0     O37296   4.616   1.519   3.334 -1.1241 -0.1250  0.7803
 1018MOL0     C37297   4.696   1.472   3.410  0.6431  0.2882 -0.5490
 1018MOL0     O37298   4.693   1.506   3.546 -0.4740 -0.2668  0.5355
 1018MOL0     C37299   4.603   1.588   3.612  0.3472  0.6036  0.4823
 1018MOL0     C37300   4.632   1.611   3.747  0.4815  0.0745 -0.8827
 1018MOL0     C37301   4.541   1.685   3.828  0.3697  0.0832  1.4430
 1018MOL0     C37302   4.430   1.747   3.766 -0.0171 -0.5782 -0.6432
 1018MOL0     O37303   4.359   1.828   3.847 -0.5276  0.7171  0.0944
 1018MOL0     C37304   4.233   1.877   3.796  0.6916  0.1417 -0.2655
 1018MOL0     C37305   4.157   1.934   3.920 -0.4043  1.0345  0.0266
 1018MOL0     C37306   4.233   2.023   4.014 -0.2431 -0.6460  1.2619
 1018MOL0     C37307   4.312   2.124   3.936 -0.5323 -0.2020 -0.3929
 1018MOL0     C37308   4.362   2.252   4.007 -0.5373  1.0580 -0.8141
 1018MOL0     C37309   4.449   2.236   4.138 -0.3814  0.2365  0.0495
 1018MOL0     C37310   4.585   2.184   4.113  0.2582  0.3219  0.1728
 1018MOL0     C37311   4.677   2.181   4.239  0.6280  0.3980  0.6683
 1018MOL0     N37312   4.709   2.303   4.312 -0.9534  1.1429  0.4204
 1018MOL0     C37313   4.678   2.422   4.270  0.7816 -0.8831  0.0684
 1018MOL0     C37314   4.717   2.502   4.361 -0.0288 -1.1090 -0.5397
 1018MOL0     C37315   4.711   2.654   4.358 -0.1791 -0.1460  0.5221
 1018MOL0     C37316   4.851   2.719   4.336  0.4796  0.2790  0.7842
 1018MOL0     C37317   4.824   2.871   4.336  0.7690 -0.1919  0.2908
 1018MOL0     C37318   4.958   2.933   4.282 -0.3961 -0.4884  0.2335
 1018MOL0     O37319   4.963   3.078   4.301  0.0509  0.3733 -0.0557
 1018MOL0     C37320   4.987   3.128   4.417 -0.3286 -0.5662 -0.2050
 1018MOL0     C37321   5.021   3.069   4.540  0.0717 -0.2806  0.6567
 1018MOL0     C37322   5.051   3.151   4.644  0.3460 -0.2165 -0.7778
 1018MOL0     C37323   5.057   3.295   4.627  0.6140  0.1870 -1.4752
 1018MOL0     C37324   5.105   3.373   4.737 -0.2656  0.0993  0.3280
 1018MOL0     O37325   5.137   3.501   4.710  0.0130 -0.4268  0.0999
 1018MOL0     C37326   5.184   3.585   4.803 -0.6375 -0.3722 -0.3423
 1018MOL0     C37327   5.147   3.722   4.783  0.1989 -0.5463  0.2387
 1018MOL0     C37328   5.170   3.818   4.881 -0.3915  0.7022 -0.0756
 1018MOL0     C37329   5.246   3.777   5.001  0.9336 -0.7970 -0.4357
 1018MOL0     O37330   5.270   3.880   5.086 -0.2825  0.4752 -0.2726
 1018MOL0     C37331   5.338   3.862   5.207 -0.1519 -0.6082  0.3237
 1018MOL0     C37332   5.280   3.930   5.327 -0.4178 -0.2098  0.6293
 1018MOL0     C37333   5.129   3.906   5.339  0.5210  0.0732  0.5634
 1018MOL0     C37334   5.057   3.990   5.446  0.2837  0.2312 -0.2716
 1018MOL0     C37335   4.910   3.965   5.417 -0.7304 -0.6124 -0.6726
 1018MOL0     C37336   4.820   4.058   5.513 -0.9201 -0.2191 -0.0003
 1018MOL0     C37337   4.838   4.209   5.474  0.5054 -0.5405 -0.1813
 1018MOL0     C37338   4.728   4.286   5.546 -0.5585 -0.1622 -0.6397
 1018MOL0    Cl37339   4.735   4.462   5.531  0.3865  0.3607 -0.4666
 1018MOL0     C37340   5.284   3.646   5.015 -0.4455 -0.0598 -0.2590
 1018MOL0     C37341   5.253   3.546   4.925 -0.8070 -0.5856  0.2831
 1018MOL0     O37342   5.101   3.317   4.851 -0.5559 -0.8759 -0.1694
 1018MOL0     C37343   5.020   3.352   4.511  0.0773  0.1344 -0.5028
 1018MOL0     C37344   4.986   3.266   4.410 -0.2571 -0.0853  0.3551
 1018MOL0     N37345   4.763   2.428   4.470  0.7718 -0.7671  0.0628
 1018MOL0     N37346   4.756   2.303   4.437 -0.2273  0.1875  0.4172
 1018MOL0     C37347   4.393   1.712   3.634 -0.3584  0.7319 -0.4245
 1018MOL0     C37348   4.482   1.638   3.557  0.4336  0.0750  0.7500
 1018MOL0     C37349   4.806   1.389   3.358  0.1979  0.0178 -0.3928
 1018MOL0     C37350   4.930   1.397   3.430 -0.8884 -0.1058  0.1830
 1018MOL0     C37351   5.054   1.336   3.392 -0.1101  0.3225 -0.0395
 1018MOL0     C37352   5.041   1.249   3.283 -0.5466 -0.9509 -0.3660
 1018MOL0     O37353   5.161   1.184   3.251  0.1957 -0.1668 -0.3182
 1018MOL0     C37354   5.154   1.063   3.174 -0.2549  0.1369  0.3789
 1018MOL0     C37355   5.293   1.006   3.174 -0.4874  0.7630  0.0787
 1018MOL0     C37356   5.318   0.924   3.054 -0.2246 -0.5379  0.0546
 1018MOL0     C37357   5.450   0.863   3.059 -0.9396  0.2460 -0.5708
 1018MOL0     C37358   5.475   0.760   2.951  0.5058  1.1090  0.0494
 1018MOL0     C37359   5.508   0.684   2.860  0.1896 -0.2022 -0.2109
 1018MOL0     C37360   4.921   1.229   3.219  0.4454 -0.0665 -0.0816
 1018MOL0     C37361   4.801   1.288   3.262 -0.4070 -0.1736 -0.9339
 1018MOL0     C37362   4.670   1.260   3.193 -0.4855  0.4291 -0.5156
 1018MOL0     H37363   4.721   1.578   3.799  0.4467 -0.0699 -0.9146
 1018MOL0     H37364   4.571   1.700   3.932  1.2543  1.8811  0.9763
 1018MOL0     H37365   4.249   1.960   3.727 -0.7413  1.3663  0.8393
 1018MOL0     H37366   4.164   1.802   3.756 -0.5172  1.4827 -0.7653
 1018MOL0     H37367   4.143   1.847   3.985 -0.4782  0.2150 -1.0627
 1018MOL0     H37368   4.062   1.978   3.888  0.0776  1.3273 -1.0601
 1018MOL0     H37369   4.294   1.959   4.079 -0.0386 -2.8621 -0.9771
 1018MOL0     H37370   4.156   2.077   4.069  0.8994 -1.4172  3.7817
 1018MOL0     H37371   4.404   2.078   3.900  1.8480  4.7250 -1.3422
 1018MOL0     H37372   4.248   2.147   3.850  0.4495 -1.1650 -1.4156
 1018MOL0     H37373   4.406   2.317   3.930  0.8988  2.6077  1.2015
 1018MOL0     H37374   4.272   2.303   4.041 -0.4766  0.6009  0.0531
 1018MOL0     H37375   4.451   2.331   4.193  0.8202  1.3197 -1.7532
 1018MOL0     H37376   4.392   2.168   4.202  1.3910 -0.5582  0.8510
 1018MOL0     H37377   4.632   2.247   4.037 -2.0154 -0.6629 -2.1840
 1018MOL0     H37378   4.589   2.081   4.077 -0.9600 -0.3401  1.8025
 1018MOL0     H37379   4.629   2.112   4.310  0.6621  0.0529  0.3576
 1018MOL0     H37380   4.770   2.137   4.204  0.1981  0.9637 -1.2672
 1018MOL0     H37381   4.617   2.446   4.183  1.0104 -1.6978 -0.3262
 1018MOL0     H37382   4.655   2.675   4.266  2.3085  0.0251 -1.0577
 1018MOL0     H37383   4.663   2.690   4.450 -1.4610 -0.1254 -0.1301
 1018MOL0     H37384   4.924   2.695   4.414  0.6090 -1.7861  0.0892
 1018MOL0     H37385   4.881   2.676   4.240 -2.7439  1.8264 -1.0620
 1018MOL0     H37386   4.799   2.915   4.433  3.7123 -2.2224  2.1215
 1018MOL0     H37387   4.734   2.898   4.279 -0.0280 -1.7022  0.7637
 1018MOL0     H37388   4.975   2.908   4.177 -0.1694 -1.8730  0.5802
 1018MOL0     H37389   5.046   2.883   4.323  0.5465 -0.9432 -2.1494
 1018MOL0     H37390   5.040   2.962   4.536 -1.1054 -0.5917  2.2791
 1018MOL0     H37391   5.091   3.105   4.733 -2.3130 -2.5561 -0.6710
 1018MOL0     H37392   5.113   3.742   4.681 -0.2243  2.5161  0.8827
 1018MOL0     H37393   5.140   3.917   4.847 -3.2252 -0.1870 -0.3698
 1018MOL0     H37394   5.364   3.761   5.237 -1.6027 -0.1865  3.4363
 1018MOL0     H37395   5.438   3.901   5.183  0.9663 -2.9984  0.8841
 1018MOL0     H37396   5.329   3.894   5.418 -2.1236 -0.8572  1.3258
 1018MOL0     H37397   5.311   4.035   5.320 -1.3619  0.1589  1.7137
 1018MOL0     H37398   5.082   3.930   5.244 -0.1997  2.2622  1.4165
 1018MOL0     H37399   5.106   3.801   5.361  1.3020 -0.9964 -3.0126
 1018MOL0     H37400   5.081   4.095   5.426 -3.2872  0.6532 -3.5294
 1018MOL0     H37401   5.076   3.963   5.550  1.0706  2.2079  0.1402
 1018MOL0     H37402   4.890   3.862   5.446 -2.6498  1.0030  5.0789
 1018MOL0     H37403   4.888   3.987   5.312  1.8339  0.3244 -1.0747
 1018MOL0     H37404   4.716   4.028   5.529 -1.1874  0.5182 -0.2831
 1018MOL0     H37405   4.863   4.052   5.614  2.7787 -2.7898 -1.5104
 1018MOL0     H37406   4.831   4.222   5.366  1.7671  1.8165 -0.0539
 1018MOL0     H37407   4.933   4.255   5.501 -0.6616  0.9681  1.6544
 1018MOL0     H37408   4.631   4.247   5.514 -0.4773 -0.1753 -0.8700
 1018MOL0     H37409   4.738   4.272   5.654  2.2031  0.8445 -0.6910
 1018MOL0     H37410   5.318   3.600   5.107  0.0676 -3.8999 -2.1695
 1018MOL0     H37411   5.286   3.443   4.935  4.3227  0.7693  0.3495
 1018MOL0     H37412   5.010   3.458   4.489 -0.5327  0.1600 -0.1116
 1018MOL0     H37413   4.970   3.310   4.312  2.9035  2.5564  0.8765
 1018MOL0     H37414   4.302   1.756   3.595 -1.2700  0.8704  1.6989
 1018MOL0     H37415   4.454   1.609   3.456 -0.4691  1.5746  0.5256
 1018MOL0     H37416   4.935   1.462   3.517  0.7070 -0.2381  0.2251
 1018MOL0     H37417   5.150   1.346   3.440 -0.2873 -2.5668  1.1305
 1018MOL0     H37418   5.109   1.101   3.081  3.1995  5.2309  0.3838
 1018MOL0     H37419   5.085   0.993   3.222 -0.6994  0.7912  0.7115
 1018MOL0     H37420   5.324   0.950   3.263 -0.2340  0.8059  0.0210
 1018MOL0     H37421   5.358   1.094   3.181 -0.7921  0.8820  3.9842
 1018MOL0     H37422   5.306   0.980   2.961 -0.2247 -2.5401 -1.2128
 1018MOL0     H37423   5.245   0.843   3.051  2.5095 -3.2052 -3.1789
 1018MOL0     H37424   5.520   0.945   3.045 -0.6252  0.3292  1.2701
 1018MOL0     H37425   5.469   0.814   3.155  1.4658  1.4494 -0.3619
 1018MOL0     H37426   5.525   0.610   2.784  0.6542 -1.4457  1.0339
 1018MOL0     H37427   4.917   1.160   3.136  2.7139 -2.4530  1.6298
 1018MOL0     H37428   4.682   1.176   3.123 -0.7645  1.0550 -1.3268
 1018MOL0     H37429   4.598   1.230   3.269  2.9634 -4.1566  1.4787
 1018MOL0     H37430   4.629   1.349   3.144 -1.7201  0.3778  0.3779
 1019MOL0     O37431  11.388  11.250   4.992 -0.2140  0.2724 -0.3646
 1019MOL0     C37432  11.271  11.288   5.014 -0.0810  0.8007 -0.2073
 1019MOL0     O37433  11.214  11.278   5.132 -0.4245 -0.5757  0.1498
 1019MOL0     C37434  11.257  11.210   5.245  0.7710 -0.0388  1.2026
 1019MOL0     C37435  11.200  11.247   5.365  0.5406 -0.5148 -0.3552
 1019MOL0     C37436  11.261  11.205   5.486 -0.0601 -0.7430  1.1736
 1019MOL0     C37437  11.386  11.141   5.489  0.7436 -0.6324  0.0200
 1019MOL0     O37438  11.434  11.109   5.611  0.2807 -0.3063 -0.4591
 1019MOL0     C37439  11.371  10.996   5.671 -0.0303  0.7465 -0.4965
 1019MOL0     C37440  11.320  11.018   5.813 -0.4525  0.1738 -0.6963
 1019MOL0     C37441  11.242  10.899   5.883 -0.7203  0.2368  0.8561
 1019MOL0     C37442  11.312  10.762   5.855  1.3503 -0.7018  0.2595
 1019MOL0     C37443  11.237  10.656   5.944  0.2233 -0.2414 -0.1755
 1019MOL0     C37444  11.244  10.689   6.092  0.1496 -0.0572  0.4997
 1019MOL0     C37445  11.207  10.578   6.187 -0.7168 -0.2257  0.1734
 1019MOL0     C37446  11.250  10.606   6.325  0.0630 -0.2491  1.2413
 1019MOL0     N37447  11.178  10.721   6.381 -0.3787  0.5988 -0.2130
 1019MOL0     C37448  11.237  10.772   6.492  0.1004  0.8952  0.3276
 1019MOL0     C37449  11.145  10.858   6.535 -0.2223  0.6686 -0.4992
 1019MOL0     C37450  11.154  10.957   6.652 -0.7635 -0.2011 -0.3163
 1019MOL0     C37451  11.136  11.099   6.599  0.0376 -0.7165 -0.0618
 1019MOL0     C37452  11.138  11.212   6.696 -0.3939  0.6272  0.2545
 1019MOL0     C37453  11.276  11.250   6.745  0.4020  0.9854 -0.4784
 1019MOL0     O37454  11.266  11.336   6.861 -0.1698  0.0428 -0.0367
 1019MOL0     C37455  11.392  11.365   6.922  0.0283  0.1632 -0.2514
 1019MOL0     C37456  11.522  11.326   6.861  0.7941  0.1821 -0.0418
 1019MOL0     C37457  11.642  11.358   6.918  0.6693 -0.0997 -0.6410
 1019MOL0     C37458  11.644  11.446   7.034 -1.0793  0.4192  0.2679
 1019MOL0     C37459  11.775  11.496   7.089 -1.0615  0.1904 -0.2557
 1019MOL0     O37460  11.766  11.564   7.210  0.0825 -0.9356 -0.2900
 1019MOL0     C37461  11.881  11.592   7.278  1.4097  0.6757 -0.1101
 1019MOL0     C37462  11.986  11.671   7.220 -0.0168 -0.1592  0.2451
 1019MOL0     C37463  12.099  11.715   7.284 -1.2599 -0.5701 -0.1576
 1019MOL0     C37464  12.114  11.689   7.414  1.0804  0.7080 -0.3139
 1019MOL0     O37465  12.223  11.748   7.477  0.4322  0.7484  0.0745
 1019MOL0     C37466  12.264  11.733   7.616  1.1807  0.5296  0.0012
 1019MOL0     C37467  12.394  11.801   7.661 -0.2051  0.0573  0.0739
 1019MOL0     C37468  12.393  11.815   7.813  0.9364 -0.2345 -0.5366
 1019MOL0     C37469  12.516  11.895   7.848 -0.7151 -0.5408 -0.1738
 1019MOL0     C37470  12.494  11.981   7.975 -1.1749  0.4272  0.7541
 1019MOL0     C37471  12.610  12.074   7.997 -0.0658 -0.2531 -0.6570
 1019MOL0     C37472  12.586  12.167   8.123  0.0283  0.5388 -0.3087
 1019MOL0     C37473  12.675  12.294   8.120 -0.7467 -0.8604  0.4096
 1019MOL0    Cl37474  12.628  12.391   8.261 -0.4947 -0.1147 -0.1726
 1019MOL0     C37475  12.025  11.593   7.481 -0.0549 -0.1655 -0.1465
 1019MOL0     C37476  11.910  11.548   7.407 -0.1120  0.5913 -0.8103
 1019MOL0     O37477  11.875  11.474   7.020  0.9254  0.6454  0.1896
 1019MOL0     C37478  11.516  11.486   7.087  1.2405  0.9634 -0.2514
 1019MOL0     C37479  11.397  11.440   7.037 -0.4221  0.2005  0.1871
 1019MOL0     N37480  11.033  10.857   6.461 -0.5342 -0.5053  0.5955
 1019MOL0     N37481  11.052  10.764   6.374 -0.1125 -1.3957  0.3508
 1019MOL0     C37482  11.438  11.098   5.372  0.5006 -0.3838 -0.5674
 1019MOL0     C37483  11.376  11.127   5.247  0.7496 -0.9291  1.0075
 1019MOL0     C37484  11.176  11.314   4.904 -0.5164  0.3616  0.2136
 1019MOL0     C37485  11.091  11.417   4.901  0.1005  0.2999 -0.4479
 1019MOL0     C37486  11.015  11.442   4.797  0.5326  0.1508  0.0882
 1019MOL0     C37487  11.007  11.360   4.684 -0.9708 -0.1091  0.7881
 1019MOL0     O37488  10.921  11.394   4.587 -0.2364  0.4444  0.5718
 1019MOL0     C37489  10.971  11.418   4.446  0.4267 -0.1052  0.0280
 1019MOL0     C37490  11.101  11.498   4.416  0.9992  0.0752 -0.1504
 1019MOL0     C37491  11.074  11.632   4.479  0.2402 -0.4017  0.2306
 1019MOL0     C37492  11.177  11.732   4.429  0.2221 -0.7638  0.7168
 1019MOL0     C37493  11.152  11.784   4.295 -0.2695 -0.1051 -0.0011
 1019MOL0     C37494  11.116  11.800   4.183  0.8284  0.2257 -0.2469
 1019MOL0     C37495  11.086  11.245   4.676  0.7205 -0.6309 -0.6484
 1019MOL0     C37496  11.169  11.219   4.791 -0.8722  0.2628 -0.2444
 1019MOL0     C37497  11.238  11.092   4.783 -0.5937 -0.0878 -0.7010
 1019MOL0     H37498  11.113  11.311   5.370  0.2786 -0.8595 -0.4751
 1019MOL0     H37499  11.203  11.234   5.572 -0.1615  0.8134  0.6021
 1019MOL0     H37500  11.291  10.959   5.607 -1.2151  1.5195  0.4859
 1019MOL0     H37501  11.448  10.920   5.688 -0.7173  0.2398  0.4532
 1019MOL0     H37502  11.255  11.106   5.815 -0.3947  0.2064  0.0542
 1019MOL0     H37503  11.405  11.036   5.879 -2.2358  0.7380  1.5834
 1019MOL0     H37504  11.138  10.899   5.849  0.0607 -0.0033 -1.7375
 1019MOL0     H37505  11.247  10.922   5.990  0.8201 -0.0832  0.8777
 1019MOL0     H37506  11.304  10.739   5.748  1.7733  1.1542 -0.2048
 1019MOL0     H37507  11.415  10.758   5.893  0.3896 -1.7282  3.0067
 1019MOL0     H37508  11.132  10.653   5.913  0.1634 -2.5443  0.0835
 1019MOL0     H37509  11.289  10.564   5.917 -1.0240 -0.9660 -0.2056
 1019MOL0     H37510  11.343  10.728   6.118  1.2311 -2.2450 -0.0970
 1019MOL0     H37511  11.167  10.764   6.113  0.7028  0.4954  0.5505
 1019MOL0     H37512  11.254  10.488   6.147 -0.2410  0.6541 -1.3406
 1019MOL0     H37513  11.099  10.566   6.174 -0.3812 -1.6723 -1.7653
 1019MOL0     H37514  11.249  10.509   6.375  0.6934 -0.2515  1.2493
 1019MOL0     H37515  11.353  10.638   6.309 -0.5973  0.0319 -5.5209
 1019MOL0     H37516  11.337  10.762   6.531  1.8824  5.7172 -2.0787
 1019MOL0     H37517  11.085  10.922   6.729  0.1904 -2.7304 -0.5323
 1019MOL0     H37518  11.257  10.950   6.689 -0.5357 -0.7753 -1.0297
 1019MOL0     H37519  11.210  11.110   6.520 -0.9239  0.8968 -0.7867
 1019MOL0     H37520  11.037  11.097   6.553 -0.0214 -0.5553  0.0574
 1019MOL0     H37521  11.078  11.184   6.783 -0.9594 -2.3159 -0.9457
 1019MOL0     H37522  11.094  11.301   6.651  1.0888  0.5079 -1.5996
 1019MOL0     H37523  11.318  11.306   6.661  3.2763  1.7300  1.3161
 1019MOL0     H37524  11.332  11.160   6.773  4.5266  2.7704 -2.1397
 1019MOL0     H37525  11.522  11.272   6.767  1.4366  1.2401 -0.6809
 1019MOL0     H37526  11.727  11.302   6.880  1.8207  0.3364  1.1273
 1019MOL0     H37527  11.973  11.714   7.121 -1.0403  1.1507  0.9145
 1019MOL0     H37528  12.175  11.773   7.232 -3.6298  1.9152 -1.0917
 1019MOL0     H37529  12.178  11.773   7.671 -0.1557  1.2746 -2.4668
 1019MOL0     H37530  12.261  11.625   7.635  3.6453  0.2709 -0.8168
 1019MOL0     H37531  12.480  11.740   7.634  0.7105  1.3632 -0.0678
 1019MOL0     H37532  12.395  11.898   7.611  0.5159  0.0688  0.0955
 1019MOL0     H37533  12.295  11.856   7.839  1.2410 -1.2204  2.5271
 1019MOL0     H37534  12.399  11.720   7.867  0.9234 -0.5763 -1.1267
 1019MOL0     H37535  12.549  11.950   7.759 -0.1090 -3.5898 -1.9704
 1019MOL0     H37536  12.593  11.822   7.876  2.0462  2.0639 -0.4790
 1019MOL0     H37537  12.479  11.909   8.056 -1.1238 -0.0902  0.3108
 1019MOL0     H37538  12.407  12.046   7.961 -2.8374 -2.1862 -2.4827
 1019MOL0     H37539  12.705  12.021   8.010  0.5912  0.4676 -2.2206
 1019MOL0     H37540  12.627  12.148   7.917  0.0631 -0.2699 -0.6451
 1019MOL0     H37541  12.619  12.111   8.210  0.1314  2.0100  0.6411
 1019MOL0     H37542  12.482  12.201   8.124 -1.0049 -2.1595  3.0344
 1019MOL0     H37543  12.781  12.266   8.131 -0.8225 -0.9878  0.8196
 1019MOL0     H37544  12.669  12.349   8.026 -0.6044 -0.1046  0.8338
 1019MOL0     H37545  12.027  11.569   7.587  0.6629  1.5492  0.2619
 1019MOL0     H37546  11.834  11.491   7.459  1.3230  1.1103  2.0174
 1019MOL0     H37547  11.498  11.543   7.178 -0.4117 -1.2297  0.8812
 1019MOL0     H37548  11.305  11.488   7.069  0.3517  4.2290 -2.7561
 1019MOL0     H37549  11.539  11.057   5.370  0.9456  0.6801 -0.2854
 1019MOL0     H37550  11.412  11.084   5.154 -3.7966  0.0227 -1.4722
 1019MOL0     H37551  11.058  11.480   4.983 -2.0525 -2.8957  1.3500
 1019MOL0     H37552  10.946  11.526   4.802  2.3615  1.7964 -0.8384
 1019MOL0     H37553  10.883  11.462   4.399 -0.4837 -0.9683  0.8795
 1019MOL0     H37554  10.984  11.325   4.389  0.3474  1.0814 -2.0379
 1019MOL0     H37555  11.125  11.506   4.310  0.8150  2.6174 -0.0584
 1019MOL0     H37556  11.191  11.449   4.456  1.8111 -0.7057 -2.7511
 1019MOL0     H37557  11.077  11.619   4.587  1.3875  2.1435  0.5875
 1019MOL0     H37558  10.976  11.676   4.457  0.7704  1.2269  0.9232
 1019MOL0     H37559  11.187  11.823   4.489  3.1863  0.7131 -1.7496
 1019MOL0     H37560  11.275  11.685   4.418  0.8476  0.8953 -1.9425
 1019MOL0     H37561  11.106  11.823   4.079 -0.1087 -1.3101 -0.5115
 1019MOL0     H37562  11.084  11.182   4.588  1.2677  2.8908 -3.4292
 1019MOL0     H37563  11.241  11.054   4.886 -0.1457 -3.0387 -1.7182
 1019MOL0     H37564  11.187  11.023   4.716 -2.9878  1.1422 -0.2833
 1019MOL0     H37565  11.341  11.111   4.752 -0.3290  2.5724  1.4291
 1020MOL0     O37566   3.377   1.860   9.834 -0.9280 -0.8139  0.5353
 1020MOL0     C37567   3.363   1.966   9.900  0.2739  0.2011  0.1038
 1020MOL0     O37568   3.324   2.090   9.840  0.3635 -0.5175  0.5215
 1020MOL0     C37569   3.237   2.090   9.734 -0.3580  0.4791  0.7428
 1020MOL0     C37570   3.291   2.074   9.605  0.3399 -0.5074 -0.0868
 1020MOL0     C37571   3.215   2.095   9.487 -0.2515 -0.2651 -0.5063
 1020MOL0     C37572   3.072   2.116   9.500  0.4853 -0.0440  0.2880
 1020MOL0     O37573   2.987   2.131   9.396 -0.2389  0.3239  0.3752
 1020MOL0     C37574   3.016   2.112   9.264  0.1056 -0.6579  0.3230
 1020MOL0     C37575   2.883   2.132   9.188 -0.9315  0.1273  0.2697
 1020MOL0     C37576   2.885   2.081   9.043 -0.1342 -0.0604  0.1316
 1020MOL0     C37577   2.839   1.932   9.017  0.4389 -0.2469  0.0929
 1020MOL0     C37578   2.922   1.822   9.071 -0.5183  0.4510  0.4327
 1020MOL0     C37579   3.072   1.819   9.024  0.3775  0.0700  0.6431
 1020MOL0     C37580   3.078   1.789   8.870 -0.8743 -0.3944  0.1120
 1020MOL0     C37581   3.073   1.637   8.833 -0.8020  0.0306 -0.2579
 1020MOL0     N37582   3.203   1.580   8.857 -0.4357  0.3005 -0.8793
 1020MOL0     C37583   3.303   1.568   8.760  0.5495 -0.2385 -1.2537
 1020MOL0     C37584   3.409   1.524   8.824  0.3882 -0.6539 -0.8756
 1020MOL0     C37585   3.541   1.481   8.774 -0.1003  0.1976 -0.8395
 1020MOL0     C37586   3.615   1.607   8.727 -0.7817 -0.1277 -1.2082
 1020MOL0     C37587   3.763   1.569   8.712  0.0591  0.0187  0.2678
 1020MOL0     C37588   3.844   1.659   8.630 -0.1650 -0.7950  0.6644
 1020MOL0     O37589   3.977   1.699   8.679 -0.3396  0.1388  0.4843
 1020MOL0     C37590   3.985   1.805   8.754  0.5080 -0.4029  0.6793
 1020MOL0     C37591   3.884   1.891   8.802 -0.0702  0.0696 -0.0337
 1020MOL0     C37592   3.906   2.001   8.882 -1.2418 -0.2749  0.0394
 1020MOL0     C37593   4.042   2.039   8.911  0.3866  0.1295 -0.1628
 1020MOL0     C37594   4.068   2.164   8.979 -0.4802 -1.2314 -0.1060
 1020MOL0     O37595   3.972   2.247   9.010  0.8926  0.1008 -0.3142
 1020MOL0     C37596   3.998   2.348   9.104  0.9235  0.0209 -0.4741
 1020MOL0     C37597   4.084   2.349   9.223 -0.3222 -0.6351 -0.3170
 1020MOL0     C37598   4.093   2.459   9.305  0.2579 -0.6647 -0.5180
 1020MOL0     C37599   4.018   2.572   9.266 -0.7978 -0.7579  0.0449
 1020MOL0     O37600   4.030   2.690   9.352  1.2557 -0.3810 -0.7899
 1020MOL0     C37601   4.097   2.684   9.481 -0.3272  0.6867  0.1093
 1020MOL0     C37602   4.060   2.824   9.534  0.2455  0.4373 -0.0895
 1020MOL0     C37603   3.904   2.831   9.565 -0.4257 -0.6220  0.2001
 1020MOL0     C37604   3.852   2.980   9.564 -0.1370  0.4823  0.2201
 1020MOL0     C37605   3.702   3.007   9.596  0.5497  0.1881 -0.5957
 1020MOL0     C37606   3.589   2.931   9.530 -0.1720 -0.7825 -0.6090
 1020MOL0     C37607   3.602   2.949   9.378  0.3024 -0.2109  0.7631
 1020MOL0     C37608   3.519   2.845   9.293 -0.6820  0.9438  0.4470
 1020MOL0    Cl37609   3.598   2.679   9.304  0.0416 -0.1152  0.1396
 1020MOL0     C37610   3.931   2.568   9.160  0.1407 -0.7987 -0.0522
 1020MOL0     C37611   3.920   2.455   9.076 -1.0304  0.0893 -0.1898
 1020MOL0     O37612   4.182   2.184   9.002  0.1277 -0.4621 -0.0852
 1020MOL0     C37613   4.142   1.959   8.854  0.9937 -0.8114 -0.1740
 1020MOL0     C37614   4.115   1.836   8.788  0.6779 -0.1234 -0.4926
 1020MOL0     N37615   3.375   1.511   8.958  0.4919 -0.5161 -0.7265
 1020MOL0     N37616   3.244   1.536   8.977  0.1190 -0.3245  0.0562
 1020MOL0     C37617   3.023   2.134   9.634  0.2440 -0.1827 -0.7250
 1020MOL0     C37618   3.104   2.130   9.749 -0.3530  0.5164  0.6309
 1020MOL0     C37619   3.390   1.967  10.043 -1.1329  0.1695 -0.0321
 1020MOL0     C37620   3.339   2.069  10.121 -0.8942 -0.1418  0.1160
 1020MOL0     C37621   3.360   2.080  10.255  0.4779 -0.3965 -0.6470
 1020MOL0     C37622   3.434   1.982  10.318  0.8374  0.0488 -0.3328
 1020MOL0     O37623   3.439   1.981  10.452 -0.2491  0.3071  0.8137
 1020MOL0     C37624   3.577   2.002  10.487 -0.5841 -0.2461  0.3654
 1020MOL0     C37625   3.611   2.158  10.473 -0.8299 -0.3159  0.7199
 1020MOL0     C37626   3.755   2.164  10.524 -1.1276 -0.1612  0.5972
 1020MOL0     C37627   3.815   2.298  10.489 -0.2483 -0.4985  0.0449
 1020MOL0     C37628   3.786   2.404  10.588 -0.0955  0.3463  0.0583
 1020MOL0     C37629   3.756   2.486  10.671  1.0669  1.0606  0.4866
 1020MOL0     C37630   3.475   1.873  10.245  0.1798  0.5409  0.3132
 1020MOL0     C37631   3.467   1.859  10.105  0.5120 -0.6969 -0.1250
 1020MOL0     C37632   3.533   1.741  10.039 -0.3778 -0.3149  0.6101
 1020MOL0     H37633   3.399   2.066   9.600  0.3758 -0.9876  1.1860
 1020MOL0     H37634   3.273   2.082   9.397  0.0232 -0.4680 -0.3016
 1020MOL0     H37635   3.091   2.188   9.239  1.7463 -2.0723  0.7747
 1020MOL0     H37636   3.062   2.015   9.243 -0.8677 -1.3536  1.3351
 1020MOL0     H37637   2.853   2.237   9.181 -0.2410  0.2621 -0.9614
 1020MOL0     H37638   2.808   2.080   9.249 -0.6665 -0.2453  0.2783
 1020MOL0     H37639   2.979   2.105   8.993 -1.0327  0.7264 -1.2609
 1020MOL0     H37640   2.813   2.139   8.985  0.0815 -1.9446 -2.1780
 1020MOL0     H37641   2.746   1.924   9.073 -0.4498  0.1338 -1.2613
 1020MOL0     H37642   2.817   1.916   8.911  0.1301 -2.4731  0.4484
 1020MOL0     H37643   2.925   1.827   9.180  0.3587 -4.1033  0.8110
 1020MOL0     H37644   2.876   1.727   9.043 -1.4860  0.8122  0.7486
 1020MOL0     H37645   3.125   1.914   9.037  0.8768 -0.4540  2.9464
 1020MOL0     H37646   3.133   1.747   9.080  2.1310 -1.0975 -2.4922
 1020MOL0     H37647   3.170   1.828   8.827 -0.8577  1.2807  1.5449
 1020MOL0     H37648   2.993   1.834   8.816 -0.9142 -1.5005 -0.7964
 1020MOL0     H37649   3.007   1.586   8.904 -0.5331 -1.1712 -0.8339
 1020MOL0     H37650   3.039   1.619   8.731 -0.0161 -2.6598 -0.1399
 1020MOL0     H37651   3.303   1.582   8.652  0.4298 -0.2375 -1.2542
 1020MOL0     H37652   3.589   1.424   8.854  0.2311  0.5135 -0.8122
 1020MOL0     H37653   3.524   1.409   8.693  3.8560 -2.7780  0.6374
 1020MOL0     H37654   3.567   1.644   8.636  0.5071  0.7163 -1.5770
 1020MOL0     H37655   3.591   1.676   8.809 -2.9198 -1.6187 -0.4992
 1020MOL0     H37656   3.766   1.474   8.658  0.2217  1.1156 -1.7362
 1020MOL0     H37657   3.801   1.554   8.814  0.0495 -0.8044  0.1583
 1020MOL0     H37658   3.791   1.753   8.614 -3.1167 -2.4908 -0.3368
 1020MOL0     H37659   3.851   1.622   8.528  0.5725 -2.3609  1.2461
 1020MOL0     H37660   3.778   1.873   8.787  0.3671  0.1351 -4.6661
 1020MOL0     H37661   3.828   2.066   8.920 -1.7861 -1.3185  0.7710
 1020MOL0     H37662   4.148   2.264   9.248 -2.6058 -1.8674  1.7506
 1020MOL0     H37663   4.165   2.471   9.385  0.9055 -0.1363 -1.1634
 1020MOL0     H37664   4.066   2.603   9.547  2.7910 -0.2763  0.5673
 1020MOL0     H37665   4.205   2.679   9.463 -0.0635  0.3964  1.6295
 1020MOL0     H37666   4.115   2.847   9.626 -0.4015  1.1440  0.1334
 1020MOL0     H37667   4.086   2.889   9.450 -0.2105 -1.2945 -1.6388
 1020MOL0     H37668   3.846   2.774   9.492  2.8275 -4.0447 -0.0509
 1020MOL0     H37669   3.888   2.793   9.666  0.4488  0.7405  0.8790
 1020MOL0     H37670   3.876   3.026   9.468 -1.3717  0.2708 -0.2127
 1020MOL0     H37671   3.913   3.038   9.634 -3.3145 -0.5718  4.2431
 1020MOL0     H37672   3.694   3.113   9.569  0.9034  0.4133  0.1602
 1020MOL0     H37673   3.690   3.000   9.704 -0.0507  2.5911 -0.4490
 1020MOL0     H37674   3.591   2.827   9.565  1.7443 -0.0929  1.5497
 1020MOL0     H37675   3.496   2.979   9.563 -2.6387 -4.8241 -1.0376
 1020MOL0     H37676   3.699   2.928   9.333 -1.1985 -1.5909 -2.1315
 1020MOL0     H37677   3.567   3.046   9.343 -0.6330 -0.8734 -0.2211
 1020MOL0     H37678   3.419   2.845   9.338 -0.8178 -1.3409  0.2562
 1020MOL0     H37679   3.513   2.887   9.192  0.7732  3.2645  1.2306
 1020MOL0     H37680   3.869   2.655   9.137 -1.2649 -1.7364  0.0866
 1020MOL0     H37681   3.853   2.462   8.991 -0.7129  0.6769 -0.3942
 1020MOL0     H37682   4.248   1.976   8.869  1.9499 -0.5867 -5.2925
 1020MOL0     H37683   4.189   1.769   8.745  0.4079  0.2844 -1.6163
 1020MOL0     H37684   2.919   2.152   9.657  0.3074 -0.8718  0.1445
 1020MOL0     H37685   3.061   2.131   9.849 -1.8194 -3.8262  0.2836
 1020MOL0     H37686   3.294   2.151  10.067 -0.8072  0.4635  0.9539
 1020MOL0     H37687   3.341   2.169  10.313 -0.2306  0.4454 -2.1284
 1020MOL0     H37688   3.643   1.935  10.431 -0.8889  0.8794 -1.4337
 1020MOL0     H37689   3.600   1.975  10.591  1.1352  0.3939  0.1822
 1020MOL0     H37690   3.547   2.219  10.537  0.2686  3.0756 -1.1635
 1020MOL0     H37691   3.588   2.181  10.369  0.3578 -3.7452 -0.4377
 1020MOL0     H37692   3.818   2.098  10.464  1.6040  2.1303  0.7339
 1020MOL0     H37693   3.776   2.144  10.630  0.9107  1.2108  0.5063
 1020MOL0     H37694   3.923   2.291  10.479 -0.5232 -1.9839 -3.0032
 1020MOL0     H37695   3.785   2.327  10.388  2.5120 -0.4565 -0.8330
 1020MOL0     H37696   3.715   2.563  10.733  0.9597  0.2873  1.3917
 1020MOL0     H37697   3.518   1.796  10.308  2.4032  0.1294 -1.5785
 1020MOL0     H37698   3.569   1.674  10.117 -1.3921 -0.3971  1.0237
 1020MOL0     H37699   3.460   1.683   9.981 -0.5008  2.7287 -2.6300
 1020MOL0     H37700   3.614   1.772   9.973 -1.7343 -0.2445 -1.0978
 1021MOL0     O37701   9.630   3.432   2.183  0.1712 -0.1604  0.5594
 1021MOL0     C37702   9.711   3.460   2.099 -0.9468 -0.6344  0.1554
 1021MOL0     O37703   9.743   3.382   1.986  0.2270 -0.5951  0.3913
 1021MOL0     C37704   9.683   3.262   1.967 -0.6160  0.3162 -0.2135
 1021MOL0     C37705   9.689   3.166   2.063 -0.1900  0.3788 -0.6191
 1021MOL0     C37706   9.625   3.047   2.047  0.3370  0.2846  0.2222
 1021MOL0     C37707   9.549   3.023   1.929  0.1177  0.2903  0.3363
 1021MOL0     O37708   9.491   2.896   1.923 -0.3402 -0.0430  0.4578
 1021MOL0     C37709   9.389   2.872   1.826  0.4430 -0.5526 -0.5408
 1021MOL0     C37710   9.298   2.766   1.875 -0.3408  0.0773  0.3479
 1021MOL0     C37711   9.371   2.630   1.884 -0.6086 -0.3059  0.7146
 1021MOL0     C37712   9.274   2.513   1.869  0.4060  0.3549  1.0039
 1021MOL0     C37713   9.324   2.391   1.924 -0.5540  0.1431 -0.1039
 1021MOL0     C37714   9.254   2.261   1.900 -0.8349 -0.3181  0.2319
 1021MOL0     C37715   9.204   2.233   1.755 -0.4021 -0.1080 -0.4893
 1021MOL0     C37716   9.142   2.094   1.758 -0.0786 -0.4072 -0.2026
 1021MOL0     N37717   9.053   2.077   1.644 -0.5456 -0.2393 -0.1845
 1021MOL0     C37718   9.083   2.032   1.519 -0.1852 -1.3975  0.1263
 1021MOL0     C37719   8.964   2.059   1.452  0.2861 -0.5746  0.3449
 1021MOL0     C37720   8.933   2.013   1.310 -0.2342  0.3044  0.2999
 1021MOL0     C37721   8.883   2.152   1.236  0.0529 -0.1217  0.0550
 1021MOL0     C37722   8.997   2.228   1.169  0.1585  0.0974 -0.2478
 1021MOL0     C37723   9.111   2.270   1.269 -0.1252  0.5665 -0.1849
 1021MOL0     O37724   9.200   2.366   1.212 -0.6946  0.1607 -0.5085
 1021MOL0     C37725   9.208   2.492   1.251  0.7507  0.1063 -0.2296
 1021MOL0     C37726   9.212   2.584   1.145  0.3333 -0.4558 -0.1460
 1021MOL0     C37727   9.215   2.719   1.174 -0.5730 -0.2720 -0.1681
 1021MOL0     C37728   9.222   2.768   1.308  0.0857  0.5593 -0.2027
 1021MOL0     C37729   9.234   2.907   1.333  0.3540 -0.2217 -1.4519
 1021MOL0     O37730   9.239   2.941   1.464  0.6030  0.2739  0.0937
 1021MOL0     C37731   9.231   3.065   1.512  0.0397  0.1380  0.4159
 1021MOL0     C37732   9.265   3.186   1.449  0.0472 -0.4286  0.0359
 1021MOL0     C37733   9.284   3.296   1.538 -0.4530  0.8464  1.2757
 1021MOL0     C37734   9.261   3.299   1.671 -0.0511  0.4338 -0.1440
 1021MOL0     O37735   9.294   3.415   1.741 -0.1630  0.1008  0.2689
 1021MOL0     C37736   9.228   3.448   1.861 -0.1059 -0.3433  0.8173
 1021MOL0     C37737   9.305   3.567   1.926  0.2066 -1.0589 -0.2223
 1021MOL0     C37738   9.217   3.613   2.045  0.0386  0.0945 -1.2476
 1021MOL0     C37739   9.175   3.508   2.153 -0.3425 -0.3390 -0.5582
 1021MOL0     C37740   9.130   3.566   2.286  0.1754  0.0467 -0.7485
 1021MOL0     C37741   9.001   3.647   2.289 -0.4906  0.3546  0.0524
 1021MOL0     C37742   8.955   3.691   2.426  0.1110  0.5516 -1.0772
 1021MOL0     C37743   9.034   3.797   2.504 -0.8362  0.7637  0.5075
 1021MOL0    Cl37744   9.015   3.955   2.424  0.8133 -0.0787  0.1628
 1021MOL0     C37745   9.209   3.177   1.731  0.2358 -0.7454  0.2660
 1021MOL0     C37746   9.198   3.063   1.650 -0.7964  0.7529 -0.7948
 1021MOL0     O37747   9.239   2.987   1.243  0.6157 -0.0663 -0.6813
 1021MOL0     C37748   9.202   2.668   1.415  0.2124  0.5392 -0.8433
 1021MOL0     C37749   9.201   2.539   1.386  0.2798 -0.2245  0.2519
 1021MOL0     N37750   8.865   2.089   1.546  0.6247  0.1570 -0.2139
 1021MOL0     N37751   8.918   2.098   1.657 -0.2991 -0.0124 -0.7181
 1021MOL0     C37752   9.548   3.113   1.827 -0.3030  0.0175  0.1544
 1021MOL0     C37753   9.612   3.235   1.848 -0.3049  0.0546  0.0717
 1021MOL0     C37754   9.759   3.604   2.074 -0.4284 -0.5351  0.0088
 1021MOL0     C37755   9.863   3.625   1.987 -0.0500  0.2102  0.6352
 1021MOL0     C37756   9.903   3.748   1.944  0.2506  0.1534  0.6916
 1021MOL0     C37757   9.850   3.860   2.003 -0.0275 -0.4257  0.0528
 1021MOL0     O37758   9.875   3.992   1.980  0.5639  0.1199 -0.6329
 1021MOL0     C37759   9.974   4.024   1.880 -0.1385  0.5033 -0.4362
 1021MOL0     C37760  10.049   4.156   1.894  0.4564 -0.3392 -0.1390
 1021MOL0     C37761  10.088   4.200   2.039 -0.0272  0.7737  0.2293
 1021MOL0     C37762  10.180   4.103   2.112 -1.1412  0.4578 -0.4049
 1021MOL0     C37763  10.204   4.139   2.256 -0.0805 -0.0310  0.3895
 1021MOL0     C37764  10.232   4.162   2.373  0.4738  0.6363  0.1490
 1021MOL0     C37765   9.758   3.842   2.104 -0.7205 -0.3739  0.2239
 1021MOL0     C37766   9.710   3.718   2.145 -0.3768 -0.3790  0.8896
 1021MOL0     C37767   9.604   3.699   2.258  0.3885 -0.5411 -0.1598
 1021MOL0     H37768   9.722   3.197   2.161 -1.0480 -0.1810 -0.1404
 1021MOL0     H37769   9.611   2.976   2.128 -2.7337  2.2260  1.5999
 1021MOL0     H37770   9.320   2.957   1.820 -1.7228 -2.1244  0.8604
 1021MOL0     H37771   9.416   2.843   1.724  1.3399 -0.7083 -0.2709
 1021MOL0     H37772   9.225   2.750   1.795  1.2801 -5.0728 -0.5130
 1021MOL0     H37773   9.258   2.792   1.973  5.2602  3.9033  2.1193
 1021MOL0     H37774   9.439   2.630   1.970  2.1342  2.0044 -1.2707
 1021MOL0     H37775   9.433   2.625   1.794 -2.5191  3.2345 -0.9961
 1021MOL0     H37776   9.177   2.532   1.915  0.6758 -2.1663  2.7966
 1021MOL0     H37777   9.265   2.505   1.760 -1.6637  4.4067  0.6886
 1021MOL0     H37778   9.420   2.387   1.873 -1.5858  1.2700 -2.2373
 1021MOL0     H37779   9.354   2.386   2.030 -0.7259 -0.9813 -0.0871
 1021MOL0     H37780   9.322   2.178   1.926  2.1528  1.7874 -0.2931
 1021MOL0     H37781   9.168   2.251   1.966  0.4373  0.5639  2.1204
 1021MOL0     H37782   9.291   2.233   1.688 -1.3949 -0.2595 -1.8208
 1021MOL0     H37783   9.130   2.310   1.731 -0.6542 -0.5493 -1.1433
 1021MOL0     H37784   9.227   2.026   1.767  1.5820  1.6075  0.3932
 1021MOL0     H37785   9.077   2.077   1.845 -2.6240 -1.2543 -2.1367
 1021MOL0     H37786   9.166   1.972   1.482  0.4946  0.1871 -1.0522
 1021MOL0     H37787   9.022   1.978   1.257 -0.4137  2.2788 -1.4360
 1021MOL0     H37788   8.860   1.932   1.314  2.0756 -1.9210 -0.0787
 1021MOL0     H37789   8.806   2.129   1.162 -1.3343  1.2936  0.9765
 1021MOL0     H37790   8.831   2.214   1.310  1.0274  0.7035  0.0552
 1021MOL0     H37791   8.959   2.314   1.114  0.6982  1.5871  1.6359
 1021MOL0     H37792   9.047   2.167   1.092  1.4321 -0.7843  1.2194
 1021MOL0     H37793   9.164   2.179   1.297 -2.2979 -0.5376  0.6281
 1021MOL0     H37794   9.073   2.320   1.358 -0.0508 -0.1535  0.2607
 1021MOL0     H37795   9.215   2.550   1.042 -2.7011  0.3177 -0.5883
 1021MOL0     H37796   9.219   2.792   1.094  0.0546 -0.4519 -0.3041
 1021MOL0     H37797   9.281   3.197   1.342 -1.1381  0.7033 -0.0536
 1021MOL0     H37798   9.328   3.388   1.499 -0.3632 -0.3725 -1.7581
 1021MOL0     H37799   9.126   3.481   1.842 -0.8128 -2.6141  0.4941
 1021MOL0     H37800   9.217   3.367   1.934 -2.0323 -0.2863  0.6433
 1021MOL0     H37801   9.407   3.541   1.956  1.0402 -0.3893 -2.3019
 1021MOL0     H37802   9.313   3.651   1.857 -1.2204  0.2670  1.1353
 1021MOL0     H37803   9.281   3.691   2.087 -2.2780  1.5737 -0.2129
 1021MOL0     H37804   9.127   3.666   2.012  0.2565  1.2773 -0.0344
 1021MOL0     H37805   9.264   3.446   2.171  0.6415  1.4052  0.8960
 1021MOL0     H37806   9.092   3.445   2.120  1.3667 -1.3510 -3.2467
 1021MOL0     H37807   9.216   3.620   2.325  0.9623  0.4659 -2.9399
 1021MOL0     H37808   9.119   3.486   2.360 -2.0677 -0.8626 -1.9369
 1021MOL0     H37809   9.023   3.733   2.225  0.6907  0.7258  0.9297
 1021MOL0     H37810   8.925   3.592   2.232  0.7765 -2.2626  0.7310
 1021MOL0     H37811   8.956   3.603   2.492  1.5743  0.3449 -1.3477
 1021MOL0     H37812   8.852   3.728   2.417 -1.6033 -3.4524 -0.1497
 1021MOL0     H37813   8.998   3.805   2.606 -2.3742 -0.1397  0.0730
 1021MOL0     H37814   9.142   3.784   2.516 -1.1938 -0.3056  3.4980
 1021MOL0     H37815   9.182   3.178   1.836 -0.7881 -0.6604  0.0072
 1021MOL0     H37816   9.155   2.966   1.674  0.8181  0.0593 -0.5740
 1021MOL0     H37817   9.199   2.695   1.520  1.5789  0.3224 -0.7307
 1021MOL0     H37818   9.178   2.469   1.465 -2.0263  1.9686  1.6785
 1021MOL0     H37819   9.493   3.102   1.734 -1.7759  0.1623  0.9744
 1021MOL0     H37820   9.613   3.319   1.780  0.5503  0.9337  1.1289
 1021MOL0     H37821   9.910   3.544   1.931  0.5507 -0.7659  2.4474
 1021MOL0     H37822   9.975   3.762   1.864  1.4220  4.4962  2.2424
 1021MOL0     H37823   9.926   4.007   1.783 -0.9975 -5.1361  0.6005
 1021MOL0     H37824  10.044   3.940   1.878 -1.0274 -0.2734  0.1170
 1021MOL0     H37825   9.976   4.221   1.845  0.2843 -0.9701 -0.7298
 1021MOL0     H37826  10.138   4.151   1.831  0.5181  2.2816 -0.3900
 1021MOL0     H37827   9.999   4.223   2.099 -0.4007  0.2746 -0.1242
 1021MOL0     H37828  10.150   4.290   2.035  0.8724  0.1769  0.4119
 1021MOL0     H37829  10.123   4.014   2.142  0.9625 -0.2988  1.6391
 1021MOL0     H37830  10.269   4.082   2.054  1.3798 -3.1478  4.0769
 1021MOL0     H37831  10.230   4.193   2.475 -5.0013  1.5987  0.0505
 1021MOL0     H37832   9.718   3.936   2.138 -0.4467  0.3513 -1.3613
 1021MOL0     H37833   9.579   3.799   2.295 -0.5641 -1.2571  1.2133
 1021MOL0     H37834   9.515   3.651   2.217  0.5307  0.3318 -1.5430
 1021MOL0     H37835   9.640   3.636   2.340 -2.3921 -0.0847  1.5580
 1022MOL0     O37836   4.774   9.824   4.945 -0.1971  0.5262  0.6197
 1022MOL0     C37837   4.788   9.919   5.021  0.2294  0.0441  0.4402
 1022MOL0     O37838   4.817  10.044   4.984  0.4943  0.0469  0.4352
 1022MOL0     C37839   4.813  10.075   4.846  0.1592 -0.4870  0.4085
 1022MOL0     C37840   4.929  10.139   4.792  0.7572 -1.0865  0.5718
 1022MOL0     C37841   4.919  10.171   4.665  0.2128 -0.5860  0.9329
 1022MOL0     C37842   4.802  10.166   4.590 -0.7502 -0.0193 -0.0588
 1022MOL0     O37843   4.822  10.211   4.459  0.5978  0.0295 -0.9972
 1022MOL0     C37844   4.721  10.297   4.412 -1.1895 -0.1649 -0.4478
 1022MOL0     C37845   4.731  10.443   4.466  0.4799 -0.1806 -0.3472
 1022MOL0     C37846   4.640  10.538   4.385  0.3175  0.1224 -0.9758
 1022MOL0     C37847   4.486  10.513   4.391 -0.3220  0.4576  0.3884
 1022MOL0     C37848   4.422  10.595   4.269  0.0951 -0.6986 -0.1268
 1022MOL0     C37849   4.277  10.569   4.252  0.3557 -0.8156 -0.1009
 1022MOL0     C37850   4.180  10.618   4.364  0.3121  0.0072 -0.0130
 1022MOL0     C37851   4.041  10.554   4.327 -0.1158 -0.5728  0.1821
 1022MOL0     N37852   3.951  10.565   4.439  0.0954  0.1329 -1.4753
 1022MOL0     C37853   3.893  10.684   4.481 -0.4393  0.2216  0.1265
 1022MOL0     C37854   3.807  10.642   4.576  0.5475  0.6721 -0.9046
 1022MOL0     C37855   3.722  10.745   4.661 -0.0648  0.1764  0.0251
 1022MOL0     C37856   3.588  10.771   4.590  0.3794 -0.2716 -0.5814
 1022MOL0     C37857   3.497  10.648   4.586  0.3411  0.4726  0.1614
 1022MOL0     C37858   3.463  10.583   4.724 -0.3978 -0.0196 -0.7057
 1022MOL0     O37859   3.353  10.486   4.712 -0.4381  0.2748  0.3143
 1022MOL0     C37860   3.363  10.378   4.634  0.4016  0.3157  0.4039
 1022MOL0     C37861   3.480  10.320   4.584  0.0159  0.0203  0.4038
 1022MOL0     C37862   3.467  10.215   4.492 -0.7294  0.7983 -0.7505
 1022MOL0     C37863   3.347  10.156   4.453 -0.0566 -1.1508 -0.4253
 1022MOL0     C37864   3.335  10.047   4.355 -0.0443  0.0530 -0.6012
 1022MOL0     O37865   3.219   9.983   4.356 -0.1638 -0.0991  0.2340
 1022MOL0     C37866   3.207   9.861   4.285  0.1165 -0.1152 -0.0183
 1022MOL0     C37867   3.096   9.844   4.198  0.2601  0.1735 -0.5619
 1022MOL0     C37868   3.096   9.739   4.110 -0.5478  0.0497  0.5339
 1022MOL0     C37869   3.186   9.640   4.114 -0.4629 -0.0293  0.2182
 1022MOL0     O37870   3.160   9.545   4.025 -0.5921 -0.3228 -0.1069
 1022MOL0     C37871   3.264   9.455   3.993 -0.6862 -0.6720 -0.1425
 1022MOL0     C37872   3.201   9.369   3.886 -1.2733  0.0614  0.0312
 1022MOL0     C37873   3.272   9.228   3.848  0.3259 -0.2130 -0.4136
 1022MOL0     C37874   3.285   9.184   3.702 -0.7205 -0.7268 -0.2065
 1022MOL0     C37875   3.362   9.056   3.661 -0.8066  0.4132  0.5948
 1022MOL0     C37876   3.269   8.938   3.640 -0.5277  0.1585  0.5327
 1022MOL0     C37877   3.344   8.818   3.599  0.6820  0.6533 -0.3404
 1022MOL0     C37878   3.261   8.685   3.595 -0.3294  0.3096 -1.1598
 1022MOL0    Cl37879   3.206   8.636   3.757  0.0177 -0.6801  0.0852
 1022MOL0     C37880   3.292   9.647   4.201  0.2246  0.3355  0.4825
 1022MOL0     C37881   3.302   9.763   4.278 -0.1537  0.9762 -0.0606
 1022MOL0     O37882   3.437  10.014   4.293 -0.0198  0.4947  0.2025
 1022MOL0     C37883   3.231  10.217   4.509  0.2977 -0.5390  0.0210
 1022MOL0     C37884   3.237  10.326   4.594 -0.2099 -0.9413  0.1596
 1022MOL0     N37885   3.810  10.502   4.585 -0.1322  0.3315  0.1837
 1022MOL0     N37886   3.899  10.456   4.507 -0.0014  0.5964 -0.4443
 1022MOL0     C37887   4.682  10.119   4.636 -0.0318  0.1291  0.1194
 1022MOL0     C37888   4.692  10.070   4.761  0.5664 -0.2814 -0.1702
 1022MOL0     C37889   4.751   9.902   5.166  0.0473 -0.1322 -0.9035
 1022MOL0     C37890   4.678  10.004   5.233 -0.6547  0.2751 -0.2290
 1022MOL0     C37891   4.645   9.987   5.366 -0.5117 -0.8299  0.8803
 1022MOL0     C37892   4.696   9.881   5.436 -0.2063 -0.0890 -0.6807
 1022MOL0     O37893   4.693   9.869   5.573  0.4945 -0.5324 -0.7867
 1022MOL0     C37894   4.570   9.918   5.627  0.3901 -0.1956 -0.1507
 1022MOL0     C37895   4.450   9.832   5.580  0.8822 -0.2627  0.7218
 1022MOL0     C37896   4.481   9.687   5.614  0.1912 -0.2876 -0.0520
 1022MOL0     C37897   4.359   9.589   5.628 -0.8387 -0.2489  0.8498
 1022MOL0     C37898   4.389   9.456   5.676  0.2257 -0.1029 -0.7493
 1022MOL0     C37899   4.403   9.343   5.731 -0.2741 -0.0306  0.7286
 1022MOL0     C37900   4.753   9.780   5.370 -0.0282  0.8195 -0.5098
 1022MOL0     C37901   4.779   9.789   5.234 -0.6554 -0.9637  0.1337
 1022MOL0     C37902   4.842   9.667   5.162  0.3455  0.3271 -0.2589
 1022MOL0     H37903   5.011  10.167   4.858  0.1712  0.4826  0.6626
 1022MOL0     H37904   5.012  10.209   4.624 -0.8638 -0.4723 -1.5922
 1022MOL0     H37905   4.744  10.310   4.306  3.6106  1.5571  0.5659
 1022MOL0     H37906   4.622  10.257   4.432 -0.9869  0.2300  1.4967
 1022MOL0     H37907   4.830  10.490   4.466  0.2131  0.3936 -0.3909
 1022MOL0     H37908   4.704  10.444   4.572  3.7570  0.0152  0.5871
 1022MOL0     H37909   4.677  10.530   4.282 -0.6283 -1.7949 -1.2131
 1022MOL0     H37910   4.650  10.640   4.425  2.2343 -0.7341  0.9302
 1022MOL0     H37911   4.463  10.409   4.366 -2.2564  1.5587 -3.2738
 1022MOL0     H37912   4.437  10.538   4.485 -0.7130  1.9383 -0.1736
 1022MOL0     H37913   4.436  10.703   4.272 -2.8816 -0.2199 -1.0057
 1022MOL0     H37914   4.463  10.553   4.177 -2.3171 -3.6968  0.0008
 1022MOL0     H37915   4.252  10.628   4.164  2.7592  0.3955 -0.0690
 1022MOL0     H37916   4.258  10.465   4.225 -0.6482  0.0094 -2.8448
 1022MOL0     H37917   4.181  10.727   4.366 -1.8321  0.2102  4.9431
 1022MOL0     H37918   4.216  10.598   4.465  0.6457  0.5368 -0.0262
 1022MOL0     H37919   3.993  10.599   4.239  3.2880 -2.2386 -2.8188
 1022MOL0     H37920   4.055  10.447   4.308 -0.9573 -0.2743 -2.6318
 1022MOL0     H37921   3.922  10.779   4.438  1.6459 -0.1697  0.5738
 1022MOL0     H37922   3.700  10.717   4.765 -4.1044 -1.7509 -1.1451
 1022MOL0     H37923   3.783  10.835   4.667 -0.5571  0.5394 -0.4233
 1022MOL0     H37924   3.532  10.835   4.659  1.5148 -0.5965  0.6953
 1022MOL0     H37925   3.595  10.824   4.495 -2.3718 -0.0047 -0.6982
 1022MOL0     H37926   3.540  10.574   4.518 -0.2485 -0.5215  0.8421
 1022MOL0     H37927   3.402  10.673   4.538  0.7622 -1.1230 -1.6124
 1022MOL0     H37928   3.456  10.659   4.802 -1.1471 -0.7254 -0.0561
 1022MOL0     H37929   3.552  10.530   4.760  0.6264  1.7541 -0.5394
 1022MOL0     H37930   3.584  10.340   4.610 -0.0256 -1.2807  1.7539
 1022MOL0     H37931   3.561  10.181   4.451 -0.1158  0.4542  0.8679
 1022MOL0     H37932   3.024   9.925   4.195  1.5006  1.4921  2.0609
 1022MOL0     H37933   3.020   9.738   4.033 -0.3035  1.0507  0.2755
 1022MOL0     H37934   3.351   9.492   3.939 -2.3971 -2.7459 -4.9003
 1022MOL0     H37935   3.294   9.398   4.081 -0.5146  1.7114  1.4178
 1022MOL0     H37936   3.097   9.345   3.911 -1.1364 -0.9118 -0.2723
 1022MOL0     H37937   3.190   9.413   3.786  1.9766 -0.6591 -0.7749
 1022MOL0     H37938   3.372   9.227   3.890  0.4766  2.4383 -0.5614
 1022MOL0     H37939   3.233   9.140   3.900  1.3092 -0.1796  0.4007
 1022MOL0     H37940   3.331   9.270   3.653 -1.3640  0.9301  1.9433
 1022MOL0     H37941   3.184   9.171   3.662 -0.5627  3.1068 -2.3556
 1022MOL0     H37942   3.445   9.030   3.727 -0.4451 -2.2391 -0.7683
 1022MOL0     H37943   3.399   9.076   3.560 -0.9536  0.1084  0.4798
 1022MOL0     H37944   3.208   8.914   3.728 -1.5349 -1.3857 -0.5418
 1022MOL0     H37945   3.197   8.957   3.560  1.4299  2.7103 -0.7624
 1022MOL0     H37946   3.417   8.793   3.676  0.0055 -1.5326 -0.3405
 1022MOL0     H37947   3.388   8.827   3.499 -1.0552 -1.4955 -1.3700
 1022MOL0     H37948   3.177   8.692   3.525 -1.1313  2.5302 -0.0891
 1022MOL0     H37949   3.331   8.608   3.562 -1.2717  0.3263 -3.3491
 1022MOL0     H37950   3.370   9.572   4.208 -0.9334 -0.7711  2.6948
 1022MOL0     H37951   3.374   9.769   4.359 -2.7771 -1.5812  2.7202
 1022MOL0     H37952   3.133  10.176   4.483 -0.2056  0.8084 -0.2698
 1022MOL0     H37953   3.154  10.386   4.629  1.7874  1.4677  1.0624
 1022MOL0     H37954   4.587  10.113   4.585 -0.1685  2.4295  0.0059
 1022MOL0     H37955   4.601  10.028   4.803 -0.9443  4.2069  1.6009
 1022MOL0     H37956   4.664  10.104   5.193  3.4671  0.9164 -0.4229
 1022MOL0     H37957   4.600  10.078   5.403 -0.4024 -0.8007  0.9420
 1022MOL0     H37958   4.539  10.020   5.603 -0.9166 -1.1365 -2.7889
 1022MOL0     H37959   4.569   9.917   5.736 -1.0390  0.6443 -0.1345
 1022MOL0     H37960   4.445   9.832   5.470  0.7173  0.4981  0.7248
 1022MOL0     H37961   4.362   9.883   5.621  2.9394  3.4823  0.9519
 1022MOL0     H37962   4.544   9.686   5.703  0.0694 -0.7461  0.0294
 1022MOL0     H37963   4.545   9.645   5.536 -1.8706 -4.1090  0.0875
 1022MOL0     H37964   4.283   9.641   5.688  1.3254  2.1903  1.6786
 1022MOL0     H37965   4.314   9.572   5.530 -0.8463 -1.2596  1.0193
 1022MOL0     H37966   4.421   9.246   5.773 -3.9260 -0.7535  0.9961
 1022MOL0     H37967   4.788   9.689   5.419  1.4296 -0.2137 -3.2607
 1022MOL0     H37968   4.924   9.695   5.095  1.5089  2.8758  2.0281
 1022MOL0     H37969   4.884   9.611   5.246 -0.3377  3.6934  2.5626
 1022MOL0     H37970   4.765   9.600   5.123 -0.8796  3.1276 -3.1598
 1023MOL0     O37971   6.345   2.441   8.988 -0.0326 -0.8778 -0.3315
 1023MOL0     C37972   6.453   2.403   9.026 -0.2161 -0.5536  0.3240
 1023MOL0     O37973   6.479   2.291   9.112  0.0297  0.0403  0.8684
 1023MOL0     C37974   6.359   2.215   9.126 -0.6190  0.4340 -0.1211
 1023MOL0     C37975   6.349   2.106   9.039  0.3947 -0.1388 -0.5767
 1023MOL0     C37976   6.229   2.020   9.056 -0.2714 -0.0007 -0.0794
 1023MOL0     C37977   6.142   2.034   9.166  1.1136  0.5857 -0.3987
 1023MOL0     O37978   6.034   1.946   9.177  0.3797 -0.4125 -0.2475
 1023MOL0     C37979   5.961   1.946   9.301  0.7372 -0.0367  0.0934
 1023MOL0     C37980   5.841   2.052   9.311  0.3250 -1.0096  0.4478
 1023MOL0     C37981   5.771   2.067   9.448  0.4286 -0.7965 -0.1710
 1023MOL0     C37982   5.663   2.173   9.444  0.3088 -0.8926 -0.2214
 1023MOL0     C37983   5.588   2.179   9.589  0.8213  0.4277  0.2193
 1023MOL0     C37984   5.456   2.255   9.577  0.2757 -0.8570 -0.6140
 1023MOL0     C37985   5.486   2.399   9.539 -1.1062  0.0374  0.0039
 1023MOL0     C37986   5.419   2.520   9.603 -0.7140 -0.2412 -0.6992
 1023MOL0     N37987   5.461   2.541   9.744 -0.7115 -0.1433  0.6984
 1023MOL0     C37988   5.590   2.524   9.796 -0.9034  0.3014 -1.1266
 1023MOL0     C37989   5.561   2.497   9.925 -0.1459 -0.6916  0.4639
 1023MOL0     C37990   5.661   2.485  10.035 -0.0423 -0.0423 -0.1245
 1023MOL0     C37991   5.716   2.618  10.067 -0.5419 -0.6394  0.0163
 1023MOL0     C37992   5.607   2.731  10.074 -1.1049 -0.2456  0.2434
 1023MOL0     C37993   5.656   2.848  10.165  0.6346  0.5472 -0.2108
 1023MOL0     O37994   5.770   2.914  10.110  0.4270 -0.0716  0.3966
 1023MOL0     C37995   5.833   3.001  10.189 -0.0429 -0.2412 -0.7856
 1023MOL0     C37996   5.773   3.049  10.305  0.0905  0.3737  1.2294
 1023MOL0     C37997   5.834   3.148  10.380 -0.6086  0.0360 -0.5670
 1023MOL0     C37998   5.951   3.221  10.339 -0.1440 -0.0407  0.6136
 1023MOL0     C37999   6.016   3.330  10.422 -0.3525  0.1009 -0.5128
 1023MOL0     O38000   5.934   3.390  10.520 -0.3895 -0.3542  0.0744
 1023MOL0     C38001   5.996   3.468  10.615 -0.1563 -0.4128  0.2321
 1023MOL0     C38002   6.027   3.398  10.733  0.4419  0.4772 -0.2788
 1023MOL0     C38003   6.098   3.469  10.838 -0.4771  0.6956  1.3211
 1023MOL0     C38004   6.151   3.599  10.809  0.1325  0.9178 -0.2644
 1023MOL0     O38005   6.260   3.644  10.872  0.1837 -0.6143  0.2486
 1023MOL0     C38006   6.358   3.545  10.889 -0.2566  0.0402  0.5308
 1023MOL0     C38007   6.490   3.615  10.887  0.0533 -0.2691  0.6169
 1023MOL0     C38008   6.509   3.690  11.022  0.1045 -0.4801  0.5872
 1023MOL0     C38009   6.640   3.772  11.007 -1.3904  0.2410 -0.0119
 1023MOL0     C38010   6.621   3.918  10.956  0.6719 -0.7303 -0.0572
 1023MOL0     C38011   6.762   3.991  10.957  0.7266  0.5000 -0.0430
 1023MOL0     C38012   6.757   4.138  10.919  0.0990 -0.9081  0.4415
 1023MOL0     C38013   6.883   4.186  10.843 -1.0829 -0.4597 -0.1726
 1023MOL0    Cl38014   6.907   4.118  10.682 -0.1575 -0.0754  0.5486
 1023MOL0     C38015   6.120   3.666  10.688 -1.0246 -0.2022 -0.0632
 1023MOL0     C38016   6.031   3.602  10.596 -0.3308 -0.9929  0.8769
 1023MOL0     O38017   6.135   3.351  10.407  0.1527 -0.1640  0.1465
 1023MOL0     C38018   6.007   3.171  10.223 -0.1538  0.7106  1.2686
 1023MOL0     C38019   5.945   3.061  10.150 -0.1506  0.2705 -0.0770
 1023MOL0     N38020   5.427   2.497   9.949 -0.3531 -0.3139  0.3629
 1023MOL0     N38021   5.370   2.518   9.837  0.0523  0.0313 -0.1980
 1023MOL0     C38022   6.158   2.154   9.238  0.3775  0.6872 -0.0321
 1023MOL0     C38023   6.269   2.240   9.229  0.0329  0.3607  0.4146
 1023MOL0     C38024   6.577   2.491   9.012  0.1237  0.2674  0.3040
 1023MOL0     C38025   6.681   2.498   9.110 -0.1151 -0.3184  0.1217
 1023MOL0     C38026   6.786   2.586   9.091  0.3644  0.0379  0.1024
 1023MOL0     C38027   6.806   2.652   8.973  0.5690  0.8302  0.1289
 1023MOL0     O38028   6.919   2.721   8.954 -0.7988 -0.2185  0.2173
 1023MOL0     C38029   6.912   2.850   8.895 -0.2142  0.0354 -1.0452
 1023MOL0     C38030   7.045   2.912   8.921 -0.1829  0.2293 -0.2601
 1023MOL0     C38031   7.139   2.860   8.808  0.3341 -0.2778 -1.1898
 1023MOL0     C38032   7.281   2.862   8.868  0.1736  0.0621  0.0369
 1023MOL0     C38033   7.327   2.992   8.887 -1.0049 -0.4218 -0.3203
 1023MOL0     C38034   7.385   3.103   8.881  0.3248 -0.0252  0.3750
 1023MOL0     C38035   6.709   2.634   8.873 -0.3041 -1.5438 -0.8243
 1023MOL0     C38036   6.598   2.553   8.886 -0.1233  0.7959  0.7644
 1023MOL0     C38037   6.499   2.533   8.774  0.5364  1.0857  0.6125
 1023MOL0     H38038   6.416   2.092   8.954 -0.2775 -1.9160 -0.8635
 1023MOL0     H38039   6.225   1.932   8.993 -1.1978 -1.9798  2.5305
 1023MOL0     H38040   5.910   1.849   9.306 -0.5818  0.6721  1.1101
 1023MOL0     H38041   6.019   1.960   9.393 -2.4527  4.5107  1.7526
 1023MOL0     H38042   5.764   2.034   9.235  1.1047  5.6868 -2.6110
 1023MOL0     H38043   5.888   2.140   9.267 -1.7557 -1.2969 -2.6241
 1023MOL0     H38044   5.846   2.099   9.521  1.6356 -0.5775 -1.4648
 1023MOL0     H38045   5.725   1.973   9.481 -0.7134 -1.0191 -2.2479
 1023MOL0     H38046   5.712   2.268   9.422  1.6591 -1.2769  0.9403
 1023MOL0     H38047   5.596   2.135   9.366 -0.0879 -1.8264  0.5585
 1023MOL0     H38048   5.567   2.077   9.625  0.6995 -0.9028 -3.1872
 1023MOL0     H38049   5.658   2.217   9.664 -0.4977 -0.5081  2.0021
 1023MOL0     H38050   5.394   2.203   9.504 -0.4141 -0.5350 -0.2635
 1023MOL0     H38051   5.412   2.261   9.677 -1.8930  3.3665 -1.5873
 1023MOL0     H38052   5.450   2.407   9.436  1.1052 -0.1106 -0.8341
 1023MOL0     H38053   5.592   2.424   9.530 -0.5632 -2.6228 -2.6887
 1023MOL0     H38054   5.454   2.610   9.551  1.2103  1.7648  3.5108
 1023MOL0     H38055   5.311   2.510   9.599 -0.8426 -1.0022  2.1448
 1023MOL0     H38056   5.690   2.531   9.754 -1.4163  2.1007 -2.1783
 1023MOL0     H38057   5.621   2.446  10.130 -0.8824 -0.0895 -0.4922
 1023MOL0     H38058   5.737   2.413  10.003  0.7364  1.6161 -2.2115
 1023MOL0     H38059   5.753   2.612  10.170 -0.5973  1.6104  0.2211
 1023MOL0     H38060   5.802   2.638  10.001  1.1536 -3.6932  1.1136
 1023MOL0     H38061   5.508   2.706  10.114 -2.2440  0.5561 -1.8849
 1023MOL0     H38062   5.588   2.779   9.977  2.1045 -0.5738 -0.6389
 1023MOL0     H38063   5.681   2.820  10.268 -0.7020  3.4301  1.0130
 1023MOL0     H38064   5.577   2.923  10.172  1.2886  1.2902 -0.6592
 1023MOL0     H38065   5.679   3.010  10.342  0.9337 -2.6848  0.3868
 1023MOL0     H38066   5.779   3.157  10.473 -2.4593 -1.3543 -1.4687
 1023MOL0     H38067   5.999   3.294  10.741  2.4348 -0.1084 -0.4851
 1023MOL0     H38068   6.118   3.417  10.931 -1.0719 -1.3351  0.3557
 1023MOL0     H38069   6.342   3.489  10.981 -2.3127 -0.2660  0.0419
 1023MOL0     H38070   6.368   3.472  10.808  1.2474  0.0976  0.6440
 1023MOL0     H38071   6.558   3.530  10.873 -2.2233 -1.8576 -1.5664
 1023MOL0     H38072   6.492   3.670  10.793 -4.6284  0.2065  0.5548
 1023MOL0     H38073   6.419   3.753  11.029  2.4928  3.2586  0.1736
 1023MOL0     H38074   6.527   3.621  11.105  2.6302  2.2331  2.4794
 1023MOL0     H38075   6.718   3.716  10.955  0.0584  0.9310  1.3385
 1023MOL0     H38076   6.677   3.782  11.109 -1.8528 -2.0467  0.4374
 1023MOL0     H38077   6.562   3.974  11.029  2.8317 -1.3975  2.3224
 1023MOL0     H38078   6.569   3.920  10.860  1.0105 -0.2761 -0.2405
 1023MOL0     H38079   6.810   3.983  11.055 -2.6394 -0.4566  1.6969
 1023MOL0     H38080   6.819   3.936  10.881 -1.6071  0.5581 -1.9379
 1023MOL0     H38081   6.753   4.202  11.007 -1.1917 -1.1770  0.5909
 1023MOL0     H38082   6.673   4.168  10.857  0.0322  1.2251  1.5014
 1023MOL0     H38083   6.881   4.295  10.840  0.9209 -0.3723 -0.1807
 1023MOL0     H38084   6.966   4.173  10.913 -2.7388  1.0547  2.2323
 1023MOL0     H38085   6.180   3.754  10.668 -0.9695 -0.1010  0.5083
 1023MOL0     H38086   6.004   3.665  10.512 -0.4071  0.8432  2.2029
 1023MOL0     H38087   6.106   3.200  10.191  0.6506 -1.8064  1.2398
 1023MOL0     H38088   5.998   3.029  10.061  3.0106 -1.8246  2.3524
 1023MOL0     H38089   6.087   2.180   9.316 -0.8278 -2.8552  0.2222
 1023MOL0     H38090   6.298   2.320   9.297 -2.5359 -1.4648  4.0356
 1023MOL0     H38091   6.664   2.445   9.203  0.9317 -1.1377 -0.1324
 1023MOL0     H38092   6.859   2.590   9.171  0.2798 -0.4937  0.2157
 1023MOL0     H38093   6.827   2.898   8.944  2.2101  2.4906  1.0729
 1023MOL0     H38094   6.895   2.830   8.789 -0.9993 -1.7480 -0.6227
 1023MOL0     H38095   7.081   2.890   9.022 -1.5789 -0.1019  0.1834
 1023MOL0     H38096   7.043   3.020   8.904  0.7031  0.1438 -1.0038
 1023MOL0     H38097   7.127   2.938   8.732 -0.6267  0.9023  0.1134
 1023MOL0     H38098   7.110   2.762   8.770 -0.6896  1.0074 -3.9638
 1023MOL0     H38099   7.280   2.798   8.957 -2.1218  0.5477  0.4091
 1023MOL0     H38100   7.343   2.830   8.784  2.8792  1.7878  1.2053
 1023MOL0     H38101   7.430   3.201   8.879 -1.5358  1.0187 -4.4761
 1023MOL0     H38102   6.730   2.698   8.788  2.1468  0.6732  1.2678
 1023MOL0     H38103   6.407   2.587   8.800 -3.3189 -3.1204 -2.4862
 1023MOL0     H38104   6.544   2.569   8.681  2.0708  0.3187  1.0331
 1023MOL0     H38105   6.486   2.426   8.754  2.8517  1.3665 -3.5942
 1024MOL0     O38106   9.599   7.437   6.693  0.8266  0.2519 -0.0297
 1024MOL0     C38107   9.698   7.492   6.653  0.4157 -0.4075  0.7008
 1024MOL0     O38108   9.821   7.438   6.637  0.0919 -0.0052  0.1356
 1024MOL0     C38109   9.861   7.327   6.717  0.2100  0.3942  1.5838
 1024MOL0     C38110   9.789   7.271   6.828  0.5800  0.3335  0.3495
 1024MOL0     C38111   9.840   7.152   6.883 -0.5341 -0.2928  0.3822
 1024MOL0     C38112   9.961   7.097   6.842  0.3509 -0.2948 -0.3535
 1024MOL0     O38113  10.003   6.999   6.926  0.3313 -0.1125 -0.2732
 1024MOL0     C38114  10.126   6.940   6.869 -1.1405 -0.1927  0.6283
 1024MOL0     C38115  10.166   6.810   6.946 -0.0241 -0.5999 -0.7975
 1024MOL0     C38116  10.289   6.744   6.896 -0.2652 -0.4122 -0.1638
 1024MOL0     C38117  10.292   6.688   6.757  0.4127 -0.3613 -0.1969
 1024MOL0     C38118  10.432   6.645   6.710  0.2207 -0.6333 -0.9420
 1024MOL0     C38119  10.477   6.526   6.782 -0.7207 -0.3692 -0.4600
 1024MOL0     C38120  10.390   6.404   6.772 -0.3085  0.0460 -0.1034
 1024MOL0     C38121  10.475   6.281   6.814  0.0837  0.1346  0.4867
 1024MOL0     N38122  10.501   6.278   6.953  0.7781  0.2359  0.4011
 1024MOL0     C38123  10.592   6.346   7.033  0.5602 -0.3759  0.0086
 1024MOL0     C38124  10.572   6.313   7.163 -0.5570  0.3773 -1.0601
 1024MOL0     C38125  10.635   6.371   7.292 -1.2714 -0.3314  0.4955
 1024MOL0     C38126  10.566   6.491   7.356  0.2467 -0.4603 -1.1479
 1024MOL0     C38127  10.622   6.520   7.498 -0.2917 -0.0610  1.0917
 1024MOL0     C38128  10.572   6.444   7.617 -0.4629  1.1023 -0.9464
 1024MOL0     O38129  10.430   6.457   7.655  0.5775  0.4702  0.6603
 1024MOL0     C38130  10.384   6.399   7.771 -0.7016 -0.3671 -1.0109
 1024MOL0     C38131  10.459   6.336   7.869 -0.9255  0.0541  1.5365
 1024MOL0     C38132  10.396   6.288   7.988  0.1513 -0.4191 -0.1019
 1024MOL0     C38133  10.257   6.283   8.000  0.1257  0.4351  0.8336
 1024MOL0     C38134  10.191   6.221   8.110  0.1331 -0.3865  0.5337
 1024MOL0     O38135  10.242   6.092   8.155 -0.1259 -0.5411 -0.0239
 1024MOL0     C38136  10.202   6.037   8.271 -0.2088 -0.3320 -0.3501
 1024MOL0     C38137  10.088   5.957   8.282 -0.8029 -0.7453 -0.0696
 1024MOL0     C38138  10.043   5.909   8.408 -0.2829  0.9827  0.4212
 1024MOL0     C38139  10.103   5.959   8.528 -0.8418  0.4354  0.0068
 1024MOL0     O38140  10.073   5.926   8.656 -0.2628  0.2287 -0.6985
 1024MOL0     C38141   9.932   5.922   8.671  0.3518  0.3595 -0.1411
 1024MOL0     C38142   9.890   5.975   8.806  0.6930  0.1464 -0.0073
 1024MOL0     C38143   9.893   5.862   8.912  0.5781  0.2626 -1.0380
 1024MOL0     C38144   9.845   5.915   9.052 -0.0699  0.6387 -0.8188
 1024MOL0     C38145   9.874   5.806   9.161 -1.1275  0.2991  0.7693
 1024MOL0     C38146   9.836   5.863   9.291  0.8452 -0.2696 -0.2871
 1024MOL0     C38147   9.832   5.737   9.380  0.8017 -0.3220  0.3826
 1024MOL0     C38148   9.824   5.780   9.528 -0.6768 -0.0758  0.1985
 1024MOL0    Cl38149   9.801   5.629   9.617 -0.2920  0.0337  0.3516
 1024MOL0     C38150  10.220   6.033   8.518 -1.6622 -0.1762  0.5932
 1024MOL0     C38151  10.267   6.081   8.386  0.6831  0.3494 -0.5311
 1024MOL0     O38152  10.102   6.275   8.167 -0.2854  0.5094  0.3191
 1024MOL0     C38153  10.188   6.347   7.895  1.7290 -0.3715 -0.7981
 1024MOL0     C38154  10.249   6.396   7.780 -0.1434  0.5349 -0.1132
 1024MOL0     N38155  10.470   6.216   7.161 -0.0739  0.2459  0.0303
 1024MOL0     N38156  10.427   6.202   7.038  0.6153 -0.3288  0.4984
 1024MOL0     C38157  10.028   7.152   6.726 -0.3846  0.7550  0.3123
 1024MOL0     C38158   9.972   7.262   6.667  0.2175 -0.6568 -0.9798
 1024MOL0     C38159   9.670   7.621   6.591 -0.4122  0.2940 -0.0319
 1024MOL0     C38160   9.591   7.714   6.662 -0.5537  0.4928 -0.2630
 1024MOL0     C38161   9.576   7.840   6.605  0.5207 -0.0482 -0.5033
 1024MOL0     C38162   9.622   7.879   6.484 -0.7708 -0.1645 -0.1444
 1024MOL0     O38163   9.594   8.000   6.423  0.5636  0.4895  0.4988
 1024MOL0     C38164   9.492   8.086   6.481 -0.1560 -0.7772 -0.4032
 1024MOL0     C38165   9.479   8.213   6.393 -0.8514  0.5709 -0.1688
 1024MOL0     C38166   9.428   8.341   6.469 -0.6758 -0.4216  0.1835
 1024MOL0     C38167   9.427   8.465   6.377 -0.4314  0.9699 -1.0808
 1024MOL0     C38168   9.397   8.584   6.461 -0.7041  0.0707 -0.2685
 1024MOL0     C38169   9.369   8.666   6.544 -1.3292 -0.0888 -0.7059
 1024MOL0     C38170   9.694   7.791   6.413 -0.3056  0.5688  0.2161
 1024MOL0     C38171   9.717   7.654   6.462  0.1571 -0.1488 -0.6551
 1024MOL0     C38172   9.804   7.568   6.373  0.1059 -1.0447  0.1453
 1024MOL0     H38173   9.708   7.321   6.879  0.1296 -0.1846  0.1529
 1024MOL0     H38174   9.795   7.098   6.966  3.0060 -2.4203  1.1089
 1024MOL0     H38175  10.115   6.915   6.763 -0.0614  0.1573  0.4203
 1024MOL0     H38176  10.208   7.010   6.887 -1.6358  1.0133 -1.5169
 1024MOL0     H38177  10.088   6.739   6.917 -0.6170  0.4707 -1.9392
 1024MOL0     H38178  10.164   6.820   7.054 -0.3659  1.2571 -0.9329
 1024MOL0     H38179  10.316   6.665   6.967  2.4043  1.6419  1.3258
 1024MOL0     H38180  10.380   6.804   6.905 -0.0671 -0.9517  2.0043
 1024MOL0     H38181  10.229   6.598   6.752 -2.6754  1.5508  1.0679
 1024MOL0     H38182  10.246   6.766   6.696  2.4078  3.8115  3.1615
 1024MOL0     H38183  10.432   6.623   6.603 -0.2358  0.8807 -1.2785
 1024MOL0     H38184  10.505   6.726   6.713 -0.3391 -0.1338 -0.6930
 1024MOL0     H38185  10.580   6.510   6.749 -0.1306  0.7220  0.7668
 1024MOL0     H38186  10.481   6.557   6.887  1.9119 -1.5925 -0.1320
 1024MOL0     H38187  10.349   6.394   6.672  1.4266  0.4766 -0.8982
 1024MOL0     H38188  10.312   6.426   6.845  0.6148  0.7104  0.7218
 1024MOL0     H38189  10.427   6.186   6.789  2.1481 -0.7649 -0.2611
 1024MOL0     H38190  10.568   6.263   6.758  0.3787  0.9924  0.6862
 1024MOL0     H38191  10.670   6.418   7.008  3.1923 -1.7448  3.4636
 1024MOL0     H38192  10.641   6.282   7.355 -3.4114 -2.5933 -2.2286
 1024MOL0     H38193  10.735   6.402   7.262 -0.4835 -1.7345  1.5654
 1024MOL0     H38194  10.559   6.579   7.291  0.5223  1.1312  0.8442
 1024MOL0     H38195  10.462   6.472   7.384  1.2637 -1.2810  2.6202
 1024MOL0     H38196  10.588   6.619   7.529  3.5505  0.8391  3.0930
 1024MOL0     H38197  10.732   6.524   7.504 -0.3158  0.7489  1.1092
 1024MOL0     H38198  10.640   6.460   7.701  3.9724  0.1012 -3.9659
 1024MOL0     H38199  10.601   6.339   7.600  0.2099  0.9387  0.9657
 1024MOL0     H38200  10.567   6.334   7.854 -1.2460  2.9633 -4.0656
 1024MOL0     H38201  10.454   6.237   8.065 -1.2648 -0.5669  0.8989
 1024MOL0     H38202  10.048   5.920   8.188 -1.0304 -0.7877  0.0413
 1024MOL0     H38203   9.952   5.850   8.414 -0.4870  1.0818 -1.0923
 1024MOL0     H38204   9.871   5.985   8.605 -0.7252 -0.5947 -0.0966
 1024MOL0     H38205   9.898   5.818   8.662  1.8349 -0.4996  2.9005
 1024MOL0     H38206   9.948   6.058   8.845  0.2925 -0.1905  1.3600
 1024MOL0     H38207   9.787   6.010   8.797 -0.2804 -2.5188 -0.3251
 1024MOL0     H38208   9.829   5.780   8.877  1.7710 -1.0319 -0.2775
 1024MOL0     H38209   9.997   5.831   8.915  1.4213  2.6812 -2.3374
 1024MOL0     H38210   9.737   5.934   9.047 -0.3131 -0.1880  0.7084
 1024MOL0     H38211   9.903   6.004   9.074  3.6264 -0.9765 -3.1279
 1024MOL0     H38212   9.981   5.786   9.155 -1.3142 -0.2956 -1.5006
 1024MOL0     H38213   9.826   5.712   9.129  0.1695  0.8462 -3.4586
 1024MOL0     H38214   9.909   5.936   9.328  0.6986 -0.0232 -0.4829
 1024MOL0     H38215   9.735   5.903   9.277  0.1418 -2.4536 -1.8540
 1024MOL0     H38216   9.923   5.677   9.368 -0.7046 -2.7491  0.3700
 1024MOL0     H38217   9.745   5.683   9.342 -0.5308  2.6675 -1.1830
 1024MOL0     H38218   9.912   5.834   9.564 -1.5609  0.4880  1.5952
 1024MOL0     H38219   9.741   5.845   9.558 -0.0963  0.4281  0.7490
 1024MOL0     H38220  10.272   6.057   8.611  0.8685  0.3072 -0.8466
 1024MOL0     H38221  10.353   6.147   8.379  1.8047 -0.9875  0.1846
 1024MOL0     H38222  10.080   6.359   7.895  1.8482  0.8175  0.1935
 1024MOL0     H38223  10.184   6.450   7.712 -0.2318  0.1436 -0.3429
 1024MOL0     H38224  10.128   7.130   6.692 -0.4540  1.8326 -0.6409
 1024MOL0     H38225  10.020   7.295   6.575  0.8745 -2.3362 -1.2959
 1024MOL0     H38226   9.557   7.675   6.757  1.6253  1.0832  0.7952
 1024MOL0     H38227   9.504   7.903   6.657  1.1278 -1.6957  2.6095
 1024MOL0     H38228   9.516   8.114   6.584 -0.8843 -0.8944 -0.2015
 1024MOL0     H38229   9.399   8.030   6.482 -0.1348 -0.8116  0.7027
 1024MOL0     H38230   9.435   8.199   6.293  1.2381  0.0136 -1.0575
 1024MOL0     H38231   9.581   8.244   6.372 -0.4870 -1.1256 -1.1190
 1024MOL0     H38232   9.496   8.360   6.553  1.9504 -1.7269 -1.4947
 1024MOL0     H38233   9.332   8.306   6.507 -1.4604  0.9086 -0.4880
 1024MOL0     H38234   9.525   8.480   6.329 -0.8259  0.6017 -2.0283
 1024MOL0     H38235   9.352   8.464   6.298 -0.9940  4.3928 -0.7227
 1024MOL0     H38236   9.361   8.752   6.608  4.4562  1.6470 -1.7490
 1024MOL0     H38237   9.737   7.820   6.317 -0.5899  0.7571  0.1444
 1024MOL0     H38238   9.907   7.603   6.387 -0.1379 -0.5985  0.9465
 1024MOL0     H38239   9.780   7.463   6.391 -0.6613 -0.7574  0.9062
 1024MOL0     H38240   9.776   7.588   6.269 -0.2002  1.0070  0.5741
  11.49120  11.49120  11.49120
